       N       E                     dE             d eps       ncg     rms          rms(c)
RMM:   1     0.220141453847E+04    0.22014E+04   -0.52440E+04  2132   0.654E+02
RMM:   2     0.705843602617E+03   -0.14956E+04   -0.16262E+04  2132   0.177E+02
RMM:   3     0.137941593199E+03   -0.56790E+03   -0.65732E+03  2132   0.117E+02
RMM:   4    -0.159296985121E+03   -0.29724E+03   -0.27825E+03  2132   0.935E+01
RMM:   5    -0.287498695395E+03   -0.12820E+03   -0.11452E+03  2132   0.595E+01
RMM:   6    -0.349959220118E+03   -0.62461E+02   -0.55201E+02  2132   0.423E+01
RMM:   7    -0.382845621275E+03   -0.32886E+02   -0.30423E+02  2132   0.293E+01
RMM:   8    -0.404267717548E+03   -0.21422E+02   -0.18369E+02  2132   0.233E+01
RMM:   9    -0.435998124608E+03   -0.31730E+02   -0.30677E+02  6101   0.173E+01
RMM:  10    -0.441282505170E+03   -0.52844E+01   -0.63008E+01  6392   0.539E+00
RMM:  11    -0.442508068301E+03   -0.12256E+01   -0.11278E+01  6220   0.173E+00
RMM:  12    -0.442885191976E+03   -0.37712E+00   -0.27661E+00  6365   0.603E-01    0.134E+02
RMM:  13    -0.425553383197E+03    0.17332E+02   -0.80770E+01  4671   0.119E+01    0.712E+01
RMM:  14    -0.498823270993E+03   -0.73270E+02   -0.53557E+02  5415   0.232E+01    0.306E+01
RMM:  15    -0.416909836891E+03    0.81913E+02   -0.20135E+02  5111   0.163E+01    0.766E+00
RMM:  16    -0.414033252523E+03    0.28766E+01   -0.39863E+01  6097   0.614E+00    0.433E+00
RMM:  17    -0.413207535246E+03    0.82572E+00   -0.26418E+00  5409   0.192E+00    0.244E+00
RMM:  18    -0.413177323921E+03    0.30211E-01   -0.74906E-01  5998   0.883E-01    0.171E+00
RMM:  19    -0.413171871179E+03    0.54527E-02   -0.25735E-01  5674   0.551E-01    0.917E-01
RMM:  20    -0.413192042244E+03   -0.20171E-01   -0.32415E-01  5575   0.586E-01    0.666E-01
RMM:  21    -0.413168463769E+03    0.23578E-01   -0.37078E-02  4983   0.251E-01    0.315E-01
RMM:  22    -0.413164554451E+03    0.39093E-02   -0.26636E-02  5830   0.158E-01    0.138E-01
RMM:  23    -0.413163894873E+03    0.65958E-03   -0.59940E-03  6034   0.681E-02    0.863E-02
RMM:  24    -0.413162906255E+03    0.98862E-03   -0.17799E-03  5308   0.421E-02    0.546E-02
RMM:  25    -0.413162374886E+03    0.53137E-03   -0.89477E-04  4952   0.299E-02    0.419E-02
RMM:  26    -0.413162534274E+03   -0.15939E-03   -0.11630E-03  5785   0.348E-02    0.351E-02
RMM:  27    -0.413162965991E+03   -0.43172E-03   -0.20378E-04  4578   0.201E-02    0.198E-02
RMM:  28    -0.413163417225E+03   -0.45123E-03   -0.15748E-04  5121   0.175E-02    0.971E-03
RMM:  29    -0.413163808133E+03   -0.39091E-03   -0.11049E-04  4711   0.153E-02    0.473E-03
RMM:  30    -0.413164063111E+03   -0.25498E-03   -0.80637E-05  4372   0.110E-02    0.459E-03
RMM:  31    -0.413164213989E+03   -0.15088E-03   -0.59159E-05  3310   0.766E-03    0.369E-03
RMM:  32    -0.413164245135E+03   -0.31146E-04   -0.23401E-05  2993   0.337E-03    0.213E-03
RMM:  33    -0.413164259002E+03   -0.13867E-04   -0.93971E-06  2837   0.241E-03    0.694E-04
RMM:  34    -0.413164261566E+03   -0.25641E-05   -0.51153E-06  2644   0.166E-03    0.544E-04
RMM:  35    -0.413164262104E+03   -0.53750E-06   -0.22608E-06  2450   0.136E-03
    1 T=    61. E= -.41286646E+03 F= -.41316426E+03 E0= -.41314176E+03  EK= 0.29781E+00 SP= 0.00E+00 SK= 0.00E+00
       N       E                     dE             d eps       ncg     rms          rms(c)
RMM:   1    -0.413155163144E+03    0.90984E-02   -0.10976E+01  3999   0.695E-01    0.886E-01
RMM:   2    -0.413165659337E+03   -0.10496E-01   -0.13521E-01  3981   0.996E-02    0.641E-01
RMM:   3    -0.413163974585E+03    0.16848E-02   -0.68257E-03  4621   0.360E-02    0.145E-01
RMM:   4    -0.413176828669E+03   -0.12854E-01   -0.13524E-02  5219   0.970E-02    0.476E-01
RMM:   5    -0.413163770112E+03    0.13059E-01   -0.64974E-03  4859   0.795E-02    0.283E-02
RMM:   6    -0.413163846090E+03   -0.75978E-04   -0.10562E-03  5818   0.313E-02    0.179E-02
RMM:   7    -0.413163858134E+03   -0.12044E-04   -0.15375E-04  5686   0.110E-02    0.114E-02
RMM:   8    -0.413163865473E+03   -0.73394E-05   -0.20440E-05  4019   0.464E-03    0.502E-03
RMM:   9    -0.413163871205E+03   -0.57324E-05   -0.42733E-06  2816   0.245E-03    0.369E-03
RMM:  10    -0.413163876721E+03   -0.55156E-05   -0.12039E-06  2524   0.157E-03    0.241E-03
RMM:  11    -0.413163884789E+03   -0.80676E-05   -0.12149E-06  2518   0.150E-03    0.935E-04
RMM:  12    -0.413163889247E+03   -0.44580E-05   -0.69697E-07  2239   0.112E-03    0.385E-04
RMM:  13    -0.413163890005E+03   -0.75855E-06   -0.34056E-07  1593   0.793E-04
    2 T=    61. E= -.41286617E+03 F= -.41316389E+03 E0= -.41314139E+03  EK= 0.29772E+00 SP= 0.00E+00 SK= 0.00E+00
       N       E                     dE             d eps       ncg     rms          rms(c)
RMM:   1    -0.413156249403E+03    0.76398E-02   -0.11006E+01  4187   0.696E-01    0.910E-01
RMM:   2    -0.413165814053E+03   -0.95647E-02   -0.13262E-01  3993   0.964E-02    0.634E-01
RMM:   3    -0.413164666111E+03    0.11479E-02   -0.72556E-03  4828   0.378E-02    0.161E-01
RMM:   4    -0.413190852733E+03   -0.26187E-01   -0.26593E-02  5187   0.136E-01    0.675E-01
RMM:   5    -0.413164323268E+03    0.26529E-01   -0.12957E-02  4834   0.113E-01    0.372E-02
RMM:   6    -0.413164488035E+03   -0.16477E-03   -0.20634E-03  5808   0.445E-02    0.215E-02
RMM:   7    -0.413164498025E+03   -0.99902E-05   -0.26662E-04  5901   0.141E-02    0.146E-02
RMM:   8    -0.413164498618E+03   -0.59333E-06   -0.39022E-05  4761   0.600E-03    0.764E-03
RMM:   9    -0.413164498221E+03    0.39722E-06   -0.78672E-06  3273   0.315E-03
    3 T=    61. E= -.41286657E+03 F= -.41316450E+03 E0= -.41314200E+03  EK= 0.29793E+00 SP= 0.00E+00 SK= 0.00E+00
       N       E                     dE             d eps       ncg     rms          rms(c)
RMM:   1    -0.413155754451E+03    0.87442E-02   -0.10920E+01  4228   0.697E-01    0.893E-01
RMM:   2    -0.413165834179E+03   -0.10080E-01   -0.13154E-01  4238   0.993E-02    0.628E-01
RMM:   3    -0.413169753877E+03   -0.39197E-02   -0.11319E-02  5185   0.766E-02    0.347E-01
RMM:   4    -0.413186888476E+03   -0.17135E-01   -0.36475E-02  5117   0.163E-01    0.629E-01
RMM:   5    -0.413164256848E+03    0.22632E-01   -0.88224E-03  4703   0.105E-01    0.538E-02
RMM:   6    -0.413164245335E+03    0.11513E-04   -0.15536E-03  5471   0.398E-02    0.202E-02
RMM:   7    -0.413164264525E+03   -0.19190E-04   -0.25570E-04  6011   0.147E-02    0.135E-02
RMM:   8    -0.413164266827E+03   -0.23018E-05   -0.39789E-05  5102   0.649E-03    0.687E-03
RMM:   9    -0.413164267809E+03   -0.98253E-06   -0.90664E-06  3461   0.381E-03
    4 T=    61. E= -.41286631E+03 F= -.41316427E+03 E0= -.41314178E+03  EK= 0.29796E+00 SP= 0.00E+00 SK= 0.00E+00
       N       E                     dE             d eps       ncg     rms          rms(c)
RMM:   1    -0.413155638535E+03    0.86283E-02   -0.10963E+01  4239   0.704E-01    0.884E-01
RMM:   2    -0.413166082605E+03   -0.10444E-01   -0.13528E-01  4122   0.959E-02    0.640E-01
RMM:   3    -0.413164437466E+03    0.16451E-02   -0.67295E-03  4430   0.327E-02    0.142E-01
RMM:   4    -0.413169371778E+03   -0.49343E-02   -0.54340E-03  5159   0.622E-02    0.298E-01
RMM:   5    -0.413164369869E+03    0.50019E-02   -0.25000E-03  4858   0.491E-02    0.223E-02
RMM:   6    -0.413164383056E+03   -0.13187E-04   -0.40641E-04  5838   0.194E-02    0.148E-02
RMM:   7    -0.413164399971E+03   -0.16915E-04   -0.84762E-05  5378   0.892E-03    0.900E-03
RMM:   8    -0.413164400530E+03   -0.55858E-06   -0.96243E-06  3369   0.369E-03
    5 T=    61. E= -.41286626E+03 F= -.41316440E+03 E0= -.41314192E+03  EK= 0.29814E+00 SP= 0.00E+00 SK= 0.00E+00
       N       E                     dE             d eps       ncg     rms          rms(c)
RMM:   1    -0.413156512313E+03    0.78877E-02   -0.11011E+01  4254   0.710E-01    0.905E-01
RMM:   2    -0.413166358397E+03   -0.98461E-02   -0.13272E-01  4225   0.975E-02    0.636E-01
RMM:   3    -0.413169263809E+03   -0.29054E-02   -0.10555E-02  5163   0.709E-02    0.317E-01
RMM:   4    -0.413192223482E+03   -0.22960E-01   -0.39828E-02  5125   0.169E-01    0.689E-01
RMM:   5    -0.413164823134E+03    0.27400E-01   -0.10995E-02  4715   0.113E-01    0.485E-02
RMM:   6    -0.413164904914E+03   -0.81781E-04   -0.19604E-03  5657   0.435E-02    0.195E-02
RMM:   7    -0.413164922023E+03   -0.17109E-04   -0.25927E-04  5997   0.140E-02    0.138E-02
RMM:   8    -0.413164925415E+03   -0.33921E-05   -0.41916E-05  5053   0.637E-03    0.718E-03
RMM:   9    -0.413164926224E+03   -0.80869E-06   -0.76852E-06  3090   0.341E-03
    6 T=    61. E= -.41286648E+03 F= -.41316493E+03 E0= -.41314246E+03  EK= 0.29844E+00 SP= 0.00E+00 SK= 0.00E+00
       N       E                     dE             d eps       ncg     rms          rms(c)
RMM:   1    -0.413156395097E+03    0.85303E-02   -0.10958E+01  4265   0.717E-01    0.901E-01
RMM:   2    -0.413165791629E+03   -0.93965E-02   -0.13248E-01  4138   0.990E-02    0.629E-01
RMM:   3    -0.413164781725E+03    0.10099E-02   -0.70519E-03  4755   0.359E-02    0.157E-01
RMM:   4    -0.413183669016E+03   -0.18887E-01   -0.19022E-02  5158   0.116E-01    0.576E-01
RMM:   5    -0.413164493468E+03    0.19176E-01   -0.94002E-03  4839   0.955E-02    0.331E-02
RMM:   6    -0.413164610552E+03   -0.11708E-03   -0.15231E-03  5851   0.375E-02    0.201E-02
RMM:   7    -0.413164614876E+03   -0.43237E-05   -0.20215E-04  5801   0.126E-02    0.134E-02
RMM:   8    -0.413164613730E+03    0.11456E-05   -0.28683E-05  4442   0.541E-03    0.652E-03
RMM:   9    -0.413164612931E+03    0.79949E-06   -0.59280E-06  3018   0.288E-03
    7 T=    61. E= -.41286609E+03 F= -.41316461E+03 E0= -.41314217E+03  EK= 0.29852E+00 SP= 0.00E+00 SK= 0.00E+00
       N       E                     dE             d eps       ncg     rms          rms(c)
RMM:   1    -0.413156338121E+03    0.82756E-02   -0.10955E+01  4274   0.718E-01    0.883E-01
RMM:   2    -0.413166878318E+03   -0.10540E-01   -0.13468E-01  4276   0.955E-02    0.637E-01
RMM:   3    -0.413170664016E+03   -0.37857E-02   -0.11251E-02  5159   0.759E-02    0.346E-01
RMM:   4    -0.413190809584E+03   -0.20146E-01   -0.40289E-02  5110   0.171E-01    0.666E-01
RMM:   5    -0.413165213918E+03    0.25596E-01   -0.10190E-02  4712   0.110E-01    0.558E-02
RMM:   6    -0.413165208342E+03    0.55765E-05   -0.17809E-03  5472   0.423E-02    0.191E-02
RMM:   7    -0.413165235037E+03   -0.26695E-04   -0.28585E-04  6032   0.154E-02    0.131E-02
RMM:   8    -0.413165240355E+03   -0.53175E-05   -0.42315E-05  5127   0.658E-03    0.687E-03
RMM:   9    -0.413165245166E+03   -0.48112E-05   -0.94197E-06  3462   0.383E-03    0.377E-03
RMM:  10    -0.413165247866E+03   -0.26997E-05   -0.15586E-06  2544   0.201E-03    0.228E-03
RMM:  11    -0.413165251917E+03   -0.40516E-05   -0.14343E-06  2561   0.180E-03    0.138E-03
RMM:  12    -0.413165254152E+03   -0.22349E-05   -0.61547E-07  2398   0.126E-03    0.492E-04
RMM:  13    -0.413165256211E+03   -0.20593E-05   -0.40967E-07  1735   0.894E-04    0.288E-04
RMM:  14    -0.413165257215E+03   -0.10039E-05   -0.24369E-07  1430   0.761E-04    0.152E-04
RMM:  15    -0.413165257909E+03   -0.69410E-06   -0.20488E-07  1456   0.735E-04
    8 T=    61. E= -.41286639E+03 F= -.41316526E+03 E0= -.41314283E+03  EK= 0.29886E+00 SP= 0.00E+00 SK= 0.00E+00
       N       E                     dE             d eps       ncg     rms          rms(c)
RMM:   1    -0.413156816837E+03    0.84404E-02   -0.11016E+01  4282   0.722E-01    0.900E-01
RMM:   2    -0.413166845062E+03   -0.10028E-01   -0.13390E-01  4175   0.100E-01    0.639E-01
RMM:   3    -0.413165715935E+03    0.11291E-02   -0.71487E-03  4876   0.402E-02    0.163E-01
RMM:   4    -0.413197440960E+03   -0.31725E-01   -0.32515E-02  5160   0.150E-01    0.742E-01
RMM:   5    -0.413165140472E+03    0.32300E-01   -0.15754E-02  4810   0.124E-01    0.395E-02
RMM:   6    -0.413165336201E+03   -0.19573E-03   -0.25530E-03  5784   0.487E-02    0.214E-02
RMM:   7    -0.413165349353E+03   -0.13152E-04   -0.31647E-04  5889   0.149E-02    0.152E-02
RMM:   8    -0.413165350020E+03   -0.66742E-06   -0.44101E-05  4820   0.626E-03    0.831E-03
RMM:   9    -0.413165349420E+03    0.60008E-06   -0.91374E-06  3371   0.333E-03
    9 T=    61. E= -.41286628E+03 F= -.41316535E+03 E0= -.41314294E+03  EK= 0.29907E+00 SP= 0.00E+00 SK= 0.00E+00
       N       E                     dE             d eps       ncg     rms          rms(c)
RMM:   1    -0.413157330335E+03    0.80197E-02   -0.10999E+01  4294   0.732E-01    0.908E-01
RMM:   2    -0.413166635856E+03   -0.93055E-02   -0.13214E-01  4310   0.977E-02    0.631E-01
RMM:   3    -0.413171378419E+03   -0.47426E-02   -0.12089E-02  5149   0.793E-02    0.361E-01
RMM:   4    -0.413186053921E+03   -0.14676E-01   -0.35055E-02  5089   0.160E-01    0.603E-01
RMM:   5    -0.413165497037E+03    0.20557E-01   -0.79395E-03  4678   0.100E-01    0.524E-02
RMM:   6    -0.413165478299E+03    0.18738E-04   -0.14247E-03  5442   0.375E-02    0.207E-02
RMM:   7    -0.413165491767E+03   -0.13468E-04   -0.23338E-04  5999   0.143E-02    0.135E-02
RMM:   8    -0.413165490434E+03    0.13336E-05   -0.37152E-05  5079   0.640E-03    0.671E-03
RMM:   9    -0.413165486254E+03    0.41801E-05   -0.81857E-06  3337   0.368E-03    0.353E-03
RMM:  10    -0.413165485616E+03    0.63750E-06   -0.12600E-06  2524   0.193E-03
   10 T=    61. E= -.41286622E+03 F= -.41316549E+03 E0= -.41314310E+03  EK= 0.29927E+00 SP= 0.00E+00 SK= 0.00E+00
       N       E                     dE             d eps       ncg     rms          rms(c)
RMM:   1    -0.413157443103E+03    0.80432E-02   -0.10949E+01  4298   0.727E-01    0.884E-01
RMM:   2    -0.413167887645E+03   -0.10445E-01   -0.13365E-01  4210   0.967E-02    0.635E-01
RMM:   3    -0.413166670291E+03    0.12174E-02   -0.69089E-03  4924   0.412E-02    0.166E-01
RMM:   4    -0.413201315601E+03   -0.34645E-01   -0.35725E-02  5149   0.157E-01    0.775E-01
RMM:   5    -0.413166005613E+03    0.35310E-01   -0.17249E-02  4812   0.130E-01    0.413E-02
RMM:   6    -0.413166197187E+03   -0.19157E-03   -0.26519E-03  5766   0.507E-02    0.210E-02
RMM:   7    -0.413166213530E+03   -0.16343E-04   -0.34269E-04  5939   0.153E-02    0.150E-02
RMM:   8    -0.413166215280E+03   -0.17498E-05   -0.43569E-05  4773   0.620E-03    0.779E-03
RMM:   9    -0.413166215773E+03   -0.49346E-06   -0.95137E-06  3359   0.331E-03
   11 T=    61. E= -.41286647E+03 F= -.41316622E+03 E0= -.41314386E+03  EK= 0.29975E+00 SP= 0.00E+00 SK= 0.00E+00
       N       E                     dE             d eps       ncg     rms          rms(c)
RMM:   1    -0.413157568410E+03    0.86469E-02   -0.11029E+01  4303   0.738E-01    0.895E-01
RMM:   2    -0.413167711091E+03   -0.10143E-01   -0.13522E-01  4295   0.993E-02    0.642E-01
RMM:   3    -0.413171253681E+03   -0.35426E-02   -0.11099E-02  5150   0.750E-02    0.337E-01
RMM:   4    -0.413192928425E+03   -0.21675E-01   -0.41115E-02  5104   0.172E-01    0.681E-01
RMM:   5    -0.413166058895E+03    0.26870E-01   -0.10816E-02  4707   0.113E-01    0.544E-02
RMM:   6    -0.413166079369E+03   -0.20474E-04   -0.18959E-03  5516   0.430E-02    0.192E-02
RMM:   7    -0.413166101406E+03   -0.22037E-04   -0.28280E-04  6033   0.152E-02    0.133E-02
RMM:   8    -0.413166104468E+03   -0.30626E-05   -0.43209E-05  5128   0.659E-03    0.700E-03
RMM:   9    -0.413166105424E+03   -0.95608E-06   -0.89040E-06  3316   0.374E-03
   12 T=    61. E= -.41286607E+03 F= -.41316611E+03 E0= -.41314378E+03  EK= 0.30003E+00 SP= 0.00E+00 SK= 0.00E+00
       N       E                     dE             d eps       ncg     rms          rms(c)
RMM:   1    -0.413158504572E+03    0.75999E-02   -0.11045E+01  4302   0.744E-01    0.913E-01
RMM:   2    -0.413167889796E+03   -0.93852E-02   -0.13241E-01  4236   0.950E-02    0.633E-01
RMM:   3    -0.413166798795E+03    0.10910E-02   -0.71259E-03  4485   0.320E-02    0.153E-01
RMM:   4    -0.413172396902E+03   -0.55981E-02   -0.60255E-03  5156   0.650E-02    0.317E-01
RMM:   5    -0.413166744027E+03    0.56529E-02   -0.28301E-03  4839   0.520E-02    0.260E-02
RMM:   6    -0.413166747901E+03   -0.38745E-05   -0.46625E-04  5836   0.207E-02    0.164E-02
RMM:   7    -0.413166749331E+03   -0.14293E-05   -0.97945E-05  5403   0.958E-03    0.976E-03
RMM:   8    -0.413166740814E+03    0.85162E-05   -0.10489E-05  3500   0.392E-03    0.408E-03
RMM:   9    -0.413166739026E+03    0.17884E-05   -0.23463E-06  2650   0.217E-03    0.281E-03
RMM:  10    -0.413166737183E+03    0.18433E-05   -0.10210E-06  2486   0.162E-03    0.166E-03
RMM:  11    -0.413166734296E+03    0.28863E-05   -0.71613E-07  2352   0.130E-03    0.575E-04
RMM:  12    -0.413166732466E+03    0.18302E-05   -0.34371E-07  1824   0.908E-04    0.255E-04
RMM:  13    -0.413166731265E+03    0.12008E-05   -0.20277E-07  1444   0.754E-04    0.160E-04
RMM:  14    -0.413166729011E+03    0.22545E-05   -0.22868E-07  1507   0.756E-04    0.108E-04
RMM:  15    -0.413166727622E+03    0.13890E-05   -0.13118E-07  1266   0.657E-04    0.645E-05
RMM:  16    -0.413166725436E+03    0.21859E-05   -0.15757E-07  1373   0.665E-04    0.470E-05
RMM:  17    -0.413166724551E+03    0.88525E-06   -0.67627E-08   966   0.558E-04
   13 T=    61. E= -.41286622E+03 F= -.41316672E+03 E0= -.41314442E+03  EK= 0.30051E+00 SP= 0.00E+00 SK= 0.00E+00
       N       E                     dE             d eps       ncg     rms          rms(c)
RMM:   1    -0.413158585765E+03    0.81397E-02   -0.10964E+01  4292   0.741E-01    0.888E-01
RMM:   2    -0.413168732335E+03   -0.10147E-01   -0.13392E-01  4236   0.959E-02    0.633E-01
RMM:   3    -0.413167722224E+03    0.10101E-02   -0.70075E-03  4897   0.402E-02    0.167E-01
RMM:   4    -0.413202079153E+03   -0.34357E-01   -0.35485E-02  5146   0.157E-01    0.771E-01
RMM:   5    -0.413167098278E+03    0.34981E-01   -0.17153E-02  4804   0.129E-01    0.404E-02
RMM:   6    -0.413167288863E+03   -0.19059E-03   -0.26322E-03  5775   0.503E-02    0.217E-02
RMM:   7    -0.413167299333E+03   -0.10470E-04   -0.32790E-04  5869   0.153E-02    0.153E-02
RMM:   8    -0.413167299155E+03    0.17798E-06   -0.47017E-05  4909   0.648E-03    0.849E-03
RMM:   9    -0.413167296955E+03    0.22001E-05   -0.97352E-06  3424   0.345E-03    0.561E-03
RMM:  10    -0.413167296798E+03    0.15706E-06   -0.19576E-06  2549   0.204E-03
   14 T=    61. E= -.41286628E+03 F= -.41316730E+03 E0= -.41314503E+03  EK= 0.30102E+00 SP= 0.00E+00 SK= 0.00E+00
       N       E                     dE             d eps       ncg     rms          rms(c)
RMM:   1    -0.413158663915E+03    0.86330E-02   -0.11052E+01  4302   0.751E-01    0.892E-01
RMM:   2    -0.413169347158E+03   -0.10683E-01   -0.13632E-01  4278   0.995E-02    0.644E-01
RMM:   3    -0.413170599065E+03   -0.12519E-02   -0.93820E-03  5127   0.637E-02    0.280E-01
RMM:   4    -0.413203859848E+03   -0.33261E-01   -0.47272E-02  5115   0.182E-01    0.789E-01
RMM:   5    -0.413167316557E+03    0.36543E-01   -0.15880E-02  4746   0.131E-01    0.520E-02
RMM:   6    -0.413167428100E+03   -0.11154E-03   -0.25723E-03  5647   0.504E-02    0.185E-02
RMM:   7    -0.413167453053E+03   -0.24953E-04   -0.34038E-04  6011   0.155E-02    0.138E-02
RMM:   8    -0.413167456423E+03   -0.33704E-05   -0.48797E-05  5100   0.674E-03    0.724E-03
RMM:   9    -0.413167456625E+03   -0.20207E-06   -0.88011E-06  3159   0.340E-03
   15 T=    61. E= -.41286602E+03 F= -.41316746E+03 E0= -.41314522E+03  EK= 0.30144E+00 SP= 0.00E+00 SK= 0.00E+00
       N       E                     dE             d eps       ncg     rms          rms(c)
RMM:   1    -0.413160241632E+03    0.72148E-02   -0.11087E+01  4298   0.754E-01    0.914E-01
RMM:   2    -0.413169710663E+03   -0.94690E-02   -0.13345E-01  4257   0.999E-02    0.636E-01
RMM:   3    -0.413168803352E+03    0.90731E-03   -0.73914E-03  4920   0.397E-02    0.170E-01
RMM:   4    -0.413201670679E+03   -0.32867E-01   -0.33784E-02  5148   0.153E-01    0.755E-01
RMM:   5    -0.413168225815E+03    0.33445E-01   -0.16411E-02  4811   0.126E-01    0.409E-02
RMM:   6    -0.413168408218E+03   -0.18240E-03   -0.25549E-03  5825   0.495E-02    0.227E-02
RMM:   7    -0.413168413303E+03   -0.50857E-05   -0.32688E-04  5944   0.154E-02    0.158E-02
RMM:   8    -0.413168408699E+03    0.46044E-05   -0.45039E-05  4845   0.639E-03    0.835E-03
RMM:   9    -0.413168403414E+03    0.52853E-05   -0.96473E-06  3408   0.340E-03    0.567E-03
RMM:  10    -0.413168400018E+03    0.33961E-05   -0.18461E-06  2548   0.201E-03    0.342E-03
RMM:  11    -0.413168395937E+03    0.40807E-05   -0.16064E-06  2549   0.192E-03    0.155E-03
RMM:  12    -0.413168392269E+03    0.36680E-05   -0.90022E-07  2477   0.149E-03    0.529E-04
RMM:  13    -0.413168391636E+03    0.63243E-06   -0.31283E-07  2068   0.952E-04
   16 T=    62. E= -.41286629E+03 F= -.41316839E+03 E0= -.41314619E+03  EK= 0.30210E+00 SP= 0.00E+00 SK= 0.00E+00
       N       E                     dE             d eps       ncg     rms          rms(c)
RMM:   1    -0.413160260615E+03    0.81317E-02   -0.11005E+01  4297   0.751E-01    0.895E-01
RMM:   2    -0.413170389621E+03   -0.10129E-01   -0.13417E-01  4259   0.982E-02    0.633E-01
RMM:   3    -0.413169159438E+03    0.12302E-02   -0.70619E-03  4900   0.415E-02    0.169E-01
RMM:   4    -0.413203221076E+03   -0.34062E-01   -0.35069E-02  5142   0.155E-01    0.767E-01
RMM:   5    -0.413168623305E+03    0.34598E-01   -0.17043E-02  4807   0.128E-01    0.402E-02
RMM:   6    -0.413168810761E+03   -0.18746E-03   -0.26149E-03  5792   0.500E-02    0.222E-02
RMM:   7    -0.413168819645E+03   -0.88835E-05   -0.32285E-04  5904   0.153E-02    0.155E-02
RMM:   8    -0.413168817057E+03    0.25879E-05   -0.48007E-05  4929   0.655E-03    0.880E-03
RMM:   9    -0.413168812493E+03    0.45635E-05   -0.99165E-06  3456   0.348E-03    0.583E-03
RMM:  10    -0.413168809933E+03    0.25599E-05   -0.19665E-06  2552   0.204E-03    0.350E-03
RMM:  11    -0.413168806984E+03    0.29494E-05   -0.17145E-06  2548   0.198E-03    0.159E-03
RMM:  12    -0.413168804564E+03    0.24196E-05   -0.85314E-07  2467   0.150E-03    0.528E-04
RMM:  13    -0.413168804093E+03    0.47149E-06   -0.31853E-07  2075   0.966E-04
   17 T=    62. E= -.41286619E+03 F= -.41316880E+03 E0= -.41314665E+03  EK= 0.30262E+00 SP= 0.00E+00 SK= 0.00E+00
       N       E                     dE             d eps       ncg     rms          rms(c)
RMM:   1    -0.413160588784E+03    0.82158E-02   -0.11079E+01  4299   0.765E-01    0.890E-01
RMM:   2    -0.413171316350E+03   -0.10728E-01   -0.13672E-01  4273   0.102E-01    0.645E-01
RMM:   3    -0.413169808243E+03    0.15081E-02   -0.70507E-03  4908   0.414E-02    0.166E-01
RMM:   4    -0.413205741445E+03   -0.35933E-01   -0.37318E-02  5147   0.160E-01    0.788E-01
RMM:   5    -0.413169126751E+03    0.36615E-01   -0.18000E-02  4801   0.132E-01    0.408E-02
RMM:   6    -0.413169326009E+03   -0.19926E-03   -0.27843E-03  5785   0.516E-02    0.216E-02
RMM:   7    -0.413169339577E+03   -0.13568E-04   -0.33847E-04  5936   0.156E-02    0.155E-02
RMM:   8    -0.413169340194E+03   -0.61767E-06   -0.50221E-05  4957   0.665E-03    0.885E-03
RMM:   9    -0.413169338203E+03    0.19914E-05   -0.10479E-05  3497   0.356E-03    0.578E-03
RMM:  10    -0.413169338524E+03   -0.32119E-06   -0.21479E-06  2565   0.210E-03
   18 T=    62. E= -.41286609E+03 F= -.41316934E+03 E0= -.41314722E+03  EK= 0.30325E+00 SP= 0.00E+00 SK= 0.00E+00
       N       E                     dE             d eps       ncg     rms          rms(c)
RMM:   1    -0.413162142201E+03    0.71960E-02   -0.11130E+01  4303   0.763E-01    0.914E-01
RMM:   2    -0.413171819513E+03   -0.96773E-02   -0.13524E-01  4302   0.995E-02    0.640E-01
RMM:   3    -0.413174258568E+03   -0.24391E-02   -0.10165E-02  5118   0.678E-02    0.302E-01
RMM:   4    -0.413200731567E+03   -0.26473E-01   -0.42141E-02  5097   0.173E-01    0.723E-01
RMM:   5    -0.413170372155E+03    0.30359E-01   -0.12803E-02  4716   0.120E-01    0.510E-02
RMM:   6    -0.413170451435E+03   -0.79279E-04   -0.21717E-03  5595   0.457E-02    0.202E-02
RMM:   7    -0.413170466366E+03   -0.14931E-04   -0.29265E-04  5991   0.147E-02    0.140E-02
RMM:   8    -0.413170463191E+03    0.31749E-05   -0.44457E-05  5097   0.662E-03    0.707E-03
RMM:   9    -0.413170455969E+03    0.72214E-05   -0.79685E-06  3089   0.335E-03    0.312E-03
RMM:  10    -0.413170453415E+03    0.25548E-05   -0.18468E-06  2541   0.195E-03    0.193E-03
RMM:  11    -0.413170449462E+03    0.39530E-05   -0.10248E-06  2514   0.155E-03    0.113E-03
RMM:  12    -0.413170446733E+03    0.27288E-05   -0.49147E-07  2203   0.114E-03    0.502E-04
RMM:  13    -0.413170444617E+03    0.21159E-05   -0.28157E-07  1820   0.887E-04    0.231E-04
RMM:  14    -0.413170442972E+03    0.16447E-05   -0.17890E-07  1466   0.742E-04    0.145E-04
RMM:  15    -0.413170439764E+03    0.32081E-05   -0.20154E-07  1610   0.753E-04    0.139E-04
RMM:  16    -0.413170438189E+03    0.15750E-05   -0.10993E-07  1228   0.629E-04    0.111E-04
RMM:  17    -0.413170435961E+03    0.22279E-05   -0.99155E-08  1230   0.620E-04    0.503E-05
RMM:  18    -0.413170434515E+03    0.14467E-05   -0.61725E-08   998   0.563E-04    0.419E-05
RMM:  19    -0.413170433920E+03    0.59493E-06   -0.32822E-08   822   0.530E-04
   19 T=    62. E= -.41286632E+03 F= -.41317043E+03 E0= -.41314836E+03  EK= 0.30411E+00 SP= 0.00E+00 SK= 0.00E+00
       N       E                     dE             d eps       ncg     rms          rms(c)
RMM:   1    -0.413162456873E+03    0.79776E-02   -0.11074E+01  4299   0.768E-01    0.904E-01
RMM:   2    -0.413172404330E+03   -0.99475E-02   -0.13436E-01  4273   0.101E-01    0.634E-01
RMM:   3    -0.413171535364E+03    0.86897E-03   -0.72930E-03  4957   0.424E-02    0.181E-01
RMM:   4    -0.413211308603E+03   -0.39773E-01   -0.41995E-02  5146   0.170E-01    0.828E-01
RMM:   5    -0.413170750599E+03    0.40558E-01   -0.19880E-02  4795   0.139E-01    0.445E-02
RMM:   6    -0.413170954047E+03   -0.20345E-03   -0.30688E-03  5765   0.544E-02    0.233E-02
RMM:   7    -0.413170964445E+03   -0.10398E-04   -0.38321E-04  5895   0.165E-02    0.166E-02
RMM:   8    -0.413170960146E+03    0.42994E-05   -0.54603E-05  5064   0.695E-03    0.925E-03
RMM:   9    -0.413170953639E+03    0.65070E-05   -0.11147E-05  3562   0.362E-03    0.589E-03
RMM:  10    -0.413170949526E+03    0.41124E-05   -0.21921E-06  2559   0.212E-03    0.350E-03
RMM:  11    -0.413170945424E+03    0.41025E-05   -0.14980E-06  2527   0.189E-03    0.162E-03
RMM:  12    -0.413170942088E+03    0.33361E-05   -0.82137E-07  2459   0.149E-03    0.473E-04
RMM:  13    -0.413170941334E+03    0.75375E-06   -0.33904E-07  2120   0.101E-03
   20 T=    62. E= -.41286616E+03 F= -.41317094E+03 E0= -.41314891E+03  EK= 0.30478E+00 SP= 0.00E+00 SK= 0.00E+00
       N       E                     dE             d eps       ncg     rms          rms(c)
RMM:   1    -0.413163236255E+03    0.77058E-02   -0.11114E+01  4300   0.776E-01    0.890E-01
RMM:   2    -0.413173801283E+03   -0.10565E-01   -0.13792E-01  4277   0.101E-01    0.645E-01
RMM:   3    -0.413172413481E+03    0.13878E-02   -0.71043E-03  4930   0.413E-02    0.169E-01
RMM:   4    -0.413209150970E+03   -0.36737E-01   -0.38278E-02  5141   0.162E-01    0.797E-01
RMM:   5    -0.413171707547E+03    0.37443E-01   -0.18492E-02  4801   0.134E-01    0.411E-02
RMM:   6    -0.413171908360E+03   -0.20081E-03   -0.28591E-03  5793   0.522E-02    0.219E-02
RMM:   7    -0.413171922094E+03   -0.13735E-04   -0.34472E-04  5913   0.159E-02    0.156E-02
RMM:   8    -0.413171921262E+03    0.83237E-06   -0.52633E-05  4994   0.685E-03    0.911E-03
RMM:   9    -0.413171917665E+03    0.35972E-05   -0.10996E-05  3559   0.367E-03    0.596E-03
RMM:  10    -0.413171916712E+03    0.95284E-06   -0.22165E-06  2569   0.214E-03
   21 T=    62. E= -.41286624E+03 F= -.41317192E+03 E0= -.41314993E+03  EK= 0.30567E+00 SP= 0.00E+00 SK= 0.00E+00
       N       E                     dE             d eps       ncg     rms          rms(c)
RMM:   1    -0.413164437082E+03    0.74806E-02   -0.11186E+01  4301   0.777E-01    0.911E-01
RMM:   2    -0.413174592228E+03   -0.10155E-01   -0.13686E-01  4305   0.996E-02    0.645E-01
RMM:   3    -0.413176718819E+03   -0.21266E-02   -0.10074E-02  5111   0.678E-02    0.299E-01
RMM:   4    -0.413205252269E+03   -0.28533E-01   -0.44166E-02  5099   0.176E-01    0.744E-01
RMM:   5    -0.413172942301E+03    0.32310E-01   -0.13785E-02  4715   0.124E-01    0.509E-02
RMM:   6    -0.413173028610E+03   -0.86310E-04   -0.22958E-03  5609   0.476E-02    0.200E-02
RMM:   7    -0.413173043535E+03   -0.14925E-04   -0.30552E-04  5996   0.151E-02    0.141E-02
RMM:   8    -0.413173040728E+03    0.28077E-05   -0.46509E-05  5105   0.676E-03    0.719E-03
RMM:   9    -0.413173033604E+03    0.71238E-05   -0.85171E-06  3160   0.340E-03    0.318E-03
RMM:  10    -0.413173030905E+03    0.26984E-05   -0.19184E-06  2544   0.198E-03    0.200E-03
RMM:  11    -0.413173026961E+03    0.39439E-05   -0.99342E-07  2504   0.154E-03    0.112E-03
RMM:  12    -0.413173024099E+03    0.28629E-05   -0.49365E-07  2205   0.114E-03    0.459E-04
RMM:  13    -0.413173022011E+03    0.20878E-05   -0.27334E-07  1806   0.876E-04    0.212E-04
RMM:  14    -0.413173019908E+03    0.21023E-05   -0.18958E-07  1519   0.758E-04    0.125E-04
RMM:  15    -0.413173016806E+03    0.31023E-05   -0.18041E-07  1546   0.734E-04    0.127E-04
RMM:  16    -0.413173015566E+03    0.12404E-05   -0.94350E-08  1161   0.619E-04    0.972E-05
RMM:  17    -0.413173013305E+03    0.22611E-05   -0.86666E-08  1201   0.618E-04    0.450E-05
RMM:  18    -0.413173011862E+03    0.14423E-05   -0.54871E-08   987   0.567E-04    0.368E-05
RMM:  19    -0.413173011348E+03    0.51404E-06   -0.28098E-08   810   0.536E-04
   22 T=    62. E= -.41286634E+03 F= -.41317301E+03 E0= -.41315107E+03  EK= 0.30667E+00 SP= 0.00E+00 SK= 0.00E+00
       N       E                     dE             d eps       ncg     rms          rms(c)
RMM:   1    -0.413166549115E+03    0.64627E-02   -0.11184E+01  4298   0.804E-01    0.913E-01
RMM:   2    -0.413175127945E+03   -0.85788E-02   -0.13497E-01  4276   0.107E-01    0.637E-01
RMM:   3    -0.413174146865E+03    0.98108E-03   -0.74491E-03  4876   0.446E-02    0.175E-01
RMM:   4    -0.413210013130E+03   -0.35866E-01   -0.37175E-02  5146   0.160E-01    0.787E-01
RMM:   5    -0.413173488720E+03    0.36524E-01   -0.17986E-02  4797   0.132E-01    0.424E-02
RMM:   6    -0.413173684705E+03   -0.19598E-03   -0.28815E-03  5790   0.518E-02    0.236E-02
RMM:   7    -0.413173692173E+03   -0.74684E-05   -0.34218E-04  5862   0.161E-02    0.163E-02
RMM:   8    -0.413173686899E+03    0.52741E-05   -0.53959E-05  5016   0.700E-03    0.950E-03
RMM:   9    -0.413173678888E+03    0.80111E-05   -0.11129E-05  3597   0.372E-03    0.628E-03
RMM:  10    -0.413173673449E+03    0.54392E-05   -0.21115E-06  2565   0.215E-03    0.381E-03
RMM:  11    -0.413173666938E+03    0.65104E-05   -0.18607E-06  2555   0.210E-03    0.171E-03
RMM:  12    -0.413173662149E+03    0.47888E-05   -0.85172E-07  2470   0.156E-03    0.560E-04
RMM:  13    -0.413173661339E+03    0.81023E-06   -0.33125E-07  2125   0.100E-03
   23 T=    63. E= -.41286606E+03 F= -.41317366E+03 E0= -.41315177E+03  EK= 0.30760E+00 SP= 0.00E+00 SK= 0.00E+00
       N       E                     dE             d eps       ncg     rms          rms(c)
RMM:   1    -0.413168328032E+03    0.53341E-02   -0.11187E+01  4297   0.798E-01    0.893E-01
RMM:   2    -0.413177180402E+03   -0.88524E-02   -0.13916E-01  4283   0.104E-01    0.644E-01
RMM:   3    -0.413175487323E+03    0.16931E-02   -0.69994E-03  4790   0.419E-02    0.163E-01
RMM:   4    -0.413203275612E+03   -0.27788E-01   -0.28363E-02  5153   0.140E-01    0.694E-01
RMM:   5    -0.413175067895E+03    0.28208E-01   -0.14093E-02  4811   0.116E-01    0.361E-02
RMM:   6    -0.413175215971E+03   -0.14808E-03   -0.21467E-03  5813   0.450E-02    0.205E-02
RMM:   7    -0.413175224989E+03   -0.90185E-05   -0.23769E-04  5815   0.139E-02    0.129E-02
RMM:   8    -0.413175224058E+03    0.93129E-06   -0.44752E-05  4902   0.632E-03    0.856E-03
RMM:   9    -0.413175218842E+03    0.52162E-05   -0.10480E-05  3701   0.366E-03    0.574E-03
RMM:  10    -0.413175216760E+03    0.20813E-05   -0.17454E-06  2540   0.207E-03    0.359E-03
RMM:  11    -0.413175213731E+03    0.30294E-05   -0.19359E-06  2563   0.212E-03    0.165E-03
RMM:  12    -0.413175211279E+03    0.24522E-05   -0.78743E-07  2460   0.150E-03    0.571E-04
RMM:  13    -0.413175210894E+03    0.38522E-06   -0.28274E-07  2036   0.931E-04
   24 T=    63. E= -.41286635E+03 F= -.41317521E+03 E0= -.41315336E+03  EK= 0.30886E+00 SP= 0.00E+00 SK= 0.00E+00
       N       E                     dE             d eps       ncg     rms          rms(c)
RMM:   1    -0.413167656724E+03    0.75546E-02   -0.11269E+01  4297   0.797E-01    0.908E-01
RMM:   2    -0.413178209620E+03   -0.10553E-01   -0.13866E-01  4282   0.107E-01    0.650E-01
RMM:   3    -0.413176541070E+03    0.16686E-02   -0.71416E-03  4767   0.428E-02    0.163E-01
RMM:   4    -0.413203098454E+03   -0.26557E-01   -0.27010E-02  5150   0.137E-01    0.679E-01
RMM:   5    -0.413176123171E+03    0.26975E-01   -0.13434E-02  4812   0.113E-01    0.360E-02
RMM:   6    -0.413176264684E+03   -0.14151E-03   -0.20460E-03  5817   0.438E-02    0.207E-02
RMM:   7    -0.413176271730E+03   -0.70466E-05   -0.22508E-04  5797   0.136E-02    0.126E-02
RMM:   8    -0.413176269670E+03    0.20604E-05   -0.43621E-05  4897   0.629E-03    0.845E-03
RMM:   9    -0.413176263605E+03    0.60650E-05   -0.10479E-05  3719   0.367E-03    0.569E-03
RMM:  10    -0.413176260662E+03    0.29433E-05   -0.16848E-06  2540   0.207E-03    0.358E-03
RMM:  11    -0.413176256285E+03    0.43769E-05   -0.18750E-06  2552   0.212E-03    0.161E-03
RMM:  12    -0.413176252886E+03    0.33988E-05   -0.74763E-07  2463   0.149E-03    0.562E-04
RMM:  13    -0.413176252404E+03    0.48221E-06   -0.27148E-07  2013   0.917E-04
   25 T=    63. E= -.41286620E+03 F= -.41317625E+03 E0= -.41315446E+03  EK= 0.31005E+00 SP= 0.00E+00 SK= 0.00E+00
       N       E                     dE             d eps       ncg     rms          rms(c)
RMM:   1    -0.413171527871E+03    0.47250E-02   -0.11319E+01  4295   0.826E-01    0.923E-01
RMM:   2    -0.413178794907E+03   -0.72670E-02   -0.13864E-01  4278   0.110E-01    0.642E-01
RMM:   3    -0.413177670673E+03    0.11242E-02   -0.74004E-03  4714   0.432E-02    0.167E-01
RMM:   4    -0.413201546707E+03   -0.23876E-01   -0.24132E-02  5151   0.130E-01    0.645E-01
RMM:   5    -0.413177367802E+03    0.24179E-01   -0.12078E-02  4813   0.107E-01    0.362E-02
RMM:   6    -0.413177490787E+03   -0.12298E-03   -0.18825E-03  5816   0.414E-02    0.211E-02
RMM:   7    -0.413177491644E+03   -0.85702E-06   -0.19477E-04  5687   0.127E-02    0.115E-02
RMM:   8    -0.413177485423E+03    0.62206E-05   -0.34993E-05  4706   0.567E-03    0.781E-03
RMM:   9    -0.413177478476E+03    0.69473E-05   -0.92927E-06  3558   0.339E-03    0.569E-03
RMM:  10    -0.413177473823E+03    0.46527E-05   -0.16043E-06  2546   0.206E-03    0.366E-03
RMM:  11    -0.413177465215E+03    0.86079E-05   -0.18971E-06  2557   0.214E-03    0.164E-03
RMM:  12    -0.413177458324E+03    0.68910E-05   -0.77021E-07  2463   0.153E-03    0.660E-04
RMM:  13    -0.413177457718E+03    0.60657E-06   -0.25576E-07  2037   0.917E-04
   26 T=    63. E= -.41286609E+03 F= -.41317746E+03 E0= -.41315571E+03  EK= 0.31137E+00 SP= 0.00E+00 SK= 0.00E+00
       N       E                     dE             d eps       ncg     rms          rms(c)
RMM:   1    -0.413170384305E+03    0.70740E-02   -0.11256E+01  4298   0.803E-01    0.899E-01
RMM:   2    -0.413180897153E+03   -0.10513E-01   -0.13908E-01  4280   0.104E-01    0.645E-01
RMM:   3    -0.413179537106E+03    0.13600E-02   -0.70659E-03  4683   0.418E-02    0.161E-01
RMM:   4    -0.413200606565E+03   -0.21069E-01   -0.21379E-02  5154   0.122E-01    0.607E-01
RMM:   5    -0.413179240529E+03    0.21366E-01   -0.10706E-02  4820   0.101E-01    0.335E-02
RMM:   6    -0.413179346359E+03   -0.10583E-03   -0.16608E-03  5838   0.385E-02    0.197E-02
RMM:   7    -0.413179348579E+03   -0.22206E-05   -0.17334E-04  5673   0.121E-02    0.110E-02
RMM:   8    -0.413179345371E+03    0.32087E-05   -0.34206E-05  4739   0.569E-03    0.748E-03
RMM:   9    -0.413179339873E+03    0.54979E-05   -0.87927E-06  3530   0.339E-03    0.534E-03
RMM:  10    -0.413179337003E+03    0.28696E-05   -0.13914E-06  2534   0.196E-03    0.344E-03
RMM:  11    -0.413179331716E+03    0.52868E-05   -0.17636E-06  2549   0.206E-03    0.155E-03
RMM:  12    -0.413179327529E+03    0.41874E-05   -0.70931E-07  2452   0.145E-03    0.605E-04
RMM:  13    -0.413179327164E+03    0.36511E-06   -0.22933E-07  1925   0.866E-04
   27 T=    64. E= -.41286646E+03 F= -.41317933E+03 E0= -.41315763E+03  EK= 0.31287E+00 SP= 0.00E+00 SK= 0.00E+00
       N       E                     dE             d eps       ncg     rms          rms(c)
RMM:   1    -0.413171758305E+03    0.75692E-02   -0.11378E+01  4295   0.830E-01    0.908E-01
RMM:   2    -0.413182232720E+03   -0.10474E-01   -0.14219E-01  4277   0.108E-01    0.656E-01
RMM:   3    -0.413180575473E+03    0.16572E-02   -0.72247E-03  4597   0.428E-02    0.157E-01
RMM:   4    -0.413196710277E+03   -0.16135E-01   -0.16478E-02  5153   0.109E-01    0.533E-01
RMM:   5    -0.413180328521E+03    0.16382E-01   -0.81379E-03  4819   0.878E-02    0.306E-02
RMM:   6    -0.413180396070E+03   -0.67548E-04   -0.12689E-03  5854   0.332E-02    0.182E-02
RMM:   7    -0.413180398345E+03   -0.22749E-05   -0.12937E-04  5550   0.107E-02    0.945E-03
RMM:   8    -0.413180392569E+03    0.57752E-05   -0.24467E-05  4466   0.497E-03    0.621E-03
RMM:   9    -0.413180391043E+03    0.15264E-05   -0.70651E-06  3284   0.312E-03    0.495E-03
RMM:  10    -0.413180388077E+03    0.29657E-05   -0.10389E-06  2513   0.181E-03    0.314E-03
RMM:  11    -0.413180383715E+03    0.43624E-05   -0.14020E-06  2527   0.186E-03    0.148E-03
RMM:  12    -0.413180380448E+03    0.32670E-05   -0.61526E-07  2400   0.132E-03    0.565E-04
RMM:  13    -0.413180379848E+03    0.60013E-06   -0.19649E-07  1754   0.805E-04
   28 T=    64. E= -.41286609E+03 F= -.41318038E+03 E0= -.41315873E+03  EK= 0.31429E+00 SP= 0.00E+00 SK= 0.00E+00
       N       E                     dE             d eps       ncg     rms          rms(c)
RMM:   1    -0.413175557410E+03    0.48230E-02   -0.11454E+01  4294   0.854E-01    0.931E-01
RMM:   2    -0.413183937626E+03   -0.83802E-02   -0.14108E-01  4275   0.110E-01    0.648E-01
RMM:   3    -0.413182578781E+03    0.13588E-02   -0.75684E-03  4426   0.425E-02    0.162E-01
RMM:   4    -0.413189594502E+03   -0.70157E-02   -0.74089E-03  5174   0.725E-02    0.351E-01
RMM:   5    -0.413182608303E+03    0.69862E-02   -0.34703E-03  4835   0.575E-02    0.282E-02
RMM:   6    -0.413182623656E+03   -0.15353E-04   -0.59555E-04  5838   0.229E-02    0.190E-02
RMM:   7    -0.413182616359E+03    0.72963E-05   -0.11882E-04  5385   0.107E-02    0.106E-02
RMM:   8    -0.413182604614E+03    0.11745E-04   -0.13448E-05  3840   0.444E-03    0.447E-03
RMM:   9    -0.413182600144E+03    0.44705E-05   -0.24509E-06  2684   0.221E-03    0.336E-03
RMM:  10    -0.413182594523E+03    0.56208E-05   -0.84020E-07  2477   0.156E-03    0.197E-03
RMM:  11    -0.413182587325E+03    0.71976E-05   -0.61624E-07  2424   0.132E-03    0.857E-04
RMM:  12    -0.413182582158E+03    0.51672E-05   -0.31967E-07  2063   0.968E-04    0.335E-04
RMM:  13    -0.413182580064E+03    0.20943E-05   -0.14735E-07  1360   0.715E-04    0.185E-04
RMM:  14    -0.413182576528E+03    0.35356E-05   -0.10444E-07  1205   0.675E-04    0.101E-04
RMM:  15    -0.413182572058E+03    0.44707E-05   -0.98631E-08  1367   0.679E-04    0.112E-04
RMM:  16    -0.413182570371E+03    0.16867E-05   -0.52923E-08  1030   0.586E-04    0.642E-05
RMM:  17    -0.413182565743E+03    0.46281E-05   -0.82513E-08  1350   0.641E-04    0.490E-05
RMM:  18    -0.413182565347E+03    0.39538E-06   -0.26410E-08   779   0.517E-04
   29 T=    64. E= -.41286639E+03 F= -.41318257E+03 E0= -.41316097E+03  EK= 0.31617E+00 SP= 0.00E+00 SK= 0.00E+00
       N       E                     dE             d eps       ncg     rms          rms(c)
RMM:   1    -0.413175439900E+03    0.71258E-02   -0.11393E+01  4291   0.831E-01    0.909E-01
RMM:   2    -0.413185983547E+03   -0.10544E-01   -0.14211E-01  4269   0.110E-01    0.648E-01
RMM:   3    -0.413184464481E+03    0.15191E-02   -0.72799E-03  4463   0.454E-02    0.161E-01
RMM:   4    -0.413194290530E+03   -0.98260E-02   -0.10265E-02  5154   0.866E-02    0.418E-01
RMM:   5    -0.413184348229E+03    0.99423E-02   -0.49699E-03  4824   0.685E-02    0.285E-02
RMM:   6    -0.413184374821E+03   -0.26593E-04   -0.79324E-04  5849   0.262E-02    0.188E-02
RMM:   7    -0.413184373927E+03    0.89478E-06   -0.12917E-04  5502   0.110E-02    0.113E-02
RMM:   8    -0.413184363200E+03    0.10727E-04   -0.19523E-05  4253   0.507E-03    0.487E-03
RMM:   9    -0.413184360189E+03    0.30113E-05   -0.38119E-06  2844   0.257E-03    0.376E-03
RMM:  10    -0.413184356684E+03    0.35046E-05   -0.78728E-07  2483   0.156E-03    0.235E-03
RMM:  11    -0.413184351864E+03    0.48198E-05   -0.64813E-07  2460   0.134E-03    0.111E-03
RMM:  12    -0.413184348003E+03    0.38610E-05   -0.37912E-07  2150   0.102E-03    0.428E-04
RMM:  13    -0.413184346525E+03    0.14780E-05   -0.15422E-07  1452   0.729E-04    0.210E-04
RMM:  14    -0.413184344753E+03    0.17726E-05   -0.92270E-08  1128   0.650E-04    0.116E-04
RMM:  15    -0.413184341391E+03    0.33614E-05   -0.89333E-08  1233   0.666E-04    0.114E-04
RMM:  16    -0.413184340835E+03    0.55677E-06   -0.40087E-08   872   0.586E-04
   30 T=    65. E= -.41286632E+03 F= -.41318434E+03 E0= -.41316279E+03  EK= 0.31802E+00 SP= 0.00E+00 SK= 0.00E+00
       N       E                     dE             d eps       ncg     rms          rms(c)
RMM:   1    -0.413178056618E+03    0.62848E-02   -0.11532E+01  4290   0.876E-01    0.910E-01
RMM:   2    -0.413188464188E+03   -0.10408E-01   -0.14794E-01  4268   0.121E-01    0.662E-01
RMM:   3    -0.413185979916E+03    0.24843E-02   -0.72073E-03  4312   0.423E-02    0.156E-01
RMM:   4    -0.413188329944E+03   -0.23500E-02   -0.31955E-03  5117   0.477E-02    0.204E-01
RMM:   5    -0.413185990346E+03    0.23396E-02   -0.11570E-03  4808   0.338E-02    0.244E-02
RMM:   6    -0.413185988060E+03    0.22864E-05   -0.22850E-04  5682   0.153E-02    0.182E-02
RMM:   7    -0.413185982501E+03    0.55586E-05   -0.79866E-05  5022   0.870E-03    0.719E-03
RMM:   8    -0.413185978354E+03    0.41466E-05   -0.67197E-06  3212   0.341E-03    0.381E-03
RMM:   9    -0.413185977317E+03    0.10378E-05   -0.89535E-07  2495   0.167E-03    0.245E-03
RMM:  10    -0.413185973817E+03    0.35000E-05   -0.83193E-07  2446   0.137E-03    0.113E-03
RMM:  11    -0.413185972049E+03    0.17671E-05   -0.31562E-07  1924   0.921E-04    0.488E-04
RMM:  12    -0.413185969866E+03    0.21832E-05   -0.21099E-07  1606   0.797E-04    0.222E-04
RMM:  13    -0.413185968289E+03    0.15772E-05   -0.11903E-07  1199   0.677E-04    0.126E-04
RMM:  14    -0.413185966227E+03    0.20624E-05   -0.98906E-08  1206   0.655E-04    0.905E-05
RMM:  15    -0.413185964161E+03    0.20654E-05   -0.76863E-08  1120   0.616E-04    0.528E-05
RMM:  16    -0.413185962950E+03    0.12111E-05   -0.45766E-08   922   0.567E-04    0.404E-05
RMM:  17    -0.413185961952E+03    0.99764E-06   -0.28270E-08   791   0.542E-04
   31 T=    65. E= -.41286606E+03 F= -.41318596E+03 E0= -.41316447E+03  EK= 0.31990E+00 SP= 0.00E+00 SK= 0.00E+00
       N       E                     dE             d eps       ncg     rms          rms(c)
RMM:   1    -0.413181571452E+03    0.43915E-02   -0.11627E+01  4289   0.885E-01    0.936E-01
RMM:   2    -0.413190253312E+03   -0.86819E-02   -0.14713E-01  4268   0.123E-01    0.657E-01
RMM:   3    -0.413188602594E+03    0.16507E-02   -0.76618E-03  4190   0.481E-02    0.164E-01
RMM:   4    -0.413188907780E+03   -0.30519E-03   -0.12823E-03  4903   0.296E-02    0.694E-02
RMM:   5    -0.413188665481E+03    0.24230E-03   -0.15476E-04  4711   0.131E-02    0.277E-02
RMM:   6    -0.413188652420E+03    0.13061E-04   -0.10235E-04  5266   0.106E-02    0.197E-02
RMM:   7    -0.413188632839E+03    0.19581E-04   -0.71636E-05  4522   0.835E-03    0.742E-03
RMM:   8    -0.413188630226E+03    0.26124E-05   -0.40016E-06  2852   0.296E-03    0.349E-03
RMM:   9    -0.413188628536E+03    0.16906E-05   -0.91206E-07  2394   0.156E-03    0.185E-03
RMM:  10    -0.413188620415E+03    0.81210E-05   -0.53046E-07  2043   0.109E-03    0.635E-04
RMM:  11    -0.413188614914E+03    0.55009E-05   -0.22840E-07  1637   0.791E-04    0.279E-04
RMM:  12    -0.413188611881E+03    0.30330E-05   -0.10733E-07  1338   0.661E-04    0.164E-04
RMM:  13    -0.413188606686E+03    0.51951E-05   -0.87021E-08  1176   0.634E-04    0.112E-04
RMM:  14    -0.413188602513E+03    0.41724E-05   -0.54019E-08  1000   0.582E-04    0.805E-05
RMM:  15    -0.413188600201E+03    0.23122E-05   -0.32228E-08   815   0.536E-04    0.654E-05
RMM:  16    -0.413188596872E+03    0.33293E-05   -0.38995E-08   937   0.554E-04    0.499E-05
RMM:  17    -0.413188596429E+03    0.44312E-06   -0.10581E-08   570   0.481E-04
   32 T=    66. E= -.41286642E+03 F= -.41318860E+03 E0= -.41316715E+03  EK= 0.32217E+00 SP= 0.00E+00 SK= 0.00E+00
       N       E                     dE             d eps       ncg     rms          rms(c)
RMM:   1    -0.413193656840E+03   -0.50600E-02   -0.11704E+01  4282   0.949E-01    0.924E-01
RMM:   2    -0.413192444240E+03    0.12126E-02   -0.15036E-01  4271   0.132E-01    0.653E-01
RMM:   3    -0.413190527833E+03    0.19164E-02   -0.73427E-03  4332   0.423E-02    0.168E-01
RMM:   4    -0.413193554657E+03   -0.30268E-02   -0.38238E-03  5135   0.538E-02    0.234E-01
RMM:   5    -0.413190518473E+03    0.30362E-02   -0.14991E-03  4805   0.387E-02    0.271E-02
RMM:   6    -0.413190508572E+03    0.99008E-05   -0.30033E-04  5685   0.176E-02    0.199E-02
RMM:   7    -0.413190497180E+03    0.11391E-04   -0.94493E-05  5134   0.949E-03    0.814E-03
RMM:   8    -0.413190490634E+03    0.65458E-05   -0.93996E-06  3544   0.387E-03    0.410E-03
RMM:   9    -0.413190488297E+03    0.23373E-05   -0.11203E-06  2508   0.182E-03    0.248E-03
RMM:  10    -0.413190482032E+03    0.62653E-05   -0.69768E-07  2440   0.135E-03    0.121E-03
RMM:  11    -0.413190477064E+03    0.49680E-05   -0.37618E-07  2147   0.997E-04    0.584E-04
RMM:  12    -0.413190472748E+03    0.43157E-05   -0.20820E-07  1609   0.804E-04    0.229E-04
RMM:  13    -0.413190470174E+03    0.25745E-05   -0.11431E-07  1150   0.674E-04    0.136E-04
RMM:  14    -0.413190466957E+03    0.32171E-05   -0.84266E-08  1126   0.646E-04    0.104E-04
RMM:  15    -0.413190462363E+03    0.45931E-05   -0.84051E-08  1240   0.646E-04    0.609E-05
RMM:  16    -0.413190460928E+03    0.14358E-05   -0.44481E-08   896   0.562E-04    0.508E-05
RMM:  17    -0.413190458620E+03    0.23072E-05   -0.38119E-08   909   0.558E-04    0.234E-05
RMM:  18    -0.413190457651E+03    0.96985E-06   -0.23556E-08   719   0.524E-04
   33 T=    66. E= -.41286617E+03 F= -.41319046E+03 E0= -.41316906E+03  EK= 0.32429E+00 SP= 0.00E+00 SK= 0.00E+00
       N       E                     dE             d eps       ncg     rms          rms(c)
RMM:   1    -0.413186604936E+03    0.38537E-02   -0.11720E+01  4292   0.941E-01    0.915E-01
RMM:   2    -0.413195051736E+03   -0.84468E-02   -0.15305E-01  4264   0.130E-01    0.666E-01
RMM:   3    -0.413193087993E+03    0.19637E-02   -0.73137E-03  4450   0.484E-02    0.164E-01
RMM:   4    -0.413201107868E+03   -0.80199E-02   -0.84784E-03  5152   0.807E-02    0.377E-01
RMM:   5    -0.413193084003E+03    0.80239E-02   -0.39404E-03  4811   0.620E-02    0.287E-02
RMM:   6    -0.413193070589E+03    0.13414E-04   -0.63636E-04  5796   0.253E-02    0.197E-02
RMM:   7    -0.413193071142E+03   -0.55303E-06   -0.12282E-04  5381   0.108E-02    0.101E-02
RMM:   8    -0.413193064009E+03    0.71337E-05   -0.18011E-05  4166   0.486E-03    0.453E-03
RMM:   9    -0.413193062426E+03    0.15824E-05   -0.29775E-06  2778   0.238E-03    0.310E-03
RMM:  10    -0.413193059682E+03    0.27446E-05   -0.73649E-07  2461   0.147E-03    0.183E-03
RMM:  11    -0.413193055969E+03    0.37129E-05   -0.59854E-07  2415   0.123E-03    0.851E-04
RMM:  12    -0.413193053027E+03    0.29421E-05   -0.33557E-07  1924   0.930E-04    0.346E-04
RMM:  13    -0.413193051603E+03    0.14241E-05   -0.15466E-07  1311   0.713E-04    0.178E-04
RMM:  14    -0.413193050057E+03    0.15459E-05   -0.10155E-07  1098   0.658E-04    0.984E-05
RMM:  15    -0.413193047493E+03    0.25634E-05   -0.93151E-08  1169   0.657E-04    0.829E-05
RMM:  16    -0.413193046822E+03    0.67097E-06   -0.47968E-08   913   0.593E-04
   34 T=    67. E= -.41286635E+03 F= -.41319305E+03 E0= -.41317170E+03  EK= 0.32670E+00 SP= 0.00E+00 SK= 0.00E+00
       N       E                     dE             d eps       ncg     rms          rms(c)
RMM:   1    -0.413187327400E+03    0.57201E-02   -0.11809E+01  4300   0.923E-01    0.940E-01
RMM:   2    -0.413197627779E+03   -0.10300E-01   -0.15228E-01  4260   0.133E-01    0.666E-01
RMM:   3    -0.413195884729E+03    0.17430E-02   -0.75537E-03  4416   0.470E-02    0.169E-01
RMM:   4    -0.413200944735E+03   -0.50600E-02   -0.57992E-03  5160   0.648E-02    0.304E-01
RMM:   5    -0.413195794601E+03    0.51501E-02   -0.26035E-03  4817   0.503E-02    0.289E-02
RMM:   6    -0.413195782039E+03    0.12561E-04   -0.46023E-04  5731   0.214E-02    0.208E-02
RMM:   7    -0.413195774973E+03    0.70660E-05   -0.11188E-04  5276   0.102E-02    0.883E-03
RMM:   8    -0.413195767105E+03    0.78689E-05   -0.13422E-05  3852   0.428E-03    0.427E-03
RMM:   9    -0.413195764265E+03    0.28398E-05   -0.18120E-06  2623   0.204E-03    0.271E-03
RMM:  10    -0.413195758414E+03    0.58506E-05   -0.70833E-07  2457   0.139E-03    0.145E-03
RMM:  11    -0.413195752081E+03    0.63330E-05   -0.46551E-07  2261   0.110E-03    0.638E-04
RMM:  12    -0.413195747190E+03    0.48913E-05   -0.25109E-07  1833   0.860E-04    0.261E-04
RMM:  13    -0.413195744727E+03    0.24628E-05   -0.12743E-07  1196   0.688E-04    0.146E-04
RMM:  14    -0.413195741688E+03    0.30385E-05   -0.90112E-08  1123   0.650E-04    0.990E-05
RMM:  15    -0.413195736051E+03    0.56378E-05   -0.95058E-08  1343   0.674E-04    0.780E-05
RMM:  16    -0.413195734704E+03    0.13464E-05   -0.47840E-08   995   0.580E-04    0.678E-05
RMM:  17    -0.413195731593E+03    0.31108E-05   -0.45999E-08  1103   0.585E-04    0.359E-05
RMM:  18    -0.413195730480E+03    0.11138E-05   -0.25208E-08   814   0.529E-04    0.206E-05
RMM:  19    -0.413195730153E+03    0.32713E-06   -0.13741E-08   689   0.510E-04
   35 T=    67. E= -.41286653E+03 F= -.41319573E+03 E0= -.41317443E+03  EK= 0.32920E+00 SP= 0.00E+00 SK= 0.00E+00
       N       E                     dE             d eps       ncg     rms          rms(c)
RMM:   1    -0.413198324669E+03   -0.25942E-02   -0.11912E+01  4297   0.995E-01    0.941E-01
RMM:   2    -0.413199539986E+03   -0.12153E-02   -0.15655E-01  4257   0.126E-01    0.660E-01
RMM:   3    -0.413198122914E+03    0.14171E-02   -0.77989E-03  4773   0.484E-02    0.189E-01
RMM:   4    -0.413229754664E+03   -0.31632E-01   -0.32043E-02  5160   0.150E-01    0.741E-01
RMM:   5    -0.413197754132E+03    0.32001E-01   -0.16167E-02  4805   0.124E-01    0.417E-02
RMM:   6    -0.413197811707E+03   -0.57575E-04   -0.25459E-03  5858   0.474E-02    0.239E-02
RMM:   7    -0.413197820933E+03   -0.92257E-05   -0.27752E-04  5783   0.149E-02    0.143E-02
RMM:   8    -0.413197812838E+03    0.80951E-05   -0.47490E-05  4949   0.680E-03    0.905E-03
RMM:   9    -0.413197808385E+03    0.44530E-05   -0.15817E-05  4237   0.441E-03    0.608E-03
RMM:  10    -0.413197801125E+03    0.72597E-05   -0.23350E-06  2587   0.242E-03    0.348E-03
RMM:  11    -0.413197795502E+03    0.56232E-05   -0.14236E-06  2504   0.189E-03    0.199E-03
RMM:  12    -0.413197785691E+03    0.98112E-05   -0.11198E-06  2481   0.182E-03    0.777E-04
RMM:  13    -0.413197782437E+03    0.32540E-05   -0.40580E-07  2286   0.116E-03    0.545E-04
RMM:  14    -0.413197781816E+03    0.62015E-06   -0.17157E-07  1656   0.776E-04
   36 T=    67. E= -.41286628E+03 F= -.41319778E+03 E0= -.41317652E+03  EK= 0.33150E+00 SP= 0.00E+00 SK= 0.00E+00
       N       E                     dE             d eps       ncg     rms          rms(c)
RMM:   1    -0.413195445120E+03    0.23373E-02   -0.11916E+01  4305   0.995E-01    0.923E-01
RMM:   2    -0.413203129780E+03   -0.76847E-02   -0.15919E-01  4258   0.135E-01    0.671E-01
RMM:   3    -0.413201098135E+03    0.20316E-02   -0.74856E-03  4689   0.513E-02    0.182E-01
RMM:   4    -0.413227803519E+03   -0.26705E-01   -0.26999E-02  5155   0.138E-01    0.683E-01
RMM:   5    -0.413200764614E+03    0.27039E-01   -0.13645E-02  4801   0.114E-01    0.389E-02
RMM:   6    -0.413200801319E+03   -0.36705E-04   -0.21493E-03  5859   0.436E-02    0.225E-02
RMM:   7    -0.413200812616E+03   -0.11297E-04   -0.25939E-04  5796   0.142E-02    0.142E-02
RMM:   8    -0.413200804627E+03    0.79891E-05   -0.47574E-05  4986   0.692E-03    0.839E-03
RMM:   9    -0.413200800985E+03    0.36419E-05   -0.11916E-05  3895   0.405E-03    0.496E-03
RMM:  10    -0.413200796224E+03    0.47612E-05   -0.20297E-06  2567   0.216E-03    0.300E-03
RMM:  11    -0.413200791583E+03    0.46410E-05   -0.12455E-06  2507   0.175E-03    0.156E-03
RMM:  12    -0.413200785327E+03    0.62563E-05   -0.85021E-07  2447   0.152E-03    0.592E-04
RMM:  13    -0.413200783370E+03    0.19566E-05   -0.32600E-07  2115   0.100E-03    0.413E-04
RMM:  14    -0.413200782536E+03    0.83387E-06   -0.15159E-07  1438   0.727E-04
   37 T=    68. E= -.41286656E+03 F= -.41320078E+03 E0= -.41317957E+03  EK= 0.33422E+00 SP= 0.00E+00 SK= 0.00E+00
       N       E                     dE             d eps       ncg     rms          rms(c)
RMM:   1    -0.413195619120E+03    0.51643E-02   -0.12033E+01  4305   0.101E+00    0.944E-01
RMM:   2    -0.413205833449E+03   -0.10214E-01   -0.15836E-01  4257   0.129E-01    0.676E-01
RMM:   3    -0.413203566388E+03    0.22671E-02   -0.78283E-03  4702   0.513E-02    0.184E-01
RMM:   4    -0.413231230522E+03   -0.27664E-01   -0.27939E-02  5152   0.140E-01    0.695E-01
RMM:   5    -0.413203235750E+03    0.27995E-01   -0.14181E-02  4810   0.116E-01    0.399E-02
RMM:   6    -0.413203275536E+03   -0.39785E-04   -0.22169E-03  5834   0.443E-02    0.234E-02
RMM:   7    -0.413203285270E+03   -0.97343E-05   -0.27731E-04  5810   0.148E-02    0.150E-02
RMM:   8    -0.413203275126E+03    0.10144E-04   -0.48197E-05  4998   0.704E-03    0.832E-03
RMM:   9    -0.413203270570E+03    0.45563E-05   -0.11600E-05  3846   0.398E-03    0.503E-03
RMM:  10    -0.413203264885E+03    0.56852E-05   -0.19226E-06  2562   0.212E-03    0.304E-03
RMM:  11    -0.413203259211E+03    0.56735E-05   -0.11718E-06  2500   0.172E-03    0.158E-03
RMM:  12    -0.413203251549E+03    0.76625E-05   -0.82792E-07  2454   0.151E-03    0.606E-04
RMM:  13    -0.413203249204E+03    0.23446E-05   -0.32501E-07  2126   0.101E-03    0.427E-04
RMM:  14    -0.413203248230E+03    0.97458E-06   -0.15197E-07  1456   0.729E-04
   38 T=    69. E= -.41286650E+03 F= -.41320325E+03 E0= -.41318207E+03  EK= 0.33674E+00 SP= 0.00E+00 SK= 0.00E+00
       N       E                     dE             d eps       ncg     rms          rms(c)
RMM:   1    -0.413205543404E+03   -0.22942E-02   -0.12150E+01  4305   0.109E+00    0.957E-01
RMM:   2    -0.413207614378E+03   -0.20710E-02   -0.16287E-01  4266   0.128E-01    0.670E-01
RMM:   3    -0.413206367344E+03    0.12470E-02   -0.83245E-03  4966   0.533E-02    0.217E-01
RMM:   4    -0.413255825469E+03   -0.49458E-01   -0.52479E-02  5137   0.190E-01    0.922E-01
RMM:   5    -0.413205376074E+03    0.50449E-01   -0.24970E-02  4786   0.155E-01    0.515E-02
RMM:   6    -0.413205537770E+03   -0.16170E-03   -0.41265E-03  5832   0.591E-02    0.270E-02
RMM:   7    -0.413205554247E+03   -0.16477E-04   -0.41978E-04  5775   0.176E-02    0.163E-02
RMM:   8    -0.413205546824E+03    0.74230E-05   -0.53221E-05  4760   0.659E-03    0.902E-03
RMM:   9    -0.413205537369E+03    0.94549E-05   -0.16024E-05  4044   0.417E-03    0.564E-03
RMM:  10    -0.413205533010E+03    0.43589E-05   -0.42629E-06  2815   0.268E-03    0.353E-03
RMM:  11    -0.413205525498E+03    0.75121E-05   -0.14938E-06  2500   0.202E-03    0.204E-03
RMM:  12    -0.413205514870E+03    0.10628E-04   -0.94008E-07  2476   0.169E-03    0.573E-04
RMM:  13    -0.413205511448E+03    0.34227E-05   -0.38510E-07  2310   0.112E-03    0.467E-04
RMM:  14    -0.413205510197E+03    0.12502E-05   -0.17221E-07  1705   0.781E-04    0.307E-04
RMM:  15    -0.413205503101E+03    0.70968E-05   -0.13183E-07  1627   0.746E-04    0.240E-04
RMM:  16    -0.413205501873E+03    0.12275E-05   -0.56349E-08  1029   0.598E-04    0.128E-04
RMM:  17    -0.413205497755E+03    0.41180E-05   -0.49717E-08  1068   0.613E-04    0.104E-04
RMM:  18    -0.413205494459E+03    0.32956E-05   -0.45052E-08  1136   0.610E-04    0.483E-05
RMM:  19    -0.413205492963E+03    0.14967E-05   -0.25576E-08   928   0.568E-04    0.336E-05
RMM:  20    -0.413205492435E+03    0.52804E-06   -0.14234E-08   778   0.540E-04
   39 T=    69. E= -.41286633E+03 F= -.41320549E+03 E0= -.41318436E+03  EK= 0.33917E+00 SP= 0.00E+00 SK= 0.00E+00
       N       E                     dE             d eps       ncg     rms          rms(c)
RMM:   1    -0.413202254427E+03    0.32385E-02   -0.12099E+01  4309   0.110E+00    0.935E-01
RMM:   2    -0.413210936760E+03   -0.86823E-02   -0.16279E-01  4266   0.132E-01    0.675E-01
RMM:   3    -0.413209645843E+03    0.12909E-02   -0.83493E-03  4992   0.564E-02    0.230E-01
RMM:   4    -0.413263229700E+03   -0.53584E-01   -0.59025E-02  5130   0.202E-01    0.961E-01
RMM:   5    -0.413208236397E+03    0.54993E-01   -0.26868E-02  4778   0.162E-01    0.535E-02
RMM:   6    -0.413208417329E+03   -0.18093E-03   -0.44172E-03  5820   0.614E-02    0.270E-02
RMM:   7    -0.413208437020E+03   -0.19691E-04   -0.47031E-04  5885   0.186E-02    0.180E-02
RMM:   8    -0.413208437539E+03   -0.51924E-06   -0.85905E-05  5225   0.847E-03    0.122E-02
RMM:   9    -0.413208427197E+03    0.10342E-04   -0.21723E-05  4481   0.512E-03    0.632E-03
RMM:  10    -0.413208422246E+03    0.49506E-05   -0.44540E-06  2746   0.287E-03    0.354E-03
RMM:  11    -0.413208418372E+03    0.38739E-05   -0.17018E-06  2512   0.209E-03    0.206E-03
RMM:  12    -0.413208412475E+03    0.58976E-05   -0.10144E-06  2479   0.173E-03    0.687E-04
RMM:  13    -0.413208409762E+03    0.27127E-05   -0.44444E-07  2313   0.118E-03    0.414E-04
RMM:  14    -0.413208408154E+03    0.16083E-05   -0.21156E-07  1837   0.832E-04    0.274E-04
RMM:  15    -0.413208403855E+03    0.42986E-05   -0.14543E-07  1540   0.741E-04    0.213E-04
RMM:  16    -0.413208402917E+03    0.93811E-06   -0.71250E-08  1052   0.609E-04
   40 T=    70. E= -.41286666E+03 F= -.41320840E+03 E0= -.41318730E+03  EK= 0.34174E+00 SP= 0.00E+00 SK= 0.00E+00
       N       E                     dE             d eps       ncg     rms          rms(c)
RMM:   1    -0.413227112984E+03   -0.18709E-01   -0.12472E+01  4308   0.127E+00    0.947E-01
RMM:   2    -0.413212480794E+03    0.14632E-01   -0.17510E-01  4274   0.141E-01    0.686E-01
RMM:   3    -0.413211835108E+03    0.64569E-03   -0.89190E-03  5042   0.606E-02    0.260E-01
RMM:   4    -0.413266556217E+03   -0.54721E-01   -0.63261E-02  5120   0.209E-01    0.976E-01
RMM:   5    -0.413209851465E+03    0.56705E-01   -0.27438E-02  4772   0.164E-01    0.558E-02
RMM:   6    -0.413210011929E+03   -0.16046E-03   -0.43001E-03  5809   0.620E-02    0.270E-02
RMM:   7    -0.413210031146E+03   -0.19217E-04   -0.48279E-04  5915   0.191E-02    0.189E-02
RMM:   8    -0.413210031327E+03   -0.18108E-06   -0.92968E-05  5273   0.895E-03    0.122E-02
RMM:   9    -0.413210020145E+03    0.11182E-04   -0.19887E-05  4358   0.511E-03    0.548E-03
RMM:  10    -0.413210015075E+03    0.50701E-05   -0.46695E-06  2774   0.281E-03    0.315E-03
RMM:  11    -0.413210011081E+03    0.39943E-05   -0.14610E-06  2506   0.194E-03    0.175E-03
RMM:  12    -0.413210005489E+03    0.55915E-05   -0.80407E-07  2458   0.154E-03    0.631E-04
RMM:  13    -0.413210002420E+03    0.30695E-05   -0.38359E-07  2230   0.108E-03    0.320E-04
RMM:  14    -0.413209999966E+03    0.24537E-05   -0.20105E-07  1667   0.804E-04    0.208E-04
RMM:  15    -0.413209996005E+03    0.39614E-05   -0.13519E-07  1342   0.714E-04    0.118E-04
RMM:  16    -0.413209994535E+03    0.14698E-05   -0.82503E-08  1132   0.643E-04    0.662E-05
RMM:  17    -0.413209992318E+03    0.22169E-05   -0.66134E-08  1119   0.630E-04    0.547E-05
RMM:  18    -0.413209989479E+03    0.28392E-05   -0.55880E-08  1119   0.622E-04    0.336E-05
RMM:  19    -0.413209988433E+03    0.10462E-05   -0.32649E-08   913   0.578E-04    0.267E-05
RMM:  20    -0.413209987833E+03    0.59987E-06   -0.21222E-08   812   0.559E-04
   41 T=    70. E= -.41286619E+03 F= -.41320999E+03 E0= -.41318892E+03  EK= 0.34380E+00 SP= 0.00E+00 SK= 0.00E+00
       N       E                     dE             d eps       ncg     rms          rms(c)
RMM:   1    -0.413237372236E+03   -0.27384E-01   -0.12603E+01  4311   0.133E+00    0.971E-01
RMM:   2    -0.413214314945E+03    0.23057E-01   -0.18317E-01  4291   0.147E-01    0.680E-01
RMM:   3    -0.413216187357E+03   -0.18724E-02   -0.10892E-02  5115   0.730E-02    0.330E-01
RMM:   4    -0.413252654657E+03   -0.36467E-01   -0.52468E-02  5091   0.192E-01    0.834E-01
RMM:   5    -0.413212406145E+03    0.40249E-01   -0.18301E-02  4734   0.140E-01    0.552E-02
RMM:   6    -0.413212464345E+03   -0.58200E-04   -0.30090E-03  5747   0.522E-02    0.263E-02
RMM:   7    -0.413212474661E+03   -0.10316E-04   -0.38031E-04  5875   0.172E-02    0.189E-02
RMM:   8    -0.413212470529E+03    0.41319E-05   -0.82297E-05  5173   0.877E-03    0.108E-02
RMM:   9    -0.413212456837E+03    0.13692E-04   -0.16932E-05  4151   0.499E-03    0.415E-03
RMM:  10    -0.413212450901E+03    0.59364E-05   -0.35690E-06  2706   0.246E-03    0.248E-03
RMM:  11    -0.413212444310E+03    0.65907E-05   -0.11929E-06  2502   0.175E-03    0.129E-03
RMM:  12    -0.413212437677E+03    0.66327E-05   -0.54681E-07  2396   0.129E-03    0.554E-04
RMM:  13    -0.413212433380E+03    0.42977E-05   -0.28491E-07  1847   0.913E-04    0.246E-04
RMM:  14    -0.413212429463E+03    0.39163E-05   -0.17130E-07  1402   0.755E-04    0.140E-04
RMM:  15    -0.413212423345E+03    0.61189E-05   -0.13836E-07  1396   0.729E-04    0.101E-04
RMM:  16    -0.413212421301E+03    0.20434E-05   -0.89088E-08  1214   0.654E-04    0.730E-05
RMM:  17    -0.413212417185E+03    0.41165E-05   -0.81317E-08  1350   0.649E-04    0.587E-05
RMM:  18    -0.413212414551E+03    0.26338E-05   -0.53886E-08  1110   0.589E-04    0.421E-05
RMM:  19    -0.413212414020E+03    0.53055E-06   -0.30650E-08   838   0.538E-04
   42 T=    70. E= -.41286640E+03 F= -.41321241E+03 E0= -.41319138E+03  EK= 0.34601E+00 SP= 0.00E+00 SK= 0.00E+00
       N       E                     dE             d eps       ncg     rms          rms(c)
RMM:   1    -0.413214557517E+03   -0.21430E-02   -0.12313E+01  4312   0.130E+00    0.946E-01
RMM:   2    -0.413216084145E+03   -0.15266E-02   -0.16943E-01  4298   0.151E-01    0.679E-01
RMM:   3    -0.413219121356E+03   -0.30372E-02   -0.11714E-02  5098   0.808E-02    0.351E-01
RMM:   4    -0.413249951167E+03   -0.30830E-01   -0.49842E-02  5072   0.188E-01    0.786E-01
RMM:   5    -0.413214291247E+03    0.35660E-01   -0.15630E-02  4712   0.132E-01    0.529E-02
RMM:   6    -0.413214325427E+03   -0.34180E-04   -0.26198E-03  5734   0.488E-02    0.254E-02
RMM:   7    -0.413214331825E+03   -0.63976E-05   -0.32999E-04  5843   0.163E-02    0.183E-02
RMM:   8    -0.413214328433E+03    0.33921E-05   -0.75427E-05  5146   0.851E-03    0.101E-02
RMM:   9    -0.413214316831E+03    0.11602E-04   -0.15991E-05  4087   0.489E-03    0.388E-03
RMM:  10    -0.413214312579E+03    0.42522E-05   -0.31569E-06  2681   0.237E-03    0.229E-03
RMM:  11    -0.413214307319E+03    0.52597E-05   -0.12118E-06  2505   0.174E-03    0.122E-03
RMM:  12    -0.413214302544E+03    0.47745E-05   -0.54252E-07  2393   0.127E-03    0.536E-04
RMM:  13    -0.413214299378E+03    0.31667E-05   -0.28108E-07  1745   0.891E-04    0.240E-04
RMM:  14    -0.413214296428E+03    0.29495E-05   -0.17503E-07  1385   0.749E-04    0.131E-04
RMM:  15    -0.413214291568E+03    0.48602E-05   -0.14512E-07  1363   0.721E-04    0.974E-05
RMM:  16    -0.413214290042E+03    0.15263E-05   -0.88335E-08  1138   0.646E-04    0.728E-05
RMM:  17    -0.413214286920E+03    0.31220E-05   -0.77148E-08  1242   0.643E-04    0.536E-05
RMM:  18    -0.413214284410E+03    0.25100E-05   -0.59869E-08  1160   0.608E-04    0.455E-05
RMM:  19    -0.413214283822E+03    0.58770E-06   -0.30649E-08   816   0.547E-04
   43 T=    71. E= -.41286643E+03 F= -.41321428E+03 E0= -.41319328E+03  EK= 0.34786E+00 SP= 0.00E+00 SK= 0.00E+00
       N       E                     dE             d eps       ncg     rms          rms(c)
RMM:   1    -0.413257163018E+03   -0.42879E-01   -0.12844E+01  4312   0.155E+00    0.947E-01
RMM:   2    -0.413217292914E+03    0.39870E-01   -0.20800E-01  4307   0.174E-01    0.697E-01
RMM:   3    -0.413221407687E+03   -0.41148E-02   -0.12396E-02  5094   0.893E-02    0.409E-01
RMM:   4    -0.413250120945E+03   -0.28713E-01   -0.51659E-02  5056   0.193E-01    0.785E-01
RMM:   5    -0.413215209703E+03    0.34911E-01   -0.15403E-02  4697   0.133E-01    0.570E-02
RMM:   6    -0.413215221073E+03   -0.11370E-04   -0.25813E-03  5684   0.486E-02    0.261E-02
RMM:   7    -0.413215227343E+03   -0.62696E-05   -0.33548E-04  5898   0.166E-02    0.193E-02
RMM:   8    -0.413215222683E+03    0.46595E-05   -0.73401E-05  5182   0.843E-03    0.103E-02
RMM:   9    -0.413215211882E+03    0.10801E-04   -0.18197E-05  4181   0.524E-03    0.415E-03
RMM:  10    -0.413215208724E+03    0.31585E-05   -0.34040E-06  2709   0.239E-03    0.239E-03
RMM:  11    -0.413215204643E+03    0.40812E-05   -0.16618E-06  2551   0.192E-03    0.138E-03
RMM:  12    -0.413215201649E+03    0.29936E-05   -0.57002E-07  2448   0.134E-03    0.639E-04
RMM:  13    -0.413215198993E+03    0.26560E-05   -0.31184E-07  1697   0.911E-04    0.306E-04
RMM:  14    -0.413215196538E+03    0.24546E-05   -0.20139E-07  1412   0.776E-04    0.155E-04
RMM:  15    -0.413215193734E+03    0.28043E-05   -0.15186E-07  1392   0.727E-04    0.875E-05
RMM:  16    -0.413215191639E+03    0.20946E-05   -0.10257E-07  1181   0.660E-04    0.580E-05
RMM:  17    -0.413215189596E+03    0.20435E-05   -0.80643E-08  1199   0.634E-04    0.490E-05
RMM:  18    -0.413215187521E+03    0.20752E-05   -0.60255E-08  1075   0.596E-04    0.394E-05
RMM:  19    -0.413215186695E+03    0.82549E-06   -0.36013E-08   861   0.551E-04
   44 T=    71. E= -.41286617E+03 F= -.41321519E+03 E0= -.41319421E+03  EK= 0.34902E+00 SP= 0.00E+00 SK= 0.00E+00
       N       E                     dE             d eps       ncg     rms          rms(c)
RMM:   1    -0.413236166481E+03   -0.20979E-01   -0.12648E+01  4311   0.154E+00    0.976E-01
RMM:   2    -0.413217831048E+03    0.18335E-01   -0.17424E-01  4346   0.177E-01    0.686E-01
RMM:   3    -0.413228717710E+03   -0.10887E-01   -0.18956E-02  5144   0.115E-01    0.507E-01
RMM:   4    -0.413233966471E+03   -0.52488E-02   -0.39306E-02  5016   0.172E-01    0.565E-01
RMM:   5    -0.413216621408E+03    0.17345E-01   -0.65361E-03  4587   0.973E-02    0.481E-02
RMM:   6    -0.413216582065E+03    0.39343E-04   -0.12363E-03  5433   0.343E-02    0.238E-02
RMM:   7    -0.413216578792E+03    0.32734E-05   -0.16576E-04  5642   0.125E-02    0.168E-02
RMM:   8    -0.413216570923E+03    0.78688E-05   -0.72047E-05  5101   0.861E-03    0.872E-03
RMM:   9    -0.413216556350E+03    0.14573E-04   -0.13488E-05  4024   0.488E-03    0.348E-03
RMM:  10    -0.413216552569E+03    0.37806E-05   -0.20550E-06  2613   0.206E-03    0.196E-03
RMM:  11    -0.413216545196E+03    0.73736E-05   -0.11111E-06  2488   0.167E-03    0.115E-03
RMM:  12    -0.413216539766E+03    0.54300E-05   -0.45738E-07  2380   0.120E-03    0.551E-04
RMM:  13    -0.413216535943E+03    0.38229E-05   -0.21777E-07  1633   0.810E-04    0.266E-04
RMM:  14    -0.413216532207E+03    0.37356E-05   -0.12680E-07  1219   0.677E-04    0.139E-04
RMM:  15    -0.413216526452E+03    0.57558E-05   -0.11154E-07  1271   0.678E-04    0.116E-04
RMM:  16    -0.413216523984E+03    0.24674E-05   -0.66349E-08  1049   0.607E-04    0.103E-04
RMM:  17    -0.413216520946E+03    0.30381E-05   -0.54746E-08  1078   0.594E-04    0.561E-05
RMM:  18    -0.413216517273E+03    0.36730E-05   -0.52569E-08  1155   0.600E-04    0.545E-05
RMM:  19    -0.413216516854E+03    0.41871E-06   -0.20742E-08   722   0.509E-04
   45 T=    71. E= -.41286660E+03 F= -.41321652E+03 E0= -.41319557E+03  EK= 0.34992E+00 SP= 0.00E+00 SK= 0.00E+00
       N       E                     dE             d eps       ncg     rms          rms(c)
RMM:   1    -0.413230411204E+03   -0.13894E-01   -0.12482E+01  4309   0.160E+00    0.957E-01
RMM:   2    -0.413217548330E+03    0.12863E-01   -0.18132E-01  4369   0.188E-01    0.683E-01
RMM:   3    -0.413230905081E+03   -0.13357E-01   -0.20781E-02  5133   0.123E-01    0.554E-01
RMM:   4    -0.413231193479E+03   -0.28840E-03   -0.38697E-02  5007   0.172E-01    0.530E-01
RMM:   5    -0.413216360302E+03    0.14833E-01   -0.57563E-03  4569   0.941E-02    0.487E-02
RMM:   6    -0.413216296080E+03    0.64221E-04   -0.96867E-04  5230   0.317E-02    0.235E-02
RMM:   7    -0.413216291469E+03    0.46118E-05   -0.13291E-04  5696   0.113E-02    0.152E-02
RMM:   8    -0.413216288632E+03    0.28370E-05   -0.80280E-05  5181   0.900E-03    0.995E-03
RMM:   9    -0.413216272984E+03    0.15648E-04   -0.18453E-05  4384   0.552E-03    0.380E-03
RMM:  10    -0.413216270010E+03    0.29733E-05   -0.25527E-06  2673   0.222E-03    0.211E-03
RMM:  11    -0.413216263979E+03    0.60311E-05   -0.13360E-06  2488   0.184E-03    0.125E-03
RMM:  12    -0.413216259383E+03    0.45959E-05   -0.51989E-07  2403   0.131E-03    0.666E-04
RMM:  13    -0.413216255677E+03    0.37064E-05   -0.23217E-07  1682   0.868E-04    0.330E-04
RMM:  14    -0.413216251992E+03    0.36854E-05   -0.12648E-07  1333   0.702E-04    0.162E-04
RMM:  15    -0.413216247200E+03    0.47914E-05   -0.97967E-08  1214   0.658E-04    0.132E-04
RMM:  16    -0.413216245211E+03    0.19894E-05   -0.51412E-08   899   0.570E-04    0.107E-04
RMM:  17    -0.413216241780E+03    0.34313E-05   -0.49585E-08   965   0.579E-04    0.680E-05
RMM:  18    -0.413216239061E+03    0.27184E-05   -0.41905E-08   982   0.571E-04    0.478E-05
RMM:  19    -0.413216238370E+03    0.69075E-06   -0.16965E-08   671   0.514E-04
   46 T=    71. E= -.41286655E+03 F= -.41321624E+03 E0= -.41319531E+03  EK= 0.34969E+00 SP= 0.00E+00 SK= 0.00E+00
       N       E                     dE             d eps       ncg     rms          rms(c)
RMM:   1    -0.413245059212E+03   -0.28820E-01   -0.12648E+01  4311   0.173E+00    0.944E-01
RMM:   2    -0.413217001635E+03    0.28058E-01   -0.20276E-01  4378   0.208E-01    0.698E-01
RMM:   3    -0.413230780998E+03   -0.13779E-01   -0.21151E-02  5134   0.128E-01    0.582E-01
RMM:   4    -0.413231156962E+03   -0.37596E-03   -0.41097E-02  4998   0.178E-01    0.553E-01
RMM:   5    -0.413215216366E+03    0.15941E-01   -0.65412E-03  4567   0.100E-01    0.521E-02
RMM:   6    -0.413215137081E+03    0.79285E-04   -0.10436E-03  5228   0.333E-02    0.246E-02
RMM:   7    -0.413215131936E+03    0.51444E-05   -0.15051E-04  5758   0.119E-02    0.168E-02
RMM:   8    -0.413215126967E+03    0.49689E-05   -0.81055E-05  5192   0.902E-03    0.102E-02
RMM:   9    -0.413215112138E+03    0.14829E-04   -0.19686E-05  4408   0.574E-03    0.409E-03
RMM:  10    -0.413215109810E+03    0.23288E-05   -0.27902E-06  2696   0.227E-03    0.224E-03
RMM:  11    -0.413215105829E+03    0.39807E-05   -0.15482E-06  2508   0.194E-03    0.141E-03
RMM:  12    -0.413215102752E+03    0.30767E-05   -0.54213E-07  2409   0.136E-03    0.719E-04
RMM:  13    -0.413215099930E+03    0.28223E-05   -0.25578E-07  1756   0.901E-04    0.331E-04
RMM:  14    -0.413215097374E+03    0.25559E-05   -0.15112E-07  1416   0.726E-04    0.170E-04
RMM:  15    -0.413215094249E+03    0.31249E-05   -0.11106E-07  1198   0.658E-04    0.110E-04
RMM:  16    -0.413215092428E+03    0.18206E-05   -0.64275E-08   969   0.589E-04    0.833E-05
RMM:  17    -0.413215090498E+03    0.19306E-05   -0.48620E-08   912   0.573E-04    0.537E-05
RMM:  18    -0.413215088628E+03    0.18702E-05   -0.43332E-08   929   0.565E-04    0.386E-05
RMM:  19    -0.413215088103E+03    0.52453E-06   -0.18760E-08   667   0.517E-04
   47 T=    71. E= -.41286670E+03 F= -.41321509E+03 E0= -.41319418E+03  EK= 0.34839E+00 SP= 0.00E+00 SK= 0.00E+00
       N       E                     dE             d eps       ncg     rms          rms(c)
RMM:   1    -0.413269693442E+03   -0.54605E-01   -0.12848E+01  4306   0.194E+00    0.968E-01
RMM:   2    -0.413214347291E+03    0.55346E-01   -0.21239E-01  4445   0.213E-01    0.693E-01
RMM:   3    -0.413236221635E+03   -0.21874E-01   -0.28475E-02  5147   0.150E-01    0.693E-01
RMM:   4    -0.413222374074E+03    0.13848E-01   -0.38412E-02  4968   0.176E-01    0.452E-01
RMM:   5    -0.413213062186E+03    0.93119E-02   -0.50118E-03  4547   0.921E-02    0.578E-02
RMM:   6    -0.413212902793E+03    0.15939E-03   -0.52027E-04  4755   0.291E-02    0.267E-02
RMM:   7    -0.413212902988E+03   -0.19500E-06   -0.18427E-04  5920   0.136E-02    0.185E-02
RMM:   8    -0.413212884757E+03    0.18231E-04   -0.67848E-05  5081   0.901E-03    0.102E-02
RMM:   9    -0.413212872054E+03    0.12703E-04   -0.14984E-05  4076   0.503E-03    0.495E-03
RMM:  10    -0.413212867273E+03    0.47816E-05   -0.23683E-06  2584   0.246E-03    0.244E-03
RMM:  11    -0.413212861903E+03    0.53694E-05   -0.18374E-06  2524   0.209E-03    0.176E-03
RMM:  12    -0.413212857699E+03    0.42042E-05   -0.56958E-07  2401   0.141E-03    0.881E-04
RMM:  13    -0.413212853309E+03    0.43898E-05   -0.27392E-07  1868   0.912E-04    0.445E-04
RMM:  14    -0.413212848271E+03    0.50382E-05   -0.18629E-07  1693   0.766E-04    0.266E-04
RMM:  15    -0.413212843744E+03    0.45269E-05   -0.11687E-07  1166   0.625E-04    0.128E-04
RMM:  16    -0.413212841013E+03    0.27315E-05   -0.80439E-08  1139   0.594E-04    0.974E-05
RMM:  17    -0.413212838523E+03    0.24896E-05   -0.56978E-08  1010   0.565E-04    0.584E-05
RMM:  18    -0.413212836228E+03    0.22950E-05   -0.45515E-08   981   0.552E-04    0.469E-05
RMM:  19    -0.413212835591E+03    0.63742E-06   -0.24323E-08   747   0.502E-04
   48 T=    70. E= -.41286713E+03 F= -.41321284E+03 E0= -.41319194E+03  EK= 0.34571E+00 SP= 0.00E+00 SK= 0.00E+00
       N       E                     dE             d eps       ncg     rms          rms(c)
RMM:   1    -0.413268831877E+03   -0.55996E-01   -0.12657E+01  4305   0.206E+00    0.958E-01
RMM:   2    -0.413209226554E+03    0.59605E-01   -0.21156E-01  4474   0.227E-01    0.682E-01
RMM:   3    -0.413237691287E+03   -0.28465E-01   -0.34483E-02  5158   0.166E-01    0.773E-01
RMM:   4    -0.413214193984E+03    0.23497E-01   -0.37924E-02  4930   0.178E-01    0.395E-01
RMM:   5    -0.413208044082E+03    0.61499E-02   -0.52218E-03  4758   0.943E-02    0.703E-02
RMM:   6    -0.413207772635E+03    0.27145E-03   -0.53096E-04  4658   0.323E-02    0.309E-02
RMM:   7    -0.413207766863E+03    0.57713E-05   -0.16478E-04  5754   0.138E-02    0.210E-02
RMM:   8    -0.413207744575E+03    0.22289E-04   -0.46355E-05  4959   0.754E-03    0.997E-03
RMM:   9    -0.413207730788E+03    0.13786E-04   -0.14532E-05  3585   0.456E-03    0.426E-03
RMM:  10    -0.413207725069E+03    0.57189E-05   -0.24189E-06  2613   0.242E-03    0.248E-03
RMM:  11    -0.413207718012E+03    0.70576E-05   -0.11444E-06  2503   0.173E-03    0.153E-03
RMM:  12    -0.413207713742E+03    0.42701E-05   -0.43606E-07  2400   0.118E-03    0.708E-04
RMM:  13    -0.413207708434E+03    0.53082E-05   -0.29208E-07  1723   0.880E-04    0.359E-04
RMM:  14    -0.413207703969E+03    0.44642E-05   -0.19938E-07  1511   0.773E-04    0.268E-04
RMM:  15    -0.413207698859E+03    0.51105E-05   -0.16120E-07  1354   0.714E-04    0.135E-04
RMM:  16    -0.413207696796E+03    0.20631E-05   -0.92702E-08  1165   0.629E-04    0.994E-05
RMM:  17    -0.413207693670E+03    0.31254E-05   -0.84076E-08  1254   0.624E-04    0.535E-05
RMM:  18    -0.413207692521E+03    0.11498E-05   -0.46729E-08   961   0.555E-04    0.423E-05
RMM:  19    -0.413207691811E+03    0.70946E-06   -0.30509E-08   836   0.531E-04
   49 T=    69. E= -.41286686E+03 F= -.41320769E+03 E0= -.41318681E+03  EK= 0.34083E+00 SP= 0.00E+00 SK= 0.00E+00
       N       E                     dE             d eps       ncg     rms          rms(c)
RMM:   1    -0.413230020917E+03   -0.22328E-01   -0.12109E+01  4305   0.202E+00    0.925E-01
RMM:   2    -0.413203129116E+03    0.26892E-01   -0.20330E-01  4500   0.232E-01    0.686E-01
RMM:   3    -0.413231815345E+03   -0.28686E-01   -0.34576E-02  5162   0.169E-01    0.783E-01
RMM:   4    -0.413207889025E+03    0.23926E-01   -0.38938E-02  4929   0.181E-01    0.395E-01
RMM:   5    -0.413201449706E+03    0.64393E-02   -0.56843E-03  4828   0.974E-02    0.751E-02
RMM:   6    -0.413201134850E+03    0.31486E-03   -0.58033E-04  4643   0.341E-02    0.320E-02
RMM:   7    -0.413201129146E+03    0.57044E-05   -0.17359E-04  5716   0.143E-02    0.213E-02
RMM:   8    -0.413201107869E+03    0.21276E-04   -0.47597E-05  5002   0.756E-03    0.101E-02
RMM:   9    -0.413201096535E+03    0.11334E-04   -0.15327E-05  3597   0.466E-03    0.425E-03
RMM:  10    -0.413201091764E+03    0.47717E-05   -0.27906E-06  2667   0.253E-03    0.256E-03
RMM:  11    -0.413201086573E+03    0.51905E-05   -0.11060E-06  2498   0.174E-03    0.149E-03
RMM:  12    -0.413201083532E+03    0.30414E-05   -0.44573E-07  2418   0.117E-03    0.691E-04
RMM:  13    -0.413201079473E+03    0.40584E-05   -0.33815E-07  1848   0.920E-04    0.398E-04
RMM:  14    -0.413201076498E+03    0.29754E-05   -0.20708E-07  1443   0.771E-04    0.268E-04
RMM:  15    -0.413201073149E+03    0.33490E-05   -0.18080E-07  1380   0.731E-04    0.122E-04
RMM:  16    -0.413201071759E+03    0.13902E-05   -0.10083E-07  1187   0.644E-04    0.904E-05
RMM:  17    -0.413201069804E+03    0.19542E-05   -0.97381E-08  1282   0.644E-04    0.595E-05
RMM:  18    -0.413201069423E+03    0.38182E-06   -0.46142E-08   934   0.558E-04
   50 T=    68. E= -.41286716E+03 F= -.41320107E+03 E0= -.41318020E+03  EK= 0.33391E+00 SP= 0.00E+00 SK= 0.00E+00
       N       E                     dE             d eps       ncg     rms          rms(c)
RMM:   1    -0.413224852761E+03   -0.23783E-01   -0.11881E+01  4301   0.215E+00    0.933E-01
RMM:   2    -0.413193112391E+03    0.31740E-01   -0.19995E-01  4554   0.244E-01    0.679E-01
RMM:   3    -0.413231617177E+03   -0.38505E-01   -0.44019E-02  5167   0.191E-01    0.885E-01
RMM:   4    -0.413195393237E+03    0.36224E-01   -0.40454E-02  4906   0.188E-01    0.341E-01
RMM:   5    -0.413191803104E+03    0.35901E-02   -0.75100E-03  5175   0.107E-01    0.997E-02
RMM:   6    -0.413191218501E+03    0.58460E-03   -0.11102E-03  4721   0.445E-02    0.375E-02
RMM:   7    -0.413191211829E+03    0.66712E-05   -0.27914E-04  5736   0.181E-02    0.236E-02
RMM:   8    -0.413191189591E+03    0.22238E-04   -0.49825E-05  5067   0.793E-03    0.113E-02
RMM:   9    -0.413191176304E+03    0.13287E-04   -0.17946E-05  3848   0.501E-03    0.461E-03
RMM:  10    -0.413191169492E+03    0.68125E-05   -0.39669E-06  2783   0.291E-03    0.304E-03
RMM:  11    -0.413191162491E+03    0.70010E-05   -0.14978E-06  2529   0.206E-03    0.161E-03
RMM:  12    -0.413191159108E+03    0.33827E-05   -0.56514E-07  2449   0.131E-03    0.754E-04
RMM:  13    -0.413191154277E+03    0.48316E-05   -0.41904E-07  2092   0.101E-03    0.514E-04
[...]
RMM:   5    -0.413161213511E+03    0.34751E-01   -0.16202E-02  4783   0.129E-01    0.573E-02
RMM:   6    -0.413161206983E+03    0.65276E-05   -0.27548E-03  5672   0.506E-02    0.290E-02
RMM:   7    -0.413161239683E+03   -0.32700E-04   -0.41659E-04  5983   0.180E-02    0.191E-02
RMM:   8    -0.413161246524E+03   -0.68413E-05   -0.86661E-05  5258   0.972E-03    0.928E-03
RMM:   9    -0.413161248560E+03   -0.20355E-05   -0.11370E-05  3491   0.402E-03    0.423E-03
RMM:  10    -0.413161252492E+03   -0.39325E-05   -0.26386E-06  2633   0.226E-03    0.279E-03
RMM:  11    -0.413161257670E+03   -0.51773E-05   -0.15992E-06  2532   0.189E-03    0.151E-03
RMM:  12    -0.413161260881E+03   -0.32114E-05   -0.89422E-07  2465   0.144E-03    0.586E-04
RMM:  13    -0.413161262498E+03   -0.16172E-05   -0.46793E-07  2142   0.106E-03    0.359E-04
RMM:  14    -0.413161263618E+03   -0.11200E-05   -0.28400E-07  1697   0.849E-04    0.244E-04
RMM:  15    -0.413161265235E+03   -0.16164E-05   -0.38826E-07  1745   0.862E-04    0.168E-04
RMM:  16    -0.413161265840E+03   -0.60494E-06   -0.19791E-07  1458   0.708E-04
  138 T=    60. E= -.41286663E+03 F= -.41316127E+03 E0= -.41314055E+03  EK= 0.29464E+00 SP= 0.00E+00 SK= 0.00E+00
       N       E                     dE             d eps       ncg     rms          rms(c)
RMM:   1    -0.413158835670E+03    0.24296E-02   -0.80524E+00  4268   0.801E-01    0.832E-01
RMM:   2    -0.413163265540E+03   -0.44299E-02   -0.97827E-02  4332   0.924E-02    0.597E-01
RMM:   3    -0.413161434985E+03    0.18306E-02   -0.14234E-02  5053   0.571E-02    0.166E-01
RMM:   4    -0.413193150346E+03   -0.31715E-01   -0.38043E-02  5122   0.164E-01    0.751E-01
RMM:   5    -0.413160129522E+03    0.33021E-01   -0.15461E-02  4788   0.125E-01    0.571E-02
RMM:   6    -0.413160126019E+03    0.35035E-05   -0.26669E-03  5675   0.498E-02    0.309E-02
RMM:   7    -0.413160152089E+03   -0.26070E-04   -0.41607E-04  5928   0.182E-02    0.198E-02
RMM:   8    -0.413160154513E+03   -0.24241E-05   -0.84556E-05  5249   0.975E-03    0.956E-03
RMM:   9    -0.413160153842E+03    0.67049E-06   -0.10678E-05  3441   0.394E-03    0.447E-03
RMM:  10    -0.413160155679E+03   -0.18365E-05   -0.26321E-06  2635   0.229E-03    0.291E-03
RMM:  11    -0.413160157655E+03   -0.19759E-05   -0.15055E-06  2524   0.186E-03    0.152E-03
RMM:  12    -0.413160158588E+03   -0.93363E-06   -0.96168E-07  2472   0.146E-03
  139 T=    60. E= -.41286638E+03 F= -.41316016E+03 E0= -.41313946E+03  EK= 0.29378E+00 SP= 0.00E+00 SK= 0.00E+00
       N       E                     dE             d eps       ncg     rms          rms(c)
RMM:   1    -0.413160362752E+03   -0.20510E-03   -0.77196E+00  4274   0.783E-01    0.815E-01
RMM:   2    -0.413164604604E+03   -0.42419E-02   -0.94644E-02  4333   0.904E-02    0.601E-01
RMM:   3    -0.413162012547E+03    0.25921E-02   -0.17077E-02  5021   0.580E-02    0.152E-01
RMM:   4    -0.413192287356E+03   -0.30275E-01   -0.35613E-02  5120   0.158E-01    0.733E-01
RMM:   5    -0.413160821225E+03    0.31466E-01   -0.14821E-02  4794   0.122E-01    0.545E-02
RMM:   6    -0.413160830091E+03   -0.88664E-05   -0.25509E-03  5686   0.487E-02    0.302E-02
RMM:   7    -0.413160857477E+03   -0.27386E-04   -0.39958E-04  5896   0.178E-02    0.191E-02
RMM:   8    -0.413160865554E+03   -0.80765E-05   -0.75761E-05  5220   0.930E-03    0.929E-03
RMM:   9    -0.413160868800E+03   -0.32467E-05   -0.99719E-06  3358   0.377E-03    0.451E-03
RMM:  10    -0.413160874627E+03   -0.58265E-05   -0.25382E-06  2623   0.225E-03    0.292E-03
RMM:  11    -0.413160880423E+03   -0.57966E-05   -0.14091E-06  2518   0.178E-03    0.149E-03
RMM:  12    -0.413160885311E+03   -0.48877E-05   -0.11126E-06  2478   0.149E-03    0.572E-04
RMM:  13    -0.413160887321E+03   -0.20104E-05   -0.52655E-07  2176   0.109E-03    0.410E-04
RMM:  14    -0.413160888669E+03   -0.13480E-05   -0.31201E-07  1728   0.860E-04    0.271E-04
RMM:  15    -0.413160890781E+03   -0.21117E-05   -0.50495E-07  1923   0.919E-04    0.259E-04
RMM:  16    -0.413160891710E+03   -0.92835E-06   -0.30856E-07  1526   0.751E-04
  140 T=    60. E= -.41286672E+03 F= -.41316089E+03 E0= -.41314021E+03  EK= 0.29417E+00 SP= 0.00E+00 SK= 0.00E+00
       N       E                     dE             d eps       ncg     rms          rms(c)
RMM:   1    -0.413161436058E+03   -0.54528E-03   -0.74501E+00  4267   0.773E-01    0.826E-01
RMM:   2    -0.413164509081E+03   -0.30730E-02   -0.91560E-02  4340   0.880E-02    0.607E-01
RMM:   3    -0.413161892254E+03    0.26168E-02   -0.20149E-02  5024   0.599E-02    0.162E-01
RMM:   4    -0.413190705305E+03   -0.28813E-01   -0.34519E-02  5117   0.156E-01    0.718E-01
RMM:   5    -0.413160555992E+03    0.30149E-01   -0.14132E-02  4791   0.120E-01    0.546E-02
RMM:   6    -0.413160553434E+03    0.25577E-05   -0.24433E-03  5682   0.478E-02    0.306E-02
RMM:   7    -0.413160575549E+03   -0.22115E-04   -0.39012E-04  5873   0.176E-02    0.192E-02
RMM:   8    -0.413160580490E+03   -0.49416E-05   -0.72667E-05  5228   0.926E-03    0.925E-03
RMM:   9    -0.413160582903E+03   -0.24124E-05   -0.97359E-06  3329   0.375E-03    0.447E-03
RMM:  10    -0.413160587713E+03   -0.48103E-05   -0.24745E-06  2622   0.225E-03    0.288E-03
RMM:  11    -0.413160592343E+03   -0.46301E-05   -0.13941E-06  2519   0.178E-03    0.146E-03
RMM:  12    -0.413160596063E+03   -0.37195E-05   -0.10434E-06  2480   0.147E-03    0.571E-04
RMM:  13    -0.413160597591E+03   -0.15287E-05   -0.49118E-07  2154   0.107E-03    0.396E-04
RMM:  14    -0.413160598641E+03   -0.10500E-05   -0.29582E-07  1732   0.857E-04    0.258E-04
RMM:  15    -0.413160600066E+03   -0.14251E-05   -0.41304E-07  1837   0.877E-04    0.228E-04
RMM:  16    -0.413160600709E+03   -0.64228E-06   -0.28101E-07  1571   0.754E-04
  141 T=    60. E= -.41286639E+03 F= -.41316060E+03 E0= -.41313993E+03  EK= 0.29421E+00 SP= 0.00E+00 SK= 0.00E+00
       N       E                     dE             d eps       ncg     rms          rms(c)
RMM:   1    -0.413162302427E+03   -0.17024E-02   -0.71243E+00  4264   0.762E-01    0.839E-01
RMM:   2    -0.413163916367E+03   -0.16139E-02   -0.88196E-02  4341   0.858E-02    0.604E-01
RMM:   3    -0.413161124760E+03    0.27916E-02   -0.21299E-02  5037   0.560E-02    0.148E-01
RMM:   4    -0.413188128844E+03   -0.27004E-01   -0.31588E-02  5122   0.149E-01    0.694E-01
RMM:   5    -0.413160026242E+03    0.28103E-01   -0.13321E-02  4805   0.116E-01    0.539E-02
RMM:   6    -0.413160029343E+03   -0.31006E-05   -0.23086E-03  5688   0.466E-02    0.321E-02
RMM:   7    -0.413160043734E+03   -0.14391E-04   -0.38628E-04  5849   0.177E-02    0.198E-02
RMM:   8    -0.413160043641E+03    0.93267E-07   -0.69024E-05  5244   0.911E-03    0.950E-03
RMM:   9    -0.413160042452E+03    0.11891E-05   -0.90560E-06  3288   0.367E-03    0.466E-03
RMM:  10    -0.413160043574E+03   -0.11221E-05   -0.24598E-06  2609   0.228E-03    0.294E-03
RMM:  11    -0.413160044037E+03   -0.46298E-06   -0.13505E-06  2517   0.177E-03
  142 T=    60. E= -.41286650E+03 F= -.41316004E+03 E0= -.41313938E+03  EK= 0.29354E+00 SP= 0.00E+00 SK= 0.00E+00
       N       E                     dE             d eps       ncg     rms          rms(c)
RMM:   1    -0.413163040627E+03   -0.29971E-02   -0.68356E+00  4265   0.749E-01    0.821E-01
RMM:   2    -0.413164545301E+03   -0.15047E-02   -0.84962E-02  4348   0.839E-02    0.602E-01
RMM:   3    -0.413161446726E+03    0.30986E-02   -0.24901E-02  5026   0.575E-02    0.162E-01
RMM:   4    -0.413185732701E+03   -0.24286E-01   -0.28633E-02  5122   0.143E-01    0.663E-01
RMM:   5    -0.413160253943E+03    0.25479E-01   -0.12117E-02  4795   0.111E-01    0.512E-02
RMM:   6    -0.413160263676E+03   -0.97327E-05   -0.21391E-03  5688   0.447E-02    0.309E-02
RMM:   7    -0.413160278753E+03   -0.15077E-04   -0.35908E-04  5815   0.172E-02    0.191E-02
RMM:   8    -0.413160283230E+03   -0.44765E-05   -0.60944E-05  5224   0.859E-03    0.906E-03
RMM:   9    -0.413160285492E+03   -0.22618E-05   -0.84179E-06  3225   0.347E-03    0.459E-03
RMM:  10    -0.413160290710E+03   -0.52181E-05   -0.23306E-06  2596   0.223E-03    0.286E-03
RMM:  11    -0.413160294840E+03   -0.41298E-05   -0.13580E-06  2523   0.174E-03    0.143E-03
RMM:  12    -0.413160298506E+03   -0.36661E-05   -0.12789E-06  2517   0.154E-03    0.656E-04
RMM:  13    -0.413160299983E+03   -0.14771E-05   -0.57395E-07  2200   0.110E-03    0.444E-04
RMM:  14    -0.413160300890E+03   -0.90759E-06   -0.31694E-07  1759   0.859E-04
  143 T=    60. E= -.41286658E+03 F= -.41316030E+03 E0= -.41313965E+03  EK= 0.29373E+00 SP= 0.00E+00 SK= 0.00E+00
       N       E                     dE             d eps       ncg     rms          rms(c)
RMM:   1    -0.413164136050E+03   -0.38361E-02   -0.66894E+00  4265   0.743E-01    0.828E-01
RMM:   2    -0.413165057968E+03   -0.92192E-03   -0.83125E-02  4350   0.833E-02    0.610E-01
RMM:   3    -0.413161597100E+03    0.34609E-02   -0.29005E-02  4999   0.602E-02    0.183E-01
RMM:   4    -0.413183618889E+03   -0.22022E-01   -0.26248E-02  5120   0.137E-01    0.636E-01
RMM:   5    -0.413160303582E+03    0.23315E-01   -0.11214E-02  4795   0.107E-01    0.501E-02
RMM:   6    -0.413160304472E+03   -0.88911E-06   -0.19455E-03  5672   0.429E-02    0.300E-02
RMM:   7    -0.413160326394E+03   -0.21922E-04   -0.33103E-04  5803   0.164E-02    0.184E-02
RMM:   8    -0.413160333876E+03   -0.74819E-05   -0.57958E-05  5217   0.836E-03    0.867E-03
RMM:   9    -0.413160337742E+03   -0.38660E-05   -0.77764E-06  3164   0.335E-03    0.429E-03
RMM:  10    -0.413160344861E+03   -0.71193E-05   -0.22214E-06  2583   0.219E-03    0.268E-03
RMM:  11    -0.413160351063E+03   -0.62016E-05   -0.13770E-06  2521   0.171E-03    0.132E-03
RMM:  12    -0.413160356477E+03   -0.54142E-05   -0.11705E-06  2483   0.146E-03    0.596E-04
RMM:  13    -0.413160358970E+03   -0.24936E-05   -0.54689E-07  2111   0.106E-03    0.400E-04
RMM:  14    -0.413160360639E+03   -0.16686E-05   -0.32552E-07  1671   0.853E-04    0.245E-04
RMM:  15    -0.413160362829E+03   -0.21895E-05   -0.44497E-07  1871   0.882E-04    0.244E-04
RMM:  16    -0.413160364216E+03   -0.13876E-05   -0.36055E-07  1553   0.778E-04    0.178E-04
RMM:  17    -0.413160364629E+03   -0.41260E-06   -0.14265E-07  1158   0.635E-04
  144 T=    60. E= -.41286629E+03 F= -.41316036E+03 E0= -.41313972E+03  EK= 0.29408E+00 SP= 0.00E+00 SK= 0.00E+00
       N       E                     dE             d eps       ncg     rms          rms(c)
RMM:   1    -0.413165043886E+03   -0.46797E-02   -0.64759E+00  4264   0.734E-01    0.843E-01
RMM:   2    -0.413164587908E+03    0.45598E-03   -0.81196E-02  4349   0.825E-02    0.608E-01
RMM:   3    -0.413161127430E+03    0.34605E-02   -0.28288E-02  4974   0.555E-02    0.152E-01
RMM:   4    -0.413180530209E+03   -0.19403E-01   -0.22103E-02  5122   0.126E-01    0.594E-01
RMM:   5    -0.413160214600E+03    0.20316E-01   -0.98606E-03  4809   0.992E-02    0.480E-02
RMM:   6    -0.413160220251E+03   -0.56509E-05   -0.17464E-03  5683   0.408E-02    0.312E-02
RMM:   7    -0.413160230841E+03   -0.10590E-04   -0.31666E-04  5686   0.163E-02    0.187E-02
RMM:   8    -0.413160230217E+03    0.62377E-06   -0.51817E-05  5209   0.803E-03    0.874E-03
RMM:   9    -0.413160230286E+03   -0.68794E-07   -0.72515E-06  3110   0.322E-03
  145 T=    60. E= -.41286662E+03 F= -.41316023E+03 E0= -.41313959E+03  EK= 0.29361E+00 SP= 0.00E+00 SK= 0.00E+00
       N       E                     dE             d eps       ncg     rms          rms(c)
RMM:   1    -0.413164549554E+03   -0.43193E-02   -0.63103E+00  4266   0.730E-01    0.828E-01
RMM:   2    -0.413164187121E+03    0.36243E-03   -0.79080E-02  4361   0.825E-02    0.603E-01
RMM:   3    -0.413163187110E+03    0.10000E-02   -0.31675E-02  5115   0.755E-02    0.267E-01
RMM:   4    -0.413181498499E+03   -0.18311E-01   -0.30652E-02  5077   0.150E-01    0.617E-01
RMM:   5    -0.413159737204E+03    0.21761E-01   -0.99219E-03  4753   0.105E-01    0.553E-02
RMM:   6    -0.413159662408E+03    0.74796E-04   -0.16705E-03  5455   0.410E-02    0.287E-02
RMM:   7    -0.413159695646E+03   -0.33238E-04   -0.31619E-04  5937   0.164E-02    0.191E-02
RMM:   8    -0.413159700527E+03   -0.48802E-05   -0.65034E-05  5250   0.903E-03    0.874E-03
RMM:   9    -0.413159703696E+03   -0.31695E-05   -0.91543E-06  3344   0.379E-03    0.390E-03
RMM:  10    -0.413159707331E+03   -0.36348E-05   -0.18513E-06  2570   0.212E-03    0.250E-03
RMM:  11    -0.413159713473E+03   -0.61422E-05   -0.20838E-06  2576   0.199E-03    0.145E-03
RMM:  12    -0.413159716065E+03   -0.25923E-05   -0.92391E-07  2479   0.140E-03    0.631E-04
RMM:  13    -0.413159718054E+03   -0.19889E-05   -0.61994E-07  2161   0.108E-03    0.392E-04
RMM:  14    -0.413159719402E+03   -0.13479E-05   -0.39984E-07  1779   0.877E-04    0.270E-04
RMM:  15    -0.413159721049E+03   -0.16466E-05   -0.76452E-07  2139   0.104E-03    0.244E-04
RMM:  16    -0.413159721595E+03   -0.54582E-06   -0.25771E-07  1336   0.686E-04
  146 T=    60. E= -.41286640E+03 F= -.41315972E+03 E0= -.41313909E+03  EK= 0.29332E+00 SP= 0.00E+00 SK= 0.00E+00
       N       E                     dE             d eps       ncg     rms          rms(c)
RMM:   1    -0.413165407046E+03   -0.56860E-02   -0.63195E+00  4264   0.734E-01    0.828E-01
RMM:   2    -0.413165023790E+03    0.38326E-03   -0.78531E-02  4352   0.824E-02    0.610E-01
RMM:   3    -0.413161332078E+03    0.36917E-02   -0.33748E-02  4979   0.567E-02    0.194E-01
RMM:   4    -0.413176195319E+03   -0.14863E-01   -0.17687E-02  5126   0.113E-01    0.528E-01
RMM:   5    -0.413160267221E+03    0.15928E-01   -0.79030E-03  4808   0.889E-02    0.447E-02
RMM:   6    -0.413160271450E+03   -0.42287E-05   -0.13855E-03  5655   0.368E-02    0.290E-02
RMM:   7    -0.413160291745E+03   -0.20295E-04   -0.26668E-04  5656   0.151E-02    0.170E-02
RMM:   8    -0.413160299248E+03   -0.75033E-05   -0.45178E-05  5126   0.751E-03    0.788E-03
RMM:   9    -0.413160304038E+03   -0.47901E-05   -0.60893E-06  2998   0.296E-03    0.399E-03
RMM:  10    -0.413160313443E+03   -0.94046E-05   -0.20498E-06  2568   0.210E-03    0.242E-03
RMM:  11    -0.413160320977E+03   -0.75342E-05   -0.13022E-06  2516   0.160E-03    0.114E-03
RMM:  12    -0.413160327520E+03   -0.65432E-05   -0.10895E-06  2443   0.135E-03    0.580E-04
RMM:  13    -0.413160331162E+03   -0.36422E-05   -0.56650E-07  2053   0.101E-03    0.356E-04
RMM:  14    -0.413160333406E+03   -0.22440E-05   -0.30964E-07  1528   0.811E-04    0.212E-04
RMM:  15    -0.413160336453E+03   -0.30462E-05   -0.39790E-07  1804   0.854E-04    0.213E-04
RMM:  16    -0.413160338536E+03   -0.20833E-05   -0.28413E-07  1516   0.741E-04    0.161E-04
RMM:  17    -0.413160339130E+03   -0.59402E-06   -0.10758E-07  1067   0.590E-04
  147 T=    60. E= -.41286650E+03 F= -.41316034E+03 E0= -.41313971E+03  EK= 0.29384E+00 SP= 0.00E+00 SK= 0.00E+00
       N       E                     dE             d eps       ncg     rms          rms(c)
RMM:   1    -0.413165924016E+03   -0.55855E-02   -0.62794E+00  4264   0.732E-01    0.841E-01
RMM:   2    -0.413164850903E+03    0.10731E-02   -0.78170E-02  4359   0.817E-02    0.609E-01
RMM:   3    -0.413161045201E+03    0.38057E-02   -0.30887E-02  4915   0.512E-02    0.147E-01
RMM:   4    -0.413168907351E+03   -0.78621E-02   -0.92639E-03  5138   0.830E-02    0.388E-01
RMM:   5    -0.413160429003E+03    0.84783E-02   -0.42711E-03  4827   0.652E-02    0.415E-02
RMM:   6    -0.413160436494E+03   -0.74915E-05   -0.88374E-04  5570   0.300E-02    0.297E-02
RMM:   7    -0.413160433963E+03    0.25319E-05   -0.21919E-04  5464   0.140E-02    0.168E-02
RMM:   8    -0.413160434835E+03   -0.87227E-06   -0.36840E-05  5028   0.693E-03    0.778E-03
RMM:   9    -0.413160436805E+03   -0.19700E-05   -0.50054E-06  2810   0.256E-03    0.368E-03
RMM:  10    -0.413160441537E+03   -0.47321E-05   -0.17571E-06  2540   0.193E-03    0.206E-03
RMM:  11    -0.413160445025E+03   -0.34880E-05   -0.11602E-06  2500   0.149E-03    0.969E-04
RMM:  12    -0.413160447613E+03   -0.25881E-05   -0.87416E-07  2308   0.123E-03    0.479E-04
RMM:  13    -0.413160449178E+03   -0.15654E-05   -0.52583E-07  2005   0.970E-04    0.305E-04
RMM:  14    -0.413160450232E+03   -0.10532E-05   -0.32677E-07  1497   0.804E-04    0.197E-04
RMM:  15    -0.413160451337E+03   -0.11056E-05   -0.33924E-07  1673   0.805E-04    0.167E-04
RMM:  16    -0.413160452186E+03   -0.84913E-06   -0.26963E-07  1500   0.733E-04
  148 T=    60. E= -.41286673E+03 F= -.41316045E+03 E0= -.41313983E+03  EK= 0.29372E+00 SP= 0.00E+00 SK= 0.00E+00
       N       E                     dE             d eps       ncg     rms          rms(c)
RMM:   1    -0.413164687109E+03   -0.42358E-02   -0.62852E+00  4264   0.735E-01    0.832E-01
RMM:   2    -0.413163856963E+03    0.83015E-03   -0.78033E-02  4379   0.803E-02    0.603E-01
RMM:   3    -0.413160019198E+03    0.38378E-02   -0.29626E-02  4890   0.480E-02    0.134E-01
RMM:   4    -0.413164419316E+03   -0.44001E-02   -0.55402E-03  5147   0.652E-02    0.296E-01
RMM:   5    -0.413159526608E+03    0.48927E-02   -0.25093E-03  4834   0.502E-02    0.405E-02
RMM:   6    -0.413159533240E+03   -0.66322E-05   -0.62078E-04  5485   0.257E-02    0.295E-02
RMM:   7    -0.413159537415E+03   -0.41755E-05   -0.19190E-04  5300   0.135E-02    0.167E-02
RMM:   8    -0.413159537386E+03    0.29737E-07   -0.31826E-05  4909   0.658E-03    0.758E-03
RMM:   9    -0.413159539855E+03   -0.24695E-05   -0.55308E-06  2757   0.244E-03    0.320E-03
RMM:  10    -0.413159544715E+03   -0.48602E-05   -0.15238E-06  2526   0.178E-03    0.171E-03
RMM:  11    -0.413159548689E+03   -0.39738E-05   -0.11919E-06  2495   0.145E-03    0.792E-04
RMM:  12    -0.413159551263E+03   -0.25743E-05   -0.75392E-07  2163   0.114E-03    0.375E-04
RMM:  13    -0.413159552841E+03   -0.15776E-05   -0.45990E-07  1911   0.925E-04    0.263E-04
RMM:  14    -0.413159554357E+03   -0.15156E-05   -0.41572E-07  1619   0.842E-04    0.179E-04
RMM:  15    -0.413159555498E+03   -0.11412E-05   -0.29598E-07  1522   0.758E-04    0.123E-04
RMM:  16    -0.413159556452E+03   -0.95461E-06   -0.23642E-07  1397   0.702E-04
  149 T=    60. E= -.41286642E+03 F= -.41315956E+03 E0= -.41313893E+03  EK= 0.29314E+00 SP= 0.00E+00 SK= 0.00E+00
       N       E                     dE             d eps       ncg     rms          rms(c)
RMM:   1    -0.413165066392E+03   -0.55109E-02   -0.64320E+00  4264   0.746E-01    0.822E-01
RMM:   2    -0.413164889771E+03    0.17662E-03   -0.78451E-02  4374   0.814E-02    0.606E-01
RMM:   3    -0.413160951786E+03    0.39380E-02   -0.31023E-02  4821   0.478E-02    0.156E-01
RMM:   4    -0.413161300556E+03   -0.34877E-03   -0.18049E-03  5132   0.365E-02    0.128E-01
RMM:   5    -0.413160468177E+03    0.83238E-03   -0.51686E-04  4872   0.234E-02    0.405E-02
RMM:   6    -0.413160471942E+03   -0.37643E-05   -0.31794E-04  5282   0.186E-02    0.278E-02
RMM:   7    -0.413160493201E+03   -0.21260E-04   -0.15052E-04  5040   0.113E-02    0.168E-02
RMM:   8    -0.413160493237E+03   -0.36103E-07   -0.17307E-05  4366   0.538E-03    0.753E-03
RMM:   9    -0.413160499541E+03   -0.63033E-05   -0.87243E-06  2756   0.273E-03    0.236E-03
RMM:  10    -0.413160509512E+03   -0.99711E-05   -0.18739E-06  2520   0.200E-03    0.152E-03
RMM:  11    -0.413160521282E+03   -0.11770E-04   -0.17241E-06  2519   0.161E-03    0.726E-04
RMM:  12    -0.413160525717E+03   -0.44356E-05   -0.55996E-07  2020   0.103E-03    0.483E-04
RMM:  13    -0.413160529701E+03   -0.39836E-05   -0.37105E-07  1683   0.849E-04    0.346E-04
RMM:  14    -0.413160535414E+03   -0.57128E-05   -0.58808E-07  1877   0.917E-04    0.227E-04
RMM:  15    -0.413160536940E+03   -0.15265E-05   -0.14672E-07  1179   0.606E-04    0.134E-04
RMM:  16    -0.413160539759E+03   -0.28189E-05   -0.20116E-07  1317   0.675E-04    0.714E-05
RMM:  17    -0.413160540351E+03   -0.59206E-06   -0.63986E-08   899   0.536E-04
  150 T=    60. E= -.41286671E+03 F= -.41316054E+03 E0= -.41313992E+03  EK= 0.29383E+00 SP= 0.00E+00 SK= 0.00E+00
