       N       E                     dE             d eps       ncg     rms          rms(c)
RMM:   1     0.220125716691E+04    0.22013E+04   -0.52441E+04  2132   0.654E+02
RMM:   2     0.705637943838E+03   -0.14956E+04   -0.16261E+04  2132   0.177E+02
RMM:   3     0.137701122652E+03   -0.56794E+03   -0.65735E+03  2132   0.117E+02
RMM:   4    -0.159317478521E+03   -0.29702E+03   -0.27825E+03  2132   0.936E+01
RMM:   5    -0.287508521326E+03   -0.12819E+03   -0.11450E+03  2132   0.595E+01
RMM:   6    -0.349881981310E+03   -0.62373E+02   -0.55134E+02  2132   0.423E+01
RMM:   7    -0.382710738391E+03   -0.32829E+02   -0.30392E+02  2132   0.293E+01
RMM:   8    -0.404230638726E+03   -0.21520E+02   -0.18438E+02  2132   0.233E+01
RMM:   9    -0.436066329443E+03   -0.31836E+02   -0.30684E+02  6117   0.173E+01
RMM:  10    -0.441284851107E+03   -0.52185E+01   -0.62680E+01  6399   0.538E+00
RMM:  11    -0.442506081567E+03   -0.12212E+01   -0.11181E+01  6209   0.173E+00
RMM:  12    -0.442879541578E+03   -0.37346E+00   -0.25786E+00  6374   0.596E-01    0.134E+02
RMM:  13    -0.425620653151E+03    0.17259E+02   -0.81553E+01  4677   0.120E+01    0.712E+01
RMM:  14    -0.499306912277E+03   -0.73686E+02   -0.54131E+02  5417   0.232E+01    0.306E+01
RMM:  15    -0.414631735573E+03    0.84675E+02   -0.19604E+02  5068   0.163E+01    0.628E+00
RMM:  16    -0.414041563750E+03    0.59017E+00   -0.39063E+01  6082   0.603E+00    0.427E+00
RMM:  17    -0.413217267114E+03    0.82430E+00   -0.23124E+00  5336   0.182E+00    0.245E+00
RMM:  18    -0.413167199494E+03    0.50068E-01   -0.85958E-01  5966   0.955E-01    0.160E+00
RMM:  19    -0.413167684250E+03   -0.48476E-03   -0.28686E-01  5720   0.568E-01    0.851E-01
RMM:  20    -0.413182247932E+03   -0.14564E-01   -0.20245E-01  5389   0.491E-01    0.526E-01
RMM:  21    -0.413167178356E+03    0.15070E-01   -0.32730E-02  5006   0.223E-01    0.245E-01
RMM:  22    -0.413165657897E+03    0.15205E-02   -0.13936E-02  6109   0.990E-02    0.144E-01
RMM:  23    -0.413164183582E+03    0.14743E-02   -0.50882E-03  5841   0.656E-02    0.813E-02
RMM:  24    -0.413162782883E+03    0.14007E-02   -0.16439E-03  5498   0.403E-02    0.360E-02
RMM:  25    -0.413162551646E+03    0.23124E-03   -0.80302E-04  5763   0.242E-02    0.296E-02
RMM:  26    -0.413162771658E+03   -0.22001E-03   -0.66203E-04  5822   0.267E-02    0.335E-02
RMM:  27    -0.413163175160E+03   -0.40350E-03   -0.18323E-04  4584   0.197E-02    0.172E-02
RMM:  28    -0.413163665377E+03   -0.49022E-03   -0.21142E-04  5308   0.206E-02    0.908E-03
RMM:  29    -0.413163996922E+03   -0.33155E-03   -0.87112E-05  4363   0.135E-02    0.459E-03
RMM:  30    -0.413164224706E+03   -0.22778E-03   -0.72743E-05  4031   0.102E-02    0.292E-03
RMM:  31    -0.413164329968E+03   -0.10526E-03   -0.46582E-05  3113   0.603E-03    0.237E-03
RMM:  32    -0.413164354205E+03   -0.24237E-04   -0.18853E-05  2928   0.291E-03    0.123E-03
RMM:  33    -0.413164363151E+03   -0.89461E-05   -0.81598E-06  2777   0.209E-03    0.541E-04
RMM:  34    -0.413164365336E+03   -0.21847E-05   -0.41499E-06  2629   0.157E-03    0.802E-04
RMM:  35    -0.413164364719E+03    0.61640E-06   -0.20184E-06  2121   0.108E-03
    1 T=    61. E= -.41286655E+03 F= -.41316436E+03 E0= -.41314187E+03  EK= 0.29782E+00 SP= 0.00E+00 SK= 0.00E+00
       N       E                     dE             d eps       ncg     rms          rms(c)
RMM:   1    -0.413160049519E+03    0.43158E-02   -0.97340E+00  3994   0.644E-01    0.885E-01
RMM:   2    -0.413167436281E+03   -0.73868E-02   -0.11924E-01  3859   0.909E-02    0.647E-01
RMM:   3    -0.413164401607E+03    0.30347E-02   -0.12144E-02  4853   0.444E-02    0.112E-01
RMM:   4    -0.413190670074E+03   -0.26268E-01   -0.28013E-02  5202   0.139E-01    0.676E-01
RMM:   5    -0.413163888007E+03    0.26782E-01   -0.13064E-02  4842   0.114E-01    0.459E-02
RMM:   6    -0.413164075473E+03   -0.18747E-03   -0.22924E-03  5800   0.465E-02    0.306E-02
RMM:   7    -0.413164084893E+03   -0.94206E-05   -0.39470E-04  5729   0.179E-02    0.193E-02
RMM:   8    -0.413164085093E+03   -0.19941E-06   -0.55745E-05  5059   0.796E-03    0.865E-03
RMM:   9    -0.413164087648E+03   -0.25551E-05   -0.11907E-05  3697   0.370E-03    0.657E-03
RMM:  10    -0.413164092618E+03   -0.49697E-05   -0.20111E-06  2588   0.209E-03    0.414E-03
RMM:  11    -0.413164097685E+03   -0.50670E-05   -0.13583E-06  2534   0.173E-03    0.217E-03
RMM:  12    -0.413164105011E+03   -0.73262E-05   -0.17139E-06  2568   0.184E-03    0.917E-04
RMM:  13    -0.413164106851E+03   -0.18400E-05   -0.58690E-07  2335   0.120E-03    0.604E-04
RMM:  14    -0.413164106845E+03    0.55334E-08   -0.31311E-07  1800   0.816E-04
    2 T=    61. E= -.41286635E+03 F= -.41316411E+03 E0= -.41314161E+03  EK= 0.29776E+00 SP= 0.00E+00 SK= 0.00E+00
       N       E                     dE             d eps       ncg     rms          rms(c)
RMM:   1    -0.413161114037E+03    0.29928E-02   -0.97414E+00  4184   0.649E-01    0.906E-01
RMM:   2    -0.413167600572E+03   -0.64865E-02   -0.11753E-01  3841   0.892E-02    0.642E-01
RMM:   3    -0.413164868402E+03    0.27322E-02   -0.11754E-02  4804   0.405E-02    0.116E-01
RMM:   4    -0.413186271337E+03   -0.21403E-01   -0.21964E-02  5177   0.124E-01    0.613E-01
RMM:   5    -0.413164511640E+03    0.21760E-01   -0.10596E-02  4837   0.102E-01    0.443E-02
RMM:   6    -0.413164660094E+03   -0.14845E-03   -0.18674E-03  5798   0.420E-02    0.302E-02
RMM:   7    -0.413164658031E+03    0.20628E-05   -0.34420E-04  5658   0.176E-02    0.186E-02
RMM:   8    -0.413164650685E+03    0.73453E-05   -0.48792E-05  4970   0.775E-03    0.862E-03
RMM:   9    -0.413164649778E+03    0.90784E-06   -0.97548E-06  3553   0.352E-03
    3 T=    61. E= -.41286672E+03 F= -.41316465E+03 E0= -.41314215E+03  EK= 0.29793E+00 SP= 0.00E+00 SK= 0.00E+00
       N       E                     dE             d eps       ncg     rms          rms(c)
RMM:   1    -0.413160580693E+03    0.40700E-02   -0.96631E+00  4221   0.651E-01    0.890E-01
RMM:   2    -0.413167377877E+03   -0.67972E-02   -0.11695E-01  4349   0.912E-02    0.636E-01
RMM:   3    -0.413173125051E+03   -0.57472E-02   -0.18362E-02  5196   0.929E-02    0.407E-01
RMM:   4    -0.413181738780E+03   -0.86137E-02   -0.35238E-02  5094   0.163E-01    0.546E-01
RMM:   5    -0.413164487295E+03    0.17251E-01   -0.59034E-03  4638   0.909E-02    0.593E-02
RMM:   6    -0.413164412474E+03    0.74821E-04   -0.12335E-03  5285   0.359E-02    0.294E-02
RMM:   7    -0.413164435581E+03   -0.23107E-04   -0.29758E-04  5977   0.168E-02    0.184E-02
RMM:   8    -0.413164431772E+03    0.38095E-05   -0.57344E-05  5166   0.888E-03    0.737E-03
RMM:   9    -0.413164430542E+03    0.12298E-05   -0.10659E-05  4003   0.411E-03    0.373E-03
RMM:  10    -0.413164431621E+03   -0.10793E-05   -0.12747E-06  2526   0.200E-03    0.234E-03
RMM:  11    -0.413164433720E+03   -0.20987E-05   -0.11943E-06  2523   0.175E-03    0.142E-03
RMM:  12    -0.413164434907E+03   -0.11870E-05   -0.64383E-07  2474   0.128E-03    0.525E-04
RMM:  13    -0.413164435603E+03   -0.69569E-06   -0.31716E-07  1774   0.866E-04
    4 T=    61. E= -.41286655E+03 F= -.41316444E+03 E0= -.41314195E+03  EK= 0.29789E+00 SP= 0.00E+00 SK= 0.00E+00
       N       E                     dE             d eps       ncg     rms          rms(c)
RMM:   1    -0.413160576830E+03    0.38581E-02   -0.97185E+00  4236   0.657E-01    0.883E-01
RMM:   2    -0.413167887482E+03   -0.73107E-02   -0.11916E-01  4087   0.916E-02    0.646E-01
RMM:   3    -0.413165002813E+03    0.28847E-02   -0.12160E-02  4892   0.451E-02    0.118E-01
RMM:   4    -0.413194769131E+03   -0.29766E-01   -0.31038E-02  5154   0.147E-01    0.720E-01
RMM:   5    -0.413164396342E+03    0.30373E-01   -0.14485E-02  4809   0.120E-01    0.473E-02
RMM:   6    -0.413164599496E+03   -0.20315E-03   -0.25544E-03  5761   0.488E-02    0.308E-02
RMM:   7    -0.413164609290E+03   -0.97939E-05   -0.40587E-04  5756   0.181E-02    0.196E-02
RMM:   8    -0.413164609285E+03    0.53733E-08   -0.59500E-05  5036   0.821E-03    0.902E-03
RMM:   9    -0.413164611036E+03   -0.17513E-05   -0.12010E-05  3814   0.391E-03    0.675E-03
RMM:  10    -0.413164615227E+03   -0.41904E-05   -0.17963E-06  2573   0.210E-03    0.430E-03
RMM:  11    -0.413164619573E+03   -0.43469E-05   -0.13381E-06  2537   0.180E-03    0.219E-03
RMM:  12    -0.413164625388E+03   -0.58144E-05   -0.17049E-06  2581   0.188E-03    0.923E-04
RMM:  13    -0.413164626456E+03   -0.10681E-05   -0.47219E-07  2319   0.119E-03    0.589E-04
RMM:  14    -0.413164626424E+03    0.32189E-07   -0.21197E-07  1748   0.808E-04
    5 T=    61. E= -.41286660E+03 F= -.41316463E+03 E0= -.41314215E+03  EK= 0.29803E+00 SP= 0.00E+00 SK= 0.00E+00
       N       E                     dE             d eps       ncg     rms          rms(c)
RMM:   1    -0.413161469211E+03    0.31572E-02   -0.97416E+00  4245   0.663E-01    0.902E-01
RMM:   2    -0.413167910561E+03   -0.64414E-02   -0.11781E-01  4066   0.917E-02    0.644E-01
RMM:   3    -0.413165281330E+03    0.26292E-02   -0.11851E-02  4744   0.427E-02    0.113E-01
RMM:   4    -0.413186616363E+03   -0.21335E-01   -0.21728E-02  5153   0.123E-01    0.612E-01
RMM:   5    -0.413164924002E+03    0.21692E-01   -0.10555E-02  4820   0.102E-01    0.440E-02
RMM:   6    -0.413165073103E+03   -0.14910E-03   -0.18604E-03  5758   0.416E-02    0.300E-02
RMM:   7    -0.413165070665E+03    0.24377E-05   -0.33807E-04  5604   0.174E-02    0.185E-02
RMM:   8    -0.413165063696E+03    0.69697E-05   -0.48056E-05  4948   0.769E-03    0.860E-03
RMM:   9    -0.413165062693E+03    0.10022E-05   -0.93883E-06  3517   0.349E-03    0.661E-03
RMM:  10    -0.413165063311E+03   -0.61737E-06   -0.15702E-06  2542   0.208E-03
    6 T=    61. E= -.41286675E+03 F= -.41316506E+03 E0= -.41314260E+03  EK= 0.29832E+00 SP= 0.00E+00 SK= 0.00E+00
       N       E                     dE             d eps       ncg     rms          rms(c)
RMM:   1    -0.413161124984E+03    0.39377E-02   -0.96900E+00  4257   0.664E-01    0.897E-01
RMM:   2    -0.413167603889E+03   -0.64789E-02   -0.11720E-01  4175   0.902E-02    0.637E-01
RMM:   3    -0.413167883749E+03   -0.27986E-03   -0.13787E-02  5106   0.657E-02    0.254E-01
RMM:   4    -0.413197864390E+03   -0.29981E-01   -0.43093E-02  5122   0.175E-01    0.750E-01
RMM:   5    -0.413164733105E+03    0.33131E-01   -0.14066E-02  4754   0.124E-01    0.595E-02
RMM:   6    -0.413164831085E+03   -0.97980E-04   -0.25138E-03  5580   0.499E-02    0.306E-02
RMM:   7    -0.413164851278E+03   -0.20193E-04   -0.40498E-04  6019   0.174E-02    0.187E-02
RMM:   8    -0.413164848361E+03    0.29178E-05   -0.68920E-05  5228   0.908E-03    0.812E-03
RMM:   9    -0.413164845055E+03    0.33054E-05   -0.99996E-06  3517   0.374E-03    0.421E-03
RMM:  10    -0.413164845107E+03   -0.51929E-07   -0.23740E-06  2608   0.225E-03
    7 T=    61. E= -.41286641E+03 F= -.41316485E+03 E0= -.41314240E+03  EK= 0.29844E+00 SP= 0.00E+00 SK= 0.00E+00
       N       E                     dE             d eps       ncg     rms          rms(c)
RMM:   1    -0.413161325493E+03    0.35196E-02   -0.97039E+00  4265   0.669E-01    0.881E-01
RMM:   2    -0.413168609402E+03   -0.72839E-02   -0.11871E-01  4096   0.913E-02    0.644E-01
RMM:   3    -0.413166212391E+03    0.23970E-02   -0.12386E-02  4993   0.504E-02    0.149E-01
RMM:   4    -0.413204994549E+03   -0.38782E-01   -0.42425E-02  5137   0.172E-01    0.821E-01
RMM:   5    -0.413165131907E+03    0.39863E-01   -0.18732E-02  4797   0.137E-01    0.526E-02
RMM:   6    -0.413165359058E+03   -0.22715E-03   -0.32228E-03  5753   0.554E-02    0.318E-02
RMM:   7    -0.413165372895E+03   -0.13838E-04   -0.48241E-04  5870   0.191E-02    0.208E-02
RMM:   8    -0.413165372961E+03   -0.65924E-07   -0.73232E-05  5225   0.891E-03    0.964E-03
RMM:   9    -0.413165372700E+03    0.26087E-06   -0.14222E-05  4026   0.421E-03    0.645E-03
RMM:  10    -0.413165375858E+03   -0.31576E-05   -0.23412E-06  2610   0.221E-03    0.419E-03
RMM:  11    -0.413165378624E+03   -0.27657E-05   -0.11864E-06  2525   0.171E-03    0.228E-03
RMM:  12    -0.413165382575E+03   -0.39517E-05   -0.17003E-06  2570   0.189E-03    0.870E-04
RMM:  13    -0.413165383820E+03   -0.12442E-05   -0.62778E-07  2366   0.128E-03    0.711E-04
RMM:  14    -0.413165383601E+03    0.21854E-06   -0.24634E-07  1877   0.857E-04
    8 T=    61. E= -.41286658E+03 F= -.41316538E+03 E0= -.41314295E+03  EK= 0.29880E+00 SP= 0.00E+00 SK= 0.00E+00
       N       E                     dE             d eps       ncg     rms          rms(c)
RMM:   1    -0.413161733595E+03    0.36502E-02   -0.97493E+00  4279   0.676E-01    0.897E-01
RMM:   2    -0.413168798213E+03   -0.70646E-02   -0.11844E-01  4177   0.927E-02    0.647E-01
RMM:   3    -0.413165819582E+03    0.29786E-02   -0.11988E-02  4783   0.432E-02    0.112E-01
RMM:   4    -0.413188844384E+03   -0.23025E-01   -0.23602E-02  5146   0.128E-01    0.635E-01
RMM:   5    -0.413165405101E+03    0.23439E-01   -0.11385E-02  4811   0.105E-01    0.443E-02
RMM:   6    -0.413165566734E+03   -0.16163E-03   -0.20180E-03  5789   0.429E-02    0.293E-02
RMM:   7    -0.413165569950E+03   -0.32164E-05   -0.33498E-04  5641   0.173E-02    0.186E-02
RMM:   8    -0.413165563085E+03    0.68653E-05   -0.54578E-05  4957   0.805E-03    0.900E-03
RMM:   9    -0.413165561727E+03    0.13582E-05   -0.10836E-05  3722   0.375E-03    0.694E-03
RMM:  10    -0.413165562491E+03   -0.76392E-06   -0.15937E-06  2546   0.211E-03
    9 T=    61. E= -.41286654E+03 F= -.41316556E+03 E0= -.41314315E+03  EK= 0.29902E+00 SP= 0.00E+00 SK= 0.00E+00
       N       E                     dE             d eps       ncg     rms          rms(c)
RMM:   1    -0.413162146477E+03    0.34152E-02   -0.97214E+00  4297   0.679E-01    0.904E-01
RMM:   2    -0.413168619810E+03   -0.64733E-02   -0.11719E-01  4272   0.928E-02    0.639E-01
RMM:   3    -0.413169426416E+03   -0.80661E-03   -0.14476E-02  5106   0.709E-02    0.279E-01
RMM:   4    -0.413195383150E+03   -0.25957E-01   -0.41286E-02  5102   0.172E-01    0.712E-01
RMM:   5    -0.413165576578E+03    0.29807E-01   -0.12287E-02  4727   0.117E-01    0.589E-02
RMM:   6    -0.413165648286E+03   -0.71708E-04   -0.22462E-03  5551   0.472E-02    0.307E-02
RMM:   7    -0.413165663378E+03   -0.15091E-04   -0.37374E-04  5997   0.171E-02    0.186E-02
RMM:   8    -0.413165658569E+03    0.48085E-05   -0.66414E-05  5198   0.900E-03    0.798E-03
RMM:   9    -0.413165653904E+03    0.46654E-05   -0.92251E-06  3448   0.367E-03    0.407E-03
RMM:  10    -0.413165652875E+03    0.10283E-05   -0.21355E-06  2587   0.220E-03    0.271E-03
RMM:  11    -0.413165651161E+03    0.17147E-05   -0.13158E-06  2521   0.181E-03    0.148E-03
RMM:  12    -0.413165649346E+03    0.18146E-05   -0.76275E-07  2481   0.141E-03    0.528E-04
RMM:  13    -0.413165648350E+03    0.99623E-06   -0.37356E-07  2078   0.998E-04
   10 T=    61. E= -.41286646E+03 F= -.41316565E+03 E0= -.41314326E+03  EK= 0.29918E+00 SP= 0.00E+00 SK= 0.00E+00
       N       E                     dE             d eps       ncg     rms          rms(c)
RMM:   1    -0.413163984630E+03    0.16647E-02   -0.97006E+00  4295   0.703E-01    0.882E-01
RMM:   2    -0.413169575920E+03   -0.55913E-02   -0.12003E-01  4218   0.928E-02    0.642E-01
RMM:   3    -0.413166876609E+03    0.26993E-02   -0.11859E-02  4913   0.455E-02    0.127E-01
RMM:   4    -0.413198782265E+03   -0.31906E-01   -0.33569E-02  5136   0.152E-01    0.745E-01
RMM:   5    -0.413166210401E+03    0.32572E-01   -0.15672E-02  4797   0.124E-01    0.484E-02
RMM:   6    -0.413166416118E+03   -0.20572E-03   -0.27136E-03  5749   0.502E-02    0.315E-02
RMM:   7    -0.413166421417E+03   -0.52985E-05   -0.42449E-04  5734   0.187E-02    0.201E-02
RMM:   8    -0.413166417045E+03    0.43721E-05   -0.65013E-05  5096   0.854E-03    0.953E-03
RMM:   9    -0.413166415363E+03    0.16821E-05   -0.13229E-05  3965   0.410E-03    0.701E-03
RMM:  10    -0.413166416528E+03   -0.11650E-05   -0.18883E-06  2582   0.213E-03    0.445E-03
RMM:  11    -0.413166417731E+03   -0.12035E-05   -0.12984E-06  2521   0.178E-03    0.236E-03
RMM:  12    -0.413166419321E+03   -0.15896E-05   -0.17444E-06  2573   0.193E-03    0.946E-04
RMM:  13    -0.413166419565E+03   -0.24396E-06   -0.50869E-07  2340   0.124E-03
   11 T=    61. E= -.41286680E+03 F= -.41316642E+03 E0= -.41314406E+03  EK= 0.29962E+00 SP= 0.00E+00 SK= 0.00E+00
       N       E                     dE             d eps       ncg     rms          rms(c)
RMM:   1    -0.413162601048E+03    0.38183E-02   -0.97563E+00  4298   0.688E-01    0.893E-01
RMM:   2    -0.413169568192E+03   -0.69671E-02   -0.11914E-01  4221   0.928E-02    0.649E-01
RMM:   3    -0.413166704794E+03    0.28634E-02   -0.12131E-02  4823   0.442E-02    0.113E-01
RMM:   4    -0.413192615498E+03   -0.25911E-01   -0.26856E-02  5139   0.136E-01    0.673E-01
RMM:   5    -0.413166214944E+03    0.26401E-01   -0.12793E-02  4802   0.112E-01    0.453E-02
RMM:   6    -0.413166390892E+03   -0.17595E-03   -0.22638E-03  5789   0.453E-02    0.294E-02
RMM:   7    -0.413166398283E+03   -0.73911E-05   -0.34745E-04  5703   0.175E-02    0.187E-02
RMM:   8    -0.413166392556E+03    0.57272E-05   -0.61978E-05  4991   0.836E-03    0.940E-03
RMM:   9    -0.413166390781E+03    0.17747E-05   -0.12202E-05  3928   0.400E-03    0.716E-03
RMM:  10    -0.413166391627E+03   -0.84595E-06   -0.16708E-06  2555   0.211E-03
   12 T=    61. E= -.41286650E+03 F= -.41316639E+03 E0= -.41314406E+03  EK= 0.29989E+00 SP= 0.00E+00 SK= 0.00E+00
       N       E                     dE             d eps       ncg     rms          rms(c)
RMM:   1    -0.413163558454E+03    0.28323E-02   -0.97523E+00  4301   0.693E-01    0.909E-01
RMM:   2    -0.413169607359E+03   -0.60489E-02   -0.11772E-01  4288   0.929E-02    0.642E-01
RMM:   3    -0.413171582211E+03   -0.19749E-02   -0.15415E-02  5131   0.754E-02    0.307E-01
RMM:   4    -0.413193455234E+03   -0.21873E-01   -0.39904E-02  5093   0.169E-01    0.674E-01
RMM:   5    -0.413166860543E+03    0.26595E-01   -0.10534E-02  4703   0.110E-01    0.583E-02
RMM:   6    -0.413166905776E+03   -0.45234E-04   -0.19997E-03  5496   0.443E-02    0.306E-02
RMM:   7    -0.413166917529E+03   -0.11752E-04   -0.34972E-04  5992   0.168E-02    0.186E-02
RMM:   8    -0.413166911730E+03    0.57990E-05   -0.64611E-05  5167   0.900E-03    0.786E-03
RMM:   9    -0.413166905970E+03    0.57598E-05   -0.85840E-06  3401   0.368E-03    0.395E-03
RMM:  10    -0.413166904337E+03    0.16323E-05   -0.19235E-06  2564   0.216E-03    0.257E-03
RMM:  11    -0.413166901391E+03    0.29469E-05   -0.13132E-06  2513   0.182E-03    0.148E-03
RMM:  12    -0.413166898817E+03    0.25732E-05   -0.71297E-07  2463   0.139E-03    0.543E-04
RMM:  13    -0.413166897243E+03    0.15744E-05   -0.36386E-07  2069   0.989E-04    0.309E-04
RMM:  14    -0.413166895813E+03    0.14297E-05   -0.21922E-07  1600   0.796E-04    0.214E-04
RMM:  15    -0.413166893543E+03    0.22700E-05   -0.20340E-07  1457   0.749E-04    0.122E-04
RMM:  16    -0.413166891485E+03    0.20583E-05   -0.15958E-07  1390   0.696E-04    0.121E-04
RMM:  17    -0.413166889149E+03    0.23358E-05   -0.15064E-07  1343   0.670E-04    0.670E-05
RMM:  18    -0.413166888019E+03    0.11301E-05   -0.72020E-08  1000   0.582E-04    0.387E-05
RMM:  19    -0.413166887264E+03    0.75500E-06   -0.44661E-08   889   0.551E-04
   13 T=    61. E= -.41286650E+03 F= -.41316689E+03 E0= -.41314459E+03  EK= 0.30039E+00 SP= 0.00E+00 SK= 0.00E+00
       N       E                     dE             d eps       ncg     rms          rms(c)
RMM:   1    -0.413163573443E+03    0.33146E-02   -0.96874E+00  4293   0.696E-01    0.885E-01
RMM:   2    -0.413170556077E+03   -0.69826E-02   -0.11823E-01  4231   0.945E-02    0.640E-01
RMM:   3    -0.413168126548E+03    0.24295E-02   -0.12008E-02  4913   0.466E-02    0.134E-01
RMM:   4    -0.413202281915E+03   -0.34155E-01   -0.36389E-02  5127   0.158E-01    0.770E-01
RMM:   5    -0.413167367068E+03    0.34915E-01   -0.16703E-02  4788   0.128E-01    0.499E-02
RMM:   6    -0.413167583701E+03   -0.21663E-03   -0.29282E-03  5747   0.519E-02    0.324E-02
RMM:   7    -0.413167587041E+03   -0.33401E-05   -0.44606E-04  5716   0.189E-02    0.208E-02
RMM:   8    -0.413167581048E+03    0.59929E-05   -0.67668E-05  5139   0.873E-03    0.981E-03
RMM:   9    -0.413167578026E+03    0.30221E-05   -0.13860E-05  4030   0.418E-03    0.706E-03
RMM:  10    -0.413167577848E+03    0.17839E-06   -0.19511E-06  2570   0.215E-03
   14 T=    61. E= -.41286660E+03 F= -.41316758E+03 E0= -.41314531E+03  EK= 0.30098E+00 SP= 0.00E+00 SK= 0.00E+00
       N       E                     dE             d eps       ncg     rms          rms(c)
RMM:   1    -0.413163790895E+03    0.37871E-02   -0.97756E+00  4304   0.703E-01    0.891E-01
RMM:   2    -0.413170997403E+03   -0.72065E-02   -0.11979E-01  4299   0.935E-02    0.651E-01
RMM:   3    -0.413173631533E+03   -0.26341E-02   -0.16787E-02  5132   0.824E-02    0.339E-01
RMM:   4    -0.413193748100E+03   -0.20117E-01   -0.42145E-02  5079   0.175E-01    0.667E-01
RMM:   5    -0.413167561314E+03    0.26187E-01   -0.99730E-03  4678   0.109E-01    0.581E-02
RMM:   6    -0.413167592117E+03   -0.30803E-04   -0.19177E-03  5457   0.431E-02    0.288E-02
RMM:   7    -0.413167613163E+03   -0.21046E-04   -0.33314E-04  5980   0.166E-02    0.179E-02
RMM:   8    -0.413167613488E+03   -0.32572E-06   -0.64153E-05  5165   0.893E-03    0.756E-03
RMM:   9    -0.413167611686E+03    0.18025E-05   -0.86160E-06  3401   0.373E-03    0.376E-03
RMM:  10    -0.413167612741E+03   -0.10553E-05   -0.17309E-06  2548   0.209E-03    0.243E-03
RMM:  11    -0.413167614229E+03   -0.14880E-05   -0.14698E-06  2538   0.184E-03    0.153E-03
RMM:  12    -0.413167614599E+03   -0.36982E-06   -0.68287E-07  2462   0.137E-03
   15 T=    61. E= -.41286620E+03 F= -.41316761E+03 E0= -.41314538E+03  EK= 0.30141E+00 SP= 0.00E+00 SK= 0.00E+00
       N       E                     dE             d eps       ncg     rms          rms(c)
RMM:   1    -0.413165295892E+03    0.23183E-02   -0.97852E+00  4299   0.703E-01    0.911E-01
RMM:   2    -0.413171695249E+03   -0.63994E-02   -0.11839E-01  4247   0.926E-02    0.645E-01
RMM:   3    -0.413169266461E+03    0.24288E-02   -0.12224E-02  4939   0.469E-02    0.141E-01
RMM:   4    -0.413204164340E+03   -0.34898E-01   -0.37246E-02  5133   0.160E-01    0.778E-01
RMM:   5    -0.413168472659E+03    0.35692E-01   -0.17214E-02  4791   0.130E-01    0.506E-02
RMM:   6    -0.413168690021E+03   -0.21736E-03   -0.29900E-03  5761   0.529E-02    0.335E-02
RMM:   7    -0.413168688321E+03    0.17000E-05   -0.45618E-04  5747   0.196E-02    0.213E-02
RMM:   8    -0.413168678197E+03    0.10124E-04   -0.73097E-05  5141   0.911E-03    0.105E-02
RMM:   9    -0.413168671833E+03    0.63635E-05   -0.14439E-05  4077   0.431E-03    0.746E-03
RMM:  10    -0.413168668077E+03    0.37562E-05   -0.20805E-06  2580   0.223E-03    0.470E-03
RMM:  11    -0.413168665108E+03    0.29690E-05   -0.12460E-06  2514   0.177E-03    0.264E-03
RMM:  12    -0.413168659693E+03    0.54155E-05   -0.19131E-06  2593   0.206E-03    0.105E-03
RMM:  13    -0.413168657369E+03    0.23233E-05   -0.59233E-07  2393   0.134E-03    0.800E-04
RMM:  14    -0.413168657573E+03   -0.20349E-06   -0.24548E-07  1932   0.873E-04
   16 T=    62. E= -.41286654E+03 F= -.41316866E+03 E0= -.41314646E+03  EK= 0.30212E+00 SP= 0.00E+00 SK= 0.00E+00
       N       E                     dE             d eps       ncg     rms          rms(c)
RMM:   1    -0.413165371131E+03    0.32862E-02   -0.97104E+00  4297   0.706E-01    0.892E-01
RMM:   2    -0.413172257882E+03   -0.68868E-02   -0.11823E-01  4244   0.914E-02    0.640E-01
RMM:   3    -0.413169464998E+03    0.27929E-02   -0.11807E-02  4862   0.431E-02    0.122E-01
RMM:   4    -0.413196717462E+03   -0.27252E-01   -0.28454E-02  5134   0.140E-01    0.689E-01
RMM:   5    -0.413168931628E+03    0.27786E-01   -0.13523E-02  4794   0.115E-01    0.466E-02
RMM:   6    -0.413169108282E+03   -0.17665E-03   -0.24095E-03  5805   0.466E-02    0.305E-02
RMM:   7    -0.413169110696E+03   -0.24135E-05   -0.36181E-04  5691   0.179E-02    0.192E-02
RMM:   8    -0.413169101460E+03    0.92355E-05   -0.65806E-05  5019   0.859E-03    0.984E-03
RMM:   9    -0.413169096634E+03    0.48267E-05   -0.12884E-05  4006   0.412E-03    0.741E-03
RMM:  10    -0.413169094338E+03    0.22957E-05   -0.17597E-06  2558   0.214E-03    0.464E-03
RMM:  11    -0.413169092143E+03    0.21950E-05   -0.13030E-06  2517   0.182E-03    0.249E-03
RMM:  12    -0.413169088663E+03    0.34801E-05   -0.15856E-06  2547   0.192E-03    0.923E-04
RMM:  13    -0.413169087358E+03    0.13046E-05   -0.48849E-07  2310   0.123E-03    0.596E-04
RMM:  14    -0.413169087224E+03    0.13421E-06   -0.22439E-07  1833   0.831E-04
   17 T=    62. E= -.41286647E+03 F= -.41316909E+03 E0= -.41314693E+03  EK= 0.30262E+00 SP= 0.00E+00 SK= 0.00E+00
       N       E                     dE             d eps       ncg     rms          rms(c)
RMM:   1    -0.413165755713E+03    0.33316E-02   -0.97868E+00  4295   0.713E-01    0.889E-01
RMM:   2    -0.413172954946E+03   -0.71992E-02   -0.12049E-01  4255   0.931E-02    0.651E-01
RMM:   3    -0.413169924372E+03    0.30306E-02   -0.12497E-02  4863   0.451E-02    0.115E-01
RMM:   4    -0.413198398345E+03   -0.28474E-01   -0.29799E-02  5128   0.143E-01    0.704E-01
RMM:   5    -0.413169368870E+03    0.29029E-01   -0.14107E-02  4788   0.117E-01    0.467E-02
RMM:   6    -0.413169550232E+03   -0.18136E-03   -0.24698E-03  5782   0.476E-02    0.304E-02
RMM:   7    -0.413169555409E+03   -0.51771E-05   -0.38572E-04  5682   0.181E-02    0.195E-02
RMM:   8    -0.413169549682E+03    0.57265E-05   -0.63979E-05  5043   0.851E-03    0.954E-03
RMM:   9    -0.413169547033E+03    0.26493E-05   -0.12758E-05  3932   0.406E-03    0.711E-03
RMM:  10    -0.413169547211E+03   -0.17810E-06   -0.17448E-06  2556   0.211E-03
   18 T=    62. E= -.41286636E+03 F= -.41316955E+03 E0= -.41314743E+03  EK= 0.30319E+00 SP= 0.00E+00 SK= 0.00E+00
       N       E                     dE             d eps       ncg     rms          rms(c)
RMM:   1    -0.413167369038E+03    0.21780E-02   -0.98099E+00  4301   0.718E-01    0.910E-01
RMM:   2    -0.413173837949E+03   -0.64689E-02   -0.11931E-01  4310   0.948E-02    0.649E-01
RMM:   3    -0.413175597380E+03   -0.17594E-02   -0.15680E-02  5121   0.768E-02    0.309E-01
RMM:   4    -0.413198550319E+03   -0.22953E-01   -0.41592E-02  5081   0.173E-01    0.688E-01
RMM:   5    -0.413170747400E+03    0.27803E-01   -0.11047E-02  4692   0.113E-01    0.579E-02
RMM:   6    -0.413170797161E+03   -0.49761E-04   -0.20951E-03  5514   0.453E-02    0.306E-02
RMM:   7    -0.413170805739E+03   -0.85777E-05   -0.35636E-04  5969   0.169E-02    0.189E-02
RMM:   8    -0.413170799421E+03    0.63180E-05   -0.66500E-05  5161   0.906E-03    0.802E-03
RMM:   9    -0.413170792932E+03    0.64889E-05   -0.90637E-06  3453   0.375E-03    0.401E-03
RMM:  10    -0.413170790622E+03    0.23094E-05   -0.19652E-06  2570   0.216E-03    0.263E-03
RMM:  11    -0.413170786776E+03    0.38466E-05   -0.12479E-06  2510   0.178E-03    0.147E-03
RMM:  12    -0.413170783309E+03    0.34669E-05   -0.67080E-07  2456   0.138E-03    0.519E-04
RMM:  13    -0.413170781307E+03    0.20020E-05   -0.33193E-07  2050   0.973E-04    0.297E-04
RMM:  14    -0.413170779519E+03    0.17881E-05   -0.19167E-07  1555   0.776E-04    0.206E-04
RMM:  15    -0.413170776726E+03    0.27927E-05   -0.15843E-07  1384   0.721E-04    0.113E-04
RMM:  16    -0.413170774191E+03    0.25351E-05   -0.12543E-07  1314   0.675E-04    0.117E-04
RMM:  17    -0.413170771314E+03    0.28769E-05   -0.11321E-07  1302   0.655E-04    0.677E-05
RMM:  18    -0.413170769647E+03    0.16666E-05   -0.63694E-08  1009   0.584E-04    0.332E-05
RMM:  19    -0.413170768822E+03    0.82540E-06   -0.34760E-08   836   0.549E-04
   19 T=    62. E= -.41286667E+03 F= -.41317077E+03 E0= -.41314869E+03  EK= 0.30410E+00 SP= 0.00E+00 SK= 0.00E+00
       N       E                     dE             d eps       ncg     rms          rms(c)
RMM:   1    -0.413168531696E+03    0.22380E-02   -0.97642E+00  4297   0.728E-01    0.900E-01
RMM:   2    -0.413173961810E+03   -0.54301E-02   -0.11823E-01  4248   0.948E-02    0.642E-01
RMM:   3    -0.413171792154E+03    0.21697E-02   -0.12240E-02  4906   0.489E-02    0.142E-01
RMM:   4    -0.413207291915E+03   -0.35500E-01   -0.38132E-02  5125   0.162E-01    0.785E-01
RMM:   5    -0.413170966827E+03    0.36325E-01   -0.17483E-02  4782   0.131E-01    0.512E-02
RMM:   6    -0.413171177257E+03   -0.21043E-03   -0.30765E-03  5744   0.534E-02    0.336E-02
RMM:   7    -0.413171175450E+03    0.18067E-05   -0.46921E-04  5715   0.196E-02    0.215E-02
RMM:   8    -0.413171165367E+03    0.10083E-04   -0.74161E-05  5167   0.916E-03    0.105E-02
RMM:   9    -0.413171158863E+03    0.65039E-05   -0.14986E-05  4131   0.437E-03    0.745E-03
RMM:  10    -0.413171155223E+03    0.36401E-05   -0.21072E-06  2582   0.222E-03    0.472E-03
RMM:  11    -0.413171152412E+03    0.28110E-05   -0.12021E-06  2511   0.175E-03    0.269E-03
RMM:  12    -0.413171147384E+03    0.50284E-05   -0.17552E-06  2563   0.203E-03    0.103E-03
RMM:  13    -0.413171145125E+03    0.22592E-05   -0.57818E-07  2380   0.134E-03    0.821E-04
RMM:  14    -0.413171145421E+03   -0.29682E-06   -0.25135E-07  1947   0.881E-04
   20 T=    62. E= -.41286632E+03 F= -.41317115E+03 E0= -.41314911E+03  EK= 0.30483E+00 SP= 0.00E+00 SK= 0.00E+00
       N       E                     dE             d eps       ncg     rms          rms(c)
RMM:   1    -0.413168616849E+03    0.25283E-02   -0.98082E+00  4294   0.730E-01    0.889E-01
RMM:   2    -0.413175617612E+03   -0.70008E-02   -0.12131E-01  4271   0.953E-02    0.652E-01
RMM:   3    -0.413172642838E+03    0.29748E-02   -0.12494E-02  4826   0.463E-02    0.114E-01
RMM:   4    -0.413199924880E+03   -0.27282E-01   -0.28469E-02  5129   0.140E-01    0.689E-01
RMM:   5    -0.413172129298E+03    0.27796E-01   -0.13579E-02  4796   0.115E-01    0.459E-02
RMM:   6    -0.413172295079E+03   -0.16578E-03   -0.23594E-03  5807   0.463E-02    0.291E-02
RMM:   7    -0.413172301821E+03   -0.67427E-05   -0.33457E-04  5691   0.173E-02    0.179E-02
RMM:   8    -0.413172295803E+03    0.60183E-05   -0.67775E-05  5015   0.857E-03    0.986E-03
RMM:   9    -0.413172291570E+03    0.42329E-05   -0.13291E-05  4082   0.421E-03    0.731E-03
RMM:  10    -0.413172290839E+03    0.73071E-06   -0.17492E-06  2554   0.213E-03
   21 T=    62. E= -.41286648E+03 F= -.41317229E+03 E0= -.41315030E+03  EK= 0.30581E+00 SP= 0.00E+00 SK= 0.00E+00
       N       E                     dE             d eps       ncg     rms          rms(c)
RMM:   1    -0.413173343373E+03   -0.10518E-02   -0.98874E+00  4297   0.770E-01    0.908E-01
RMM:   2    -0.413176577863E+03   -0.32345E-02   -0.12371E-01  4318   0.989E-02    0.653E-01
RMM:   3    -0.413177949476E+03   -0.13716E-02   -0.15571E-02  5111   0.763E-02    0.304E-01
RMM:   4    -0.413203422075E+03   -0.25473E-01   -0.44077E-02  5093   0.177E-01    0.715E-01
RMM:   5    -0.413173255319E+03    0.30167E-01   -0.12192E-02  4697   0.117E-01    0.581E-02
RMM:   6    -0.413173322448E+03   -0.67128E-04   -0.22741E-03  5544   0.474E-02    0.307E-02
RMM:   7    -0.413173334118E+03   -0.11671E-04   -0.37533E-04  5960   0.173E-02    0.192E-02
RMM:   8    -0.413173329275E+03    0.48438E-05   -0.70541E-05  5175   0.924E-03    0.827E-03
RMM:   9    -0.413173322782E+03    0.64921E-05   -0.10141E-05  3578   0.389E-03    0.411E-03
RMM:  10    -0.413173320554E+03    0.22284E-05   -0.21016E-06  2582   0.218E-03    0.274E-03
RMM:  11    -0.413173316932E+03    0.36219E-05   -0.11975E-06  2500   0.177E-03    0.150E-03
RMM:  12    -0.413173313375E+03    0.35569E-05   -0.69396E-07  2458   0.138E-03    0.494E-04
RMM:  13    -0.413173311389E+03    0.19858E-05   -0.33954E-07  2047   0.981E-04    0.288E-04
RMM:  14    -0.413173309689E+03    0.17007E-05   -0.19383E-07  1572   0.778E-04    0.200E-04
RMM:  15    -0.413173306990E+03    0.26987E-05   -0.14933E-07  1355   0.713E-04    0.109E-04
RMM:  16    -0.413173304380E+03    0.26103E-05   -0.11846E-07  1287   0.675E-04    0.118E-04
RMM:  17    -0.413173301691E+03    0.26892E-05   -0.97516E-08  1230   0.644E-04    0.658E-05
RMM:  18    -0.413173299582E+03    0.21085E-05   -0.66052E-08  1056   0.595E-04    0.282E-05
RMM:  19    -0.413173298765E+03    0.81695E-06   -0.33614E-08   840   0.551E-04
   22 T=    62. E= -.41286653E+03 F= -.41317330E+03 E0= -.41315136E+03  EK= 0.30676E+00 SP= 0.00E+00 SK= 0.00E+00
       N       E                     dE             d eps       ncg     rms          rms(c)
RMM:   1    -0.413170564641E+03    0.27349E-02   -0.98237E+00  4294   0.730E-01    0.910E-01
RMM:   2    -0.413177218254E+03   -0.66536E-02   -0.11977E-01  4275   0.959E-02    0.646E-01
RMM:   3    -0.413174571997E+03    0.26463E-02   -0.12352E-02  4894   0.481E-02    0.140E-01
RMM:   4    -0.413209254475E+03   -0.34682E-01   -0.37015E-02  5136   0.160E-01    0.775E-01
RMM:   5    -0.413173801702E+03    0.35453E-01   -0.17148E-02  4783   0.130E-01    0.511E-02
RMM:   6    -0.413174013216E+03   -0.21151E-03   -0.30767E-03  5777   0.530E-02    0.337E-02
RMM:   7    -0.413174012742E+03    0.47417E-06   -0.45506E-04  5700   0.197E-02    0.214E-02
RMM:   8    -0.413174001696E+03    0.11046E-04   -0.77997E-05  5155   0.935E-03    0.110E-02
RMM:   9    -0.413173993925E+03    0.77709E-05   -0.15487E-05  4190   0.449E-03    0.787E-03
RMM:  10    -0.413173989126E+03    0.47992E-05   -0.21244E-06  2586   0.227E-03    0.500E-03
RMM:  11    -0.413173985326E+03    0.37992E-05   -0.13119E-06  2521   0.182E-03    0.285E-03
RMM:  12    -0.413173978558E+03    0.67685E-05   -0.18336E-06  2561   0.211E-03    0.106E-03
RMM:  13    -0.413173975636E+03    0.29214E-05   -0.60582E-07  2375   0.138E-03    0.825E-04
RMM:  14    -0.413173975911E+03   -0.27505E-06   -0.26548E-07  1979   0.905E-04
   23 T=    63. E= -.41286631E+03 F= -.41317398E+03 E0= -.41315208E+03  EK= 0.30767E+00 SP= 0.00E+00 SK= 0.00E+00
       N       E                     dE             d eps       ncg     rms          rms(c)
RMM:   1    -0.413174628208E+03   -0.65257E-03   -0.98583E+00  4295   0.767E-01    0.890E-01
RMM:   2    -0.413179285358E+03   -0.46572E-02   -0.12809E-01  4274   0.102E-01    0.653E-01
RMM:   3    -0.413175813765E+03    0.34716E-02   -0.11938E-02  4719   0.442E-02    0.111E-01
RMM:   4    -0.413195632918E+03   -0.19819E-01   -0.20417E-02  5143   0.119E-01    0.590E-01
RMM:   5    -0.413175475608E+03    0.20157E-01   -0.10008E-02  4806   0.981E-02    0.431E-02
RMM:   6    -0.413175585440E+03   -0.10983E-03   -0.17547E-03  5826   0.392E-02    0.259E-02
RMM:   7    -0.413175589391E+03   -0.39506E-05   -0.20105E-04  5566   0.141E-02    0.121E-02
RMM:   8    -0.413175585451E+03    0.39397E-05   -0.34169E-05  4780   0.606E-03    0.828E-03
RMM:   9    -0.413175582898E+03    0.25537E-05   -0.69776E-06  3239   0.302E-03    0.611E-03
RMM:  10    -0.413175582067E+03    0.83074E-06   -0.14601E-06  2548   0.196E-03
   24 T=    63. E= -.41286660E+03 F= -.41317558E+03 E0= -.41315374E+03  EK= 0.30898E+00 SP= 0.00E+00 SK= 0.00E+00
       N       E                     dE             d eps       ncg     rms          rms(c)
RMM:   1    -0.413174600542E+03    0.98236E-03   -0.99243E+00  4300   0.769E-01    0.906E-01
RMM:   2    -0.413180180065E+03   -0.55795E-02   -0.12573E-01  4293   0.102E-01    0.658E-01
RMM:   3    -0.413177620121E+03    0.25599E-02   -0.12950E-02  4978   0.551E-02    0.166E-01
RMM:   4    -0.413219962727E+03   -0.42343E-01   -0.47286E-02  5127   0.181E-01    0.856E-01
RMM:   5    -0.413176343508E+03    0.43619E-01   -0.20574E-02  4787   0.143E-01    0.559E-02
RMM:   6    -0.413176547236E+03   -0.20373E-03   -0.34680E-03  5722   0.575E-02    0.335E-02
RMM:   7    -0.413176554876E+03   -0.76400E-05   -0.51390E-04  5840   0.198E-02    0.213E-02
RMM:   8    -0.413176547988E+03    0.68880E-05   -0.75514E-05  5245   0.916E-03    0.954E-03
RMM:   9    -0.413176542115E+03    0.58724E-05   -0.16148E-05  4180   0.440E-03    0.624E-03
RMM:  10    -0.413176538958E+03    0.31576E-05   -0.24074E-06  2594   0.227E-03    0.413E-03
RMM:  11    -0.413176536423E+03    0.25346E-05   -0.10702E-06  2503   0.166E-03    0.232E-03
RMM:  12    -0.413176531792E+03    0.46310E-05   -0.12659E-06  2513   0.177E-03    0.864E-04
RMM:  13    -0.413176529553E+03    0.22390E-05   -0.55772E-07  2336   0.126E-03    0.701E-04
RMM:  14    -0.413176529142E+03    0.41139E-06   -0.24681E-07  1911   0.870E-04
   25 T=    63. E= -.41286640E+03 F= -.41317653E+03 E0= -.41315473E+03  EK= 0.31013E+00 SP= 0.00E+00 SK= 0.00E+00
       N       E                     dE             d eps       ncg     rms          rms(c)
RMM:   1    -0.413174893299E+03    0.16363E-02   -0.99126E+00  4294   0.754E-01    0.919E-01
RMM:   2    -0.413180968871E+03   -0.60756E-02   -0.12116E-01  4274   0.997E-02    0.651E-01
RMM:   3    -0.413178128045E+03    0.28408E-02   -0.12418E-02  4708   0.467E-02    0.118E-01
RMM:   4    -0.413198712194E+03   -0.20584E-01   -0.21096E-02  5144   0.121E-01    0.601E-01
RMM:   5    -0.413177802748E+03    0.20909E-01   -0.10479E-02  4809   0.999E-02    0.446E-02
RMM:   6    -0.413177903436E+03   -0.10069E-03   -0.17702E-03  5811   0.399E-02    0.272E-02
RMM:   7    -0.413177898902E+03    0.45342E-05   -0.20942E-04  5539   0.147E-02    0.126E-02
RMM:   8    -0.413177890150E+03    0.87513E-05   -0.30552E-05  4625   0.578E-03    0.814E-03
RMM:   9    -0.413177884173E+03    0.59771E-05   -0.41008E-06  2785   0.252E-03    0.500E-03
RMM:  10    -0.413177880541E+03    0.36320E-05   -0.10626E-06  2477   0.166E-03    0.334E-03
RMM:  11    -0.413177871006E+03    0.95358E-05   -0.19052E-06  2564   0.222E-03    0.164E-03
RMM:  12    -0.413177867831E+03    0.31742E-05   -0.68760E-07  2391   0.145E-03    0.801E-04
RMM:  13    -0.413177866159E+03    0.16723E-05   -0.28052E-07  2009   0.933E-04    0.494E-04
RMM:  14    -0.413177865311E+03    0.84791E-06   -0.14456E-07  1440   0.720E-04
   26 T=    63. E= -.41286641E+03 F= -.41317787E+03 E0= -.41315612E+03  EK= 0.31146E+00 SP= 0.00E+00 SK= 0.00E+00
       N       E                     dE             d eps       ncg     rms          rms(c)
RMM:   1    -0.413181745429E+03   -0.38793E-02   -0.99392E+00  4292   0.817E-01    0.896E-01
RMM:   2    -0.413182841663E+03   -0.10962E-02   -0.13390E-01  4274   0.107E-01    0.654E-01
RMM:   3    -0.413179775426E+03    0.30662E-02   -0.11787E-02  4644   0.481E-02    0.120E-01
RMM:   4    -0.413198603095E+03   -0.18828E-01   -0.19269E-02  5149   0.116E-01    0.575E-01
RMM:   5    -0.413179518569E+03    0.19085E-01   -0.95754E-03  4819   0.954E-02    0.431E-02
RMM:   6    -0.413179609713E+03   -0.91144E-04   -0.16019E-03  5821   0.379E-02    0.262E-02
RMM:   7    -0.413179610191E+03   -0.47740E-06   -0.20092E-04  5552   0.144E-02    0.124E-02
RMM:   8    -0.413179605699E+03    0.44916E-05   -0.34668E-05  4794   0.617E-03    0.823E-03
RMM:   9    -0.413179602219E+03    0.34806E-05   -0.81880E-06  3484   0.324E-03    0.636E-03
RMM:  10    -0.413179600145E+03    0.20734E-05   -0.14625E-06  2537   0.206E-03    0.400E-03
RMM:  11    -0.413179596553E+03    0.35927E-05   -0.17212E-06  2555   0.205E-03    0.191E-03
RMM:  12    -0.413179592497E+03    0.40560E-05   -0.10689E-06  2471   0.168E-03    0.951E-04
RMM:  13    -0.413179591784E+03    0.71216E-06   -0.33297E-07  2189   0.105E-03
   27 T=    64. E= -.41286653E+03 F= -.41317959E+03 E0= -.41315789E+03  EK= 0.31306E+00 SP= 0.00E+00 SK= 0.00E+00
       N       E                     dE             d eps       ncg     rms          rms(c)
RMM:   1    -0.413178303978E+03    0.12885E-02   -0.10002E+01  4292   0.784E-01    0.907E-01
RMM:   2    -0.413184113532E+03   -0.58096E-02   -0.12517E-01  4273   0.104E-01    0.663E-01
RMM:   3    -0.413180805647E+03    0.33079E-02   -0.12917E-02  4464   0.483E-02    0.918E-02
RMM:   4    -0.413188705660E+03   -0.79000E-02   -0.81839E-03  5146   0.758E-02    0.375E-01
RMM:   5    -0.413180729049E+03    0.79766E-02   -0.40437E-03  4830   0.617E-02    0.389E-02
RMM:   6    -0.413180757467E+03   -0.28418E-04   -0.77932E-04  5819   0.257E-02    0.221E-02
RMM:   7    -0.413180762109E+03   -0.46416E-05   -0.19408E-04  5403   0.141E-02    0.161E-02
RMM:   8    -0.413180745970E+03    0.16138E-04   -0.22958E-05  4411   0.597E-03    0.686E-03
RMM:   9    -0.413180744562E+03    0.14084E-05   -0.51919E-06  3010   0.280E-03    0.484E-03
RMM:  10    -0.413180742471E+03    0.20913E-05   -0.14894E-06  2489   0.204E-03    0.267E-03
RMM:  11    -0.413180739943E+03    0.25273E-05   -0.91263E-07  2471   0.161E-03    0.134E-03
RMM:  12    -0.413180737612E+03    0.23313E-05   -0.46100E-07  2272   0.115E-03    0.657E-04
RMM:  13    -0.413180736352E+03    0.12598E-05   -0.23719E-07  1818   0.841E-04    0.290E-04
RMM:  14    -0.413180734622E+03    0.17307E-05   -0.14790E-07  1480   0.723E-04    0.208E-04
RMM:  15    -0.413180731473E+03    0.31488E-05   -0.11898E-07  1289   0.685E-04    0.111E-04
RMM:  16    -0.413180730468E+03    0.10047E-05   -0.50404E-08   922   0.599E-04    0.795E-05
RMM:  17    -0.413180727637E+03    0.28314E-05   -0.62102E-08  1053   0.619E-04    0.578E-05
RMM:  18    -0.413180726012E+03    0.16243E-05   -0.37503E-08   939   0.578E-04    0.417E-05
RMM:  19    -0.413180725547E+03    0.46586E-06   -0.14124E-08   717   0.541E-04
   28 T=    64. E= -.41286618E+03 F= -.41318073E+03 E0= -.41315908E+03  EK= 0.31454E+00 SP= 0.00E+00 SK= 0.00E+00
       N       E                     dE             d eps       ncg     rms          rms(c)
RMM:   1    -0.413179664277E+03    0.10617E-02   -0.10014E+01  4289   0.770E-01    0.927E-01
RMM:   2    -0.413185986501E+03   -0.63222E-02   -0.12329E-01  4273   0.105E-01    0.658E-01
RMM:   3    -0.413182888025E+03    0.30985E-02   -0.12831E-02  4626   0.504E-02    0.115E-01
RMM:   4    -0.413200350152E+03   -0.17462E-01   -0.17720E-02  5149   0.112E-01    0.553E-01
RMM:   5    -0.413182686559E+03    0.17664E-01   -0.88241E-03  4813   0.915E-02    0.437E-02
RMM:   6    -0.413182763381E+03   -0.76822E-04   -0.15126E-03  5830   0.365E-02    0.265E-02
RMM:   7    -0.413182764173E+03   -0.79146E-06   -0.20577E-04  5559   0.147E-02    0.139E-02
RMM:   8    -0.413182752978E+03    0.11195E-04   -0.35966E-05  4777   0.641E-03    0.833E-03
RMM:   9    -0.413182750559E+03    0.24188E-05   -0.88751E-06  3652   0.348E-03    0.668E-03
RMM:  10    -0.413182745257E+03    0.53018E-05   -0.13740E-06  2518   0.210E-03    0.384E-03
RMM:  11    -0.413182740494E+03    0.47636E-05   -0.10842E-06  2501   0.172E-03    0.206E-03
RMM:  12    -0.413182733885E+03    0.66088E-05   -0.11017E-06  2493   0.167E-03    0.952E-04
RMM:  13    -0.413182731853E+03    0.20320E-05   -0.36872E-07  2203   0.108E-03    0.509E-04
RMM:  14    -0.413182730872E+03    0.98042E-06   -0.16965E-07  1616   0.759E-04
   29 T=    64. E= -.41286637E+03 F= -.41318273E+03 E0= -.41316113E+03  EK= 0.31636E+00 SP= 0.00E+00 SK= 0.00E+00
       N       E                     dE             d eps       ncg     rms          rms(c)
RMM:   1    -0.413184603444E+03   -0.18716E-02   -0.10006E+01  4291   0.820E-01    0.907E-01
RMM:   2    -0.413188233084E+03   -0.36296E-02   -0.12380E-01  4272   0.114E-01    0.656E-01
RMM:   3    -0.413184705145E+03    0.35279E-02   -0.12859E-02  4409   0.529E-02    0.971E-02
RMM:   4    -0.413190476252E+03   -0.57711E-02   -0.61471E-03  5150   0.657E-02    0.322E-01
RMM:   5    -0.413184661175E+03    0.58151E-02   -0.29795E-03  4825   0.531E-02    0.391E-02
RMM:   6    -0.413184687182E+03   -0.26007E-04   -0.68831E-04  5751   0.246E-02    0.267E-02
RMM:   7    -0.413184672908E+03    0.14274E-04   -0.23655E-04  5248   0.154E-02    0.165E-02
RMM:   8    -0.413184660279E+03    0.12630E-04   -0.19546E-05  4296   0.569E-03    0.701E-03
RMM:   9    -0.413184657948E+03    0.23307E-05   -0.29342E-06  2695   0.231E-03    0.459E-03
RMM:  10    -0.413184653575E+03    0.43730E-05   -0.12784E-06  2493   0.181E-03    0.244E-03
RMM:  11    -0.413184649625E+03    0.39504E-05   -0.79175E-07  2435   0.145E-03    0.116E-03
RMM:  12    -0.413184646013E+03    0.36115E-05   -0.43616E-07  2219   0.111E-03    0.520E-04
RMM:  13    -0.413184643760E+03    0.22529E-05   -0.22963E-07  1773   0.831E-04    0.265E-04
RMM:  14    -0.413184641340E+03    0.24203E-05   -0.12170E-07  1261   0.687E-04    0.166E-04
RMM:  15    -0.413184637562E+03    0.37779E-05   -0.94987E-08  1187   0.661E-04    0.864E-05
RMM:  16    -0.413184635645E+03    0.19170E-05   -0.53479E-08   955   0.606E-04    0.660E-05
RMM:  17    -0.413184632577E+03    0.30678E-05   -0.61583E-08  1124   0.615E-04    0.439E-05
RMM:  18    -0.413184630594E+03    0.19836E-05   -0.40215E-08   970   0.572E-04    0.288E-05
RMM:  19    -0.413184630012E+03    0.58200E-06   -0.16283E-08   711   0.532E-04
   30 T=    65. E= -.41286637E+03 F= -.41318463E+03 E0= -.41316308E+03  EK= 0.31826E+00 SP= 0.00E+00 SK= 0.00E+00
       N       E                     dE             d eps       ncg     rms          rms(c)
RMM:   1    -0.413188125505E+03   -0.34949E-02   -0.10144E+01  4293   0.829E-01    0.910E-01
RMM:   2    -0.413190395081E+03   -0.22696E-02   -0.13119E-01  4279   0.118E-01    0.669E-01
RMM:   3    -0.413186420364E+03    0.39747E-02   -0.13298E-02  4510   0.579E-02    0.101E-01
RMM:   4    -0.413199024527E+03   -0.12604E-01   -0.12839E-02  5144   0.949E-02    0.472E-01
RMM:   5    -0.413186279667E+03    0.12745E-01   -0.64113E-03  4815   0.776E-02    0.410E-02
RMM:   6    -0.413186333436E+03   -0.53770E-04   -0.11814E-03  5836   0.313E-02    0.253E-02
RMM:   7    -0.413186342236E+03   -0.87998E-05   -0.22738E-04  5486   0.150E-02    0.164E-02
RMM:   8    -0.413186326717E+03    0.15519E-04   -0.34466E-05  4726   0.674E-03    0.780E-03
RMM:   9    -0.413186325609E+03    0.11079E-05   -0.65592E-06  3204   0.318E-03    0.586E-03
RMM:  10    -0.413186323706E+03    0.19029E-05   -0.14140E-06  2503   0.205E-03    0.329E-03
RMM:  11    -0.413186321890E+03    0.18162E-05   -0.98173E-07  2489   0.164E-03    0.170E-03
RMM:  12    -0.413186319654E+03    0.22353E-05   -0.79094E-07  2460   0.140E-03    0.876E-04
RMM:  13    -0.413186318653E+03    0.10016E-05   -0.29667E-07  2071   0.958E-04    0.402E-04
RMM:  14    -0.413186317751E+03    0.90181E-06   -0.14623E-07  1449   0.720E-04
   31 T=    65. E= -.41286617E+03 F= -.41318632E+03 E0= -.41316482E+03  EK= 0.32014E+00 SP= 0.00E+00 SK= 0.00E+00
       N       E                     dE             d eps       ncg     rms          rms(c)
RMM:   1    -0.413186161230E+03    0.15742E-03   -0.10138E+01  4294   0.808E-01    0.933E-01
RMM:   2    -0.413192548669E+03   -0.63874E-02   -0.12699E-01  4283   0.121E-01    0.666E-01
RMM:   3    -0.413188935889E+03    0.36128E-02   -0.13259E-02  4347   0.562E-02    0.103E-01
RMM:   4    -0.413192147012E+03   -0.32111E-02   -0.37444E-03  5161   0.513E-02    0.241E-01
RMM:   5    -0.413188935235E+03    0.32118E-02   -0.16895E-03  4829   0.402E-02    0.395E-02
RMM:   6    -0.413188958075E+03   -0.22840E-04   -0.52031E-04  5603   0.224E-02    0.292E-02
RMM:   7    -0.413188926925E+03    0.31150E-04   -0.22632E-04  5105   0.153E-02    0.158E-02
RMM:   8    -0.413188919333E+03    0.75916E-05   -0.20632E-05  4260   0.531E-03    0.613E-03
RMM:   9    -0.413188917041E+03    0.22928E-05   -0.24117E-06  2582   0.219E-03    0.379E-03
RMM:  10    -0.413188911092E+03    0.59491E-05   -0.96853E-07  2475   0.164E-03    0.199E-03
RMM:  11    -0.413188906157E+03    0.49343E-05   -0.59517E-07  2365   0.122E-03    0.863E-04
RMM:  12    -0.413188901213E+03    0.49440E-05   -0.33591E-07  2045   0.962E-04    0.345E-04
RMM:  13    -0.413188897672E+03    0.35417E-05   -0.17763E-07  1542   0.758E-04    0.224E-04
RMM:  14    -0.413188893933E+03    0.37388E-05   -0.97651E-08  1092   0.660E-04    0.156E-04
RMM:  15    -0.413188888399E+03    0.55334E-05   -0.99971E-08  1297   0.672E-04    0.847E-05
RMM:  16    -0.413188886090E+03    0.23092E-05   -0.54308E-08  1032   0.596E-04    0.798E-05
RMM:  17    -0.413188882511E+03    0.35791E-05   -0.54840E-08  1097   0.594E-04    0.357E-05
RMM:  18    -0.413188881079E+03    0.14324E-05   -0.27086E-08   811   0.537E-04    0.229E-05
RMM:  19    -0.413188880634E+03    0.44459E-06   -0.12099E-08   647   0.516E-04
   32 T=    66. E= -.41286655E+03 F= -.41318888E+03 E0= -.41316743E+03  EK= 0.32233E+00 SP= 0.00E+00 SK= 0.00E+00
       N       E                     dE             d eps       ncg     rms          rms(c)
RMM:   1    -0.413187798799E+03    0.10823E-02   -0.10102E+01  4292   0.820E-01    0.920E-01
RMM:   2    -0.413194453624E+03   -0.66548E-02   -0.12769E-01  4282   0.123E-01    0.662E-01
RMM:   3    -0.413190799695E+03    0.36539E-02   -0.13076E-02  4255   0.573E-02    0.100E-01
RMM:   4    -0.413191160858E+03   -0.36116E-03   -0.10210E-03  5044   0.237E-02    0.808E-02
RMM:   5    -0.413190867142E+03    0.29372E-03   -0.23544E-04  4793   0.154E-02    0.415E-02
RMM:   6    -0.413190877618E+03   -0.10476E-04   -0.33735E-04  5307   0.179E-02    0.289E-02
RMM:   7    -0.413190837286E+03    0.40332E-04   -0.18541E-04  4849   0.138E-02    0.159E-02
RMM:   8    -0.413190833342E+03    0.39439E-05   -0.21904E-05  4295   0.496E-03    0.553E-03
RMM:   9    -0.413190832195E+03    0.11467E-05   -0.28727E-06  2471   0.208E-03    0.236E-03
RMM:  10    -0.413190825203E+03    0.69921E-05   -0.91486E-07  2381   0.144E-03    0.905E-04
RMM:  11    -0.413190821329E+03    0.38740E-05   -0.25761E-07  1784   0.841E-04    0.484E-04
RMM:  12    -0.413190817950E+03    0.33798E-05   -0.15489E-07  1501   0.727E-04    0.300E-04
RMM:  13    -0.413190814541E+03    0.34089E-05   -0.11863E-07  1353   0.681E-04    0.166E-04
RMM:  14    -0.413190809694E+03    0.48462E-05   -0.98123E-08  1178   0.651E-04    0.128E-04
RMM:  15    -0.413190807200E+03    0.24946E-05   -0.36266E-08   745   0.569E-04    0.878E-05
RMM:  16    -0.413190803682E+03    0.35177E-05   -0.42330E-08   854   0.590E-04    0.420E-05
RMM:  17    -0.413190802437E+03    0.12454E-05   -0.17645E-08   644   0.543E-04    0.374E-05
RMM:  18    -0.413190801616E+03    0.82119E-06   -0.13227E-08   603   0.533E-04
   33 T=    66. E= -.41286640E+03 F= -.41319080E+03 E0= -.41316940E+03  EK= 0.32440E+00 SP= 0.00E+00 SK= 0.00E+00
       N       E                     dE             d eps       ncg     rms          rms(c)
RMM:   1    -0.413196091080E+03   -0.52886E-02   -0.10263E+01  4298   0.880E-01    0.915E-01
RMM:   2    -0.413197050414E+03   -0.95933E-03   -0.13627E-01  4278   0.131E-01    0.674E-01
RMM:   3    -0.413193185775E+03    0.38646E-02   -0.13408E-02  4247   0.617E-02    0.943E-02
RMM:   4    -0.413193472133E+03   -0.28636E-03   -0.94348E-04  5020   0.221E-02    0.706E-02
RMM:   5    -0.413193264616E+03    0.20752E-03   -0.18658E-04  4758   0.137E-02    0.410E-02
RMM:   6    -0.413193274034E+03   -0.94173E-05   -0.31554E-04  5293   0.172E-02    0.276E-02
RMM:   7    -0.413193241716E+03    0.32317E-04   -0.18035E-04  4814   0.136E-02    0.168E-02
RMM:   8    -0.413193237498E+03    0.42186E-05   -0.21826E-05  4129   0.478E-03    0.542E-03
RMM:   9    -0.413193237176E+03    0.32148E-06   -0.27232E-06  2432   0.206E-03
   34 T=    67. E= -.41286644E+03 F= -.41319324E+03 E0= -.41317189E+03  EK= 0.32679E+00 SP= 0.00E+00 SK= 0.00E+00
       N       E                     dE             d eps       ncg     rms          rms(c)
RMM:   1    -0.413196422389E+03   -0.31849E-02   -0.10307E+01  4301   0.907E-01    0.937E-01
RMM:   2    -0.413199323508E+03   -0.29011E-02   -0.13553E-01  4271   0.131E-01    0.675E-01
RMM:   3    -0.413195972734E+03    0.33508E-02   -0.13422E-02  4519   0.626E-02    0.114E-01
RMM:   4    -0.413209098446E+03   -0.13126E-01   -0.13390E-02  5165   0.979E-02    0.483E-01
RMM:   5    -0.413195905193E+03    0.13193E-01   -0.67335E-03  4818   0.803E-02    0.441E-02
RMM:   6    -0.413195910961E+03   -0.57685E-05   -0.12403E-03  5769   0.345E-02    0.319E-02
RMM:   7    -0.413195906715E+03    0.42463E-05   -0.32344E-04  5421   0.172E-02    0.176E-02
RMM:   8    -0.413195892364E+03    0.14350E-04   -0.34716E-05  4837   0.689E-03    0.762E-03
RMM:   9    -0.413195889276E+03    0.30885E-05   -0.58580E-06  3056   0.295E-03    0.480E-03
RMM:  10    -0.413195883531E+03    0.57451E-05   -0.13339E-06  2513   0.198E-03    0.256E-03
RMM:  11    -0.413195877113E+03    0.64172E-05   -0.98856E-07  2500   0.160E-03    0.129E-03
RMM:  12    -0.413195870883E+03    0.62302E-05   -0.58053E-07  2355   0.125E-03    0.622E-04
RMM:  13    -0.413195868321E+03    0.25625E-05   -0.26926E-07  1912   0.889E-04    0.335E-04
RMM:  14    -0.413195865411E+03    0.29095E-05   -0.14186E-07  1342   0.711E-04    0.197E-04
RMM:  15    -0.413195860062E+03    0.53493E-05   -0.10952E-07  1255   0.680E-04    0.102E-04
RMM:  16    -0.413195856854E+03    0.32081E-05   -0.69048E-08  1051   0.626E-04    0.874E-05
RMM:  17    -0.413195853021E+03    0.38329E-05   -0.63362E-08  1160   0.625E-04    0.680E-05
RMM:  18    -0.413195849853E+03    0.31676E-05   -0.48430E-08  1074   0.591E-04    0.325E-05
RMM:  19    -0.413195848788E+03    0.10657E-05   -0.24306E-08   792   0.538E-04    0.197E-05
RMM:  20    -0.413195848445E+03    0.34227E-06   -0.13323E-08   673   0.519E-04
   35 T=    67. E= -.41286648E+03 F= -.41319585E+03 E0= -.41317454E+03  EK= 0.32937E+00 SP= 0.00E+00 SK= 0.00E+00
       N       E                     dE             d eps       ncg     rms          rms(c)
RMM:   1    -0.413195427031E+03    0.42176E-03   -0.10271E+01  4300   0.880E-01    0.937E-01
RMM:   2    -0.413201144191E+03   -0.57172E-02   -0.13265E-01  4259   0.131E-01    0.670E-01
RMM:   3    -0.413198017365E+03    0.31268E-02   -0.13451E-02  4526   0.619E-02    0.116E-01
RMM:   4    -0.413211254593E+03   -0.13237E-01   -0.13454E-02  5174   0.979E-02    0.485E-01
RMM:   5    -0.413197942470E+03    0.13312E-01   -0.67563E-03  4817   0.804E-02    0.439E-02
RMM:   6    -0.413197960177E+03   -0.17707E-04   -0.12808E-03  5805   0.344E-02    0.299E-02
RMM:   7    -0.413197961670E+03   -0.14934E-05   -0.31763E-04  5418   0.175E-02    0.189E-02
RMM:   8    -0.413197943388E+03    0.18282E-04   -0.38757E-05  4891   0.737E-03    0.856E-03
RMM:   9    -0.413197940573E+03    0.28151E-05   -0.67681E-06  3168   0.323E-03    0.566E-03
RMM:  10    -0.413197935041E+03    0.55318E-05   -0.15367E-06  2517   0.216E-03    0.303E-03
RMM:  11    -0.413197929463E+03    0.55776E-05   -0.10918E-06  2496   0.172E-03    0.155E-03
RMM:  12    -0.413197923222E+03    0.62413E-05   -0.73115E-07  2426   0.142E-03    0.790E-04
RMM:  13    -0.413197920449E+03    0.27735E-05   -0.31976E-07  2073   0.981E-04    0.399E-04
RMM:  14    -0.413197918350E+03    0.20985E-05   -0.16010E-07  1505   0.739E-04    0.257E-04
RMM:  15    -0.413197914216E+03    0.41342E-05   -0.10240E-07  1268   0.676E-04    0.107E-04
RMM:  16    -0.413197911059E+03    0.31572E-05   -0.64392E-08  1040   0.630E-04    0.803E-05
RMM:  17    -0.413197908542E+03    0.25167E-05   -0.48260E-08  1003   0.603E-04    0.616E-05
RMM:  18    -0.413197904338E+03    0.42037E-05   -0.51743E-08  1134   0.615E-04    0.362E-05
RMM:  19    -0.413197903113E+03    0.12251E-05   -0.25431E-08   840   0.551E-04    0.251E-05
RMM:  20    -0.413197902700E+03    0.41362E-06   -0.14373E-08   703   0.529E-04
   36 T=    68. E= -.41286611E+03 F= -.41319790E+03 E0= -.41317664E+03  EK= 0.33179E+00 SP= 0.00E+00 SK= 0.00E+00
       N       E                     dE             d eps       ncg     rms          rms(c)
RMM:   1    -0.413206976786E+03   -0.90737E-02   -0.10423E+01  4302   0.974E-01    0.921E-01
RMM:   2    -0.413204920089E+03    0.20567E-02   -0.15101E-01  4257   0.140E-01    0.681E-01
RMM:   3    -0.413201073011E+03    0.38471E-02   -0.12775E-02  4600   0.604E-02    0.132E-01
RMM:   4    -0.413221868457E+03   -0.20795E-01   -0.21162E-02  5154   0.123E-01    0.604E-01
RMM:   5    -0.413200888232E+03    0.20980E-01   -0.10586E-02  4805   0.100E-01    0.461E-02
RMM:   6    -0.413200919817E+03   -0.31585E-04   -0.18246E-03  5835   0.403E-02    0.293E-02
RMM:   7    -0.413200935580E+03   -0.15763E-04   -0.31078E-04  5575   0.170E-02    0.178E-02
RMM:   8    -0.413200921091E+03    0.14489E-04   -0.56605E-05  4988   0.819E-03    0.906E-03
RMM:   9    -0.413200919998E+03    0.10937E-05   -0.12115E-05  3989   0.419E-03    0.646E-03
RMM:  10    -0.413200916738E+03    0.32602E-05   -0.17210E-06  2566   0.224E-03    0.366E-03
RMM:  11    -0.413200914553E+03    0.21841E-05   -0.92236E-07  2493   0.157E-03    0.222E-03
RMM:  12    -0.413200909635E+03    0.49180E-05   -0.13574E-06  2513   0.183E-03    0.113E-03
RMM:  13    -0.413200907215E+03    0.24208E-05   -0.47569E-07  2267   0.120E-03    0.599E-04
RMM:  14    -0.413200906724E+03    0.49069E-06   -0.20798E-07  1768   0.811E-04
   37 T=    68. E= -.41286639E+03 F= -.41320091E+03 E0= -.41317969E+03  EK= 0.33452E+00 SP= 0.00E+00 SK= 0.00E+00
       N       E                     dE             d eps       ncg     rms          rms(c)
RMM:   1    -0.413219193496E+03   -0.18286E-01   -0.10615E+01  4308   0.106E+00    0.940E-01
RMM:   2    -0.413207718329E+03    0.11475E-01   -0.16131E-01  4258   0.140E-01    0.688E-01
RMM:   3    -0.413203673804E+03    0.40445E-02   -0.12475E-02  4693   0.562E-02    0.153E-01
RMM:   4    -0.413231121050E+03   -0.27447E-01   -0.28039E-02  5156   0.140E-01    0.692E-01
RMM:   5    -0.413203364115E+03    0.27757E-01   -0.14128E-02  4809   0.115E-01    0.487E-02
RMM:   6    -0.413203411878E+03   -0.47763E-04   -0.22841E-03  5842   0.454E-02    0.312E-02
RMM:   7    -0.413203423826E+03   -0.11948E-04   -0.33789E-04  5659   0.177E-02    0.174E-02
RMM:   8    -0.413203412105E+03    0.11721E-04   -0.63299E-05  5042   0.842E-03    0.988E-03
RMM:   9    -0.413203409696E+03    0.24088E-05   -0.16400E-05  4355   0.470E-03    0.692E-03
RMM:  10    -0.413203404428E+03    0.52685E-05   -0.21901E-06  2621   0.240E-03    0.398E-03
RMM:  11    -0.413203401201E+03    0.32266E-05   -0.10620E-06  2490   0.169E-03    0.245E-03
RMM:  12    -0.413203393375E+03    0.78265E-05   -0.16179E-06  2532   0.202E-03    0.126E-03
RMM:  13    -0.413203389713E+03    0.36621E-05   -0.57975E-07  2353   0.133E-03    0.773E-04
RMM:  14    -0.413203389289E+03    0.42332E-06   -0.23723E-07  1917   0.867E-04
   38 T=    69. E= -.41286631E+03 F= -.41320339E+03 E0= -.41318221E+03  EK= 0.33708E+00 SP= 0.00E+00 SK= 0.00E+00
       N       E                     dE             d eps       ncg     rms          rms(c)
RMM:   1    -0.413205278076E+03   -0.18884E-02   -0.10463E+01  4307   0.984E-01    0.953E-01
RMM:   2    -0.413210131389E+03   -0.48533E-02   -0.13747E-01  4259   0.124E-01    0.680E-01
RMM:   3    -0.413206524882E+03    0.36065E-02   -0.13952E-02  4860   0.560E-02    0.149E-01
RMM:   4    -0.413243289790E+03   -0.36765E-01   -0.38406E-02  5138   0.164E-01    0.798E-01
RMM:   5    -0.413205936030E+03    0.37354E-01   -0.18672E-02  4800   0.133E-01    0.532E-02
RMM:   6    -0.413206028986E+03   -0.92956E-04   -0.30926E-03  5834   0.520E-02    0.338E-02
RMM:   7    -0.413206037914E+03   -0.89284E-05   -0.39114E-04  5690   0.187E-02    0.181E-02
RMM:   8    -0.413206026836E+03    0.11078E-04   -0.63552E-05  5033   0.827E-03    0.104E-02
RMM:   9    -0.413206023960E+03    0.28758E-05   -0.21806E-05  4586   0.503E-03    0.782E-03
RMM:  10    -0.413206016079E+03    0.78808E-05   -0.28640E-06  2658   0.268E-03    0.447E-03
RMM:  11    -0.413206011561E+03    0.45186E-05   -0.13694E-06  2500   0.190E-03    0.277E-03
RMM:  12    -0.413206000216E+03    0.11345E-04   -0.18592E-06  2539   0.221E-03    0.133E-03
RMM:  13    -0.413205995212E+03    0.50033E-05   -0.68556E-07  2415   0.147E-03    0.871E-04
RMM:  14    -0.413205994777E+03    0.43507E-06   -0.26983E-07  2061   0.939E-04
   39 T=    69. E= -.41286632E+03 F= -.41320599E+03 E0= -.41318486E+03  EK= 0.33967E+00 SP= 0.00E+00 SK= 0.00E+00
       N       E                     dE             d eps       ncg     rms          rms(c)
RMM:   1    -0.413229488964E+03   -0.23494E-01   -0.10687E+01  4310   0.115E+00    0.931E-01
RMM:   2    -0.413213540154E+03    0.15949E-01   -0.16670E-01  4258   0.137E-01    0.687E-01
RMM:   3    -0.413209759595E+03    0.37806E-02   -0.12531E-02  4940   0.579E-02    0.190E-01
RMM:   4    -0.413260237374E+03   -0.50478E-01   -0.54195E-02  5134   0.194E-01    0.930E-01
RMM:   5    -0.413208752290E+03    0.51485E-01   -0.25563E-02  4789   0.156E-01    0.583E-02
RMM:   6    -0.413208912143E+03   -0.15985E-03   -0.41472E-03  5824   0.603E-02    0.357E-02
RMM:   7    -0.413208924682E+03   -0.12539E-04   -0.49114E-04  5775   0.203E-02    0.197E-02
RMM:   8    -0.413208924776E+03   -0.93263E-07   -0.95544E-05  5199   0.960E-03    0.124E-02
RMM:   9    -0.413208914930E+03    0.98454E-05   -0.28017E-05  4729   0.573E-03    0.759E-03
RMM:  10    -0.413208910561E+03    0.43698E-05   -0.43490E-06  2818   0.297E-03    0.461E-03
RMM:  11    -0.413208907006E+03    0.35549E-05   -0.17015E-06  2514   0.213E-03    0.280E-03
RMM:  12    -0.413208899070E+03    0.79355E-05   -0.17887E-06  2532   0.218E-03    0.103E-03
RMM:  13    -0.413208894756E+03    0.43139E-05   -0.72036E-07  2434   0.149E-03    0.832E-04
RMM:  14    -0.413208894453E+03    0.30293E-06   -0.29594E-07  2118   0.970E-04
   40 T=    70. E= -.41286656E+03 F= -.41320889E+03 E0= -.41318779E+03  EK= 0.34233E+00 SP= 0.00E+00 SK= 0.00E+00
       N       E                     dE             d eps       ncg     rms          rms(c)
RMM:   1    -0.413222721764E+03   -0.13827E-01   -0.10718E+01  4311   0.114E+00    0.945E-01
RMM:   2    -0.413215608032E+03    0.71137E-02   -0.15572E-01  4262   0.140E-01    0.696E-01
RMM:   3    -0.413212277883E+03    0.33301E-02   -0.14440E-02  4986   0.638E-02    0.200E-01
RMM:   4    -0.413264900688E+03   -0.52623E-01   -0.59456E-02  5132   0.203E-01    0.952E-01
RMM:   5    -0.413210719980E+03    0.54181E-01   -0.26201E-02  4783   0.160E-01    0.602E-02
RMM:   6    -0.413210893818E+03   -0.17384E-03   -0.43725E-03  5817   0.619E-02    0.361E-02
RMM:   7    -0.413210908333E+03   -0.14515E-04   -0.52682E-04  5792   0.209E-02    0.212E-02
RMM:   8    -0.413210910741E+03   -0.24081E-05   -0.11625E-04  5244   0.106E-02    0.139E-02
RMM:   9    -0.413210898084E+03    0.12656E-04   -0.27876E-05  4733   0.601E-03    0.733E-03
RMM:  10    -0.413210894043E+03    0.40410E-05   -0.49274E-06  2906   0.303E-03    0.448E-03
RMM:  11    -0.413210890864E+03    0.31794E-05   -0.15931E-06  2505   0.209E-03    0.270E-03
RMM:  12    -0.413210883963E+03    0.69010E-05   -0.15879E-06  2522   0.207E-03    0.100E-03
RMM:  13    -0.413210879760E+03    0.42025E-05   -0.68745E-07  2429   0.144E-03    0.714E-04
RMM:  14    -0.413210879221E+03    0.53944E-06   -0.29437E-07  2091   0.960E-04
   41 T=    70. E= -.41286625E+03 F= -.41321088E+03 E0= -.41318981E+03  EK= 0.34463E+00 SP= 0.00E+00 SK= 0.00E+00
       N       E                     dE             d eps       ncg     rms          rms(c)
RMM:   1    -0.413217298520E+03   -0.64188E-02   -0.10649E+01  4312   0.115E+00    0.967E-01
RMM:   2    -0.413217532520E+03   -0.23400E-03   -0.14570E-01  4280   0.135E-01    0.690E-01
RMM:   3    -0.413216258569E+03    0.12740E-02   -0.16174E-02  5062   0.733E-02    0.257E-01
RMM:   4    -0.413258642043E+03   -0.42383E-01   -0.55584E-02  5100   0.198E-01    0.874E-01
RMM:   5    -0.413213312834E+03    0.45329E-01   -0.20620E-02  4759   0.145E-01    0.609E-02
RMM:   6    -0.413213424132E+03   -0.11130E-03   -0.36158E-03  5788   0.566E-02    0.364E-02
RMM:   7    -0.413213434326E+03   -0.10195E-04   -0.48219E-04  5753   0.204E-02    0.223E-02
RMM:   8    -0.413213432996E+03    0.13302E-05   -0.13000E-04  5222   0.116E-02    0.136E-02
RMM:   9    -0.413213417337E+03    0.15660E-04   -0.22969E-05  4545   0.591E-03    0.603E-03
RMM:  10    -0.413213411440E+03    0.58965E-05   -0.50502E-06  2957   0.289E-03    0.378E-03
RMM:  11    -0.413213406230E+03    0.52100E-05   -0.12758E-06  2496   0.194E-03    0.215E-03
RMM:  12    -0.413213396750E+03    0.94804E-05   -0.10083E-06  2475   0.172E-03    0.819E-04
RMM:  13    -0.413213391020E+03    0.57299E-05   -0.48094E-07  2343   0.122E-03    0.466E-04
RMM:  14    -0.413213389510E+03    0.15101E-05   -0.24123E-07  1932   0.864E-04    0.323E-04
RMM:  15    -0.413213386014E+03    0.34956E-05   -0.13239E-07  1435   0.706E-04    0.158E-04
RMM:  16    -0.413213379769E+03    0.62447E-05   -0.10192E-07  1298   0.681E-04    0.175E-04
RMM:  17    -0.413213376813E+03    0.29561E-05   -0.59583E-08  1044   0.616E-04    0.110E-04
RMM:  18    -0.413213372495E+03    0.43182E-05   -0.59293E-08  1225   0.631E-04    0.850E-05
RMM:  19    -0.413213369845E+03    0.26498E-05   -0.40897E-08  1084   0.588E-04    0.468E-05
RMM:  20    -0.413213369025E+03    0.82028E-06   -0.23605E-08   866   0.542E-04
   42 T=    71. E= -.41286642E+03 F= -.41321337E+03 E0= -.41319234E+03  EK= 0.34694E+00 SP= 0.00E+00 SK= 0.00E+00
       N       E                     dE             d eps       ncg     rms          rms(c)
RMM:   1    -0.413244121989E+03   -0.30752E-01   -0.10848E+01  4312   0.134E+00    0.944E-01
RMM:   2    -0.413219606340E+03    0.24516E-01   -0.17016E-01  4297   0.147E-01    0.691E-01
RMM:   3    -0.413219759215E+03   -0.15288E-03   -0.15766E-02  5072   0.811E-02    0.320E-01
RMM:   4    -0.413258004602E+03   -0.38245E-01   -0.56793E-02  5092   0.201E-01    0.850E-01
RMM:   5    -0.413215327514E+03    0.42677E-01   -0.18761E-02  4731   0.142E-01    0.630E-02
RMM:   6    -0.413215404309E+03   -0.76795E-04   -0.33520E-03  5738   0.548E-02    0.360E-02
RMM:   7    -0.413215411887E+03   -0.75778E-05   -0.50161E-04  5784   0.202E-02    0.239E-02
RMM:   8    -0.413215409536E+03    0.23515E-05   -0.12981E-04  5188   0.118E-02    0.126E-02
RMM:   9    -0.413215397221E+03    0.12314E-04   -0.21769E-05  4516   0.585E-03    0.500E-03
RMM:  10    -0.413215394013E+03    0.32087E-05   -0.46395E-06  2873   0.270E-03    0.319E-03
RMM:  11    -0.413215390175E+03    0.38375E-05   -0.13194E-06  2499   0.189E-03    0.174E-03
RMM:  12    -0.413215384812E+03    0.53627E-05   -0.77604E-07  2455   0.150E-03    0.666E-04
RMM:  13    -0.413215381574E+03    0.32382E-05   -0.38533E-07  2153   0.106E-03    0.311E-04
RMM:  14    -0.413215379536E+03    0.20384E-05   -0.20626E-07  1685   0.808E-04    0.207E-04
RMM:  15    -0.413215375749E+03    0.37868E-05   -0.13360E-07  1345   0.710E-04    0.111E-04
RMM:  16    -0.413215373323E+03    0.24263E-05   -0.83386E-08  1124   0.652E-04    0.832E-05
RMM:  17    -0.413215370858E+03    0.24645E-05   -0.63834E-08  1101   0.635E-04    0.511E-05
RMM:  18    -0.413215368121E+03    0.27377E-05   -0.55467E-08  1157   0.625E-04    0.353E-05
RMM:  19    -0.413215366469E+03    0.16512E-05   -0.33580E-08   953   0.582E-04    0.250E-05
RMM:  20    -0.413215365754E+03    0.71531E-06   -0.18931E-08   788   0.554E-04
   43 T=    71. E= -.41286648E+03 F= -.41321537E+03 E0= -.41319436E+03  EK= 0.34889E+00 SP= 0.00E+00 SK= 0.00E+00
       N       E                     dE             d eps       ncg     rms          rms(c)
RMM:   1    -0.413226775406E+03   -0.11409E-01   -0.10761E+01  4312   0.130E+00    0.948E-01
RMM:   2    -0.413220993664E+03    0.57817E-02   -0.15630E-01  4299   0.157E-01    0.703E-01
RMM:   3    -0.413222054189E+03   -0.10605E-02   -0.18671E-02  5069   0.914E-02    0.336E-01
RMM:   4    -0.413256011085E+03   -0.33957E-01   -0.55548E-02  5075   0.200E-01    0.816E-01
RMM:   5    -0.413216501753E+03    0.39509E-01   -0.16565E-02  4714   0.135E-01    0.610E-02
RMM:   6    -0.413216556959E+03   -0.55205E-04   -0.30425E-03  5731   0.521E-02    0.348E-02
RMM:   7    -0.413216560877E+03   -0.39188E-05   -0.45298E-04  5759   0.197E-02    0.229E-02
RMM:   8    -0.413216557891E+03    0.29863E-05   -0.12038E-04  5165   0.114E-02    0.119E-02
RMM:   9    -0.413216547337E+03    0.10554E-04   -0.19202E-05  4410   0.560E-03    0.479E-03
RMM:  10    -0.413216544930E+03    0.24068E-05   -0.39816E-06  2797   0.258E-03    0.301E-03
RMM:  11    -0.413216542018E+03    0.29114E-05   -0.12799E-06  2494   0.186E-03    0.162E-03
RMM:  12    -0.413216537870E+03    0.41480E-05   -0.79102E-07  2445   0.148E-03    0.644E-04
RMM:  13    -0.413216535345E+03    0.25253E-05   -0.39430E-07  2107   0.105E-03    0.298E-04
RMM:  14    -0.413216533577E+03    0.17682E-05   -0.21590E-07  1621   0.806E-04    0.192E-04
RMM:  15    -0.413216529990E+03    0.35869E-05   -0.15387E-07  1346   0.726E-04    0.118E-04
RMM:  16    -0.413216528254E+03    0.17361E-05   -0.91872E-08  1115   0.657E-04    0.825E-05
RMM:  17    -0.413216526037E+03    0.22166E-05   -0.72498E-08  1118   0.643E-04    0.480E-05
RMM:  18    -0.413216523704E+03    0.23336E-05   -0.58829E-08  1121   0.623E-04    0.346E-05
RMM:  19    -0.413216522193E+03    0.15110E-05   -0.36620E-08   923   0.582E-04    0.216E-05
RMM:  20    -0.413216521483E+03    0.71021E-06   -0.23487E-08   810   0.559E-04
   44 T=    71. E= -.41286625E+03 F= -.41321652E+03 E0= -.41319554E+03  EK= 0.35027E+00 SP= 0.00E+00 SK= 0.00E+00
       N       E                     dE             d eps       ncg     rms          rms(c)
RMM:   1    -0.413249609140E+03   -0.33087E-01   -0.10947E+01  4312   0.147E+00    0.972E-01
RMM:   2    -0.413221793647E+03    0.27815E-01   -0.16964E-01  4310   0.168E-01    0.700E-01
RMM:   3    -0.413226226222E+03   -0.44326E-02   -0.20122E-02  5104   0.103E-01    0.419E-01
RMM:   4    -0.413245920369E+03   -0.19694E-01   -0.47945E-02  5056   0.188E-01    0.697E-01
RMM:   5    -0.413217848780E+03    0.28072E-01   -0.11023E-02  4674   0.117E-01    0.603E-02
RMM:   6    -0.413217838344E+03    0.10436E-04   -0.21688E-03  5631   0.448E-02    0.349E-02
RMM:   7    -0.413217833151E+03    0.51932E-05   -0.36799E-04  5659   0.185E-02    0.230E-02
RMM:   8    -0.413217824960E+03    0.81905E-05   -0.12141E-04  5085   0.117E-02    0.109E-02
RMM:   9    -0.413217812042E+03    0.12918E-04   -0.16833E-05  4361   0.559E-03    0.441E-03
RMM:  10    -0.413217808379E+03    0.36636E-05   -0.32762E-06  2755   0.238E-03    0.263E-03
RMM:  11    -0.413217802649E+03    0.57293E-05   -0.12041E-06  2484   0.181E-03    0.142E-03
RMM:  12    -0.413217796672E+03    0.59770E-05   -0.62887E-07  2424   0.137E-03    0.657E-04
RMM:  13    -0.413217792970E+03    0.37019E-05   -0.30531E-07  1942   0.948E-04    0.302E-04
RMM:  14    -0.413217789559E+03    0.34117E-05   -0.17166E-07  1480   0.747E-04    0.169E-04
RMM:  15    -0.413217784659E+03    0.48999E-05   -0.12482E-07  1297   0.699E-04    0.120E-04
RMM:  16    -0.413217781647E+03    0.30117E-05   -0.82794E-08  1146   0.646E-04    0.919E-05
RMM:  17    -0.413217776774E+03    0.48730E-05   -0.80544E-08  1322   0.656E-04    0.642E-05
RMM:  18    -0.413217774810E+03    0.19637E-05   -0.45074E-08  1011   0.579E-04    0.448E-05
RMM:  19    -0.413217773021E+03    0.17890E-05   -0.33453E-08   955   0.559E-04    0.230E-05
RMM:  20    -0.413217772677E+03    0.34488E-06   -0.16668E-08   717   0.521E-04
   45 T=    71. E= -.41286658E+03 F= -.41321777E+03 E0= -.41319682E+03  EK= 0.35119E+00 SP= 0.00E+00 SK= 0.00E+00
       N       E                     dE             d eps       ncg     rms          rms(c)
RMM:   1    -0.413261941159E+03   -0.44168E-01   -0.10950E+01  4311   0.160E+00    0.953E-01
RMM:   2    -0.413221597217E+03    0.40344E-01   -0.18724E-01  4333   0.184E-01    0.696E-01
RMM:   3    -0.413227636729E+03   -0.60395E-02   -0.20098E-02  5110   0.109E-01    0.467E-01
RMM:   4    -0.413242136016E+03   -0.14499E-01   -0.46360E-02  5043   0.186E-01    0.659E-01
RMM:   5    -0.413217511000E+03    0.24625E-01   -0.96476E-03  4637   0.112E-01    0.610E-02
RMM:   6    -0.413217477339E+03    0.33661E-04   -0.19083E-03  5551   0.425E-02    0.343E-02
RMM:   7    -0.413217472086E+03    0.52527E-05   -0.33772E-04  5667   0.177E-02    0.235E-02
RMM:   8    -0.413217462218E+03    0.98678E-05   -0.12798E-04  5079   0.119E-02    0.108E-02
RMM:   9    -0.413217449101E+03    0.13118E-04   -0.18041E-05  4402   0.580E-03    0.433E-03
RMM:  10    -0.413217446002E+03    0.30981E-05   -0.31299E-06  2733   0.234E-03    0.251E-03
RMM:  11    -0.413217440509E+03    0.54932E-05   -0.13718E-06  2502   0.188E-03    0.141E-03
RMM:  12    -0.413217435902E+03    0.46078E-05   -0.61600E-07  2440   0.137E-03    0.730E-04
RMM:  13    -0.413217432318E+03    0.35839E-05   -0.30167E-07  1889   0.940E-04    0.332E-04
RMM:  14    -0.413217428767E+03    0.35509E-05   -0.17107E-07  1432   0.742E-04    0.177E-04
RMM:  15    -0.413217424953E+03    0.38141E-05   -0.11896E-07  1252   0.684E-04    0.116E-04
RMM:  16    -0.413217421916E+03    0.30368E-05   -0.84666E-08  1142   0.646E-04    0.988E-05
RMM:  17    -0.413217417551E+03    0.43653E-05   -0.82272E-08  1317   0.654E-04    0.644E-05
RMM:  18    -0.413217415449E+03    0.21015E-05   -0.46864E-08  1015   0.578E-04    0.525E-05
RMM:  19    -0.413217414034E+03    0.14154E-05   -0.30821E-08   880   0.548E-04    0.270E-05
RMM:  20    -0.413217413477E+03    0.55685E-06   -0.18783E-08   746   0.526E-04
   46 T=    71. E= -.41286644E+03 F= -.41321741E+03 E0= -.41319648E+03  EK= 0.35097E+00 SP= 0.00E+00 SK= 0.00E+00
       N       E                     dE             d eps       ncg     rms          rms(c)
RMM:   1    -0.413238490618E+03   -0.21077E-01   -0.10722E+01  4312   0.157E+00    0.941E-01
RMM:   2    -0.413220837431E+03    0.17653E-01   -0.17672E-01  4345   0.189E-01    0.706E-01
RMM:   3    -0.413228488132E+03   -0.76507E-02   -0.22824E-02  5097   0.121E-01    0.495E-01
RMM:   4    -0.413240154984E+03   -0.11667E-01   -0.48086E-02  5033   0.191E-01    0.643E-01
RMM:   5    -0.413216306612E+03    0.23848E-01   -0.87098E-03  4618   0.109E-01    0.604E-02
RMM:   6    -0.413216257800E+03    0.48811E-04   -0.17916E-03  5490   0.411E-02    0.328E-02
RMM:   7    -0.413216252119E+03    0.56814E-05   -0.31536E-04  5669   0.173E-02    0.227E-02
RMM:   8    -0.413216240638E+03    0.11481E-04   -0.12980E-04  5088   0.119E-02    0.105E-02
RMM:   9    -0.413216228989E+03    0.11649E-04   -0.17315E-05  4360   0.572E-03    0.425E-03
RMM:  10    -0.413216226880E+03    0.21094E-05   -0.30584E-06  2719   0.232E-03    0.247E-03
RMM:  11    -0.413216223168E+03    0.37113E-05   -0.13863E-06  2506   0.188E-03    0.136E-03
RMM:  12    -0.413216220076E+03    0.30923E-05   -0.62756E-07  2432   0.136E-03    0.723E-04
RMM:  13    -0.413216217445E+03    0.26316E-05   -0.31588E-07  1885   0.947E-04    0.335E-04
RMM:  14    -0.413216214860E+03    0.25847E-05   -0.17938E-07  1419   0.745E-04    0.170E-04
RMM:  15    -0.413216212164E+03    0.26955E-05   -0.12582E-07  1256   0.686E-04    0.108E-04
RMM:  16    -0.413216210021E+03    0.21431E-05   -0.86235E-08  1138   0.643E-04    0.886E-05
RMM:  17    -0.413216206761E+03    0.32603E-05   -0.83228E-08  1294   0.647E-04    0.543E-05
RMM:  18    -0.413216205060E+03    0.17004E-05   -0.46267E-08   995   0.575E-04    0.434E-05
RMM:  19    -0.413216204123E+03    0.93767E-06   -0.28186E-08   827   0.541E-04
   47 T=    71. E= -.41286656E+03 F= -.41321620E+03 E0= -.41319529E+03  EK= 0.34965E+00 SP= 0.00E+00 SK= 0.00E+00
       N       E                     dE             d eps       ncg     rms          rms(c)
RMM:   1    -0.413240204547E+03   -0.23999E-01   -0.10640E+01  4304   0.170E+00    0.962E-01
RMM:   2    -0.413218054001E+03    0.22151E-01   -0.16996E-01  4375   0.200E-01    0.700E-01
RMM:   3    -0.413232481919E+03   -0.14428E-01   -0.28794E-02  5131   0.140E-01    0.599E-01
RMM:   4    -0.413228423299E+03    0.40586E-02   -0.42678E-02  4989   0.184E-01    0.510E-01
RMM:   5    -0.413213868090E+03    0.14555E-01   -0.50629E-03  4558   0.926E-02    0.582E-02
RMM:   6    -0.413213768585E+03    0.99505E-04   -0.88430E-04  5044   0.321E-02    0.307E-02
RMM:   7    -0.413213753202E+03    0.15383E-04   -0.18818E-04  5655   0.136E-02    0.155E-02
RMM:   8    -0.413213755619E+03   -0.24167E-05   -0.11966E-04  5222   0.111E-02    0.125E-02
RMM:   9    -0.413213738514E+03    0.17105E-04   -0.23550E-05  4604   0.622E-03    0.453E-03
RMM:  10    -0.413213735900E+03    0.26138E-05   -0.35797E-06  2782   0.252E-03    0.248E-03
RMM:  11    -0.413213729997E+03    0.59032E-05   -0.15419E-06  2457   0.203E-03    0.138E-03
RMM:  12    -0.413213725997E+03    0.40003E-05   -0.67054E-07  2376   0.144E-03    0.812E-04
RMM:  13    -0.413213721883E+03    0.41135E-05   -0.31384E-07  1910   0.998E-04    0.430E-04
RMM:  14    -0.413213717692E+03    0.41910E-05   -0.15581E-07  1508   0.743E-04    0.235E-04
RMM:  15    -0.413213713906E+03    0.37861E-05   -0.91578E-08  1123   0.632E-04    0.137E-04
RMM:  16    -0.413213711053E+03    0.28531E-05   -0.65283E-08  1043   0.600E-04    0.112E-04
RMM:  17    -0.413213707505E+03    0.35478E-05   -0.60163E-08  1108   0.600E-04    0.740E-05
RMM:  18    -0.413213704844E+03    0.26617E-05   -0.38559E-08   924   0.563E-04    0.576E-05
RMM:  19    -0.413213703933E+03    0.91078E-06   -0.17671E-08   691   0.520E-04
   48 T=    71. E= -.41286684E+03 F= -.41321370E+03 E0= -.41319280E+03  EK= 0.34687E+00 SP= 0.00E+00 SK= 0.00E+00
       N       E                     dE             d eps       ncg     rms          rms(c)
RMM:   1    -0.413240276454E+03   -0.26572E-01   -0.10445E+01  4304   0.182E+00    0.951E-01
RMM:   2    -0.413212818710E+03    0.27458E-01   -0.16850E-01  4439   0.209E-01    0.689E-01
RMM:   3    -0.413234077354E+03   -0.21259E-01   -0.33999E-02  5145   0.157E-01    0.690E-01
RMM:   4    -0.413218649883E+03    0.15427E-01   -0.40995E-02  4969   0.183E-01    0.427E-01
RMM:   5    -0.413208934857E+03    0.97150E-02   -0.40998E-03  4564   0.876E-02    0.616E-02
RMM:   6    -0.413208776246E+03    0.15861E-03   -0.49720E-04  4729   0.288E-02    0.320E-02
RMM:   7    -0.413208777064E+03   -0.81894E-06   -0.28759E-04  5808   0.176E-02    0.217E-02
RMM:   8    -0.413208750586E+03    0.26479E-04   -0.10122E-04  5088   0.114E-02    0.978E-03
RMM:   9    -0.413208743840E+03    0.67452E-05   -0.16265E-05  4555   0.548E-03    0.468E-03
RMM:  10    -0.413208739875E+03    0.39656E-05   -0.21244E-06  2608   0.234E-03    0.249E-03
RMM:  11    -0.413208733817E+03    0.60579E-05   -0.13059E-06  2484   0.188E-03    0.175E-03
RMM:  12    -0.413208730235E+03    0.35818E-05   -0.44100E-07  2379   0.122E-03    0.913E-04
RMM:  13    -0.413208725523E+03    0.47118E-05   -0.29094E-07  2030   0.919E-04    0.439E-04
RMM:  14    -0.413208720059E+03    0.54643E-05   -0.21077E-07  1796   0.795E-04    0.368E-04
RMM:  15    -0.413208715755E+03    0.43036E-05   -0.10333E-07  1114   0.628E-04    0.151E-04
RMM:  16    -0.413208713106E+03    0.26489E-05   -0.65725E-08  1015   0.595E-04    0.898E-05
RMM:  17    -0.413208709086E+03    0.40201E-05   -0.68152E-08  1177   0.615E-04    0.907E-05
RMM:  18    -0.413208707856E+03    0.12302E-05   -0.34371E-08   895   0.547E-04    0.783E-05
RMM:  19    -0.413208706096E+03    0.17603E-05   -0.33662E-08   943   0.546E-04    0.446E-05
RMM:  20    -0.413208704674E+03    0.14215E-05   -0.24012E-08   848   0.521E-04    0.232E-05
RMM:  21    -0.413208704380E+03    0.29472E-06   -0.12321E-08   658   0.487E-04
   49 T=    70. E= -.41286665E+03 F= -.41320870E+03 E0= -.41318781E+03  EK= 0.34205E+00 SP= 0.00E+00 SK= 0.00E+00
       N       E                     dE             d eps       ncg     rms          rms(c)
RMM:   1    -0.413228817074E+03   -0.20112E-01   -0.10188E+01  4303   0.188E+00    0.921E-01
RMM:   2    -0.413206824509E+03    0.21993E-01   -0.16903E-01  4471   0.219E-01    0.690E-01
RMM:   3    -0.413229647103E+03   -0.22823E-01   -0.35338E-02  5145   0.164E-01    0.716E-01
RMM:   4    -0.413211989873E+03    0.17657E-01   -0.42300E-02  4965   0.187E-01    0.420E-01
RMM:   5    -0.413202466477E+03    0.95234E-02   -0.43634E-03  4616   0.907E-02    0.648E-02
RMM:   6    -0.413202273160E+03    0.19332E-03   -0.48173E-04  4696   0.299E-02    0.322E-02
RMM:   7    -0.413202285329E+03   -0.12169E-04   -0.31801E-04  5772   0.187E-02    0.238E-02
[...]
RMM:  14    -0.413164525861E+03   -0.32628E-05   -0.26808E-07  1516   0.775E-04    0.211E-04
RMM:  15    -0.413164530498E+03   -0.46377E-05   -0.35839E-07  1813   0.849E-04    0.151E-04
RMM:  16    -0.413164532547E+03   -0.20487E-05   -0.12111E-07  1236   0.621E-04    0.103E-04
RMM:  17    -0.413164534666E+03   -0.21189E-05   -0.92365E-08  1140   0.599E-04    0.623E-05
RMM:  18    -0.413164535889E+03   -0.12234E-05   -0.46742E-08   913   0.536E-04    0.355E-05
RMM:  19    -0.413164537208E+03   -0.13186E-05   -0.32714E-08   871   0.531E-04    0.383E-05
RMM:  20    -0.413164537476E+03   -0.26808E-06   -0.16778E-08   698   0.500E-04
  139 T=    61. E= -.41286646E+03 F= -.41316454E+03 E0= -.41314382E+03  EK= 0.29808E+00 SP= 0.00E+00 SK= 0.00E+00
       N       E                     dE             d eps       ncg     rms          rms(c)
RMM:   1    -0.413172733727E+03   -0.81965E-02   -0.53052E+00  4269   0.673E-01    0.843E-01
RMM:   2    -0.413169316462E+03    0.34173E-02   -0.67608E-02  4344   0.790E-02    0.608E-01
RMM:   3    -0.413166933079E+03    0.23834E-02   -0.45601E-02  5041   0.811E-02    0.298E-01
RMM:   4    -0.413181227632E+03   -0.14295E-01   -0.24757E-02  5072   0.135E-01    0.567E-01
RMM:   5    -0.413163364057E+03    0.17864E-01   -0.92120E-03  4720   0.970E-02    0.436E-02
RMM:   6    -0.413163355514E+03    0.85431E-05   -0.13956E-03  5538   0.368E-02    0.248E-02
RMM:   7    -0.413163386030E+03   -0.30516E-04   -0.22908E-04  5770   0.141E-02    0.175E-02
RMM:   8    -0.413163395853E+03   -0.98227E-05   -0.45839E-05  5085   0.748E-03    0.741E-03
RMM:   9    -0.413163402092E+03   -0.62398E-05   -0.69356E-06  3004   0.318E-03    0.339E-03
RMM:  10    -0.413163408207E+03   -0.61150E-05   -0.14732E-06  2538   0.183E-03    0.221E-03
RMM:  11    -0.413163415677E+03   -0.74695E-05   -0.13408E-06  2500   0.152E-03    0.108E-03
RMM:  12    -0.413163421034E+03   -0.53570E-05   -0.75773E-07  2243   0.118E-03    0.442E-04
RMM:  13    -0.413163424383E+03   -0.33490E-05   -0.38314E-07  1913   0.916E-04    0.314E-04
RMM:  14    -0.413163427528E+03   -0.31454E-05   -0.26234E-07  1536   0.792E-04    0.197E-04
RMM:  15    -0.413163431993E+03   -0.44650E-05   -0.35346E-07  1831   0.852E-04    0.183E-04
RMM:  16    -0.413163434018E+03   -0.20246E-05   -0.12483E-07  1255   0.631E-04    0.104E-04
RMM:  17    -0.413163436079E+03   -0.20615E-05   -0.99458E-08  1214   0.613E-04    0.465E-05
RMM:  18    -0.413163437121E+03   -0.10411E-05   -0.48224E-08   918   0.536E-04    0.341E-05
RMM:  19    -0.413163438131E+03   -0.10109E-05   -0.31680E-08   855   0.526E-04    0.293E-05
RMM:  20    -0.413163438553E+03   -0.42110E-06   -0.17528E-08   719   0.504E-04
  140 T=    60. E= -.41286627E+03 F= -.41316344E+03 E0= -.41314273E+03  EK= 0.29717E+00 SP= 0.00E+00 SK= 0.00E+00
       N       E                     dE             d eps       ncg     rms          rms(c)
RMM:   1    -0.413171907607E+03   -0.84695E-02   -0.56128E+00  4269   0.691E-01    0.831E-01
RMM:   2    -0.413169711155E+03    0.21965E-02   -0.69314E-02  4337   0.815E-02    0.610E-01
RMM:   3    -0.413166651465E+03    0.30597E-02   -0.44375E-02  4982   0.784E-02    0.288E-01
RMM:   4    -0.413183214150E+03   -0.16563E-01   -0.24697E-02  5085   0.134E-01    0.590E-01
RMM:   5    -0.413163760623E+03    0.19454E-01   -0.99603E-03  4754   0.101E-01    0.445E-02
RMM:   6    -0.413163768608E+03   -0.79851E-05   -0.15600E-03  5624   0.387E-02    0.258E-02
RMM:   7    -0.413163807120E+03   -0.38512E-04   -0.25922E-04  5762   0.147E-02    0.171E-02
RMM:   8    -0.413163822048E+03   -0.14928E-04   -0.45955E-05  5091   0.743E-03    0.744E-03
RMM:   9    -0.413163831381E+03   -0.93333E-05   -0.67498E-06  3043   0.315E-03    0.365E-03
RMM:  10    -0.413163842170E+03   -0.10789E-04   -0.17161E-06  2549   0.192E-03    0.233E-03
RMM:  11    -0.413163852883E+03   -0.10713E-04   -0.12486E-06  2488   0.152E-03    0.112E-03
RMM:  12    -0.413163862576E+03   -0.96926E-05   -0.10073E-06  2406   0.130E-03    0.480E-04
RMM:  13    -0.413163866631E+03   -0.40552E-05   -0.39258E-07  1899   0.922E-04    0.341E-04
RMM:  14    -0.413163870511E+03   -0.38806E-05   -0.26917E-07  1541   0.812E-04    0.195E-04
RMM:  15    -0.413163875973E+03   -0.54612E-05   -0.35267E-07  1931   0.874E-04    0.219E-04
RMM:  16    -0.413163878486E+03   -0.25137E-05   -0.14137E-07  1293   0.642E-04    0.127E-04
RMM:  17    -0.413163880543E+03   -0.20565E-05   -0.99331E-08  1136   0.600E-04    0.532E-05
RMM:  18    -0.413163881698E+03   -0.11551E-05   -0.53513E-08   954   0.554E-04    0.242E-05
RMM:  19    -0.413163882590E+03   -0.89210E-06   -0.34329E-08   869   0.541E-04
  141 T=    61. E= -.41286633E+03 F= -.41316388E+03 E0= -.41314319E+03  EK= 0.29755E+00 SP= 0.00E+00 SK= 0.00E+00
       N       E                     dE             d eps       ncg     rms          rms(c)
RMM:   1    -0.413170456815E+03   -0.65751E-02   -0.59188E+00  4268   0.706E-01    0.838E-01
RMM:   2    -0.413168787152E+03    0.16697E-02   -0.72158E-02  4329   0.835E-02    0.609E-01
RMM:   3    -0.413165059285E+03    0.37279E-02   -0.36531E-02  4948   0.674E-02    0.219E-01
RMM:   4    -0.413184098144E+03   -0.19039E-01   -0.24083E-02  5099   0.132E-01    0.603E-01
RMM:   5    -0.413163289575E+03    0.20809E-01   -0.10158E-02  4778   0.102E-01    0.459E-02
RMM:   6    -0.413163308935E+03   -0.19361E-04   -0.17303E-03  5671   0.406E-02    0.287E-02
RMM:   7    -0.413163344568E+03   -0.35633E-04   -0.29664E-04  5733   0.157E-02    0.181E-02
RMM:   8    -0.413163356602E+03   -0.12034E-04   -0.47741E-05  5145   0.757E-03    0.818E-03
RMM:   9    -0.413163362793E+03   -0.61916E-05   -0.71868E-06  3114   0.321E-03    0.411E-03
RMM:  10    -0.413163371500E+03   -0.87069E-05   -0.19651E-06  2566   0.204E-03    0.255E-03
RMM:  11    -0.413163378724E+03   -0.72234E-05   -0.11754E-06  2497   0.156E-03    0.127E-03
RMM:  12    -0.413163386102E+03   -0.73780E-05   -0.11077E-06  2476   0.141E-03    0.601E-04
RMM:  13    -0.413163389253E+03   -0.31514E-05   -0.44457E-07  2083   0.998E-04    0.398E-04
RMM:  14    -0.413163391419E+03   -0.21661E-05   -0.23480E-07  1525   0.793E-04    0.235E-04
RMM:  15    -0.413163395265E+03   -0.38455E-05   -0.31523E-07  1899   0.858E-04    0.244E-04
RMM:  16    -0.413163397660E+03   -0.23954E-05   -0.16201E-07  1354   0.673E-04    0.167E-04
RMM:  17    -0.413163399113E+03   -0.14526E-05   -0.97662E-08  1118   0.601E-04    0.886E-05
RMM:  18    -0.413163400433E+03   -0.13202E-05   -0.61952E-08  1016   0.580E-04    0.250E-05
RMM:  19    -0.413163401252E+03   -0.81894E-06   -0.39846E-08   937   0.555E-04
  142 T=    60. E= -.41286630E+03 F= -.41316340E+03 E0= -.41314272E+03  EK= 0.29710E+00 SP= 0.00E+00 SK= 0.00E+00
       N       E                     dE             d eps       ncg     rms          rms(c)
RMM:   1    -0.413167895012E+03   -0.44946E-02   -0.62582E+00  4267   0.725E-01    0.833E-01
RMM:   2    -0.413167093504E+03    0.80151E-03   -0.74932E-02  4348   0.817E-02    0.601E-01
RMM:   3    -0.413163041988E+03    0.40515E-02   -0.29663E-02  4952   0.553E-02    0.156E-01
RMM:   4    -0.413179762238E+03   -0.16720E-01   -0.19159E-02  5133   0.117E-01    0.554E-01
RMM:   5    -0.413162150685E+03    0.17612E-01   -0.86446E-03  4808   0.926E-02    0.455E-02
RMM:   6    -0.413162179441E+03   -0.28756E-04   -0.15701E-03  5692   0.387E-02    0.309E-02
RMM:   7    -0.413162205188E+03   -0.25748E-04   -0.29838E-04  5614   0.159E-02    0.182E-02
RMM:   8    -0.413162212797E+03   -0.76085E-05   -0.45529E-05  5136   0.744E-03    0.847E-03
RMM:   9    -0.413162216656E+03   -0.38587E-05   -0.64671E-06  3061   0.305E-03    0.449E-03
RMM:  10    -0.413162223707E+03   -0.70511E-05   -0.19526E-06  2554   0.207E-03    0.266E-03
RMM:  11    -0.413162228923E+03   -0.52160E-05   -0.11413E-06  2500   0.158E-03    0.135E-03
RMM:  12    -0.413162234276E+03   -0.53536E-05   -0.11366E-06  2495   0.146E-03    0.661E-04
RMM:  13    -0.413162236742E+03   -0.24653E-05   -0.48906E-07  2130   0.104E-03    0.409E-04
RMM:  14    -0.413162238135E+03   -0.13934E-05   -0.23630E-07  1587   0.798E-04    0.260E-04
RMM:  15    -0.413162240688E+03   -0.25529E-05   -0.27274E-07  1745   0.820E-04    0.211E-04
RMM:  16    -0.413162242855E+03   -0.21670E-05   -0.20790E-07  1529   0.732E-04    0.173E-04
RMM:  17    -0.413162243489E+03   -0.63370E-06   -0.77344E-08  1045   0.573E-04
  143 T=    60. E= -.41286623E+03 F= -.41316224E+03 E0= -.41314157E+03  EK= 0.29602E+00 SP= 0.00E+00 SK= 0.00E+00
       N       E                     dE             d eps       ncg     rms          rms(c)
RMM:   1    -0.413166681365E+03   -0.44385E-02   -0.66892E+00  4267   0.752E-01    0.817E-01
RMM:   2    -0.413167436555E+03   -0.75519E-03   -0.77822E-02  4351   0.826E-02    0.599E-01
RMM:   3    -0.413163156808E+03    0.42797E-02   -0.26797E-02  4908   0.491E-02    0.136E-01
RMM:   4    -0.413171850980E+03   -0.86942E-02   -0.98340E-03  5139   0.847E-02    0.403E-01
RMM:   5    -0.413162676403E+03    0.91746E-02   -0.45733E-03  4822   0.673E-02    0.418E-02
RMM:   6    -0.413162706437E+03   -0.30034E-04   -0.96561E-04  5609   0.310E-02    0.304E-02
RMM:   7    -0.413162726485E+03   -0.20048E-04   -0.24487E-04  5432   0.147E-02    0.165E-02
RMM:   8    -0.413162733151E+03   -0.66666E-05   -0.34557E-05  4987   0.668E-03    0.784E-03
RMM:   9    -0.413162738251E+03   -0.51000E-05   -0.45644E-06  2835   0.258E-03    0.411E-03
RMM:  10    -0.413162748987E+03   -0.10735E-04   -0.16013E-06  2525   0.190E-03    0.230E-03
RMM:  11    -0.413162757990E+03   -0.90027E-05   -0.11065E-06  2495   0.150E-03    0.114E-03
RMM:  12    -0.413162765954E+03   -0.79639E-05   -0.94237E-07  2419   0.130E-03    0.520E-04
RMM:  13    -0.413162770240E+03   -0.42862E-05   -0.47978E-07  2050   0.981E-04    0.317E-04
RMM:  14    -0.413162772927E+03   -0.26877E-05   -0.25984E-07  1553   0.797E-04    0.228E-04
RMM:  15    -0.413162776325E+03   -0.33976E-05   -0.28126E-07  1782   0.811E-04    0.183E-04
RMM:  16    -0.413162778876E+03   -0.25506E-05   -0.18537E-07  1441   0.697E-04    0.118E-04
RMM:  17    -0.413162779575E+03   -0.69973E-06   -0.74670E-08  1007   0.559E-04
  144 T=    60. E= -.41286636E+03 F= -.41316278E+03 E0= -.41314211E+03  EK= 0.29642E+00 SP= 0.00E+00 SK= 0.00E+00
       N       E                     dE             d eps       ncg     rms          rms(c)
RMM:   1    -0.413164868978E+03   -0.20901E-02   -0.71660E+00  4267   0.771E-01    0.826E-01
RMM:   2    -0.413166604654E+03   -0.17357E-02   -0.82104E-02  4366   0.838E-02    0.601E-01
RMM:   3    -0.413162611187E+03    0.39935E-02   -0.21781E-02  4682   0.478E-02    0.895E-02
RMM:   4    -0.413164943463E+03   -0.23323E-02   -0.27950E-03  5144   0.479E-02    0.215E-01
RMM:   5    -0.413162413409E+03    0.25301E-02   -0.13200E-03  4832   0.363E-02    0.400E-02
RMM:   6    -0.413162447822E+03   -0.34413E-04   -0.48886E-04  5456   0.227E-02    0.305E-02
RMM:   7    -0.413162458087E+03   -0.10265E-04   -0.18825E-04  5048   0.135E-02    0.156E-02
RMM:   8    -0.413162459633E+03   -0.15464E-05   -0.23829E-05  4746   0.572E-03    0.724E-03
RMM:   9    -0.413162463827E+03   -0.41934E-05   -0.48246E-06  2686   0.236E-03    0.302E-03
RMM:  10    -0.413162472792E+03   -0.89651E-05   -0.13020E-06  2516   0.168E-03    0.164E-03
RMM:  11    -0.413162482725E+03   -0.99332E-05   -0.11610E-06  2491   0.142E-03    0.781E-04
RMM:  12    -0.413162488256E+03   -0.55307E-05   -0.66230E-07  2187   0.109E-03    0.331E-04
RMM:  13    -0.413162491564E+03   -0.33080E-05   -0.37014E-07  1879   0.879E-04    0.280E-04
RMM:  14    -0.413162495067E+03   -0.35037E-05   -0.35319E-07  1717   0.828E-04    0.178E-04
RMM:  15    -0.413162497370E+03   -0.23026E-05   -0.22352E-07  1512   0.727E-04    0.103E-04
RMM:  16    -0.413162498753E+03   -0.13827E-05   -0.12802E-07  1255   0.632E-04    0.634E-05
RMM:  17    -0.413162499293E+03   -0.53988E-06   -0.62757E-08  1031   0.547E-04
  145 T=    60. E= -.41286618E+03 F= -.41316250E+03 E0= -.41314184E+03  EK= 0.29632E+00 SP= 0.00E+00 SK= 0.00E+00
       N       E                     dE             d eps       ncg     rms          rms(c)
RMM:   1    -0.413162610407E+03   -0.11165E-03   -0.76097E+00  4265   0.793E-01    0.834E-01
RMM:   2    -0.413164928654E+03   -0.23182E-02   -0.85889E-02  4340   0.885E-02    0.592E-01
RMM:   3    -0.413161664950E+03    0.32637E-02   -0.16867E-02  4620   0.428E-02    0.579E-02
RMM:   4    -0.413161660188E+03    0.47618E-05   -0.34782E-04  5145   0.181E-02    0.422E-02
RMM:   5    -0.413161695228E+03   -0.35040E-04   -0.28857E-04  5063   0.176E-02    0.391E-02
RMM:   6    -0.413161890880E+03   -0.19565E-03   -0.31040E-04  5311   0.161E-02    0.660E-02
RMM:   7    -0.413161677772E+03    0.21311E-03   -0.22330E-04  4951   0.154E-02    0.139E-02
RMM:   8    -0.413161677568E+03    0.20465E-06   -0.33334E-05  4977   0.627E-03    0.621E-03
RMM:   9    -0.413161681185E+03   -0.36175E-05   -0.67128E-06  2711   0.253E-03    0.180E-03
RMM:  10    -0.413161688497E+03   -0.73114E-05   -0.16943E-06  2522   0.169E-03    0.162E-03
RMM:  11    -0.413161693787E+03   -0.52902E-05   -0.12006E-06  2450   0.128E-03    0.454E-04
RMM:  12    -0.413161696147E+03   -0.23599E-05   -0.52831E-07  1945   0.960E-04    0.299E-04
RMM:  13    -0.413161698618E+03   -0.24716E-05   -0.63245E-07  2172   0.101E-03    0.172E-04
RMM:  14    -0.413161699511E+03   -0.89253E-06   -0.23874E-07  1410   0.711E-04
  146 T=    60. E= -.41286625E+03 F= -.41316170E+03 E0= -.41314105E+03  EK= 0.29545E+00 SP= 0.00E+00 SK= 0.00E+00
       N       E                     dE             d eps       ncg     rms          rms(c)
RMM:   1    -0.413161039553E+03    0.65907E-03   -0.80196E+00  4264   0.815E-01    0.815E-01
RMM:   2    -0.413165121387E+03   -0.40818E-02   -0.89996E-02  4363   0.875E-02    0.587E-01
RMM:   3    -0.413162204277E+03    0.29171E-02   -0.14303E-02  4918   0.398E-02    0.663E-02
RMM:   4    -0.413168942318E+03   -0.67380E-02   -0.70609E-03  5162   0.715E-02    0.348E-01
RMM:   5    -0.413162134514E+03    0.68078E-02   -0.34588E-03  4839   0.577E-02    0.428E-02
RMM:   6    -0.413162152230E+03   -0.17716E-04   -0.77622E-04  5603   0.274E-02    0.308E-02
RMM:   7    -0.413162174042E+03   -0.21812E-04   -0.22499E-04  5394   0.135E-02    0.155E-02
RMM:   8    -0.413162176651E+03   -0.26094E-05   -0.27422E-05  4850   0.589E-03    0.705E-03
RMM:   9    -0.413162180107E+03   -0.34555E-05   -0.41748E-06  2748   0.242E-03    0.360E-03
RMM:  10    -0.413162188429E+03   -0.83223E-05   -0.14061E-06  2516   0.179E-03    0.203E-03
RMM:  11    -0.413162196467E+03   -0.80376E-05   -0.10986E-06  2482   0.148E-03    0.108E-03
RMM:  12    -0.413162201922E+03   -0.54550E-05   -0.74710E-07  2308   0.119E-03    0.481E-04
RMM:  13    -0.413162205255E+03   -0.33340E-05   -0.45086E-07  2082   0.963E-04    0.290E-04
RMM:  14    -0.413162207725E+03   -0.24696E-05   -0.30410E-07  1620   0.807E-04    0.222E-04
RMM:  15    -0.413162209588E+03   -0.18628E-05   -0.23542E-07  1533   0.750E-04    0.127E-04
RMM:  16    -0.413162210740E+03   -0.11521E-05   -0.16010E-07  1383   0.677E-04    0.598E-05
RMM:  17    -0.413162211099E+03   -0.35912E-06   -0.76259E-08  1052   0.569E-04
  147 T=    60. E= -.41286648E+03 F= -.41316221E+03 E0= -.41314156E+03  EK= 0.29573E+00 SP= 0.00E+00 SK= 0.00E+00
       N       E                     dE             d eps       ncg     rms          rms(c)
RMM:   1    -0.413159432870E+03    0.27779E-02   -0.85123E+00  4264   0.830E-01    0.821E-01
RMM:   2    -0.413164739485E+03   -0.53066E-02   -0.95381E-02  4352   0.896E-02    0.592E-01
RMM:   3    -0.413162220628E+03    0.25189E-02   -0.12219E-02  4948   0.417E-02    0.794E-02
RMM:   4    -0.413174986326E+03   -0.12766E-01   -0.13279E-02  5154   0.968E-02    0.475E-01
RMM:   5    -0.413162084349E+03    0.12902E-01   -0.64884E-03  4829   0.785E-02    0.449E-02
RMM:   6    -0.413162103776E+03   -0.19426E-04   -0.11924E-03  5681   0.331E-02    0.296E-02
RMM:   7    -0.413162131199E+03   -0.27423E-04   -0.24535E-04  5615   0.138E-02    0.142E-02
RMM:   8    -0.413162138271E+03   -0.70724E-05   -0.31109E-05  4874   0.609E-03    0.662E-03
RMM:   9    -0.413162142547E+03   -0.42763E-05   -0.41503E-06  2854   0.254E-03    0.383E-03
RMM:  10    -0.413162151537E+03   -0.89898E-05   -0.15904E-06  2536   0.190E-03    0.224E-03
RMM:  11    -0.413162159357E+03   -0.78203E-05   -0.11103E-06  2497   0.152E-03    0.116E-03
RMM:  12    -0.413162165538E+03   -0.61800E-05   -0.85744E-07  2433   0.128E-03    0.588E-04
RMM:  13    -0.413162168471E+03   -0.29330E-05   -0.42904E-07  2008   0.961E-04    0.311E-04
RMM:  14    -0.413162170336E+03   -0.18659E-05   -0.26028E-07  1582   0.802E-04    0.220E-04
RMM:  15    -0.413162172276E+03   -0.19398E-05   -0.26611E-07  1652   0.789E-04    0.164E-04
RMM:  16    -0.413162173491E+03   -0.12147E-05   -0.19827E-07  1481   0.715E-04    0.987E-05
RMM:  17    -0.413162173634E+03   -0.14345E-06   -0.79026E-08  1045   0.569E-04
  148 T=    60. E= -.41286614E+03 F= -.41316217E+03 E0= -.41314153E+03  EK= 0.29604E+00 SP= 0.00E+00 SK= 0.00E+00
       N       E                     dE             d eps       ncg     rms          rms(c)
RMM:   1    -0.413157971466E+03    0.42020E-02   -0.89176E+00  4264   0.852E-01    0.838E-01
RMM:   2    -0.413163373456E+03   -0.54020E-02   -0.98394E-02  4333   0.928E-02    0.583E-01
RMM:   3    -0.413161999871E+03    0.13736E-02   -0.10132E-02  4960   0.437E-02    0.113E-01
RMM:   4    -0.413182912063E+03   -0.20912E-01   -0.21889E-02  5149   0.123E-01    0.604E-01
RMM:   5    -0.413161746304E+03    0.21166E-01   -0.10580E-02  4828   0.100E-01    0.496E-02
RMM:   6    -0.413161786573E+03   -0.40269E-04   -0.17949E-03  5712   0.405E-02    0.296E-02
RMM:   7    -0.413161814691E+03   -0.28118E-04   -0.29081E-04  5826   0.147E-02    0.143E-02
RMM:   8    -0.413161820694E+03   -0.60025E-05   -0.38305E-05  5049   0.657E-03    0.670E-03
RMM:   9    -0.413161823008E+03   -0.23138E-05   -0.60097E-06  3049   0.283E-03    0.401E-03
RMM:  10    -0.413161827753E+03   -0.47458E-05   -0.18849E-06  2552   0.202E-03    0.251E-03
RMM:  11    -0.413161831293E+03   -0.35396E-05   -0.11568E-06  2507   0.157E-03    0.129E-03
RMM:  12    -0.413161833845E+03   -0.25518E-05   -0.93182E-07  2484   0.135E-03    0.630E-04
RMM:  13    -0.413161834646E+03   -0.80088E-06   -0.41044E-07  2043   0.973E-04
  149 T=    60. E= -.41286647E+03 F= -.41316183E+03 E0= -.41314119E+03  EK= 0.29536E+00 SP= 0.00E+00 SK= 0.00E+00
       N       E                     dE             d eps       ncg     rms          rms(c)
RMM:   1    -0.413156015643E+03    0.58182E-02   -0.91778E+00  4264   0.862E-01    0.819E-01
RMM:   2    -0.413162888875E+03   -0.68732E-02   -0.10250E-01  4332   0.953E-02    0.577E-01
RMM:   3    -0.413161831958E+03    0.10569E-02   -0.84605E-03  5030   0.419E-02    0.126E-01
RMM:   4    -0.413186667689E+03   -0.24836E-01   -0.26197E-02  5152   0.135E-01    0.657E-01
RMM:   5    -0.413161489934E+03    0.25178E-01   -0.12529E-02  4824   0.109E-01    0.495E-02
RMM:   6    -0.413161538198E+03   -0.48264E-04   -0.20420E-03  5721   0.433E-02    0.262E-02
RMM:   7    -0.413161574745E+03   -0.36547E-04   -0.29475E-04  5883   0.145E-02    0.136E-02
RMM:   8    -0.413161586449E+03   -0.11704E-04   -0.40708E-05  5067   0.660E-03    0.647E-03
RMM:   9    -0.413161590526E+03   -0.40770E-05   -0.70224E-06  3124   0.296E-03    0.369E-03
RMM:  10    -0.413161596851E+03   -0.63243E-05   -0.20131E-06  2550   0.205E-03    0.244E-03
RMM:  11    -0.413161602036E+03   -0.51849E-05   -0.12213E-06  2510   0.161E-03    0.127E-03
RMM:  12    -0.413161605794E+03   -0.37586E-05   -0.93338E-07  2492   0.135E-03    0.586E-04
RMM:  13    -0.413161606998E+03   -0.12033E-05   -0.40562E-07  1993   0.954E-04    0.365E-04
RMM:  14    -0.413161607671E+03   -0.67352E-06   -0.25464E-07  1539   0.804E-04
  150 T=    60. E= -.41286632E+03 F= -.41316161E+03 E0= -.41314096E+03  EK= 0.29529E+00 SP= 0.00E+00 SK= 0.00E+00
