       N       E                     dE             d eps       ncg     rms          rms(c)
RMM:   1     0.220117169333E+04    0.22012E+04   -0.52442E+04  2132   0.654E+02
RMM:   2     0.705711925543E+03   -0.14955E+04   -0.16260E+04  2132   0.177E+02
RMM:   3     0.137687153227E+03   -0.56802E+03   -0.65701E+03  2132   0.117E+02
RMM:   4    -0.159272158046E+03   -0.29696E+03   -0.27842E+03  2132   0.936E+01
RMM:   5    -0.287501582066E+03   -0.12823E+03   -0.11445E+03  2132   0.595E+01
RMM:   6    -0.349896500023E+03   -0.62395E+02   -0.55144E+02  2132   0.423E+01
RMM:   7    -0.382803520881E+03   -0.32907E+02   -0.30452E+02  2132   0.293E+01
RMM:   8    -0.404250196479E+03   -0.21447E+02   -0.18410E+02  2132   0.233E+01
RMM:   9    -0.436010904836E+03   -0.31761E+02   -0.30683E+02  6099   0.173E+01
RMM:  10    -0.441288012060E+03   -0.52771E+01   -0.63179E+01  6394   0.539E+00
RMM:  11    -0.442499706157E+03   -0.12117E+01   -0.11134E+01  6219   0.173E+00
RMM:  12    -0.442877791677E+03   -0.37809E+00   -0.26471E+00  6366   0.602E-01    0.134E+02
RMM:  13    -0.425556537003E+03    0.17321E+02   -0.80726E+01  4673   0.119E+01    0.712E+01
RMM:  14    -0.499112739723E+03   -0.73556E+02   -0.53720E+02  5420   0.232E+01    0.307E+01
RMM:  15    -0.416585037756E+03    0.82528E+02   -0.20078E+02  5101   0.164E+01    0.747E+00
RMM:  16    -0.414021333458E+03    0.25637E+01   -0.39783E+01  6093   0.614E+00    0.430E+00
RMM:  17    -0.413209969208E+03    0.81136E+00   -0.25682E+00  5413   0.191E+00    0.244E+00
RMM:  18    -0.413178143921E+03    0.31825E-01   -0.74926E-01  5978   0.886E-01    0.170E+00
RMM:  19    -0.413170273309E+03    0.78706E-02   -0.27383E-01  5691   0.566E-01    0.893E-01
RMM:  20    -0.413189417036E+03   -0.19144E-01   -0.29030E-01  5578   0.559E-01    0.629E-01
RMM:  21    -0.413168270331E+03    0.21147E-01   -0.35427E-02  4994   0.243E-01    0.291E-01
RMM:  22    -0.413165091532E+03    0.31788E-02   -0.22282E-02  5904   0.142E-01    0.135E-01
RMM:  23    -0.413164287641E+03    0.80389E-03   -0.55641E-03  6026   0.660E-02    0.852E-02
RMM:  24    -0.413163184067E+03    0.11036E-02   -0.16715E-03  5319   0.418E-02    0.512E-02
RMM:  25    -0.413162716229E+03    0.46784E-03   -0.86264E-04  5059   0.291E-02    0.405E-02
RMM:  26    -0.413162865913E+03   -0.14968E-03   -0.10332E-03  5803   0.331E-02    0.340E-02
RMM:  27    -0.413163303989E+03   -0.43808E-03   -0.19664E-04  4563   0.202E-02    0.193E-02
RMM:  28    -0.413163753797E+03   -0.44981E-03   -0.15547E-04  5143   0.176E-02    0.969E-03
RMM:  29    -0.413164149791E+03   -0.39599E-03   -0.11431E-04  4670   0.156E-02    0.476E-03
RMM:  30    -0.413164387685E+03   -0.23789E-03   -0.77778E-05  4297   0.104E-02    0.432E-03
RMM:  31    -0.413164530459E+03   -0.14277E-03   -0.55821E-05  3230   0.727E-03    0.369E-03
RMM:  32    -0.413164559101E+03   -0.28642E-04   -0.22161E-05  2991   0.326E-03    0.170E-03
RMM:  33    -0.413164572158E+03   -0.13057E-04   -0.87304E-06  2800   0.227E-03    0.669E-04
RMM:  34    -0.413164575921E+03   -0.37633E-05   -0.49672E-06  2663   0.174E-03    0.688E-04
RMM:  35    -0.413164576085E+03   -0.16321E-06   -0.23310E-06  2378   0.128E-03
    1 T=    61. E= -.41286674E+03 F= -.41316458E+03 E0= -.41314208E+03  EK= 0.29783E+00 SP= 0.00E+00 SK= 0.00E+00
       N       E                     dE             d eps       ncg     rms          rms(c)
RMM:   1    -0.413155967459E+03    0.86085E-02   -0.10837E+01  3999   0.688E-01    0.886E-01
RMM:   2    -0.413166107854E+03   -0.10140E-01   -0.13333E-01  3870   0.988E-02    0.642E-01
RMM:   3    -0.413164269760E+03    0.18381E-02   -0.73238E-03  4569   0.353E-02    0.137E-01
RMM:   4    -0.413174453726E+03   -0.10184E-01   -0.10802E-02  5224   0.865E-02    0.425E-01
RMM:   5    -0.413164129736E+03    0.10324E-01   -0.51539E-03  4868   0.708E-02    0.288E-02
RMM:   6    -0.413164185931E+03   -0.56195E-04   -0.86585E-04  5818   0.282E-02    0.195E-02
RMM:   7    -0.413164194565E+03   -0.86338E-05   -0.14603E-04  5627   0.110E-02    0.112E-02
RMM:   8    -0.413164200186E+03   -0.56209E-05   -0.17647E-05  3875   0.451E-03    0.471E-03
RMM:   9    -0.413164205201E+03   -0.50155E-05   -0.36378E-06  2787   0.229E-03    0.367E-03
RMM:  10    -0.413164210536E+03   -0.53348E-05   -0.10984E-06  2508   0.155E-03    0.231E-03
RMM:  11    -0.413164218282E+03   -0.77463E-05   -0.11634E-06  2511   0.148E-03    0.870E-04
RMM:  12    -0.413164222538E+03   -0.42553E-05   -0.65534E-07  2199   0.109E-03    0.385E-04
RMM:  13    -0.413164223352E+03   -0.81396E-06   -0.33327E-07  1550   0.783E-04
    2 T=    61. E= -.41286641E+03 F= -.41316422E+03 E0= -.41314172E+03  EK= 0.29782E+00 SP= 0.00E+00 SK= 0.00E+00
       N       E                     dE             d eps       ncg     rms          rms(c)
RMM:   1    -0.413157110989E+03    0.71115E-02   -0.10868E+01  4192   0.691E-01    0.910E-01
RMM:   2    -0.413166133948E+03   -0.90230E-02   -0.13084E-01  3870   0.950E-02    0.635E-01
RMM:   3    -0.413165003743E+03    0.11302E-02   -0.77162E-03  4842   0.380E-02    0.156E-01
RMM:   4    -0.413191256676E+03   -0.26253E-01   -0.26680E-02  5187   0.137E-01    0.676E-01
RMM:   5    -0.413164636775E+03    0.26620E-01   -0.12861E-02  4829   0.113E-01    0.392E-02
RMM:   6    -0.413164810229E+03   -0.17345E-03   -0.21773E-03  5808   0.451E-02    0.234E-02
RMM:   7    -0.413164817607E+03   -0.73779E-05   -0.28648E-04  5892   0.147E-02    0.156E-02
RMM:   8    -0.413164816627E+03    0.97989E-06   -0.43334E-05  4893   0.652E-03    0.777E-03
RMM:   9    -0.413164815635E+03    0.99214E-06   -0.90622E-06  3453   0.338E-03
    3 T=    61. E= -.41286673E+03 F= -.41316482E+03 E0= -.41314232E+03  EK= 0.29808E+00 SP= 0.00E+00 SK= 0.00E+00
       N       E                     dE             d eps       ncg     rms          rms(c)
RMM:   1    -0.413156573982E+03    0.82426E-02   -0.10780E+01  4227   0.692E-01    0.893E-01
RMM:   2    -0.413166194059E+03   -0.96201E-02   -0.12984E-01  4295   0.986E-02    0.630E-01
RMM:   3    -0.413171584112E+03   -0.53901E-02   -0.13041E-02  5195   0.839E-02    0.382E-01
RMM:   4    -0.413183675266E+03   -0.12091E-01   -0.34664E-02  5104   0.161E-01    0.578E-01
RMM:   5    -0.413164619842E+03    0.19055E-01   -0.70435E-03  4673   0.967E-02    0.539E-02
RMM:   6    -0.413164572569E+03    0.47273E-04   -0.12708E-03  5375   0.363E-02    0.222E-02
RMM:   7    -0.413164587069E+03   -0.14500E-04   -0.23783E-04  5997   0.148E-02    0.143E-02
RMM:   8    -0.413164587548E+03   -0.47889E-06   -0.41119E-05  5188   0.694E-03    0.663E-03
RMM:   9    -0.413164587641E+03   -0.92608E-07   -0.95403E-06  3650   0.388E-03
    4 T=    61. E= -.41286648E+03 F= -.41316459E+03 E0= -.41314210E+03  EK= 0.29811E+00 SP= 0.00E+00 SK= 0.00E+00
       N       E                     dE             d eps       ncg     rms          rms(c)
RMM:   1    -0.413156590492E+03    0.79971E-02   -0.10827E+01  4237   0.705E-01    0.883E-01
RMM:   2    -0.413166643585E+03   -0.10053E-01   -0.13363E-01  4142   0.973E-02    0.641E-01
RMM:   3    -0.413164988248E+03    0.16553E-02   -0.73715E-03  4880   0.382E-02    0.149E-01
RMM:   4    -0.413191262532E+03   -0.26274E-01   -0.26704E-02  5163   0.137E-01    0.677E-01
RMM:   5    -0.413164561604E+03    0.26701E-01   -0.12963E-02  4827   0.113E-01    0.361E-02
RMM:   6    -0.413164729406E+03   -0.16780E-03   -0.20647E-03  5866   0.442E-02    0.203E-02
RMM:   7    -0.413164746048E+03   -0.16642E-04   -0.23053E-04  5893   0.135E-02    0.128E-02
RMM:   8    -0.413164753405E+03   -0.73570E-05   -0.48454E-05  4948   0.659E-03    0.835E-03
RMM:   9    -0.413164755202E+03   -0.17969E-05   -0.10514E-05  3747   0.372E-03    0.581E-03
RMM:  10    -0.413164759972E+03   -0.47697E-05   -0.16885E-06  2565   0.203E-03    0.375E-03
RMM:  11    -0.413164767191E+03   -0.72191E-05   -0.21830E-06  2617   0.215E-03    0.183E-03
RMM:  12    -0.413164772232E+03   -0.50413E-05   -0.11129E-06  2506   0.161E-03    0.621E-04
RMM:  13    -0.413164772817E+03   -0.58532E-06   -0.33548E-07  1999   0.958E-04
    5 T=    61. E= -.41286657E+03 F= -.41316477E+03 E0= -.41314230E+03  EK= 0.29820E+00 SP= 0.00E+00 SK= 0.00E+00
       N       E                     dE             d eps       ncg     rms          rms(c)
RMM:   1    -0.413157445529E+03    0.73267E-02   -0.10864E+01  4249   0.704E-01    0.905E-01
RMM:   2    -0.413166751689E+03   -0.93062E-02   -0.13089E-01  4049   0.967E-02    0.637E-01
RMM:   3    -0.413165505991E+03    0.12457E-02   -0.75742E-03  4794   0.382E-02    0.154E-01
RMM:   4    -0.413190532857E+03   -0.25027E-01   -0.25370E-02  5164   0.133E-01    0.661E-01
RMM:   5    -0.413165100364E+03    0.25432E-01   -0.12399E-02  4826   0.110E-01    0.378E-02
RMM:   6    -0.413165261832E+03   -0.16147E-03   -0.20355E-03  5802   0.434E-02    0.228E-02
RMM:   7    -0.413165268023E+03   -0.61905E-05   -0.26841E-04  5851   0.143E-02    0.152E-02
RMM:   8    -0.413165266704E+03    0.13192E-05   -0.41977E-05  4840   0.645E-03    0.765E-03
RMM:   9    -0.413165265534E+03    0.11699E-05   -0.88764E-06  3431   0.339E-03    0.549E-03
RMM:  10    -0.413165266233E+03   -0.69871E-06   -0.14723E-06  2549   0.189E-03
    6 T=    61. E= -.41286690E+03 F= -.41316527E+03 E0= -.41314280E+03  EK= 0.29837E+00 SP= 0.00E+00 SK= 0.00E+00
       N       E                     dE             d eps       ncg     rms          rms(c)
RMM:   1    -0.413157154205E+03    0.81113E-02   -0.10804E+01  4258   0.707E-01    0.901E-01
RMM:   2    -0.413166202284E+03   -0.90481E-02   -0.13010E-01  4175   0.963E-02    0.630E-01
RMM:   3    -0.413166969428E+03   -0.76714E-03   -0.90207E-03  5110   0.557E-02    0.238E-01
RMM:   4    -0.413203043432E+03   -0.36074E-01   -0.45374E-02  5138   0.178E-01    0.807E-01
RMM:   5    -0.413164802218E+03    0.38241E-01   -0.17111E-02  4776   0.135E-01    0.525E-02
RMM:   6    -0.413164944573E+03   -0.14236E-03   -0.27865E-03  5660   0.525E-02    0.224E-02
RMM:   7    -0.413164964108E+03   -0.19535E-04   -0.36934E-04  6019   0.160E-02    0.155E-02
RMM:   8    -0.413164963670E+03    0.43807E-06   -0.54789E-05  5199   0.729E-03    0.756E-03
RMM:   9    -0.413164960591E+03    0.30784E-05   -0.10034E-05  3387   0.349E-03    0.357E-03
RMM:  10    -0.413164960565E+03    0.26343E-07   -0.23512E-06  2585   0.209E-03
    7 T=    61. E= -.41286655E+03 F= -.41316496E+03 E0= -.41314251E+03  EK= 0.29841E+00 SP= 0.00E+00 SK= 0.00E+00
       N       E                     dE             d eps       ncg     rms          rms(c)
RMM:   1    -0.413157332902E+03    0.76277E-02   -0.10804E+01  4263   0.714E-01    0.882E-01
RMM:   2    -0.413167349379E+03   -0.10016E-01   -0.13267E-01  4145   0.946E-02    0.639E-01
RMM:   3    -0.413167229316E+03    0.12006E-03   -0.85242E-03  5102   0.534E-02    0.220E-01
RMM:   4    -0.413209470481E+03   -0.42241E-01   -0.50335E-02  5145   0.187E-01    0.863E-01
RMM:   5    -0.413165360174E+03    0.44110E-01   -0.20119E-02  4791   0.144E-01    0.517E-02
RMM:   6    -0.413165549802E+03   -0.18963E-03   -0.32365E-03  5704   0.563E-02    0.216E-02
RMM:   7    -0.413165578153E+03   -0.28351E-04   -0.42169E-04  6010   0.170E-02    0.162E-02
RMM:   8    -0.413165583007E+03   -0.48547E-05   -0.62429E-05  5218   0.749E-03    0.848E-03
RMM:   9    -0.413165584623E+03   -0.16156E-05   -0.11480E-05  3514   0.368E-03    0.424E-03
RMM:  10    -0.413165588425E+03   -0.38024E-05   -0.26883E-06  2609   0.216E-03    0.275E-03
RMM:  11    -0.413165592277E+03   -0.38517E-05   -0.11871E-06  2526   0.163E-03    0.138E-03
RMM:  12    -0.413165595446E+03   -0.31685E-05   -0.84146E-07  2426   0.134E-03    0.340E-04
RMM:  13    -0.413165596714E+03   -0.12680E-05   -0.40255E-07  1991   0.977E-04    0.247E-04
RMM:  14    -0.413165597468E+03   -0.75460E-06   -0.24440E-07  1509   0.801E-04
    8 T=    61. E= -.41286678E+03 F= -.41316560E+03 E0= -.41314317E+03  EK= 0.29881E+00 SP= 0.00E+00 SK= 0.00E+00
       N       E                     dE             d eps       ncg     rms          rms(c)
RMM:   1    -0.413157727261E+03    0.78695E-02   -0.10865E+01  4279   0.717E-01    0.900E-01
RMM:   2    -0.413167330256E+03   -0.96030E-02   -0.13190E-01  4182   0.997E-02    0.640E-01
RMM:   3    -0.413166062378E+03    0.12679E-02   -0.76514E-03  4884   0.407E-02    0.157E-01
RMM:   4    -0.413197278503E+03   -0.31216E-01   -0.32028E-02  5155   0.149E-01    0.736E-01
RMM:   5    -0.413165501233E+03    0.31777E-01   -0.15453E-02  4806   0.123E-01    0.411E-02
RMM:   6    -0.413165695197E+03   -0.19396E-03   -0.25169E-03  5761   0.485E-02    0.233E-02
RMM:   7    -0.413165706593E+03   -0.11396E-04   -0.32678E-04  5898   0.154E-02    0.159E-02
RMM:   8    -0.413165706291E+03    0.30184E-06   -0.47702E-05  4954   0.673E-03    0.813E-03
RMM:   9    -0.413165705118E+03    0.11727E-05   -0.10287E-05  3531   0.354E-03    0.557E-03
RMM:  10    -0.413165706059E+03   -0.94023E-06   -0.17808E-06  2563   0.197E-03
    9 T=    61. E= -.41286661E+03 F= -.41316571E+03 E0= -.41314330E+03  EK= 0.29910E+00 SP= 0.00E+00 SK= 0.00E+00
       N       E                     dE             d eps       ncg     rms          rms(c)
RMM:   1    -0.413160510206E+03    0.51949E-02   -0.10870E+01  4294   0.746E-01    0.908E-01
RMM:   2    -0.413167020372E+03   -0.65102E-02   -0.13395E-01  4255   0.987E-02    0.633E-01
RMM:   3    -0.413168284490E+03   -0.12641E-02   -0.95458E-03  5108   0.609E-02    0.261E-01
RMM:   4    -0.413200813445E+03   -0.32529E-01   -0.43964E-02  5127   0.176E-01    0.776E-01
RMM:   5    -0.413165658207E+03    0.35155E-01   -0.15462E-02  4757   0.129E-01    0.530E-02
RMM:   6    -0.413165781712E+03   -0.12350E-03   -0.25802E-03  5653   0.503E-02    0.226E-02
RMM:   7    -0.413165800467E+03   -0.18756E-04   -0.34709E-04  6020   0.158E-02    0.153E-02
RMM:   8    -0.413165798770E+03    0.16974E-05   -0.53094E-05  5214   0.732E-03    0.743E-03
RMM:   9    -0.413165794087E+03    0.46830E-05   -0.95428E-06  3327   0.347E-03    0.336E-03
RMM:  10    -0.413165792972E+03    0.11148E-05   -0.22019E-06  2572   0.207E-03    0.228E-03
RMM:  11    -0.413165791411E+03    0.15611E-05   -0.11094E-06  2519   0.161E-03    0.120E-03
RMM:  12    -0.413165789869E+03    0.15422E-05   -0.63216E-07  2344   0.123E-03    0.406E-04
RMM:  13    -0.413165789074E+03    0.79532E-06   -0.32285E-07  1914   0.907E-04
   10 T=    61. E= -.41286647E+03 F= -.41316579E+03 E0= -.41314340E+03  EK= 0.29932E+00 SP= 0.00E+00 SK= 0.00E+00
       N       E                     dE             d eps       ncg     rms          rms(c)
RMM:   1    -0.413158334611E+03    0.74553E-02   -0.10792E+01  4286   0.724E-01    0.883E-01
RMM:   2    -0.413168309641E+03   -0.99750E-02   -0.13180E-01  4206   0.962E-02    0.636E-01
RMM:   3    -0.413166930919E+03    0.13787E-02   -0.74035E-03  4899   0.414E-02    0.157E-01
RMM:   4    -0.413199130073E+03   -0.32199E-01   -0.33179E-02  5151   0.151E-01    0.748E-01
RMM:   5    -0.413166332197E+03    0.32798E-01   -0.16042E-02  4805   0.125E-01    0.409E-02
RMM:   6    -0.413166525212E+03   -0.19302E-03   -0.25262E-03  5767   0.490E-02    0.232E-02
RMM:   7    -0.413166537488E+03   -0.12276E-04   -0.32733E-04  5869   0.155E-02    0.159E-02
RMM:   8    -0.413166538472E+03   -0.98444E-06   -0.49969E-05  4982   0.690E-03    0.829E-03
RMM:   9    -0.413166537846E+03    0.62646E-06   -0.10950E-05  3596   0.366E-03    0.558E-03
RMM:  10    -0.413166539490E+03   -0.16444E-05   -0.18924E-06  2569   0.201E-03    0.355E-03
RMM:  11    -0.413166541852E+03   -0.23615E-05   -0.17378E-06  2560   0.196E-03    0.155E-03
RMM:  12    -0.413166543244E+03   -0.13924E-05   -0.97457E-07  2485   0.152E-03    0.568E-04
RMM:  13    -0.413166543382E+03   -0.13779E-06   -0.32251E-07  2033   0.961E-04
   11 T=    61. E= -.41286682E+03 F= -.41316654E+03 E0= -.41314418E+03  EK= 0.29973E+00 SP= 0.00E+00 SK= 0.00E+00
       N       E                     dE             d eps       ncg     rms          rms(c)
RMM:   1    -0.413158392532E+03    0.81507E-02   -0.10869E+01  4292   0.731E-01    0.895E-01
RMM:   2    -0.413168188260E+03   -0.97957E-02   -0.13328E-01  4221   0.983E-02    0.643E-01
RMM:   3    -0.413166748097E+03    0.14402E-02   -0.75608E-03  4846   0.400E-02    0.152E-01
RMM:   4    -0.413195422030E+03   -0.28674E-01   -0.29368E-02  5151   0.142E-01    0.706E-01
RMM:   5    -0.413166271406E+03    0.29151E-01   -0.14286E-02  4806   0.118E-01    0.388E-02
RMM:   6    -0.413166451294E+03   -0.17989E-03   -0.22874E-03  5796   0.462E-02    0.226E-02
RMM:   7    -0.413166461603E+03   -0.10309E-04   -0.29091E-04  5866   0.148E-02    0.154E-02
RMM:   8    -0.413166461986E+03   -0.38301E-06   -0.47474E-05  4923   0.676E-03    0.819E-03
RMM:   9    -0.413166460916E+03    0.10698E-05   -0.10091E-05  3533   0.359E-03    0.566E-03
RMM:  10    -0.413166462159E+03   -0.12429E-05   -0.16826E-06  2555   0.196E-03    0.362E-03
RMM:  11    -0.413166463995E+03   -0.18356E-05   -0.18304E-06  2573   0.202E-03    0.158E-03
RMM:  12    -0.413166464918E+03   -0.92338E-06   -0.93827E-07  2479   0.152E-03
   12 T=    61. E= -.41286659E+03 F= -.41316646E+03 E0= -.41314413E+03  EK= 0.29988E+00 SP= 0.00E+00 SK= 0.00E+00
       N       E                     dE             d eps       ncg     rms          rms(c)
RMM:   1    -0.413160067263E+03    0.63967E-02   -0.10882E+01  4296   0.747E-01    0.913E-01
RMM:   2    -0.413168258120E+03   -0.81909E-02   -0.13052E-01  4228   0.948E-02    0.634E-01
RMM:   3    -0.413167394020E+03    0.86410E-03   -0.78200E-03  4875   0.385E-02    0.160E-01
RMM:   4    -0.413195913576E+03   -0.28520E-01   -0.29192E-02  5144   0.142E-01    0.704E-01
RMM:   5    -0.413166923156E+03    0.28990E-01   -0.14205E-02  4806   0.117E-01    0.402E-02
RMM:   6    -0.413167100180E+03   -0.17702E-03   -0.23228E-03  5803   0.462E-02    0.238E-02
RMM:   7    -0.413167102933E+03   -0.27536E-05   -0.28665E-04  5870   0.149E-02    0.157E-02
RMM:   8    -0.413167097603E+03    0.53300E-05   -0.50963E-05  4944   0.698E-03    0.866E-03
RMM:   9    -0.413167091973E+03    0.56297E-05   -0.10590E-05  3643   0.370E-03    0.609E-03
RMM:  10    -0.413167089134E+03    0.28395E-05   -0.16727E-06  2552   0.201E-03    0.388E-03
RMM:  11    -0.413167085287E+03    0.38472E-05   -0.19176E-06  2584   0.209E-03    0.174E-03
RMM:  12    -0.413167081990E+03    0.32965E-05   -0.98152E-07  2487   0.158E-03    0.648E-04
RMM:  13    -0.413167081654E+03    0.33640E-06   -0.32120E-07  2075   0.970E-04
   13 T=    61. E= -.41286679E+03 F= -.41316708E+03 E0= -.41314478E+03  EK= 0.30029E+00 SP= 0.00E+00 SK= 0.00E+00
       N       E                     dE             d eps       ncg     rms          rms(c)
RMM:   1    -0.413159588664E+03    0.74933E-02   -0.10789E+01  4294   0.733E-01    0.887E-01
RMM:   2    -0.413169308046E+03   -0.97194E-02   -0.13157E-01  4230   0.947E-02    0.634E-01
RMM:   3    -0.413168004214E+03    0.13038E-02   -0.74416E-03  4841   0.396E-02    0.155E-01
RMM:   4    -0.413196544400E+03   -0.28540E-01   -0.29269E-02  5145   0.142E-01    0.704E-01
RMM:   5    -0.413167535216E+03    0.29009E-01   -0.14212E-02  4807   0.117E-01    0.391E-02
RMM:   6    -0.413167715084E+03   -0.17987E-03   -0.23102E-03  5802   0.461E-02    0.229E-02
RMM:   7    -0.413167721825E+03   -0.67411E-05   -0.29004E-04  5856   0.148E-02    0.155E-02
RMM:   8    -0.413167719457E+03    0.23680E-05   -0.48393E-05  4920   0.685E-03    0.828E-03
RMM:   9    -0.413167716555E+03    0.29027E-05   -0.10290E-05  3561   0.364E-03    0.577E-03
RMM:  10    -0.413167716249E+03    0.30620E-06   -0.16840E-06  2551   0.197E-03
   14 T=    61. E= -.41286687E+03 F= -.41316772E+03 E0= -.41314545E+03  EK= 0.30084E+00 SP= 0.00E+00 SK= 0.00E+00
       N       E                     dE             d eps       ncg     rms          rms(c)
RMM:   1    -0.413160238539E+03    0.74780E-02   -0.10886E+01  4303   0.759E-01    0.891E-01
RMM:   2    -0.413169847775E+03   -0.96092E-02   -0.13534E-01  4275   0.100E-01    0.646E-01
RMM:   3    -0.413170306657E+03   -0.45888E-03   -0.93846E-03  5102   0.603E-02    0.255E-01
RMM:   4    -0.413208003203E+03   -0.37697E-01   -0.49676E-02  5116   0.186E-01    0.827E-01
RMM:   5    -0.413167603317E+03    0.40400E-01   -0.17938E-02  4753   0.137E-01    0.530E-02
RMM:   6    -0.413167746642E+03   -0.14332E-03   -0.28956E-03  5664   0.533E-02    0.213E-02
RMM:   7    -0.413167770689E+03   -0.24047E-04   -0.38491E-04  6012   0.162E-02    0.154E-02
RMM:   8    -0.413167773258E+03   -0.25689E-05   -0.57484E-05  5212   0.743E-03    0.774E-03
RMM:   9    -0.413167772353E+03    0.90508E-06   -0.10831E-05  3414   0.361E-03    0.350E-03
RMM:  10    -0.413167773792E+03   -0.14392E-05   -0.25637E-06  2595   0.212E-03    0.234E-03
RMM:  11    -0.413167775106E+03   -0.13143E-05   -0.11366E-06  2513   0.159E-03    0.122E-03
RMM:  12    -0.413167775823E+03   -0.71639E-06   -0.69638E-07  2339   0.124E-03
   15 T=    61. E= -.41286647E+03 F= -.41316778E+03 E0= -.41314554E+03  EK= 0.30131E+00 SP= 0.00E+00 SK= 0.00E+00
       N       E                     dE             d eps       ncg     rms          rms(c)
RMM:   1    -0.413161281399E+03    0.64937E-02   -0.10914E+01  4297   0.748E-01    0.915E-01
RMM:   2    -0.413170101179E+03   -0.88198E-02   -0.13131E-01  4247   0.988E-02    0.638E-01
RMM:   3    -0.413169208822E+03    0.89236E-03   -0.80283E-03  4945   0.416E-02    0.169E-01
RMM:   4    -0.413205330467E+03   -0.36122E-01   -0.37706E-02  5147   0.161E-01    0.790E-01
RMM:   5    -0.413168535245E+03    0.36795E-01   -0.17949E-02  4800   0.132E-01    0.445E-02
RMM:   6    -0.413168741614E+03   -0.20637E-03   -0.29230E-03  5775   0.522E-02    0.254E-02
RMM:   7    -0.413168747633E+03   -0.60183E-05   -0.36933E-04  5892   0.165E-02    0.174E-02
RMM:   8    -0.413168742003E+03    0.56301E-05   -0.58089E-05  5051   0.741E-03    0.936E-03
RMM:   9    -0.413168735330E+03    0.66722E-05   -0.12079E-05  3714   0.387E-03    0.619E-03
RMM:  10    -0.413168731523E+03    0.38073E-05   -0.21617E-06  2587   0.212E-03    0.391E-03
RMM:  11    -0.413168727157E+03    0.43657E-05   -0.16936E-06  2551   0.200E-03    0.176E-03
RMM:  12    -0.413168722937E+03    0.42202E-05   -0.10864E-06  2493   0.165E-03    0.604E-04
RMM:  13    -0.413168722284E+03    0.65332E-06   -0.36458E-07  2169   0.105E-03
   16 T=    61. E= -.41286667E+03 F= -.41316872E+03 E0= -.41314652E+03  EK= 0.30205E+00 SP= 0.00E+00 SK= 0.00E+00
       N       E                     dE             d eps       ncg     rms          rms(c)
RMM:   1    -0.413161175890E+03    0.75470E-02   -0.10827E+01  4297   0.746E-01    0.894E-01
RMM:   2    -0.413170803276E+03   -0.96274E-02   -0.13190E-01  4254   0.968E-02    0.634E-01
RMM:   3    -0.413169477804E+03    0.13255E-02   -0.75613E-03  4887   0.408E-02    0.160E-01
RMM:   4    -0.413200949455E+03   -0.31472E-01   -0.32414E-02  5136   0.149E-01    0.738E-01
RMM:   5    -0.413168974847E+03    0.31975E-01   -0.15710E-02  4808   0.123E-01    0.409E-02
RMM:   6    -0.413169155079E+03   -0.18023E-03   -0.25105E-03  5800   0.484E-02    0.238E-02
RMM:   7    -0.413169160857E+03   -0.57788E-05   -0.31422E-04  5857   0.155E-02    0.161E-02
RMM:   8    -0.413169156880E+03    0.39772E-05   -0.53132E-05  4990   0.712E-03    0.876E-03
RMM:   9    -0.413169151807E+03    0.50734E-05   -0.11297E-05  3672   0.378E-03    0.601E-03
RMM:  10    -0.413169149476E+03    0.23313E-05   -0.18470E-06  2559   0.204E-03    0.383E-03
RMM:  11    -0.413169146336E+03    0.31393E-05   -0.18935E-06  2568   0.209E-03    0.170E-03
RMM:  12    -0.413169143529E+03    0.28076E-05   -0.98168E-07  2483   0.159E-03    0.629E-04
RMM:  13    -0.413169143198E+03    0.33042E-06   -0.32459E-07  2080   0.982E-04
   17 T=    62. E= -.41286653E+03 F= -.41316914E+03 E0= -.41314698E+03  EK= 0.30261E+00 SP= 0.00E+00 SK= 0.00E+00
       N       E                     dE             d eps       ncg     rms          rms(c)
RMM:   1    -0.413161784281E+03    0.73592E-02   -0.10904E+01  4297   0.769E-01    0.889E-01
RMM:   2    -0.413171802212E+03   -0.10018E-01   -0.13493E-01  4268   0.101E-01    0.646E-01
RMM:   3    -0.413170073170E+03    0.17290E-02   -0.76164E-03  4875   0.410E-02    0.155E-01
RMM:   4    -0.413202289981E+03   -0.32217E-01   -0.33398E-02  5144   0.152E-01    0.747E-01
RMM:   5    -0.413169476045E+03    0.32814E-01   -0.16085E-02  4797   0.125E-01    0.409E-02
RMM:   6    -0.413169664467E+03   -0.18842E-03   -0.26104E-03  5797   0.491E-02    0.233E-02
RMM:   7    -0.413169674449E+03   -0.99826E-05   -0.31789E-04  5867   0.155E-02    0.159E-02
RMM:   8    -0.413169673897E+03    0.55206E-06   -0.53636E-05  5008   0.712E-03    0.875E-03
RMM:   9    -0.413169671459E+03    0.24377E-05   -0.11697E-05  3727   0.383E-03    0.589E-03
RMM:  10    -0.413169671793E+03   -0.33339E-06   -0.19502E-06  2564   0.206E-03
   18 T=    62. E= -.41286645E+03 F= -.41316967E+03 E0= -.41314755E+03  EK= 0.30322E+00 SP= 0.00E+00 SK= 0.00E+00
       N       E                     dE             d eps       ncg     rms          rms(c)
RMM:   1    -0.413163232250E+03    0.64392E-02   -0.10946E+01  4305   0.756E-01    0.913E-01
RMM:   2    -0.413172379038E+03   -0.91468E-02   -0.13279E-01  4299   0.992E-02    0.642E-01
RMM:   3    -0.413174095116E+03   -0.17161E-02   -0.10219E-02  5109   0.653E-02    0.279E-01
RMM:   4    -0.413204326749E+03   -0.30232E-01   -0.44155E-02  5102   0.176E-01    0.757E-01
RMM:   5    -0.413170806021E+03    0.33521E-01   -0.14450E-02  4735   0.125E-01    0.521E-02
RMM:   6    -0.413170905925E+03   -0.99903E-04   -0.24047E-03  5629   0.486E-02    0.228E-02
RMM:   7    -0.413170919587E+03   -0.13662E-04   -0.33011E-04  5992   0.155E-02    0.155E-02
RMM:   8    -0.413170915500E+03    0.40872E-05   -0.53373E-05  5195   0.741E-03    0.746E-03
RMM:   9    -0.413170908214E+03    0.72851E-05   -0.95822E-06  3316   0.355E-03    0.331E-03
RMM:  10    -0.413170905544E+03    0.26702E-05   -0.21435E-06  2570   0.205E-03    0.221E-03
RMM:  11    -0.413170901609E+03    0.39353E-05   -0.10755E-06  2509   0.161E-03    0.119E-03
RMM:  12    -0.413170898222E+03    0.33868E-05   -0.57683E-07  2330   0.122E-03    0.417E-04
RMM:  13    -0.413170896368E+03    0.18538E-05   -0.29109E-07  1877   0.895E-04    0.229E-04
RMM:  14    -0.413170894759E+03    0.16093E-05   -0.18085E-07  1419   0.751E-04    0.150E-04
RMM:  15    -0.413170891563E+03    0.31962E-05   -0.21224E-07  1622   0.776E-04    0.117E-04
RMM:  16    -0.413170890269E+03    0.12935E-05   -0.10591E-07  1236   0.639E-04    0.924E-05
RMM:  17    -0.413170887369E+03    0.29004E-05   -0.12403E-07  1397   0.663E-04    0.510E-05
RMM:  18    -0.413170886289E+03    0.10804E-05   -0.56937E-08   945   0.553E-04    0.386E-05
RMM:  19    -0.413170885718E+03    0.57098E-06   -0.32830E-08   839   0.528E-04
   19 T=    62. E= -.41286685E+03 F= -.41317089E+03 E0= -.41314881E+03  EK= 0.30404E+00 SP= 0.00E+00 SK= 0.00E+00
       N       E                     dE             d eps       ncg     rms          rms(c)
RMM:   1    -0.413163558933E+03    0.73274E-02   -0.10882E+01  4298   0.760E-01    0.903E-01
RMM:   2    -0.413172783103E+03   -0.92242E-02   -0.13187E-01  4263   0.997E-02    0.635E-01
RMM:   3    -0.413171884050E+03    0.89905E-03   -0.78607E-03  4949   0.431E-02    0.174E-01
RMM:   4    -0.413210769887E+03   -0.38886E-01   -0.41210E-02  5142   0.168E-01    0.819E-01
RMM:   5    -0.413171103304E+03    0.39667E-01   -0.19364E-02  4793   0.138E-01    0.462E-02
RMM:   6    -0.413171309374E+03   -0.20607E-03   -0.31361E-03  5749   0.543E-02    0.256E-02
RMM:   7    -0.413171316236E+03   -0.68616E-05   -0.39912E-04  5860   0.170E-02    0.177E-02
RMM:   8    -0.413171310187E+03    0.60485E-05   -0.60908E-05  5111   0.757E-03    0.938E-03
RMM:   9    -0.413171303157E+03    0.70299E-05   -0.13065E-05  3820   0.395E-03    0.607E-03
RMM:  10    -0.413171299273E+03    0.38844E-05   -0.22449E-06  2584   0.214E-03    0.385E-03
RMM:  11    -0.413171295066E+03    0.42070E-05   -0.15355E-06  2527   0.194E-03    0.177E-03
RMM:  12    -0.413171291123E+03    0.39434E-05   -0.10075E-06  2484   0.162E-03    0.546E-04
RMM:  13    -0.413171290405E+03    0.71800E-06   -0.36804E-07  2168   0.106E-03
   20 T=    62. E= -.41286664E+03 F= -.41317129E+03 E0= -.41314926E+03  EK= 0.30465E+00 SP= 0.00E+00 SK= 0.00E+00
       N       E                     dE             d eps       ncg     rms          rms(c)
RMM:   1    -0.413165898094E+03    0.53930E-02   -0.10936E+01  4301   0.790E-01    0.889E-01
RMM:   2    -0.413174353141E+03   -0.84550E-02   -0.13668E-01  4275   0.102E-01    0.646E-01
RMM:   3    -0.413172690227E+03    0.16629E-02   -0.76600E-03  4895   0.413E-02    0.159E-01
RMM:   4    -0.413206120710E+03   -0.33430E-01   -0.34754E-02  5139   0.155E-01    0.760E-01
RMM:   5    -0.413172099879E+03    0.34021E-01   -0.16808E-02  4800   0.127E-01    0.415E-02
RMM:   6    -0.413172289278E+03   -0.18940E-03   -0.27076E-03  5785   0.503E-02    0.237E-02
RMM:   7    -0.413172301252E+03   -0.11974E-04   -0.33266E-04  5859   0.159E-02    0.161E-02
RMM:   8    -0.413172299678E+03    0.15737E-05   -0.57585E-05  5020   0.737E-03    0.912E-03
RMM:   9    -0.413172295518E+03    0.41602E-05   -0.12486E-05  3823   0.396E-03    0.611E-03
RMM:  10    -0.413172294660E+03    0.85806E-06   -0.21060E-06  2583   0.211E-03
   21 T=    62. E= -.41286673E+03 F= -.41317229E+03 E0= -.41315031E+03  EK= 0.30557E+00 SP= 0.00E+00 SK= 0.00E+00
       N       E                     dE             d eps       ncg     rms          rms(c)
RMM:   1    -0.413165675854E+03    0.66197E-02   -0.10988E+01  4301   0.770E-01    0.911E-01
RMM:   2    -0.413175101687E+03   -0.94258E-02   -0.13425E-01  4305   0.984E-02    0.646E-01
RMM:   3    -0.413176701750E+03   -0.16001E-02   -0.10341E-02  5098   0.663E-02    0.283E-01
RMM:   4    -0.413207731658E+03   -0.31030E-01   -0.45575E-02  5101   0.179E-01    0.766E-01
RMM:   5    -0.413173290132E+03    0.34442E-01   -0.14848E-02  4728   0.127E-01    0.522E-02
RMM:   6    -0.413173391001E+03   -0.10087E-03   -0.24808E-03  5629   0.496E-02    0.228E-02
RMM:   7    -0.413173403917E+03   -0.12916E-04   -0.33870E-04  5998   0.158E-02    0.157E-02
RMM:   8    -0.413173399722E+03    0.41952E-05   -0.54407E-05  5189   0.747E-03    0.759E-03
RMM:   9    -0.413173392222E+03    0.75004E-05   -0.99553E-06  3368   0.359E-03    0.335E-03
RMM:  10    -0.413173389489E+03    0.27322E-05   -0.21709E-06  2570   0.207E-03    0.226E-03
RMM:  11    -0.413173385511E+03    0.39787E-05   -0.10658E-06  2507   0.161E-03    0.120E-03
RMM:  12    -0.413173382050E+03    0.34610E-05   -0.57318E-07  2344   0.122E-03    0.394E-04
RMM:  13    -0.413173380151E+03    0.18983E-05   -0.28317E-07  1855   0.886E-04    0.214E-04
RMM:  14    -0.413173377841E+03    0.23106E-05   -0.19382E-07  1458   0.769E-04    0.123E-04
RMM:  15    -0.413173375146E+03    0.26946E-05   -0.16702E-07  1472   0.733E-04    0.982E-05
RMM:  16    -0.413173373759E+03    0.13867E-05   -0.10030E-07  1225   0.643E-04    0.787E-05
RMM:  17    -0.413173370804E+03    0.29551E-05   -0.11132E-07  1382   0.657E-04    0.464E-05
RMM:  18    -0.413173369759E+03    0.10456E-05   -0.52231E-08   948   0.556E-04    0.304E-05
RMM:  19    -0.413173369219E+03    0.54003E-06   -0.27180E-08   794   0.528E-04
   22 T=    62. E= -.41286676E+03 F= -.41317337E+03 E0= -.41315143E+03  EK= 0.30661E+00 SP= 0.00E+00 SK= 0.00E+00
       N       E                     dE             d eps       ncg     rms          rms(c)
RMM:   1    -0.413168625586E+03    0.47442E-02   -0.10991E+01  4296   0.805E-01    0.913E-01
RMM:   2    -0.413175628071E+03   -0.70025E-02   -0.13420E-01  4271   0.108E-01    0.639E-01
RMM:   3    -0.413174556898E+03    0.10712E-02   -0.80440E-03  4880   0.454E-02    0.171E-01
RMM:   4    -0.413210716922E+03   -0.36160E-01   -0.37734E-02  5146   0.161E-01    0.790E-01
RMM:   5    -0.413173879012E+03    0.36838E-01   -0.18124E-02  4793   0.133E-01    0.448E-02
RMM:   6    -0.413174081451E+03   -0.20244E-03   -0.29889E-03  5775   0.526E-02    0.261E-02
RMM:   7    -0.413174087017E+03   -0.55655E-05   -0.37231E-04  5821   0.169E-02    0.176E-02
RMM:   8    -0.413174079576E+03    0.74408E-05   -0.61607E-05  5073   0.770E-03    0.967E-03
RMM:   9    -0.413174071090E+03    0.84856E-05   -0.13039E-05  3863   0.403E-03    0.649E-03
RMM:  10    -0.413174065856E+03    0.52342E-05   -0.21767E-06  2588   0.216E-03    0.415E-03
RMM:  11    -0.413174059531E+03    0.63252E-05   -0.18134E-06  2558   0.209E-03    0.184E-03
RMM:  12    -0.413174053987E+03    0.55439E-05   -0.10085E-06  2476   0.167E-03    0.598E-04
RMM:  13    -0.413174053157E+03    0.82956E-06   -0.35899E-07  2178   0.106E-03
   23 T=    63. E= -.41286640E+03 F= -.41317405E+03 E0= -.41315216E+03  EK= 0.30765E+00 SP= 0.00E+00 SK= 0.00E+00
       N       E                     dE             d eps       ncg     rms          rms(c)
RMM:   1    -0.413167581958E+03    0.64720E-02   -0.10967E+01  4295   0.785E-01    0.892E-01
RMM:   2    -0.413177812182E+03   -0.10230E-01   -0.13586E-01  4278   0.103E-01    0.646E-01
RMM:   3    -0.413175888372E+03    0.19238E-02   -0.76819E-03  4785   0.434E-02    0.154E-01
RMM:   4    -0.413204058737E+03   -0.28170E-01   -0.28813E-02  5146   0.141E-01    0.699E-01
RMM:   5    -0.413175471580E+03    0.28587E-01   -0.14182E-02  4801   0.117E-01    0.390E-02
RMM:   6    -0.413175631181E+03   -0.15960E-03   -0.23026E-03  5802   0.460E-02    0.229E-02
RMM:   7    -0.413175638540E+03   -0.73589E-05   -0.26714E-04  5844   0.147E-02    0.142E-02
RMM:   8    -0.413175636170E+03    0.23696E-05   -0.54007E-05  4991   0.712E-03    0.895E-03
RMM:   9    -0.413175630388E+03    0.57826E-05   -0.12000E-05  3904   0.394E-03    0.615E-03
RMM:  10    -0.413175628370E+03    0.20181E-05   -0.17973E-06  2557   0.209E-03    0.401E-03
RMM:  11    -0.413175625305E+03    0.30646E-05   -0.21474E-06  2595   0.223E-03    0.178E-03
RMM:  12    -0.413175622636E+03    0.26687E-05   -0.89011E-07  2478   0.159E-03    0.602E-04
RMM:  13    -0.413175622271E+03    0.36543E-06   -0.30756E-07  2073   0.965E-04
   24 T=    63. E= -.41286665E+03 F= -.41317562E+03 E0= -.41315378E+03  EK= 0.30897E+00 SP= 0.00E+00 SK= 0.00E+00
       N       E                     dE             d eps       ncg     rms          rms(c)
RMM:   1    -0.413168983339E+03    0.66393E-02   -0.11063E+01  4298   0.800E-01    0.908E-01
RMM:   2    -0.413178654333E+03   -0.96710E-02   -0.13606E-01  4274   0.106E-01    0.651E-01
RMM:   3    -0.413176848935E+03    0.18054E-02   -0.78178E-03  4708   0.436E-02    0.152E-01
RMM:   4    -0.413200273857E+03   -0.23425E-01   -0.23874E-02  5146   0.129E-01    0.639E-01
RMM:   5    -0.413176460995E+03    0.23813E-01   -0.11746E-02  4806   0.107E-01    0.372E-02
RMM:   6    -0.413176588360E+03   -0.12737E-03   -0.19190E-03  5812   0.416E-02    0.221E-02
RMM:   7    -0.413176590754E+03   -0.23931E-05   -0.20935E-04  5750   0.135E-02    0.122E-02
RMM:   8    -0.413176587613E+03    0.31409E-05   -0.44983E-05  4926   0.657E-03    0.832E-03
RMM:   9    -0.413176581775E+03    0.58374E-05   -0.10788E-05  3819   0.374E-03    0.595E-03
RMM:  10    -0.413176579171E+03    0.26042E-05   -0.15463E-06  2543   0.205E-03    0.393E-03
RMM:  11    -0.413176574779E+03    0.43926E-05   -0.19579E-06  2564   0.217E-03    0.179E-03
RMM:  12    -0.413176570652E+03    0.41262E-05   -0.86905E-07  2474   0.158E-03    0.613E-04
RMM:  13    -0.413176570230E+03    0.42224E-06   -0.28561E-07  2026   0.938E-04
   25 T=    63. E= -.41286653E+03 F= -.41317657E+03 E0= -.41315477E+03  EK= 0.31004E+00 SP= 0.00E+00 SK= 0.00E+00
       N       E                     dE             d eps       ncg     rms          rms(c)
RMM:   1    -0.413172152128E+03    0.44185E-02   -0.11094E+01  4296   0.827E-01    0.923E-01
RMM:   2    -0.413179242138E+03   -0.70900E-02   -0.13540E-01  4277   0.108E-01    0.644E-01
RMM:   3    -0.413177930487E+03    0.13117E-02   -0.80398E-03  4601   0.440E-02    0.155E-01
RMM:   4    -0.413195392997E+03   -0.17463E-01   -0.17684E-02  5154   0.112E-01    0.553E-01
RMM:   5    -0.413177750973E+03    0.17642E-01   -0.88364E-03  4815   0.916E-02    0.355E-02
RMM:   6    -0.413177824938E+03   -0.73965E-04   -0.13700E-03  5812   0.353E-02    0.210E-02
RMM:   7    -0.413177820539E+03    0.43995E-05   -0.14912E-04  5577   0.118E-02    0.981E-03
RMM:   8    -0.413177811408E+03    0.91309E-05   -0.26113E-05  4532   0.517E-03    0.641E-03
RMM:   9    -0.413177807939E+03    0.34690E-05   -0.68095E-06  3252   0.302E-03    0.539E-03
RMM:  10    -0.413177803359E+03    0.45795E-05   -0.10930E-06  2509   0.183E-03    0.349E-03
RMM:  11    -0.413177794315E+03    0.90445E-05   -0.16387E-06  2546   0.203E-03    0.166E-03
RMM:  12    -0.413177787910E+03    0.64047E-05   -0.69774E-07  2425   0.142E-03    0.702E-04
RMM:  13    -0.413177787029E+03    0.88153E-06   -0.21588E-07  1857   0.842E-04
   26 T=    63. E= -.41286651E+03 F= -.41317779E+03 E0= -.41315604E+03  EK= 0.31127E+00 SP= 0.00E+00 SK= 0.00E+00
       N       E                     dE             d eps       ncg     rms          rms(c)
RMM:   1    -0.413171548679E+03    0.62392E-02   -0.11031E+01  4292   0.796E-01    0.898E-01
RMM:   2    -0.413181417643E+03   -0.98690E-02   -0.13629E-01  4274   0.103E-01    0.646E-01
RMM:   3    -0.413179783401E+03    0.16342E-02   -0.77205E-03  4505   0.420E-02    0.146E-01
RMM:   4    -0.413191035200E+03   -0.11252E-01   -0.11636E-02  5153   0.903E-02    0.446E-01
RMM:   5    -0.413179657353E+03    0.11378E-01   -0.57501E-03  4832   0.735E-02    0.312E-02
RMM:   6    -0.413179693159E+03   -0.35805E-04   -0.89631E-04  5835   0.281E-02    0.189E-02
RMM:   7    -0.413179694614E+03   -0.14556E-05   -0.13702E-04  5595   0.113E-02    0.113E-02
RMM:   8    -0.413179683959E+03    0.10656E-04   -0.27697E-05  4610   0.566E-03    0.567E-03
RMM:   9    -0.413179681756E+03    0.22024E-05   -0.53125E-06  3025   0.293E-03    0.453E-03
RMM:  10    -0.413179678727E+03    0.30290E-05   -0.87209E-07  2493   0.171E-03    0.282E-03
RMM:  11    -0.413179674288E+03    0.44387E-05   -0.83695E-07  2489   0.149E-03    0.136E-03
RMM:  12    -0.413179669773E+03    0.45155E-05   -0.54175E-07  2268   0.116E-03    0.440E-04
RMM:  13    -0.413179668988E+03    0.78459E-06   -0.17832E-07  1563   0.765E-04
   27 T=    64. E= -.41286685E+03 F= -.41317967E+03 E0= -.41315797E+03  EK= 0.31282E+00 SP= 0.00E+00 SK= 0.00E+00
       N       E                     dE             d eps       ncg     rms          rms(c)
RMM:   1    -0.413173977270E+03    0.56925E-02   -0.11161E+01  4291   0.835E-01    0.907E-01
RMM:   2    -0.413182791216E+03   -0.88139E-02   -0.14014E-01  4273   0.108E-01    0.657E-01
RMM:   3    -0.413180900632E+03    0.18906E-02   -0.79396E-03  4489   0.425E-02    0.145E-01
RMM:   4    -0.413190702151E+03   -0.98015E-02   -0.10242E-02  5149   0.863E-02    0.417E-01
RMM:   5    -0.413180790892E+03    0.99113E-02   -0.49395E-03  4820   0.682E-02    0.304E-02
RMM:   6    -0.413180818203E+03   -0.27310E-04   -0.78533E-04  5853   0.262E-02    0.185E-02
RMM:   7    -0.413180820181E+03   -0.19786E-05   -0.13067E-04  5530   0.112E-02    0.115E-02
RMM:   8    -0.413180809254E+03    0.10928E-04   -0.24714E-05  4530   0.551E-03    0.532E-03
RMM:   9    -0.413180807612E+03    0.16416E-05   -0.44772E-06  2933   0.277E-03    0.425E-03
RMM:  10    -0.413180805232E+03    0.23804E-05   -0.87071E-07  2491   0.168E-03    0.261E-03
RMM:  11    -0.413180801937E+03    0.32944E-05   -0.69789E-07  2471   0.139E-03    0.128E-03
RMM:  12    -0.413180798396E+03    0.35415E-05   -0.48844E-07  2231   0.110E-03    0.455E-04
RMM:  13    -0.413180797441E+03    0.95489E-06   -0.17416E-07  1540   0.757E-04
   28 T=    64. E= -.41286654E+03 F= -.41318080E+03 E0= -.41315915E+03  EK= 0.31426E+00 SP= 0.00E+00 SK= 0.00E+00
       N       E                     dE             d eps       ncg     rms          rms(c)
RMM:   1    -0.413183239384E+03   -0.24410E-02   -0.11280E+01  4290   0.877E-01    0.930E-01
RMM:   2    -0.413184381930E+03   -0.11425E-02   -0.14613E-01  4274   0.113E-01    0.651E-01
RMM:   3    -0.413182875214E+03    0.15067E-02   -0.81132E-03  4329   0.422E-02    0.161E-01
RMM:   4    -0.413186345275E+03   -0.34701E-02   -0.42056E-03  5148   0.540E-02    0.248E-01
RMM:   5    -0.413182909085E+03    0.34362E-02   -0.17323E-03  4825   0.409E-02    0.298E-02
RMM:   6    -0.413182906864E+03    0.22209E-05   -0.34933E-04  5750   0.184E-02    0.202E-02
RMM:   7    -0.413182889763E+03    0.17101E-04   -0.12782E-04  5185   0.113E-02    0.100E-02
RMM:   8    -0.413182881043E+03    0.87203E-05   -0.81014E-06  3396   0.396E-03    0.444E-03
RMM:   9    -0.413182877564E+03    0.34788E-05   -0.14380E-06  2535   0.192E-03    0.289E-03
RMM:  10    -0.413182870031E+03    0.75329E-05   -0.10001E-06  2475   0.160E-03    0.145E-03
RMM:  11    -0.413182864718E+03    0.53130E-05   -0.45053E-07  2234   0.113E-03    0.652E-04
RMM:  12    -0.413182859919E+03    0.47990E-05   -0.24979E-07  1854   0.866E-04    0.273E-04
RMM:  13    -0.413182856435E+03    0.34842E-05   -0.14145E-07  1335   0.703E-04    0.167E-04
RMM:  14    -0.413182852614E+03    0.38209E-05   -0.10223E-07  1236   0.665E-04    0.109E-04
RMM:  15    -0.413182848188E+03    0.44259E-05   -0.98634E-08  1346   0.665E-04    0.785E-05
RMM:  16    -0.413182846010E+03    0.21780E-05   -0.56455E-08  1056   0.581E-04    0.532E-05
RMM:  17    -0.413182842711E+03    0.32984E-05   -0.62477E-08  1169   0.592E-04    0.284E-05
RMM:  18    -0.413182842125E+03    0.58668E-06   -0.23758E-08   764   0.511E-04
   29 T=    64. E= -.41286677E+03 F= -.41318284E+03 E0= -.41316124E+03  EK= 0.31608E+00 SP= 0.00E+00 SK= 0.00E+00
       N       E                     dE             d eps       ncg     rms          rms(c)
RMM:   1    -0.413176751588E+03    0.60911E-02   -0.11147E+01  4285   0.825E-01    0.908E-01
RMM:   2    -0.413186574778E+03   -0.98232E-02   -0.13881E-01  4272   0.111E-01    0.649E-01
RMM:   3    -0.413184793593E+03    0.17812E-02   -0.79878E-03  4463   0.447E-02    0.150E-01
RMM:   4    -0.413193570675E+03   -0.87771E-02   -0.92707E-03  5160   0.816E-02    0.395E-01
RMM:   5    -0.413184700748E+03    0.88699E-02   -0.44927E-03  4829   0.648E-02    0.312E-02
RMM:   6    -0.413184719371E+03   -0.18623E-04   -0.72219E-04  5841   0.253E-02    0.205E-02
RMM:   7    -0.413184716823E+03    0.25476E-05   -0.15371E-04  5450   0.121E-02    0.122E-02
RMM:   8    -0.413184704229E+03    0.12595E-04   -0.20445E-05  4330   0.536E-03    0.509E-03
RMM:   9    -0.413184701629E+03    0.25995E-05   -0.38270E-06  2867   0.256E-03    0.389E-03
RMM:  10    -0.413184697966E+03    0.36630E-05   -0.93907E-07  2482   0.167E-03    0.232E-03
RMM:  11    -0.413184693304E+03    0.46622E-05   -0.68377E-07  2452   0.139E-03    0.111E-03
RMM:  12    -0.413184689407E+03    0.38967E-05   -0.39866E-07  2185   0.105E-03    0.454E-04
RMM:  13    -0.413184687970E+03    0.14376E-05   -0.16495E-07  1513   0.744E-04    0.214E-04
RMM:  14    -0.413184686113E+03    0.18567E-05   -0.99277E-08  1147   0.659E-04    0.122E-04
RMM:  15    -0.413184682783E+03    0.33302E-05   -0.96242E-08  1260   0.672E-04    0.102E-04
RMM:  16    -0.413184682106E+03    0.67645E-06   -0.44116E-08   906   0.587E-04
   30 T=    65. E= -.41286673E+03 F= -.41318468E+03 E0= -.41316313E+03  EK= 0.31796E+00 SP= 0.00E+00 SK= 0.00E+00
       N       E                     dE             d eps       ncg     rms          rms(c)
RMM:   1    -0.413192523874E+03   -0.78411E-02   -0.11417E+01  4291   0.925E-01    0.908E-01
RMM:   2    -0.413188997828E+03    0.35260E-02   -0.15873E-01  4273   0.124E-01    0.665E-01
RMM:   3    -0.413186372633E+03    0.26252E-02   -0.76854E-03  4367   0.428E-02    0.165E-01
RMM:   4    -0.413190630921E+03   -0.42583E-02   -0.52178E-03  5139   0.611E-02    0.276E-01
RMM:   5    -0.413186343824E+03    0.42871E-02   -0.21385E-03  4823   0.453E-02    0.288E-02
RMM:   6    -0.413186346861E+03   -0.30371E-05   -0.38495E-04  5764   0.192E-02    0.204E-02
RMM:   7    -0.413186341302E+03    0.55588E-05   -0.12694E-04  5223   0.110E-02    0.991E-03
RMM:   8    -0.413186334078E+03    0.72238E-05   -0.10982E-05  3743   0.430E-03    0.448E-03
RMM:   9    -0.413186332796E+03    0.12824E-05   -0.15928E-06  2578   0.196E-03    0.297E-03
RMM:  10    -0.413186329958E+03    0.28384E-05   -0.91713E-07  2469   0.150E-03    0.152E-03
RMM:  11    -0.413186327297E+03    0.26609E-05   -0.52577E-07  2277   0.116E-03    0.661E-04
RMM:  12    -0.413186325205E+03    0.20919E-05   -0.27328E-07  1845   0.874E-04    0.282E-04
RMM:  13    -0.413186323957E+03    0.12481E-05   -0.13541E-07  1205   0.687E-04    0.166E-04
RMM:  14    -0.413186322251E+03    0.17054E-05   -0.10528E-07  1143   0.662E-04    0.104E-04
RMM:  15    -0.413186319919E+03    0.23320E-05   -0.98407E-08  1226   0.660E-04    0.665E-05
RMM:  16    -0.413186319037E+03    0.88209E-06   -0.50455E-08   940   0.585E-04
   31 T=    65. E= -.41286637E+03 F= -.41318632E+03 E0= -.41316482E+03  EK= 0.31995E+00 SP= 0.00E+00 SK= 0.00E+00
       N       E                     dE             d eps       ncg     rms          rms(c)
RMM:   1    -0.413181712415E+03    0.46075E-02   -0.11359E+01  4294   0.856E-01    0.936E-01
RMM:   2    -0.413190749981E+03   -0.90376E-02   -0.14220E-01  4272   0.120E-01    0.659E-01
RMM:   3    -0.413189093882E+03    0.16561E-02   -0.85180E-03  4377   0.515E-02    0.154E-01
RMM:   4    -0.413194071906E+03   -0.49780E-02   -0.56382E-03  5139   0.648E-02    0.298E-01
RMM:   5    -0.413189079720E+03    0.49922E-02   -0.24895E-03  4822   0.488E-02    0.314E-02
RMM:   6    -0.413189084249E+03   -0.45289E-05   -0.47709E-04  5761   0.209E-02    0.223E-02
RMM:   7    -0.413189070382E+03    0.13867E-04   -0.14660E-04  5244   0.119E-02    0.109E-02
RMM:   8    -0.413189060785E+03    0.95970E-05   -0.11797E-05  3785   0.442E-03    0.487E-03
RMM:   9    -0.413189057606E+03    0.31787E-05   -0.17273E-06  2596   0.200E-03    0.325E-03
RMM:  10    -0.413189051095E+03    0.65118E-05   -0.92917E-07  2480   0.157E-03    0.165E-03
RMM:  11    -0.413189045125E+03    0.59700E-05   -0.53542E-07  2332   0.121E-03    0.730E-04
RMM:  12    -0.413189040429E+03    0.46960E-05   -0.28244E-07  1992   0.916E-04    0.309E-04
RMM:  13    -0.413189038042E+03    0.23862E-05   -0.13922E-07  1304   0.704E-04    0.174E-04
RMM:  14    -0.413189034570E+03    0.34719E-05   -0.94245E-08  1138   0.662E-04    0.106E-04
RMM:  15    -0.413189030272E+03    0.42980E-05   -0.85893E-08  1225   0.664E-04    0.723E-05
RMM:  16    -0.413189028598E+03    0.16739E-05   -0.49170E-08   995   0.594E-04    0.602E-05
RMM:  17    -0.413189024765E+03    0.38335E-05   -0.64352E-08  1290   0.625E-04    0.344E-05
RMM:  18    -0.413189023631E+03    0.11336E-05   -0.28884E-08   854   0.528E-04    0.203E-05
RMM:  19    -0.413189023337E+03    0.29459E-06   -0.13914E-08   668   0.498E-04
   32 T=    66. E= -.41286669E+03 F= -.41318902E+03 E0= -.41316757E+03  EK= 0.32233E+00 SP= 0.00E+00 SK= 0.00E+00
       N       E                     dE             d eps       ncg     rms          rms(c)
RMM:   1    -0.413183446946E+03    0.55767E-02   -0.11328E+01  4292   0.872E-01    0.923E-01
RMM:   2    -0.413193011858E+03   -0.95649E-02   -0.14371E-01  4274   0.129E-01    0.655E-01
RMM:   3    -0.413190882785E+03    0.21291E-02   -0.81809E-03  4164   0.439E-02    0.154E-01
RMM:   4    -0.413190951217E+03   -0.68432E-04   -0.11032E-03  4579   0.232E-02    0.291E-02
RMM:   5    -0.413190956345E+03   -0.51283E-05   -0.12198E-04  4997   0.115E-02    0.286E-02
RMM:   6    -0.413191002434E+03   -0.46089E-04   -0.11800E-04  5190   0.100E-02    0.396E-02
RMM:   7    -0.413190912432E+03    0.90002E-04   -0.11284E-04  4922   0.106E-02    0.807E-03
RMM:   8    -0.413190910403E+03    0.20288E-05   -0.10378E-05  3590   0.399E-03    0.336E-03
RMM:   9    -0.413190908806E+03    0.15975E-05   -0.15231E-06  2409   0.187E-03    0.162E-03
RMM:  10    -0.413190901479E+03    0.73268E-05   -0.67026E-07  2269   0.133E-03    0.796E-04
RMM:  11    -0.413190896866E+03    0.46127E-05   -0.27851E-07  1702   0.864E-04    0.357E-04
RMM:  12    -0.413190893641E+03    0.32254E-05   -0.14962E-07  1334   0.717E-04    0.209E-04
RMM:  13    -0.413190890280E+03    0.33604E-05   -0.11126E-07  1253   0.672E-04    0.104E-04
RMM:  14    -0.413190884647E+03    0.56335E-05   -0.10536E-07  1276   0.678E-04    0.125E-04
RMM:  15    -0.413190884148E+03    0.49910E-06   -0.30433E-08   624   0.545E-04
   33 T=    66. E= -.41286642E+03 F= -.41319088E+03 E0= -.41316948E+03  EK= 0.32447E+00 SP= 0.00E+00 SK= 0.00E+00
       N       E                     dE             d eps       ncg     rms          rms(c)
RMM:   1    -0.413191996774E+03   -0.11121E-02   -0.11496E+01  4290   0.945E-01    0.914E-01
RMM:   2    -0.413195645300E+03   -0.36485E-02   -0.15573E-01  4275   0.134E-01    0.669E-01
RMM:   3    -0.413193327598E+03    0.23177E-02   -0.80580E-03  4347   0.505E-02    0.158E-01
RMM:   4    -0.413196549784E+03   -0.32222E-02   -0.40695E-03  5127   0.570E-02    0.239E-01
RMM:   5    -0.413193367019E+03    0.31828E-02   -0.15471E-03  4793   0.395E-02    0.300E-02
RMM:   6    -0.413193357368E+03    0.96505E-05   -0.31537E-04  5678   0.184E-02    0.220E-02
RMM:   7    -0.413193349528E+03    0.78409E-05   -0.12983E-04  5090   0.109E-02    0.102E-02
RMM:   8    -0.413193343607E+03    0.59202E-05   -0.11200E-05  3805   0.427E-03    0.480E-03
RMM:   9    -0.413193342407E+03    0.12006E-05   -0.15468E-06  2537   0.190E-03    0.269E-03
RMM:  10    -0.413193338717E+03    0.36894E-05   -0.86042E-07  2453   0.148E-03    0.130E-03
RMM:  11    -0.413193335796E+03    0.29215E-05   -0.43707E-07  2195   0.106E-03    0.680E-04
RMM:  12    -0.413193333166E+03    0.26293E-05   -0.25524E-07  1725   0.849E-04    0.263E-04
RMM:  13    -0.413193331385E+03    0.17811E-05   -0.13071E-07  1137   0.685E-04    0.157E-04
RMM:  14    -0.413193329272E+03    0.21133E-05   -0.10056E-07  1101   0.657E-04    0.123E-04
RMM:  15    -0.413193326300E+03    0.29718E-05   -0.96790E-08  1179   0.652E-04    0.602E-05
RMM:  16    -0.413193325430E+03    0.87009E-06   -0.45319E-08   844   0.573E-04
   34 T=    67. E= -.41286652E+03 F= -.41319333E+03 E0= -.41317197E+03  EK= 0.32681E+00 SP= 0.00E+00 SK= 0.00E+00
       N       E                     dE             d eps       ncg     rms          rms(c)
RMM:   1    -0.413188579372E+03    0.47469E-02   -0.11530E+01  4299   0.909E-01    0.940E-01
RMM:   2    -0.413198063020E+03   -0.94836E-02   -0.14817E-01  4261   0.131E-01    0.668E-01
RMM:   3    -0.413196102519E+03    0.19605E-02   -0.84504E-03  4417   0.490E-02    0.157E-01
RMM:   4    -0.413201496220E+03   -0.53937E-02   -0.60843E-03  5160   0.662E-02    0.312E-01
RMM:   5    -0.413196049318E+03    0.54469E-02   -0.27556E-03  4823   0.517E-02    0.326E-02
RMM:   6    -0.413196039463E+03    0.98550E-05   -0.50660E-04  5742   0.224E-02    0.233E-02
RMM:   7    -0.413196028479E+03    0.10984E-04   -0.15488E-04  5286   0.119E-02    0.111E-02
RMM:   8    -0.413196019309E+03    0.91702E-05   -0.16192E-05  4143   0.481E-03    0.504E-03
RMM:   9    -0.413196016679E+03    0.26297E-05   -0.22601E-06  2668   0.215E-03    0.308E-03
RMM:  10    -0.413196010719E+03    0.59595E-05   -0.83395E-07  2472   0.152E-03    0.161E-03
RMM:  11    -0.413196004482E+03    0.62369E-05   -0.52269E-07  2342   0.118E-03    0.756E-04
RMM:  12    -0.413195999618E+03    0.48650E-05   -0.27995E-07  1918   0.896E-04    0.327E-04
RMM:  13    -0.413195997048E+03    0.25694E-05   -0.14038E-07  1260   0.701E-04    0.172E-04
RMM:  14    -0.413195994111E+03    0.29368E-05   -0.89780E-08  1070   0.649E-04    0.120E-04
RMM:  15    -0.413195988842E+03    0.52695E-05   -0.91085E-08  1208   0.667E-04    0.716E-05
RMM:  16    -0.413195987339E+03    0.15031E-05   -0.47697E-08   951   0.596E-04    0.646E-05
RMM:  17    -0.413195984114E+03    0.32243E-05   -0.52223E-08  1142   0.605E-04    0.351E-05
RMM:  18    -0.413195982495E+03    0.16190E-05   -0.30386E-08   889   0.548E-04    0.193E-05
RMM:  19    -0.413195982251E+03    0.24452E-06   -0.13584E-08   654   0.508E-04
   35 T=    67. E= -.41286679E+03 F= -.41319598E+03 E0= -.41317468E+03  EK= 0.32920E+00 SP= 0.00E+00 SK= 0.00E+00
       N       E                     dE             d eps       ncg     rms          rms(c)
RMM:   1    -0.413207415605E+03   -0.11433E-01   -0.11694E+01  4297   0.102E+00    0.939E-01
RMM:   2    -0.413199846991E+03    0.75686E-02   -0.16584E-01  4257   0.132E-01    0.664E-01
RMM:   3    -0.413198331334E+03    0.15157E-02   -0.83799E-03  4777   0.497E-02    0.197E-01
RMM:   4    -0.413233569528E+03   -0.35238E-01   -0.35860E-02  5160   0.159E-01    0.781E-01
RMM:   5    -0.413197885239E+03    0.35684E-01   -0.18044E-02  4800   0.131E-01    0.456E-02
RMM:   6    -0.413197969397E+03   -0.84158E-04   -0.28828E-03  5859   0.502E-02    0.271E-02
RMM:   7    -0.413197976331E+03   -0.69335E-05   -0.30718E-04  5702   0.158E-02    0.145E-02
RMM:   8    -0.413197967241E+03    0.90896E-05   -0.42136E-05  4743   0.641E-03    0.809E-03
RMM:   9    -0.413197963427E+03    0.38140E-05   -0.16158E-05  4147   0.418E-03    0.655E-03
RMM:  10    -0.413197957141E+03    0.62859E-05   -0.29619E-06  2705   0.251E-03    0.383E-03
RMM:  11    -0.413197951087E+03    0.60541E-05   -0.17908E-06  2554   0.207E-03    0.217E-03
RMM:  12    -0.413197940875E+03    0.10213E-04   -0.13869E-06  2491   0.201E-03    0.954E-04
RMM:  13    -0.413197938377E+03    0.24978E-05   -0.42393E-07  2334   0.122E-03    0.590E-04
RMM:  14    -0.413197938098E+03    0.27870E-06   -0.18034E-07  1706   0.792E-04
   36 T=    67. E= -.41286654E+03 F= -.41319794E+03 E0= -.41317668E+03  EK= 0.33140E+00 SP= 0.00E+00 SK= 0.00E+00
       N       E                     dE             d eps       ncg     rms          rms(c)
RMM:   1    -0.413203573112E+03   -0.56347E-02   -0.11684E+01  4304   0.104E+00    0.923E-01
RMM:   2    -0.413203641280E+03   -0.68168E-04   -0.15549E-01  4258   0.137E-01    0.673E-01
RMM:   3    -0.413201341513E+03    0.22998E-02   -0.84640E-03  4678   0.545E-02    0.168E-01
RMM:   4    -0.413228142141E+03   -0.26801E-01   -0.27086E-02  5158   0.138E-01    0.684E-01
RMM:   5    -0.413201053671E+03    0.27088E-01   -0.13758E-02  4808   0.114E-01    0.413E-02
RMM:   6    -0.413201091522E+03   -0.37852E-04   -0.21405E-03  5851   0.437E-02    0.250E-02
RMM:   7    -0.413201099720E+03   -0.81979E-05   -0.26390E-04  5761   0.146E-02    0.140E-02
RMM:   8    -0.413201091991E+03    0.77289E-05   -0.51004E-05  4988   0.721E-03    0.867E-03
RMM:   9    -0.413201089139E+03    0.28524E-05   -0.15191E-05  4231   0.441E-03    0.561E-03
RMM:  10    -0.413201084355E+03    0.47842E-05   -0.20131E-06  2583   0.223E-03    0.338E-03
RMM:  11    -0.413201080594E+03    0.37608E-05   -0.11853E-06  2502   0.173E-03    0.190E-03
RMM:  12    -0.413201073769E+03    0.68247E-05   -0.11105E-06  2489   0.172E-03    0.809E-04
RMM:  13    -0.413201071329E+03    0.24402E-05   -0.38680E-07  2228   0.111E-03    0.506E-04
RMM:  14    -0.413201071030E+03    0.29866E-06   -0.16890E-07  1559   0.754E-04
   37 T=    68. E= -.41286698E+03 F= -.41320107E+03 E0= -.41317985E+03  EK= 0.33409E+00 SP= 0.00E+00 SK= 0.00E+00
       N       E                     dE             d eps       ncg     rms          rms(c)
RMM:   1    -0.413198430195E+03    0.26411E-02   -0.11730E+01  4307   0.101E+00    0.943E-01
RMM:   2    -0.413206260585E+03   -0.78304E-02   -0.15493E-01  4259   0.130E-01    0.678E-01
RMM:   3    -0.413203766970E+03    0.24936E-02   -0.87198E-03  4719   0.524E-02    0.174E-01
RMM:   4    -0.413232117687E+03   -0.28351E-01   -0.28688E-02  5150   0.142E-01    0.703E-01
RMM:   5    -0.413203458615E+03    0.28659E-01   -0.14604E-02  4811   0.117E-01    0.425E-02
RMM:   6    -0.413203496555E+03   -0.37940E-04   -0.22371E-03  5840   0.448E-02    0.261E-02
RMM:   7    -0.413203506054E+03   -0.94983E-05   -0.30008E-04  5766   0.156E-02    0.156E-02
RMM:   8    -0.413203494717E+03    0.11336E-04   -0.56665E-05  5039   0.774E-03    0.875E-03
RMM:   9    -0.413203490440E+03    0.42773E-05   -0.13763E-05  4093   0.435E-03    0.540E-03
RMM:  10    -0.413203484817E+03    0.56235E-05   -0.20916E-06  2598   0.219E-03    0.332E-03
RMM:  11    -0.413203479862E+03    0.49542E-05   -0.11161E-06  2497   0.169E-03    0.181E-03
RMM:  12    -0.413203471478E+03    0.83845E-05   -0.10077E-06  2474   0.165E-03    0.769E-04
RMM:  13    -0.413203468407E+03    0.30710E-05   -0.37674E-07  2201   0.109E-03    0.500E-04
RMM:  14    -0.413203467901E+03    0.50622E-06   -0.17300E-07  1567   0.760E-04
   38 T=    69. E= -.41286685E+03 F= -.41320347E+03 E0= -.41318229E+03  EK= 0.33662E+00 SP= 0.00E+00 SK= 0.00E+00
       N       E                     dE             d eps       ncg     rms          rms(c)
RMM:   1    -0.413219413293E+03   -0.15945E-01   -0.11947E+01  4305   0.113E+00    0.956E-01
RMM:   2    -0.413208158768E+03    0.11255E-01   -0.16699E-01  4264   0.129E-01    0.673E-01
RMM:   3    -0.413206572009E+03    0.15868E-02   -0.89662E-03  4947   0.526E-02    0.211E-01
RMM:   4    -0.413254820496E+03   -0.48248E-01   -0.50769E-02  5142   0.187E-01    0.910E-01
RMM:   5    -0.413205730013E+03    0.49090E-01   -0.24610E-02  4791   0.153E-01    0.524E-02
RMM:   6    -0.413205869945E+03   -0.13993E-03   -0.38646E-03  5838   0.581E-02    0.297E-02
RMM:   7    -0.413205881938E+03   -0.11993E-04   -0.41605E-04  5759   0.179E-02    0.167E-02
RMM:   8    -0.413205872568E+03    0.93696E-05   -0.54304E-05  4826   0.686E-03    0.875E-03
RMM:   9    -0.413205863471E+03    0.90969E-05   -0.15818E-05  4043   0.411E-03    0.575E-03
RMM:  10    -0.413205859459E+03    0.40121E-05   -0.40412E-06  2814   0.262E-03    0.374E-03
RMM:  11    -0.413205852259E+03    0.71997E-05   -0.14628E-06  2501   0.201E-03    0.214E-03
RMM:  12    -0.413205840613E+03    0.11646E-04   -0.11454E-06  2489   0.182E-03    0.706E-04
RMM:  13    -0.413205837170E+03    0.34431E-05   -0.41880E-07  2333   0.118E-03    0.570E-04
RMM:  14    -0.413205836687E+03    0.48312E-06   -0.18584E-07  1781   0.800E-04
   39 T=    69. E= -.41286673E+03 F= -.41320584E+03 E0= -.41318470E+03  EK= 0.33911E+00 SP= 0.00E+00 SK= 0.00E+00
       N       E                     dE             d eps       ncg     rms          rms(c)
RMM:   1    -0.413206142441E+03   -0.30527E-03   -0.11795E+01  4310   0.110E+00    0.933E-01
RMM:   2    -0.413211510681E+03   -0.53682E-02   -0.15997E-01  4265   0.131E-01    0.677E-01
RMM:   3    -0.413209570063E+03    0.19406E-02   -0.90289E-03  4980   0.550E-02    0.209E-01
RMM:   4    -0.413261065584E+03   -0.51496E-01   -0.55472E-02  5140   0.196E-01    0.940E-01
RMM:   5    -0.413208456708E+03    0.52609E-01   -0.26087E-02  4786   0.158E-01    0.534E-02
RMM:   6    -0.413208614839E+03   -0.15813E-03   -0.41241E-03  5830   0.600E-02    0.292E-02
RMM:   7    -0.413208631157E+03   -0.16317E-04   -0.43881E-04  5771   0.182E-02    0.170E-02
RMM:   8    -0.413208627216E+03    0.39410E-05   -0.65135E-05  5046   0.744E-03    0.973E-03
RMM:   9    -0.413208620334E+03    0.68813E-05   -0.23214E-05  4549   0.494E-03    0.665E-03
RMM:  10    -0.413208616063E+03    0.42714E-05   -0.51099E-06  2947   0.298E-03    0.375E-03
RMM:  11    -0.413208611606E+03    0.44571E-05   -0.18256E-06  2528   0.215E-03    0.224E-03
RMM:  12    -0.413208603855E+03    0.77509E-05   -0.11900E-06  2492   0.185E-03    0.662E-04
RMM:  13    -0.413208601004E+03    0.28514E-05   -0.47353E-07  2347   0.123E-03    0.534E-04
RMM:  14    -0.413208599924E+03    0.10798E-05   -0.20590E-07  1880   0.836E-04    0.339E-04
RMM:  15    -0.413208595935E+03    0.39883E-05   -0.12326E-07  1409   0.714E-04    0.156E-04
RMM:  16    -0.413208593816E+03    0.21194E-05   -0.67677E-08  1081   0.628E-04    0.100E-04
RMM:  17    -0.413208591323E+03    0.24932E-05   -0.52335E-08  1051   0.614E-04    0.784E-05
RMM:  18    -0.413208587938E+03    0.33844E-05   -0.53194E-08  1164   0.624E-04    0.743E-05
RMM:  19    -0.413208586385E+03    0.15539E-05   -0.29471E-08   930   0.567E-04    0.564E-05
RMM:  20    -0.413208585679E+03    0.70534E-06   -0.16092E-08   765   0.539E-04
   40 T=    70. E= -.41286691E+03 F= -.41320859E+03 E0= -.41318748E+03  EK= 0.34168E+00 SP= 0.00E+00 SK= 0.00E+00
       N       E                     dE             d eps       ncg     rms          rms(c)
RMM:   1    -0.413224978105E+03   -0.16392E-01   -0.12097E+01  4310   0.125E+00    0.945E-01
RMM:   2    -0.413213167190E+03    0.11811E-01   -0.17902E-01  4272   0.144E-01    0.690E-01
RMM:   3    -0.413212217255E+03    0.94993E-03   -0.96816E-03  5053   0.616E-02    0.263E-01
RMM:   4    -0.413267594986E+03   -0.55378E-01   -0.64694E-02  5124   0.212E-01    0.982E-01
RMM:   5    -0.413210121140E+03    0.57474E-01   -0.27736E-02  4778   0.165E-01    0.588E-02
RMM:   6    -0.413210285216E+03   -0.16408E-03   -0.44079E-03  5809   0.624E-02    0.301E-02
RMM:   7    -0.413210303035E+03   -0.17819E-04   -0.51382E-04  5901   0.197E-02    0.205E-02
RMM:   8    -0.413210303112E+03   -0.77394E-07   -0.10769E-04  5279   0.992E-03    0.127E-02
RMM:   9    -0.413210291220E+03    0.11892E-04   -0.22922E-05  4514   0.553E-03    0.540E-03
RMM:  10    -0.413210287175E+03    0.40451E-05   -0.51709E-06  2870   0.283E-03    0.331E-03
RMM:  11    -0.413210283751E+03    0.34234E-05   -0.14074E-06  2504   0.193E-03    0.188E-03
RMM:  12    -0.413210278546E+03    0.52054E-05   -0.84934E-07  2474   0.157E-03    0.638E-04
RMM:  13    -0.413210275689E+03    0.28576E-05   -0.41311E-07  2259   0.111E-03    0.325E-04
RMM:  14    -0.413210273902E+03    0.17863E-05   -0.21283E-07  1744   0.817E-04    0.224E-04
RMM:  15    -0.413210270740E+03    0.31618E-05   -0.13520E-07  1309   0.706E-04    0.110E-04
RMM:  16    -0.413210269072E+03    0.16682E-05   -0.83830E-08  1118   0.646E-04    0.726E-05
RMM:  17    -0.413210267120E+03    0.19520E-05   -0.64117E-08  1074   0.628E-04    0.574E-05
RMM:  18    -0.413210264984E+03    0.21359E-05   -0.53211E-08  1070   0.620E-04    0.280E-05
RMM:  19    -0.413210263522E+03    0.14627E-05   -0.37067E-08   987   0.593E-04    0.233E-05
RMM:  20    -0.413210263009E+03    0.51287E-06   -0.19675E-08   799   0.561E-04
   41 T=    70. E= -.41286649E+03 F= -.41321026E+03 E0= -.41318919E+03  EK= 0.34377E+00 SP= 0.00E+00 SK= 0.00E+00
       N       E                     dE             d eps       ncg     rms          rms(c)
RMM:   1    -0.413227723328E+03   -0.17460E-01   -0.12140E+01  4311   0.128E+00    0.969E-01
RMM:   2    -0.413214717527E+03    0.13006E-01   -0.16802E-01  4292   0.143E-01    0.682E-01
RMM:   3    -0.413216329085E+03   -0.16116E-02   -0.11961E-02  5099   0.742E-02    0.317E-01
RMM:   4    -0.413252172939E+03   -0.35844E-01   -0.52053E-02  5097   0.192E-01    0.825E-01
RMM:   5    -0.413212535153E+03    0.39638E-01   -0.17771E-02  4734   0.138E-01    0.563E-02
RMM:   6    -0.413212598908E+03   -0.63754E-04   -0.30280E-03  5756   0.520E-02    0.296E-02
RMM:   7    -0.413212605359E+03   -0.64515E-05   -0.40235E-04  5829   0.178E-02    0.203E-02
RMM:   8    -0.413212600580E+03    0.47789E-05   -0.98213E-05  5181   0.978E-03    0.113E-02
RMM:   9    -0.413212586674E+03    0.13907E-04   -0.18904E-05  4348   0.529E-03    0.439E-03
RMM:  10    -0.413212581204E+03    0.54699E-05   -0.38810E-06  2762   0.253E-03    0.270E-03
RMM:  11    -0.413212575036E+03    0.61683E-05   -0.12059E-06  2498   0.180E-03    0.145E-03
RMM:  12    -0.413212567487E+03    0.75485E-05   -0.62586E-07  2421   0.138E-03    0.562E-04
RMM:  13    -0.413212563350E+03    0.41370E-05   -0.31260E-07  2000   0.966E-04    0.264E-04
RMM:  14    -0.413212560018E+03    0.33317E-05   -0.17418E-07  1463   0.760E-04    0.156E-04
RMM:  15    -0.413212553957E+03    0.60615E-05   -0.13324E-07  1313   0.720E-04    0.117E-04
RMM:  16    -0.413212551826E+03    0.21305E-05   -0.86348E-08  1176   0.658E-04    0.792E-05
RMM:  17    -0.413212547797E+03    0.40290E-05   -0.80416E-08  1333   0.660E-04    0.657E-05
RMM:  18    -0.413212545252E+03    0.25451E-05   -0.54317E-08  1120   0.600E-04    0.356E-05
RMM:  19    -0.413212544240E+03    0.10121E-05   -0.31628E-08   881   0.553E-04    0.259E-05
RMM:  20    -0.413212543961E+03    0.27921E-06   -0.19161E-08   744   0.531E-04
   42 T=    70. E= -.41286662E+03 F= -.41321254E+03 E0= -.41319150E+03  EK= 0.34592E+00 SP= 0.00E+00 SK= 0.00E+00
       N       E                     dE             d eps       ncg     rms          rms(c)
RMM:   1    -0.413215889195E+03   -0.33450E-02   -0.11948E+01  4311   0.128E+00    0.945E-01
RMM:   2    -0.413216549254E+03   -0.66006E-03   -0.16610E-01  4300   0.148E-01    0.681E-01
RMM:   3    -0.413219356700E+03   -0.28074E-02   -0.12831E-02  5096   0.825E-02    0.351E-01
RMM:   4    -0.413249679363E+03   -0.30323E-01   -0.50166E-02  5067   0.189E-01    0.781E-01
RMM:   5    -0.413214308192E+03    0.35371E-01   -0.15276E-02  4710   0.130E-01    0.551E-02
RMM:   6    -0.413214339512E+03   -0.31320E-04   -0.26236E-03  5725   0.488E-02    0.285E-02
RMM:   7    -0.413214343447E+03   -0.39346E-05   -0.34772E-04  5810   0.170E-02    0.198E-02
RMM:   8    -0.413214339319E+03    0.41274E-05   -0.90055E-05  5156   0.951E-03    0.104E-02
RMM:   9    -0.413214327443E+03    0.11876E-04   -0.17710E-05  4266   0.518E-03    0.400E-03
RMM:  10    -0.413214323717E+03    0.37267E-05   -0.34437E-06  2742   0.240E-03    0.242E-03
RMM:  11    -0.413214318826E+03    0.48903E-05   -0.12016E-06  2496   0.177E-03    0.131E-03
RMM:  12    -0.413214313772E+03    0.50544E-05   -0.58173E-07  2412   0.133E-03    0.549E-04
RMM:  13    -0.413214310808E+03    0.29642E-05   -0.28763E-07  1840   0.915E-04    0.247E-04
RMM:  14    -0.413214308041E+03    0.27667E-05   -0.17155E-07  1412   0.749E-04    0.139E-04
RMM:  15    -0.413214303598E+03    0.44435E-05   -0.13853E-07  1308   0.715E-04    0.105E-04
RMM:  16    -0.413214301964E+03    0.16336E-05   -0.85182E-08  1150   0.647E-04    0.801E-05
RMM:  17    -0.413214298710E+03    0.32536E-05   -0.78133E-08  1260   0.647E-04    0.554E-05
RMM:  18    -0.413214296533E+03    0.21773E-05   -0.53599E-08  1093   0.597E-04    0.397E-05
RMM:  19    -0.413214295822E+03    0.71146E-06   -0.26807E-08   806   0.546E-04
   43 T=    71. E= -.41286665E+03 F= -.41321430E+03 E0= -.41319329E+03  EK= 0.34765E+00 SP= 0.00E+00 SK= 0.00E+00
       N       E                     dE             d eps       ncg     rms          rms(c)
RMM:   1    -0.413246128360E+03   -0.31832E-01   -0.12345E+01  4311   0.147E+00    0.945E-01
RMM:   2    -0.413217725172E+03    0.28403E-01   -0.20355E-01  4304   0.172E-01    0.699E-01
RMM:   3    -0.413221278982E+03   -0.35538E-02   -0.13077E-02  5091   0.897E-02    0.402E-01
RMM:   4    -0.413251206742E+03   -0.29928E-01   -0.53038E-02  5061   0.195E-01    0.794E-01
RMM:   5    -0.413215105224E+03    0.36102E-01   -0.15820E-02  4702   0.134E-01    0.593E-02
RMM:   6    -0.413215121069E+03   -0.15844E-04   -0.26879E-03  5693   0.496E-02    0.293E-02
RMM:   7    -0.413215125686E+03   -0.46172E-05   -0.36226E-04  5872   0.172E-02    0.209E-02
RMM:   8    -0.413215121197E+03    0.44887E-05   -0.89423E-05  5174   0.946E-03    0.107E-02
RMM:   9    -0.413215110473E+03    0.10724E-04   -0.20644E-05  4369   0.551E-03    0.414E-03
RMM:  10    -0.413215107761E+03    0.27118E-05   -0.36841E-06  2741   0.244E-03    0.239E-03
RMM:  11    -0.413215104011E+03    0.37499E-05   -0.16710E-06  2542   0.195E-03    0.142E-03
RMM:  12    -0.413215100907E+03    0.31044E-05   -0.60807E-07  2451   0.138E-03    0.648E-04
RMM:  13    -0.413215098531E+03    0.23755E-05   -0.31508E-07  1753   0.924E-04    0.291E-04
RMM:  14    -0.413215096147E+03    0.23839E-05   -0.20556E-07  1444   0.785E-04    0.152E-04
RMM:  15    -0.413215093365E+03    0.27826E-05   -0.15691E-07  1365   0.728E-04    0.953E-05
RMM:  16    -0.413215091518E+03    0.18469E-05   -0.10715E-07  1238   0.663E-04    0.698E-05
RMM:  17    -0.413215089485E+03    0.20326E-05   -0.83218E-08  1204   0.631E-04    0.464E-05
RMM:  18    -0.413215087275E+03    0.22104E-05   -0.64067E-08  1096   0.599E-04    0.385E-05
RMM:  19    -0.413215086788E+03    0.48705E-06   -0.31602E-08   805   0.544E-04
   44 T=    71. E= -.41286637E+03 F= -.41321509E+03 E0= -.41319410E+03  EK= 0.34872E+00 SP= 0.00E+00 SK= 0.00E+00
       N       E                     dE             d eps       ncg     rms          rms(c)
RMM:   1    -0.413225308800E+03   -0.10222E-01   -0.12127E+01  4310   0.147E+00    0.974E-01
RMM:   2    -0.413218150224E+03    0.71586E-02   -0.17079E-01  4339   0.172E-01    0.689E-01
RMM:   3    -0.413227888330E+03   -0.97381E-02   -0.19206E-02  5136   0.112E-01    0.493E-01
RMM:   4    -0.413235176769E+03   -0.72884E-02   -0.40713E-02  5025   0.175E-01    0.583E-01
RMM:   5    -0.413216378661E+03    0.18798E-01   -0.70376E-03  4600   0.996E-02    0.510E-02
RMM:   6    -0.413216341315E+03    0.37345E-04   -0.13697E-03  5468   0.360E-02    0.270E-02
RMM:   7    -0.413216337507E+03    0.38088E-05   -0.20210E-04  5635   0.139E-02    0.184E-02
RMM:   8    -0.413216328781E+03    0.87252E-05   -0.90426E-05  5089   0.968E-03    0.917E-03
RMM:   9    -0.413216314459E+03    0.14323E-04   -0.14553E-05  4174   0.510E-03    0.365E-03
RMM:  10    -0.413216310662E+03    0.37971E-05   -0.23435E-06  2653   0.212E-03    0.207E-03
RMM:  11    -0.413216303448E+03    0.72138E-05   -0.11235E-06  2484   0.171E-03    0.118E-03
RMM:  12    -0.413216297650E+03    0.57977E-05   -0.49408E-07  2398   0.124E-03    0.586E-04
RMM:  13    -0.413216293925E+03    0.37247E-05   -0.22675E-07  1682   0.830E-04    0.286E-04
RMM:  14    -0.413216290135E+03    0.37900E-05   -0.13190E-07  1269   0.685E-04    0.147E-04
RMM:  15    -0.413216284890E+03    0.52453E-05   -0.10794E-07  1190   0.671E-04    0.115E-04
RMM:  16    -0.413216282209E+03    0.26808E-05   -0.69528E-08  1088   0.620E-04    0.105E-04
RMM:  17    -0.413216278931E+03    0.32786E-05   -0.58956E-08  1130   0.606E-04    0.593E-05
RMM:  18    -0.413216275256E+03    0.36750E-05   -0.54680E-08  1173   0.600E-04    0.486E-05
RMM:  19    -0.413216274847E+03    0.40868E-06   -0.20269E-08   741   0.515E-04
   45 T=    71. E= -.41286678E+03 F= -.41321627E+03 E0= -.41319531E+03  EK= 0.34949E+00 SP= 0.00E+00 SK= 0.00E+00
       N       E                     dE             d eps       ncg     rms          rms(c)
RMM:   1    -0.413236188960E+03   -0.19914E-01   -0.12114E+01  4310   0.159E+00    0.954E-01
RMM:   2    -0.413217777593E+03    0.18411E-01   -0.17837E-01  4356   0.186E-01    0.685E-01
RMM:   3    -0.413229757802E+03   -0.11980E-01   -0.20850E-02  5133   0.121E-01    0.539E-01
RMM:   4    -0.413232047775E+03   -0.22900E-02   -0.39878E-02  5015   0.175E-01    0.546E-01
RMM:   5    -0.413215951478E+03    0.16096E-01   -0.60906E-03  4574   0.957E-02    0.510E-02
RMM:   6    -0.413215894339E+03    0.57140E-04   -0.11004E-03  5308   0.333E-02    0.264E-02
RMM:   7    -0.413215889403E+03    0.49361E-05   -0.16518E-04  5642   0.126E-02    0.172E-02
RMM:   8    -0.413215883984E+03    0.54186E-05   -0.99227E-05  5137   0.100E-02    0.101E-02
RMM:   9    -0.413215868672E+03    0.15312E-04   -0.17320E-05  4347   0.551E-03    0.379E-03
RMM:  10    -0.413215865694E+03    0.29778E-05   -0.27060E-06  2693   0.221E-03    0.214E-03
RMM:  11    -0.413215859546E+03    0.61479E-05   -0.12850E-06  2489   0.181E-03    0.122E-03
RMM:  12    -0.413215854951E+03    0.45954E-05   -0.53047E-07  2397   0.130E-03    0.659E-04
RMM:  13    -0.413215851417E+03    0.35342E-05   -0.24122E-07  1712   0.872E-04    0.330E-04
RMM:  14    -0.413215847871E+03    0.35456E-05   -0.13324E-07  1325   0.706E-04    0.167E-04
RMM:  15    -0.413215843529E+03    0.43419E-05   -0.10374E-07  1194   0.667E-04    0.121E-04
RMM:  16    -0.413215841320E+03    0.22092E-05   -0.61230E-08  1014   0.603E-04    0.108E-04
RMM:  17    -0.413215838541E+03    0.27793E-05   -0.51669E-08  1022   0.591E-04    0.582E-05
RMM:  18    -0.413215835150E+03    0.33902E-05   -0.52760E-08  1080   0.594E-04    0.470E-05
RMM:  19    -0.413215834672E+03    0.47823E-06   -0.17723E-08   680   0.512E-04
   46 T=    71. E= -.41286671E+03 F= -.41321583E+03 E0= -.41319489E+03  EK= 0.34913E+00 SP= 0.00E+00 SK= 0.00E+00
       N       E                     dE             d eps       ncg     rms          rms(c)
RMM:   1    -0.413237246548E+03   -0.21411E-01   -0.12132E+01  4310   0.167E+00    0.942E-01
RMM:   2    -0.413216904077E+03    0.20342E-01   -0.19134E-01  4360   0.200E-01    0.698E-01
RMM:   3    -0.413229285543E+03   -0.12381E-01   -0.21320E-02  5136   0.127E-01    0.561E-01
RMM:   4    -0.413231791680E+03   -0.25061E-02   -0.42559E-02  5007   0.181E-01    0.566E-01
RMM:   5    -0.413214411300E+03    0.17380E-01   -0.67161E-03  4573   0.100E-01    0.536E-02
RMM:   6    -0.413214344580E+03    0.66720E-04   -0.11819E-03  5305   0.347E-02    0.270E-02
RMM:   7    -0.413214339307E+03    0.52732E-05   -0.17855E-04  5693   0.130E-02    0.184E-02
RMM:   8    -0.413214333686E+03    0.56205E-05   -0.10198E-04  5168   0.102E-02    0.103E-02
RMM:   9    -0.413214319406E+03    0.14280E-04   -0.18690E-05  4384   0.571E-03    0.391E-03
RMM:  10    -0.413214317277E+03    0.21292E-05   -0.29038E-06  2710   0.227E-03    0.221E-03
RMM:  11    -0.413214313101E+03    0.41762E-05   -0.14294E-06  2503   0.188E-03    0.130E-03
RMM:  12    -0.413214310032E+03    0.30691E-05   -0.57272E-07  2418   0.135E-03    0.695E-04
RMM:  13    -0.413214307335E+03    0.26964E-05   -0.27874E-07  1774   0.916E-04    0.335E-04
RMM:  14    -0.413214304819E+03    0.25162E-05   -0.16313E-07  1413   0.736E-04    0.177E-04
RMM:  15    -0.413214301805E+03    0.30136E-05   -0.12362E-07  1209   0.678E-04    0.115E-04
RMM:  16    -0.413214299934E+03    0.18718E-05   -0.77663E-08  1044   0.615E-04    0.976E-05
RMM:  17    -0.413214298026E+03    0.19078E-05   -0.59506E-08   991   0.591E-04    0.545E-05
RMM:  18    -0.413214295715E+03    0.23114E-05   -0.56952E-08  1038   0.594E-04    0.414E-05
RMM:  19    -0.413214295299E+03    0.41599E-06   -0.20196E-08   676   0.523E-04
   47 T=    71. E= -.41286671E+03 F= -.41321430E+03 E0= -.41319336E+03  EK= 0.34758E+00 SP= 0.00E+00 SK= 0.00E+00
       N       E                     dE             d eps       ncg     rms          rms(c)
RMM:   1    -0.413257902171E+03   -0.43606E-01   -0.12265E+01  4305   0.185E+00    0.964E-01
RMM:   2    -0.413213603636E+03    0.44299E-01   -0.19878E-01  4435   0.206E-01    0.693E-01
RMM:   3    -0.413234014145E+03   -0.20411E-01   -0.28283E-02  5147   0.147E-01    0.674E-01
RMM:   4    -0.413221863910E+03    0.12150E-01   -0.39081E-02  4968   0.177E-01    0.457E-01
RMM:   5    -0.413211756066E+03    0.10108E-01   -0.47517E-03  4525   0.901E-02    0.565E-02
RMM:   6    -0.413211620341E+03    0.13573E-03   -0.54208E-04  4799   0.288E-02    0.281E-02
RMM:   7    -0.413211618472E+03    0.18687E-05   -0.19664E-04  5919   0.142E-02    0.181E-02
RMM:   8    -0.413211601451E+03    0.17021E-04   -0.88636E-05  5131   0.103E-02    0.103E-02
RMM:   9    -0.413211590422E+03    0.11029E-04   -0.14090E-05  4110   0.502E-03    0.474E-03
RMM:  10    -0.413211586271E+03    0.41506E-05   -0.22715E-06  2580   0.241E-03    0.234E-03
RMM:  11    -0.413211580684E+03    0.55877E-05   -0.18246E-06  2536   0.208E-03    0.166E-03
RMM:  12    -0.413211576652E+03    0.40318E-05   -0.60166E-07  2395   0.142E-03    0.876E-04
RMM:  13    -0.413211572409E+03    0.42431E-05   -0.29273E-07  1819   0.939E-04    0.469E-04
RMM:  14    -0.413211566978E+03    0.54306E-05   -0.22877E-07  1933   0.833E-04    0.410E-04
RMM:  15    -0.413211563264E+03    0.37136E-05   -0.11120E-07  1078   0.602E-04    0.179E-04
RMM:  16    -0.413211560507E+03    0.27575E-05   -0.77576E-08  1025   0.584E-04    0.962E-05
RMM:  17    -0.413211557800E+03    0.27067E-05   -0.64502E-08  1016   0.580E-04    0.562E-05
RMM:  18    -0.413211555365E+03    0.24353E-05   -0.50376E-08   989   0.568E-04    0.672E-05
RMM:  19    -0.413211554448E+03    0.91725E-06   -0.25011E-08   739   0.518E-04
   48 T=    70. E= -.41286705E+03 F= -.41321155E+03 E0= -.41319063E+03  EK= 0.34451E+00 SP= 0.00E+00 SK= 0.00E+00
       N       E                     dE             d eps       ncg     rms          rms(c)
RMM:   1    -0.413254164967E+03   -0.42610E-01   -0.12021E+01  4305   0.196E+00    0.952E-01
RMM:   2    -0.413207798931E+03    0.46366E-01   -0.19218E-01  4489   0.216E-01    0.681E-01
RMM:   3    -0.413235247009E+03   -0.27448E-01   -0.34485E-02  5156   0.164E-01    0.757E-01
RMM:   4    -0.413212817135E+03    0.22430E-01   -0.38603E-02  4943   0.179E-01    0.390E-01
RMM:   5    -0.413206099566E+03    0.67176E-02   -0.46901E-03  4708   0.901E-02    0.662E-02
RMM:   6    -0.413205873229E+03    0.22634E-03   -0.48154E-04  4667   0.306E-02    0.316E-02
RMM:   7    -0.413205870279E+03    0.29496E-05   -0.18844E-04  5748   0.148E-02    0.221E-02
RMM:   8    -0.413205844819E+03    0.25460E-04   -0.62579E-05  4955   0.882E-03    0.899E-03
RMM:   9    -0.413205834637E+03    0.10182E-04   -0.13231E-05  3744   0.447E-03    0.410E-03
RMM:  10    -0.413205829578E+03    0.50590E-05   -0.19465E-06  2572   0.222E-03    0.241E-03
RMM:  11    -0.413205822435E+03    0.71436E-05   -0.87366E-07  2487   0.154E-03    0.142E-03
RMM:  12    -0.413205818566E+03    0.38687E-05   -0.36162E-07  2231   0.105E-03    0.693E-04
RMM:  13    -0.413205812608E+03    0.59580E-05   -0.32945E-07  1920   0.928E-04    0.376E-04
RMM:  14    -0.413205808438E+03    0.41698E-05   -0.18177E-07  1352   0.741E-04    0.255E-04
RMM:  15    -0.413205803748E+03    0.46903E-05   -0.14570E-07  1216   0.696E-04    0.124E-04
RMM:  16    -0.413205801300E+03    0.24480E-05   -0.94724E-08  1183   0.642E-04    0.949E-05
RMM:  17    -0.413205797493E+03    0.38073E-05   -0.93206E-08  1339   0.649E-04    0.819E-05
RMM:  18    -0.413205796777E+03    0.71555E-06   -0.42010E-08   910   0.541E-04
   49 T=    69. E= -.41286665E+03 F= -.41320580E+03 E0= -.41318488E+03  EK= 0.33914E+00 SP= 0.00E+00 SK= 0.00E+00
       N       E                     dE             d eps       ncg     rms          rms(c)
RMM:   1    -0.413223360064E+03   -0.17563E-01   -0.11541E+01  4305   0.196E+00    0.920E-01
RMM:   2    -0.413201229040E+03    0.22131E-01   -0.18960E-01  4510   0.224E-01    0.685E-01
RMM:   3    -0.413228112840E+03   -0.26884E-01   -0.33971E-02  5160   0.166E-01    0.760E-01
RMM:   4    -0.413206117484E+03    0.21995E-01   -0.39625E-02  4940   0.182E-01    0.397E-01
RMM:   5    -0.413198924951E+03    0.71925E-02   -0.50827E-03  4741   0.931E-02    0.691E-02
RMM:   6    -0.413198668780E+03    0.25617E-03   -0.50779E-04  4658   0.317E-02    0.320E-02
RMM:   7    -0.413198665005E+03    0.37748E-05   -0.19197E-04  5768   0.149E-02    0.221E-02
RMM:   8    -0.413198641593E+03    0.23412E-04   -0.63106E-05  5007   0.871E-03    0.940E-03
RMM:   9    -0.413198633371E+03    0.82216E-05   -0.14398E-05  3829   0.464E-03    0.413E-03
RMM:  10    -0.413198629382E+03    0.39892E-05   -0.22017E-06  2603   0.230E-03    0.250E-03
RMM:  11    -0.413198624343E+03    0.50391E-05   -0.86311E-07  2487   0.154E-03    0.144E-03
RMM:  12    -0.413198621546E+03    0.27964E-05   -0.37361E-07  2224   0.105E-03    0.710E-04
RMM:  13    -0.413198617197E+03    0.43491E-05   -0.38335E-07  2071   0.967E-04    0.435E-04
RMM:  14    -0.413198614415E+03    0.27821E-05   -0.19328E-07  1328   0.738E-04    0.274E-04
RMM:  15    -0.413198611265E+03    0.31503E-05   -0.16325E-07  1236   0.708E-04    0.119E-04
RMM:  16    -0.413198609503E+03    0.17624E-05   -0.10726E-07  1213   0.655E-04    0.985E-05
RMM:  17    -0.413198607260E+03    0.22424E-05   -0.99458E-08  1321   0.646E-04    0.806E-05
RMM:  18    -0.413198606859E+03    0.40141E-06   -0.45076E-08   914   0.539E-04
   50 T=    68. E= -.41286698E+03 F= -.41319861E+03 E0= -.41317770E+03  EK= 0.33162E+00 SP= 0.00E+00 SK= 0.00E+00
       N       E                     dE             d eps       ncg     rms          rms(c)
RMM:   1    -0.413219608649E+03   -0.21001E-01   -0.11294E+01  4301   0.210E+00    0.926E-01
[...]
  136 T=    60. E= -.41286661E+03 F= -.41316050E+03 E0= -.41313975E+03  EK= 0.29389E+00 SP= 0.00E+00 SK= 0.00E+00
       N       E                     dE             d eps       ncg     rms          rms(c)
RMM:   1    -0.413152526987E+03    0.79726E-02   -0.96614E+00  4267   0.813E-01    0.796E-01
RMM:   2    -0.413161803697E+03   -0.92767E-02   -0.11105E-01  4297   0.919E-02    0.568E-01
RMM:   3    -0.413161269439E+03    0.53426E-03   -0.55193E-03  4997   0.404E-02    0.155E-01
RMM:   4    -0.413192381151E+03   -0.31112E-01   -0.32986E-02  5140   0.151E-01    0.736E-01
RMM:   5    -0.413160737661E+03    0.31643E-01   -0.15524E-02  4803   0.123E-01    0.447E-02
RMM:   6    -0.413160772508E+03   -0.34848E-04   -0.25428E-03  5715   0.475E-02    0.137E-02
RMM:   7    -0.413160816154E+03   -0.43646E-04   -0.30269E-04  5846   0.140E-02    0.113E-02
RMM:   8    -0.413160830884E+03   -0.14730E-04   -0.36284E-05  4225   0.529E-03    0.728E-03
RMM:   9    -0.413160847227E+03   -0.16343E-04   -0.56567E-06  2832   0.278E-03    0.363E-03
RMM:  10    -0.413160863807E+03   -0.16580E-04   -0.27353E-06  2571   0.207E-03    0.195E-03
RMM:  11    -0.413160876040E+03   -0.12232E-04   -0.15934E-06  2508   0.160E-03    0.861E-04
RMM:  12    -0.413160883865E+03   -0.78255E-05   -0.96218E-07  2343   0.124E-03    0.392E-04
RMM:  13    -0.413160888044E+03   -0.41793E-05   -0.49771E-07  1865   0.950E-04    0.304E-04
RMM:  14    -0.413160893334E+03   -0.52893E-05   -0.71984E-07  1808   0.980E-04    0.158E-04
RMM:  15    -0.413160894797E+03   -0.14636E-05   -0.25956E-07  1510   0.750E-04    0.896E-05
RMM:  16    -0.413160895792E+03   -0.99450E-06   -0.19133E-07  1352   0.697E-04
  137 T=    60. E= -.41286625E+03 F= -.41316090E+03 E0= -.41314016E+03  EK= 0.29464E+00 SP= 0.00E+00 SK= 0.00E+00
       N       E                     dE             d eps       ncg     rms          rms(c)
RMM:   1    -0.413152364173E+03    0.85306E-02   -0.96271E+00  4265   0.814E-01    0.814E-01
RMM:   2    -0.413160553923E+03   -0.81897E-02   -0.11006E-01  4294   0.930E-02    0.561E-01
RMM:   3    -0.413160455122E+03    0.98801E-04   -0.57561E-03  4959   0.378E-02    0.153E-01
RMM:   4    -0.413186422208E+03   -0.25967E-01   -0.26904E-02  5152   0.137E-01    0.672E-01
RMM:   5    -0.413160184191E+03    0.26238E-01   -0.13039E-02  4809   0.112E-01    0.427E-02
RMM:   6    -0.413160200650E+03   -0.16458E-04   -0.21301E-03  5700   0.437E-02    0.158E-02
RMM:   7    -0.413160231664E+03   -0.31014E-04   -0.25757E-04  5796   0.131E-02    0.114E-02
RMM:   8    -0.413160240547E+03   -0.88823E-05   -0.31262E-05  4180   0.508E-03    0.705E-03
RMM:   9    -0.413160248602E+03   -0.80553E-05   -0.52483E-06  2779   0.272E-03    0.328E-03
RMM:  10    -0.413160256482E+03   -0.78799E-05   -0.25059E-06  2570   0.197E-03    0.178E-03
RMM:  11    -0.413160261746E+03   -0.52640E-05   -0.13920E-06  2487   0.150E-03    0.841E-04
RMM:  12    -0.413160264836E+03   -0.30905E-05   -0.84863E-07  2270   0.117E-03    0.364E-04
RMM:  13    -0.413160266541E+03   -0.17051E-05   -0.52141E-07  1835   0.944E-04    0.257E-04
RMM:  14    -0.413160267781E+03   -0.12394E-05   -0.62872E-07  1815   0.945E-04    0.143E-04
RMM:  15    -0.413160267972E+03   -0.19142E-06   -0.24190E-07  1415   0.728E-04
  138 T=    60. E= -.41286651E+03 F= -.41316027E+03 E0= -.41313954E+03  EK= 0.29375E+00 SP= 0.00E+00 SK= 0.00E+00
       N       E                     dE             d eps       ncg     rms          rms(c)
RMM:   1    -0.413152628995E+03    0.76388E-02   -0.93850E+00  4265   0.809E-01    0.788E-01
RMM:   2    -0.413161747065E+03   -0.91181E-02   -0.10969E-01  4297   0.930E-02    0.560E-01
RMM:   3    -0.413160648819E+03    0.10982E-02   -0.53638E-03  4865   0.363E-02    0.138E-01
RMM:   4    -0.413177503724E+03   -0.16855E-01   -0.17271E-02  5153   0.110E-01    0.543E-01
RMM:   5    -0.413160552134E+03    0.16952E-01   -0.85366E-03  4824   0.904E-02    0.359E-02
RMM:   6    -0.413160558049E+03   -0.59151E-05   -0.14056E-03  5698   0.358E-02    0.156E-02
RMM:   7    -0.413160586309E+03   -0.28260E-04   -0.17425E-04  5594   0.110E-02    0.103E-02
RMM:   8    -0.413160601384E+03   -0.15074E-04   -0.26309E-05  4378   0.517E-03    0.561E-03
RMM:   9    -0.413160611106E+03   -0.97223E-05   -0.46274E-06  2789   0.263E-03    0.263E-03
RMM:  10    -0.413160619878E+03   -0.87724E-05   -0.19577E-06  2547   0.183E-03    0.172E-03
RMM:  11    -0.413160627686E+03   -0.78072E-05   -0.13965E-06  2493   0.147E-03    0.885E-04
RMM:  12    -0.413160632110E+03   -0.44242E-05   -0.85008E-07  2150   0.113E-03    0.336E-04
RMM:  13    -0.413160634335E+03   -0.22251E-05   -0.54097E-07  1810   0.932E-04    0.235E-04
RMM:  14    -0.413160635700E+03   -0.13649E-05   -0.55661E-07  1715   0.890E-04    0.138E-04
RMM:  15    -0.413160635872E+03   -0.17220E-06   -0.22039E-07  1368   0.701E-04
  139 T=    60. E= -.41286649E+03 F= -.41316064E+03 E0= -.41313992E+03  EK= 0.29414E+00 SP= 0.00E+00 SK= 0.00E+00
       N       E                     dE             d eps       ncg     rms          rms(c)
RMM:   1    -0.413154467387E+03    0.61683E-02   -0.92055E+00  4266   0.803E-01    0.784E-01
RMM:   2    -0.413163408674E+03   -0.89413E-02   -0.11035E-01  4293   0.957E-02    0.574E-01
RMM:   3    -0.413161754515E+03    0.16542E-02   -0.60310E-03  4744   0.361E-02    0.116E-01
RMM:   4    -0.413169212256E+03   -0.74577E-02   -0.80108E-03  5165   0.752E-02    0.364E-01
RMM:   5    -0.413161703995E+03    0.75083E-02   -0.38183E-03  4835   0.609E-02    0.314E-02
RMM:   6    -0.413161698946E+03    0.50487E-05   -0.66151E-04  5659   0.254E-02    0.176E-02
RMM:   7    -0.413161730844E+03   -0.31898E-04   -0.10423E-04  5371   0.900E-03    0.903E-03
RMM:   8    -0.413161750310E+03   -0.19466E-04   -0.26310E-05  4584   0.540E-03    0.490E-03
RMM:   9    -0.413161756868E+03   -0.65584E-05   -0.26892E-06  2679   0.226E-03    0.258E-03
RMM:  10    -0.413161767681E+03   -0.10813E-04   -0.17027E-06  2538   0.179E-03    0.170E-03
RMM:  11    -0.413161777636E+03   -0.99557E-05   -0.15386E-06  2490   0.150E-03    0.849E-04
RMM:  12    -0.413161782106E+03   -0.44696E-05   -0.74122E-07  2073   0.107E-03    0.392E-04
RMM:  13    -0.413161784774E+03   -0.26684E-05   -0.58044E-07  1769   0.919E-04    0.256E-04
RMM:  14    -0.413161786043E+03   -0.12691E-05   -0.48913E-07  1667   0.839E-04    0.173E-04
RMM:  15    -0.413161785990E+03    0.53002E-07   -0.24243E-07  1304   0.689E-04
  140 T=    60. E= -.41286617E+03 F= -.41316179E+03 E0= -.41314109E+03  EK= 0.29562E+00 SP= 0.00E+00 SK= 0.00E+00
       N       E                     dE             d eps       ncg     rms          rms(c)
RMM:   1    -0.413156183516E+03    0.56025E-02   -0.88721E+00  4264   0.795E-01    0.805E-01
RMM:   2    -0.413163393623E+03   -0.72101E-02   -0.10547E-01  4293   0.938E-02    0.571E-01
RMM:   3    -0.413161756693E+03    0.16369E-02   -0.72368E-03  4673   0.354E-02    0.112E-01
RMM:   4    -0.413164765031E+03   -0.30083E-02   -0.36576E-03  5165   0.516E-02    0.230E-01
RMM:   5    -0.413161807577E+03    0.29575E-02   -0.15451E-03  4829   0.393E-02    0.344E-02
RMM:   6    -0.413161795468E+03    0.12109E-04   -0.34299E-04  5487   0.194E-02    0.229E-02
RMM:   7    -0.413161816487E+03   -0.21019E-04   -0.11679E-04  5414   0.933E-03    0.107E-02
RMM:   8    -0.413161819530E+03   -0.30433E-05   -0.22649E-05  4620   0.552E-03    0.563E-03
RMM:   9    -0.413161821004E+03   -0.14745E-05   -0.18759E-06  2582   0.191E-03    0.278E-03
RMM:  10    -0.413161826773E+03   -0.57688E-05   -0.17743E-06  2528   0.171E-03    0.140E-03
RMM:  11    -0.413161829199E+03   -0.24254E-05   -0.10148E-06  2343   0.129E-03    0.642E-04
RMM:  12    -0.413161830102E+03   -0.90344E-06   -0.69581E-07  2089   0.104E-03
  141 T=    60. E= -.41286650E+03 F= -.41316183E+03 E0= -.41314114E+03  EK= 0.29533E+00 SP= 0.00E+00 SK= 0.00E+00
       N       E                     dE             d eps       ncg     rms          rms(c)
RMM:   1    -0.413156989761E+03    0.48394E-02   -0.83864E+00  4264   0.788E-01    0.789E-01
RMM:   2    -0.413163315339E+03   -0.63256E-02   -0.10115E-01  4295   0.918E-02    0.569E-01
RMM:   3    -0.413161128503E+03    0.21868E-02   -0.85816E-03  4600   0.368E-02    0.910E-02
RMM:   4    -0.413162173200E+03   -0.10447E-02   -0.16891E-03  5213   0.342E-02    0.138E-01
RMM:   5    -0.413161180831E+03    0.99237E-03   -0.59311E-04  4850   0.248E-02    0.368E-02
RMM:   6    -0.413161168630E+03    0.12201E-04   -0.24145E-04  5340   0.162E-02    0.253E-02
RMM:   7    -0.413161189852E+03   -0.21222E-04   -0.14755E-04  5263   0.963E-03    0.144E-02
RMM:   8    -0.413161187781E+03    0.20706E-05   -0.16501E-05  4298   0.507E-03    0.707E-03
RMM:   9    -0.413161188997E+03   -0.12156E-05   -0.39778E-06  2552   0.214E-03    0.272E-03
RMM:  10    -0.413161194366E+03   -0.53689E-05   -0.20693E-06  2539   0.192E-03    0.141E-03
RMM:  11    -0.413161197353E+03   -0.29873E-05   -0.16231E-06  2469   0.157E-03    0.703E-04
RMM:  12    -0.413161197695E+03   -0.34246E-06   -0.62258E-07  2061   0.106E-03
  142 T=    60. E= -.41286617E+03 F= -.41316120E+03 E0= -.41314052E+03  EK= 0.29503E+00 SP= 0.00E+00 SK= 0.00E+00
       N       E                     dE             d eps       ncg     rms          rms(c)
RMM:   1    -0.413159904975E+03    0.12924E-02   -0.79841E+00  4264   0.764E-01    0.781E-01
RMM:   2    -0.413165748851E+03   -0.58439E-02   -0.97901E-02  4297   0.894E-02    0.581E-01
RMM:   3    -0.413162762947E+03    0.29859E-02   -0.11683E-02  4570   0.409E-02    0.531E-02
RMM:   4    -0.413163549768E+03   -0.78682E-03   -0.11809E-03  5179   0.297E-02    0.119E-01
RMM:   5    -0.413162809729E+03    0.74004E-03   -0.45904E-04  4867   0.218E-02    0.378E-02
RMM:   6    -0.413162807544E+03    0.21848E-05   -0.23268E-04  5286   0.159E-02    0.258E-02
RMM:   7    -0.413162841724E+03   -0.34180E-04   -0.16353E-04  5076   0.986E-03    0.159E-02
RMM:   8    -0.413162839090E+03    0.26336E-05   -0.13664E-05  3999   0.467E-03    0.787E-03
RMM:   9    -0.413162841065E+03   -0.19749E-05   -0.51785E-06  2559   0.225E-03    0.290E-03
RMM:  10    -0.413162853530E+03   -0.12465E-04   -0.28310E-06  2575   0.212E-03    0.143E-03
RMM:  11    -0.413162860418E+03   -0.68885E-05   -0.17371E-06  2489   0.165E-03    0.747E-04
RMM:  12    -0.413162862685E+03   -0.22671E-05   -0.78634E-07  2217   0.114E-03    0.628E-04
RMM:  13    -0.413162863552E+03   -0.86629E-06   -0.79236E-07  2120   0.104E-03
  143 T=    60. E= -.41286625E+03 F= -.41316286E+03 E0= -.41314220E+03  EK= 0.29661E+00 SP= 0.00E+00 SK= 0.00E+00
       N       E                     dE             d eps       ncg     rms          rms(c)
RMM:   1    -0.413162351848E+03    0.51084E-03   -0.75017E+00  4264   0.746E-01    0.800E-01
RMM:   2    -0.413166409892E+03   -0.40580E-02   -0.91981E-02  4299   0.867E-02    0.583E-01
RMM:   3    -0.413163090818E+03    0.33191E-02   -0.14694E-02  4703   0.415E-02    0.582E-02
RMM:   4    -0.413166899261E+03   -0.38084E-02   -0.41508E-03  5162   0.556E-02    0.264E-01
RMM:   5    -0.413163066803E+03    0.38325E-02   -0.20141E-03  4843   0.444E-02    0.407E-02
RMM:   6    -0.413163059438E+03    0.73649E-05   -0.51956E-04  5488   0.232E-02    0.286E-02
RMM:   7    -0.413163076437E+03   -0.16999E-04   -0.18715E-04  5343   0.119E-02    0.156E-02
RMM:   8    -0.413163075584E+03    0.85323E-06   -0.24865E-05  4744   0.573E-03    0.732E-03
RMM:   9    -0.413163077568E+03   -0.19846E-05   -0.49199E-06  2670   0.240E-03    0.300E-03
RMM:  10    -0.413163082967E+03   -0.53990E-05   -0.20745E-06  2548   0.196E-03    0.156E-03
RMM:  11    -0.413163085580E+03   -0.26131E-05   -0.15326E-06  2505   0.160E-03    0.754E-04
RMM:  12    -0.413163085707E+03   -0.12629E-06   -0.75637E-07  2236   0.116E-03
  144 T=    60. E= -.41286642E+03 F= -.41316309E+03 E0= -.41314243E+03  EK= 0.29667E+00 SP= 0.00E+00 SK= 0.00E+00
       N       E                     dE             d eps       ncg     rms          rms(c)
RMM:   1    -0.413163153106E+03   -0.67526E-04   -0.69770E+00  4264   0.726E-01    0.801E-01
RMM:   2    -0.413165618144E+03   -0.24650E-02   -0.86452E-02  4300   0.834E-02    0.581E-01
RMM:   3    -0.413162015616E+03    0.36025E-02   -0.18173E-02  4620   0.434E-02    0.615E-02
RMM:   4    -0.413163250454E+03   -0.12348E-02   -0.16000E-03  5168   0.365E-02    0.156E-01
RMM:   5    -0.413161956347E+03    0.12941E-02   -0.74024E-04  4859   0.274E-02    0.406E-02
RMM:   6    -0.413161962273E+03   -0.59257E-05   -0.36600E-04  5333   0.199E-02    0.293E-02
RMM:   7    -0.413161957038E+03    0.52351E-05   -0.15979E-04  4923   0.119E-02    0.155E-02
RMM:   8    -0.413161954461E+03    0.25765E-05   -0.16573E-05  4285   0.494E-03    0.723E-03
RMM:   9    -0.413161956287E+03   -0.18263E-05   -0.59887E-06  2621   0.243E-03    0.248E-03
RMM:  10    -0.413161959326E+03   -0.30385E-05   -0.26853E-06  2538   0.212E-03    0.131E-03
RMM:  11    -0.413161959143E+03    0.18300E-06   -0.13398E-06  2469   0.157E-03
  145 T=    60. E= -.41286611E+03 F= -.41316196E+03 E0= -.41314131E+03  EK= 0.29585E+00 SP= 0.00E+00 SK= 0.00E+00
       N       E                     dE             d eps       ncg     rms          rms(c)
RMM:   1    -0.413166244353E+03   -0.42850E-02   -0.65619E+00  4264   0.711E-01    0.791E-01
RMM:   2    -0.413168018876E+03   -0.17745E-02   -0.81771E-02  4301   0.827E-02    0.585E-01
RMM:   3    -0.413164158055E+03    0.38608E-02   -0.25162E-02  4806   0.527E-02    0.130E-01
RMM:   4    -0.413174690495E+03   -0.10532E-01   -0.11861E-02  5129   0.934E-02    0.443E-01
RMM:   5    -0.413163581229E+03    0.11109E-01   -0.54580E-03  4820   0.728E-02    0.423E-02
RMM:   6    -0.413163603858E+03   -0.22629E-04   -0.10531E-03  5635   0.316E-02    0.286E-02
RMM:   7    -0.413163620421E+03   -0.16563E-04   -0.22759E-04  5545   0.139E-02    0.157E-02
RMM:   8    -0.413163626259E+03   -0.58383E-05   -0.34675E-05  5029   0.653E-03    0.722E-03
RMM:   9    -0.413163630576E+03   -0.43161E-05   -0.49213E-06  2885   0.278E-03    0.379E-03
RMM:  10    -0.413163639043E+03   -0.84675E-05   -0.22518E-06  2565   0.211E-03    0.209E-03
RMM:  11    -0.413163644137E+03   -0.50937E-05   -0.16518E-06  2530   0.169E-03    0.105E-03
RMM:  12    -0.413163645998E+03   -0.18614E-05   -0.10996E-06  2453   0.134E-03    0.622E-04
RMM:  13    -0.413163646050E+03   -0.51801E-07   -0.66009E-07  2076   0.103E-03
  146 T=    61. E= -.41286635E+03 F= -.41316365E+03 E0= -.41314301E+03  EK= 0.29730E+00 SP= 0.00E+00 SK= 0.00E+00
       N       E                     dE             d eps       ncg     rms          rms(c)
RMM:   1    -0.413168590343E+03   -0.49443E-02   -0.62036E+00  4264   0.695E-01    0.808E-01
RMM:   2    -0.413169004161E+03   -0.41382E-03   -0.77494E-02  4300   0.819E-02    0.592E-01
RMM:   3    -0.413164628159E+03    0.43760E-02   -0.29773E-02  4595   0.542E-02    0.143E-01
RMM:   4    -0.413164725128E+03   -0.96968E-04   -0.15737E-03  5046   0.376E-02    0.115E-01
RMM:   5    -0.413164075052E+03    0.65008E-03   -0.41540E-04  4852   0.214E-02    0.391E-02
RMM:   6    -0.413164077482E+03   -0.24295E-05   -0.28498E-04  5198   0.176E-02    0.270E-02
RMM:   7    -0.413164101221E+03   -0.23739E-04   -0.12929E-04  4784   0.114E-02    0.152E-02
RMM:   8    -0.413164100384E+03    0.83694E-06   -0.13401E-05  3972   0.459E-03    0.656E-03
RMM:   9    -0.413164105887E+03   -0.55028E-05   -0.88846E-06  2677   0.271E-03    0.297E-03
RMM:  10    -0.413164112598E+03   -0.67111E-05   -0.23709E-06  2514   0.197E-03    0.121E-03
RMM:  11    -0.413164116703E+03   -0.41055E-05   -0.15778E-06  2464   0.152E-03    0.735E-04
RMM:  12    -0.413164117226E+03   -0.52230E-06   -0.61620E-07  2061   0.102E-03
  147 T=    61. E= -.41286611E+03 F= -.41316412E+03 E0= -.41314349E+03  EK= 0.29800E+00 SP= 0.00E+00 SK= 0.00E+00
       N       E                     dE             d eps       ncg     rms          rms(c)
RMM:   1    -0.413169289570E+03   -0.51729E-02   -0.58588E+00  4264   0.681E-01    0.821E-01
RMM:   2    -0.413168389949E+03    0.89962E-03   -0.74013E-02  4300   0.801E-02    0.590E-01
RMM:   3    -0.413163797466E+03    0.45925E-02   -0.31883E-02  4663   0.550E-02    0.142E-01
RMM:   4    -0.413166533999E+03   -0.27365E-02   -0.42491E-03  5127   0.575E-02    0.246E-01
RMM:   5    -0.413163225154E+03    0.33088E-02   -0.16856E-03  4817   0.416E-02    0.387E-02
RMM:   6    -0.413163223824E+03    0.13298E-05   -0.47048E-04  5425   0.224E-02    0.273E-02
RMM:   7    -0.413163236972E+03   -0.13147E-04   -0.14411E-04  5181   0.120E-02    0.151E-02
RMM:   8    -0.413163236769E+03    0.20216E-06   -0.22563E-05  4588   0.538E-03    0.634E-03
RMM:   9    -0.413163239130E+03   -0.23611E-05   -0.55166E-06  2683   0.252E-03    0.297E-03
RMM:  10    -0.413163241220E+03   -0.20898E-05   -0.19801E-06  2520   0.184E-03    0.140E-03
RMM:  11    -0.413163241408E+03   -0.18722E-06   -0.16588E-06  2497   0.157E-03
  148 T=    60. E= -.41286608E+03 F= -.41316324E+03 E0= -.41314262E+03  EK= 0.29716E+00 SP= 0.00E+00 SK= 0.00E+00
       N       E                     dE             d eps       ncg     rms          rms(c)
RMM:   1    -0.413170745793E+03   -0.75046E-02   -0.56510E+00  4264   0.676E-01    0.805E-01
RMM:   2    -0.413169805597E+03    0.94020E-03   -0.71168E-02  4303   0.782E-02    0.588E-01
RMM:   3    -0.413165414490E+03    0.43911E-02   -0.37163E-02  4793   0.597E-02    0.197E-01
RMM:   4    -0.413172573955E+03   -0.71595E-02   -0.99002E-03  5111   0.855E-02    0.384E-01
RMM:   5    -0.413164309382E+03    0.82646E-02   -0.40873E-03  4823   0.641E-02    0.394E-02
RMM:   6    -0.413164314674E+03   -0.52926E-05   -0.78620E-04  5577   0.278E-02    0.257E-02
RMM:   7    -0.413164341066E+03   -0.26392E-04   -0.16930E-04  5491   0.125E-02    0.146E-02
RMM:   8    -0.413164348991E+03   -0.79249E-05   -0.30029E-05  4826   0.601E-03    0.619E-03
RMM:   9    -0.413164353410E+03   -0.44191E-05   -0.46688E-06  2800   0.265E-03    0.338E-03
RMM:  10    -0.413164360286E+03   -0.68761E-05   -0.22025E-06  2549   0.197E-03    0.182E-03
RMM:  11    -0.413164364413E+03   -0.41267E-05   -0.15253E-06  2507   0.153E-03    0.896E-04
RMM:  12    -0.413164365835E+03   -0.14223E-05   -0.84807E-07  2279   0.117E-03    0.536E-04
RMM:  13    -0.413164365785E+03    0.50117E-07   -0.60459E-07  1953   0.967E-04
  149 T=    61. E= -.41286632E+03 F= -.41316437E+03 E0= -.41314375E+03  EK= 0.29805E+00 SP= 0.00E+00 SK= 0.00E+00
       N       E                     dE             d eps       ncg     rms          rms(c)
RMM:   1    -0.413172247642E+03   -0.78818E-02   -0.56210E+00  4264   0.675E-01    0.813E-01
RMM:   2    -0.413170941621E+03    0.13060E-02   -0.70165E-02  4310   0.769E-02    0.595E-01
RMM:   3    -0.413166433896E+03    0.45077E-02   -0.39882E-02  4809   0.590E-02    0.217E-01
RMM:   4    -0.413171734554E+03   -0.53007E-02   -0.85498E-03  5112   0.784E-02    0.341E-01
RMM:   5    -0.413165229901E+03    0.65047E-02   -0.32511E-03  4819   0.576E-02    0.387E-02
RMM:   6    -0.413165224365E+03    0.55358E-05   -0.64981E-04  5529   0.256E-02    0.246E-02
RMM:   7    -0.413165261200E+03   -0.36835E-04   -0.14645E-04  5473   0.116E-02    0.138E-02
RMM:   8    -0.413165270827E+03   -0.96264E-05   -0.28158E-05  4818   0.599E-03    0.608E-03
RMM:   9    -0.413165276602E+03   -0.57751E-05   -0.41804E-06  2725   0.253E-03    0.323E-03
RMM:  10    -0.413165285050E+03   -0.84485E-05   -0.20042E-06  2551   0.189E-03    0.177E-03
RMM:  11    -0.413165291639E+03   -0.65881E-05   -0.15958E-06  2488   0.152E-03    0.826E-04
RMM:  12    -0.413165294231E+03   -0.25927E-05   -0.72489E-07  2150   0.110E-03    0.473E-04
RMM:  13    -0.413165295721E+03   -0.14894E-05   -0.59762E-07  1955   0.970E-04    0.288E-04
RMM:  14    -0.413165295743E+03   -0.22061E-07   -0.53767E-07  1768   0.907E-04
  150 T=    61. E= -.41286603E+03 F= -.41316530E+03 E0= -.41314468E+03  EK= 0.29926E+00 SP= 0.00E+00 SK= 0.00E+00
