       N       E                     dE             d eps       ncg     rms          rms(c)
RMM:   1     0.220128552062E+04    0.22013E+04   -0.52441E+04  2132   0.654E+02
RMM:   2     0.705666985263E+03   -0.14956E+04   -0.16257E+04  2132   0.177E+02
RMM:   3     0.137545436411E+03   -0.56812E+03   -0.65748E+03  2132   0.117E+02
RMM:   4    -0.159256695282E+03   -0.29680E+03   -0.27854E+03  2132   0.936E+01
RMM:   5    -0.287584599254E+03   -0.12833E+03   -0.11446E+03  2132   0.595E+01
RMM:   6    -0.349810061227E+03   -0.62225E+02   -0.55141E+02  2132   0.423E+01
RMM:   7    -0.382728686064E+03   -0.32919E+02   -0.30439E+02  2132   0.293E+01
RMM:   8    -0.404213379381E+03   -0.21485E+02   -0.18420E+02  2132   0.233E+01
RMM:   9    -0.435984915517E+03   -0.31772E+02   -0.30711E+02  6104   0.173E+01
RMM:  10    -0.441290957625E+03   -0.53060E+01   -0.63200E+01  6394   0.539E+00
RMM:  11    -0.442519877039E+03   -0.12289E+01   -0.10979E+01  6231   0.173E+00
RMM:  12    -0.442892456133E+03   -0.37258E+00   -0.27094E+00  6364   0.604E-01    0.134E+02
RMM:  13    -0.425627324726E+03    0.17265E+02   -0.80978E+01  4671   0.119E+01    0.712E+01
RMM:  14    -0.499502148657E+03   -0.73875E+02   -0.54228E+02  5418   0.233E+01    0.307E+01
RMM:  15    -0.414201690050E+03    0.85300E+02   -0.19581E+02  5060   0.163E+01    0.604E+00
RMM:  16    -0.414094751695E+03    0.10694E+00   -0.39288E+01  6083   0.603E+00    0.433E+00
RMM:  17    -0.413227113164E+03    0.86764E+00   -0.22734E+00  5318   0.181E+00    0.248E+00
RMM:  18    -0.413163030487E+03    0.64083E-01   -0.92780E-01  5953   0.997E-01    0.157E+00
RMM:  19    -0.413167592217E+03   -0.45617E-02   -0.28872E-01  5750   0.564E-01    0.858E-01
RMM:  20    -0.413181321619E+03   -0.13729E-01   -0.19068E-01  5273   0.489E-01    0.517E-01
RMM:  21    -0.413166573447E+03    0.14748E-01   -0.32757E-02  5006   0.224E-01    0.240E-01
RMM:  22    -0.413165504425E+03    0.10690E-02   -0.12841E-02  6135   0.917E-02    0.153E-01
RMM:  23    -0.413163851920E+03    0.16525E-02   -0.56924E-03  5784   0.714E-02    0.798E-02
RMM:  24    -0.413162698551E+03    0.11534E-02   -0.17533E-03  5575   0.403E-02    0.332E-02
RMM:  25    -0.413162587218E+03    0.11133E-03   -0.75881E-04  5851   0.227E-02    0.274E-02
RMM:  26    -0.413162851924E+03   -0.26471E-03   -0.49819E-04  5748   0.234E-02    0.273E-02
RMM:  27    -0.413163303479E+03   -0.45156E-03   -0.17735E-04  4527   0.185E-02    0.153E-02
RMM:  28    -0.413163818811E+03   -0.51533E-03   -0.18837E-04  5104   0.200E-02    0.877E-03
RMM:  29    -0.413164149440E+03   -0.33063E-03   -0.99087E-05  4368   0.135E-02    0.345E-03
RMM:  30    -0.413164362806E+03   -0.21337E-03   -0.75948E-05  4113   0.972E-03    0.285E-03
RMM:  31    -0.413164448288E+03   -0.85483E-04   -0.41790E-05  3088   0.517E-03    0.205E-03
RMM:  32    -0.413164471696E+03   -0.23408E-04   -0.17194E-05  2909   0.268E-03    0.106E-03
RMM:  33    -0.413164479500E+03   -0.78046E-05   -0.82221E-06  2738   0.189E-03    0.644E-04
RMM:  34    -0.413164482175E+03   -0.26743E-05   -0.36666E-06  2524   0.140E-03    0.719E-04
RMM:  35    -0.413164482337E+03   -0.16243E-06   -0.20213E-06  1788   0.976E-04
    1 T=    61. E= -.41286666E+03 F= -.41316448E+03 E0= -.41314198E+03  EK= 0.29782E+00 SP= 0.00E+00 SK= 0.00E+00
       N       E                     dE             d eps       ncg     rms          rms(c)
RMM:   1    -0.413154962355E+03    0.95198E-02   -0.11056E+01  4004   0.695E-01    0.886E-01
RMM:   2    -0.413165752208E+03   -0.10790E-01   -0.13623E-01  3966   0.998E-02    0.641E-01
RMM:   3    -0.413164349673E+03    0.14025E-02   -0.67917E-03  4905   0.395E-02    0.160E-01
RMM:   4    -0.413194754303E+03   -0.30405E-01   -0.32257E-02  5214   0.148E-01    0.725E-01
RMM:   5    -0.413163790741E+03    0.30964E-01   -0.15326E-02  4844   0.122E-01    0.373E-02
RMM:   6    -0.413163983517E+03   -0.19278E-03   -0.24730E-03  5830   0.480E-02    0.193E-02
RMM:   7    -0.413164004807E+03   -0.21290E-04   -0.31149E-04  5947   0.145E-02    0.146E-02
RMM:   8    -0.413164010952E+03   -0.61446E-05   -0.44245E-05  4777   0.599E-03    0.852E-03
RMM:   9    -0.413164015688E+03   -0.47359E-05   -0.88940E-06  3238   0.318E-03    0.560E-03
RMM:  10    -0.413164022595E+03   -0.69073E-05   -0.23967E-06  2590   0.206E-03    0.324E-03
RMM:  11    -0.413164030190E+03   -0.75950E-05   -0.17989E-06  2564   0.185E-03    0.158E-03
RMM:  12    -0.413164035452E+03   -0.52620E-05   -0.10177E-06  2469   0.145E-03    0.493E-04
RMM:  13    -0.413164036658E+03   -0.12059E-05   -0.47809E-07  2073   0.980E-04    0.329E-04
RMM:  14    -0.413164037690E+03   -0.10317E-05   -0.30707E-07  1554   0.767E-04    0.210E-04
RMM:  15    -0.413164040869E+03   -0.31792E-05   -0.34637E-07  1705   0.801E-04    0.188E-04
RMM:  16    -0.413164041031E+03   -0.16250E-06   -0.17575E-07  1086   0.619E-04
    2 T=    61. E= -.41286633E+03 F= -.41316404E+03 E0= -.41314154E+03  EK= 0.29771E+00 SP= 0.00E+00 SK= 0.00E+00
       N       E                     dE             d eps       ncg     rms          rms(c)
RMM:   1    -0.413156266795E+03    0.77741E-02   -0.11089E+01  4201   0.704E-01    0.911E-01
RMM:   2    -0.413165722912E+03   -0.94561E-02   -0.13350E-01  4043   0.976E-02    0.634E-01
RMM:   3    -0.413164928056E+03    0.79486E-03   -0.71281E-03  4881   0.384E-02    0.165E-01
RMM:   4    -0.413193374346E+03   -0.28446E-01   -0.28939E-02  5186   0.142E-01    0.703E-01
RMM:   5    -0.413164535863E+03    0.28838E-01   -0.14006E-02  4830   0.118E-01    0.380E-02
RMM:   6    -0.413164710938E+03   -0.17507E-03   -0.22791E-03  5792   0.460E-02    0.206E-02
RMM:   7    -0.413164722500E+03   -0.11562E-04   -0.27863E-04  5901   0.141E-02    0.145E-02
RMM:   8    -0.413164722927E+03   -0.42679E-06   -0.38300E-05  4660   0.576E-03    0.801E-03
RMM:   9    -0.413164722108E+03    0.81880E-06   -0.73448E-06  3172   0.304E-03
    3 T=    61. E= -.41286686E+03 F= -.41316472E+03 E0= -.41314223E+03  EK= 0.29786E+00 SP= 0.00E+00 SK= 0.00E+00
       N       E                     dE             d eps       ncg     rms          rms(c)
RMM:   1    -0.413155729493E+03    0.89934E-02   -0.10998E+01  4228   0.703E-01    0.894E-01
RMM:   2    -0.413165708975E+03   -0.99795E-02   -0.13239E-01  4253   0.982E-02    0.628E-01
RMM:   3    -0.413169427617E+03   -0.37186E-02   -0.10709E-02  5187   0.737E-02    0.334E-01
RMM:   4    -0.413188511669E+03   -0.19084E-01   -0.37243E-02  5116   0.164E-01    0.648E-01
RMM:   5    -0.413164447450E+03    0.24064E-01   -0.96023E-03  4715   0.108E-01    0.534E-02
RMM:   6    -0.413164448031E+03   -0.58147E-06   -0.16627E-03  5493   0.408E-02    0.189E-02
RMM:   7    -0.413164467935E+03   -0.19904E-04   -0.25674E-04  6008   0.146E-02    0.128E-02
RMM:   8    -0.413164470381E+03   -0.24459E-05   -0.36984E-05  4976   0.609E-03    0.695E-03
RMM:   9    -0.413164471715E+03   -0.13339E-05   -0.85279E-06  3387   0.379E-03    0.363E-03
RMM:  10    -0.413164473054E+03   -0.13388E-05   -0.14838E-06  2539   0.200E-03    0.219E-03
RMM:  11    -0.413164475155E+03   -0.21012E-05   -0.12086E-06  2543   0.170E-03    0.125E-03
RMM:  12    -0.413164476098E+03   -0.94362E-06   -0.54620E-07  2351   0.118E-03
    4 T=    61. E= -.41286668E+03 F= -.41316448E+03 E0= -.41314199E+03  EK= 0.29780E+00 SP= 0.00E+00 SK= 0.00E+00
       N       E                     dE             d eps       ncg     rms          rms(c)
RMM:   1    -0.413155517767E+03    0.89574E-02   -0.11038E+01  4237   0.706E-01    0.884E-01
RMM:   2    -0.413166088862E+03   -0.10571E-01   -0.13637E-01  3963   0.944E-02    0.640E-01
RMM:   3    -0.413164979187E+03    0.11097E-02   -0.67643E-03  4988   0.386E-02    0.165E-01
RMM:   4    -0.413199810183E+03   -0.34831E-01   -0.35898E-02  5163   0.158E-01    0.776E-01
RMM:   5    -0.413164360873E+03    0.35449E-01   -0.17105E-02  4820   0.130E-01    0.402E-02
RMM:   6    -0.413164563252E+03   -0.20238E-03   -0.27529E-03  5771   0.507E-02    0.192E-02
RMM:   7    -0.413164585069E+03   -0.21817E-04   -0.33262E-04  5926   0.150E-02    0.145E-02
RMM:   8    -0.413164590569E+03   -0.54994E-05   -0.44318E-05  4754   0.602E-03    0.836E-03
RMM:   9    -0.413164594591E+03   -0.40225E-05   -0.82564E-06  3209   0.315E-03    0.545E-03
RMM:  10    -0.413164600414E+03   -0.58227E-05   -0.21526E-06  2563   0.205E-03    0.310E-03
RMM:  11    -0.413164606300E+03   -0.58864E-05   -0.15407E-06  2556   0.181E-03    0.151E-03
RMM:  12    -0.413164610294E+03   -0.39942E-05   -0.88995E-07  2472   0.142E-03    0.480E-04
RMM:  13    -0.413164611233E+03   -0.93827E-06   -0.34726E-07  2044   0.967E-04
    5 T=    61. E= -.41286668E+03 F= -.41316461E+03 E0= -.41314213E+03  EK= 0.29793E+00 SP= 0.00E+00 SK= 0.00E+00
       N       E                     dE             d eps       ncg     rms          rms(c)
RMM:   1    -0.413156409692E+03    0.82006E-02   -0.11089E+01  4251   0.713E-01    0.906E-01
RMM:   2    -0.413166328337E+03   -0.99186E-02   -0.13358E-01  4084   0.970E-02    0.636E-01
RMM:   3    -0.413165404851E+03    0.92349E-03   -0.69330E-03  4808   0.388E-02    0.163E-01
RMM:   4    -0.413192491967E+03   -0.27087E-01   -0.27322E-02  5160   0.138E-01    0.687E-01
RMM:   5    -0.413165000395E+03    0.27492E-01   -0.13372E-02  4822   0.114E-01    0.363E-02
RMM:   6    -0.413165162998E+03   -0.16260E-03   -0.21359E-03  5797   0.445E-02    0.201E-02
RMM:   7    -0.413165172292E+03   -0.92932E-05   -0.25821E-04  5878   0.136E-02    0.142E-02
RMM:   8    -0.413165172650E+03   -0.35891E-06   -0.36068E-05  4622   0.567E-03    0.795E-03
RMM:   9    -0.413165171986E+03    0.66411E-06   -0.70801E-06  3136   0.305E-03
    6 T=    61. E= -.41286690E+03 F= -.41316517E+03 E0= -.41314271E+03  EK= 0.29827E+00 SP= 0.00E+00 SK= 0.00E+00
       N       E                     dE             d eps       ncg     rms          rms(c)
RMM:   1    -0.413160040056E+03    0.51326E-02   -0.11075E+01  4272   0.746E-01    0.901E-01
RMM:   2    -0.413165776822E+03   -0.57368E-02   -0.13874E-01  4280   0.106E-01    0.629E-01
RMM:   3    -0.413169387533E+03   -0.36107E-02   -0.10514E-02  5159   0.717E-02    0.329E-01
RMM:   4    -0.413190227218E+03   -0.20840E-01   -0.38098E-02  5111   0.166E-01    0.666E-01
RMM:   5    -0.413164743930E+03    0.25483E-01   -0.10327E-02  4717   0.111E-01    0.542E-02
RMM:   6    -0.413164756116E+03   -0.12186E-04   -0.17940E-03  5521   0.422E-02    0.191E-02
RMM:   7    -0.413164774652E+03   -0.18536E-04   -0.26827E-04  6023   0.148E-02    0.130E-02
RMM:   8    -0.413164775645E+03   -0.99309E-06   -0.38996E-05  4998   0.619E-03    0.707E-03
RMM:   9    -0.413164774045E+03    0.16003E-05   -0.84814E-06  3330   0.381E-03    0.362E-03
RMM:  10    -0.413164774119E+03   -0.74520E-07   -0.15488E-06  2539   0.202E-03
    7 T=    61. E= -.41286638E+03 F= -.41316477E+03 E0= -.41314233E+03  EK= 0.29840E+00 SP= 0.00E+00 SK= 0.00E+00
       N       E                     dE             d eps       ncg     rms          rms(c)
RMM:   1    -0.413156223803E+03    0.85502E-02   -0.11036E+01  4270   0.720E-01    0.883E-01
RMM:   2    -0.413166914219E+03   -0.10690E-01   -0.13570E-01  4142   0.955E-02    0.637E-01
RMM:   3    -0.413165798706E+03    0.11155E-02   -0.67645E-03  4963   0.393E-02    0.167E-01
RMM:   4    -0.413201254445E+03   -0.35456E-01   -0.36456E-02  5152   0.159E-01    0.782E-01
RMM:   5    -0.413165235979E+03    0.36018E-01   -0.17459E-02  4810   0.131E-01    0.410E-02
RMM:   6    -0.413165430004E+03   -0.19403E-03   -0.27234E-03  5768   0.509E-02    0.190E-02
RMM:   7    -0.413165451744E+03   -0.21740E-04   -0.33585E-04  5922   0.150E-02    0.141E-02
RMM:   8    -0.413165456409E+03   -0.46642E-05   -0.41068E-05  4583   0.581E-03    0.768E-03
RMM:   9    -0.413165459814E+03   -0.34059E-05   -0.81919E-06  3189   0.308E-03    0.501E-03
RMM:  10    -0.413165464004E+03   -0.41892E-05   -0.21013E-06  2559   0.203E-03    0.284E-03
RMM:  11    -0.413165468200E+03   -0.41965E-05   -0.14236E-06  2545   0.173E-03    0.132E-03
RMM:  12    -0.413165470775E+03   -0.25748E-05   -0.82009E-07  2450   0.135E-03    0.398E-04
RMM:  13    -0.413165471475E+03   -0.69964E-06   -0.34089E-07  1980   0.933E-04
    8 T=    61. E= -.41286667E+03 F= -.41316547E+03 E0= -.41314304E+03  EK= 0.29880E+00 SP= 0.00E+00 SK= 0.00E+00
       N       E                     dE             d eps       ncg     rms          rms(c)
RMM:   1    -0.413156768799E+03    0.87020E-02   -0.11104E+01  4287   0.728E-01    0.900E-01
RMM:   2    -0.413166805166E+03   -0.10036E-01   -0.13493E-01  4193   0.101E-01    0.639E-01
RMM:   3    -0.413165772713E+03    0.10325E-02   -0.68546E-03  4786   0.379E-02    0.159E-01
RMM:   4    -0.413190309732E+03   -0.24537E-01   -0.24801E-02  5150   0.131E-01    0.655E-01
RMM:   5    -0.413165356927E+03    0.24953E-01   -0.12219E-02  4816   0.109E-01    0.341E-02
RMM:   6    -0.413165508654E+03   -0.15173E-03   -0.19314E-03  5796   0.424E-02    0.191E-02
RMM:   7    -0.413165518291E+03   -0.96370E-05   -0.23590E-04  5838   0.131E-02    0.135E-02
RMM:   8    -0.413165519428E+03   -0.11371E-05   -0.33413E-05  4572   0.554E-03    0.767E-03
RMM:   9    -0.413165519154E+03    0.27336E-06   -0.66144E-06  3081   0.302E-03
    9 T=    61. E= -.41286654E+03 F= -.41316552E+03 E0= -.41314311E+03  EK= 0.29897E+00 SP= 0.00E+00 SK= 0.00E+00
       N       E                     dE             d eps       ncg     rms          rms(c)
RMM:   1    -0.413157332649E+03    0.81868E-02   -0.11086E+01  4292   0.736E-01    0.909E-01
RMM:   2    -0.413166533419E+03   -0.92008E-02   -0.13317E-01  4290   0.994E-02    0.630E-01
RMM:   3    -0.413170645430E+03   -0.41120E-02   -0.11091E-02  5152   0.742E-02    0.337E-01
RMM:   4    -0.413188863791E+03   -0.18218E-01   -0.36333E-02  5090   0.162E-01    0.638E-01
RMM:   5    -0.413165685395E+03    0.23178E-01   -0.91949E-03  4696   0.106E-01    0.524E-02
RMM:   6    -0.413165689139E+03   -0.37443E-05   -0.16246E-03  5496   0.396E-02    0.194E-02
RMM:   7    -0.413165704233E+03   -0.15094E-04   -0.24609E-04  6004   0.142E-02    0.130E-02
RMM:   8    -0.413165703284E+03    0.94900E-06   -0.36110E-05  4956   0.601E-03    0.693E-03
RMM:   9    -0.413165698940E+03    0.43441E-05   -0.78852E-06  3212   0.363E-03    0.355E-03
RMM:  10    -0.413165697966E+03    0.97413E-06   -0.14089E-06  2530   0.197E-03
   10 T=    61. E= -.41286654E+03 F= -.41316570E+03 E0= -.41314331E+03  EK= 0.29915E+00 SP= 0.00E+00 SK= 0.00E+00
       N       E                     dE             d eps       ncg     rms          rms(c)
RMM:   1    -0.413157314453E+03    0.83845E-02   -0.11033E+01  4301   0.730E-01    0.884E-01
RMM:   2    -0.413167948472E+03   -0.10634E-01   -0.13466E-01  4210   0.969E-02    0.634E-01
RMM:   3    -0.413166943334E+03    0.10051E-02   -0.67231E-03  4951   0.412E-02    0.170E-01
RMM:   4    -0.413203487842E+03   -0.36545E-01   -0.37820E-02  5146   0.161E-01    0.795E-01
RMM:   5    -0.413166218201E+03    0.37270E-01   -0.18167E-02  4805   0.133E-01    0.417E-02
RMM:   6    -0.413166417775E+03   -0.19957E-03   -0.28220E-03  5768   0.517E-02    0.196E-02
RMM:   7    -0.413166435960E+03   -0.18185E-04   -0.34883E-04  5937   0.153E-02    0.146E-02
RMM:   8    -0.413166437900E+03   -0.19407E-05   -0.43152E-05  4670   0.595E-03    0.806E-03
RMM:   9    -0.413166438435E+03   -0.53476E-06   -0.86289E-06  3221   0.314E-03
   11 T=    61. E= -.41286686E+03 F= -.41316644E+03 E0= -.41314408E+03  EK= 0.29958E+00 SP= 0.00E+00 SK= 0.00E+00
       N       E                     dE             d eps       ncg     rms          rms(c)
RMM:   1    -0.413157389040E+03    0.90489E-02   -0.11112E+01  4301   0.740E-01    0.895E-01
RMM:   2    -0.413167698556E+03   -0.10310E-01   -0.13626E-01  4279   0.981E-02    0.642E-01
RMM:   3    -0.413170793581E+03   -0.30950E-02   -0.10318E-02  5153   0.708E-02    0.321E-01
RMM:   4    -0.413195376363E+03   -0.24583E-01   -0.42337E-02  5101   0.174E-01    0.709E-01
RMM:   5    -0.413166225112E+03    0.29151E-01   -0.11928E-02  4711   0.117E-01    0.542E-02
RMM:   6    -0.413166268161E+03   -0.43049E-04   -0.20775E-03  5542   0.447E-02    0.176E-02
RMM:   7    -0.413166292087E+03   -0.23926E-04   -0.29573E-04  6028   0.151E-02    0.127E-02
RMM:   8    -0.413166295247E+03   -0.31599E-05   -0.41814E-05  5012   0.621E-03    0.705E-03
RMM:   9    -0.413166296537E+03   -0.12902E-05   -0.83406E-06  3190   0.369E-03    0.366E-03
RMM:  10    -0.413166297924E+03   -0.13867E-05   -0.17730E-06  2546   0.205E-03    0.216E-03
RMM:  11    -0.413166299714E+03   -0.17897E-05   -0.12708E-06  2547   0.169E-03    0.128E-03
RMM:  12    -0.413166300292E+03   -0.57882E-06   -0.56650E-07  2355   0.118E-03
   12 T=    61. E= -.41286649E+03 F= -.41316630E+03 E0= -.41314397E+03  EK= 0.29981E+00 SP= 0.00E+00 SK= 0.00E+00
       N       E                     dE             d eps       ncg     rms          rms(c)
RMM:   1    -0.413158418036E+03    0.78817E-02   -0.11132E+01  4297   0.746E-01    0.914E-01
RMM:   2    -0.413167838145E+03   -0.94201E-02   -0.13333E-01  4219   0.933E-02    0.632E-01
RMM:   3    -0.413167436706E+03    0.40144E-03   -0.72774E-03  5015   0.396E-02    0.179E-01
RMM:   4    -0.413205504984E+03   -0.38068E-01   -0.39650E-02  5150   0.165E-01    0.811E-01
RMM:   5    -0.413166748642E+03    0.38756E-01   -0.18897E-02  4801   0.135E-01    0.433E-02
RMM:   6    -0.413166952075E+03   -0.20343E-03   -0.29199E-03  5782   0.526E-02    0.219E-02
RMM:   7    -0.413166963985E+03   -0.11910E-04   -0.35834E-04  5929   0.157E-02    0.158E-02
RMM:   8    -0.413166961247E+03    0.27377E-05   -0.48789E-05  4892   0.639E-03    0.917E-03
RMM:   9    -0.413166955980E+03    0.52679E-05   -0.91180E-06  3291   0.329E-03    0.584E-03
RMM:  10    -0.413166952219E+03    0.37609E-05   -0.21925E-06  2557   0.212E-03    0.325E-03
RMM:  11    -0.413166948750E+03    0.34685E-05   -0.15612E-06  2539   0.187E-03    0.150E-03
RMM:  12    -0.413166945799E+03    0.29515E-05   -0.86491E-07  2459   0.146E-03    0.462E-04
RMM:  13    -0.413166945033E+03    0.76569E-06   -0.35073E-07  2104   0.992E-04
   13 T=    61. E= -.41286658E+03 F= -.41316695E+03 E0= -.41314464E+03  EK= 0.30036E+00 SP= 0.00E+00 SK= 0.00E+00
       N       E                     dE             d eps       ncg     rms          rms(c)
RMM:   1    -0.413158429152E+03    0.85166E-02   -0.11052E+01  4294   0.742E-01    0.888E-01
RMM:   2    -0.413168709714E+03   -0.10281E-01   -0.13502E-01  4234   0.954E-02    0.633E-01
RMM:   3    -0.413167838862E+03    0.87085E-03   -0.67118E-03  4910   0.375E-02    0.165E-01
RMM:   4    -0.413198323132E+03   -0.30484E-01   -0.31219E-02  5140   0.147E-01    0.728E-01
RMM:   5    -0.413167278983E+03    0.31044E-01   -0.15264E-02  4808   0.121E-01    0.369E-02
RMM:   6    -0.413167456125E+03   -0.17714E-03   -0.23273E-03  5801   0.470E-02    0.198E-02
RMM:   7    -0.413167467056E+03   -0.10930E-04   -0.28306E-04  5874   0.142E-02    0.142E-02
RMM:   8    -0.413167466769E+03    0.28669E-06   -0.41015E-05  4721   0.594E-03    0.836E-03
RMM:   9    -0.413167464467E+03    0.23024E-05   -0.79976E-06  3227   0.317E-03    0.558E-03
RMM:  10    -0.413167463877E+03    0.58974E-06   -0.18660E-06  2546   0.200E-03
   14 T=    61. E= -.41286654E+03 F= -.41316746E+03 E0= -.41314519E+03  EK= 0.30092E+00 SP= 0.00E+00 SK= 0.00E+00
       N       E                     dE             d eps       ncg     rms          rms(c)
RMM:   1    -0.413159420824E+03    0.80436E-02   -0.11153E+01  4307   0.765E-01    0.892E-01
RMM:   2    -0.413169409833E+03   -0.99890E-02   -0.13754E-01  4284   0.993E-02    0.644E-01
RMM:   3    -0.413170674427E+03   -0.12646E-02   -0.90160E-03  5116   0.629E-02    0.276E-01
RMM:   4    -0.413204775419E+03   -0.34101E-01   -0.47531E-02  5111   0.182E-01    0.797E-01
RMM:   5    -0.413167523010E+03    0.37252E-01   -0.16209E-02  4748   0.132E-01    0.516E-02
RMM:   6    -0.413167638249E+03   -0.11524E-03   -0.26213E-03  5646   0.504E-02    0.169E-02
RMM:   7    -0.413167663646E+03   -0.25398E-04   -0.33586E-04  6015   0.153E-02    0.130E-02
RMM:   8    -0.413167666958E+03   -0.33119E-05   -0.45349E-05  4973   0.632E-03    0.712E-03
RMM:   9    -0.413167667585E+03   -0.62661E-06   -0.79563E-06  3054   0.327E-03
   15 T=    61. E= -.41286632E+03 F= -.41316767E+03 E0= -.41314543E+03  EK= 0.30135E+00 SP= 0.00E+00 SK= 0.00E+00
       N       E                     dE             d eps       ncg     rms          rms(c)
RMM:   1    -0.413163034343E+03    0.46326E-02   -0.11214E+01  4299   0.783E-01    0.915E-01
RMM:   2    -0.413169678537E+03   -0.66442E-02   -0.13553E-01  4259   0.102E-01    0.636E-01
RMM:   3    -0.413168848679E+03    0.82986E-03   -0.70523E-03  4794   0.381E-02    0.164E-01
RMM:   4    -0.413191919333E+03   -0.23071E-01   -0.23226E-02  5140   0.127E-01    0.635E-01
RMM:   5    -0.413168462063E+03    0.23457E-01   -0.11513E-02  4819   0.105E-01    0.342E-02
RMM:   6    -0.413168595786E+03   -0.13372E-03   -0.18001E-03  5849   0.407E-02    0.199E-02
RMM:   7    -0.413168597966E+03   -0.21799E-05   -0.22041E-04  5858   0.131E-02    0.137E-02
RMM:   8    -0.413168593569E+03    0.43969E-05   -0.31430E-05  4500   0.551E-03    0.744E-03
RMM:   9    -0.413168588557E+03    0.50119E-05   -0.65595E-06  3061   0.303E-03    0.508E-03
RMM:  10    -0.413168585205E+03    0.33519E-05   -0.14603E-06  2532   0.187E-03    0.306E-03
RMM:  11    -0.413168580861E+03    0.43440E-05   -0.14607E-06  2540   0.182E-03    0.139E-03
RMM:  12    -0.413168577335E+03    0.35263E-05   -0.78041E-07  2431   0.136E-03    0.518E-04
RMM:  13    -0.413168576718E+03    0.61633E-06   -0.26882E-07  1879   0.871E-04
   16 T=    61. E= -.41286659E+03 F= -.41316858E+03 E0= -.41314638E+03  EK= 0.30199E+00 SP= 0.00E+00 SK= 0.00E+00
       N       E                     dE             d eps       ncg     rms          rms(c)
RMM:   1    -0.413160096060E+03    0.84813E-02   -0.11099E+01  4298   0.755E-01    0.895E-01
RMM:   2    -0.413170376093E+03   -0.10280E-01   -0.13530E-01  4262   0.995E-02    0.632E-01
RMM:   3    -0.413169375822E+03    0.10003E-02   -0.68475E-03  4896   0.423E-02    0.172E-01
RMM:   4    -0.413203693002E+03   -0.34317E-01   -0.35191E-02  5135   0.156E-01    0.770E-01
RMM:   5    -0.413168818911E+03    0.34874E-01   -0.17086E-02  4800   0.128E-01    0.398E-02
RMM:   6    -0.413169016899E+03   -0.19799E-03   -0.27115E-03  5809   0.498E-02    0.210E-02
RMM:   7    -0.413169027456E+03   -0.10557E-04   -0.32104E-04  5907   0.150E-02    0.151E-02
RMM:   8    -0.413169025110E+03    0.23459E-05   -0.44096E-05  4756   0.610E-03    0.887E-03
RMM:   9    -0.413169020544E+03    0.45668E-05   -0.88361E-06  3276   0.325E-03    0.588E-03
RMM:  10    -0.413169017594E+03    0.29500E-05   -0.20144E-06  2544   0.207E-03    0.334E-03
RMM:  11    -0.413169014616E+03    0.29780E-05   -0.16605E-06  2543   0.193E-03    0.158E-03
RMM:  12    -0.413169012107E+03    0.25082E-05   -0.84031E-07  2461   0.147E-03    0.500E-04
RMM:  13    -0.413169011501E+03    0.60654E-06   -0.33035E-07  2098   0.972E-04
   17 T=    62. E= -.41286654E+03 F= -.41316901E+03 E0= -.41314685E+03  EK= 0.30247E+00 SP= 0.00E+00 SK= 0.00E+00
       N       E                     dE             d eps       ncg     rms          rms(c)
RMM:   1    -0.413160384583E+03    0.86275E-02   -0.11173E+01  4299   0.766E-01    0.890E-01
RMM:   2    -0.413171347436E+03   -0.10963E-01   -0.13789E-01  4274   0.101E-01    0.644E-01
RMM:   3    -0.413170047651E+03    0.12998E-02   -0.67886E-03  4934   0.408E-02    0.170E-01
RMM:   4    -0.413206932867E+03   -0.36885E-01   -0.38258E-02  5139   0.162E-01    0.798E-01
RMM:   5    -0.413169338001E+03    0.37595E-01   -0.18364E-02  4796   0.133E-01    0.407E-02
RMM:   6    -0.413169550496E+03   -0.21250E-03   -0.29278E-03  5792   0.518E-02    0.203E-02
RMM:   7    -0.413169566485E+03   -0.15988E-04   -0.34344E-04  5906   0.154E-02    0.150E-02
RMM:   8    -0.413169567140E+03   -0.65484E-06   -0.47042E-05  4809   0.626E-03    0.894E-03
RMM:   9    -0.413169565764E+03    0.13761E-05   -0.93930E-06  3330   0.334E-03    0.589E-03
RMM:  10    -0.413169566057E+03   -0.29370E-06   -0.22310E-06  2555   0.215E-03
   18 T=    62. E= -.41286648E+03 F= -.41316957E+03 E0= -.41314745E+03  EK= 0.30309E+00 SP= 0.00E+00 SK= 0.00E+00
       N       E                     dE             d eps       ncg     rms          rms(c)
RMM:   1    -0.413161990121E+03    0.75756E-02   -0.11229E+01  4300   0.767E-01    0.914E-01
RMM:   2    -0.413171726293E+03   -0.97362E-02   -0.13642E-01  4318   0.981E-02    0.640E-01
RMM:   3    -0.413174684483E+03   -0.29582E-02   -0.10125E-02  5118   0.686E-02    0.310E-01
RMM:   4    -0.413199622875E+03   -0.24938E-01   -0.41161E-02  5087   0.171E-01    0.708E-01
RMM:   5    -0.413170566562E+03    0.29056E-01   -0.12045E-02  4711   0.117E-01    0.504E-02
RMM:   6    -0.413170631880E+03   -0.65318E-04   -0.20430E-03  5587   0.440E-02    0.186E-02
RMM:   7    -0.413170645600E+03   -0.13720E-04   -0.27027E-04  5992   0.142E-02    0.129E-02
RMM:   8    -0.413170642620E+03    0.29796E-05   -0.38746E-05  4928   0.607E-03    0.687E-03
RMM:   9    -0.413170635033E+03    0.75870E-05   -0.70710E-06  2960   0.327E-03    0.312E-03
RMM:  10    -0.413170632241E+03    0.27922E-05   -0.17273E-06  2543   0.191E-03    0.183E-03
RMM:  11    -0.413170628247E+03    0.39934E-05   -0.98259E-07  2514   0.151E-03    0.107E-03
RMM:  12    -0.413170625682E+03    0.25659E-05   -0.47909E-07  2133   0.109E-03    0.522E-04
RMM:  13    -0.413170623133E+03    0.25486E-05   -0.30908E-07  1831   0.894E-04    0.231E-04
RMM:  14    -0.413170621461E+03    0.16716E-05   -0.18280E-07  1409   0.735E-04    0.146E-04
RMM:  15    -0.413170618321E+03    0.31403E-05   -0.21769E-07  1666   0.767E-04    0.141E-04
RMM:  16    -0.413170616498E+03    0.18230E-05   -0.12500E-07  1277   0.640E-04    0.127E-04
RMM:  17    -0.413170614729E+03    0.17696E-05   -0.92033E-08  1177   0.604E-04    0.541E-05
RMM:  18    -0.413170613183E+03    0.15460E-05   -0.68459E-08  1042   0.564E-04    0.323E-05
RMM:  19    -0.413170612451E+03    0.73132E-06   -0.36133E-08   838   0.525E-04
   19 T=    62. E= -.41286662E+03 F= -.41317061E+03 E0= -.41314854E+03  EK= 0.30399E+00 SP= 0.00E+00 SK= 0.00E+00
       N       E                     dE             d eps       ncg     rms          rms(c)
RMM:   1    -0.413162886046E+03    0.77271E-02   -0.11185E+01  4298   0.786E-01    0.904E-01
RMM:   2    -0.413172328008E+03   -0.94420E-02   -0.13673E-01  4267   0.100E-01    0.633E-01
RMM:   3    -0.413171690529E+03    0.63748E-03   -0.70139E-03  4963   0.417E-02    0.183E-01
RMM:   4    -0.413211035295E+03   -0.39345E-01   -0.41180E-02  5144   0.168E-01    0.824E-01
RMM:   5    -0.413170945070E+03    0.40090E-01   -0.19516E-02  4795   0.138E-01    0.437E-02
RMM:   6    -0.413171163041E+03   -0.21797E-03   -0.31413E-03  5785   0.535E-02    0.219E-02
RMM:   7    -0.413171173561E+03   -0.10520E-04   -0.36858E-04  5889   0.160E-02    0.159E-02
RMM:   8    -0.413171169579E+03    0.39817E-05   -0.50099E-05  4906   0.647E-03    0.932E-03
RMM:   9    -0.413171163058E+03    0.65211E-05   -0.98124E-06  3385   0.338E-03    0.600E-03
RMM:  10    -0.413171158305E+03    0.47525E-05   -0.21876E-06  2544   0.215E-03    0.336E-03
RMM:  11    -0.413171154011E+03    0.42947E-05   -0.15318E-06  2525   0.189E-03    0.161E-03
RMM:  12    -0.413171150642E+03    0.33690E-05   -0.80771E-07  2462   0.147E-03    0.484E-04
RMM:  13    -0.413171149781E+03    0.86051E-06   -0.34030E-07  2133   0.998E-04
   20 T=    62. E= -.41286641E+03 F= -.41317115E+03 E0= -.41314912E+03  EK= 0.30474E+00 SP= 0.00E+00 SK= 0.00E+00
       N       E                     dE             d eps       ncg     rms          rms(c)
RMM:   1    -0.413163214472E+03    0.79362E-02   -0.11224E+01  4302   0.786E-01    0.890E-01
RMM:   2    -0.413173795492E+03   -0.10581E-01   -0.13927E-01  4277   0.101E-01    0.645E-01
RMM:   3    -0.413172598573E+03    0.11969E-02   -0.68243E-03  4940   0.412E-02    0.172E-01
RMM:   4    -0.413209691092E+03   -0.37093E-01   -0.38533E-02  5139   0.163E-01    0.800E-01
RMM:   5    -0.413171865260E+03    0.37826E-01   -0.18547E-02  4797   0.134E-01    0.406E-02
RMM:   6    -0.413172079000E+03   -0.21374E-03   -0.29632E-03  5802   0.519E-02    0.206E-02
RMM:   7    -0.413172093764E+03   -0.14764E-04   -0.34026E-04  5886   0.156E-02    0.150E-02
RMM:   8    -0.413172093389E+03    0.37498E-06   -0.48670E-05  4862   0.638E-03    0.916E-03
RMM:   9    -0.413172090239E+03    0.31504E-05   -0.97208E-06  3387   0.341E-03    0.603E-03
RMM:  10    -0.413172089120E+03    0.11188E-05   -0.22410E-06  2553   0.218E-03    0.339E-03
RMM:  11    -0.413172088021E+03    0.10988E-05   -0.18525E-06  2559   0.202E-03    0.161E-03
RMM:  12    -0.413172086953E+03    0.10678E-05   -0.83465E-07  2459   0.148E-03    0.516E-04
RMM:  13    -0.413172086634E+03    0.31922E-06   -0.33317E-07  2102   0.978E-04
   21 T=    62. E= -.41286647E+03 F= -.41317209E+03 E0= -.41315010E+03  EK= 0.30562E+00 SP= 0.00E+00 SK= 0.00E+00
       N       E                     dE             d eps       ncg     rms          rms(c)
RMM:   1    -0.413164204788E+03    0.78822E-02   -0.11294E+01  4299   0.781E-01    0.911E-01
RMM:   2    -0.413174540854E+03   -0.10336E-01   -0.13822E-01  4281   0.991E-02    0.644E-01
RMM:   3    -0.413173649597E+03    0.89126E-03   -0.70261E-03  4922   0.405E-02    0.174E-01
RMM:   4    -0.413209233291E+03   -0.35584E-01   -0.36707E-02  5140   0.159E-01    0.784E-01
RMM:   5    -0.413173051263E+03    0.36182E-01   -0.17718E-02  4794   0.131E-01    0.407E-02
RMM:   6    -0.413173254847E+03   -0.20358E-03   -0.28813E-03  5806   0.509E-02    0.214E-02
RMM:   7    -0.413173265942E+03   -0.11095E-04   -0.33071E-04  5878   0.154E-02    0.153E-02
RMM:   8    -0.413173262587E+03    0.33550E-05   -0.47164E-05  4848   0.636E-03    0.926E-03
RMM:   9    -0.413173256323E+03    0.62639E-05   -0.94677E-06  3380   0.340E-03    0.609E-03
RMM:  10    -0.413173251832E+03    0.44918E-05   -0.20839E-06  2549   0.214E-03    0.347E-03
RMM:  11    -0.413173247160E+03    0.46712E-05   -0.17194E-06  2539   0.201E-03    0.165E-03
RMM:  12    -0.413173243533E+03    0.36272E-05   -0.82938E-07  2468   0.151E-03    0.518E-04
RMM:  13    -0.413173242680E+03    0.85300E-06   -0.33105E-07  2127   0.987E-04
   22 T=    62. E= -.41286671E+03 F= -.41317324E+03 E0= -.41315130E+03  EK= 0.30653E+00 SP= 0.00E+00 SK= 0.00E+00
       N       E                     dE             d eps       ncg     rms          rms(c)
RMM:   1    -0.413165866799E+03    0.73767E-02   -0.11288E+01  4299   0.799E-01    0.914E-01
RMM:   2    -0.413175005914E+03   -0.91391E-02   -0.13705E-01  4279   0.107E-01    0.636E-01
RMM:   3    -0.413174301095E+03    0.70482E-03   -0.71269E-03  4876   0.428E-02    0.176E-01
RMM:   4    -0.413208532028E+03   -0.34231E-01   -0.35131E-02  5145   0.156E-01    0.769E-01
RMM:   5    -0.413173720092E+03    0.34812E-01   -0.17042E-02  4796   0.129E-01    0.403E-02
RMM:   6    -0.413173906303E+03   -0.18621E-03   -0.27564E-03  5811   0.500E-02    0.220E-02
RMM:   7    -0.413173913370E+03   -0.70667E-05   -0.31052E-04  5881   0.151E-02    0.153E-02
RMM:   8    -0.413173908170E+03    0.51995E-05   -0.46926E-05  4861   0.639E-03    0.942E-03
RMM:   9    -0.413173899646E+03    0.85245E-05   -0.95133E-06  3422   0.346E-03    0.616E-03
RMM:  10    -0.413173893054E+03    0.65919E-05   -0.20465E-06  2552   0.216E-03    0.354E-03
RMM:  11    -0.413173885689E+03    0.73649E-05   -0.18356E-06  2558   0.208E-03    0.167E-03
RMM:  12    -0.413173880248E+03    0.54409E-05   -0.82445E-07  2465   0.153E-03    0.547E-04
RMM:  13    -0.413173879114E+03    0.11336E-05   -0.32645E-07  2118   0.988E-04    0.380E-04
RMM:  14    -0.413173877676E+03    0.14383E-05   -0.16466E-07  1564   0.753E-04    0.227E-04
RMM:  15    -0.413173872970E+03    0.47064E-05   -0.20690E-07  1880   0.803E-04    0.290E-04
RMM:  16    -0.413173872453E+03    0.51700E-06   -0.64722E-08   994   0.585E-04
   23 T=    63. E= -.41286651E+03 F= -.41317387E+03 E0= -.41315198E+03  EK= 0.30737E+00 SP= 0.00E+00 SK= 0.00E+00
       N       E                     dE             d eps       ncg     rms          rms(c)
RMM:   1    -0.413166133781E+03    0.77392E-02   -0.11275E+01  4295   0.791E-01    0.893E-01
RMM:   2    -0.413177177511E+03   -0.11044E-01   -0.13998E-01  4274   0.104E-01    0.644E-01
RMM:   3    -0.413175744652E+03    0.14329E-02   -0.67350E-03  4822   0.418E-02    0.167E-01
RMM:   4    -0.413206141859E+03   -0.30397E-01   -0.31039E-02  5147   0.146E-01    0.726E-01
RMM:   5    -0.413175265177E+03    0.30877E-01   -0.15257E-02  4802   0.121E-01    0.369E-02
RMM:   6    -0.413175436473E+03   -0.17130E-03   -0.24341E-03  5809   0.467E-02    0.201E-02
RMM:   7    -0.413175445681E+03   -0.92078E-05   -0.27417E-04  5837   0.142E-02    0.140E-02
RMM:   8    -0.413175444076E+03    0.16050E-05   -0.42114E-05  4773   0.606E-03    0.868E-03
RMM:   9    -0.413175439533E+03    0.45434E-05   -0.89046E-06  3357   0.336E-03    0.577E-03
RMM:  10    -0.413175437285E+03    0.22476E-05   -0.18683E-06  2544   0.206E-03    0.337E-03
RMM:  11    -0.413175434816E+03    0.24688E-05   -0.16931E-06  2543   0.198E-03    0.160E-03
RMM:  12    -0.413175432751E+03    0.20652E-05   -0.77728E-07  2450   0.146E-03    0.526E-04
RMM:  13    -0.413175432299E+03    0.45240E-06   -0.29889E-07  2069   0.944E-04
   24 T=    63. E= -.41286684E+03 F= -.41317543E+03 E0= -.41315359E+03  EK= 0.30859E+00 SP= 0.00E+00 SK= 0.00E+00
       N       E                     dE             d eps       ncg     rms          rms(c)
RMM:   1    -0.413167344700E+03    0.80881E-02   -0.11381E+01  4297   0.799E-01    0.909E-01
RMM:   2    -0.413178178565E+03   -0.10834E-01   -0.13991E-01  4279   0.107E-01    0.649E-01
RMM:   3    -0.413176851507E+03    0.13271E-02   -0.69039E-03  4842   0.428E-02    0.170E-01
RMM:   4    -0.413208981802E+03   -0.32130E-01   -0.32790E-02  5142   0.151E-01    0.746E-01
RMM:   5    -0.413176315280E+03    0.32667E-01   -0.16069E-02  4800   0.124E-01    0.380E-02
RMM:   6    -0.413176493755E+03   -0.17848E-03   -0.25901E-03  5814   0.483E-02    0.208E-02
RMM:   7    -0.413176502610E+03   -0.88551E-05   -0.28421E-04  5869   0.144E-02    0.143E-02
RMM:   8    -0.413176500017E+03    0.25933E-05   -0.45185E-05  4854   0.624E-03    0.920E-03
RMM:   9    -0.413176493785E+03    0.62317E-05   -0.95825E-06  3467   0.349E-03    0.606E-03
RMM:  10    -0.413176490065E+03    0.37201E-05   -0.19773E-06  2547   0.214E-03    0.353E-03
RMM:  11    -0.413176485794E+03    0.42710E-05   -0.18724E-06  2553   0.208E-03    0.167E-03
RMM:  12    -0.413176482579E+03    0.32149E-05   -0.79006E-07  2462   0.150E-03    0.538E-04
RMM:  13    -0.413176481870E+03    0.70880E-06   -0.31061E-07  2096   0.961E-04
   25 T=    63. E= -.41286670E+03 F= -.41317648E+03 E0= -.41315468E+03  EK= 0.30979E+00 SP= 0.00E+00 SK= 0.00E+00
       N       E                     dE             d eps       ncg     rms          rms(c)
RMM:   1    -0.413168975424E+03    0.75072E-02   -0.11412E+01  4298   0.809E-01    0.924E-01
RMM:   2    -0.413178705103E+03   -0.97297E-02   -0.13888E-01  4273   0.108E-01    0.641E-01
RMM:   3    -0.413177946241E+03    0.75886E-03   -0.71765E-03  4829   0.423E-02    0.174E-01
RMM:   4    -0.413208605511E+03   -0.30659E-01   -0.31140E-02  5151   0.147E-01    0.728E-01
RMM:   5    -0.413177521640E+03    0.31084E-01   -0.15369E-02  4800   0.121E-01    0.386E-02
RMM:   6    -0.413177684939E+03   -0.16330E-03   -0.24704E-03  5816   0.472E-02    0.216E-02
RMM:   7    -0.413177688933E+03   -0.39937E-05   -0.26663E-04  5833   0.142E-02    0.142E-02
RMM:   8    -0.413177683171E+03    0.57622E-05   -0.44905E-05  4863   0.623E-03    0.929E-03
RMM:   9    -0.413177673964E+03    0.92062E-05   -0.96593E-06  3528   0.353E-03    0.614E-03
RMM:  10    -0.413177666917E+03    0.70478E-05   -0.18660E-06  2540   0.214E-03    0.362E-03
RMM:  11    -0.413177658420E+03    0.84966E-05   -0.18525E-06  2550   0.209E-03    0.171E-03
RMM:  12    -0.413177651875E+03    0.65450E-05   -0.79443E-07  2465   0.153E-03    0.542E-04
RMM:  13    -0.413177650610E+03    0.12647E-05   -0.30604E-07  2097   0.967E-04    0.388E-04
RMM:  14    -0.413177648898E+03    0.17126E-05   -0.14743E-07  1504   0.736E-04    0.223E-04
RMM:  15    -0.413177643400E+03    0.54977E-05   -0.17841E-07  1882   0.791E-04    0.322E-04
RMM:  16    -0.413177642913E+03    0.48709E-06   -0.55231E-08   960   0.573E-04
   26 T=    63. E= -.41286649E+03 F= -.41317764E+03 E0= -.41315589E+03  EK= 0.31116E+00 SP= 0.00E+00 SK= 0.00E+00
       N       E                     dE             d eps       ncg     rms          rms(c)
RMM:   1    -0.413170180741E+03    0.74627E-02   -0.11379E+01  4294   0.811E-01    0.899E-01
RMM:   2    -0.413180876066E+03   -0.10695E-01   -0.14059E-01  4275   0.104E-01    0.644E-01
RMM:   3    -0.413179873281E+03    0.10028E-02   -0.68355E-03  4829   0.430E-02    0.172E-01
RMM:   4    -0.413211139326E+03   -0.31266E-01   -0.31716E-02  5148   0.148E-01    0.735E-01
RMM:   5    -0.413179406810E+03    0.31733E-01   -0.15789E-02  4803   0.123E-01    0.376E-02
RMM:   6    -0.413179571433E+03   -0.16462E-03   -0.24712E-03  5817   0.477E-02    0.208E-02
RMM:   7    -0.413179579140E+03   -0.77066E-05   -0.28241E-04  5856   0.144E-02    0.144E-02
RMM:   8    -0.413179575717E+03    0.34232E-05   -0.44006E-05  4839   0.623E-03    0.888E-03
RMM:   9    -0.413179569409E+03    0.63072E-05   -0.93606E-06  3434   0.346E-03    0.584E-03
RMM:  10    -0.413179565438E+03    0.39712E-05   -0.19018E-06  2541   0.210E-03    0.341E-03
RMM:  11    -0.413179561109E+03    0.43291E-05   -0.17006E-06  2534   0.200E-03    0.161E-03
RMM:  12    -0.413179557679E+03    0.34298E-05   -0.77464E-07  2456   0.148E-03    0.523E-04
RMM:  13    -0.413179556957E+03    0.72197E-06   -0.29769E-07  2071   0.949E-04
   27 T=    64. E= -.41286677E+03 F= -.41317956E+03 E0= -.41315786E+03  EK= 0.31279E+00 SP= 0.00E+00 SK= 0.00E+00
       N       E                     dE             d eps       ncg     rms          rms(c)
RMM:   1    -0.413172930232E+03    0.66274E-02   -0.11524E+01  4293   0.848E-01    0.908E-01
RMM:   2    -0.413182088564E+03   -0.91583E-02   -0.14404E-01  4274   0.110E-01    0.655E-01
RMM:   3    -0.413180865663E+03    0.12229E-02   -0.69426E-03  4694   0.441E-02    0.165E-01
RMM:   4    -0.413203919568E+03   -0.23054E-01   -0.23310E-02  5145   0.128E-01    0.635E-01
RMM:   5    -0.413180445005E+03    0.23475E-01   -0.11624E-02  4805   0.105E-01    0.327E-02
RMM:   6    -0.413180563515E+03   -0.11851E-03   -0.18451E-03  5830   0.405E-02    0.186E-02
RMM:   7    -0.413180568089E+03   -0.45740E-05   -0.18306E-04  5649   0.119E-02    0.110E-02
RMM:   8    -0.413180565044E+03    0.30446E-05   -0.29783E-05  4496   0.520E-03    0.748E-03
RMM:   9    -0.413180560218E+03    0.48257E-05   -0.84233E-06  3423   0.328E-03    0.529E-03
RMM:  10    -0.413180557633E+03    0.25852E-05   -0.16432E-06  2545   0.206E-03    0.327E-03
RMM:  11    -0.413180553318E+03    0.43148E-05   -0.17837E-06  2554   0.203E-03    0.155E-03
RMM:  12    -0.413180549802E+03    0.35169E-05   -0.70862E-07  2445   0.144E-03    0.573E-04
RMM:  13    -0.413180549198E+03    0.60325E-06   -0.23915E-07  1988   0.886E-04
   28 T=    64. E= -.41286630E+03 F= -.41318055E+03 E0= -.41315890E+03  EK= 0.31425E+00 SP= 0.00E+00 SK= 0.00E+00
       N       E                     dE             d eps       ncg     rms          rms(c)
RMM:   1    -0.413174219324E+03    0.63305E-02   -0.11582E+01  4295   0.841E-01    0.932E-01
RMM:   2    -0.413183713121E+03   -0.94938E-02   -0.14210E-01  4271   0.110E-01    0.648E-01
RMM:   3    -0.413182804047E+03    0.90907E-03   -0.72648E-03  4488   0.426E-02    0.167E-01
RMM:   4    -0.413194850044E+03   -0.12046E-01   -0.12138E-02  5161   0.931E-02    0.459E-01
RMM:   5    -0.413182785982E+03    0.12064E-01   -0.60059E-03  4827   0.752E-02    0.287E-02
RMM:   6    -0.413182829921E+03   -0.43939E-04   -0.96792E-04  5865   0.287E-02    0.178E-02
RMM:   7    -0.413182827730E+03    0.21904E-05   -0.11786E-04  5568   0.103E-02    0.109E-02
RMM:   8    -0.413182816655E+03    0.11075E-04   -0.21389E-05  4336   0.496E-03    0.561E-03
RMM:   9    -0.413182811011E+03    0.56441E-05   -0.44837E-06  2900   0.278E-03    0.414E-03
RMM:  10    -0.413182805209E+03    0.58020E-05   -0.82383E-07  2495   0.163E-03    0.257E-03
RMM:  11    -0.413182797309E+03    0.78999E-05   -0.78454E-07  2484   0.146E-03    0.124E-03
RMM:  12    -0.413182790153E+03    0.71555E-05   -0.46726E-07  2272   0.113E-03    0.411E-04
RMM:  13    -0.413182788530E+03    0.16230E-05   -0.16924E-07  1516   0.750E-04    0.241E-04
RMM:  14    -0.413182786597E+03    0.19328E-05   -0.93652E-08  1177   0.653E-04    0.160E-04
RMM:  15    -0.413182780827E+03    0.57709E-05   -0.11290E-07  1455   0.707E-04    0.186E-04
RMM:  16    -0.413182780262E+03    0.56508E-06   -0.41783E-08   884   0.573E-04
   29 T=    64. E= -.41286668E+03 F= -.41318278E+03 E0= -.41316118E+03  EK= 0.31610E+00 SP= 0.00E+00 SK= 0.00E+00
       N       E                     dE             d eps       ncg     rms          rms(c)
RMM:   1    -0.413175077151E+03    0.77037E-02   -0.11529E+01  4292   0.836E-01    0.909E-01
RMM:   2    -0.413185904549E+03   -0.10827E-01   -0.14383E-01  4269   0.110E-01    0.647E-01
RMM:   3    -0.413184619774E+03    0.12848E-02   -0.69577E-03  4441   0.455E-02    0.164E-01
RMM:   4    -0.413192651890E+03   -0.80321E-02   -0.84735E-03  5149   0.797E-02    0.378E-01
RMM:   5    -0.413184535338E+03    0.81166E-02   -0.40369E-03  4830   0.618E-02    0.253E-02
RMM:   6    -0.413184554446E+03   -0.19107E-04   -0.62846E-04  5825   0.237E-02    0.171E-02
RMM:   7    -0.413184551118E+03    0.33274E-05   -0.99214E-05  5407   0.974E-03    0.987E-03
RMM:   8    -0.413184541891E+03    0.92270E-05   -0.13251E-05  3810   0.431E-03    0.421E-03
RMM:   9    -0.413184538432E+03    0.34597E-05   -0.26508E-06  2690   0.227E-03    0.309E-03
RMM:  10    -0.413184534586E+03    0.38457E-05   -0.71890E-07  2465   0.144E-03    0.190E-03
RMM:  11    -0.413184529371E+03    0.52153E-05   -0.59222E-07  2429   0.125E-03    0.829E-04
RMM:  12    -0.413184525766E+03    0.36048E-05   -0.30546E-07  1956   0.924E-04    0.319E-04
RMM:  13    -0.413184524262E+03    0.15040E-05   -0.13983E-07  1300   0.703E-04    0.174E-04
RMM:  14    -0.413184521961E+03    0.23014E-05   -0.99841E-08  1176   0.664E-04    0.942E-05
RMM:  15    -0.413184518617E+03    0.33436E-05   -0.93116E-08  1280   0.671E-04    0.109E-04
RMM:  16    -0.413184517837E+03    0.78028E-06   -0.45320E-08   933   0.583E-04
   30 T=    65. E= -.41286666E+03 F= -.41318452E+03 E0= -.41316297E+03  EK= 0.31786E+00 SP= 0.00E+00 SK= 0.00E+00
       N       E                     dE             d eps       ncg     rms          rms(c)
RMM:   1    -0.413177427587E+03    0.70910E-02   -0.11669E+01  4291   0.884E-01    0.911E-01
RMM:   2    -0.413188434009E+03   -0.11006E-01   -0.14908E-01  4275   0.123E-01    0.661E-01
RMM:   3    -0.413186206112E+03    0.22279E-02   -0.68569E-03  4240   0.428E-02    0.160E-01
RMM:   4    -0.413187281811E+03   -0.10757E-02   -0.19961E-03  5075   0.365E-02    0.140E-01
RMM:   5    -0.413186196717E+03    0.10851E-02   -0.52903E-04  4776   0.233E-02    0.210E-02
RMM:   6    -0.413186191675E+03    0.50412E-05   -0.12689E-04  5536   0.117E-02    0.160E-02
RMM:   7    -0.413186184675E+03    0.70009E-05   -0.50149E-05  4668   0.712E-03    0.542E-03
RMM:   8    -0.413186181823E+03    0.28511E-05   -0.40399E-06  2843   0.284E-03    0.316E-03
RMM:   9    -0.413186180980E+03    0.84362E-06   -0.62858E-07  2456   0.151E-03
   31 T=    65. E= -.41286651E+03 F= -.41318618E+03 E0= -.41316468E+03  EK= 0.31967E+00 SP= 0.00E+00 SK= 0.00E+00
       N       E                     dE             d eps       ncg     rms          rms(c)
RMM:   1    -0.413198062255E+03   -0.11880E-01   -0.11940E+01  4291   0.958E-01    0.937E-01
RMM:   2    -0.413190125212E+03    0.79370E-02   -0.16696E-01  4285   0.127E-01    0.658E-01
RMM:   3    -0.413188804086E+03    0.13211E-02   -0.71176E-03  4330   0.460E-02    0.191E-01
RMM:   4    -0.413191836436E+03   -0.30324E-02   -0.38987E-03  5088   0.580E-02    0.230E-01
RMM:   5    -0.413188905396E+03    0.29310E-02   -0.13921E-03  4788   0.379E-02    0.256E-02
RMM:   6    -0.413188888598E+03    0.16797E-04   -0.27587E-04  5647   0.172E-02    0.185E-02
RMM:   7    -0.413188875034E+03    0.13565E-04   -0.67754E-05  5035   0.839E-03    0.724E-03
RMM:   8    -0.413188866292E+03    0.87415E-05   -0.11378E-05  3760   0.411E-03    0.381E-03
RMM:   9    -0.413188862979E+03    0.33137E-05   -0.11121E-06  2519   0.183E-03    0.212E-03
RMM:  10    -0.413188855276E+03    0.77026E-05   -0.65640E-07  2423   0.129E-03    0.112E-03
RMM:  11    -0.413188848189E+03    0.70874E-05   -0.35920E-07  2046   0.969E-04    0.463E-04
RMM:  12    -0.413188843576E+03    0.46125E-05   -0.18384E-07  1435   0.763E-04    0.234E-04
RMM:  13    -0.413188839779E+03    0.37976E-05   -0.11890E-07  1131   0.675E-04    0.139E-04
RMM:  14    -0.413188835216E+03    0.45630E-05   -0.99740E-08  1207   0.664E-04    0.956E-05
RMM:  15    -0.413188829674E+03    0.55416E-05   -0.10100E-07  1319   0.657E-04    0.776E-05
RMM:  16    -0.413188828346E+03    0.13282E-05   -0.43001E-08   807   0.537E-04    0.555E-05
RMM:  17    -0.413188825574E+03    0.27719E-05   -0.45572E-08   880   0.554E-04    0.243E-05
RMM:  18    -0.413188824962E+03    0.61146E-06   -0.22831E-08   641   0.503E-04
   32 T=    66. E= -.41286694E+03 F= -.41318882E+03 E0= -.41316738E+03  EK= 0.32188E+00 SP= 0.00E+00 SK= 0.00E+00
       N       E                     dE             d eps       ncg     rms          rms(c)
RMM:   1    -0.413191457929E+03   -0.26324E-02   -0.11830E+01  4285   0.955E-01    0.924E-01
RMM:   2    -0.413192328462E+03   -0.87053E-03   -0.15895E-01  4277   0.134E-01    0.653E-01
RMM:   3    -0.413190817846E+03    0.15106E-02   -0.68188E-03  4469   0.416E-02    0.182E-01
RMM:   4    -0.413197910123E+03   -0.70923E-02   -0.76554E-03  5147   0.758E-02    0.357E-01
RMM:   5    -0.413190753045E+03    0.71571E-02   -0.35493E-03  4808   0.587E-02    0.266E-02
RMM:   6    -0.413190740774E+03    0.12271E-04   -0.59591E-04  5776   0.240E-02    0.181E-02
RMM:   7    -0.413190735406E+03    0.53680E-05   -0.10211E-04  5371   0.967E-03    0.951E-03
RMM:   8    -0.413190726109E+03    0.92968E-05   -0.15134E-05  3996   0.447E-03    0.438E-03
RMM:   9    -0.413190722446E+03    0.36626E-05   -0.24068E-06  2687   0.225E-03    0.286E-03
RMM:  10    -0.413190717148E+03    0.52987E-05   -0.66129E-07  2459   0.138E-03    0.170E-03
RMM:  11    -0.413190710603E+03    0.65450E-05   -0.51258E-07  2377   0.117E-03    0.770E-04
RMM:  12    -0.413190705663E+03    0.49395E-05   -0.28170E-07  1891   0.892E-04    0.317E-04
RMM:  13    -0.413190703340E+03    0.23229E-05   -0.13021E-07  1251   0.693E-04    0.173E-04
RMM:  14    -0.413190700757E+03    0.25834E-05   -0.86321E-08  1091   0.646E-04    0.966E-05
RMM:  15    -0.413190696348E+03    0.44084E-05   -0.85199E-08  1251   0.664E-04    0.965E-05
RMM:  16    -0.413190695333E+03    0.10157E-05   -0.41852E-08   913   0.581E-04    0.731E-05
RMM:  17    -0.413190692187E+03    0.31462E-05   -0.55790E-08  1200   0.606E-04    0.452E-05
RMM:  18    -0.413190691087E+03    0.10994E-05   -0.25597E-08   812   0.526E-04    0.267E-05
RMM:  19    -0.413190690799E+03    0.28768E-06   -0.13239E-08   671   0.507E-04
   33 T=    66. E= -.41286667E+03 F= -.41319069E+03 E0= -.41316929E+03  EK= 0.32402E+00 SP= 0.00E+00 SK= 0.00E+00
       N       E                     dE             d eps       ncg     rms          rms(c)
RMM:   1    -0.413185777452E+03    0.49136E-02   -0.11869E+01  4293   0.939E-01    0.915E-01
RMM:   2    -0.413194999303E+03   -0.92219E-02   -0.15468E-01  4274   0.131E-01    0.666E-01
RMM:   3    -0.413193379607E+03    0.16197E-02   -0.69003E-03  4440   0.483E-02    0.169E-01
RMM:   4    -0.413202166982E+03   -0.87874E-02   -0.91406E-03  5154   0.835E-02    0.395E-01
RMM:   5    -0.413193363551E+03    0.88034E-02   -0.43072E-03  4812   0.648E-02    0.267E-02
RMM:   6    -0.413193353115E+03    0.10436E-04   -0.69949E-04  5808   0.261E-02    0.176E-02
RMM:   7    -0.413193354455E+03   -0.13403E-05   -0.11009E-04  5401   0.101E-02    0.994E-03
RMM:   8    -0.413193347580E+03    0.68749E-05   -0.16974E-05  4080   0.469E-03    0.458E-03
RMM:   9    -0.413193345665E+03    0.19150E-05   -0.30246E-06  2751   0.242E-03    0.301E-03
RMM:  10    -0.413193342887E+03    0.27785E-05   -0.73692E-07  2465   0.146E-03    0.185E-03
RMM:  11    -0.413193339043E+03    0.38440E-05   -0.61481E-07  2438   0.124E-03    0.855E-04
RMM:  12    -0.413193336199E+03    0.28435E-05   -0.33623E-07  1923   0.928E-04    0.347E-04
RMM:  13    -0.413193334852E+03    0.13474E-05   -0.15067E-07  1292   0.706E-04    0.189E-04
RMM:  14    -0.413193333218E+03    0.16340E-05   -0.10207E-07  1109   0.657E-04    0.982E-05
RMM:  15    -0.413193330768E+03    0.24503E-05   -0.91041E-08  1166   0.657E-04    0.900E-05
RMM:  16    -0.413193330251E+03    0.51719E-06   -0.44781E-08   883   0.590E-04
   34 T=    66. E= -.41286676E+03 F= -.41319333E+03 E0= -.41317198E+03  EK= 0.32657E+00 SP= 0.00E+00 SK= 0.00E+00
       N       E                     dE             d eps       ncg     rms          rms(c)
RMM:   1    -0.413187084957E+03    0.62458E-02   -0.11977E+01  4300   0.928E-01    0.941E-01
RMM:   2    -0.413197657977E+03   -0.10573E-01   -0.15484E-01  4264   0.134E-01    0.666E-01
RMM:   3    -0.413196185264E+03    0.14727E-02   -0.71152E-03  4380   0.447E-02    0.174E-01
RMM:   4    -0.413199359574E+03   -0.31743E-02   -0.40087E-03  5159   0.538E-02    0.242E-01
RMM:   5    -0.413196102271E+03    0.32573E-02   -0.16259E-03  4814   0.401E-02    0.253E-02
RMM:   6    -0.413196089541E+03    0.12730E-04   -0.30242E-04  5695   0.175E-02    0.183E-02
RMM:   7    -0.413196078819E+03    0.10722E-04   -0.73252E-05  5069   0.846E-03    0.679E-03
RMM:   8    -0.413196071781E+03    0.70376E-05   -0.90458E-06  3395   0.361E-03    0.363E-03
RMM:   9    -0.413196068931E+03    0.28499E-05   -0.11145E-06  2523   0.179E-03    0.222E-03
RMM:  10    -0.413196062138E+03    0.67938E-05   -0.64176E-07  2413   0.128E-03    0.113E-03
RMM:  11    -0.413196056479E+03    0.56583E-05   -0.34970E-07  2038   0.957E-04    0.492E-04
RMM:  12    -0.413196051584E+03    0.48956E-05   -0.20112E-07  1540   0.790E-04    0.193E-04
RMM:  13    -0.413196048752E+03    0.28321E-05   -0.11482E-07  1180   0.680E-04    0.126E-04
RMM:  14    -0.413196044823E+03    0.39284E-05   -0.90981E-08  1197   0.657E-04    0.860E-05
RMM:  15    -0.413196038846E+03    0.59767E-05   -0.97687E-08  1431   0.672E-04    0.728E-05
RMM:  16    -0.413196037706E+03    0.11409E-05   -0.41016E-08   879   0.549E-04    0.511E-05
RMM:  17    -0.413196035179E+03    0.25268E-05   -0.40061E-08   962   0.557E-04    0.218E-05
RMM:  18    -0.413196034637E+03    0.54211E-06   -0.18500E-08   718   0.511E-04
   35 T=    67. E= -.41286681E+03 F= -.41319603E+03 E0= -.41317473E+03  EK= 0.32922E+00 SP= 0.00E+00 SK= 0.00E+00
       N       E                     dE             d eps       ncg     rms          rms(c)
RMM:   1    -0.413190513770E+03    0.55214E-02   -0.12013E+01  4299   0.964E-01    0.941E-01
RMM:   2    -0.413199554603E+03   -0.90408E-02   -0.15476E-01  4253   0.124E-01    0.659E-01
RMM:   3    -0.413198453211E+03    0.11014E-02   -0.73850E-03  4773   0.458E-02    0.188E-01
RMM:   4    -0.413226568759E+03   -0.28116E-01   -0.28202E-02  5161   0.141E-01    0.700E-01
RMM:   5    -0.413198178626E+03    0.28390E-01   -0.14277E-02  4803   0.117E-01    0.384E-02
RMM:   6    -0.413198209901E+03   -0.31276E-04   -0.22595E-03  5846   0.449E-02    0.216E-02
RMM:   7    -0.413198219194E+03   -0.92927E-05   -0.25015E-04  5796   0.139E-02    0.137E-02
RMM:   8    -0.413198210229E+03    0.89651E-05   -0.40949E-05  4837   0.625E-03    0.858E-03
RMM:   9    -0.413198204612E+03    0.56169E-05   -0.11914E-05  3871   0.396E-03    0.550E-03
RMM:  10    -0.413198196991E+03    0.76204E-05   -0.19863E-06  2550   0.228E-03    0.309E-03
RMM:  11    -0.413198190391E+03    0.66000E-05   -0.13507E-06  2510   0.182E-03    0.168E-03
RMM:  12    -0.413198181186E+03    0.92056E-05   -0.87605E-07  2470   0.160E-03    0.634E-04
RMM:  13    -0.413198178492E+03    0.26941E-05   -0.32391E-07  2170   0.103E-03    0.460E-04
RMM:  14    -0.413198177338E+03    0.11541E-05   -0.13895E-07  1466   0.724E-04    0.289E-04
RMM:  15    -0.413198170996E+03    0.63413E-05   -0.12702E-07  1645   0.735E-04    0.252E-04
RMM:  16    -0.413198170346E+03    0.65061E-06   -0.47713E-08   933   0.572E-04
   36 T=    68. E= -.41286655E+03 F= -.41319817E+03 E0= -.41317691E+03  EK= 0.33162E+00 SP= 0.00E+00 SK= 0.00E+00
       N       E                     dE             d eps       ncg     rms          rms(c)
RMM:   1    -0.413192802073E+03    0.53689E-02   -0.12077E+01  4304   0.987E-01    0.924E-01
RMM:   2    -0.413203224180E+03   -0.10422E-01   -0.16092E-01  4257   0.135E-01    0.671E-01
RMM:   3    -0.413201567973E+03    0.16562E-02   -0.71365E-03  4762   0.515E-02    0.191E-01
RMM:   4    -0.413236562699E+03   -0.34995E-01   -0.35316E-02  5159   0.158E-01    0.779E-01
RMM:   5    -0.413201078085E+03    0.35485E-01   -0.17807E-02  4799   0.130E-01    0.404E-02
RMM:   6    -0.413201147323E+03   -0.69238E-04   -0.28190E-03  5854   0.497E-02    0.217E-02
RMM:   7    -0.413201161308E+03   -0.13985E-04   -0.28693E-04  5766   0.146E-02    0.137E-02
RMM:   8    -0.413201155726E+03    0.55823E-05   -0.40853E-05  4770   0.604E-03    0.869E-03
RMM:   9    -0.413201153428E+03    0.22978E-05   -0.15682E-05  4164   0.420E-03    0.604E-03
RMM:  10    -0.413201147685E+03    0.57427E-05   -0.26877E-06  2600   0.253E-03    0.322E-03
RMM:  11    -0.413201143509E+03    0.41759E-05   -0.17666E-06  2532   0.203E-03    0.181E-03
RMM:  12    -0.413201137917E+03    0.55922E-05   -0.98632E-07  2478   0.169E-03    0.683E-04
RMM:  13    -0.413201136317E+03    0.16001E-05   -0.36301E-07  2241   0.108E-03    0.492E-04
RMM:  14    -0.413201135589E+03    0.72828E-06   -0.15272E-07  1539   0.749E-04
   37 T=    68. E= -.41286678E+03 F= -.41320114E+03 E0= -.41317991E+03  EK= 0.33435E+00 SP= 0.00E+00 SK= 0.00E+00
       N       E                     dE             d eps       ncg     rms          rms(c)
RMM:   1    -0.413195639249E+03    0.54971E-02   -0.12228E+01  4308   0.102E+00    0.945E-01
RMM:   2    -0.413205878886E+03   -0.10240E-01   -0.16070E-01  4259   0.128E-01    0.675E-01
RMM:   3    -0.413204021009E+03    0.18579E-02   -0.74200E-03  4747   0.502E-02    0.191E-01
RMM:   4    -0.413234901126E+03   -0.30880E-01   -0.31057E-02  5152   0.148E-01    0.733E-01
RMM:   5    -0.413203618827E+03    0.31282E-01   -0.15774E-02  4806   0.122E-01    0.395E-02
RMM:   6    -0.413203670843E+03   -0.52016E-04   -0.24866E-03  5847   0.468E-02    0.217E-02
RMM:   7    -0.413203682305E+03   -0.11461E-04   -0.27074E-04  5791   0.142E-02    0.138E-02
RMM:   8    -0.413203674808E+03    0.74965E-05   -0.43174E-05  4867   0.634E-03    0.878E-03
RMM:   9    -0.413203670488E+03    0.43202E-05   -0.13516E-05  3995   0.407E-03    0.550E-03
RMM:  10    -0.413203663888E+03    0.66003E-05   -0.22450E-06  2576   0.232E-03    0.311E-03
RMM:  11    -0.413203658369E+03    0.55189E-05   -0.13733E-06  2508   0.184E-03    0.168E-03
RMM:  12    -0.413203650985E+03    0.73835E-05   -0.83885E-07  2468   0.157E-03    0.602E-04
RMM:  13    -0.413203648621E+03    0.23641E-05   -0.32617E-07  2177   0.103E-03    0.430E-04
RMM:  14    -0.413203647576E+03    0.10451E-05   -0.14236E-07  1484   0.732E-04    0.270E-04
RMM:  15    -0.413203641451E+03    0.61253E-05   -0.14623E-07  1741   0.761E-04    0.298E-04
RMM:  16    -0.413203640786E+03    0.66488E-06   -0.50786E-08   958   0.575E-04
   38 T=    69. E= -.41286685E+03 F= -.41320364E+03 E0= -.41318246E+03  EK= 0.33679E+00 SP= 0.00E+00 SK= 0.00E+00
       N       E                     dE             d eps       ncg     rms          rms(c)
RMM:   1    -0.413201045189E+03    0.25963E-02   -0.12303E+01  4305   0.108E+00    0.958E-01
RMM:   2    -0.413207530105E+03   -0.64849E-02   -0.16295E-01  4268   0.125E-01    0.669E-01
RMM:   3    -0.413206939430E+03    0.59067E-03   -0.81735E-03  5032   0.548E-02    0.230E-01
RMM:   4    -0.413258034516E+03   -0.51095E-01   -0.55495E-02  5129   0.196E-01    0.939E-01
RMM:   5    -0.413205737117E+03    0.52297E-01   -0.25685E-02  4787   0.158E-01    0.512E-02
RMM:   6    -0.413205874009E+03   -0.13689E-03   -0.40797E-03  5815   0.603E-02    0.252E-02
RMM:   7    -0.413205892310E+03   -0.18301E-04   -0.43113E-04  5853   0.177E-02    0.167E-02
RMM:   8    -0.413205889991E+03    0.23192E-05   -0.72136E-05  5124   0.763E-03    0.116E-02
RMM:   9    -0.413205877870E+03    0.12120E-04   -0.18831E-05  4323   0.475E-03    0.628E-03
RMM:  10    -0.413205869268E+03    0.86024E-05   -0.40709E-06  2701   0.286E-03    0.333E-03
RMM:  11    -0.413205862695E+03    0.65735E-05   -0.15806E-06  2500   0.204E-03    0.191E-03
RMM:  12    -0.413205853796E+03    0.88986E-05   -0.87682E-07  2473   0.165E-03    0.658E-04
RMM:  13    -0.413205849579E+03    0.42166E-05   -0.38597E-07  2289   0.112E-03    0.393E-04
RMM:  14    -0.413205846589E+03    0.29904E-05   -0.18453E-07  1765   0.800E-04    0.257E-04
RMM:  15    -0.413205839557E+03    0.70324E-05   -0.13463E-07  1546   0.735E-04    0.210E-04
RMM:  16    -0.413205838559E+03    0.99758E-06   -0.63912E-08  1033   0.600E-04
   39 T=    69. E= -.41286668E+03 F= -.41320584E+03 E0= -.41318470E+03  EK= 0.33916E+00 SP= 0.00E+00 SK= 0.00E+00
       N       E                     dE             d eps       ncg     rms          rms(c)
RMM:   1    -0.413202137978E+03    0.37016E-02   -0.12299E+01  4311   0.111E+00    0.935E-01
RMM:   2    -0.413211161406E+03   -0.90234E-02   -0.16518E-01  4263   0.131E-01    0.674E-01
RMM:   3    -0.413210300398E+03    0.86101E-03   -0.79485E-03  5030   0.560E-02    0.238E-01
RMM:   4    -0.413264186742E+03   -0.53886E-01   -0.59611E-02  5129   0.203E-01    0.965E-01
RMM:   5    -0.413208816471E+03    0.55370E-01   -0.26911E-02  4775   0.162E-01    0.528E-02
RMM:   6    -0.413208977000E+03   -0.16053E-03   -0.44439E-03  5811   0.619E-02    0.248E-02
RMM:   7    -0.413208999264E+03   -0.22264E-04   -0.46698E-04  5900   0.182E-02    0.172E-02
RMM:   8    -0.413208999171E+03    0.93944E-07   -0.77836E-05  5173   0.789E-03    0.119E-02
RMM:   9    -0.413208988945E+03    0.10226E-04   -0.17804E-05  4242   0.469E-03    0.619E-03
RMM:  10    -0.413208983112E+03    0.58326E-05   -0.43018E-06  2712   0.284E-03    0.329E-03
RMM:  11    -0.413208978741E+03    0.43714E-05   -0.16445E-06  2509   0.205E-03    0.188E-03
RMM:  12    -0.413208973084E+03    0.56566E-05   -0.87162E-07  2469   0.161E-03    0.679E-04
RMM:  13    -0.413208970333E+03    0.27508E-05   -0.39328E-07  2280   0.111E-03    0.387E-04
RMM:  14    -0.413208967934E+03    0.23997E-05   -0.19847E-07  1775   0.808E-04    0.240E-04
RMM:  15    -0.413208963070E+03    0.48642E-05   -0.14114E-07  1450   0.728E-04    0.186E-04
RMM:  16    -0.413208962317E+03    0.75266E-06   -0.70108E-08  1045   0.612E-04
   40 T=    70. E= -.41286716E+03 F= -.41320896E+03 E0= -.41318786E+03  EK= 0.34180E+00 SP= 0.00E+00 SK= 0.00E+00
       N       E                     dE             d eps       ncg     rms          rms(c)
RMM:   1    -0.413211995327E+03   -0.30323E-02   -0.12531E+01  4303   0.121E+00    0.947E-01
RMM:   2    -0.413212731389E+03   -0.73606E-03   -0.17408E-01  4270   0.139E-01    0.685E-01
RMM:   3    -0.413212325850E+03    0.40554E-03   -0.83721E-03  5050   0.592E-02    0.259E-01
RMM:   4    -0.413267542278E+03   -0.55216E-01   -0.62967E-02  5124   0.209E-01    0.979E-01
RMM:   5    -0.413210445950E+03    0.57096E-01   -0.27647E-02  4772   0.165E-01    0.543E-02
RMM:   6    -0.413210600159E+03   -0.15421E-03   -0.43637E-03  5801   0.626E-02    0.249E-02
RMM:   7    -0.413210622629E+03   -0.22470E-04   -0.47855E-04  5931   0.187E-02    0.178E-02
RMM:   8    -0.413210622445E+03    0.18366E-06   -0.82209E-05  5253   0.817E-03    0.119E-02
RMM:   9    -0.413210612060E+03    0.10385E-04   -0.17199E-05  4169   0.472E-03    0.568E-03
RMM:  10    -0.413210606528E+03    0.55320E-05   -0.44114E-06  2725   0.283E-03    0.306E-03
RMM:  11    -0.413210602415E+03    0.41131E-05   -0.15124E-06  2509   0.197E-03    0.168E-03
RMM:  12    -0.413210597269E+03    0.51467E-05   -0.77161E-07  2455   0.151E-03    0.644E-04
RMM:  13    -0.413210594399E+03    0.28699E-05   -0.36241E-07  2213   0.105E-03    0.341E-04
RMM:  14    -0.413210591527E+03    0.28717E-05   -0.19572E-07  1632   0.798E-04    0.209E-04
RMM:  15    -0.413210587592E+03    0.39354E-05   -0.13508E-07  1362   0.713E-04    0.123E-04
RMM:  16    -0.413210586189E+03    0.14025E-05   -0.79751E-08  1108   0.635E-04    0.628E-05
RMM:  17    -0.413210584039E+03    0.21502E-05   -0.65188E-08  1110   0.627E-04    0.471E-05
RMM:  18    -0.413210580813E+03    0.32262E-05   -0.64176E-08  1217   0.633E-04    0.381E-05
RMM:  19    -0.413210580274E+03    0.53852E-06   -0.29637E-08   866   0.563E-04
   41 T=    70. E= -.41286669E+03 F= -.41321058E+03 E0= -.41318951E+03  EK= 0.34389E+00 SP= 0.00E+00 SK= 0.00E+00
       N       E                     dE             d eps       ncg     rms          rms(c)
RMM:   1    -0.413225338942E+03   -0.14758E-01   -0.12703E+01  4311   0.129E+00    0.972E-01
RMM:   2    -0.413214650633E+03    0.10688E-01   -0.17891E-01  4282   0.146E-01    0.679E-01
RMM:   3    -0.413216875381E+03   -0.22247E-02   -0.10500E-02  5116   0.727E-02    0.328E-01
RMM:   4    -0.413252597261E+03   -0.35722E-01   -0.51372E-02  5093   0.190E-01    0.826E-01
RMM:   5    -0.413213129028E+03    0.39468E-01   -0.17832E-02  4737   0.138E-01    0.529E-02
RMM:   6    -0.413213176198E+03   -0.47170E-04   -0.29274E-03  5749   0.516E-02    0.238E-02
RMM:   7    -0.413213187847E+03   -0.11648E-04   -0.36278E-04  5875   0.165E-02    0.174E-02
RMM:   8    -0.413213183879E+03    0.39676E-05   -0.70626E-05  5168   0.787E-03    0.104E-02
RMM:   9    -0.413213170406E+03    0.13473E-04   -0.14490E-05  3938   0.463E-03    0.418E-03
RMM:  10    -0.413213163780E+03    0.66261E-05   -0.33185E-06  2661   0.243E-03    0.238E-03
RMM:  11    -0.413213156793E+03    0.69866E-05   -0.11419E-06  2502   0.171E-03    0.120E-03
RMM:  12    -0.413213150605E+03    0.61879E-05   -0.49580E-07  2368   0.123E-03    0.546E-04
RMM:  13    -0.413213146187E+03    0.44185E-05   -0.26183E-07  1758   0.880E-04    0.248E-04
RMM:  14    -0.413213142095E+03    0.40918E-05   -0.16290E-07  1373   0.746E-04    0.142E-04
RMM:  15    -0.413213135650E+03    0.64453E-05   -0.13973E-07  1474   0.731E-04    0.101E-04
RMM:  16    -0.413213133969E+03    0.16804E-05   -0.84635E-08  1172   0.631E-04    0.774E-05
RMM:  17    -0.413213129626E+03    0.43437E-05   -0.76349E-08  1274   0.638E-04    0.529E-05
RMM:  18    -0.413213127135E+03    0.24909E-05   -0.53361E-08  1112   0.586E-04    0.457E-05
RMM:  19    -0.413213126616E+03    0.51815E-06   -0.30115E-08   842   0.534E-04
   42 T=    70. E= -.41286691E+03 F= -.41321313E+03 E0= -.41319209E+03  EK= 0.34622E+00 SP= 0.00E+00 SK= 0.00E+00
       N       E                     dE             d eps       ncg     rms          rms(c)
RMM:   1    -0.413223195885E+03   -0.10069E-01   -0.12628E+01  4312   0.135E+00    0.948E-01
RMM:   2    -0.413216757666E+03    0.64382E-02   -0.17070E-01  4288   0.152E-01    0.678E-01
RMM:   3    -0.413219940469E+03   -0.31828E-02   -0.11254E-02  5103   0.799E-02    0.351E-01
RMM:   4    -0.413250553401E+03   -0.30613E-01   -0.49264E-02  5071   0.187E-01    0.783E-01
RMM:   5    -0.413215196359E+03    0.35357E-01   -0.15475E-02  4713   0.131E-01    0.510E-02
RMM:   6    -0.413215228844E+03   -0.32485E-04   -0.25818E-03  5737   0.485E-02    0.229E-02
RMM:   7    -0.413215236717E+03   -0.78730E-05   -0.31226E-04  5860   0.157E-02    0.169E-02
RMM:   8    -0.413215233168E+03    0.35487E-05   -0.63639E-05  5136   0.761E-03    0.969E-03
RMM:   9    -0.413215222195E+03    0.10973E-04   -0.13700E-05  3847   0.455E-03    0.392E-03
RMM:  10    -0.413215217498E+03    0.46974E-05   -0.29347E-06  2647   0.233E-03    0.222E-03
RMM:  11    -0.413215212210E+03    0.52882E-05   -0.11421E-06  2502   0.167E-03    0.114E-03
RMM:  12    -0.413215207893E+03    0.43171E-05   -0.49131E-07  2354   0.120E-03    0.518E-04
RMM:  13    -0.413215204653E+03    0.32398E-05   -0.26700E-07  1647   0.860E-04    0.239E-04
RMM:  14    -0.413215201722E+03    0.29311E-05   -0.17224E-07  1343   0.742E-04    0.131E-04
RMM:  15    -0.413215196838E+03    0.48837E-05   -0.15053E-07  1352   0.725E-04    0.853E-05
RMM:  16    -0.413215195256E+03    0.15825E-05   -0.91058E-08  1152   0.646E-04    0.638E-05
RMM:  17    -0.413215192162E+03    0.30940E-05   -0.80975E-08  1253   0.643E-04    0.526E-05
RMM:  18    -0.413215189968E+03    0.21941E-05   -0.57109E-08  1083   0.592E-04    0.397E-05
RMM:  19    -0.413215189342E+03    0.62579E-06   -0.32707E-08   832   0.542E-04
   43 T=    71. E= -.41286690E+03 F= -.41321519E+03 E0= -.41319418E+03  EK= 0.34829E+00 SP= 0.00E+00 SK= 0.00E+00
       N       E                     dE             d eps       ncg     rms          rms(c)
RMM:   1    -0.413248263506E+03   -0.33074E-01   -0.12999E+01  4312   0.152E+00    0.948E-01
RMM:   2    -0.413218219570E+03    0.30044E-01   -0.20845E-01  4292   0.173E-01    0.697E-01
RMM:   3    -0.413222419533E+03   -0.42000E-02   -0.11975E-02  5105   0.883E-02    0.410E-01
RMM:   4    -0.413250930201E+03   -0.28511E-01   -0.51200E-02  5059   0.192E-01    0.783E-01
RMM:   5    -0.413216312160E+03    0.34618E-01   -0.15272E-02  4698   0.133E-01    0.551E-02
RMM:   6    -0.413216322005E+03   -0.98443E-05   -0.25327E-03  5690   0.483E-02    0.236E-02
RMM:   7    -0.413216330736E+03   -0.87315E-05   -0.31819E-04  5904   0.160E-02    0.177E-02
RMM:   8    -0.413216327005E+03    0.37315E-05   -0.61247E-05  5134   0.756E-03    0.997E-03
RMM:   9    -0.413216317367E+03    0.96372E-05   -0.15716E-05  3944   0.494E-03    0.426E-03
RMM:  10    -0.413216313860E+03    0.35070E-05   -0.31579E-06  2667   0.240E-03    0.244E-03
RMM:  11    -0.413216310038E+03    0.38223E-05   -0.15820E-06  2545   0.187E-03    0.129E-03
RMM:  12    -0.413216307277E+03    0.27612E-05   -0.55316E-07  2443   0.130E-03    0.618E-04
RMM:  13    -0.413216304529E+03    0.27473E-05   -0.32450E-07  1656   0.910E-04    0.317E-04
RMM:  14    -0.413216302267E+03    0.22625E-05   -0.20952E-07  1390   0.782E-04    0.170E-04
RMM:  15    -0.413216299707E+03    0.25597E-05   -0.15687E-07  1346   0.728E-04    0.887E-05
RMM:  16    -0.413216297324E+03    0.23834E-05   -0.11877E-07  1287   0.682E-04    0.562E-05
RMM:  17    -0.413216295706E+03    0.16181E-05   -0.80283E-08  1123   0.625E-04    0.469E-05
RMM:  18    -0.413216293593E+03    0.21130E-05   -0.69847E-08  1159   0.605E-04    0.362E-05
RMM:  19    -0.413216292794E+03    0.79878E-06   -0.38534E-08   862   0.549E-04
   44 T=    71. E= -.41286656E+03 F= -.41321629E+03 E0= -.41319531E+03  EK= 0.34973E+00 SP= 0.00E+00 SK= 0.00E+00
       N       E                     dE             d eps       ncg     rms          rms(c)
RMM:   1    -0.413229842753E+03   -0.13549E-01   -0.12849E+01  4308   0.154E+00    0.979E-01
RMM:   2    -0.413218971592E+03    0.10871E-01   -0.18142E-01  4347   0.180E-01    0.687E-01
RMM:   3    -0.413230320436E+03   -0.11349E-01   -0.18537E-02  5131   0.115E-01    0.516E-01
RMM:   4    -0.413234957245E+03   -0.46368E-02   -0.38826E-02  5016   0.171E-01    0.562E-01
RMM:   5    -0.413218111464E+03    0.16846E-01   -0.64453E-03  4584   0.969E-02    0.464E-02
RMM:   6    -0.413218071727E+03    0.39737E-04   -0.11974E-03  5403   0.336E-02    0.216E-02
RMM:   7    -0.413218069830E+03    0.18974E-05   -0.14959E-04  5656   0.119E-02    0.157E-02
RMM:   8    -0.413218062879E+03    0.69505E-05   -0.55601E-05  5071   0.754E-03    0.848E-03
RMM:   9    -0.413218048194E+03    0.14685E-04   -0.12594E-05  3877   0.469E-03    0.358E-03
RMM:  10    -0.413218044085E+03    0.41090E-05   -0.18291E-06  2582   0.204E-03    0.191E-03
RMM:  11    -0.413218036964E+03    0.71212E-05   -0.11073E-06  2497   0.164E-03    0.113E-03
RMM:  12    -0.413218031653E+03    0.53105E-05   -0.43830E-07  2362   0.117E-03    0.530E-04
RMM:  13    -0.413218027536E+03    0.41176E-05   -0.22262E-07  1555   0.801E-04    0.241E-04
RMM:  14    -0.413218023927E+03    0.36087E-05   -0.13751E-07  1244   0.690E-04    0.135E-04
RMM:  15    -0.413218017726E+03    0.62012E-05   -0.13354E-07  1379   0.707E-04    0.111E-04
RMM:  16    -0.413218015440E+03    0.22856E-05   -0.72185E-08  1043   0.606E-04    0.965E-05
RMM:  17    -0.413218012400E+03    0.30400E-05   -0.58183E-08  1043   0.590E-04    0.545E-05
RMM:  18    -0.413218009433E+03    0.29672E-05   -0.55102E-08  1133   0.591E-04    0.464E-05
RMM:  19    -0.413218008999E+03    0.43407E-06   -0.24658E-08   752   0.512E-04
   45 T=    71. E= -.41286699E+03 F= -.41321801E+03 E0= -.41319704E+03  EK= 0.35102E+00 SP= 0.00E+00 SK= 0.00E+00
       N       E                     dE             d eps       ncg     rms          rms(c)
RMM:   1    -0.413233654602E+03   -0.15645E-01   -0.12791E+01  4307   0.163E+00    0.960E-01
RMM:   2    -0.413219226891E+03    0.14428E-01   -0.18377E-01  4368   0.189E-01    0.683E-01
RMM:   3    -0.413233331681E+03   -0.14105E-01   -0.20839E-02  5132   0.125E-01    0.565E-01
RMM:   4    -0.413232372736E+03    0.95895E-03   -0.38045E-02  5000   0.171E-01    0.520E-01
RMM:   5    -0.413218333293E+03    0.14039E-01   -0.54471E-03  4552   0.928E-02    0.464E-02
RMM:   6    -0.413218270487E+03    0.62806E-04   -0.89662E-04  5176   0.305E-02    0.211E-02
RMM:   7    -0.413218267418E+03    0.30699E-05   -0.11832E-04  5695   0.105E-02    0.137E-02
RMM:   8    -0.413218265061E+03    0.23570E-05   -0.63152E-05  5204   0.789E-03    0.953E-03
RMM:   9    -0.413218249921E+03    0.15139E-04   -0.18310E-05  4341   0.535E-03    0.395E-03
RMM:  10    -0.413218246755E+03    0.31659E-05   -0.23014E-06  2611   0.221E-03    0.208E-03
RMM:  11    -0.413218241059E+03    0.56967E-05   -0.13655E-06  2480   0.186E-03    0.125E-03
RMM:  12    -0.413218236509E+03    0.45491E-05   -0.51704E-07  2383   0.131E-03    0.656E-04
RMM:  13    -0.413218232772E+03    0.37378E-05   -0.23462E-07  1662   0.864E-04    0.318E-04
RMM:  14    -0.413218229070E+03    0.37014E-05   -0.13513E-07  1330   0.709E-04    0.157E-04
RMM:  15    -0.413218223933E+03    0.51375E-05   -0.11757E-07  1275   0.676E-04    0.135E-04
RMM:  16    -0.413218222014E+03    0.19190E-05   -0.58072E-08   902   0.566E-04    0.105E-04
RMM:  17    -0.413218218749E+03    0.32644E-05   -0.56756E-08   972   0.576E-04    0.666E-05
RMM:  18    -0.413218216321E+03    0.24283E-05   -0.43907E-08   929   0.563E-04    0.492E-05
RMM:  19    -0.413218215729E+03    0.59191E-06   -0.21110E-08   690   0.512E-04
   46 T=    72. E= -.41286692E+03 F= -.41321822E+03 E0= -.41319727E+03  EK= 0.35130E+00 SP= 0.00E+00 SK= 0.00E+00
       N       E                     dE             d eps       ncg     rms          rms(c)
RMM:   1    -0.413254092826E+03   -0.35877E-01   -0.13039E+01  4311   0.178E+00    0.947E-01
RMM:   2    -0.413219448980E+03    0.34644E-01   -0.21229E-01  4370   0.213E-01    0.699E-01
RMM:   3    -0.413233414942E+03   -0.13966E-01   -0.20793E-02  5132   0.127E-01    0.588E-01
RMM:   4    -0.413233517060E+03   -0.10212E-03   -0.40542E-02  5005   0.177E-01    0.554E-01
RMM:   5    -0.413217924257E+03    0.15593E-01   -0.65558E-03  4555   0.100E-01    0.506E-02
RMM:   6    -0.413217850970E+03    0.73287E-04   -0.10440E-03  5214   0.329E-02    0.227E-02
RMM:   7    -0.413217848153E+03    0.28171E-05   -0.14390E-04  5777   0.115E-02    0.160E-02
RMM:   8    -0.413217843905E+03    0.42483E-05   -0.62197E-05  5195   0.781E-03    0.964E-03
RMM:   9    -0.413217830367E+03    0.13538E-04   -0.17854E-05  4291   0.542E-03    0.429E-03
RMM:  10    -0.413217827755E+03    0.26120E-05   -0.24613E-06  2623   0.222E-03    0.226E-03
RMM:  11    -0.413217824101E+03    0.36535E-05   -0.16735E-06  2528   0.196E-03    0.144E-03
RMM:  12    -0.413217821209E+03    0.28922E-05   -0.53036E-07  2413   0.135E-03    0.717E-04
RMM:  13    -0.413217818378E+03    0.28306E-05   -0.26442E-07  1699   0.882E-04    0.316E-04
RMM:  14    -0.413217815930E+03    0.24485E-05   -0.16686E-07  1341   0.726E-04    0.166E-04
RMM:  15    -0.413217812561E+03    0.33689E-05   -0.15323E-07  1323   0.703E-04    0.108E-04
RMM:  16    -0.413217810850E+03    0.17109E-05   -0.85070E-08  1015   0.601E-04    0.803E-05
RMM:  17    -0.413217808712E+03    0.21381E-05   -0.72847E-08  1008   0.591E-04    0.467E-05
RMM:  18    -0.413217807559E+03    0.11525E-05   -0.46110E-08   877   0.556E-04    0.300E-05
RMM:  19    -0.413217807039E+03    0.52038E-06   -0.28020E-08   734   0.526E-04
   47 T=    71. E= -.41286704E+03 F= -.41321781E+03 E0= -.41319687E+03  EK= 0.35076E+00 SP= 0.00E+00 SK= 0.00E+00
       N       E                     dE             d eps       ncg     rms          rms(c)
RMM:   1    -0.413271952339E+03   -0.54145E-01   -0.13203E+01  4306   0.196E+00    0.974E-01
RMM:   2    -0.413217798282E+03    0.54154E-01   -0.21272E-01  4478   0.213E-01    0.694E-01
RMM:   3    -0.413241001244E+03   -0.23203E-01   -0.29203E-02  5149   0.152E-01    0.705E-01
RMM:   4    -0.413225713349E+03    0.15288E-01   -0.38187E-02  4964   0.176E-01    0.444E-01
RMM:   5    -0.413216946268E+03    0.87671E-02   -0.47717E-03  4559   0.908E-02    0.570E-02
RMM:   6    -0.413216781951E+03    0.16432E-03   -0.47068E-04  4729   0.284E-02    0.252E-02
RMM:   7    -0.413216783241E+03   -0.12903E-05   -0.15583E-04  5913   0.126E-02    0.176E-02
RMM:   8    -0.413216767550E+03    0.15691E-04   -0.50420E-05  5060   0.775E-03    0.101E-02
RMM:   9    -0.413216754339E+03    0.13211E-04   -0.13545E-05  3862   0.469E-03    0.497E-03
RMM:  10    -0.413216749167E+03    0.51716E-05   -0.24151E-06  2587   0.247E-03    0.244E-03
RMM:  11    -0.413216743827E+03    0.53408E-05   -0.17695E-06  2512   0.207E-03    0.166E-03
RMM:  12    -0.413216739306E+03    0.45201E-05   -0.59437E-07  2408   0.142E-03    0.834E-04
RMM:  13    -0.413216734838E+03    0.44680E-05   -0.28896E-07  1937   0.926E-04    0.422E-04
RMM:  14    -0.413216730152E+03    0.46866E-05   -0.18390E-07  1580   0.748E-04    0.223E-04
RMM:  15    -0.413216725358E+03    0.47940E-05   -0.14390E-07  1337   0.667E-04    0.134E-04
RMM:  16    -0.413216722834E+03    0.25241E-05   -0.82175E-08  1082   0.593E-04    0.104E-04
RMM:  17    -0.413216720262E+03    0.25718E-05   -0.66824E-08  1057   0.579E-04    0.509E-05
RMM:  18    -0.413216718362E+03    0.18999E-05   -0.47541E-08   972   0.560E-04    0.420E-05
RMM:  19    -0.413216717762E+03    0.60006E-06   -0.24560E-08   752   0.516E-04
   48 T=    71. E= -.41286743E+03 F= -.41321672E+03 E0= -.41319579E+03  EK= 0.34929E+00 SP= 0.00E+00 SK= 0.00E+00
       N       E                     dE             d eps       ncg     rms          rms(c)
RMM:   1    -0.413274926706E+03   -0.58208E-01   -0.13085E+01  4306   0.210E+00    0.965E-01
RMM:   2    -0.413214262540E+03    0.60664E-01   -0.21034E-01  4493   0.228E-01    0.684E-01
RMM:   3    -0.413243985501E+03   -0.29723E-01   -0.35128E-02  5159   0.168E-01    0.782E-01
RMM:   4    -0.413219497222E+03    0.24488E-01   -0.38154E-02  4930   0.178E-01    0.391E-01
RMM:   5    -0.413213574098E+03    0.59231E-02   -0.51118E-03  4795   0.928E-02    0.701E-02
RMM:   6    -0.413213296839E+03    0.27726E-03   -0.53107E-04  4667   0.320E-02    0.295E-02
RMM:   7    -0.413213292302E+03    0.45376E-05   -0.15227E-04  5734   0.132E-02    0.195E-02
RMM:   8    -0.413213274492E+03    0.17809E-04   -0.36585E-05  4874   0.669E-03    0.101E-02
RMM:   9    -0.413213260237E+03    0.14255E-04   -0.13320E-05  3475   0.434E-03    0.439E-03
RMM:  10    -0.413213254130E+03    0.61063E-05   -0.25581E-06  2626   0.250E-03    0.244E-03
RMM:  11    -0.413213247208E+03    0.69228E-05   -0.13185E-06  2498   0.188E-03    0.146E-03
RMM:  12    -0.413213242515E+03    0.46930E-05   -0.51370E-07  2435   0.128E-03    0.691E-04
RMM:  13    -0.413213237357E+03    0.51575E-05   -0.30886E-07  1852   0.905E-04    0.376E-04
RMM:  14    -0.413213233019E+03    0.43384E-05   -0.20099E-07  1476   0.767E-04    0.243E-04
RMM:  15    -0.413213227859E+03    0.51597E-05   -0.18472E-07  1487   0.738E-04    0.143E-04
RMM:  16    -0.413213225966E+03    0.18926E-05   -0.97505E-08  1171   0.626E-04    0.983E-05
RMM:  17    -0.413213222960E+03    0.30059E-05   -0.91173E-08  1244   0.628E-04    0.519E-05
RMM:  18    -0.413213221892E+03    0.10685E-05   -0.45888E-08   941   0.563E-04    0.404E-05
RMM:  19    -0.413213221154E+03    0.73801E-06   -0.31447E-08   853   0.546E-04
   49 T=    70. E= -.41286713E+03 F= -.41321322E+03 E0= -.41319231E+03  EK= 0.34609E+00 SP= 0.00E+00 SK= 0.00E+00
       N       E                     dE             d eps       ncg     rms          rms(c)
RMM:   1    -0.413246440742E+03   -0.33219E-01   -0.12688E+01  4306   0.211E+00    0.934E-01
RMM:   2    -0.413210498344E+03    0.35942E-01   -0.22247E-01  4514   0.239E-01    0.692E-01
RMM:   3    -0.413237593399E+03   -0.27095E-01   -0.32660E-02  5163   0.166E-01    0.770E-01
RMM:   4    -0.413216104761E+03    0.21489E-01   -0.38335E-02  4939   0.179E-01    0.418E-01
RMM:   5    -0.413209141660E+03    0.69631E-02   -0.58545E-03  4757   0.975E-02    0.728E-02
RMM:   6    -0.413208850417E+03    0.29124E-03   -0.56292E-04  4656   0.333E-02    0.305E-02
RMM:   7    -0.413208847250E+03    0.31666E-05   -0.16422E-04  5798   0.135E-02    0.202E-02
RMM:   8    -0.413208830150E+03    0.17100E-04   -0.40935E-05  4967   0.693E-03    0.108E-02
RMM:   9    -0.413208817964E+03    0.12186E-04   -0.16243E-05  3688   0.476E-03    0.468E-03
RMM:  10    -0.413208812851E+03    0.51131E-05   -0.33521E-06  2718   0.276E-03    0.262E-03
RMM:  11    -0.413208808166E+03    0.46841E-05   -0.15860E-06  2518   0.204E-03    0.165E-03
RMM:  12    -0.413208804751E+03    0.34153E-05   -0.57870E-07  2457   0.137E-03    0.784E-04
RMM:  13    -0.413208801164E+03    0.35875E-05   -0.34533E-07  1942   0.954E-04    0.412E-04
RMM:  14    -0.413208798045E+03    0.31181E-05   -0.24336E-07  1645   0.802E-04    0.293E-04
RMM:  15    -0.413208794704E+03    0.33419E-05   -0.22367E-07  1484   0.750E-04    0.136E-04
RMM:  16    -0.413208793313E+03    0.13902E-05   -0.11601E-07  1182   0.637E-04    0.862E-05
RMM:  17    -0.413208791929E+03    0.13843E-05   -0.95916E-08  1175   0.622E-04    0.497E-05
RMM:  18    -0.413208791324E+03    0.60524E-06   -0.54777E-08   971   0.571E-04
   50 T=    70. E= -.41286734E+03 F= -.41320879E+03 E0= -.41318788E+03  EK= 0.34145E+00 SP= 0.00E+00 SK= 0.00E+00
       N       E                     dE             d eps       ncg     rms          rms(c)
RMM:   1    -0.413241109629E+03   -0.32318E-01   -0.12527E+01  4301   0.224E+00    0.948E-01
RMM:   2    -0.413203632225E+03    0.37477E-01   -0.21642E-01  4567   0.252E-01    0.687E-01
RMM:   3    -0.413241075781E+03   -0.37444E-01   -0.42751E-02  5166   0.189E-01    0.878E-01
RMM:   4    -0.413206512586E+03    0.34563E-01   -0.40147E-02  4914   0.187E-01    0.360E-01
RMM:   5    -0.413202607184E+03    0.39054E-02   -0.73284E-03  5131   0.106E-01    0.966E-02
RMM:   6    -0.413202055355E+03    0.55183E-03   -0.10403E-03  4722   0.432E-02    0.360E-02
RMM:   7    -0.413202049559E+03    0.57959E-05   -0.25641E-04  5751   0.172E-02    0.224E-02
RMM:   8    -0.413202030643E+03    0.18917E-04   -0.41144E-05  4980   0.719E-03    0.118E-02
RMM:   9    -0.413202016482E+03    0.14160E-04   -0.17829E-05  3889   0.502E-03    0.491E-03
RMM:  10    -0.413202009121E+03    0.73616E-05   -0.47008E-06  2897   0.314E-03    0.312E-03
RMM:  11    -0.413202002492E+03    0.66288E-05   -0.20836E-06  2593   0.233E-03    0.184E-03
[...]
RMM:   7    -0.413324818096E+03    0.46056E-03   -0.92081E-04  4615   0.455E-02    0.413E-02
RMM:   8    -0.413324812407E+03    0.56889E-05   -0.40425E-04  5659   0.230E-02    0.258E-02
RMM:   9    -0.413324806186E+03    0.62209E-05   -0.11669E-04  5151   0.131E-02    0.127E-02
RMM:  10    -0.413324806452E+03   -0.26557E-06   -0.32687E-05  5185   0.674E-03    0.673E-03
RMM:  11    -0.413324809940E+03   -0.34880E-05   -0.11033E-05  4018   0.440E-03    0.458E-03
RMM:  12    -0.413324812982E+03   -0.30422E-05   -0.25535E-06  2728   0.266E-03    0.221E-03
RMM:  13    -0.413324815126E+03   -0.21437E-05   -0.15633E-06  2600   0.183E-03    0.112E-03
RMM:  14    -0.413324816696E+03   -0.15708E-05   -0.11305E-06  2464   0.157E-03    0.706E-04
RMM:  15    -0.413324817339E+03   -0.64221E-06   -0.67300E-07  2253   0.115E-03
  141 T=    92. E= -.41287083E+03 F= -.41332482E+03 E0= -.41330468E+03  EK= 0.45399E+00 SP= 0.00E+00 SK= 0.00E+00
       N       E                     dE             d eps       ncg     rms          rms(c)
RMM:   1    -0.413469488474E+03   -0.14467E+00   -0.11378E+01  4297   0.654E+00    0.881E-01
RMM:   2    -0.413437307507E+03    0.32181E-01   -0.24117E-01  5297   0.637E-01    0.774E-01
RMM:   3    -0.413453735504E+03   -0.16428E-01   -0.50239E-02  5525   0.246E-01    0.764E-01
RMM:   4    -0.413442918581E+03    0.10817E-01   -0.31372E-02  5193   0.184E-01    0.541E-01
RMM:   5    -0.413435966515E+03    0.69521E-02   -0.19940E-02  4701   0.187E-01    0.162E-01
RMM:   6    -0.413434889302E+03    0.10772E-02   -0.39160E-03  4936   0.830E-02    0.795E-02
RMM:   7    -0.413434645596E+03    0.24371E-03   -0.10237E-03  5161   0.407E-02    0.428E-02
RMM:   8    -0.413434590318E+03    0.55278E-04   -0.39995E-04  5475   0.243E-02    0.274E-02
RMM:   9    -0.413434571873E+03    0.18445E-04   -0.14689E-04  5128   0.149E-02    0.141E-02
RMM:  10    -0.413434573150E+03   -0.12772E-05   -0.49417E-05  5532   0.852E-03    0.826E-03
RMM:  11    -0.413434578133E+03   -0.49829E-05   -0.10484E-05  3821   0.422E-03    0.560E-03
RMM:  12    -0.413434585320E+03   -0.71874E-05   -0.45315E-06  3004   0.334E-03    0.249E-03
RMM:  13    -0.413434593792E+03   -0.84713E-05   -0.26862E-06  2711   0.254E-03    0.149E-03
RMM:  14    -0.413434602647E+03   -0.88557E-05   -0.18182E-06  2637   0.207E-03    0.957E-04
RMM:  15    -0.413434607482E+03   -0.48348E-05   -0.84224E-07  2419   0.130E-03    0.597E-04
RMM:  16    -0.413434613808E+03   -0.63261E-05   -0.10656E-06  2471   0.137E-03    0.346E-04
RMM:  17    -0.413434619195E+03   -0.53864E-05   -0.10768E-06  2195   0.123E-03    0.236E-04
RMM:  18    -0.413434621440E+03   -0.22456E-05   -0.44470E-07  1718   0.841E-04    0.197E-04
RMM:  19    -0.413434623271E+03   -0.18308E-05   -0.24836E-07  1448   0.717E-04    0.130E-04
RMM:  20    -0.413434625081E+03   -0.18096E-05   -0.19421E-07  1455   0.676E-04    0.830E-05
RMM:  21    -0.413434625988E+03   -0.90685E-06   -0.91263E-08  1108   0.578E-04
  142 T=   113. E= -.41287769E+03 F= -.41343463E+03 E0= -.41341467E+03  EK= 0.55694E+00 SP= 0.00E+00 SK= 0.00E+00
       N       E                     dE             d eps       ncg     rms          rms(c)
RMM:   1    -0.413519669464E+03   -0.85044E-01   -0.14044E+01  4293   0.715E+00    0.131E+00
RMM:   2    -0.413460790631E+03    0.58879E-01   -0.31671E-01  5242   0.738E-01    0.112E+00
RMM:   3    -0.413493836593E+03   -0.33046E-01   -0.83355E-02  5503   0.322E-01    0.982E-01
RMM:   4    -0.413498321241E+03   -0.44846E-02   -0.94308E-02  5108   0.305E-01    0.881E-01
RMM:   5    -0.413460807879E+03    0.37513E-01   -0.44038E-02  4882   0.265E-01    0.206E-01
RMM:   6    -0.413458836370E+03    0.19715E-02   -0.54767E-03  4855   0.104E-01    0.796E-02
RMM:   7    -0.413458667146E+03    0.16922E-03   -0.16550E-03  5277   0.474E-02    0.487E-02
RMM:   8    -0.413458605283E+03    0.61863E-04   -0.72809E-04  5619   0.308E-02    0.315E-02
RMM:   9    -0.413458575003E+03    0.30280E-04   -0.17097E-04  5452   0.161E-02    0.197E-02
RMM:  10    -0.413458568065E+03    0.69375E-05   -0.79079E-05  5591   0.106E-02    0.922E-03
RMM:  11    -0.413458572793E+03   -0.47275E-05   -0.17728E-05  4347   0.499E-03    0.698E-03
RMM:  12    -0.413458580170E+03   -0.73771E-05   -0.61374E-06  3309   0.385E-03    0.271E-03
RMM:  13    -0.413458590919E+03   -0.10750E-04   -0.29569E-06  2770   0.274E-03    0.154E-03
RMM:  14    -0.413458602811E+03   -0.11892E-04   -0.18808E-06  2634   0.216E-03    0.894E-04
RMM:  15    -0.413458612612E+03   -0.98007E-05   -0.13898E-06  2578   0.163E-03    0.621E-04
RMM:  16    -0.413458625800E+03   -0.13188E-04   -0.24409E-06  2719   0.194E-03    0.429E-04
RMM:  17    -0.413458633129E+03   -0.73287E-05   -0.15103E-06  2291   0.135E-03    0.308E-04
RMM:  18    -0.413458637925E+03   -0.47959E-05   -0.77552E-07  2049   0.106E-03    0.196E-04
RMM:  19    -0.413458641074E+03   -0.31491E-05   -0.41544E-07  1693   0.828E-04    0.131E-04
RMM:  20    -0.413458643205E+03   -0.21316E-05   -0.23234E-07  1405   0.695E-04    0.925E-05
RMM:  21    -0.413458645111E+03   -0.19058E-05   -0.15790E-07  1343   0.643E-04    0.565E-05
RMM:  22    -0.413458646223E+03   -0.11115E-05   -0.87509E-08  1150   0.584E-04    0.434E-05
RMM:  23    -0.413458646869E+03   -0.64622E-06   -0.43585E-08   954   0.544E-04
  143 T=   117. E= -.41288205E+03 F= -.41345865E+03 E0= -.41343883E+03  EK= 0.57659E+00 SP= 0.00E+00 SK= 0.00E+00
       N       E                     dE             d eps       ncg     rms          rms(c)
RMM:   1    -0.413431803596E+03    0.26843E-01   -0.13069E+01  4280   0.693E+00    0.123E+00
RMM:   2    -0.413396931944E+03    0.34872E-01   -0.31930E-01  5214   0.686E-01    0.998E-01
RMM:   3    -0.413406912248E+03   -0.99803E-02   -0.62266E-02  5283   0.307E-01    0.601E-01
RMM:   4    -0.413483998081E+03   -0.77086E-01   -0.11616E-01  5233   0.321E-01    0.117E+00
RMM:   5    -0.413397540641E+03    0.86457E-01   -0.57649E-02  4995   0.275E-01    0.167E-01
RMM:   6    -0.413396939662E+03    0.60098E-03   -0.95840E-03  5612   0.115E-01    0.712E-02
RMM:   7    -0.413396903778E+03    0.35884E-04   -0.20312E-03  5646   0.466E-02    0.435E-02
RMM:   8    -0.413396897516E+03    0.62621E-05   -0.59471E-04  5869   0.263E-02    0.313E-02
RMM:   9    -0.413396855616E+03    0.41900E-04   -0.13523E-04  5047   0.145E-02    0.161E-02
RMM:  10    -0.413396855808E+03   -0.19242E-06   -0.59762E-05  5640   0.908E-03    0.938E-03
RMM:  11    -0.413396859413E+03   -0.36043E-05   -0.12675E-05  4122   0.449E-03    0.645E-03
RMM:  12    -0.413396869542E+03   -0.10130E-04   -0.90480E-06  3855   0.450E-03    0.350E-03
RMM:  13    -0.413396879488E+03   -0.99461E-05   -0.30035E-06  2770   0.270E-03    0.207E-03
RMM:  14    -0.413396889091E+03   -0.96022E-05   -0.16078E-06  2609   0.188E-03    0.107E-03
RMM:  15    -0.413396896731E+03   -0.76405E-05   -0.10154E-06  2510   0.140E-03    0.643E-04
RMM:  16    -0.413396908068E+03   -0.11337E-04   -0.18192E-06  2667   0.167E-03    0.536E-04
RMM:  17    -0.413396917939E+03   -0.98715E-05   -0.20112E-06  2541   0.153E-03    0.303E-04
RMM:  18    -0.413396922772E+03   -0.48329E-05   -0.88030E-07  1895   0.101E-03    0.190E-04
RMM:  19    -0.413396926522E+03   -0.37498E-05   -0.50500E-07  1791   0.875E-04    0.134E-04
RMM:  20    -0.413396928981E+03   -0.24587E-05   -0.27315E-07  1459   0.717E-04    0.863E-05
RMM:  21    -0.413396930543E+03   -0.15620E-05   -0.14221E-07  1185   0.619E-04    0.512E-05
RMM:  22    -0.413396931697E+03   -0.11541E-05   -0.85729E-08  1101   0.586E-04    0.396E-05
RMM:  23    -0.413396932373E+03   -0.67650E-06   -0.50806E-08  1013   0.557E-04
  144 T=   110. E= -.41285682E+03 F= -.41339693E+03 E0= -.41337710E+03  EK= 0.54012E+00 SP= 0.00E+00 SK= 0.00E+00
       N       E                     dE             d eps       ncg     rms          rms(c)
RMM:   1    -0.413620968513E+03   -0.22404E+00   -0.13419E+01  4264   0.703E+00    0.103E+00
RMM:   2    -0.413617689322E+03    0.32792E-02   -0.39791E-01  5418   0.765E-01    0.102E+00
RMM:   3    -0.413613896456E+03    0.37929E-02   -0.10216E-01  5412   0.350E-01    0.965E-01
RMM:   4    -0.413585467421E+03    0.28429E-01   -0.63876E-02  5248   0.301E-01    0.498E-01
RMM:   5    -0.413582802744E+03    0.26647E-02   -0.19466E-02  4872   0.188E-01    0.212E-01
RMM:   6    -0.413582002085E+03    0.80066E-03   -0.12385E-02  5076   0.134E-01    0.120E-01
RMM:   7    -0.413581168495E+03    0.83359E-03   -0.24598E-03  5187   0.653E-02    0.510E-02
RMM:   8    -0.413581130640E+03    0.37855E-04   -0.48907E-04  5522   0.271E-02    0.321E-02
RMM:   9    -0.413581112703E+03    0.17938E-04   -0.19961E-04  5343   0.180E-02    0.186E-02
RMM:  10    -0.413581107008E+03    0.56949E-05   -0.41174E-05  4960   0.841E-03    0.797E-03
RMM:  11    -0.413581111564E+03   -0.45562E-05   -0.22066E-05  4900   0.534E-03    0.523E-03
RMM:  12    -0.413581118422E+03   -0.68584E-05   -0.35604E-06  2829   0.308E-03    0.337E-03
RMM:  13    -0.413581124853E+03   -0.64302E-05   -0.26036E-06  2722   0.245E-03    0.150E-03
RMM:  14    -0.413581132916E+03   -0.80635E-05   -0.14569E-06  2592   0.185E-03    0.829E-04
RMM:  15    -0.413581139518E+03   -0.66018E-05   -0.12308E-06  2487   0.149E-03    0.606E-04
RMM:  16    -0.413581147932E+03   -0.84141E-05   -0.15404E-06  2571   0.154E-03    0.453E-04
RMM:  17    -0.413581153871E+03   -0.59390E-05   -0.11233E-06  2189   0.121E-03    0.354E-04
RMM:  18    -0.413581158019E+03   -0.41483E-05   -0.72273E-07  1986   0.995E-04    0.231E-04
RMM:  19    -0.413581161226E+03   -0.32063E-05   -0.47160E-07  1828   0.861E-04    0.121E-04
RMM:  20    -0.413581162727E+03   -0.15016E-05   -0.20240E-07  1266   0.658E-04    0.965E-05
RMM:  21    -0.413581164112E+03   -0.13850E-05   -0.12532E-07  1152   0.609E-04    0.654E-05
RMM:  22    -0.413581164809E+03   -0.69647E-06   -0.71146E-08  1022   0.564E-04
  145 T=   147. E= -.41286112E+03 F= -.41358116E+03 E0= -.41356100E+03  EK= 0.72004E+00 SP= 0.00E+00 SK= 0.00E+00
       N       E                     dE             d eps       ncg     rms          rms(c)
RMM:   1    -0.414127337632E+03   -0.54617E+00   -0.22939E+01  4292   0.886E+00    0.196E+00
RMM:   2    -0.414094008424E+03    0.33329E-01   -0.92461E-01  5442   0.121E+00    0.209E+00
RMM:   3    -0.414049812480E+03    0.44196E-01   -0.29015E-01  5386   0.599E-01    0.181E+00
RMM:   4    -0.413968006331E+03    0.81806E-01   -0.18387E-01  5259   0.503E-01    0.886E-01
RMM:   5    -0.413963779066E+03    0.42273E-02   -0.78541E-02  5026   0.364E-01    0.415E-01
RMM:   6    -0.413956625788E+03    0.71533E-02   -0.37876E-02  4964   0.239E-01    0.186E-01
RMM:   7    -0.413955174753E+03    0.14510E-02   -0.46926E-03  5075   0.998E-02    0.888E-02
RMM:   8    -0.413955036098E+03    0.13865E-03   -0.78032E-04  4750   0.386E-02    0.533E-02
RMM:   9    -0.413955022796E+03    0.13302E-04   -0.51113E-04  5275   0.285E-02    0.307E-02
RMM:  10    -0.413955004038E+03    0.18758E-04   -0.13522E-04  5377   0.147E-02    0.135E-02
RMM:  11    -0.413955006297E+03   -0.22593E-05   -0.64327E-05  5908   0.888E-03    0.846E-03
RMM:  12    -0.413955011309E+03   -0.50121E-05   -0.13301E-05  4342   0.501E-03    0.489E-03
RMM:  13    -0.413955016566E+03   -0.52567E-05   -0.55693E-06  3224   0.337E-03    0.276E-03
RMM:  14    -0.413955023008E+03   -0.64420E-05   -0.18456E-06  2607   0.233E-03    0.107E-03
RMM:  15    -0.413955026405E+03   -0.33966E-05   -0.82914E-07  2455   0.143E-03    0.632E-04
RMM:  16    -0.413955031953E+03   -0.55481E-05   -0.10294E-06  2506   0.144E-03    0.439E-04
RMM:  17    -0.413955035650E+03   -0.36970E-05   -0.72748E-07  2114   0.108E-03    0.350E-04
RMM:  18    -0.413955039214E+03   -0.35646E-05   -0.71081E-07  2146   0.107E-03    0.219E-04
RMM:  19    -0.413955041456E+03   -0.22422E-05   -0.45052E-07  1722   0.840E-04    0.140E-04
RMM:  20    -0.413955043173E+03   -0.17164E-05   -0.28799E-07  1485   0.729E-04    0.822E-05
RMM:  21    -0.413955044203E+03   -0.10301E-05   -0.15087E-07  1221   0.620E-04    0.583E-05
RMM:  22    -0.413955045095E+03   -0.89217E-06   -0.99597E-08  1121   0.578E-04
  146 T=   216. E= -.41289182E+03 F= -.41395505E+03 E0= -.41393459E+03  EK= 0.10632E+01 SP= 0.00E+00 SK= 0.00E+00
       N       E                     dE             d eps       ncg     rms          rms(c)
RMM:   1    -0.414406645850E+03   -0.45160E+00   -0.31620E+01  4292   0.101E+01    0.207E+00
RMM:   2    -0.414193530504E+03    0.21312E+00   -0.12007E+00  5451   0.138E+00    0.211E+00
RMM:   3    -0.414216875932E+03   -0.23345E-01   -0.31714E-01  5559   0.624E-01    0.204E+00
RMM:   4    -0.414113781767E+03    0.10309E+00   -0.15928E-01  5290   0.471E-01    0.109E+00
RMM:   5    -0.414109338930E+03    0.44428E-02   -0.10176E-01  4734   0.427E-01    0.437E-01
RMM:   6    -0.414102071105E+03    0.72678E-02   -0.50196E-02  4927   0.273E-01    0.223E-01
RMM:   7    -0.414099092578E+03    0.29785E-02   -0.62191E-03  4742   0.117E-01    0.104E-01
RMM:   8    -0.414098919301E+03    0.17328E-03   -0.12080E-03  5010   0.466E-02    0.657E-02
RMM:   9    -0.414098854076E+03    0.65224E-04   -0.64220E-04  4574   0.336E-02    0.222E-02
RMM:  10    -0.414098864280E+03   -0.10204E-04   -0.20760E-04  5897   0.163E-02    0.152E-02
RMM:  11    -0.414098864686E+03   -0.40615E-06   -0.43819E-05  5366   0.782E-03    0.874E-03
RMM:  12    -0.414098870228E+03   -0.55416E-05   -0.16529E-05  4440   0.558E-03    0.493E-03
RMM:  13    -0.414098876780E+03   -0.65520E-05   -0.56134E-06  3165   0.335E-03    0.291E-03
RMM:  14    -0.414098881535E+03   -0.47554E-05   -0.18498E-06  2635   0.214E-03    0.135E-03
RMM:  15    -0.414098884939E+03   -0.34042E-05   -0.97517E-07  2507   0.151E-03    0.774E-04
RMM:  16    -0.414098888531E+03   -0.35915E-05   -0.79302E-07  2332   0.124E-03    0.412E-04
RMM:  17    -0.414098891342E+03   -0.28116E-05   -0.56722E-07  1906   0.100E-03    0.261E-04
RMM:  18    -0.414098894194E+03   -0.28519E-05   -0.61439E-07  2070   0.995E-04    0.177E-04
RMM:  19    -0.414098895884E+03   -0.16894E-05   -0.37421E-07  1598   0.804E-04    0.123E-04
RMM:  20    -0.414098897187E+03   -0.13030E-05   -0.25115E-07  1389   0.715E-04    0.937E-05
RMM:  21    -0.414098898155E+03   -0.96876E-06   -0.15985E-07  1255   0.649E-04
  147 T=   244. E= -.41289907E+03 F= -.41409890E+03 E0= -.41407845E+03  EK= 0.11998E+01 SP= 0.00E+00 SK= 0.00E+00
       N       E                     dE             d eps       ncg     rms          rms(c)
RMM:   1    -0.414154021081E+03   -0.55124E-01   -0.31575E+01  4281   0.101E+01    0.220E+00
RMM:   2    -0.413891300014E+03    0.26272E+00   -0.11781E+00  5453   0.133E+00    0.201E+00
RMM:   3    -0.413954320484E+03   -0.63020E-01   -0.24846E-01  5615   0.568E-01    0.178E+00
RMM:   4    -0.413946145985E+03    0.81745E-02   -0.20105E-01  5288   0.458E-01    0.149E+00
RMM:   5    -0.413875476404E+03    0.70670E-01   -0.12832E-01  4508   0.484E-01    0.403E-01
RMM:   6    -0.413869327562E+03    0.61488E-02   -0.19156E-02  4888   0.197E-01    0.155E-01
RMM:   7    -0.413868952352E+03    0.37521E-03   -0.39256E-03  5586   0.767E-02    0.948E-02
RMM:   8    -0.413868870391E+03    0.81962E-04   -0.17538E-03  5294   0.483E-02    0.702E-02
RMM:   9    -0.413868748404E+03    0.12199E-03   -0.79051E-04  4667   0.372E-02    0.291E-02
RMM:  10    -0.413868758227E+03   -0.98221E-05   -0.25866E-04  5887   0.197E-02    0.205E-02
RMM:  11    -0.413868754331E+03    0.38957E-05   -0.62202E-05  5574   0.937E-03    0.118E-02
RMM:  12    -0.413868755869E+03   -0.15379E-05   -0.21435E-05  4852   0.591E-03    0.618E-03
RMM:  13    -0.413868762147E+03   -0.62786E-05   -0.96901E-06  4056   0.458E-03    0.394E-03
RMM:  14    -0.413868765358E+03   -0.32108E-05   -0.19184E-06  2618   0.233E-03    0.191E-03
RMM:  15    -0.413868767953E+03   -0.25947E-05   -0.91291E-07  2523   0.152E-03    0.858E-04
RMM:  16    -0.413868770434E+03   -0.24812E-05   -0.61786E-07  2246   0.116E-03    0.486E-04
RMM:  17    -0.413868772500E+03   -0.20656E-05   -0.46464E-07  1753   0.927E-04    0.305E-04
RMM:  18    -0.413868774390E+03   -0.18900E-05   -0.41004E-07  1797   0.882E-04    0.163E-04
RMM:  19    -0.413868775761E+03   -0.13717E-05   -0.30500E-07  1584   0.767E-04    0.124E-04
RMM:  20    -0.413868776853E+03   -0.10915E-05   -0.23570E-07  1382   0.687E-04    0.983E-05
RMM:  21    -0.413868777485E+03   -0.63196E-06   -0.13504E-07  1107   0.602E-04
  148 T=   197. E= -.41290112E+03 F= -.41386878E+03 E0= -.41384818E+03  EK= 0.96766E+00 SP= 0.00E+00 SK= 0.00E+00
       N       E                     dE             d eps       ncg     rms          rms(c)
RMM:   1    -0.413468820682E+03    0.39996E+00   -0.20316E+01  4269   0.823E+00    0.199E+00
RMM:   2    -0.413378990251E+03    0.89830E-01   -0.75931E-01  5438   0.104E+00    0.181E+00
RMM:   3    -0.413476365478E+03   -0.97375E-01   -0.23853E-01  5685   0.502E-01    0.189E+00
RMM:   4    -0.413379838576E+03    0.96527E-01   -0.14149E-01  5113   0.419E-01    0.100E+00
RMM:   5    -0.413365484116E+03    0.14354E-01   -0.78843E-02  4424   0.389E-01    0.372E-01
RMM:   6    -0.413361319067E+03    0.41650E-02   -0.71316E-03  4583   0.135E-01    0.144E-01
RMM:   7    -0.413360944740E+03    0.37433E-03   -0.22173E-03  5058   0.622E-02    0.866E-02
RMM:   8    -0.413360881365E+03    0.63376E-04   -0.16380E-03  5154   0.490E-02    0.495E-02
RMM:   9    -0.413360807159E+03    0.74206E-04   -0.45164E-04  5191   0.279E-02    0.261E-02
RMM:  10    -0.413360806999E+03    0.15933E-06   -0.11993E-04  5748   0.130E-02    0.152E-02
RMM:  11    -0.413360808131E+03   -0.11317E-05   -0.38683E-05  5276   0.722E-03    0.870E-03
RMM:  12    -0.413360812222E+03   -0.40913E-05   -0.85363E-06  3572   0.420E-03    0.412E-03
RMM:  13    -0.413360815845E+03   -0.36232E-05   -0.30087E-06  2772   0.270E-03    0.254E-03
RMM:  14    -0.413360818312E+03   -0.24663E-05   -0.12541E-06  2546   0.186E-03    0.940E-04
RMM:  15    -0.413360819799E+03   -0.14873E-05   -0.69268E-07  2369   0.129E-03    0.471E-04
RMM:  16    -0.413360821374E+03   -0.15746E-05   -0.50556E-07  2017   0.104E-03    0.293E-04
RMM:  17    -0.413360822654E+03   -0.12806E-05   -0.36439E-07  1695   0.886E-04    0.158E-04
RMM:  18    -0.413360823502E+03   -0.84814E-06   -0.26027E-07  1508   0.780E-04
  149 T=   103. E= -.41285317E+03 F= -.41336082E+03 E0= -.41334013E+03  EK= 0.50766E+00 SP= 0.00E+00 SK= 0.00E+00
       N       E                     dE             d eps       ncg     rms          rms(c)
RMM:   1    -0.413302648356E+03    0.58174E-01   -0.86968E+00  4284   0.554E+00    0.708E-01
RMM:   2    -0.413268866469E+03    0.33782E-01   -0.18899E-01  5459   0.515E-01    0.582E-01
RMM:   3    -0.413275420801E+03   -0.65543E-02   -0.36492E-02  5671   0.207E-01    0.494E-01
RMM:   4    -0.413279675690E+03   -0.42549E-02   -0.27103E-02  5222   0.163E-01    0.519E-01
RMM:   5    -0.413267827137E+03    0.11849E-01   -0.17898E-02  4750   0.170E-01    0.136E-01
RMM:   6    -0.413267085292E+03    0.74185E-03   -0.22722E-03  4942   0.673E-02    0.687E-02
RMM:   7    -0.413267066027E+03    0.19266E-04   -0.76931E-04  5593   0.311E-02    0.531E-02
RMM:   8    -0.413267044347E+03    0.21680E-04   -0.39206E-04  4969   0.244E-02    0.302E-02
RMM:   9    -0.413267047538E+03   -0.31909E-05   -0.11826E-04  5031   0.142E-02    0.161E-02
RMM:  10    -0.413267047733E+03   -0.19557E-06   -0.45871E-05  5437   0.753E-03    0.859E-03
RMM:  11    -0.413267050281E+03   -0.25482E-05   -0.11708E-05  3942   0.436E-03    0.411E-03
RMM:  12    -0.413267053668E+03   -0.33864E-05   -0.28263E-06  2737   0.278E-03    0.217E-03
RMM:  13    -0.413267056451E+03   -0.27830E-05   -0.12939E-06  2542   0.182E-03    0.124E-03
RMM:  14    -0.413267058207E+03   -0.17563E-05   -0.87784E-07  2428   0.142E-03    0.568E-04
RMM:  15    -0.413267059028E+03   -0.82124E-06   -0.47119E-07  2069   0.103E-03
  150 T=    85. E= -.41285030E+03 F= -.41326706E+03 E0= -.41324676E+03  EK= 0.41676E+00 SP= 0.00E+00 SK= 0.00E+00
