       N       E                     dE             d eps       ncg     rms          rms(c)
RMM:   1     0.220140874617E+04    0.22014E+04   -0.52442E+04  2132   0.654E+02
RMM:   2     0.705681096649E+03   -0.14957E+04   -0.16262E+04  2132   0.177E+02
RMM:   3     0.137820820014E+03   -0.56786E+03   -0.65736E+03  2132   0.117E+02
RMM:   4    -0.159242841091E+03   -0.29706E+03   -0.27869E+03  2132   0.936E+01
RMM:   5    -0.287497746497E+03   -0.12825E+03   -0.11460E+03  2132   0.595E+01
RMM:   6    -0.349887475682E+03   -0.62390E+02   -0.55185E+02  2132   0.423E+01
RMM:   7    -0.382782409282E+03   -0.32895E+02   -0.30436E+02  2132   0.293E+01
RMM:   8    -0.404197255683E+03   -0.21415E+02   -0.18398E+02  2132   0.233E+01
RMM:   9    -0.436015990400E+03   -0.31819E+02   -0.30788E+02  6104   0.173E+01
RMM:  10    -0.441264734773E+03   -0.52487E+01   -0.62788E+01  6394   0.539E+00
RMM:  11    -0.442508140201E+03   -0.12434E+01   -0.11257E+01  6226   0.174E+00
RMM:  12    -0.442886847188E+03   -0.37871E+00   -0.27853E+00  6365   0.605E-01    0.134E+02
RMM:  13    -0.425563018454E+03    0.17324E+02   -0.80717E+01  4672   0.119E+01    0.712E+01
RMM:  14    -0.499818836278E+03   -0.74256E+02   -0.53822E+02  5417   0.232E+01    0.309E+01
RMM:  15    -0.420121179753E+03    0.79698E+02   -0.21123E+02  5153   0.165E+01    0.972E+00
RMM:  16    -0.414020732716E+03    0.61004E+01   -0.41052E+01  6088   0.632E+00    0.438E+00
RMM:  17    -0.413208447952E+03    0.81228E+00   -0.30052E+00  5478   0.201E+00    0.246E+00
RMM:  18    -0.413178261211E+03    0.30187E-01   -0.73583E-01  6004   0.868E-01    0.176E+00
RMM:  19    -0.413188143645E+03   -0.98824E-02   -0.21987E-01  5617   0.528E-01    0.107E+00
RMM:  20    -0.413205219789E+03   -0.17076E-01   -0.47233E-01  5572   0.689E-01    0.798E-01
RMM:  21    -0.413173579535E+03    0.31640E-01   -0.45316E-02  4981   0.282E-01    0.414E-01
RMM:  22    -0.413165573599E+03    0.80059E-02   -0.43799E-02  5670   0.211E-01    0.162E-01
RMM:  23    -0.413164890180E+03    0.68342E-03   -0.65212E-03  5808   0.763E-02    0.910E-02
RMM:  24    -0.413163760077E+03    0.11301E-02   -0.20560E-03  5391   0.436E-02    0.563E-02
RMM:  25    -0.413162832075E+03    0.92800E-03   -0.10495E-03  5061   0.322E-02    0.336E-02
RMM:  26    -0.413162935294E+03   -0.10322E-03   -0.10591E-03  5907   0.313E-02    0.322E-02
RMM:  27    -0.413163402291E+03   -0.46700E-03   -0.21657E-04  4553   0.201E-02    0.197E-02
RMM:  28    -0.413163775826E+03   -0.37354E-03   -0.15265E-04  5115   0.155E-02    0.882E-03
RMM:  29    -0.413164202016E+03   -0.42619E-03   -0.10773E-04  4554   0.159E-02    0.467E-03
RMM:  30    -0.413164519309E+03   -0.31729E-03   -0.10752E-04  4241   0.133E-02    0.425E-03
RMM:  31    -0.413164643271E+03   -0.12396E-03   -0.59740E-05  3334   0.706E-03    0.356E-03
RMM:  32    -0.413164669474E+03   -0.26203E-04   -0.21635E-05  2968   0.317E-03    0.254E-03
RMM:  33    -0.413164681850E+03   -0.12376E-04   -0.95330E-06  2845   0.247E-03    0.963E-04
RMM:  34    -0.413164681563E+03    0.28738E-06   -0.53935E-06  2603   0.152E-03
    1 T=    61. E= -.41286689E+03 F= -.41316468E+03 E0= -.41314218E+03  EK= 0.29779E+00 SP= 0.00E+00 SK= 0.00E+00
       N       E                     dE             d eps       ncg     rms          rms(c)
RMM:   1    -0.413163568422E+03    0.11134E-02   -0.89117E+00  4011   0.611E-01    0.886E-01
RMM:   2    -0.413168604307E+03   -0.50359E-02   -0.10948E-01  3931   0.875E-02    0.652E-01
RMM:   3    -0.413164628869E+03    0.39754E-02   -0.17382E-02  4789   0.474E-02    0.864E-02
RMM:   4    -0.413182354038E+03   -0.17725E-01   -0.18819E-02  5203   0.114E-01    0.558E-01
RMM:   5    -0.413164250348E+03    0.18104E-01   -0.88637E-03  4852   0.934E-02    0.459E-02
RMM:   6    -0.413164381265E+03   -0.13092E-03   -0.17190E-03  5748   0.402E-02    0.332E-02
RMM:   7    -0.413164375063E+03    0.62017E-05   -0.36030E-04  5641   0.174E-02    0.188E-02
RMM:   8    -0.413164373661E+03    0.14022E-05   -0.34877E-05  4716   0.656E-03    0.774E-03
RMM:   9    -0.413164377090E+03   -0.34284E-05   -0.70062E-06  3130   0.283E-03    0.571E-03
RMM:  10    -0.413164382436E+03   -0.53466E-05   -0.18515E-06  2558   0.205E-03    0.325E-03
RMM:  11    -0.413164387588E+03   -0.51514E-05   -0.13184E-06  2523   0.168E-03    0.155E-03
RMM:  12    -0.413164393253E+03   -0.56650E-05   -0.10963E-06  2486   0.150E-03    0.587E-04
RMM:  13    -0.413164395079E+03   -0.18266E-05   -0.52583E-07  2161   0.106E-03    0.408E-04
RMM:  14    -0.413164395676E+03   -0.59700E-06   -0.31122E-07  1691   0.784E-04
    2 T=    61. E= -.41286669E+03 F= -.41316440E+03 E0= -.41314190E+03  EK= 0.29771E+00 SP= 0.00E+00 SK= 0.00E+00
       N       E                     dE             d eps       ncg     rms          rms(c)
RMM:   1    -0.413164515803E+03   -0.12072E-03   -0.89051E+00  4184   0.617E-01    0.905E-01
RMM:   2    -0.413168744228E+03   -0.42284E-02   -0.10840E-01  3941   0.867E-02    0.648E-01
RMM:   3    -0.413165490134E+03    0.32541E-02   -0.16610E-02  4921   0.482E-02    0.116E-01
RMM:   4    -0.413194822573E+03   -0.29332E-01   -0.31254E-02  5160   0.148E-01    0.716E-01
RMM:   5    -0.413164786365E+03    0.30036E-01   -0.14260E-02  4822   0.119E-01    0.508E-02
RMM:   6    -0.413164985528E+03   -0.19916E-03   -0.25831E-03  5752   0.499E-02    0.356E-02
RMM:   7    -0.413164974023E+03    0.11505E-04   -0.46632E-04  5680   0.200E-02    0.220E-02
RMM:   8    -0.413164963931E+03    0.10091E-04   -0.61590E-05  5200   0.872E-03    0.998E-03
RMM:   9    -0.413164962048E+03    0.18829E-05   -0.12283E-05  3814   0.386E-03    0.733E-03
RMM:  10    -0.413164962245E+03   -0.19648E-06   -0.21482E-06  2592   0.230E-03
    3 T=    61. E= -.41286702E+03 F= -.41316496E+03 E0= -.41314247E+03  EK= 0.29794E+00 SP= 0.00E+00 SK= 0.00E+00
       N       E                     dE             d eps       ncg     rms          rms(c)
RMM:   1    -0.413163930223E+03    0.10318E-02   -0.88386E+00  4222   0.619E-01    0.890E-01
RMM:   2    -0.413168350308E+03   -0.44201E-02   -0.10803E-01  4239   0.870E-02    0.642E-01
RMM:   3    -0.413170953030E+03   -0.26027E-02   -0.20756E-02  5169   0.849E-02    0.340E-01
RMM:   4    -0.413187350389E+03   -0.16397E-01   -0.38110E-02  5101   0.168E-01    0.621E-01
RMM:   5    -0.413164701586E+03    0.22649E-01   -0.83778E-03  4689   0.102E-01    0.598E-02
RMM:   6    -0.413164704531E+03   -0.29453E-05   -0.16828E-03  5417   0.416E-02    0.317E-02
RMM:   7    -0.413164719299E+03   -0.14768E-04   -0.34127E-04  5972   0.170E-02    0.191E-02
RMM:   8    -0.413164714463E+03    0.48361E-05   -0.61569E-05  5156   0.910E-03    0.785E-03
RMM:   9    -0.413164712841E+03    0.16225E-05   -0.78410E-06  3401   0.362E-03    0.398E-03
RMM:  10    -0.413164713999E+03   -0.11586E-05   -0.16069E-06  2538   0.212E-03    0.254E-03
RMM:  11    -0.413164715717E+03   -0.17179E-05   -0.13386E-06  2537   0.180E-03    0.147E-03
RMM:  12    -0.413164716618E+03   -0.90064E-06   -0.77293E-07  2486   0.140E-03
    4 T=    61. E= -.41286677E+03 F= -.41316472E+03 E0= -.41314223E+03  EK= 0.29795E+00 SP= 0.00E+00 SK= 0.00E+00
       N       E                     dE             d eps       ncg     rms          rms(c)
RMM:   1    -0.413163941939E+03    0.77378E-03   -0.89000E+00  4235   0.623E-01    0.884E-01
RMM:   2    -0.413168940843E+03   -0.49989E-02   -0.10958E-01  4106   0.884E-02    0.650E-01
RMM:   3    -0.413165513874E+03    0.34270E-02   -0.17632E-02  4911   0.523E-02    0.120E-01
RMM:   4    -0.413196067547E+03   -0.30554E-01   -0.32833E-02  5143   0.151E-01    0.731E-01
RMM:   5    -0.413164661021E+03    0.31407E-01   -0.14732E-02  4809   0.122E-01    0.502E-02
RMM:   6    -0.413164873367E+03   -0.21235E-03   -0.27011E-03  5750   0.504E-02    0.338E-02
RMM:   7    -0.413164876624E+03   -0.32570E-05   -0.45640E-04  5737   0.197E-02    0.217E-02
RMM:   8    -0.413164873032E+03    0.35923E-05   -0.64862E-05  5119   0.883E-03    0.101E-02
RMM:   9    -0.413164873831E+03   -0.79941E-06   -0.12760E-05  3857   0.401E-03    0.740E-03
RMM:  10    -0.413164878073E+03   -0.42424E-05   -0.20656E-06  2585   0.228E-03    0.453E-03
RMM:  11    -0.413164881730E+03   -0.36566E-05   -0.12194E-06  2523   0.177E-03    0.252E-03
RMM:  12    -0.413164887637E+03   -0.59070E-05   -0.19852E-06  2604   0.203E-03    0.109E-03
RMM:  13    -0.413164889697E+03   -0.20597E-05   -0.63659E-07  2413   0.134E-03    0.808E-04
RMM:  14    -0.413164889444E+03    0.25249E-06   -0.24983E-07  1923   0.865E-04
    5 T=    61. E= -.41286680E+03 F= -.41316489E+03 E0= -.41314241E+03  EK= 0.29809E+00 SP= 0.00E+00 SK= 0.00E+00
       N       E                     dE             d eps       ncg     rms          rms(c)
RMM:   1    -0.413164841489E+03    0.48208E-04   -0.89085E+00  4248   0.630E-01    0.902E-01
RMM:   2    -0.413169006099E+03   -0.41646E-02   -0.10883E-01  4107   0.884E-02    0.649E-01
RMM:   3    -0.413165709157E+03    0.32969E-02   -0.16707E-02  4815   0.478E-02    0.995E-02
RMM:   4    -0.413188863914E+03   -0.23155E-01   -0.24041E-02  5145   0.129E-01    0.638E-01
RMM:   5    -0.413165209319E+03    0.23655E-01   -0.11341E-02  4819   0.106E-01    0.474E-02
RMM:   6    -0.413165378355E+03   -0.16904E-03   -0.21292E-03  5759   0.442E-02    0.329E-02
RMM:   7    -0.413165371408E+03    0.69479E-05   -0.38895E-04  5604   0.190E-02    0.208E-02
RMM:   8    -0.413165361444E+03    0.99640E-05   -0.53814E-05  4962   0.834E-03    0.986E-03
RMM:   9    -0.413165359960E+03    0.14840E-05   -0.10806E-05  3649   0.369E-03    0.746E-03
RMM:  10    -0.413165360314E+03   -0.35403E-06   -0.19373E-06  2557   0.229E-03
    6 T=    61. E= -.41286699E+03 F= -.41316536E+03 E0= -.41314290E+03  EK= 0.29837E+00 SP= 0.00E+00 SK= 0.00E+00
       N       E                     dE             d eps       ncg     rms          rms(c)
RMM:   1    -0.413164674680E+03    0.68528E-03   -0.88574E+00  4256   0.637E-01    0.897E-01
RMM:   2    -0.413168694703E+03   -0.40200E-02   -0.10820E-01  4258   0.876E-02    0.643E-01
RMM:   3    -0.413170442511E+03   -0.17478E-02   -0.20069E-02  5126   0.807E-02    0.316E-01
RMM:   4    -0.413189933680E+03   -0.19491E-01   -0.39009E-02  5098   0.169E-01    0.650E-01
RMM:   5    -0.413165084197E+03    0.24849E-01   -0.95165E-03  4701   0.106E-01    0.599E-02
RMM:   6    -0.413165116021E+03   -0.31823E-04   -0.19030E-03  5470   0.437E-02    0.322E-02
RMM:   7    -0.413165129023E+03   -0.13003E-04   -0.36198E-04  5975   0.170E-02    0.194E-02
RMM:   8    -0.413165121793E+03    0.72306E-05   -0.61871E-05  5136   0.903E-03    0.800E-03
RMM:   9    -0.413165118332E+03    0.34610E-05   -0.76846E-06  3347   0.353E-03    0.413E-03
RMM:  10    -0.413165118146E+03    0.18581E-06   -0.18205E-06  2561   0.216E-03
    7 T=    61. E= -.41286668E+03 F= -.41316512E+03 E0= -.41314267E+03  EK= 0.29843E+00 SP= 0.00E+00 SK= 0.00E+00
       N       E                     dE             d eps       ncg     rms          rms(c)
RMM:   1    -0.413164834921E+03    0.28341E-03   -0.88784E+00  4270   0.637E-01    0.883E-01
RMM:   2    -0.413169814780E+03   -0.49799E-02   -0.10905E-01  4109   0.878E-02    0.648E-01
RMM:   3    -0.413166514555E+03    0.33002E-02   -0.17573E-02  4954   0.530E-02    0.131E-01
RMM:   4    -0.413199822393E+03   -0.33308E-01   -0.36479E-02  5134   0.159E-01    0.763E-01
RMM:   5    -0.413165506865E+03    0.34316E-01   -0.16153E-02  4806   0.127E-01    0.519E-02
RMM:   6    -0.413165715553E+03   -0.20869E-03   -0.28132E-03  5737   0.524E-02    0.344E-02
RMM:   7    -0.413165715677E+03   -0.12493E-06   -0.47561E-04  5755   0.199E-02    0.218E-02
RMM:   8    -0.413165711054E+03    0.46230E-05   -0.66764E-05  5182   0.893E-03    0.992E-03
RMM:   9    -0.413165710748E+03    0.30611E-06   -0.12988E-05  3868   0.402E-03    0.706E-03
RMM:  10    -0.413165713604E+03   -0.28554E-05   -0.20957E-06  2582   0.226E-03    0.433E-03
RMM:  11    -0.413165716069E+03   -0.24654E-05   -0.11614E-06  2522   0.171E-03    0.242E-03
RMM:  12    -0.413165719899E+03   -0.38294E-05   -0.18913E-06  2595   0.197E-03    0.106E-03
RMM:  13    -0.413165721246E+03   -0.13479E-05   -0.68534E-07  2422   0.134E-03    0.851E-04
RMM:  14    -0.413165720973E+03    0.27347E-06   -0.25115E-07  1916   0.868E-04
    8 T=    61. E= -.41286698E+03 F= -.41316572E+03 E0= -.41314329E+03  EK= 0.29875E+00 SP= 0.00E+00 SK= 0.00E+00
       N       E                     dE             d eps       ncg     rms          rms(c)
RMM:   1    -0.413165427437E+03    0.29381E-03   -0.89128E+00  4280   0.646E-01    0.898E-01
RMM:   2    -0.413169926208E+03   -0.44988E-02   -0.10902E-01  4168   0.889E-02    0.651E-01
RMM:   3    -0.413166299069E+03    0.36271E-02   -0.17076E-02  4844   0.488E-02    0.104E-01
RMM:   4    -0.413191785084E+03   -0.25486E-01   -0.26693E-02  5137   0.136E-01    0.669E-01
RMM:   5    -0.413165708841E+03    0.26076E-01   -0.12493E-02  4807   0.111E-01    0.480E-02
RMM:   6    -0.413165891240E+03   -0.18240E-03   -0.23032E-03  5762   0.460E-02    0.328E-02
RMM:   7    -0.413165886511E+03    0.47294E-05   -0.39758E-04  5629   0.191E-02    0.209E-02
RMM:   8    -0.413165876971E+03    0.95396E-05   -0.59194E-05  4995   0.859E-03    0.101E-02
RMM:   9    -0.413165875160E+03    0.18110E-05   -0.11843E-05  3792   0.387E-03    0.760E-03
RMM:  10    -0.413165875753E+03   -0.59257E-06   -0.19489E-06  2563   0.229E-03
    9 T=    61. E= -.41286690E+03 F= -.41316588E+03 E0= -.41314347E+03  EK= 0.29897E+00 SP= 0.00E+00 SK= 0.00E+00
       N       E                     dE             d eps       ncg     rms          rms(c)
RMM:   1    -0.413165548968E+03    0.32619E-03   -0.88807E+00  4294   0.646E-01    0.903E-01
RMM:   2    -0.413169787069E+03   -0.42381E-02   -0.10818E-01  4302   0.889E-02    0.645E-01
RMM:   3    -0.413172024379E+03   -0.22373E-02   -0.20764E-02  5136   0.843E-02    0.336E-01
RMM:   4    -0.413188703854E+03   -0.16679E-01   -0.37991E-02  5084   0.167E-01    0.623E-01
RMM:   5    -0.413165935813E+03    0.22768E-01   -0.85008E-03  4681   0.101E-01    0.592E-02
RMM:   6    -0.413165950764E+03   -0.14951E-04   -0.17374E-03  5437   0.416E-02    0.324E-02
RMM:   7    -0.413165962547E+03   -0.11783E-04   -0.33709E-04  5930   0.170E-02    0.191E-02
RMM:   8    -0.413165954588E+03    0.79591E-05   -0.59434E-05  5112   0.895E-03    0.779E-03
RMM:   9    -0.413165950222E+03    0.43664E-05   -0.74370E-06  3298   0.350E-03    0.405E-03
RMM:  10    -0.413165949066E+03    0.11553E-05   -0.16644E-06  2538   0.213E-03    0.256E-03
RMM:  11    -0.413165947143E+03    0.19239E-05   -0.12530E-06  2519   0.176E-03    0.142E-03
RMM:  12    -0.413165945268E+03    0.18747E-05   -0.75066E-07  2472   0.139E-03    0.589E-04
RMM:  13    -0.413165944053E+03    0.12150E-05   -0.38265E-07  2124   0.101E-03    0.322E-04
RMM:  14    -0.413165942831E+03    0.12216E-05   -0.23592E-07  1638   0.800E-04    0.213E-04
RMM:  15    -0.413165940951E+03    0.18799E-05   -0.23457E-07  1559   0.765E-04    0.162E-04
RMM:  16    -0.413165939040E+03    0.19117E-05   -0.19473E-07  1395   0.704E-04    0.147E-04
RMM:  17    -0.413165937165E+03    0.18742E-05   -0.15922E-07  1366   0.669E-04    0.752E-05
RMM:  18    -0.413165936049E+03    0.11164E-05   -0.82552E-08  1024   0.585E-04    0.413E-05
RMM:  19    -0.413165935448E+03    0.60078E-06   -0.44631E-08   855   0.543E-04
   10 T=    61. E= -.41286672E+03 F= -.41316594E+03 E0= -.41314355E+03  EK= 0.29922E+00 SP= 0.00E+00 SK= 0.00E+00
       N       E                     dE             d eps       ncg     rms          rms(c)
RMM:   1    -0.413165826400E+03    0.10965E-03   -0.88595E+00  4290   0.649E-01    0.883E-01
RMM:   2    -0.413170639496E+03   -0.48131E-02   -0.10884E-01  4219   0.875E-02    0.646E-01
RMM:   3    -0.413167481181E+03    0.31583E-02   -0.17302E-02  4938   0.522E-02    0.129E-01
RMM:   4    -0.413200491811E+03   -0.33011E-01   -0.36135E-02  5135   0.158E-01    0.760E-01
RMM:   5    -0.413166511437E+03    0.33980E-01   -0.16133E-02  4793   0.126E-01    0.517E-02
RMM:   6    -0.413166720962E+03   -0.20953E-03   -0.28190E-03  5719   0.519E-02    0.347E-02
RMM:   7    -0.413166721641E+03   -0.67954E-06   -0.47285E-04  5666   0.200E-02    0.219E-02
RMM:   8    -0.413166714859E+03    0.67825E-05   -0.67287E-05  5186   0.900E-03    0.101E-02
RMM:   9    -0.413166713330E+03    0.15290E-05   -0.13366E-05  3940   0.410E-03    0.721E-03
RMM:  10    -0.413166714862E+03   -0.15326E-05   -0.20480E-06  2575   0.226E-03    0.443E-03
RMM:  11    -0.413166716134E+03   -0.12714E-05   -0.10760E-06  2505   0.166E-03    0.256E-03
RMM:  12    -0.413166718304E+03   -0.21703E-05   -0.16730E-06  2552   0.195E-03    0.109E-03
RMM:  13    -0.413166719066E+03   -0.76160E-06   -0.65767E-07  2409   0.135E-03
   11 T=    61. E= -.41286704E+03 F= -.41316672E+03 E0= -.41314436E+03  EK= 0.29968E+00 SP= 0.00E+00 SK= 0.00E+00
       N       E                     dE             d eps       ncg     rms          rms(c)
RMM:   1    -0.413166005010E+03    0.71329E-03   -0.89225E+00  4294   0.655E-01    0.894E-01
RMM:   2    -0.413170620665E+03   -0.46157E-02   -0.10957E-01  4230   0.881E-02    0.653E-01
RMM:   3    -0.413167160481E+03    0.34602E-02   -0.17492E-02  4854   0.501E-02    0.108E-01
RMM:   4    -0.413194418347E+03   -0.27258E-01   -0.28855E-02  5130   0.141E-01    0.691E-01
RMM:   5    -0.413166495234E+03    0.27923E-01   -0.13400E-02  4801   0.114E-01    0.482E-02
RMM:   6    -0.413166673999E+03   -0.17877E-03   -0.23648E-03  5772   0.472E-02    0.322E-02
RMM:   7    -0.413166673345E+03    0.65423E-06   -0.39366E-04  5681   0.190E-02    0.206E-02
RMM:   8    -0.413166664221E+03    0.91241E-05   -0.63792E-05  4996   0.878E-03    0.101E-02
RMM:   9    -0.413166662350E+03    0.18705E-05   -0.12656E-05  3893   0.403E-03    0.757E-03
RMM:  10    -0.413166663095E+03   -0.74433E-06   -0.19465E-06  2561   0.228E-03
   12 T=    61. E= -.41286674E+03 F= -.41316666E+03 E0= -.41314433E+03  EK= 0.29993E+00 SP= 0.00E+00 SK= 0.00E+00
       N       E                     dE             d eps       ncg     rms          rms(c)
RMM:   1    -0.413167025941E+03   -0.36359E-03   -0.89054E+00  4303   0.663E-01    0.908E-01
RMM:   2    -0.413170722271E+03   -0.36963E-02   -0.10882E-01  4308   0.895E-02    0.648E-01
RMM:   3    -0.413173528251E+03   -0.28060E-02   -0.21127E-02  5129   0.853E-02    0.342E-01
RMM:   4    -0.413189807022E+03   -0.16279E-01   -0.38231E-02  5074   0.167E-01    0.620E-01
RMM:   5    -0.413167235897E+03    0.22571E-01   -0.83705E-03  4666   0.101E-01    0.590E-02
RMM:   6    -0.413167252905E+03   -0.17008E-04   -0.17246E-03  5425   0.413E-02    0.326E-02
RMM:   7    -0.413167260020E+03   -0.71144E-05   -0.33321E-04  5921   0.168E-02    0.192E-02
RMM:   8    -0.413167251950E+03    0.80698E-05   -0.59136E-05  5124   0.890E-03    0.782E-03
RMM:   9    -0.413167246740E+03    0.52097E-05   -0.71520E-06  3274   0.349E-03    0.403E-03
RMM:  10    -0.413167244848E+03    0.18920E-05   -0.16647E-06  2535   0.212E-03    0.255E-03
RMM:  11    -0.413167241831E+03    0.30171E-05   -0.12076E-06  2511   0.175E-03    0.141E-03
RMM:  12    -0.413167239084E+03    0.27474E-05   -0.70727E-07  2458   0.137E-03    0.571E-04
RMM:  13    -0.413167237359E+03    0.17245E-05   -0.36728E-07  2101   0.998E-04    0.331E-04
RMM:  14    -0.413167235747E+03    0.16125E-05   -0.21704E-07  1614   0.792E-04    0.222E-04
RMM:  15    -0.413167233029E+03    0.27176E-05   -0.22211E-07  1576   0.767E-04    0.173E-04
RMM:  16    -0.413167230519E+03    0.25106E-05   -0.17224E-07  1392   0.699E-04    0.149E-04
RMM:  17    -0.413167228221E+03    0.22977E-05   -0.13741E-07  1319   0.658E-04    0.748E-05
RMM:  18    -0.413167226890E+03    0.13307E-05   -0.76099E-08  1017   0.580E-04    0.427E-05
RMM:  19    -0.413167226095E+03    0.79476E-06   -0.43180E-08   871   0.544E-04
   13 T=    61. E= -.41286682E+03 F= -.41316723E+03 E0= -.41314492E+03  EK= 0.30040E+00 SP= 0.00E+00 SK= 0.00E+00
       N       E                     dE             d eps       ncg     rms          rms(c)
RMM:   1    -0.413167268727E+03   -0.41837E-04   -0.88513E+00  4293   0.666E-01    0.886E-01
RMM:   2    -0.413171709278E+03   -0.44406E-02   -0.10904E-01  4243   0.892E-02    0.645E-01
RMM:   3    -0.413168683262E+03    0.30260E-02   -0.17183E-02  4939   0.528E-02    0.133E-01
RMM:   4    -0.413202466911E+03   -0.33784E-01   -0.37162E-02  5125   0.160E-01    0.768E-01
RMM:   5    -0.413167681330E+03    0.34786E-01   -0.16462E-02  4792   0.127E-01    0.523E-02
RMM:   6    -0.413167893727E+03   -0.21240E-03   -0.28881E-03  5736   0.525E-02    0.352E-02
RMM:   7    -0.413167887926E+03    0.58006E-05   -0.48111E-04  5658   0.202E-02    0.223E-02
RMM:   8    -0.413167879963E+03    0.79630E-05   -0.69048E-05  5194   0.913E-03    0.103E-02
RMM:   9    -0.413167876911E+03    0.30526E-05   -0.13538E-05  3968   0.413E-03    0.734E-03
RMM:  10    -0.413167876747E+03    0.16439E-06   -0.21071E-06  2573   0.228E-03
   14 T=    61. E= -.41286696E+03 F= -.41316788E+03 E0= -.41314561E+03  EK= 0.30091E+00 SP= 0.00E+00 SK= 0.00E+00
       N       E                     dE             d eps       ncg     rms          rms(c)
RMM:   1    -0.413167318577E+03    0.55833E-03   -0.89322E+00  4302   0.665E-01    0.892E-01
RMM:   2    -0.413172176843E+03   -0.48583E-02   -0.10982E-01  4314   0.894E-02    0.655E-01
RMM:   3    -0.413175673745E+03   -0.34969E-02   -0.23308E-02  5127   0.925E-02    0.375E-01
RMM:   4    -0.413189998543E+03   -0.14325E-01   -0.40079E-02  5066   0.172E-01    0.613E-01
RMM:   5    -0.413167912425E+03    0.22086E-01   -0.79525E-03  4644   0.999E-02    0.582E-02
RMM:   6    -0.413167925306E+03   -0.12881E-04   -0.16600E-03  5383   0.402E-02    0.309E-02
RMM:   7    -0.413167940261E+03   -0.14956E-04   -0.31867E-04  5928   0.164E-02    0.186E-02
RMM:   8    -0.413167937191E+03    0.30700E-05   -0.58748E-05  5115   0.884E-03    0.752E-03
RMM:   9    -0.413167935510E+03    0.16816E-05   -0.70219E-06  3236   0.351E-03    0.385E-03
RMM:  10    -0.413167936607E+03   -0.10976E-05   -0.14953E-06  2516   0.206E-03    0.242E-03
RMM:  11    -0.413167938124E+03   -0.15166E-05   -0.12603E-06  2518   0.175E-03    0.141E-03
RMM:  12    -0.413167938579E+03   -0.45475E-06   -0.66429E-07  2450   0.134E-03
   15 T=    61. E= -.41286670E+03 F= -.41316794E+03 E0= -.41314570E+03  EK= 0.30124E+00 SP= 0.00E+00 SK= 0.00E+00
       N       E                     dE             d eps       ncg     rms          rms(c)
RMM:   1    -0.413168836232E+03   -0.89811E-03   -0.89240E+00  4296   0.671E-01    0.910E-01
RMM:   2    -0.413172882068E+03   -0.40458E-02   -0.10900E-01  4256   0.887E-02    0.651E-01
RMM:   3    -0.413169800870E+03    0.30812E-02   -0.17116E-02  4955   0.520E-02    0.136E-01
RMM:   4    -0.413204120967E+03   -0.34320E-01   -0.37692E-02  5127   0.162E-01    0.774E-01
RMM:   5    -0.413168812088E+03    0.35309E-01   -0.16821E-02  4791   0.128E-01    0.527E-02
RMM:   6    -0.413169018199E+03   -0.20611E-03   -0.29094E-03  5751   0.532E-02    0.361E-02
RMM:   7    -0.413169004949E+03    0.13250E-04   -0.48929E-04  5691   0.207E-02    0.229E-02
RMM:   8    -0.413168992380E+03    0.12569E-04   -0.73030E-05  5175   0.946E-03    0.108E-02
RMM:   9    -0.413168986304E+03    0.60762E-05   -0.14006E-05  3995   0.425E-03    0.766E-03
RMM:  10    -0.413168982409E+03    0.38944E-05   -0.22384E-06  2587   0.237E-03    0.464E-03
RMM:  11    -0.413168979728E+03    0.26812E-05   -0.11922E-06  2512   0.175E-03    0.267E-03
RMM:  12    -0.413168974428E+03    0.53004E-05   -0.19030E-06  2586   0.208E-03    0.117E-03
RMM:  13    -0.413168971361E+03    0.30673E-05   -0.67499E-07  2411   0.141E-03    0.929E-04
RMM:  14    -0.413168971499E+03   -0.13819E-06   -0.26607E-07  1987   0.906E-04
   16 T=    61. E= -.41286704E+03 F= -.41316897E+03 E0= -.41314677E+03  EK= 0.30193E+00 SP= 0.00E+00 SK= 0.00E+00
       N       E                     dE             d eps       ncg     rms          rms(c)
RMM:   1    -0.413170714009E+03   -0.17426E-02   -0.88779E+00  4294   0.698E-01    0.892E-01
RMM:   2    -0.413173420421E+03   -0.27064E-02   -0.10861E-01  4263   0.891E-02    0.645E-01
RMM:   3    -0.413169994102E+03    0.34263E-02   -0.16970E-02  4883   0.500E-02    0.116E-01
RMM:   4    -0.413199367802E+03   -0.29374E-01   -0.31371E-02  5132   0.147E-01    0.716E-01
RMM:   5    -0.413169271076E+03    0.30097E-01   -0.14466E-02  4793   0.119E-01    0.499E-02
RMM:   6    -0.413169452965E+03   -0.18189E-03   -0.25995E-03  5781   0.491E-02    0.339E-02
RMM:   7    -0.413169445619E+03    0.73463E-05   -0.42212E-04  5644   0.196E-02    0.215E-02
RMM:   8    -0.413169432375E+03    0.13244E-04   -0.67931E-05  5055   0.907E-03    0.106E-02
RMM:   9    -0.413169427414E+03    0.49611E-05   -0.13329E-05  3967   0.414E-03    0.781E-03
RMM:  10    -0.413169424724E+03    0.26903E-05   -0.20675E-06  2568   0.232E-03    0.472E-03
RMM:  11    -0.413169422761E+03    0.19626E-05   -0.12512E-06  2507   0.182E-03    0.263E-03
RMM:  12    -0.413169419267E+03    0.34944E-05   -0.17655E-06  2565   0.204E-03    0.111E-03
RMM:  13    -0.413169417324E+03    0.19423E-05   -0.56972E-07  2375   0.133E-03    0.792E-04
RMM:  14    -0.413169417326E+03   -0.14770E-08   -0.24744E-07  1939   0.869E-04
   17 T=    62. E= -.41286694E+03 F= -.41316942E+03 E0= -.41314726E+03  EK= 0.30248E+00 SP= 0.00E+00 SK= 0.00E+00
       N       E                     dE             d eps       ncg     rms          rms(c)
RMM:   1    -0.413169258883E+03    0.15844E-03   -0.89411E+00  4298   0.676E-01    0.890E-01
RMM:   2    -0.413174061353E+03   -0.48025E-02   -0.11050E-01  4263   0.891E-02    0.656E-01
RMM:   3    -0.413170552178E+03    0.35092E-02   -0.18188E-02  4883   0.517E-02    0.117E-01
RMM:   4    -0.413200481305E+03   -0.29929E-01   -0.32209E-02  5122   0.149E-01    0.724E-01
RMM:   5    -0.413169756263E+03    0.30725E-01   -0.14791E-02  4791   0.120E-01    0.495E-02
RMM:   6    -0.413169936442E+03   -0.18018E-03   -0.25566E-03  5766   0.494E-02    0.331E-02
RMM:   7    -0.413169935910E+03    0.53191E-06   -0.42801E-04  5641   0.196E-02    0.212E-02
RMM:   8    -0.413169926379E+03    0.95315E-05   -0.66593E-05  5076   0.906E-03    0.102E-02
RMM:   9    -0.413169923765E+03    0.26140E-05   -0.13377E-05  3937   0.413E-03    0.743E-03
RMM:  10    -0.413169924049E+03   -0.28377E-06   -0.19873E-06  2558   0.227E-03
   18 T=    62. E= -.41286683E+03 F= -.41316992E+03 E0= -.41314781E+03  EK= 0.30310E+00 SP= 0.00E+00 SK= 0.00E+00
       N       E                     dE             d eps       ncg     rms          rms(c)
RMM:   1    -0.413171358079E+03   -0.14343E-02   -0.89524E+00  4303   0.701E-01    0.910E-01
RMM:   2    -0.413174909249E+03   -0.35512E-02   -0.10988E-01  4319   0.915E-02    0.654E-01
RMM:   3    -0.413177667959E+03   -0.27587E-02   -0.21858E-02  5127   0.874E-02    0.348E-01
RMM:   4    -0.413194142735E+03   -0.16475E-01   -0.39372E-02  5072   0.170E-01    0.626E-01
RMM:   5    -0.413171090363E+03    0.23052E-01   -0.85628E-03  4668   0.101E-01    0.584E-02
RMM:   6    -0.413171108933E+03   -0.18570E-04   -0.17688E-03  5432   0.415E-02    0.325E-02
RMM:   7    -0.413171111911E+03   -0.29773E-05   -0.33228E-04  5910   0.170E-02    0.193E-02
RMM:   8    -0.413171103052E+03    0.88586E-05   -0.59607E-05  5103   0.898E-03    0.784E-03
RMM:   9    -0.413171096892E+03    0.61603E-05   -0.74267E-06  3279   0.355E-03    0.406E-03
RMM:  10    -0.413171094450E+03    0.24420E-05   -0.16597E-06  2533   0.211E-03    0.256E-03
RMM:  11    -0.413171090718E+03    0.37312E-05   -0.11225E-06  2496   0.172E-03    0.139E-03
RMM:  12    -0.413171087129E+03    0.35890E-05   -0.67490E-07  2452   0.136E-03    0.541E-04
RMM:  13    -0.413171084914E+03    0.22150E-05   -0.34351E-07  2088   0.984E-04    0.315E-04
RMM:  14    -0.413171082897E+03    0.20179E-05   -0.19563E-07  1579   0.775E-04    0.212E-04
RMM:  15    -0.413171079325E+03    0.35713E-05   -0.18410E-07  1490   0.744E-04    0.168E-04
RMM:  16    -0.413171076440E+03    0.28856E-05   -0.12869E-07  1303   0.669E-04    0.148E-04
RMM:  17    -0.413171073460E+03    0.29795E-05   -0.11216E-07  1259   0.647E-04    0.736E-05
RMM:  18    -0.413171071496E+03    0.19647E-05   -0.66260E-08  1000   0.585E-04    0.404E-05
RMM:  19    -0.413171070617E+03    0.87846E-06   -0.34444E-08   840   0.547E-04
   19 T=    62. E= -.41286707E+03 F= -.41317107E+03 E0= -.41314899E+03  EK= 0.30400E+00 SP= 0.00E+00 SK= 0.00E+00
       N       E                     dE             d eps       ncg     rms          rms(c)
RMM:   1    -0.413171199425E+03   -0.12793E-03   -0.88942E+00  4298   0.691E-01    0.899E-01
RMM:   2    -0.413175137324E+03   -0.39379E-02   -0.10948E-01  4260   0.916E-02    0.648E-01
RMM:   3    -0.413172393967E+03    0.27434E-02   -0.17247E-02  4947   0.542E-02    0.140E-01
RMM:   4    -0.413207478554E+03   -0.35085E-01   -0.39026E-02  5119   0.164E-01    0.782E-01
RMM:   5    -0.413171339565E+03    0.36139E-01   -0.17151E-02  4781   0.130E-01    0.535E-02
RMM:   6    -0.413171540125E+03   -0.20056E-03   -0.30575E-03  5735   0.540E-02    0.363E-02
RMM:   7    -0.413171529024E+03    0.11101E-04   -0.50406E-04  5662   0.208E-02    0.232E-02
RMM:   8    -0.413171515579E+03    0.13444E-04   -0.74891E-05  5195   0.958E-03    0.109E-02
RMM:   9    -0.413171509221E+03    0.63581E-05   -0.14579E-05  4058   0.432E-03    0.767E-03
RMM:  10    -0.413171505480E+03    0.37409E-05   -0.22611E-06  2588   0.236E-03    0.471E-03
RMM:  11    -0.413171503263E+03    0.22177E-05   -0.11012E-06  2502   0.170E-03    0.282E-03
RMM:  12    -0.413171498599E+03    0.46638E-05   -0.17717E-06  2559   0.207E-03    0.119E-03
RMM:  13    -0.413171495939E+03    0.26599E-05   -0.70613E-07  2412   0.144E-03    0.956E-04
RMM:  14    -0.413171495955E+03   -0.15647E-07   -0.28049E-07  2033   0.933E-04
   20 T=    62. E= -.41286678E+03 F= -.41317150E+03 E0= -.41314946E+03  EK= 0.30472E+00 SP= 0.00E+00 SK= 0.00E+00
       N       E                     dE             d eps       ncg     rms          rms(c)
RMM:   1    -0.413172069790E+03   -0.57385E-03   -0.89512E+00  4292   0.688E-01    0.891E-01
RMM:   2    -0.413176780593E+03   -0.47108E-02   -0.11092E-01  4273   0.924E-02    0.656E-01
RMM:   3    -0.413173171273E+03    0.36093E-02   -0.18238E-02  4871   0.513E-02    0.112E-01
RMM:   4    -0.413201376863E+03   -0.28206E-01   -0.30139E-02  5124   0.144E-01    0.703E-01
RMM:   5    -0.413172454592E+03    0.28922E-01   -0.13961E-02  4790   0.117E-01    0.488E-02
RMM:   6    -0.413172624766E+03   -0.17017E-03   -0.24857E-03  5787   0.482E-02    0.319E-02
RMM:   7    -0.413172628425E+03   -0.36595E-05   -0.38613E-04  5644   0.188E-02    0.203E-02
RMM:   8    -0.413172619793E+03    0.86322E-05   -0.69440E-05  5033   0.899E-03    0.105E-02
RMM:   9    -0.413172616248E+03    0.35445E-05   -0.13260E-05  4007   0.418E-03    0.776E-03
RMM:  10    -0.413172615645E+03    0.60345E-06   -0.19575E-06  2563   0.227E-03
   21 T=    62. E= -.41286690E+03 F= -.41317262E+03 E0= -.41315063E+03  EK= 0.30571E+00 SP= 0.00E+00 SK= 0.00E+00
       N       E                     dE             d eps       ncg     rms          rms(c)
RMM:   1    -0.413173646110E+03   -0.10299E-02   -0.89817E+00  4300   0.698E-01    0.908E-01
RMM:   2    -0.413177841115E+03   -0.41950E-02   -0.11067E-01  4329   0.908E-02    0.658E-01
RMM:   3    -0.413180308853E+03   -0.24677E-02   -0.22260E-02  5120   0.873E-02    0.347E-01
RMM:   4    -0.413197821708E+03   -0.17513E-01   -0.40776E-02  5075   0.172E-01    0.640E-01
RMM:   5    -0.413173713864E+03    0.24108E-01   -0.90301E-03  4660   0.104E-01    0.580E-02
RMM:   6    -0.413173747619E+03   -0.33755E-04   -0.18608E-03  5443   0.427E-02    0.324E-02
RMM:   7    -0.413173751498E+03   -0.38795E-05   -0.34085E-04  5886   0.170E-02    0.195E-02
RMM:   8    -0.413173744128E+03    0.73700E-05   -0.60631E-05  5118   0.896E-03    0.794E-03
RMM:   9    -0.413173738316E+03    0.58124E-05   -0.77573E-06  3309   0.354E-03    0.415E-03
RMM:  10    -0.413173735993E+03    0.23233E-05   -0.17108E-06  2544   0.211E-03    0.264E-03
RMM:  11    -0.413173732554E+03    0.34386E-05   -0.10757E-06  2489   0.169E-03    0.141E-03
RMM:  12    -0.413173728995E+03    0.35596E-05   -0.67364E-07  2450   0.135E-03    0.526E-04
RMM:  13    -0.413173726853E+03    0.21416E-05   -0.33318E-07  2084   0.979E-04    0.314E-04
RMM:  14    -0.413173724976E+03    0.18774E-05   -0.18581E-07  1597   0.766E-04    0.211E-04
RMM:  15    -0.413173721600E+03    0.33752E-05   -0.15741E-07  1413   0.720E-04    0.156E-04
RMM:  16    -0.413173718670E+03    0.29306E-05   -0.11255E-07  1245   0.660E-04    0.148E-04
RMM:  17    -0.413173715807E+03    0.28628E-05   -0.89644E-08  1174   0.633E-04    0.744E-05
RMM:  18    -0.413173713561E+03    0.22463E-05   -0.63074E-08  1048   0.595E-04    0.376E-05
RMM:  19    -0.413173712478E+03    0.10822E-05   -0.31072E-08   824   0.551E-04    0.296E-05
RMM:  20    -0.413173712131E+03    0.34749E-06   -0.15457E-08   722   0.534E-04
   22 T=    62. E= -.41286700E+03 F= -.41317371E+03 E0= -.41315177E+03  EK= 0.30671E+00 SP= 0.00E+00 SK= 0.00E+00
       N       E                     dE             d eps       ncg     rms          rms(c)
RMM:   1    -0.413174376800E+03   -0.66432E-03   -0.89493E+00  4295   0.701E-01    0.909E-01
RMM:   2    -0.413178425845E+03   -0.40490E-02   -0.11015E-01  4278   0.930E-02    0.652E-01
RMM:   3    -0.413175207565E+03    0.32183E-02   -0.17439E-02  4927   0.534E-02    0.136E-01
RMM:   4    -0.413209861740E+03   -0.34654E-01   -0.38190E-02  5120   0.162E-01    0.777E-01
RMM:   5    -0.413174231081E+03    0.35631E-01   -0.17080E-02  4784   0.129E-01    0.530E-02
RMM:   6    -0.413174424371E+03   -0.19329E-03   -0.29701E-03  5745   0.536E-02    0.364E-02
RMM:   7    -0.413174413541E+03    0.10830E-04   -0.49138E-04  5647   0.210E-02    0.230E-02
RMM:   8    -0.413174399991E+03    0.13550E-04   -0.77249E-05  5189   0.973E-03    0.111E-02
RMM:   9    -0.413174392974E+03    0.70164E-05   -0.14740E-05  4082   0.437E-03    0.784E-03
RMM:  10    -0.413174388211E+03    0.47630E-05   -0.22841E-06  2594   0.238E-03    0.479E-03
RMM:  11    -0.413174384993E+03    0.32186E-05   -0.11682E-06  2509   0.175E-03    0.279E-03
RMM:  12    -0.413174378807E+03    0.61857E-05   -0.18515E-06  2573   0.208E-03    0.120E-03
RMM:  13    -0.413174375169E+03    0.36380E-05   -0.66942E-07  2404   0.142E-03    0.972E-04
RMM:  14    -0.413174375419E+03   -0.24984E-06   -0.27482E-07  2017   0.919E-04
   23 T=    63. E= -.41286680E+03 F= -.41317438E+03 E0= -.41315248E+03  EK= 0.30758E+00 SP= 0.00E+00 SK= 0.00E+00
       N       E                     dE             d eps       ncg     rms          rms(c)
RMM:   1    -0.413175604948E+03   -0.12298E-02   -0.89671E+00  4295   0.709E-01    0.893E-01
RMM:   2    -0.413180501867E+03   -0.48969E-02   -0.11114E-01  4280   0.932E-02    0.656E-01
RMM:   3    -0.413176401090E+03    0.41008E-02   -0.18164E-02  4807   0.520E-02    0.102E-01
RMM:   4    -0.413201212528E+03   -0.24811E-01   -0.26019E-02  5121   0.134E-01    0.660E-01
RMM:   5    -0.413175828264E+03    0.25384E-01   -0.12379E-02  4796   0.109E-01    0.474E-02
RMM:   6    -0.413175968276E+03   -0.14001E-03   -0.21689E-03  5804   0.448E-02    0.300E-02
RMM:   7    -0.413175966858E+03    0.14180E-05   -0.29596E-04  5657   0.173E-02    0.171E-02
RMM:   8    -0.413175960489E+03    0.63698E-05   -0.62018E-05  5004   0.827E-03    0.104E-02
RMM:   9    -0.413175955586E+03    0.49022E-05   -0.12072E-05  3945   0.403E-03    0.770E-03
RMM:  10    -0.413175954020E+03    0.15668E-05   -0.19028E-06  2558   0.226E-03    0.465E-03
RMM:  11    -0.413175952432E+03    0.15876E-05   -0.15726E-06  2527   0.200E-03    0.239E-03
RMM:  12    -0.413175950058E+03    0.23739E-05   -0.14361E-06  2515   0.186E-03    0.960E-04
RMM:  13    -0.413175949013E+03    0.10450E-05   -0.46430E-07  2290   0.121E-03    0.616E-04
RMM:  14    -0.413175948658E+03    0.35479E-06   -0.21806E-07  1800   0.825E-04
   24 T=    63. E= -.41286716E+03 F= -.41317595E+03 E0= -.41315410E+03  EK= 0.30879E+00 SP= 0.00E+00 SK= 0.00E+00
       N       E                     dE             d eps       ncg     rms          rms(c)
RMM:   1    -0.413176884603E+03   -0.93559E-03   -0.90293E+00  4292   0.713E-01    0.907E-01
RMM:   2    -0.413181312137E+03   -0.44275E-02   -0.11181E-01  4282   0.940E-02    0.662E-01
RMM:   3    -0.413177458388E+03    0.38537E-02   -0.18277E-02  4826   0.528E-02    0.108E-01
RMM:   4    -0.413204783556E+03   -0.27325E-01   -0.28821E-02  5118   0.142E-01    0.691E-01
RMM:   5    -0.413176804627E+03    0.27979E-01   -0.13490E-02  4791   0.115E-01    0.493E-02
RMM:   6    -0.413176976125E+03   -0.17150E-03   -0.24795E-03  5794   0.477E-02    0.335E-02
RMM:   7    -0.413176971779E+03    0.43462E-05   -0.40354E-04  5614   0.195E-02    0.211E-02
RMM:   8    -0.413176959636E+03    0.12143E-04   -0.66711E-05  5059   0.909E-03    0.107E-02
RMM:   9    -0.413176954360E+03    0.52763E-05   -0.12736E-05  3920   0.411E-03    0.787E-03
RMM:  10    -0.413176951499E+03    0.28603E-05   -0.19899E-06  2560   0.231E-03    0.478E-03
RMM:  11    -0.413176949092E+03    0.24076E-05   -0.13570E-06  2517   0.188E-03    0.253E-03
RMM:  12    -0.413176945389E+03    0.37025E-05   -0.15742E-06  2530   0.196E-03    0.103E-03
RMM:  13    -0.413176943470E+03    0.19194E-05   -0.52575E-07  2349   0.129E-03    0.702E-04
RMM:  14    -0.413176943263E+03    0.20707E-06   -0.24297E-07  1906   0.862E-04
   25 T=    63. E= -.41286700E+03 F= -.41317694E+03 E0= -.41315515E+03  EK= 0.30994E+00 SP= 0.00E+00 SK= 0.00E+00
       N       E                     dE             d eps       ncg     rms          rms(c)
RMM:   1    -0.413178770556E+03   -0.18271E-02   -0.90228E+00  4294   0.729E-01    0.918E-01
RMM:   2    -0.413182169092E+03   -0.33985E-02   -0.11156E-01  4281   0.966E-02    0.657E-01
RMM:   3    -0.413178549665E+03    0.36194E-02   -0.17457E-02  4736   0.506E-02    0.971E-02
RMM:   4    -0.413199604982E+03   -0.21055E-01   -0.21662E-02  5134   0.123E-01    0.608E-01
RMM:   5    -0.413178159881E+03    0.21445E-01   -0.10641E-02  4800   0.101E-01    0.471E-02
RMM:   6    -0.413178264151E+03   -0.10427E-03   -0.18758E-03  5818   0.414E-02    0.300E-02
RMM:   7    -0.413178256320E+03    0.78303E-05   -0.24917E-04  5580   0.166E-02    0.159E-02
RMM:   8    -0.413178248688E+03    0.76319E-05   -0.50678E-05  4951   0.760E-03    0.102E-02
RMM:   9    -0.413178242295E+03    0.63930E-05   -0.10225E-05  3722   0.372E-03    0.758E-03
RMM:  10    -0.413178237263E+03    0.50329E-05   -0.18026E-06  2547   0.229E-03    0.448E-03
RMM:  11    -0.413178231158E+03    0.61049E-05   -0.17464E-06  2548   0.210E-03    0.220E-03
RMM:  12    -0.413178224425E+03    0.67328E-05   -0.11875E-06  2489   0.178E-03    0.867E-04
RMM:  13    -0.413178222204E+03    0.22208E-05   -0.43458E-07  2233   0.115E-03    0.590E-04
RMM:  14    -0.413178221307E+03    0.89703E-06   -0.21023E-07  1780   0.817E-04
   26 T=    63. E= -.41286691E+03 F= -.41317822E+03 E0= -.41315647E+03  EK= 0.31131E+00 SP= 0.00E+00 SK= 0.00E+00
       N       E                     dE             d eps       ncg     rms          rms(c)
RMM:   1    -0.413180194365E+03   -0.19722E-02   -0.90055E+00  4291   0.733E-01    0.898E-01
RMM:   2    -0.413184155860E+03   -0.39615E-02   -0.11263E-01  4279   0.987E-02    0.658E-01
RMM:   3    -0.413180447883E+03    0.37080E-02   -0.18121E-02  4766   0.536E-02    0.977E-02
RMM:   4    -0.413203372209E+03   -0.22924E-01   -0.23756E-02  5132   0.129E-01    0.634E-01
RMM:   5    -0.413179958733E+03    0.23413E-01   -0.11570E-02  4805   0.105E-01    0.472E-02
RMM:   6    -0.413180091476E+03   -0.13274E-03   -0.20491E-03  5821   0.430E-02    0.316E-02
RMM:   7    -0.413180088615E+03    0.28616E-05   -0.32659E-04  5583   0.182E-02    0.189E-02
RMM:   8    -0.413180079431E+03    0.91839E-05   -0.58667E-05  4964   0.856E-03    0.102E-02
RMM:   9    -0.413180074323E+03    0.51076E-05   -0.11367E-05  3763   0.394E-03    0.750E-03
RMM:  10    -0.413180071552E+03    0.27713E-05   -0.18482E-06  2542   0.230E-03    0.445E-03
RMM:  11    -0.413180068644E+03    0.29079E-05   -0.15155E-06  2532   0.197E-03    0.218E-03
RMM:  12    -0.413180065086E+03    0.35577E-05   -0.13116E-06  2507   0.180E-03    0.934E-04
RMM:  13    -0.413180063618E+03    0.14683E-05   -0.45105E-07  2295   0.119E-03    0.591E-04
RMM:  14    -0.413180063005E+03    0.61322E-06   -0.21489E-07  1802   0.821E-04
   27 T=    64. E= -.41286717E+03 F= -.41318006E+03 E0= -.41315836E+03  EK= 0.31289E+00 SP= 0.00E+00 SK= 0.00E+00
       N       E                     dE             d eps       ncg     rms          rms(c)
RMM:   1    -0.413181065556E+03   -0.10019E-02   -0.90978E+00  4292   0.729E-01    0.908E-01
RMM:   2    -0.413185442501E+03   -0.43769E-02   -0.11368E-01  4279   0.985E-02    0.667E-01
RMM:   3    -0.413181436380E+03    0.40061E-02   -0.18977E-02  4703   0.530E-02    0.892E-02
RMM:   4    -0.413200170054E+03   -0.18734E-01   -0.19212E-02  5138   0.116E-01    0.575E-01
RMM:   5    -0.413181042921E+03    0.19127E-01   -0.94831E-03  4806   0.949E-02    0.453E-02
RMM:   6    -0.413181144406E+03   -0.10148E-03   -0.16933E-03  5830   0.386E-02    0.289E-02
RMM:   7    -0.413181144371E+03    0.35256E-07   -0.23976E-04  5584   0.161E-02    0.158E-02
RMM:   8    -0.413181139373E+03    0.49982E-05   -0.46274E-05  4921   0.736E-03    0.971E-03
RMM:   9    -0.413181135082E+03    0.42902E-05   -0.90752E-06  3567   0.356E-03    0.713E-03
RMM:  10    -0.413181133362E+03    0.17202E-05   -0.16251E-06  2521   0.220E-03    0.410E-03
RMM:  11    -0.413181131102E+03    0.22605E-05   -0.16092E-06  2545   0.200E-03    0.201E-03
RMM:  12    -0.413181128437E+03    0.26648E-05   -0.10743E-06  2476   0.167E-03    0.908E-04
RMM:  13    -0.413181127427E+03    0.10098E-05   -0.40950E-07  2222   0.112E-03    0.588E-04
RMM:  14    -0.413181126726E+03    0.70125E-06   -0.19504E-07  1725   0.796E-04
   28 T=    64. E= -.41286685E+03 F= -.41318113E+03 E0= -.41315948E+03  EK= 0.31428E+00 SP= 0.00E+00 SK= 0.00E+00
       N       E                     dE             d eps       ncg     rms          rms(c)
RMM:   1    -0.413186910605E+03   -0.57832E-02   -0.91344E+00  4292   0.773E-01    0.926E-01
RMM:   2    -0.413187377472E+03   -0.46687E-03   -0.11343E-01  4278   0.102E-01    0.664E-01
RMM:   3    -0.413183413620E+03    0.39639E-02   -0.18047E-02  4660   0.508E-02    0.880E-02
RMM:   4    -0.413199269207E+03   -0.15856E-01   -0.16140E-02  5141   0.106E-01    0.530E-01
RMM:   5    -0.413183155825E+03    0.16113E-01   -0.81127E-03  4821   0.871E-02    0.454E-02
RMM:   6    -0.413183225966E+03   -0.70141E-04   -0.14568E-03  5843   0.354E-02    0.283E-02
RMM:   7    -0.413183217749E+03    0.82163E-05   -0.17635E-04  5486   0.144E-02    0.133E-02
RMM:   8    -0.413183209941E+03    0.78080E-05   -0.22642E-05  4271   0.519E-03    0.807E-03
RMM:   9    -0.413183204007E+03    0.59341E-05   -0.44681E-06  2854   0.272E-03    0.466E-03
RMM:  10    -0.413183201634E+03    0.23734E-05   -0.12180E-06  2487   0.179E-03    0.334E-03
RMM:  11    -0.413183194048E+03    0.75857E-05   -0.16890E-06  2531   0.215E-03    0.190E-03
RMM:  12    -0.413183190134E+03    0.39140E-05   -0.81540E-07  2415   0.154E-03    0.109E-03
RMM:  13    -0.413183188419E+03    0.17154E-05   -0.32405E-07  2171   0.102E-03    0.546E-04
RMM:  14    -0.413183186337E+03    0.20817E-05   -0.16557E-07  1613   0.751E-04    0.322E-04
RMM:  15    -0.413183181478E+03    0.48596E-05   -0.18447E-07  1902   0.788E-04    0.364E-04
RMM:  16    -0.413183179086E+03    0.23920E-05   -0.72275E-08  1105   0.613E-04    0.231E-04
RMM:  17    -0.413183174600E+03    0.44854E-05   -0.68417E-08  1050   0.608E-04    0.149E-04
RMM:  18    -0.413183172268E+03    0.23318E-05   -0.44410E-08   919   0.574E-04    0.476E-05
RMM:  19    -0.413183170480E+03    0.17882E-05   -0.31955E-08   910   0.572E-04    0.827E-05
RMM:  20    -0.413183170288E+03    0.19170E-06   -0.11418E-08   686   0.537E-04
   29 T=    64. E= -.41286712E+03 F= -.41318317E+03 E0= -.41316157E+03  EK= 0.31605E+00 SP= 0.00E+00 SK= 0.00E+00
       N       E                     dE             d eps       ncg     rms          rms(c)
RMM:   1    -0.413191615958E+03   -0.84455E-02   -0.91288E+00  4289   0.813E-01    0.906E-01
RMM:   2    -0.413189682170E+03    0.19338E-02   -0.12339E-01  4272   0.116E-01    0.662E-01
RMM:   3    -0.413185234885E+03    0.44473E-02   -0.17246E-02  4560   0.560E-02    0.856E-02
RMM:   4    -0.413198429371E+03   -0.13194E-01   -0.13355E-02  5138   0.967E-02    0.484E-01
RMM:   5    -0.413185053497E+03    0.13376E-01   -0.67844E-03  4822   0.794E-02    0.437E-02
RMM:   6    -0.413185102193E+03   -0.48697E-04   -0.12225E-03  5837   0.323E-02    0.267E-02
RMM:   7    -0.413185104343E+03   -0.21499E-05   -0.19748E-04  5485   0.147E-02    0.155E-02
RMM:   8    -0.413185091777E+03    0.12566E-04   -0.31604E-05  4715   0.631E-03    0.829E-03
RMM:   9    -0.413185090322E+03    0.14550E-05   -0.64256E-06  3169   0.312E-03    0.623E-03
RMM:  10    -0.413185087096E+03    0.32258E-05   -0.14906E-06  2504   0.210E-03    0.341E-03
RMM:  11    -0.413185084126E+03    0.29703E-05   -0.10539E-06  2496   0.169E-03    0.178E-03
RMM:  12    -0.413185080713E+03    0.34128E-05   -0.82646E-07  2457   0.145E-03    0.986E-04
RMM:  13    -0.413185079179E+03    0.15342E-05   -0.32738E-07  2142   0.100E-03    0.447E-04
RMM:  14    -0.413185078043E+03    0.11360E-05   -0.16071E-07  1522   0.738E-04    0.308E-04
RMM:  15    -0.413185075433E+03    0.26100E-05   -0.12285E-07  1491   0.705E-04    0.144E-04
RMM:  16    -0.413185072860E+03    0.25732E-05   -0.76711E-08  1161   0.635E-04    0.155E-04
RMM:  17    -0.413185071282E+03    0.15774E-05   -0.39084E-08   858   0.574E-04    0.986E-05
RMM:  18    -0.413185067853E+03    0.34295E-05   -0.56221E-08  1012   0.603E-04    0.409E-05
RMM:  19    -0.413185067165E+03    0.68831E-06   -0.18789E-08   734   0.549E-04
   30 T=    65. E= -.41286714E+03 F= -.41318507E+03 E0= -.41316352E+03  EK= 0.31793E+00 SP= 0.00E+00 SK= 0.00E+00
       N       E                     dE             d eps       ncg     rms          rms(c)
RMM:   1    -0.413186792551E+03   -0.17247E-02   -0.91801E+00  4293   0.752E-01    0.911E-01
RMM:   2    -0.413191792111E+03   -0.49996E-02   -0.11587E-01  4272   0.111E-01    0.673E-01
RMM:   3    -0.413187093900E+03    0.46982E-02   -0.19807E-02  4626   0.627E-02    0.883E-02
RMM:   4    -0.413205193404E+03   -0.18100E-01   -0.18386E-02  5136   0.114E-01    0.566E-01
RMM:   5    -0.413186718860E+03    0.18475E-01   -0.92294E-03  4811   0.928E-02    0.451E-02
RMM:   6    -0.413186805145E+03   -0.86284E-04   -0.16200E-03  5858   0.372E-02    0.280E-02
RMM:   7    -0.413186806917E+03   -0.17728E-05   -0.19393E-04  5494   0.147E-02    0.136E-02
RMM:   8    -0.413186800595E+03    0.63226E-05   -0.26729E-05  4522   0.560E-03    0.810E-03
RMM:   9    -0.413186801008E+03   -0.41281E-06   -0.84555E-06  3545   0.326E-03
   31 T=    65. E= -.41286695E+03 F= -.41318680E+03 E0= -.41316530E+03  EK= 0.31985E+00 SP= 0.00E+00 SK= 0.00E+00
       N       E                     dE             d eps       ncg     rms          rms(c)
RMM:   1    -0.413202094267E+03   -0.15294E-01   -0.93258E+00  4297   0.854E-01    0.932E-01
RMM:   2    -0.413193932854E+03    0.81614E-02   -0.13128E-01  4318   0.121E-01    0.673E-01
RMM:   3    -0.413194336074E+03   -0.40322E-03   -0.20693E-02  5044   0.919E-02    0.310E-01
RMM:   4    -0.413221756466E+03   -0.27420E-01   -0.46198E-02  5070   0.183E-01    0.740E-01
RMM:   5    -0.413189297248E+03    0.32459E-01   -0.13149E-02  4720   0.120E-01    0.600E-02
RMM:   6    -0.413189383213E+03   -0.85965E-04   -0.26042E-03  5680   0.487E-02    0.353E-02
RMM:   7    -0.413189389733E+03   -0.65205E-05   -0.43161E-04  5825   0.192E-02    0.226E-02
RMM:   8    -0.413189381832E+03    0.79012E-05   -0.82806E-05  5120   0.103E-02    0.980E-03
RMM:   9    -0.413189372691E+03    0.91409E-05   -0.12425E-05  3900   0.442E-03    0.479E-03
RMM:  10    -0.413189368216E+03    0.44749E-05   -0.25663E-06  2648   0.237E-03    0.316E-03
RMM:  11    -0.413189362462E+03    0.57535E-05   -0.12250E-06  2498   0.181E-03    0.166E-03
RMM:  12    -0.413189355666E+03    0.67965E-05   -0.83080E-07  2461   0.147E-03    0.589E-04
RMM:  13    -0.413189352251E+03    0.34154E-05   -0.42202E-07  2233   0.108E-03    0.361E-04
RMM:  14    -0.413189349594E+03    0.26561E-05   -0.23075E-07  1715   0.828E-04    0.261E-04
RMM:  15    -0.413189343004E+03    0.65905E-05   -0.19622E-07  1591   0.779E-04    0.225E-04
RMM:  16    -0.413189339550E+03    0.34544E-05   -0.10769E-07  1182   0.656E-04    0.168E-04
RMM:  17    -0.413189335274E+03    0.42754E-05   -0.93680E-08  1221   0.652E-04    0.950E-05
RMM:  18    -0.413189333057E+03    0.22168E-05   -0.61380E-08  1071   0.608E-04    0.496E-05
RMM:  19    -0.413189330487E+03    0.25703E-05   -0.47432E-08  1013   0.591E-04    0.381E-05
RMM:  20    -0.413189330184E+03    0.30272E-06   -0.23151E-08   783   0.546E-04
   32 T=    66. E= -.41286722E+03 F= -.41318933E+03 E0= -.41316788E+03  EK= 0.32211E+00 SP= 0.00E+00 SK= 0.00E+00
       N       E                     dE             d eps       ncg     rms          rms(c)
RMM:   1    -0.413200642898E+03   -0.11312E-01   -0.92623E+00  4299   0.854E-01    0.919E-01
RMM:   2    -0.413195625446E+03    0.50175E-02   -0.12768E-01  4273   0.122E-01    0.668E-01
RMM:   3    -0.413191283235E+03    0.43422E-02   -0.17699E-02  4402   0.640E-02    0.795E-02
RMM:   4    -0.413196896612E+03   -0.56134E-02   -0.58554E-03  5156   0.644E-02    0.318E-01
RMM:   5    -0.413191242469E+03    0.56541E-02   -0.29223E-03  4829   0.524E-02    0.424E-02
RMM:   6    -0.413191280120E+03   -0.37651E-04   -0.77243E-04  5703   0.261E-02    0.304E-02
RMM:   7    -0.413191254787E+03    0.25333E-04   -0.26386E-04  5208   0.166E-02    0.182E-02
RMM:   8    -0.413191242510E+03    0.12277E-04   -0.23291E-05  4487   0.597E-03    0.750E-03
RMM:   9    -0.413191240201E+03    0.23090E-05   -0.31392E-06  2705   0.236E-03    0.487E-03
RMM:  10    -0.413191235949E+03    0.42517E-05   -0.12927E-06  2490   0.185E-03    0.258E-03
RMM:  11    -0.413191232029E+03    0.39203E-05   -0.83748E-07  2443   0.147E-03    0.120E-03
RMM:  12    -0.413191228326E+03    0.37028E-05   -0.46679E-07  2245   0.113E-03    0.542E-04
RMM:  13    -0.413191225803E+03    0.25229E-05   -0.25322E-07  1839   0.852E-04    0.281E-04
RMM:  14    -0.413191222983E+03    0.28197E-05   -0.12876E-07  1281   0.692E-04    0.187E-04
RMM:  15    -0.413191219125E+03    0.38582E-05   -0.88499E-08  1114   0.648E-04    0.943E-05
RMM:  16    -0.413191216450E+03    0.26756E-05   -0.56795E-08   982   0.616E-04    0.682E-05
RMM:  17    -0.413191213114E+03    0.33357E-05   -0.60724E-08  1148   0.618E-04    0.581E-05
RMM:  18    -0.413191210826E+03    0.22876E-05   -0.38521E-08   968   0.575E-04    0.428E-05
RMM:  19    -0.413191210051E+03    0.77588E-06   -0.18088E-08   738   0.531E-04
   33 T=    66. E= -.41286698E+03 F= -.41319121E+03 E0= -.41316981E+03  EK= 0.32423E+00 SP= 0.00E+00 SK= 0.00E+00
       N       E                     dE             d eps       ncg     rms          rms(c)
RMM:   1    -0.413194019645E+03   -0.28088E-02   -0.92791E+00  4301   0.797E-01    0.917E-01
RMM:   2    -0.413198272678E+03   -0.42530E-02   -0.11950E-01  4269   0.123E-01    0.678E-01
RMM:   3    -0.413193638534E+03    0.46341E-02   -0.20266E-02  4357   0.715E-02    0.633E-02
RMM:   4    -0.413197464855E+03   -0.38263E-02   -0.39561E-03  5151   0.536E-02    0.265E-01
RMM:   5    -0.413193560909E+03    0.39039E-02   -0.20423E-03  4827   0.438E-02    0.410E-02
RMM:   6    -0.413193599325E+03   -0.38416E-04   -0.65530E-04  5641   0.241E-02    0.299E-02
RMM:   7    -0.413193575654E+03    0.23670E-04   -0.24144E-04  5132   0.161E-02    0.185E-02
RMM:   8    -0.413193566006E+03    0.96483E-05   -0.23294E-05  4338   0.564E-03    0.700E-03
RMM:   9    -0.413193565026E+03    0.98031E-06   -0.27080E-06  2615   0.227E-03
   34 T=    66. E= -.41286701E+03 F= -.41319357E+03 E0= -.41317221E+03  EK= 0.32655E+00 SP= 0.00E+00 SK= 0.00E+00
       N       E                     dE             d eps       ncg     rms          rms(c)
RMM:   1    -0.413204989158E+03   -0.11423E-01   -0.93999E+00  4302   0.883E-01    0.937E-01
RMM:   2    -0.413200519520E+03    0.44696E-02   -0.13466E-01  4279   0.131E-01    0.682E-01
RMM:   3    -0.413196480121E+03    0.40394E-02   -0.18044E-02  4590   0.726E-02    0.104E-01
RMM:   4    -0.413218567404E+03   -0.22087E-01   -0.22439E-02  5144   0.126E-01    0.622E-01
RMM:   5    -0.413196153423E+03    0.22414E-01   -0.11278E-02  4816   0.103E-01    0.481E-02
RMM:   6    -0.413196256827E+03   -0.10340E-03   -0.19520E-03  5837   0.417E-02    0.329E-02
RMM:   7    -0.413196259734E+03   -0.29069E-05   -0.37677E-04  5512   0.190E-02    0.209E-02
RMM:   8    -0.413196238254E+03    0.21481E-04   -0.54928E-05  5046   0.853E-03    0.956E-03
RMM:   9    -0.413196234466E+03    0.37880E-05   -0.10664E-05  3687   0.389E-03    0.677E-03
RMM:  10    -0.413196228473E+03    0.59921E-05   -0.19714E-06  2566   0.234E-03    0.386E-03
RMM:  11    -0.413196223491E+03    0.49825E-05   -0.10962E-06  2499   0.174E-03    0.207E-03
RMM:  12    -0.413196216194E+03    0.72964E-05   -0.11807E-06  2502   0.172E-03    0.101E-03
RMM:  13    -0.413196212982E+03    0.32120E-05   -0.43155E-07  2258   0.115E-03    0.537E-04
RMM:  14    -0.413196211663E+03    0.13194E-05   -0.20511E-07  1738   0.804E-04    0.360E-04
RMM:  15    -0.413196206441E+03    0.52219E-05   -0.15651E-07  1619   0.748E-04    0.226E-04
RMM:  16    -0.413196202924E+03    0.35174E-05   -0.91615E-08  1253   0.646E-04    0.190E-04
RMM:  17    -0.413196198823E+03    0.41003E-05   -0.66775E-08  1067   0.611E-04    0.165E-04
RMM:  18    -0.413196194227E+03    0.45964E-05   -0.63430E-08  1102   0.614E-04    0.560E-05
RMM:  19    -0.413196192718E+03    0.15092E-05   -0.33179E-08   899   0.564E-04    0.306E-05
RMM:  20    -0.413196192113E+03    0.60447E-06   -0.18647E-08   773   0.541E-04
   35 T=    67. E= -.41286714E+03 F= -.41319619E+03 E0= -.41317488E+03  EK= 0.32905E+00 SP= 0.00E+00 SK= 0.00E+00
       N       E                     dE             d eps       ncg     rms          rms(c)
RMM:   1    -0.413202077759E+03   -0.58850E-02   -0.93343E+00  4301   0.887E-01    0.936E-01
RMM:   2    -0.413202420888E+03   -0.34313E-03   -0.12385E-01  4253   0.133E-01    0.676E-01
RMM:   3    -0.413198441081E+03    0.39798E-02   -0.18957E-02  4440   0.720E-02    0.796E-02
RMM:   4    -0.413206943512E+03   -0.85024E-02   -0.85968E-03  5163   0.784E-02    0.391E-01
RMM:   5    -0.413198374506E+03    0.85690E-02   -0.44196E-03  4827   0.649E-02    0.444E-02
RMM:   6    -0.413198397729E+03   -0.23223E-04   -0.99577E-04  5734   0.309E-02    0.322E-02
RMM:   7    -0.413198383101E+03    0.14629E-04   -0.31210E-04  5249   0.180E-02    0.196E-02
RMM:   8    -0.413198367719E+03    0.15381E-04   -0.32843E-05  4890   0.686E-03    0.885E-03
RMM:   9    -0.413198365062E+03    0.26570E-05   -0.51931E-06  2900   0.279E-03    0.531E-03
RMM:  10    -0.413198360034E+03    0.50279E-05   -0.16049E-06  2525   0.211E-03    0.277E-03
RMM:  11    -0.413198355112E+03    0.49221E-05   -0.96556E-07  2471   0.163E-03    0.139E-03
RMM:  12    -0.413198350307E+03    0.48055E-05   -0.56894E-07  2346   0.126E-03    0.688E-04
RMM:  13    -0.413198347142E+03    0.31651E-05   -0.29436E-07  1957   0.921E-04    0.331E-04
RMM:  14    -0.413198344225E+03    0.29165E-05   -0.14820E-07  1418   0.720E-04    0.205E-04
RMM:  15    -0.413198340081E+03    0.41443E-05   -0.87584E-08  1112   0.653E-04    0.117E-04
RMM:  16    -0.413198336305E+03    0.37762E-05   -0.64791E-08  1036   0.632E-04    0.761E-05
RMM:  17    -0.413198333952E+03    0.23527E-05   -0.38992E-08   859   0.596E-04    0.499E-05
RMM:  18    -0.413198329435E+03    0.45172E-05   -0.57155E-08  1161   0.628E-04    0.345E-05
RMM:  19    -0.413198328553E+03    0.88206E-06   -0.21268E-08   740   0.540E-04
   36 T=    67. E= -.41286692E+03 F= -.41319833E+03 E0= -.41317706E+03  EK= 0.33141E+00 SP= 0.00E+00 SK= 0.00E+00
       N       E                     dE             d eps       ncg     rms          rms(c)
RMM:   1    -0.413205614426E+03   -0.72850E-02   -0.94093E+00  4305   0.890E-01    0.925E-01
RMM:   2    -0.413206092345E+03   -0.47792E-03   -0.12386E-01  4252   0.130E-01    0.683E-01
RMM:   3    -0.413201410402E+03    0.46819E-02   -0.20417E-02  4492   0.704E-02    0.772E-02
RMM:   4    -0.413213390605E+03   -0.11980E-01   -0.12039E-02  5143   0.926E-02    0.464E-01
RMM:   5    -0.413201225494E+03    0.12165E-01   -0.61680E-03  4821   0.766E-02    0.447E-02
RMM:   6    -0.413201246306E+03   -0.20812E-04   -0.12267E-03  5756   0.338E-02    0.311E-02
RMM:   7    -0.413201249532E+03   -0.32259E-05   -0.32736E-04  5368   0.180E-02    0.201E-02
RMM:   8    -0.413201233333E+03    0.16199E-04   -0.37233E-05  4908   0.734E-03    0.910E-03
RMM:   9    -0.413201232249E+03    0.10839E-05   -0.66006E-06  3085   0.314E-03    0.568E-03
RMM:  10    -0.413201230283E+03    0.19655E-05   -0.17154E-06  2531   0.222E-03    0.298E-03
RMM:  11    -0.413201227915E+03    0.23685E-05   -0.11843E-06  2502   0.176E-03    0.149E-03
RMM:  12    -0.413201225235E+03    0.26799E-05   -0.71796E-07  2417   0.138E-03    0.782E-04
RMM:  13    -0.413201223571E+03    0.16640E-05   -0.33438E-07  2049   0.978E-04    0.383E-04
RMM:  14    -0.413201221938E+03    0.16326E-05   -0.17400E-07  1534   0.753E-04    0.236E-04
RMM:  15    -0.413201219033E+03    0.29055E-05   -0.11361E-07  1287   0.684E-04    0.121E-04
RMM:  16    -0.413201216570E+03    0.24628E-05   -0.72778E-08  1059   0.634E-04    0.871E-05
RMM:  17    -0.413201214693E+03    0.18770E-05   -0.44778E-08   908   0.596E-04    0.553E-05
RMM:  18    -0.413201211282E+03    0.34108E-05   -0.55147E-08  1107   0.619E-04    0.277E-05
RMM:  19    -0.413201210418E+03    0.86379E-06   -0.22180E-08   782   0.554E-04
   37 T=    68. E= -.41286715E+03 F= -.41320121E+03 E0= -.41317999E+03  EK= 0.33406E+00 SP= 0.00E+00 SK= 0.00E+00
       N       E                     dE             d eps       ncg     rms          rms(c)
RMM:   1    -0.413210939077E+03   -0.97278E-02   -0.95121E+00  4309   0.938E-01    0.943E-01
RMM:   2    -0.413208931309E+03    0.20078E-02   -0.12852E-01  4254   0.128E-01    0.690E-01
RMM:   3    -0.413204285990E+03    0.46453E-02   -0.19977E-02  4709   0.667E-02    0.106E-01
RMM:   4    -0.413231665202E+03   -0.27379E-01   -0.28193E-02  5134   0.141E-01    0.693E-01
RMM:   5    -0.413203812281E+03    0.27853E-01   -0.13926E-02  4803   0.115E-01    0.505E-02
RMM:   6    -0.413203865171E+03   -0.52890E-04   -0.23481E-03  5832   0.459E-02    0.327E-02
RMM:   7    -0.413203877139E+03   -0.11968E-04   -0.34901E-04  5607   0.182E-02    0.190E-02
RMM:   8    -0.413203865162E+03    0.11977E-04   -0.60488E-05  5029   0.834E-03    0.105E-02
RMM:   9    -0.413203863730E+03    0.14313E-05   -0.15812E-05  4284   0.461E-03    0.748E-03
RMM:  10    -0.413203859519E+03    0.42111E-05   -0.23416E-06  2630   0.252E-03    0.411E-03
RMM:  11    -0.413203857166E+03    0.23533E-05   -0.11391E-06  2500   0.174E-03    0.253E-03
RMM:  12    -0.413203851324E+03    0.58421E-05   -0.17356E-06  2538   0.208E-03    0.135E-03
RMM:  13    -0.413203848346E+03    0.29773E-05   -0.62315E-07  2379   0.139E-03    0.801E-04
RMM:  14    -0.413203847740E+03    0.60588E-06   -0.25628E-07  1987   0.897E-04
   38 T=    69. E= -.41286713E+03 F= -.41320385E+03 E0= -.41318267E+03  EK= 0.33672E+00 SP= 0.00E+00 SK= 0.00E+00
       N       E                     dE             d eps       ncg     rms          rms(c)
RMM:   1    -0.413219517500E+03   -0.15669E-01   -0.95722E+00  4311   0.103E+00    0.953E-01
RMM:   2    -0.413211458626E+03    0.80589E-02   -0.12954E-01  4260   0.126E-01    0.686E-01
RMM:   3    -0.413206920942E+03    0.45377E-02   -0.19475E-02  4816   0.618E-02    0.122E-01
RMM:   4    -0.413239247309E+03   -0.32326E-01   -0.33793E-02  5128   0.154E-01    0.751E-01
RMM:   5    -0.413206333331E+03    0.32914E-01   -0.16345E-02  4802   0.125E-01    0.532E-02
RMM:   6    -0.413206404986E+03   -0.71655E-04   -0.27777E-03  5823   0.496E-02    0.348E-02
RMM:   7    -0.413206411885E+03   -0.68986E-05   -0.38629E-04  5642   0.190E-02    0.196E-02
RMM:   8    -0.413206398909E+03    0.12976E-04   -0.66659E-05  5077   0.861E-03    0.111E-02
RMM:   9    -0.413206395618E+03    0.32907E-05   -0.18706E-05  4438   0.487E-03    0.778E-03
RMM:  10    -0.413206388364E+03    0.72542E-05   -0.26157E-06  2645   0.263E-03    0.435E-03
RMM:  11    -0.413206384231E+03    0.41333E-05   -0.12263E-06  2504   0.182E-03    0.266E-03
RMM:  12    -0.413206374236E+03    0.99951E-05   -0.17603E-06  2531   0.213E-03    0.137E-03
RMM:  13    -0.413206369311E+03    0.49246E-05   -0.68060E-07  2403   0.145E-03    0.866E-04
RMM:  14    -0.413206368461E+03    0.85050E-06   -0.27656E-07  2082   0.937E-04
   39 T=    69. E= -.41286697E+03 F= -.41320637E+03 E0= -.41318523E+03  EK= 0.33940E+00 SP= 0.00E+00 SK= 0.00E+00
       N       E                     dE             d eps       ncg     rms          rms(c)
RMM:   1    -0.413219320987E+03   -0.12952E-01   -0.95657E+00  4310   0.102E+00    0.935E-01
RMM:   2    -0.413214969718E+03    0.43513E-02   -0.13284E-01  4261   0.128E-01    0.689E-01
RMM:   3    -0.413210292602E+03    0.46771E-02   -0.20137E-02  4870   0.665E-02    0.138E-01
RMM:   4    -0.413249656920E+03   -0.39364E-01   -0.42496E-02  5136   0.172E-01    0.827E-01
RMM:   5    -0.413209338351E+03    0.40319E-01   -0.19725E-02  4791   0.137E-01    0.553E-02
RMM:   6    -0.413209449362E+03   -0.11101E-03   -0.33259E-03  5826   0.540E-02    0.351E-02
RMM:   7    -0.413209458955E+03   -0.95931E-05   -0.39842E-04  5657   0.190E-02    0.184E-02
RMM:   8    -0.413209452044E+03    0.69105E-05   -0.47933E-05  4751   0.705E-03    0.935E-03
RMM:   9    -0.413209449965E+03    0.20787E-05   -0.13097E-05  3822   0.387E-03    0.641E-03
RMM:  10    -0.413209446341E+03    0.36248E-05   -0.26417E-06  2656   0.235E-03    0.420E-03
RMM:  11    -0.413209442664E+03    0.36769E-05   -0.14390E-06  2500   0.197E-03    0.241E-03
RMM:  12    -0.413209435362E+03    0.73016E-05   -0.17806E-06  2537   0.209E-03    0.116E-03
RMM:  13    -0.413209433153E+03    0.22094E-05   -0.52811E-07  2398   0.133E-03    0.768E-04
RMM:  14    -0.413209432789E+03    0.36314E-06   -0.22825E-07  1949   0.857E-04
   40 T=    70. E= -.41286722E+03 F= -.41320943E+03 E0= -.41318833E+03  EK= 0.34221E+00 SP= 0.00E+00 SK= 0.00E+00
       N       E                     dE             d eps       ncg     rms          rms(c)
RMM:   1    -0.413216412538E+03   -0.69794E-02   -0.96234E+00  4308   0.103E+00    0.949E-01
RMM:   2    -0.413217164410E+03   -0.75187E-03   -0.13220E-01  4268   0.133E-01    0.699E-01
RMM:   3    -0.413213046206E+03    0.41182E-02   -0.21694E-02  4955   0.715E-02    0.175E-01
RMM:   4    -0.413258072916E+03   -0.45027E-01   -0.51698E-02  5125   0.190E-01    0.886E-01
RMM:   5    -0.413211378328E+03    0.46695E-01   -0.22203E-02  4786   0.147E-01    0.585E-02
RMM:   6    -0.413211518166E+03   -0.13984E-03   -0.37929E-03  5821   0.576E-02    0.363E-02
RMM:   7    -0.413211529663E+03   -0.11498E-04   -0.47012E-04  5728   0.202E-02    0.204E-02
RMM:   8    -0.413211530724E+03   -0.10608E-05   -0.94929E-05  5199   0.970E-03    0.130E-02
RMM:   9    -0.413211521087E+03    0.96373E-05   -0.23889E-05  4597   0.547E-03    0.754E-03
RMM:  10    -0.413211517703E+03    0.33843E-05   -0.39467E-06  2780   0.292E-03    0.448E-03
RMM:  11    -0.413211515102E+03    0.26006E-05   -0.14668E-06  2503   0.202E-03    0.272E-03
RMM:  12    -0.413211508885E+03    0.62170E-05   -0.16671E-06  2528   0.209E-03    0.114E-03
RMM:  13    -0.413211504690E+03    0.41948E-05   -0.72977E-07  2434   0.147E-03    0.781E-04
RMM:  14    -0.413211504032E+03    0.65838E-06   -0.30427E-07  2114   0.974E-04
   41 T=    70. E= -.41286689E+03 F= -.41321150E+03 E0= -.41319043E+03  EK= 0.34461E+00 SP= 0.00E+00 SK= 0.00E+00
       N       E                     dE             d eps       ncg     rms          rms(c)
RMM:   1    -0.413235109201E+03   -0.23605E-01   -0.97747E+00  4312   0.118E+00    0.966E-01
RMM:   2    -0.413219183245E+03    0.15926E-01   -0.14701E-01  4306   0.137E-01    0.697E-01
RMM:   3    -0.413216537920E+03    0.26453E-02   -0.20177E-02  5039   0.742E-02    0.234E-01
RMM:   4    -0.413261972901E+03   -0.45435E-01   -0.57295E-02  5109   0.201E-01    0.898E-01
RMM:   5    -0.413213900105E+03    0.48073E-01   -0.22110E-02  4768   0.149E-01    0.623E-02
RMM:   6    -0.413214034002E+03   -0.13390E-03   -0.38700E-03  5790   0.585E-02    0.384E-02
RMM:   7    -0.413214038469E+03   -0.44668E-05   -0.51424E-04  5725   0.213E-02    0.233E-02
RMM:   8    -0.413214036884E+03    0.15848E-05   -0.13113E-04  5243   0.116E-02    0.145E-02
RMM:   9    -0.413214021823E+03    0.15061E-04   -0.24372E-05  4595   0.600E-03    0.676E-03
RMM:  10    -0.413214016073E+03    0.57500E-05   -0.53787E-06  3019   0.302E-03    0.415E-03
RMM:  11    -0.413214011548E+03    0.45250E-05   -0.13187E-06  2499   0.198E-03    0.243E-03
RMM:  12    -0.413214002481E+03    0.90675E-05   -0.12350E-06  2487   0.187E-03    0.984E-04
RMM:  13    -0.413213996451E+03    0.60296E-05   -0.58532E-07  2391   0.133E-03    0.590E-04
RMM:  14    -0.413213995258E+03    0.11928E-05   -0.27846E-07  2041   0.926E-04    0.404E-04
RMM:  15    -0.413213992834E+03    0.24242E-05   -0.14388E-07  1506   0.725E-04    0.250E-04
RMM:  16    -0.413213984981E+03    0.78535E-05   -0.14238E-07  1642   0.748E-04    0.315E-04
RMM:  17    -0.413213983103E+03    0.18778E-05   -0.56758E-08   985   0.590E-04    0.214E-04
RMM:  18    -0.413213977161E+03    0.59416E-05   -0.72714E-08  1330   0.639E-04    0.160E-04
RMM:  19    -0.413213975371E+03    0.17899E-05   -0.33868E-08   917   0.555E-04    0.593E-05
RMM:  20    -0.413213973659E+03    0.17127E-05   -0.34357E-08  1017   0.571E-04    0.872E-05
RMM:  21    -0.413213973585E+03    0.73822E-07   -0.13173E-08   703   0.522E-04
   42 T=    71. E= -.41286704E+03 F= -.41321397E+03 E0= -.41319293E+03  EK= 0.34693E+00 SP= 0.00E+00 SK= 0.00E+00
       N       E                     dE             d eps       ncg     rms          rms(c)
RMM:   1    -0.413233670900E+03   -0.19697E-01   -0.97014E+00  4312   0.121E+00    0.945E-01
RMM:   2    -0.413221358681E+03    0.12312E-01   -0.14675E-01  4329   0.142E-01    0.696E-01
RMM:   3    -0.413220184938E+03    0.11737E-02   -0.21763E-02  5064   0.848E-02    0.286E-01
RMM:   4    -0.413258409464E+03   -0.38225E-01   -0.55941E-02  5097   0.200E-01    0.845E-01
RMM:   5    -0.413215948235E+03    0.42461E-01   -0.18401E-02  4751   0.139E-01    0.618E-02
RMM:   6    -0.413216038152E+03   -0.89916E-04   -0.33552E-03  5762   0.547E-02    0.372E-02
RMM:   7    -0.413216041437E+03   -0.32854E-05   -0.50274E-04  5717   0.209E-02    0.241E-02
RMM:   8    -0.413216037680E+03    0.37577E-05   -0.12659E-04  5202   0.118E-02    0.132E-02
RMM:   9    -0.413216026396E+03    0.11283E-04   -0.18974E-05  4384   0.559E-03    0.572E-03
RMM:  10    -0.413216023204E+03    0.31920E-05   -0.44296E-06  2863   0.274E-03    0.358E-03
RMM:  11    -0.413216020311E+03    0.28932E-05   -0.12550E-06  2497   0.188E-03    0.198E-03
RMM:  12    -0.413216014989E+03    0.53220E-05   -0.99714E-07  2475   0.166E-03    0.797E-04
RMM:  13    -0.413216011472E+03    0.35177E-05   -0.48423E-07  2320   0.119E-03    0.416E-04
RMM:  14    -0.413216010137E+03    0.13343E-05   -0.24304E-07  1888   0.863E-04    0.289E-04
RMM:  15    -0.413216007339E+03    0.27980E-05   -0.14068E-07  1445   0.718E-04    0.140E-04
RMM:  16    -0.413216003674E+03    0.36649E-05   -0.95258E-08  1175   0.665E-04    0.121E-04
RMM:  17    -0.413216001391E+03    0.22836E-05   -0.61858E-08  1045   0.625E-04    0.826E-05
RMM:  18    -0.413215998585E+03    0.28057E-05   -0.52140E-08  1081   0.622E-04    0.518E-05
RMM:  19    -0.413215996129E+03    0.24561E-05   -0.45371E-08  1137   0.606E-04    0.317E-05
RMM:  20    -0.413215995393E+03    0.73598E-06   -0.21155E-08   809   0.548E-04
   43 T=    71. E= -.41286713E+03 F= -.41321600E+03 E0= -.41319498E+03  EK= 0.34886E+00 SP= 0.00E+00 SK= 0.00E+00
       N       E                     dE             d eps       ncg     rms          rms(c)
RMM:   1    -0.413232617061E+03   -0.16621E-01   -0.97686E+00  4314   0.125E+00    0.948E-01
RMM:   2    -0.413222875564E+03    0.97415E-02   -0.15343E-01  4342   0.152E-01    0.708E-01
RMM:   3    -0.413222330501E+03    0.54506E-03   -0.23057E-02  5063   0.918E-02    0.317E-01
RMM:   4    -0.413259280526E+03   -0.36950E-01   -0.57981E-02  5096   0.205E-01    0.842E-01
RMM:   5    -0.413217051782E+03    0.42229E-01   -0.17807E-02  4724   0.139E-01    0.626E-02
RMM:   6    -0.413217127714E+03   -0.75932E-04   -0.32980E-03  5743   0.543E-02    0.362E-02
RMM:   7    -0.413217132779E+03   -0.50657E-05   -0.49991E-04  5740   0.207E-02    0.241E-02
RMM:   8    -0.413217130732E+03    0.20474E-05   -0.12812E-04  5193   0.118E-02    0.128E-02
RMM:   9    -0.413217121236E+03    0.94953E-05   -0.19114E-05  4371   0.567E-03    0.530E-03
RMM:  10    -0.413217119199E+03    0.20379E-05   -0.44204E-06  2858   0.271E-03    0.332E-03
RMM:  11    -0.413217117022E+03    0.21762E-05   -0.12876E-06  2492   0.188E-03    0.179E-03
RMM:  12    -0.413217113222E+03    0.38006E-05   -0.91354E-07  2467   0.158E-03    0.755E-04
RMM:  13    -0.413217110562E+03    0.26599E-05   -0.45737E-07  2226   0.114E-03    0.351E-04
RMM:  14    -0.413217108969E+03    0.15925E-05   -0.23706E-07  1774   0.843E-04    0.228E-04
RMM:  15    -0.413217105579E+03    0.33904E-05   -0.16395E-07  1420   0.744E-04    0.135E-04
RMM:  16    -0.413217103405E+03    0.21735E-05   -0.97692E-08  1182   0.667E-04    0.100E-04
RMM:  17    -0.413217101335E+03    0.20704E-05   -0.71398E-08  1122   0.639E-04    0.644E-05
RMM:  18    -0.413217098696E+03    0.26387E-05   -0.58773E-08  1123   0.625E-04    0.360E-05
RMM:  19    -0.413217096723E+03    0.19737E-05   -0.43311E-08  1060   0.593E-04    0.298E-05
RMM:  20    -0.413217096125E+03    0.59730E-06   -0.20676E-08   795   0.548E-04
   44 T=    71. E= -.41286689E+03 F= -.41321710E+03 E0= -.41319611E+03  EK= 0.35020E+00 SP= 0.00E+00 SK= 0.00E+00
       N       E                     dE             d eps       ncg     rms          rms(c)
RMM:   1    -0.413245385214E+03   -0.28288E-01   -0.98310E+00  4312   0.137E+00    0.971E-01
RMM:   2    -0.413223588528E+03    0.21797E-01   -0.15618E-01  4353   0.160E-01    0.705E-01
RMM:   3    -0.413225902103E+03   -0.23136E-02   -0.24159E-02  5081   0.102E-01    0.384E-01
RMM:   4    -0.413249791888E+03   -0.23890E-01   -0.50673E-02  5065   0.193E-01    0.731E-01
RMM:   5    -0.413218319576E+03    0.31472E-01   -0.12304E-02  4693   0.121E-01    0.614E-02
RMM:   6    -0.413218331794E+03   -0.12218E-04   -0.24461E-03  5661   0.473E-02    0.363E-02
RMM:   7    -0.413218330019E+03    0.17745E-05   -0.41867E-04  5655   0.196E-02    0.239E-02
RMM:   8    -0.413218323808E+03    0.62112E-05   -0.12256E-04  5118   0.119E-02    0.118E-02
RMM:   9    -0.413218311716E+03    0.12092E-04   -0.15904E-05  4283   0.553E-03    0.481E-03
RMM:  10    -0.413218307765E+03    0.39509E-05   -0.34587E-06  2772   0.248E-03    0.289E-03
RMM:  11    -0.413218302942E+03    0.48231E-05   -0.12057E-06  2490   0.182E-03    0.154E-03
RMM:  12    -0.413218296642E+03    0.63004E-05   -0.72858E-07  2435   0.144E-03    0.681E-04
RMM:  13    -0.413218292822E+03    0.38203E-05   -0.35598E-07  2067   0.102E-03    0.312E-04
RMM:  14    -0.413218289833E+03    0.29886E-05   -0.19720E-07  1599   0.792E-04    0.191E-04
RMM:  15    -0.413218284358E+03    0.54754E-05   -0.14257E-07  1371   0.730E-04    0.135E-04
RMM:  16    -0.413218281645E+03    0.27129E-05   -0.87629E-08  1169   0.659E-04    0.923E-05
RMM:  17    -0.413218277320E+03    0.43252E-05   -0.80071E-08  1294   0.655E-04    0.537E-05
RMM:  18    -0.413218274578E+03    0.27417E-05   -0.51976E-08  1083   0.600E-04    0.410E-05
RMM:  19    -0.413218272566E+03    0.20118E-05   -0.37734E-08  1005   0.576E-04    0.240E-05
RMM:  20    -0.413218272180E+03    0.38573E-06   -0.18051E-08   733   0.533E-04
   45 T=    71. E= -.41286719E+03 F= -.41321827E+03 E0= -.41319730E+03  EK= 0.35108E+00 SP= 0.00E+00 SK= 0.00E+00
       N       E                     dE             d eps       ncg     rms          rms(c)
RMM:   1    -0.413240500911E+03   -0.22228E-01   -0.96679E+00  4312   0.142E+00    0.953E-01
RMM:   2    -0.413223173232E+03    0.17328E-01   -0.14991E-01  4371   0.170E-01    0.699E-01
RMM:   3    -0.413228029684E+03   -0.48565E-02   -0.26811E-02  5092   0.115E-01    0.438E-01
RMM:   4    -0.413242886330E+03   -0.14857E-01   -0.47094E-02  5044   0.188E-01    0.654E-01
RMM:   5    -0.413217775072E+03    0.25111E-01   -0.89631E-03  4648   0.108E-01    0.593E-02
RMM:   6    -0.413217754763E+03    0.20309E-04   -0.19336E-03  5579   0.422E-02    0.341E-02
RMM:   7    -0.413217750208E+03    0.45553E-05   -0.35153E-04  5581   0.183E-02    0.226E-02
RMM:   8    -0.413217741993E+03    0.82151E-05   -0.12269E-04  5082   0.118E-02    0.109E-02
RMM:   9    -0.413217730863E+03    0.11130E-04   -0.14194E-05  4181   0.530E-03    0.448E-03
RMM:  10    -0.413217727521E+03    0.33415E-05   -0.28649E-06  2702   0.234E-03    0.263E-03
RMM:  11    -0.413217723039E+03    0.44828E-05   -0.11537E-06  2490   0.176E-03    0.137E-03
RMM:  12    -0.413217717775E+03    0.52630E-05   -0.66751E-07  2399   0.136E-03    0.679E-04
RMM:  13    -0.413217714253E+03    0.35227E-05   -0.32217E-07  1935   0.971E-04    0.299E-04
RMM:  14    -0.413217711129E+03    0.31234E-05   -0.18332E-07  1488   0.764E-04    0.171E-04
RMM:  15    -0.413217706318E+03    0.48111E-05   -0.13473E-07  1287   0.715E-04    0.123E-04
RMM:  16    -0.413217703669E+03    0.26489E-05   -0.87998E-08  1153   0.658E-04    0.866E-05
RMM:  17    -0.413217698632E+03    0.50373E-05   -0.92816E-08  1420   0.675E-04    0.616E-05
RMM:  18    -0.413217696754E+03    0.18783E-05   -0.46527E-08  1004   0.570E-04    0.370E-05
RMM:  19    -0.413217695034E+03    0.17197E-05   -0.35744E-08   946   0.552E-04    0.202E-05
RMM:  20    -0.413217694701E+03    0.33326E-06   -0.18801E-08   727   0.518E-04
   46 T=    71. E= -.41286699E+03 F= -.41321769E+03 E0= -.41319674E+03  EK= 0.35070E+00 SP= 0.00E+00 SK= 0.00E+00
       N       E                     dE             d eps       ncg     rms          rms(c)
RMM:   1    -0.413230312556E+03   -0.12618E-01   -0.95780E+00  4312   0.143E+00    0.945E-01
RMM:   2    -0.413222045815E+03    0.82667E-02   -0.14713E-01  4407   0.175E-01    0.707E-01
RMM:   3    -0.413229018698E+03   -0.69729E-02   -0.30328E-02  5092   0.127E-01    0.482E-01
RMM:   4    -0.413239569925E+03   -0.10551E-01   -0.48022E-02  5038   0.192E-01    0.629E-01
RMM:   5    -0.413216264971E+03    0.23305E-01   -0.78887E-03  4623   0.105E-01    0.586E-02
RMM:   6    -0.413216221662E+03    0.43308E-04   -0.17059E-03  5477   0.400E-02    0.316E-02
RMM:   7    -0.413216224292E+03   -0.26291E-05   -0.30968E-04  5597   0.174E-02    0.215E-02
RMM:   8    -0.413216217386E+03    0.69058E-05   -0.12587E-04  5082   0.118E-02    0.103E-02
RMM:   9    -0.413216207817E+03    0.95683E-05   -0.13531E-05  4110   0.524E-03    0.429E-03
RMM:  10    -0.413216205744E+03    0.20737E-05   -0.27784E-06  2690   0.229E-03    0.249E-03
RMM:  11    -0.413216202656E+03    0.30878E-05   -0.11770E-06  2486   0.176E-03    0.129E-03
RMM:  12    -0.413216199295E+03    0.33606E-05   -0.65318E-07  2382   0.134E-03    0.678E-04
RMM:  13    -0.413216196719E+03    0.25761E-05   -0.32128E-07  1857   0.951E-04    0.306E-04
RMM:  14    -0.413216194118E+03    0.26015E-05   -0.18799E-07  1435   0.762E-04    0.167E-04
RMM:  15    -0.413216190767E+03    0.33511E-05   -0.14324E-07  1326   0.715E-04    0.115E-04
RMM:  16    -0.413216188629E+03    0.21375E-05   -0.91327E-08  1170   0.651E-04    0.859E-05
RMM:  17    -0.413216184284E+03    0.43449E-05   -0.10076E-07  1403   0.676E-04    0.613E-05
RMM:  18    -0.413216182992E+03    0.12924E-05   -0.44554E-08   959   0.563E-04    0.383E-05
RMM:  19    -0.413216181598E+03    0.13935E-05   -0.32926E-08   906   0.543E-04    0.202E-05
RMM:  20    -0.413216181056E+03    0.54234E-06   -0.17623E-08   731   0.518E-04
   47 T=    71. E= -.41286704E+03 F= -.41321618E+03 E0= -.41319524E+03  EK= 0.34914E+00 SP= 0.00E+00 SK= 0.00E+00
       N       E                     dE             d eps       ncg     rms          rms(c)
RMM:   1    -0.413240349615E+03   -0.24168E-01   -0.95580E+00  4310   0.160E+00    0.958E-01
RMM:   2    -0.413219028891E+03    0.21321E-01   -0.16062E-01  4442   0.191E-01    0.705E-01
RMM:   3    -0.413231847791E+03   -0.12819E-01   -0.32403E-02  5129   0.141E-01    0.584E-01
RMM:   4    -0.413229579875E+03    0.22679E-02   -0.44918E-02  4994   0.189E-01    0.528E-01
RMM:   5    -0.413213519278E+03    0.16061E-01   -0.51740E-03  4573   0.932E-02    0.590E-02
RMM:   6    -0.413213421694E+03    0.97584E-04   -0.10010E-03  5113   0.334E-02    0.312E-02
RMM:   7    -0.413213417212E+03    0.44823E-05   -0.21788E-04  5590   0.147E-02    0.184E-02
RMM:   8    -0.413213415855E+03    0.13569E-05   -0.13333E-04  5172   0.119E-02    0.120E-02
RMM:   9    -0.413213400580E+03    0.15275E-04   -0.18107E-05  4426   0.589E-03    0.440E-03
RMM:  10    -0.413213397774E+03    0.28054E-05   -0.33941E-06  2757   0.241E-03    0.244E-03
RMM:  11    -0.413213392295E+03    0.54790E-05   -0.13709E-06  2463   0.190E-03    0.131E-03
RMM:  12    -0.413213388381E+03    0.39139E-05   -0.61205E-07  2357   0.135E-03    0.767E-04
RMM:  13    -0.413213384274E+03    0.41077E-05   -0.29891E-07  1825   0.962E-04    0.372E-04
RMM:  14    -0.413213379968E+03    0.43053E-05   -0.16160E-07  1439   0.746E-04    0.200E-04
RMM:  15    -0.413213376060E+03    0.39087E-05   -0.10096E-07  1133   0.664E-04    0.119E-04
RMM:  16    -0.413213372983E+03    0.30764E-05   -0.76313E-08  1146   0.632E-04    0.101E-04
RMM:  17    -0.413213369053E+03    0.39302E-05   -0.67915E-08  1175   0.616E-04    0.580E-05
RMM:  18    -0.413213366226E+03    0.28267E-05   -0.41982E-08   939   0.562E-04    0.471E-05
RMM:  19    -0.413213365362E+03    0.86398E-06   -0.20141E-08   698   0.515E-04
   48 T=    70. E= -.41286722E+03 F= -.41321337E+03 E0= -.41319244E+03  EK= 0.34615E+00 SP= 0.00E+00 SK= 0.00E+00
       N       E                     dE             d eps       ncg     rms          rms(c)
RMM:   1    -0.413241252337E+03   -0.27886E-01   -0.93775E+00  4306   0.172E+00    0.945E-01
RMM:   2    -0.413213508451E+03    0.27744E-01   -0.16347E-01  4500   0.202E-01    0.694E-01
RMM:   3    -0.413233124843E+03   -0.19616E-01   -0.36556E-02  5147   0.157E-01    0.679E-01
RMM:   4    -0.413219129142E+03    0.13996E-01   -0.43096E-02  4966   0.188E-01    0.441E-01
RMM:   5    -0.413208279324E+03    0.10850E-01   -0.40294E-03  4561   0.876E-02    0.615E-02
RMM:   6    -0.413208132314E+03    0.14701E-03   -0.54774E-04  4768   0.292E-02    0.317E-02
RMM:   7    -0.413208131086E+03    0.12277E-05   -0.23388E-04  5854   0.158E-02    0.172E-02
RMM:   8    -0.413208121311E+03    0.97757E-05   -0.92706E-05  5200   0.108E-02    0.113E-02
RMM:   9    -0.413208113082E+03    0.82287E-05   -0.18205E-05  4514   0.542E-03    0.448E-03
RMM:  10    -0.413208109299E+03    0.37835E-05   -0.25151E-06  2653   0.251E-03    0.244E-03
RMM:  11    -0.413208103541E+03    0.57581E-05   -0.15729E-06  2491   0.205E-03    0.165E-03
RMM:  12    -0.413208099748E+03    0.37929E-05   -0.59195E-07  2428   0.139E-03    0.928E-04
RMM:  13    -0.413208095603E+03    0.41446E-05   -0.31212E-07  2110   0.974E-04    0.499E-04
RMM:  14    -0.413208089677E+03    0.59259E-05   -0.21756E-07  1768   0.820E-04    0.383E-04
RMM:  15    -0.413208085422E+03    0.42551E-05   -0.10700E-07  1133   0.640E-04    0.169E-04
[...]
RMM:   8    -0.413160070527E+03   -0.88874E-05   -0.73667E-05  5317   0.875E-03    0.895E-03
RMM:   9    -0.413160073098E+03   -0.25711E-05   -0.10940E-05  3513   0.388E-03    0.399E-03
RMM:  10    -0.413160078783E+03   -0.56855E-05   -0.29860E-06  2660   0.229E-03    0.268E-03
RMM:  11    -0.413160085930E+03   -0.71469E-05   -0.15315E-06  2526   0.185E-03    0.142E-03
RMM:  12    -0.413160091284E+03   -0.53535E-05   -0.87262E-07  2472   0.141E-03    0.485E-04
RMM:  13    -0.413160093459E+03   -0.21749E-05   -0.38813E-07  2011   0.990E-04    0.318E-04
RMM:  14    -0.413160095429E+03   -0.19700E-05   -0.24399E-07  1575   0.808E-04    0.204E-04
RMM:  15    -0.413160098207E+03   -0.27785E-05   -0.25053E-07  1399   0.773E-04    0.102E-04
RMM:  16    -0.413160099340E+03   -0.11324E-05   -0.14423E-07  1339   0.696E-04    0.779E-05
RMM:  17    -0.413160100521E+03   -0.11810E-05   -0.12990E-07  1309   0.669E-04    0.536E-05
RMM:  18    -0.413160101113E+03   -0.59293E-06   -0.80270E-08  1106   0.598E-04
  136 T=    60. E= -.41286683E+03 F= -.41316010E+03 E0= -.41313934E+03  EK= 0.29327E+00 SP= 0.00E+00 SK= 0.00E+00
       N       E                     dE             d eps       ncg     rms          rms(c)
RMM:   1    -0.413153639210E+03    0.64613E-02   -0.99077E+00  4264   0.811E-01    0.854E-01
RMM:   2    -0.413161668269E+03   -0.80291E-02   -0.11626E-01  4305   0.952E-02    0.616E-01
RMM:   3    -0.413160678379E+03    0.98989E-03   -0.89655E-03  5016   0.489E-02    0.158E-01
RMM:   4    -0.413197643126E+03   -0.36965E-01   -0.40910E-02  5138   0.168E-01    0.801E-01
RMM:   5    -0.413159844803E+03    0.37798E-01   -0.18203E-02  4794   0.134E-01    0.544E-02
RMM:   6    -0.413159886050E+03   -0.41246E-04   -0.30294E-03  5688   0.524E-02    0.247E-02
RMM:   7    -0.413159926230E+03   -0.40180E-04   -0.39738E-04  6021   0.166E-02    0.158E-02
RMM:   8    -0.413159939343E+03   -0.13113E-04   -0.66372E-05  5300   0.817E-03    0.851E-03
RMM:   9    -0.413159944236E+03   -0.48930E-05   -0.10972E-05  3480   0.377E-03    0.380E-03
RMM:  10    -0.413159951660E+03   -0.74239E-05   -0.30786E-06  2659   0.229E-03    0.260E-03
RMM:  11    -0.413159959511E+03   -0.78519E-05   -0.13474E-06  2513   0.177E-03    0.134E-03
RMM:  12    -0.413159966236E+03   -0.67241E-05   -0.89256E-07  2462   0.138E-03    0.453E-04
RMM:  13    -0.413159968888E+03   -0.26529E-05   -0.39020E-07  1987   0.978E-04    0.310E-04
RMM:  14    -0.413159971126E+03   -0.22372E-05   -0.24129E-07  1506   0.802E-04    0.181E-04
RMM:  15    -0.413159973979E+03   -0.28534E-05   -0.23346E-07  1349   0.767E-04    0.913E-05
RMM:  16    -0.413159975311E+03   -0.13323E-05   -0.14961E-07  1323   0.706E-04    0.751E-05
RMM:  17    -0.413159976303E+03   -0.99164E-06   -0.11614E-07  1268   0.659E-04
  137 T=    60. E= -.41286637E+03 F= -.41315998E+03 E0= -.41313922E+03  EK= 0.29361E+00 SP= 0.00E+00 SK= 0.00E+00
       N       E                     dE             d eps       ncg     rms          rms(c)
RMM:   1    -0.413153881194E+03    0.60941E-02   -0.10123E+01  4264   0.822E-01    0.877E-01
RMM:   2    -0.413161702912E+03   -0.78217E-02   -0.11616E-01  4301   0.975E-02    0.607E-01
RMM:   3    -0.413161010034E+03    0.69288E-03   -0.82040E-03  4981   0.459E-02    0.159E-01
RMM:   4    -0.413194451591E+03   -0.33442E-01   -0.35653E-02  5141   0.157E-01    0.762E-01
RMM:   5    -0.413160484867E+03    0.33967E-01   -0.16559E-02  4801   0.127E-01    0.521E-02
RMM:   6    -0.413160525729E+03   -0.40862E-04   -0.28110E-03  5707   0.498E-02    0.245E-02
RMM:   7    -0.413160556030E+03   -0.30301E-04   -0.36037E-04  5994   0.158E-02    0.152E-02
RMM:   8    -0.413160561677E+03   -0.56470E-05   -0.55713E-05  5173   0.746E-03    0.799E-03
RMM:   9    -0.413160562335E+03   -0.65828E-06   -0.91316E-06  3302   0.344E-03
  138 T=    60. E= -.41286690E+03 F= -.41316056E+03 E0= -.41313982E+03  EK= 0.29367E+00 SP= 0.00E+00 SK= 0.00E+00
       N       E                     dE             d eps       ncg     rms          rms(c)
RMM:   1    -0.413152871177E+03    0.76905E-02   -0.10178E+01  4270   0.828E-01    0.855E-01
RMM:   2    -0.413161586281E+03   -0.87151E-02   -0.11817E-01  4315   0.999E-02    0.601E-01
RMM:   3    -0.413162694348E+03   -0.11081E-02   -0.88220E-03  5129   0.598E-02    0.244E-01
RMM:   4    -0.413191252145E+03   -0.28558E-01   -0.39488E-02  5120   0.167E-01    0.729E-01
RMM:   5    -0.413160409103E+03    0.30843E-01   -0.14092E-02  4771   0.123E-01    0.610E-02
RMM:   6    -0.413160303982E+03    0.10512E-03   -0.23076E-03  5507   0.477E-02    0.209E-02
RMM:   7    -0.413160341757E+03   -0.37775E-04   -0.36620E-04  6084   0.170E-02    0.148E-02
RMM:   8    -0.413160349151E+03   -0.73943E-05   -0.58202E-05  5345   0.754E-03    0.806E-03
RMM:   9    -0.413160354291E+03   -0.51400E-05   -0.12247E-05  3885   0.418E-03    0.369E-03
RMM:  10    -0.413160357877E+03   -0.35858E-05   -0.19203E-06  2573   0.202E-03    0.234E-03
RMM:  11    -0.413160363974E+03   -0.60963E-05   -0.15608E-06  2549   0.186E-03    0.143E-03
RMM:  12    -0.413160367830E+03   -0.38564E-05   -0.79752E-07  2489   0.134E-03    0.599E-04
RMM:  13    -0.413160369795E+03   -0.19648E-05   -0.36857E-07  1707   0.880E-04    0.316E-04
RMM:  14    -0.413160371470E+03   -0.16755E-05   -0.26994E-07  1378   0.779E-04    0.166E-04
RMM:  15    -0.413160373127E+03   -0.16566E-05   -0.29104E-07  1508   0.791E-04    0.121E-04
RMM:  16    -0.413160374009E+03   -0.88232E-06   -0.18815E-07  1461   0.717E-04
  139 T=    60. E= -.41286672E+03 F= -.41316037E+03 E0= -.41313964E+03  EK= 0.29365E+00 SP= 0.00E+00 SK= 0.00E+00
       N       E                     dE             d eps       ncg     rms          rms(c)
RMM:   1    -0.413152484024E+03    0.78891E-02   -0.10355E+01  4264   0.837E-01    0.850E-01
RMM:   2    -0.413162139666E+03   -0.96556E-02   -0.12347E-01  4306   0.984E-02    0.613E-01
RMM:   3    -0.413160924727E+03    0.12149E-02   -0.66080E-03  4896   0.392E-02    0.138E-01
RMM:   4    -0.413180837777E+03   -0.19913E-01   -0.20455E-02  5150   0.120E-01    0.590E-01
RMM:   5    -0.413160760950E+03    0.20077E-01   -0.10051E-02  4817   0.982E-02    0.388E-02
RMM:   6    -0.413160770571E+03   -0.96215E-05   -0.16623E-03  5697   0.388E-02    0.169E-02
RMM:   7    -0.413160797770E+03   -0.27199E-04   -0.20469E-04  5704   0.121E-02    0.110E-02
RMM:   8    -0.413160809856E+03   -0.12085E-04   -0.31117E-05  4572   0.563E-03    0.603E-03
RMM:   9    -0.413160816987E+03   -0.71307E-05   -0.49715E-06  2866   0.276E-03    0.292E-03
RMM:  10    -0.413160824605E+03   -0.76179E-05   -0.18275E-06  2559   0.189E-03    0.188E-03
RMM:  11    -0.413160831995E+03   -0.73905E-05   -0.11087E-06  2495   0.149E-03    0.886E-04
RMM:  12    -0.413160836783E+03   -0.47877E-05   -0.64188E-07  2152   0.112E-03    0.322E-04
RMM:  13    -0.413160839430E+03   -0.26474E-05   -0.35322E-07  1683   0.878E-04    0.221E-04
RMM:  14    -0.413160841958E+03   -0.25278E-05   -0.31684E-07  1532   0.812E-04    0.115E-04
RMM:  15    -0.413160843310E+03   -0.13524E-05   -0.19534E-07  1402   0.722E-04    0.877E-05
RMM:  16    -0.413160844218E+03   -0.90781E-06   -0.16767E-07  1334   0.678E-04
  140 T=    60. E= -.41286664E+03 F= -.41316084E+03 E0= -.41314012E+03  EK= 0.29420E+00 SP= 0.00E+00 SK= 0.00E+00
       N       E                     dE             d eps       ncg     rms          rms(c)
RMM:   1    -0.413153210013E+03    0.76333E-02   -0.10485E+01  4264   0.845E-01    0.874E-01
RMM:   2    -0.413162344535E+03   -0.91345E-02   -0.12144E-01  4298   0.995E-02    0.607E-01
RMM:   3    -0.413161499702E+03    0.84483E-03   -0.64848E-03  4821   0.370E-02    0.145E-01
RMM:   4    -0.413173735420E+03   -0.12236E-01   -0.12630E-02  5172   0.949E-02    0.464E-01
RMM:   5    -0.413161438169E+03    0.12297E-01   -0.62309E-03  4830   0.773E-02    0.347E-02
RMM:   6    -0.413161427337E+03    0.10832E-04   -0.10431E-03  5681   0.315E-02    0.165E-02
RMM:   7    -0.413161441332E+03   -0.13995E-04   -0.13689E-04  5517   0.101E-02    0.993E-03
RMM:   8    -0.413161445061E+03   -0.37294E-05   -0.20913E-05  4174   0.475E-03    0.514E-03
RMM:   9    -0.413161447161E+03   -0.21002E-05   -0.29687E-06  2662   0.233E-03    0.241E-03
RMM:  10    -0.413161449921E+03   -0.27600E-05   -0.13343E-06  2526   0.165E-03    0.148E-03
RMM:  11    -0.413161452004E+03   -0.20828E-05   -0.85587E-07  2418   0.130E-03    0.686E-04
RMM:  12    -0.413161453181E+03   -0.11767E-05   -0.49680E-07  1995   0.997E-04    0.254E-04
RMM:  13    -0.413161453821E+03   -0.64072E-06   -0.28267E-07  1496   0.817E-04
  141 T=    60. E= -.41286694E+03 F= -.41316145E+03 E0= -.41314074E+03  EK= 0.29451E+00 SP= 0.00E+00 SK= 0.00E+00
       N       E                     dE             d eps       ncg     rms          rms(c)
RMM:   1    -0.413152316909E+03    0.91363E-02   -0.10451E+01  4266   0.847E-01    0.862E-01
RMM:   2    -0.413161468507E+03   -0.91516E-02   -0.12210E-01  4298   0.994E-02    0.600E-01
RMM:   3    -0.413160926919E+03    0.54159E-03   -0.61664E-03  4730   0.346E-02    0.143E-01
RMM:   4    -0.413163687354E+03   -0.27604E-02   -0.34492E-03  5171   0.513E-02    0.223E-01
RMM:   5    -0.413160907177E+03    0.27802E-02   -0.14517E-03  4840   0.380E-02    0.281E-02
RMM:   6    -0.413160885512E+03    0.21664E-04   -0.30362E-04  5476   0.183E-02    0.140E-02
RMM:   7    -0.413160894677E+03   -0.91644E-05   -0.50738E-05  5126   0.713E-03    0.793E-03
RMM:   8    -0.413160897071E+03   -0.23941E-05   -0.10007E-05  3522   0.380E-03    0.324E-03
RMM:   9    -0.413160899294E+03   -0.22227E-05   -0.19151E-06  2549   0.213E-03    0.171E-03
RMM:  10    -0.413160901433E+03   -0.21393E-05   -0.95203E-07  2487   0.148E-03    0.985E-04
RMM:  11    -0.413160903030E+03   -0.15974E-05   -0.67746E-07  2216   0.114E-03    0.456E-04
RMM:  12    -0.413160903653E+03   -0.62291E-06   -0.37539E-07  1759   0.876E-04
  142 T=    60. E= -.41286642E+03 F= -.41316090E+03 E0= -.41314020E+03  EK= 0.29448E+00 SP= 0.00E+00 SK= 0.00E+00
       N       E                     dE             d eps       ncg     rms          rms(c)
RMM:   1    -0.413152971214E+03    0.79318E-02   -0.10478E+01  4264   0.856E-01    0.846E-01
RMM:   2    -0.413163215020E+03   -0.10244E-01   -0.12571E-01  4304   0.987E-02    0.611E-01
RMM:   3    -0.413161974432E+03    0.12406E-02   -0.57910E-03  4729   0.326E-02    0.136E-01
RMM:   4    -0.413162023282E+03   -0.48850E-04   -0.90617E-04  5074   0.238E-02    0.290E-02
RMM:   5    -0.413162007148E+03    0.16135E-04   -0.12086E-04  4881   0.126E-02    0.216E-02
RMM:   6    -0.413161992065E+03    0.15082E-04   -0.34091E-05  5073   0.615E-03    0.116E-02
RMM:   7    -0.413162008092E+03   -0.16026E-04   -0.15322E-05  4328   0.476E-03    0.678E-03
RMM:   8    -0.413162018961E+03   -0.10869E-04   -0.40179E-06  2788   0.286E-03    0.198E-03
RMM:   9    -0.413162025935E+03   -0.69745E-05   -0.16037E-06  2521   0.182E-03    0.965E-04
RMM:  10    -0.413162030922E+03   -0.49868E-05   -0.77734E-07  2237   0.127E-03    0.621E-04
RMM:  11    -0.413162035274E+03   -0.43524E-05   -0.50411E-07  1923   0.965E-04    0.359E-04
RMM:  12    -0.413162039040E+03   -0.37660E-05   -0.48252E-07  1684   0.824E-04    0.190E-04
RMM:  13    -0.413162041351E+03   -0.23110E-05   -0.39413E-07  1505   0.770E-04    0.157E-04
RMM:  14    -0.413162041789E+03   -0.43803E-06   -0.14065E-07  1093   0.589E-04
  143 T=    60. E= -.41286671E+03 F= -.41316204E+03 E0= -.41314135E+03  EK= 0.29533E+00 SP= 0.00E+00 SK= 0.00E+00
       N       E                     dE             d eps       ncg     rms          rms(c)
RMM:   1    -0.413153913468E+03    0.81279E-02   -0.10500E+01  4264   0.854E-01    0.866E-01
RMM:   2    -0.413163679104E+03   -0.97656E-02   -0.12401E-01  4299   0.102E-01    0.610E-01
RMM:   3    -0.413162586352E+03    0.10928E-02   -0.60794E-03  4667   0.370E-02    0.142E-01
RMM:   4    -0.413165268221E+03   -0.26819E-02   -0.33822E-03  5183   0.509E-02    0.222E-01
RMM:   5    -0.413162541367E+03    0.27269E-02   -0.14215E-03  4828   0.377E-02    0.277E-02
RMM:   6    -0.413162517238E+03    0.24129E-04   -0.30553E-04  5482   0.180E-02    0.130E-02
RMM:   7    -0.413162527011E+03   -0.97723E-05   -0.50472E-05  5090   0.715E-03    0.782E-03
RMM:   8    -0.413162530046E+03   -0.30357E-05   -0.10320E-05  3601   0.390E-03    0.340E-03
RMM:   9    -0.413162532734E+03   -0.26872E-05   -0.17381E-06  2541   0.208E-03    0.164E-03
RMM:  10    -0.413162535436E+03   -0.27027E-05   -0.90296E-07  2485   0.141E-03    0.828E-04
RMM:  11    -0.413162537493E+03   -0.20563E-05   -0.68594E-07  2210   0.111E-03    0.422E-04
RMM:  12    -0.413162538252E+03   -0.75928E-06   -0.35219E-07  1657   0.848E-04
  144 T=    60. E= -.41286671E+03 F= -.41316254E+03 E0= -.41314185E+03  EK= 0.29583E+00 SP= 0.00E+00 SK= 0.00E+00
       N       E                     dE             d eps       ncg     rms          rms(c)
RMM:   1    -0.413154014108E+03    0.85234E-02   -0.10398E+01  4264   0.853E-01    0.869E-01
RMM:   2    -0.413162942233E+03   -0.89281E-02   -0.12237E-01  4304   0.102E-01    0.603E-01
RMM:   3    -0.413162392730E+03    0.54950E-03   -0.64358E-03  4864   0.357E-02    0.147E-01
RMM:   4    -0.413172752121E+03   -0.10359E-01   -0.10799E-02  5173   0.883E-02    0.428E-01
RMM:   5    -0.413162329693E+03    0.10422E-01   -0.52970E-03  4831   0.711E-02    0.363E-02
RMM:   6    -0.413162311051E+03    0.18642E-04   -0.93093E-04  5677   0.291E-02    0.163E-02
RMM:   7    -0.413162321004E+03   -0.99533E-05   -0.12364E-04  5498   0.981E-03    0.951E-03
RMM:   8    -0.413162322316E+03   -0.13115E-05   -0.21464E-05  4300   0.491E-03    0.508E-03
RMM:   9    -0.413162321683E+03    0.63327E-06   -0.30325E-06  2663   0.240E-03
  145 T=    60. E= -.41286637E+03 F= -.41316232E+03 E0= -.41314165E+03  EK= 0.29595E+00 SP= 0.00E+00 SK= 0.00E+00
       N       E                     dE             d eps       ncg     rms          rms(c)
RMM:   1    -0.413155322651E+03    0.69997E-02   -0.10259E+01  4273   0.863E-01    0.844E-01
RMM:   2    -0.413164831733E+03   -0.95091E-02   -0.12420E-01  4305   0.101E-01    0.610E-01
RMM:   3    -0.413164063254E+03    0.76848E-03   -0.67332E-03  5041   0.455E-02    0.166E-01
RMM:   4    -0.413200924568E+03   -0.36861E-01   -0.39416E-02  5145   0.165E-01    0.797E-01
RMM:   5    -0.413163358872E+03    0.37566E-01   -0.18586E-02  4818   0.134E-01    0.546E-02
RMM:   6    -0.413163424471E+03   -0.65598E-04   -0.29453E-03  5688   0.523E-02    0.167E-02
RMM:   7    -0.413163458823E+03   -0.34353E-04   -0.37423E-04  6018   0.157E-02    0.126E-02
RMM:   8    -0.413163465924E+03   -0.71011E-05   -0.50333E-05  5090   0.663E-03    0.756E-03
RMM:   9    -0.413163470107E+03   -0.41825E-05   -0.85934E-06  3099   0.335E-03    0.335E-03
RMM:  10    -0.413163474158E+03   -0.40512E-05   -0.26029E-06  2588   0.211E-03    0.192E-03
RMM:  11    -0.413163477828E+03   -0.36703E-05   -0.13594E-06  2524   0.161E-03    0.113E-03
RMM:  12    -0.413163479962E+03   -0.21344E-05   -0.89568E-07  2361   0.127E-03    0.405E-04
RMM:  13    -0.413163480551E+03   -0.58860E-06   -0.41703E-07  1857   0.931E-04
  146 T=    60. E= -.41286662E+03 F= -.41316348E+03 E0= -.41314281E+03  EK= 0.29686E+00 SP= 0.00E+00 SK= 0.00E+00
       N       E                     dE             d eps       ncg     rms          rms(c)
RMM:   1    -0.413155898815E+03    0.75811E-02   -0.10181E+01  4264   0.853E-01    0.857E-01
RMM:   2    -0.413165239841E+03   -0.93410E-02   -0.12267E-01  4299   0.103E-01    0.616E-01
RMM:   3    -0.413163914573E+03    0.13253E-02   -0.70330E-03  4933   0.408E-02    0.142E-01
RMM:   4    -0.413187139390E+03   -0.23225E-01   -0.24052E-02  5152   0.129E-01    0.636E-01
RMM:   5    -0.413163620563E+03    0.23519E-01   -0.11759E-02  4832   0.106E-01    0.459E-02
RMM:   6    -0.413163648119E+03   -0.27556E-04   -0.19386E-03  5707   0.414E-02    0.189E-02
RMM:   7    -0.413163668177E+03   -0.20058E-04   -0.24348E-04  5810   0.129E-02    0.116E-02
RMM:   8    -0.413163673703E+03   -0.55262E-05   -0.38962E-05  4940   0.627E-03    0.668E-03
RMM:   9    -0.413163674615E+03   -0.91228E-06   -0.67849E-06  3109   0.309E-03
  147 T=    61. E= -.41286638E+03 F= -.41316367E+03 E0= -.41314301E+03  EK= 0.29729E+00 SP= 0.00E+00 SK= 0.00E+00
       N       E                     dE             d eps       ncg     rms          rms(c)
RMM:   1    -0.413157114361E+03    0.65593E-02   -0.99882E+00  4266   0.846E-01    0.871E-01
RMM:   2    -0.413165092336E+03   -0.79780E-02   -0.11870E-01  4310   0.990E-02    0.609E-01
RMM:   3    -0.413165283960E+03   -0.19162E-03   -0.89007E-03  5104   0.547E-02    0.208E-01
RMM:   4    -0.413200841005E+03   -0.35557E-01   -0.43020E-02  5121   0.173E-01    0.794E-01
RMM:   5    -0.413163775562E+03    0.37065E-01   -0.17627E-02  4810   0.134E-01    0.658E-02
RMM:   6    -0.413163743498E+03    0.32065E-04   -0.28653E-03  5569   0.525E-02    0.238E-02
RMM:   7    -0.413163773789E+03   -0.30291E-04   -0.44840E-04  6089   0.179E-02    0.161E-02
RMM:   8    -0.413163772843E+03    0.94638E-06   -0.73899E-05  5494   0.867E-03    0.889E-03
RMM:   9    -0.413163768055E+03    0.47874E-05   -0.12953E-05  3815   0.423E-03    0.376E-03
RMM:  10    -0.413163767307E+03    0.74839E-06   -0.25476E-06  2613   0.220E-03
  148 T=    61. E= -.41286647E+03 F= -.41316377E+03 E0= -.41314311E+03  EK= 0.29730E+00 SP= 0.00E+00 SK= 0.00E+00
       N       E                     dE             d eps       ncg     rms          rms(c)
RMM:   1    -0.413158368570E+03    0.53995E-02   -0.97048E+00  4279   0.843E-01    0.844E-01
RMM:   2    -0.413166626493E+03   -0.82579E-02   -0.11771E-01  4311   0.988E-02    0.611E-01
RMM:   3    -0.413165464050E+03    0.11624E-02   -0.85454E-03  5067   0.478E-02    0.160E-01
RMM:   4    -0.413202677444E+03   -0.37213E-01   -0.40898E-02  5135   0.168E-01    0.802E-01
RMM:   5    -0.413164632692E+03    0.38045E-01   -0.18644E-02  4819   0.134E-01    0.612E-02
RMM:   6    -0.413164660096E+03   -0.27404E-04   -0.30011E-03  5650   0.532E-02    0.239E-02
RMM:   7    -0.413164690123E+03   -0.30027E-04   -0.42535E-04  6076   0.170E-02    0.151E-02
RMM:   8    -0.413164693386E+03   -0.32630E-05   -0.70310E-05  5449   0.851E-03    0.871E-03
RMM:   9    -0.413164691648E+03    0.17387E-05   -0.11918E-05  3624   0.397E-03    0.352E-03
RMM:  10    -0.413164692769E+03   -0.11210E-05   -0.32865E-06  2684   0.240E-03    0.236E-03
RMM:  11    -0.413164693376E+03   -0.60689E-06   -0.15942E-06  2526   0.191E-03
  149 T=    61. E= -.41286674E+03 F= -.41316469E+03 E0= -.41314404E+03  EK= 0.29795E+00 SP= 0.00E+00 SK= 0.00E+00
       N       E                     dE             d eps       ncg     rms          rms(c)
RMM:   1    -0.413159419922E+03    0.52728E-02   -0.95490E+00  4264   0.833E-01    0.851E-01
RMM:   2    -0.413167216406E+03   -0.77965E-02   -0.11660E-01  4308   0.977E-02    0.622E-01
RMM:   3    -0.413165966945E+03    0.12495E-02   -0.10129E-02  5087   0.509E-02    0.167E-01
RMM:   4    -0.413204911404E+03   -0.38944E-01   -0.44463E-02  5131   0.175E-01    0.822E-01
RMM:   5    -0.413164825495E+03    0.40086E-01   -0.19290E-02  4819   0.138E-01    0.627E-02
RMM:   6    -0.413164865053E+03   -0.39558E-04   -0.31261E-03  5654   0.543E-02    0.255E-02
RMM:   7    -0.413164899031E+03   -0.33979E-04   -0.45627E-04  6079   0.176E-02    0.162E-02
RMM:   8    -0.413164903055E+03   -0.40235E-05   -0.78252E-05  5465   0.907E-03    0.908E-03
RMM:   9    -0.413164901945E+03    0.11103E-05   -0.12746E-05  3725   0.413E-03    0.371E-03
RMM:  10    -0.413164903795E+03   -0.18499E-05   -0.33723E-06  2701   0.243E-03    0.250E-03
RMM:  11    -0.413164905405E+03   -0.16101E-05   -0.16569E-06  2520   0.197E-03    0.153E-03
RMM:  12    -0.413164905674E+03   -0.26964E-06   -0.88986E-07  2507   0.146E-03
  150 T=    61. E= -.41286637E+03 F= -.41316491E+03 E0= -.41314426E+03  EK= 0.29854E+00 SP= 0.00E+00 SK= 0.00E+00
