       N       E                     dE             d eps       ncg     rms          rms(c)
RMM:   1     0.220146038408E+04    0.22015E+04   -0.52442E+04  2132   0.654E+02
RMM:   2     0.705888194496E+03   -0.14956E+04   -0.16260E+04  2132   0.177E+02
RMM:   3     0.137795371656E+03   -0.56809E+03   -0.65714E+03  2132   0.117E+02
RMM:   4    -0.159326474841E+03   -0.29712E+03   -0.27857E+03  2132   0.936E+01
RMM:   5    -0.287582293597E+03   -0.12826E+03   -0.11461E+03  2132   0.595E+01
RMM:   6    -0.349922667440E+03   -0.62340E+02   -0.55148E+02  2132   0.423E+01
RMM:   7    -0.382867774049E+03   -0.32945E+02   -0.30470E+02  2132   0.293E+01
RMM:   8    -0.404326048120E+03   -0.21458E+02   -0.18420E+02  2132   0.233E+01
RMM:   9    -0.436006184782E+03   -0.31680E+02   -0.30610E+02  6099   0.173E+01
RMM:  10    -0.441302495651E+03   -0.52963E+01   -0.63096E+01  6398   0.537E+00
RMM:  11    -0.442511608949E+03   -0.12091E+01   -0.11132E+01  6214   0.173E+00
RMM:  12    -0.442888594211E+03   -0.37699E+00   -0.27023E+00  6363   0.604E-01    0.134E+02
RMM:  13    -0.425567678400E+03    0.17321E+02   -0.80653E+01  4672   0.119E+01    0.712E+01
RMM:  14    -0.498310913385E+03   -0.72743E+02   -0.53365E+02  5412   0.231E+01    0.305E+01
RMM:  15    -0.414717495776E+03    0.83593E+02   -0.19475E+02  5058   0.162E+01    0.630E+00
RMM:  16    -0.414066301648E+03    0.65119E+00   -0.39221E+01  6069   0.603E+00    0.430E+00
RMM:  17    -0.413221648933E+03    0.84465E+00   -0.23283E+00  5347   0.183E+00    0.245E+00
RMM:  18    -0.413167747608E+03    0.53901E-01   -0.85091E-01  5959   0.957E-01    0.160E+00
RMM:  19    -0.413167634806E+03    0.11280E-03   -0.28720E-01  5736   0.570E-01    0.850E-01
RMM:  20    -0.413180773142E+03   -0.13138E-01   -0.19349E-01  5381   0.483E-01    0.511E-01
RMM:  21    -0.413166673412E+03    0.14100E-01   -0.30499E-02  5014   0.217E-01    0.242E-01
RMM:  22    -0.413165156467E+03    0.15169E-02   -0.13007E-02  6089   0.971E-02    0.143E-01
RMM:  23    -0.413163772876E+03    0.13836E-02   -0.51005E-03  5828   0.667E-02    0.802E-02
RMM:  24    -0.413162563664E+03    0.12092E-02   -0.15750E-03  5496   0.400E-02    0.352E-02
RMM:  25    -0.413162422260E+03    0.14140E-03   -0.74464E-04  5690   0.236E-02    0.291E-02
RMM:  26    -0.413162693452E+03   -0.27119E-03   -0.59390E-04  5814   0.257E-02    0.317E-02
RMM:  27    -0.413163132636E+03   -0.43918E-03   -0.18014E-04  4573   0.194E-02    0.158E-02
RMM:  28    -0.413163650051E+03   -0.51741E-03   -0.19748E-04  5270   0.201E-02    0.897E-03
RMM:  29    -0.413163986082E+03   -0.33603E-03   -0.88803E-05  4345   0.134E-02    0.434E-03
RMM:  30    -0.413164224065E+03   -0.23798E-03   -0.76833E-05  4022   0.104E-02    0.265E-03
RMM:  31    -0.413164315060E+03   -0.90995E-04   -0.42495E-05  3125   0.536E-03    0.250E-03
RMM:  32    -0.413164341267E+03   -0.26207E-04   -0.16832E-05  2903   0.284E-03    0.120E-03
RMM:  33    -0.413164349457E+03   -0.81899E-05   -0.80115E-06  2743   0.194E-03    0.457E-04
RMM:  34    -0.413164352344E+03   -0.28874E-05   -0.39306E-06  2654   0.163E-03    0.954E-04
RMM:  35    -0.413164351884E+03    0.46086E-06   -0.20508E-06  2146   0.108E-03
    1 T=    61. E= -.41286658E+03 F= -.41316435E+03 E0= -.41314185E+03  EK= 0.29777E+00 SP= 0.00E+00 SK= 0.00E+00
       N       E                     dE             d eps       ncg     rms          rms(c)
RMM:   1    -0.413157739195E+03    0.66131E-02   -0.10907E+01  3988   0.705E-01    0.885E-01
RMM:   2    -0.413165893197E+03   -0.81540E-02   -0.13698E-01  3973   0.102E-01    0.642E-01
RMM:   3    -0.413164093744E+03    0.17995E-02   -0.70632E-03  4594   0.355E-02    0.145E-01
RMM:   4    -0.413175871065E+03   -0.11777E-01   -0.12476E-02  5224   0.930E-02    0.456E-01
RMM:   5    -0.413163906822E+03    0.11964E-01   -0.59853E-03  4863   0.761E-02    0.288E-02
RMM:   6    -0.413163976690E+03   -0.69869E-04   -0.98328E-04  5817   0.301E-02    0.190E-02
RMM:   7    -0.413163986962E+03   -0.10272E-04   -0.15425E-04  5647   0.112E-02    0.115E-02
RMM:   8    -0.413163993399E+03   -0.64368E-05   -0.20396E-05  4078   0.475E-03    0.495E-03
RMM:   9    -0.413163998553E+03   -0.51535E-05   -0.40927E-06  2810   0.243E-03    0.382E-03
RMM:  10    -0.413164003779E+03   -0.52262E-05   -0.11311E-06  2516   0.156E-03    0.248E-03
RMM:  11    -0.413164011572E+03   -0.77934E-05   -0.11755E-06  2511   0.151E-03    0.983E-04
RMM:  12    -0.413164016259E+03   -0.46871E-05   -0.70468E-07  2249   0.113E-03    0.417E-04
RMM:  13    -0.413164016929E+03   -0.66927E-06   -0.33178E-07  1578   0.791E-04
    2 T=    61. E= -.41286636E+03 F= -.41316402E+03 E0= -.41314152E+03  EK= 0.29766E+00 SP= 0.00E+00 SK= 0.00E+00
       N       E                     dE             d eps       ncg     rms          rms(c)
RMM:   1    -0.413156733819E+03    0.72824E-02   -0.10914E+01  4188   0.693E-01    0.910E-01
RMM:   2    -0.413165963473E+03   -0.92297E-02   -0.13117E-01  3958   0.957E-02    0.635E-01
RMM:   3    -0.413164780575E+03    0.11829E-02   -0.75559E-03  4839   0.380E-02    0.158E-01
RMM:   4    -0.413191216597E+03   -0.26436E-01   -0.26873E-02  5187   0.137E-01    0.678E-01
RMM:   5    -0.413164426593E+03    0.26790E-01   -0.12981E-02  4828   0.114E-01    0.388E-02
RMM:   6    -0.413164601996E+03   -0.17540E-03   -0.21792E-03  5806   0.451E-02    0.228E-02
RMM:   7    -0.413164611131E+03   -0.91346E-05   -0.28227E-04  5909   0.145E-02    0.153E-02
RMM:   8    -0.413164610848E+03    0.28280E-06   -0.41955E-05  4857   0.633E-03    0.777E-03
RMM:   9    -0.413164609959E+03    0.88956E-06   -0.87627E-06  3400   0.331E-03
    3 T=    61. E= -.41286672E+03 F= -.41316461E+03 E0= -.41314211E+03  EK= 0.29789E+00 SP= 0.00E+00 SK= 0.00E+00
       N       E                     dE             d eps       ncg     rms          rms(c)
RMM:   1    -0.413156185706E+03    0.84251E-02   -0.10827E+01  4229   0.694E-01    0.893E-01
RMM:   2    -0.413165926197E+03   -0.97405E-02   -0.13022E-01  4276   0.982E-02    0.629E-01
RMM:   3    -0.413170985966E+03   -0.50598E-02   -0.12580E-02  5195   0.820E-02    0.374E-01
RMM:   4    -0.413184117523E+03   -0.13132E-01   -0.34942E-02  5111   0.161E-01    0.588E-01
RMM:   5    -0.413164393719E+03    0.19724E-01   -0.74021E-03  4678   0.984E-02    0.537E-02
RMM:   6    -0.413164354936E+03    0.38782E-04   -0.13217E-03  5405   0.369E-02    0.215E-02
RMM:   7    -0.413164371536E+03   -0.16599E-04   -0.23758E-04  6007   0.147E-02    0.140E-02
RMM:   8    -0.413164373134E+03   -0.15986E-05   -0.39454E-05  5157   0.674E-03    0.664E-03
RMM:   9    -0.413164373561E+03   -0.42668E-06   -0.93794E-06  3589   0.385E-03
    4 T=    61. E= -.41286641E+03 F= -.41316437E+03 E0= -.41314189E+03  EK= 0.29796E+00 SP= 0.00E+00 SK= 0.00E+00
       N       E                     dE             d eps       ncg     rms          rms(c)
RMM:   1    -0.413156167363E+03    0.82058E-02   -0.10875E+01  4235   0.706E-01    0.883E-01
RMM:   2    -0.413166326755E+03   -0.10159E-01   -0.13400E-01  4085   0.961E-02    0.640E-01
RMM:   3    -0.413164668375E+03    0.16584E-02   -0.71318E-03  4806   0.360E-02    0.146E-01
RMM:   4    -0.413184736396E+03   -0.20068E-01   -0.20335E-02  5166   0.119E-01    0.594E-01
RMM:   5    -0.413164365727E+03    0.20371E-01   -0.99814E-03  4838   0.986E-02    0.322E-02
RMM:   6    -0.413164488716E+03   -0.12299E-03   -0.15508E-03  5870   0.381E-02    0.180E-02
RMM:   7    -0.413164505503E+03   -0.16787E-04   -0.15745E-04  5632   0.112E-02    0.950E-03
RMM:   8    -0.413164513315E+03   -0.78118E-05   -0.28652E-05  4568   0.513E-03    0.666E-03
RMM:   9    -0.413164516639E+03   -0.33244E-05   -0.62306E-06  3125   0.288E-03    0.483E-03
RMM:  10    -0.413164520016E+03   -0.33762E-05   -0.13514E-06  2548   0.183E-03    0.337E-03
RMM:  11    -0.413164528073E+03   -0.80571E-05   -0.20426E-06  2591   0.210E-03    0.160E-03
RMM:  12    -0.413164531872E+03   -0.37991E-05   -0.92174E-07  2467   0.149E-03    0.814E-04
RMM:  13    -0.413164532115E+03   -0.24346E-06   -0.26589E-07  1966   0.898E-04
    5 T=    61. E= -.41286639E+03 F= -.41316453E+03 E0= -.41314206E+03  EK= 0.29814E+00 SP= 0.00E+00 SK= 0.00E+00
       N       E                     dE             d eps       ncg     rms          rms(c)
RMM:   1    -0.413156948275E+03    0.75836E-02   -0.10918E+01  4248   0.706E-01    0.905E-01
RMM:   2    -0.413166486113E+03   -0.95378E-02   -0.13144E-01  4073   0.972E-02    0.637E-01
RMM:   3    -0.413165232426E+03    0.12537E-02   -0.74015E-03  4787   0.383E-02    0.155E-01
RMM:   4    -0.413189013166E+03   -0.23781E-01   -0.24031E-02  5164   0.129E-01    0.645E-01
RMM:   5    -0.413164853826E+03    0.24159E-01   -0.11811E-02  4826   0.107E-01    0.367E-02
RMM:   6    -0.413165006029E+03   -0.15220E-03   -0.19179E-03  5799   0.422E-02    0.221E-02
RMM:   7    -0.413165012763E+03   -0.67334E-05   -0.25367E-04  5843   0.138E-02    0.147E-02
RMM:   8    -0.413165012158E+03    0.60526E-06   -0.37949E-05  4743   0.613E-03    0.734E-03
RMM:   9    -0.413165011293E+03    0.86434E-06   -0.80163E-06  3312   0.324E-03
    6 T=    61. E= -.41286659E+03 F= -.41316501E+03 E0= -.41314255E+03  EK= 0.29842E+00 SP= 0.00E+00 SK= 0.00E+00
       N       E                     dE             d eps       ncg     rms          rms(c)
RMM:   1    -0.413156721349E+03    0.82908E-02   -0.10862E+01  4268   0.711E-01    0.901E-01
RMM:   2    -0.413165973783E+03   -0.92524E-02   -0.13060E-01  4305   0.979E-02    0.630E-01
RMM:   3    -0.413170915688E+03   -0.49419E-02   -0.12455E-02  5167   0.802E-02    0.365E-01
RMM:   4    -0.413185016284E+03   -0.14101E-01   -0.34969E-02  5095   0.160E-01    0.597E-01
RMM:   5    -0.413164732176E+03    0.20284E-01   -0.77276E-03  4679   0.993E-02    0.536E-02
RMM:   6    -0.413164701300E+03    0.30876E-04   -0.13798E-03  5417   0.374E-02    0.218E-02
RMM:   7    -0.413164716757E+03   -0.15456E-04   -0.24365E-04  6007   0.147E-02    0.141E-02
RMM:   8    -0.413164716605E+03    0.15136E-06   -0.40519E-05  5159   0.681E-03    0.668E-03
RMM:   9    -0.413164714435E+03    0.21700E-05   -0.89582E-06  3487   0.378E-03    0.354E-03
RMM:  10    -0.413164714583E+03   -0.14774E-06   -0.12548E-06  2527   0.194E-03
    7 T=    61. E= -.41286625E+03 F= -.41316471E+03 E0= -.41314227E+03  EK= 0.29846E+00 SP= 0.00E+00 SK= 0.00E+00
       N       E                     dE             d eps       ncg     rms          rms(c)
RMM:   1    -0.413156854151E+03    0.78603E-02   -0.10857E+01  4269   0.714E-01    0.882E-01
RMM:   2    -0.413167087419E+03   -0.10233E-01   -0.13322E-01  4106   0.948E-02    0.638E-01
RMM:   3    -0.413165597745E+03    0.14897E-02   -0.72201E-03  4893   0.387E-02    0.155E-01
RMM:   4    -0.413195118730E+03   -0.29521E-01   -0.30126E-02  5156   0.144E-01    0.716E-01
RMM:   5    -0.413165142348E+03    0.29976E-01   -0.14565E-02  4818   0.119E-01    0.395E-02
RMM:   6    -0.413165327079E+03   -0.18473E-03   -0.23538E-03  5768   0.470E-02    0.215E-02
RMM:   7    -0.413165342796E+03   -0.15716E-04   -0.30476E-04  5907   0.146E-02    0.147E-02
RMM:   8    -0.413165347013E+03   -0.42173E-05   -0.40527E-05  4738   0.612E-03    0.721E-03
RMM:   9    -0.413165349747E+03   -0.27341E-05   -0.90055E-06  3342   0.325E-03    0.500E-03
RMM:  10    -0.413165353151E+03   -0.34042E-05   -0.17010E-06  2552   0.191E-03    0.319E-03
RMM:  11    -0.413165357731E+03   -0.45799E-05   -0.14853E-06  2555   0.179E-03    0.140E-03
RMM:  12    -0.413165360775E+03   -0.30440E-05   -0.93628E-07  2459   0.142E-03    0.504E-04
RMM:  13    -0.413165361073E+03   -0.29838E-06   -0.30134E-07  1945   0.914E-04
    8 T=    61. E= -.41286660E+03 F= -.41316536E+03 E0= -.41314293E+03  EK= 0.29876E+00 SP= 0.00E+00 SK= 0.00E+00
       N       E                     dE             d eps       ncg     rms          rms(c)
RMM:   1    -0.413157320983E+03    0.80398E-02   -0.10916E+01  4284   0.718E-01    0.900E-01
RMM:   2    -0.413167048945E+03   -0.97280E-02   -0.13236E-01  4182   0.994E-02    0.640E-01
RMM:   3    -0.413165741189E+03    0.13078E-02   -0.74058E-03  4796   0.389E-02    0.154E-01
RMM:   4    -0.413191645991E+03   -0.25905E-01   -0.26305E-02  5158   0.135E-01    0.672E-01
RMM:   5    -0.413165298099E+03    0.26348E-01   -0.12899E-02  4817   0.112E-01    0.370E-02
RMM:   6    -0.413165462606E+03   -0.16451E-03   -0.20663E-03  5802   0.439E-02    0.218E-02
RMM:   7    -0.413165471724E+03   -0.91187E-05   -0.26654E-04  5874   0.142E-02    0.148E-02
RMM:   8    -0.413165471930E+03   -0.20576E-06   -0.41802E-05  4827   0.637E-03    0.780E-03
RMM:   9    -0.413165471061E+03    0.86958E-06   -0.87706E-06  3402   0.338E-03
    9 T=    61. E= -.41286654E+03 F= -.41316547E+03 E0= -.41314306E+03  EK= 0.29894E+00 SP= 0.00E+00 SK= 0.00E+00
       N       E                     dE             d eps       ncg     rms          rms(c)
RMM:   1    -0.413157761559E+03    0.77104E-02   -0.10896E+01  4294   0.727E-01    0.908E-01
RMM:   2    -0.413166781737E+03   -0.90202E-02   -0.13063E-01  4334   0.970E-02    0.631E-01
RMM:   3    -0.413172198382E+03   -0.54166E-02   -0.13027E-02  5153   0.830E-02    0.378E-01
RMM:   4    -0.413184438409E+03   -0.12240E-01   -0.34158E-02  5080   0.159E-01    0.578E-01
RMM:   5    -0.413165600728E+03    0.18838E-01   -0.70691E-03  4661   0.962E-02    0.525E-02
RMM:   6    -0.413165567456E+03    0.33273E-04   -0.12898E-03  5398   0.358E-02    0.221E-02
RMM:   7    -0.413165579322E+03   -0.11866E-04   -0.22416E-04  5996   0.144E-02    0.141E-02
RMM:   8    -0.413165577538E+03    0.17832E-05   -0.38851E-05  5136   0.674E-03    0.655E-03
RMM:   9    -0.413165573311E+03    0.42278E-05   -0.83889E-06  3417   0.371E-03    0.348E-03
RMM:  10    -0.413165572593E+03    0.71758E-06   -0.11985E-06  2518   0.191E-03
   10 T=    61. E= -.41286642E+03 F= -.41316557E+03 E0= -.41314319E+03  EK= 0.29916E+00 SP= 0.00E+00 SK= 0.00E+00
       N       E                     dE             d eps       ncg     rms          rms(c)
RMM:   1    -0.413157894639E+03    0.76787E-02   -0.10845E+01  4299   0.724E-01    0.883E-01
RMM:   2    -0.413168042921E+03   -0.10148E-01   -0.13224E-01  4192   0.963E-02    0.635E-01
RMM:   3    -0.413166717368E+03    0.13256E-02   -0.72066E-03  4899   0.411E-02    0.159E-01
RMM:   4    -0.413198991895E+03   -0.32275E-01   -0.33181E-02  5150   0.151E-01    0.748E-01
RMM:   5    -0.413166117128E+03    0.32875E-01   -0.16069E-02  4813   0.125E-01    0.410E-02
RMM:   6    -0.413166306085E+03   -0.18896E-03   -0.25298E-03  5770   0.490E-02    0.223E-02
RMM:   7    -0.413166319383E+03   -0.13298E-04   -0.33084E-04  5929   0.153E-02    0.154E-02
RMM:   8    -0.413166320755E+03   -0.13715E-05   -0.44584E-05  4857   0.643E-03    0.765E-03
RMM:   9    -0.413166320889E+03   -0.13450E-06   -0.10009E-05  3433   0.341E-03    0.518E-03
RMM:  10    -0.413166322454E+03   -0.15651E-05   -0.18510E-06  2560   0.195E-03    0.328E-03
RMM:  11    -0.413166324425E+03   -0.19709E-05   -0.14950E-06  2551   0.181E-03    0.146E-03
RMM:  12    -0.413166325568E+03   -0.11430E-05   -0.94036E-07  2474   0.145E-03    0.509E-04
RMM:  13    -0.413166325693E+03   -0.12483E-06   -0.31743E-07  1995   0.940E-04
   11 T=    61. E= -.41286664E+03 F= -.41316633E+03 E0= -.41314397E+03  EK= 0.29968E+00 SP= 0.00E+00 SK= 0.00E+00
       N       E                     dE             d eps       ncg     rms          rms(c)
RMM:   1    -0.413157974049E+03    0.83515E-02   -0.10928E+01  4296   0.732E-01    0.895E-01
RMM:   2    -0.413167927286E+03   -0.99532E-02   -0.13376E-01  4229   0.977E-02    0.643E-01
RMM:   3    -0.413166532266E+03    0.13950E-02   -0.73903E-03  4865   0.398E-02    0.156E-01
RMM:   4    -0.413196528163E+03   -0.29996E-01   -0.30741E-02  5146   0.146E-01    0.722E-01
RMM:   5    -0.413166020261E+03    0.30508E-01   -0.14913E-02  4808   0.120E-01    0.390E-02
RMM:   6    -0.413166208842E+03   -0.18858E-03   -0.24056E-03  5803   0.471E-02    0.222E-02
RMM:   7    -0.413166220501E+03   -0.11658E-04   -0.29991E-04  5874   0.148E-02    0.153E-02
RMM:   8    -0.413166221378E+03   -0.87718E-06   -0.46745E-05  4928   0.662E-03    0.829E-03
RMM:   9    -0.413166220447E+03    0.93113E-06   -0.99815E-06  3509   0.353E-03
   12 T=    61. E= -.41286625E+03 F= -.41316622E+03 E0= -.41314389E+03  EK= 0.29997E+00 SP= 0.00E+00 SK= 0.00E+00
       N       E                     dE             d eps       ncg     rms          rms(c)
RMM:   1    -0.413159397766E+03    0.68236E-02   -0.10944E+01  4300   0.749E-01    0.913E-01
RMM:   2    -0.413168033230E+03   -0.86355E-02   -0.13140E-01  4351   0.960E-02    0.634E-01
RMM:   3    -0.413173982712E+03   -0.59495E-02   -0.13485E-02  5168   0.837E-02    0.389E-01
RMM:   4    -0.413185065724E+03   -0.11083E-01   -0.34183E-02  5072   0.159E-01    0.568E-01
RMM:   5    -0.413166870742E+03    0.18195E-01   -0.66782E-03  4645   0.938E-02    0.522E-02
RMM:   6    -0.413166834991E+03    0.35751E-04   -0.12522E-03  5380   0.348E-02    0.224E-02
RMM:   7    -0.413166843754E+03   -0.87626E-05   -0.21630E-04  5983   0.142E-02    0.142E-02
RMM:   8    -0.413166840564E+03    0.31898E-05   -0.38229E-05  5123   0.673E-03    0.655E-03
RMM:   9    -0.413166834695E+03    0.58695E-05   -0.82384E-06  3386   0.371E-03    0.350E-03
RMM:  10    -0.413166833464E+03    0.12304E-05   -0.11723E-06  2512   0.190E-03    0.204E-03
RMM:  11    -0.413166830895E+03    0.25690E-05   -0.11394E-06  2515   0.168E-03    0.130E-03
RMM:  12    -0.413166828686E+03    0.22095E-05   -0.48582E-07  2292   0.115E-03    0.459E-04
RMM:  13    -0.413166826778E+03    0.19071E-05   -0.28334E-07  1638   0.818E-04    0.249E-04
RMM:  14    -0.413166825425E+03    0.13537E-05   -0.17757E-07  1392   0.712E-04    0.141E-04
RMM:  15    -0.413166823668E+03    0.17568E-05   -0.17397E-07  1465   0.713E-04    0.113E-04
RMM:  16    -0.413166821111E+03    0.25567E-05   -0.21879E-07  1486   0.704E-04    0.939E-05
RMM:  17    -0.413166820239E+03    0.87206E-06   -0.76090E-08   991   0.560E-04
   13 T=    61. E= -.41286639E+03 F= -.41316682E+03 E0= -.41314452E+03  EK= 0.30043E+00 SP= 0.00E+00 SK= 0.00E+00
       N       E                     dE             d eps       ncg     rms          rms(c)
RMM:   1    -0.413159107600E+03    0.77135E-02   -0.10856E+01  4294   0.736E-01    0.888E-01
RMM:   2    -0.413168945858E+03   -0.98383E-02   -0.13227E-01  4237   0.951E-02    0.634E-01
RMM:   3    -0.413167847395E+03    0.10985E-02   -0.73591E-03  4899   0.404E-02    0.164E-01
RMM:   4    -0.413202390875E+03   -0.34543E-01   -0.35782E-02  5141   0.157E-01    0.773E-01
RMM:   5    -0.413167209675E+03    0.35181E-01   -0.17103E-02  4799   0.129E-01    0.421E-02
RMM:   6    -0.413167415945E+03   -0.20627E-03   -0.27681E-03  5765   0.506E-02    0.232E-02
RMM:   7    -0.413167427959E+03   -0.12015E-04   -0.34459E-04  5845   0.157E-02    0.162E-02
RMM:   8    -0.413167426943E+03    0.10166E-05   -0.50928E-05  5007   0.687E-03    0.863E-03
RMM:   9    -0.413167424388E+03    0.25553E-05   -0.10857E-05  3576   0.363E-03    0.573E-03
RMM:  10    -0.413167424151E+03    0.23621E-06   -0.19995E-06  2565   0.204E-03
   14 T=    61. E= -.41286653E+03 F= -.41316742E+03 E0= -.41314516E+03  EK= 0.30090E+00 SP= 0.00E+00 SK= 0.00E+00
       N       E                     dE             d eps       ncg     rms          rms(c)
RMM:   1    -0.413165567252E+03    0.18571E-02   -0.11004E+01  4303   0.786E-01    0.891E-01
RMM:   2    -0.413169537231E+03   -0.39700E-02   -0.13913E-01  4293   0.101E-01    0.645E-01
RMM:   3    -0.413170711034E+03   -0.11738E-02   -0.96714E-03  5124   0.637E-02    0.281E-01
RMM:   4    -0.413204354511E+03   -0.33643E-01   -0.47886E-02  5110   0.183E-01    0.793E-01
RMM:   5    -0.413167397419E+03    0.36957E-01   -0.15973E-02  4735   0.131E-01    0.533E-02
RMM:   6    -0.413167512688E+03   -0.11527E-03   -0.26286E-03  5632   0.507E-02    0.202E-02
RMM:   7    -0.413167537394E+03   -0.24706E-04   -0.35235E-04  6015   0.158E-02    0.146E-02
RMM:   8    -0.413167540983E+03   -0.35890E-05   -0.53221E-05  5196   0.719E-03    0.744E-03
RMM:   9    -0.413167540741E+03    0.24224E-06   -0.98322E-06  3287   0.353E-03
   15 T=    61. E= -.41286629E+03 F= -.41316754E+03 E0= -.41314531E+03  EK= 0.30125E+00 SP= 0.00E+00 SK= 0.00E+00
       N       E                     dE             d eps       ncg     rms          rms(c)
RMM:   1    -0.413160834831E+03    0.67062E-02   -0.10972E+01  4300   0.751E-01    0.914E-01
RMM:   2    -0.413169898295E+03   -0.90635E-02   -0.13169E-01  4269   0.993E-02    0.637E-01
RMM:   3    -0.413169056834E+03    0.84146E-03   -0.78654E-03  4967   0.421E-02    0.173E-01
RMM:   4    -0.413206448321E+03   -0.37391E-01   -0.39061E-02  5144   0.164E-01    0.804E-01
RMM:   5    -0.413168325726E+03    0.38123E-01   -0.18542E-02  4802   0.135E-01    0.452E-02
RMM:   6    -0.413168530965E+03   -0.20524E-03   -0.29628E-03  5808   0.531E-02    0.246E-02
RMM:   7    -0.413168538459E+03   -0.74936E-05   -0.38275E-04  5947   0.166E-02    0.169E-02
RMM:   8    -0.413168534012E+03    0.44473E-05   -0.52321E-05  5015   0.697E-03    0.858E-03
RMM:   9    -0.413168528636E+03    0.53753E-05   -0.11632E-05  3602   0.365E-03    0.573E-03
RMM:  10    -0.413168525119E+03    0.35176E-05   -0.20200E-06  2561   0.207E-03    0.356E-03
RMM:  11    -0.413168520968E+03    0.41511E-05   -0.15776E-06  2545   0.190E-03    0.160E-03
RMM:  12    -0.413168516863E+03    0.41051E-05   -0.99426E-07  2487   0.156E-03    0.524E-04
RMM:  13    -0.413168516086E+03    0.77686E-06   -0.34653E-07  2113   0.100E-03
   16 T=    61. E= -.41286659E+03 F= -.41316852E+03 E0= -.41314632E+03  EK= 0.30192E+00 SP= 0.00E+00 SK= 0.00E+00
       N       E                     dE             d eps       ncg     rms          rms(c)
RMM:   1    -0.413160749457E+03    0.77674E-02   -0.10886E+01  4299   0.748E-01    0.894E-01
RMM:   2    -0.413170580476E+03   -0.98310E-02   -0.13241E-01  4269   0.978E-02    0.633E-01
RMM:   3    -0.413169263237E+03    0.13172E-02   -0.74033E-03  4899   0.423E-02    0.165E-01
RMM:   4    -0.413202702218E+03   -0.33439E-01   -0.34481E-02  5140   0.154E-01    0.760E-01
RMM:   5    -0.413168734320E+03    0.33968E-01   -0.16683E-02  4803   0.127E-01    0.414E-02
RMM:   6    -0.413168927163E+03   -0.19284E-03   -0.26589E-03  5778   0.500E-02    0.236E-02
RMM:   7    -0.413168935513E+03   -0.83501E-05   -0.33088E-04  5873   0.157E-02    0.161E-02
RMM:   8    -0.413168932576E+03    0.29376E-05   -0.52134E-05  4998   0.697E-03    0.883E-03
RMM:   9    -0.413168927725E+03    0.48511E-05   -0.11220E-05  3633   0.372E-03    0.595E-03
RMM:  10    -0.413168925286E+03    0.24384E-05   -0.19598E-06  2567   0.205E-03    0.373E-03
RMM:  11    -0.413168922126E+03    0.31607E-05   -0.17779E-06  2556   0.203E-03    0.167E-03
RMM:  12    -0.413168919351E+03    0.27741E-05   -0.96798E-07  2487   0.157E-03    0.578E-04
RMM:  13    -0.413168918929E+03    0.42198E-06   -0.33468E-07  2094   0.991E-04
   17 T=    62. E= -.41286644E+03 F= -.41316892E+03 E0= -.41314676E+03  EK= 0.30248E+00 SP= 0.00E+00 SK= 0.00E+00
       N       E                     dE             d eps       ncg     rms          rms(c)
RMM:   1    -0.413164116095E+03    0.48033E-02   -0.10991E+01  4299   0.787E-01    0.889E-01
RMM:   2    -0.413171524360E+03   -0.74083E-02   -0.13957E-01  4281   0.103E-01    0.646E-01
RMM:   3    -0.413169866191E+03    0.16582E-02   -0.72884E-03  4891   0.408E-02    0.164E-01
RMM:   4    -0.413203576246E+03   -0.33710E-01   -0.34891E-02  5144   0.155E-01    0.764E-01
RMM:   5    -0.413169242460E+03    0.34334E-01   -0.16875E-02  4801   0.128E-01    0.409E-02
RMM:   6    -0.413169435705E+03   -0.19325E-03   -0.26670E-03  5786   0.502E-02    0.228E-02
RMM:   7    -0.413169448491E+03   -0.12786E-04   -0.32820E-04  5889   0.156E-02    0.158E-02
RMM:   8    -0.413169448832E+03   -0.34065E-06   -0.52693E-05  5006   0.699E-03    0.874E-03
RMM:   9    -0.413169446587E+03    0.22453E-05   -0.11417E-05  3653   0.376E-03    0.580E-03
RMM:  10    -0.413169446939E+03   -0.35284E-06   -0.20421E-06  2569   0.207E-03
   18 T=    62. E= -.41286628E+03 F= -.41316945E+03 E0= -.41314733E+03  EK= 0.30317E+00 SP= 0.00E+00 SK= 0.00E+00
       N       E                     dE             d eps       ncg     rms          rms(c)
RMM:   1    -0.413162721057E+03    0.67255E-02   -0.11011E+01  4302   0.759E-01    0.913E-01
RMM:   2    -0.413172040772E+03   -0.93197E-02   -0.13343E-01  4299   0.989E-02    0.641E-01
RMM:   3    -0.413174005468E+03   -0.19647E-02   -0.10209E-02  5113   0.662E-02    0.287E-01
RMM:   4    -0.413202831238E+03   -0.28826E-01   -0.43369E-02  5102   0.175E-01    0.744E-01
RMM:   5    -0.413170500531E+03    0.32331E-01   -0.13796E-02  4722   0.123E-01    0.520E-02
RMM:   6    -0.413170592867E+03   -0.92336E-04   -0.23308E-03  5612   0.479E-02    0.219E-02
RMM:   7    -0.413170609094E+03   -0.16227E-04   -0.31816E-04  5996   0.152E-02    0.150E-02
RMM:   8    -0.413170606015E+03    0.30784E-05   -0.50274E-05  5184   0.715E-03    0.733E-03
RMM:   9    -0.413170598922E+03    0.70935E-05   -0.90462E-06  3243   0.348E-03    0.322E-03
RMM:  10    -0.413170596268E+03    0.26534E-05   -0.20253E-06  2555   0.202E-03    0.210E-03
RMM:  11    -0.413170592166E+03    0.41024E-05   -0.10876E-06  2514   0.161E-03    0.119E-03
RMM:  12    -0.413170589033E+03    0.31335E-05   -0.55198E-07  2303   0.120E-03    0.471E-04
RMM:  13    -0.413170587066E+03    0.19669E-05   -0.28679E-07  1868   0.893E-04    0.237E-04
RMM:  14    -0.413170585450E+03    0.16159E-05   -0.17980E-07  1437   0.747E-04    0.153E-04
RMM:  15    -0.413170582030E+03    0.34201E-05   -0.22257E-07  1639   0.777E-04    0.134E-04
RMM:  16    -0.413170580739E+03    0.12905E-05   -0.10350E-07  1180   0.630E-04    0.991E-05
RMM:  17    -0.413170578164E+03    0.25749E-05   -0.11357E-07  1344   0.647E-04    0.555E-05
RMM:  18    -0.413170576806E+03    0.13581E-05   -0.62218E-08   998   0.561E-04    0.410E-05
RMM:  19    -0.413170576251E+03    0.55464E-06   -0.32830E-08   825   0.529E-04
   19 T=    62. E= -.41286651E+03 F= -.41317058E+03 E0= -.41314850E+03  EK= 0.30406E+00 SP= 0.00E+00 SK= 0.00E+00
       N       E                     dE             d eps       ncg     rms          rms(c)
RMM:   1    -0.413162998604E+03    0.75782E-02   -0.10952E+01  4298   0.763E-01    0.903E-01
RMM:   2    -0.413172521623E+03   -0.95230E-02   -0.13257E-01  4273   0.100E-01    0.635E-01
RMM:   3    -0.413171602528E+03    0.91909E-03   -0.76695E-03  4945   0.430E-02    0.176E-01
RMM:   4    -0.413210596093E+03   -0.38994E-01   -0.41175E-02  5145   0.168E-01    0.820E-01
RMM:   5    -0.413170828581E+03    0.39768E-01   -0.19417E-02  4793   0.138E-01    0.456E-02
RMM:   6    -0.413171036673E+03   -0.20809E-03   -0.31149E-03  5752   0.543E-02    0.249E-02
RMM:   7    -0.413171045238E+03   -0.85651E-05   -0.39253E-04  5870   0.168E-02    0.173E-02
RMM:   8    -0.413171040204E+03    0.50341E-05   -0.58950E-05  5106   0.738E-03    0.936E-03
RMM:   9    -0.413171033348E+03    0.68558E-05   -0.12448E-05  3728   0.386E-03    0.602E-03
RMM:  10    -0.413171029284E+03    0.40641E-05   -0.22123E-06  2575   0.214E-03    0.376E-03
RMM:  11    -0.413171024885E+03    0.43989E-05   -0.15440E-06  2527   0.194E-03    0.171E-03
RMM:  12    -0.413171021069E+03    0.38167E-05   -0.94315E-07  2475   0.158E-03    0.516E-04
RMM:  13    -0.413171020359E+03    0.70942E-06   -0.36225E-07  2148   0.104E-03
   20 T=    62. E= -.41286631E+03 F= -.41317102E+03 E0= -.41314899E+03  EK= 0.30471E+00 SP= 0.00E+00 SK= 0.00E+00
       N       E                     dE             d eps       ncg     rms          rms(c)
RMM:   1    -0.413163872619E+03    0.71484E-02   -0.10990E+01  4301   0.774E-01    0.890E-01
RMM:   2    -0.413174061147E+03   -0.10189E-01   -0.13613E-01  4283   0.100E-01    0.646E-01
RMM:   3    -0.413172479170E+03    0.15820E-02   -0.74771E-03  4897   0.414E-02    0.160E-01
RMM:   4    -0.413206426755E+03   -0.33948E-01   -0.35208E-02  5139   0.156E-01    0.766E-01
RMM:   5    -0.413171854617E+03    0.34572E-01   -0.16973E-02  4797   0.128E-01    0.412E-02
RMM:   6    -0.413172050923E+03   -0.19631E-03   -0.27635E-03  5786   0.506E-02    0.231E-02
RMM:   7    -0.413172063519E+03   -0.12596E-04   -0.33638E-04  5878   0.157E-02    0.159E-02
RMM:   8    -0.413172062543E+03    0.97629E-06   -0.55234E-05  5013   0.716E-03    0.914E-03
RMM:   9    -0.413172058785E+03    0.37574E-05   -0.12063E-05  3731   0.387E-03    0.610E-03
RMM:  10    -0.413172057871E+03    0.91420E-06   -0.21197E-06  2573   0.213E-03
   21 T=    62. E= -.41286645E+03 F= -.41317206E+03 E0= -.41315007E+03  EK= 0.30561E+00 SP= 0.00E+00 SK= 0.00E+00
       N       E                     dE             d eps       ncg     rms          rms(c)
RMM:   1    -0.413165192044E+03    0.68667E-02   -0.11057E+01  4300   0.772E-01    0.911E-01
RMM:   2    -0.413174859168E+03   -0.96671E-02   -0.13492E-01  4310   0.989E-02    0.646E-01
RMM:   3    -0.413176643248E+03   -0.17841E-02   -0.10272E-02  5103   0.669E-02    0.289E-01
RMM:   4    -0.413206608715E+03   -0.29965E-01   -0.44991E-02  5103   0.178E-01    0.757E-01
RMM:   5    -0.413173079375E+03    0.33529E-01   -0.14372E-02  4721   0.126E-01    0.518E-02
RMM:   6    -0.413173175790E+03   -0.96415E-04   -0.24047E-03  5628   0.488E-02    0.218E-02
RMM:   7    -0.413173188346E+03   -0.12556E-04   -0.32435E-04  5990   0.154E-02    0.151E-02
RMM:   8    -0.413173184891E+03    0.34549E-05   -0.51581E-05  5171   0.724E-03    0.742E-03
RMM:   9    -0.413173177703E+03    0.71882E-05   -0.95295E-06  3301   0.353E-03    0.325E-03
RMM:  10    -0.413173175073E+03    0.26300E-05   -0.20784E-06  2557   0.203E-03    0.214E-03
RMM:  11    -0.413173171010E+03    0.40633E-05   -0.10669E-06  2513   0.159E-03    0.117E-03
RMM:  12    -0.413173167760E+03    0.32492E-05   -0.54892E-07  2300   0.119E-03    0.423E-04
RMM:  13    -0.413173165766E+03    0.19939E-05   -0.27990E-07  1835   0.879E-04    0.213E-04
RMM:  14    -0.413173163393E+03    0.23732E-05   -0.19774E-07  1497   0.766E-04    0.124E-04
RMM:  15    -0.413173160559E+03    0.28345E-05   -0.17228E-07  1490   0.731E-04    0.109E-04
RMM:  16    -0.413173159283E+03    0.12754E-05   -0.98502E-08  1199   0.631E-04    0.853E-05
RMM:  17    -0.413173156570E+03    0.27136E-05   -0.10319E-07  1318   0.641E-04    0.448E-05
RMM:  18    -0.413173155411E+03    0.11590E-05   -0.52620E-08   967   0.563E-04    0.358E-05
RMM:  19    -0.413173154813E+03    0.59797E-06   -0.28401E-08   816   0.534E-04
   22 T=    62. E= -.41286658E+03 F= -.41317315E+03 E0= -.41315121E+03  EK= 0.30657E+00 SP= 0.00E+00 SK= 0.00E+00
       N       E                     dE             d eps       ncg     rms          rms(c)
RMM:   1    -0.413166958762E+03    0.61966E-02   -0.11047E+01  4297   0.798E-01    0.913E-01
RMM:   2    -0.413175367945E+03   -0.84092E-02   -0.13397E-01  4278   0.106E-01    0.638E-01
RMM:   3    -0.413174338322E+03    0.10296E-02   -0.78536E-03  4879   0.450E-02    0.172E-01
RMM:   4    -0.413210327056E+03   -0.35989E-01   -0.37412E-02  5141   0.161E-01    0.789E-01
RMM:   5    -0.413173661450E+03    0.36666E-01   -0.17965E-02  4790   0.132E-01    0.441E-02
RMM:   6    -0.413173868438E+03   -0.20699E-03   -0.29997E-03  5786   0.523E-02    0.254E-02
RMM:   7    -0.413173875138E+03   -0.67000E-05   -0.36468E-04  5822   0.165E-02    0.172E-02
RMM:   8    -0.413173868710E+03    0.64280E-05   -0.59182E-05  5063   0.746E-03    0.968E-03
RMM:   9    -0.413173860297E+03    0.84136E-05   -0.12611E-05  3799   0.395E-03    0.647E-03
RMM:  10    -0.413173854887E+03    0.54097E-05   -0.21784E-06  2579   0.216E-03    0.408E-03
RMM:  11    -0.413173848211E+03    0.66757E-05   -0.18492E-06  2553   0.211E-03    0.181E-03
RMM:  12    -0.413173842726E+03    0.54853E-05   -0.96993E-07  2473   0.165E-03    0.577E-04
RMM:  13    -0.413173841897E+03    0.82936E-06   -0.35537E-07  2170   0.105E-03
   23 T=    63. E= -.41286635E+03 F= -.41317384E+03 E0= -.41315195E+03  EK= 0.30749E+00 SP= 0.00E+00 SK= 0.00E+00
       N       E                     dE             d eps       ncg     rms          rms(c)
RMM:   1    -0.413172124414E+03    0.17183E-02   -0.11081E+01  4296   0.816E-01    0.893E-01
RMM:   2    -0.413177480675E+03   -0.53563E-02   -0.13594E-01  4283   0.103E-01    0.645E-01
RMM:   3    -0.413175669308E+03    0.18114E-02   -0.74970E-03  4795   0.430E-02    0.155E-01
RMM:   4    -0.413203982299E+03   -0.28313E-01   -0.28937E-02  5144   0.141E-01    0.701E-01
RMM:   5    -0.413175230116E+03    0.28752E-01   -0.14260E-02  4801   0.117E-01    0.383E-02
RMM:   6    -0.413175390944E+03   -0.16083E-03   -0.23017E-03  5799   0.457E-02    0.223E-02
RMM:   7    -0.413175399563E+03   -0.86186E-05   -0.26504E-04  5841   0.146E-02    0.141E-02
RMM:   8    -0.413175398012E+03    0.15509E-05   -0.51163E-05  4975   0.691E-03    0.886E-03
RMM:   9    -0.413175392431E+03    0.55811E-05   -0.11609E-05  3833   0.387E-03    0.604E-03
RMM:  10    -0.413175390328E+03    0.21028E-05   -0.18097E-06  2553   0.208E-03    0.390E-03
RMM:  11    -0.413175387112E+03    0.32160E-05   -0.21331E-06  2589   0.222E-03    0.174E-03
RMM:  12    -0.413175384410E+03    0.27021E-05   -0.87510E-07  2477   0.158E-03    0.599E-04
RMM:  13    -0.413175384038E+03    0.37122E-06   -0.30227E-07  2061   0.957E-04
   24 T=    63. E= -.41286658E+03 F= -.41317538E+03 E0= -.41315354E+03  EK= 0.30881E+00 SP= 0.00E+00 SK= 0.00E+00
       N       E                     dE             d eps       ncg     rms          rms(c)
RMM:   1    -0.413168329017E+03    0.70554E-02   -0.11131E+01  4297   0.795E-01    0.908E-01
RMM:   2    -0.413178429486E+03   -0.10100E-01   -0.13674E-01  4281   0.106E-01    0.651E-01
RMM:   3    -0.413176670558E+03    0.17589E-02   -0.75892E-03  4723   0.433E-02    0.156E-01
RMM:   4    -0.413201392451E+03   -0.24722E-01   -0.25152E-02  5147   0.132E-01    0.656E-01
RMM:   5    -0.413176263281E+03    0.25129E-01   -0.12404E-02  4805   0.109E-01    0.371E-02
RMM:   6    -0.413176401141E+03   -0.13786E-03   -0.20434E-03  5821   0.424E-02    0.220E-02
RMM:   7    -0.413176405794E+03   -0.46535E-05   -0.22040E-04  5769   0.136E-02    0.127E-02
RMM:   8    -0.413176403474E+03    0.23205E-05   -0.45642E-05  4942   0.656E-03    0.847E-03
RMM:   9    -0.413176397445E+03    0.60291E-05   -0.11166E-05  3841   0.378E-03    0.594E-03
RMM:  10    -0.413176394700E+03    0.27451E-05   -0.16082E-06  2543   0.205E-03    0.388E-03
RMM:  11    -0.413176390175E+03    0.45248E-05   -0.19770E-06  2570   0.216E-03    0.176E-03
RMM:  12    -0.413176386198E+03    0.39768E-05   -0.85392E-07  2472   0.157E-03    0.592E-04
RMM:  13    -0.413176385711E+03    0.48730E-06   -0.28912E-07  2047   0.943E-04
   25 T=    63. E= -.41286633E+03 F= -.41317639E+03 E0= -.41315459E+03  EK= 0.31005E+00 SP= 0.00E+00 SK= 0.00E+00
       N       E                     dE             d eps       ncg     rms          rms(c)
RMM:   1    -0.413170258043E+03    0.61282E-02   -0.11159E+01  4296   0.811E-01    0.923E-01
RMM:   2    -0.413179090943E+03   -0.88329E-02   -0.13582E-01  4277   0.108E-01    0.643E-01
RMM:   3    -0.413177818561E+03    0.12724E-02   -0.78337E-03  4664   0.432E-02    0.160E-01
RMM:   4    -0.413198800568E+03   -0.20982E-01   -0.21197E-02  5144   0.122E-01    0.605E-01
RMM:   5    -0.413177573082E+03    0.21227E-01   -0.10584E-02  4815   0.100E-01    0.364E-02
RMM:   6    -0.413177672455E+03   -0.99373E-04   -0.16661E-03  5819   0.384E-02    0.217E-02
RMM:   7    -0.413177669691E+03    0.27639E-05   -0.17149E-04  5632   0.124E-02    0.107E-02
RMM:   8    -0.413177662445E+03    0.72457E-05   -0.30394E-05  4609   0.547E-03    0.704E-03
RMM:   9    -0.413177656254E+03    0.61909E-05   -0.73003E-06  3302   0.308E-03    0.538E-03
RMM:  10    -0.413177652562E+03    0.36923E-05   -0.14237E-06  2549   0.193E-03    0.362E-03
RMM:  11    -0.413177643152E+03    0.94105E-05   -0.18452E-06  2567   0.213E-03    0.162E-03
RMM:  12    -0.413177636279E+03    0.68729E-05   -0.79921E-07  2445   0.152E-03    0.812E-04
RMM:  13    -0.413177635863E+03    0.41506E-06   -0.23763E-07  2007   0.905E-04
   26 T=    63. E= -.41286619E+03 F= -.41317764E+03 E0= -.41315589E+03  EK= 0.31144E+00 SP= 0.00E+00 SK= 0.00E+00
       N       E                     dE             d eps       ncg     rms          rms(c)
RMM:   1    -0.413171128911E+03    0.65074E-02   -0.11114E+01  4297   0.799E-01    0.899E-01
RMM:   2    -0.413181199399E+03   -0.10070E-01   -0.13710E-01  4278   0.104E-01    0.646E-01
RMM:   3    -0.413179649002E+03    0.15504E-02   -0.74938E-03  4615   0.410E-02    0.152E-01
RMM:   4    -0.413195311677E+03   -0.15663E-01   -0.15996E-02  5149   0.106E-01    0.525E-01
RMM:   5    -0.413179437120E+03    0.15875E-01   -0.79568E-03  4820   0.864E-02    0.325E-02
RMM:   6    -0.413179501580E+03   -0.64460E-04   -0.12575E-03  5856   0.327E-02    0.196E-02
RMM:   7    -0.413179500666E+03    0.91364E-06   -0.13196E-04  5532   0.109E-02    0.913E-03
RMM:   8    -0.413179494681E+03    0.59852E-05   -0.21432E-05  4229   0.471E-03    0.568E-03
RMM:   9    -0.413179491521E+03    0.31599E-05   -0.29480E-06  2643   0.218E-03    0.399E-03
RMM:  10    -0.413179489504E+03    0.20177E-05   -0.80281E-07  2458   0.141E-03    0.296E-03
RMM:  11    -0.413179483235E+03    0.62688E-05   -0.14007E-06  2512   0.193E-03    0.140E-03
RMM:  12    -0.413179480975E+03    0.22596E-05   -0.53237E-07  2299   0.125E-03    0.685E-04
RMM:  13    -0.413179480248E+03    0.72706E-06   -0.19449E-07  1604   0.793E-04
   27 T=    64. E= -.41286650E+03 F= -.41317948E+03 E0= -.41315778E+03  EK= 0.31298E+00 SP= 0.00E+00 SK= 0.00E+00
       N       E                     dE             d eps       ncg     rms          rms(c)
RMM:   1    -0.413174192373E+03    0.52886E-02   -0.11249E+01  4293   0.843E-01    0.908E-01
RMM:   2    -0.413182544689E+03   -0.83523E-02   -0.14041E-01  4276   0.108E-01    0.657E-01
RMM:   3    -0.413180727953E+03    0.18167E-02   -0.77146E-03  4579   0.431E-02    0.150E-01
RMM:   4    -0.413195542854E+03   -0.14815E-01   -0.15155E-02  5151   0.104E-01    0.511E-01
RMM:   5    -0.413180525818E+03    0.15017E-01   -0.75026E-03  4819   0.838E-02    0.319E-02
RMM:   6    -0.413180581299E+03   -0.55481E-04   -0.11635E-03  5860   0.318E-02    0.193E-02
RMM:   7    -0.413180582818E+03   -0.15190E-05   -0.13307E-04  5599   0.110E-02    0.962E-03
RMM:   8    -0.413180576378E+03    0.64396E-05   -0.25467E-05  4560   0.517E-03    0.611E-03
RMM:   9    -0.413180575151E+03    0.12270E-05   -0.70201E-06  3320   0.315E-03    0.501E-03
RMM:  10    -0.413180572284E+03    0.28669E-05   -0.95971E-07  2513   0.178E-03    0.314E-03
RMM:  11    -0.413180568366E+03    0.39185E-05   -0.11826E-06  2505   0.174E-03    0.150E-03
RMM:  12    -0.413180564852E+03    0.35142E-05   -0.64332E-07  2357   0.130E-03    0.504E-04
RMM:  13    -0.413180564108E+03    0.74339E-06   -0.20364E-07  1739   0.807E-04
   28 T=    64. E= -.41286620E+03 F= -.41318056E+03 E0= -.41315892E+03  EK= 0.31437E+00 SP= 0.00E+00 SK= 0.00E+00
       N       E                     dE             d eps       ncg     rms          rms(c)
RMM:   1    -0.413179653255E+03    0.91160E-03   -0.11331E+01  4292   0.870E-01    0.931E-01
RMM:   2    -0.413184147578E+03   -0.44943E-02   -0.14165E-01  4275   0.111E-01    0.650E-01
RMM:   3    -0.413182699929E+03    0.14476E-02   -0.80138E-03  4401   0.435E-02    0.158E-01
RMM:   4    -0.413188447061E+03   -0.57471E-02   -0.62611E-03  5169   0.662E-02    0.318E-01
RMM:   5    -0.413182726314E+03    0.57207E-02   -0.28859E-03  4836   0.522E-02    0.297E-02
RMM:   6    -0.413182733809E+03   -0.74948E-05   -0.50677E-04  5813   0.213E-02    0.198E-02
RMM:   7    -0.413182723892E+03    0.99166E-05   -0.13342E-04  5338   0.114E-02    0.109E-02
RMM:   8    -0.413182712368E+03    0.11524E-04   -0.11453E-05  3764   0.438E-03    0.459E-03
RMM:   9    -0.413182708051E+03    0.43164E-05   -0.22002E-06  2646   0.215E-03    0.326E-03
RMM:  10    -0.413182701906E+03    0.61450E-05   -0.98744E-07  2477   0.164E-03    0.180E-03
RMM:  11    -0.413182694888E+03    0.70181E-05   -0.60110E-07  2397   0.131E-03    0.767E-04
RMM:  12    -0.413182690011E+03    0.48771E-05   -0.29733E-07  1991   0.939E-04    0.322E-04
RMM:  13    -0.413182687494E+03    0.25168E-05   -0.14929E-07  1347   0.717E-04    0.179E-04
RMM:  14    -0.413182683655E+03    0.38397E-05   -0.10995E-07  1259   0.683E-04    0.108E-04
RMM:  15    -0.413182679257E+03    0.43975E-05   -0.99690E-08  1363   0.677E-04    0.961E-05
RMM:  16    -0.413182677133E+03    0.21240E-05   -0.61184E-08  1104   0.593E-04    0.612E-05
RMM:  17    -0.413182673166E+03    0.39675E-05   -0.74333E-08  1266   0.615E-04    0.422E-05
RMM:  18    -0.413182672710E+03    0.45505E-06   -0.25465E-08   765   0.511E-04
   29 T=    64. E= -.41286650E+03 F= -.41318267E+03 E0= -.41316107E+03  EK= 0.31617E+00 SP= 0.00E+00 SK= 0.00E+00
       N       E                     dE             d eps       ncg     rms          rms(c)
RMM:   1    -0.413176380923E+03    0.62922E-02   -0.11232E+01  4288   0.832E-01    0.909E-01
RMM:   2    -0.413186330196E+03   -0.99493E-02   -0.13962E-01  4273   0.110E-01    0.649E-01
RMM:   3    -0.413184610998E+03    0.17192E-02   -0.77818E-03  4462   0.463E-02    0.154E-01
RMM:   4    -0.413194465930E+03   -0.98549E-02   -0.10281E-02  5156   0.862E-02    0.418E-01
RMM:   5    -0.413184506695E+03    0.99592E-02   -0.50238E-03  4829   0.685E-02    0.307E-02
RMM:   6    -0.413184531180E+03   -0.24485E-04   -0.78824E-04  5848   0.264E-02    0.199E-02
RMM:   7    -0.413184530131E+03    0.10486E-05   -0.14667E-04  5499   0.118E-02    0.120E-02
RMM:   8    -0.413184518127E+03    0.12005E-04   -0.22004E-05  4388   0.542E-03    0.508E-03
RMM:   9    -0.413184515389E+03    0.27378E-05   -0.41437E-06  2891   0.267E-03    0.396E-03
RMM:  10    -0.413184511773E+03    0.36157E-05   -0.87957E-07  2486   0.165E-03    0.242E-03
RMM:  11    -0.413184507091E+03    0.46821E-05   -0.66175E-07  2456   0.136E-03    0.117E-03
RMM:  12    -0.413184502893E+03    0.41982E-05   -0.41483E-07  2202   0.106E-03    0.468E-04
RMM:  13    -0.413184501326E+03    0.15667E-05   -0.16812E-07  1531   0.751E-04    0.220E-04
RMM:  14    -0.413184499695E+03    0.16313E-05   -0.96421E-08  1134   0.651E-04    0.131E-04
RMM:  15    -0.413184496027E+03    0.36675E-05   -0.98175E-08  1265   0.673E-04    0.118E-04
RMM:  16    -0.413184495514E+03    0.51365E-06   -0.41783E-08   870   0.584E-04
   30 T=    65. E= -.41286647E+03 F= -.41318450E+03 E0= -.41316295E+03  EK= 0.31802E+00 SP= 0.00E+00 SK= 0.00E+00
       N       E                     dE             d eps       ncg     rms          rms(c)
RMM:   1    -0.413182048377E+03    0.24476E-02   -0.11399E+01  4292   0.890E-01    0.910E-01
RMM:   2    -0.413188784099E+03   -0.67357E-02   -0.14890E-01  4273   0.122E-01    0.663E-01
RMM:   3    -0.413186130495E+03    0.26536E-02   -0.76969E-03  4304   0.439E-02    0.153E-01
RMM:   4    -0.413188648067E+03   -0.25176E-02   -0.33694E-03  5118   0.491E-02    0.211E-01
RMM:   5    -0.413186152329E+03    0.24957E-02   -0.12397E-03  4807   0.349E-02    0.269E-02
RMM:   6    -0.413186150979E+03    0.13501E-05   -0.25637E-04  5697   0.161E-02    0.199E-02
RMM:   7    -0.413186144131E+03    0.68481E-05   -0.10576E-04  5078   0.995E-03    0.879E-03
RMM:   8    -0.413186139398E+03    0.47328E-05   -0.78186E-06  3366   0.370E-03    0.428E-03
RMM:   9    -0.413186138368E+03    0.10302E-05   -0.10868E-06  2501   0.176E-03    0.266E-03
RMM:  10    -0.413186134830E+03    0.35378E-05   -0.90316E-07  2456   0.146E-03    0.122E-03
RMM:  11    -0.413186133069E+03    0.17611E-05   -0.35819E-07  2100   0.984E-04    0.579E-04
RMM:  12    -0.413186130850E+03    0.22187E-05   -0.23084E-07  1690   0.827E-04    0.235E-04
RMM:  13    -0.413186129319E+03    0.15311E-05   -0.11927E-07  1176   0.678E-04    0.142E-04
RMM:  14    -0.413186127279E+03    0.20405E-05   -0.98953E-08  1153   0.661E-04    0.981E-05
RMM:  15    -0.413186125067E+03    0.22122E-05   -0.85181E-08  1218   0.639E-04    0.658E-05
RMM:  16    -0.413186123910E+03    0.11562E-05   -0.46577E-08   929   0.567E-04    0.471E-05
RMM:  17    -0.413186122607E+03    0.13038E-05   -0.35448E-08   870   0.546E-04    0.208E-05
RMM:  18    -0.413186121897E+03    0.70929E-06   -0.19506E-08   712   0.521E-04
   31 T=    65. E= -.41286616E+03 F= -.41318612E+03 E0= -.41316462E+03  EK= 0.31997E+00 SP= 0.00E+00 SK= 0.00E+00
       N       E                     dE             d eps       ncg     rms          rms(c)
RMM:   1    -0.413181375883E+03    0.47467E-02   -0.11445E+01  4289   0.866E-01    0.936E-01
RMM:   2    -0.413190528261E+03   -0.91524E-02   -0.14324E-01  4281   0.122E-01    0.658E-01
RMM:   3    -0.413188772890E+03    0.17554E-02   -0.82614E-03  4216   0.501E-02    0.155E-01
RMM:   4    -0.413189429395E+03   -0.65651E-03   -0.15752E-03  5007   0.334E-02    0.106E-01
RMM:   5    -0.413188826790E+03    0.60260E-03   -0.32294E-04  4755   0.185E-02    0.295E-02
RMM:   6    -0.413188818253E+03    0.85373E-05   -0.14988E-04  5390   0.127E-02    0.216E-02
RMM:   7    -0.413188796640E+03    0.21613E-04   -0.10036E-04  4759   0.968E-03    0.945E-03
RMM:   8    -0.413188793650E+03    0.29894E-05   -0.62224E-06  3124   0.341E-03    0.404E-03
RMM:   9    -0.413188791916E+03    0.17347E-05   -0.12600E-06  2435   0.172E-03    0.214E-03
RMM:  10    -0.413188783011E+03    0.89042E-05   -0.70432E-07  2292   0.129E-03    0.797E-04
RMM:  11    -0.413188778338E+03    0.46736E-05   -0.27175E-07  1799   0.847E-04    0.322E-04
RMM:  12    -0.413188774757E+03    0.35811E-05   -0.14453E-07  1452   0.718E-04    0.183E-04
RMM:  13    -0.413188771369E+03    0.33878E-05   -0.83490E-08  1103   0.644E-04    0.106E-04
RMM:  14    -0.413188766338E+03    0.50304E-05   -0.82190E-08  1234   0.646E-04    0.103E-04
RMM:  15    -0.413188763398E+03    0.29404E-05   -0.44129E-08   942   0.569E-04    0.792E-05
RMM:  16    -0.413188759870E+03    0.35281E-05   -0.49578E-08  1057   0.577E-04    0.492E-05
RMM:  17    -0.413188759321E+03    0.54854E-06   -0.14258E-08   615   0.493E-04
   32 T=    66. E= -.41286645E+03 F= -.41318876E+03 E0= -.41316731E+03  EK= 0.32231E+00 SP= 0.00E+00 SK= 0.00E+00
       N       E                     dE             d eps       ncg     rms          rms(c)
RMM:   1    -0.413187981467E+03    0.77840E-03   -0.11465E+01  4284   0.912E-01    0.923E-01
RMM:   2    -0.413192748160E+03   -0.47667E-02   -0.14237E-01  4283   0.130E-01    0.654E-01
RMM:   3    -0.413190645439E+03    0.21027E-02   -0.80454E-03  4278   0.439E-02    0.153E-01
RMM:   4    -0.413192610670E+03   -0.19652E-02   -0.27414E-03  5117   0.452E-02    0.188E-01
RMM:   5    -0.413190673707E+03    0.19370E-02   -0.96151E-04  4796   0.312E-02    0.291E-02
RMM:   6    -0.413190664317E+03    0.93897E-05   -0.23856E-04  5610   0.159E-02    0.214E-02
RMM:   7    -0.413190649091E+03    0.15227E-04   -0.11303E-04  5007   0.101E-02    0.973E-03
RMM:   8    -0.413190643693E+03    0.53976E-05   -0.87421E-06  3485   0.385E-03    0.452E-03
RMM:   9    -0.413190641702E+03    0.19911E-05   -0.12817E-06  2480   0.179E-03    0.249E-03
RMM:  10    -0.413190634468E+03    0.72337E-05   -0.76375E-07  2417   0.141E-03    0.115E-03
RMM:  11    -0.413190630679E+03    0.37895E-05   -0.32407E-07  2049   0.954E-04    0.651E-04
RMM:  12    -0.413190625928E+03    0.47511E-05   -0.21437E-07  1648   0.811E-04    0.213E-04
RMM:  13    -0.413190622974E+03    0.29541E-05   -0.10093E-07  1070   0.656E-04    0.136E-04
RMM:  14    -0.413190619169E+03    0.38041E-05   -0.81425E-08  1050   0.641E-04    0.104E-04
RMM:  15    -0.413190614532E+03    0.46379E-05   -0.78055E-08  1151   0.635E-04    0.574E-05
RMM:  16    -0.413190612876E+03    0.16555E-05   -0.42657E-08   858   0.558E-04    0.486E-05
RMM:  17    -0.413190610894E+03    0.19818E-05   -0.31842E-08   800   0.547E-04    0.240E-05
RMM:  18    -0.413190609904E+03    0.99012E-06   -0.21170E-08   645   0.517E-04
   33 T=    66. E= -.41286612E+03 F= -.41319061E+03 E0= -.41316921E+03  EK= 0.32449E+00 SP= 0.00E+00 SK= 0.00E+00
       N       E                     dE             d eps       ncg     rms          rms(c)
RMM:   1    -0.413194246717E+03   -0.36358E-02   -0.11610E+01  4296   0.965E-01    0.915E-01
RMM:   2    -0.413195386277E+03   -0.11396E-02   -0.15269E-01  4280   0.132E-01    0.668E-01
RMM:   3    -0.413193197810E+03    0.21885E-02   -0.79232E-03  4398   0.506E-02    0.156E-01
RMM:   4    -0.413198348767E+03   -0.51510E-02   -0.57878E-03  5145   0.671E-02    0.303E-01
RMM:   5    -0.413193220209E+03    0.51286E-02   -0.25069E-03  4803   0.498E-02    0.297E-02
RMM:   6    -0.413193209176E+03    0.11033E-04   -0.44477E-04  5738   0.215E-02    0.212E-02
RMM:   7    -0.413193206753E+03    0.24228E-05   -0.13056E-04  5232   0.111E-02    0.101E-02
RMM:   8    -0.413193199790E+03    0.69628E-05   -0.14084E-05  4025   0.459E-03    0.470E-03
RMM:   9    -0.413193198470E+03    0.13205E-05   -0.19461E-06  2631   0.209E-03    0.293E-03
RMM:  10    -0.413193195459E+03    0.30104E-05   -0.80338E-07  2460   0.147E-03    0.153E-03
RMM:  11    -0.413193192052E+03    0.34077E-05   -0.53291E-07  2305   0.117E-03    0.694E-04
RMM:  12    -0.413193189402E+03    0.26497E-05   -0.28620E-07  1870   0.884E-04    0.304E-04
RMM:  13    -0.413193187879E+03    0.15233E-05   -0.13910E-07  1206   0.690E-04    0.160E-04
RMM:  14    -0.413193186239E+03    0.16400E-05   -0.91995E-08  1037   0.645E-04    0.106E-04
RMM:  15    -0.413193183449E+03    0.27897E-05   -0.91377E-08  1148   0.655E-04    0.603E-05
RMM:  16    -0.413193182564E+03    0.88512E-06   -0.47305E-08   901   0.589E-04
   34 T=    67. E= -.41286624E+03 F= -.41319318E+03 E0= -.41317183E+03  EK= 0.32695E+00 SP= 0.00E+00 SK= 0.00E+00
       N       E                     dE             d eps       ncg     rms          rms(c)
RMM:   1    -0.413188859603E+03    0.43238E-02   -0.11631E+01  4301   0.922E-01    0.940E-01
RMM:   2    -0.413197969126E+03   -0.91095E-02   -0.14923E-01  4264   0.132E-01    0.668E-01
RMM:   3    -0.413196007692E+03    0.19614E-02   -0.81924E-03  4397   0.489E-02    0.160E-01
RMM:   4    -0.413200428237E+03   -0.44205E-02   -0.51597E-03  5160   0.610E-02    0.283E-01
RMM:   5    -0.413195956280E+03    0.44720E-02   -0.22501E-03  4818   0.469E-02    0.311E-02
RMM:   6    -0.413195946078E+03    0.10202E-04   -0.43352E-04  5720   0.207E-02    0.226E-02
RMM:   7    -0.413195936899E+03    0.91788E-05   -0.13710E-04  5224   0.111E-02    0.102E-02
RMM:   8    -0.413195928978E+03    0.79214E-05   -0.13367E-05  3919   0.442E-03    0.474E-03
RMM:   9    -0.413195926350E+03    0.26274E-05   -0.18097E-06  2608   0.201E-03    0.287E-03
RMM:  10    -0.413195920167E+03    0.61831E-05   -0.79447E-07  2466   0.147E-03    0.146E-03
RMM:  11    -0.413195914281E+03    0.58859E-05   -0.47071E-07  2256   0.111E-03    0.687E-04
RMM:  12    -0.413195909510E+03    0.47716E-05   -0.25688E-07  1858   0.870E-04    0.285E-04
RMM:  13    -0.413195906865E+03    0.26451E-05   -0.13201E-07  1234   0.693E-04    0.159E-04
RMM:  14    -0.413195903626E+03    0.32390E-05   -0.88004E-08  1101   0.648E-04    0.117E-04
RMM:  15    -0.413195898244E+03    0.53814E-05   -0.90974E-08  1257   0.661E-04    0.700E-05
RMM:  16    -0.413195896811E+03    0.14336E-05   -0.45166E-08   918   0.579E-04    0.605E-05
RMM:  17    -0.413195893538E+03    0.32725E-05   -0.47881E-08  1089   0.597E-04    0.315E-05
RMM:  18    -0.413195892284E+03    0.12543E-05   -0.25569E-08   800   0.539E-04    0.166E-05
RMM:  19    -0.413195892021E+03    0.26324E-06   -0.13896E-08   668   0.517E-04
   35 T=    67. E= -.41286646E+03 F= -.41319589E+03 E0= -.41317458E+03  EK= 0.32943E+00 SP= 0.00E+00 SK= 0.00E+00
       N       E                     dE             d eps       ncg     rms          rms(c)
RMM:   1    -0.413201937511E+03   -0.60452E-02   -0.11742E+01  4298   0.101E+00    0.940E-01
RMM:   2    -0.413199821544E+03    0.21160E-02   -0.15635E-01  4262   0.130E-01    0.662E-01
RMM:   3    -0.413198229361E+03    0.15922E-02   -0.83407E-03  4754   0.499E-02    0.185E-01
RMM:   4    -0.413229839574E+03   -0.31610E-01   -0.32010E-02  5161   0.150E-01    0.741E-01
RMM:   5    -0.413197867639E+03    0.31972E-01   -0.16133E-02  4800   0.124E-01    0.433E-02
RMM:   6    -0.413197925867E+03   -0.58229E-04   -0.25772E-03  5854   0.476E-02    0.258E-02
RMM:   7    -0.413197934523E+03   -0.86558E-05   -0.28420E-04  5719   0.152E-02    0.142E-02
RMM:   8    -0.413197926139E+03    0.83839E-05   -0.46387E-05  4919   0.681E-03    0.879E-03
RMM:   9    -0.413197922536E+03    0.36029E-05   -0.17524E-05  4336   0.450E-03    0.654E-03
RMM:  10    -0.413197915284E+03    0.72521E-05   -0.24298E-06  2604   0.248E-03    0.375E-03
RMM:  11    -0.413197910115E+03    0.51690E-05   -0.14502E-06  2506   0.191E-03    0.222E-03
RMM:  12    -0.413197899495E+03    0.10620E-04   -0.13436E-06  2492   0.198E-03    0.931E-04
RMM:  13    -0.413197896027E+03    0.34677E-05   -0.45941E-07  2325   0.125E-03    0.612E-04
RMM:  14    -0.413197895747E+03    0.28083E-06   -0.18905E-07  1744   0.808E-04
   36 T=    68. E= -.41286622E+03 F= -.41319790E+03 E0= -.41317663E+03  EK= 0.33167E+00 SP= 0.00E+00 SK= 0.00E+00
       N       E                     dE             d eps       ncg     rms          rms(c)
RMM:   1    -0.413198266358E+03   -0.37033E-03   -0.11732E+01  4305   0.102E+00    0.923E-01
RMM:   2    -0.413203564406E+03   -0.52980E-02   -0.15678E-01  4261   0.135E-01    0.673E-01
RMM:   3    -0.413201234680E+03    0.23297E-02   -0.81203E-03  4668   0.527E-02    0.172E-01
RMM:   4    -0.413226031415E+03   -0.24797E-01   -0.25074E-02  5160   0.133E-01    0.659E-01
RMM:   5    -0.413200960300E+03    0.25071E-01   -0.12657E-02  4800   0.109E-01    0.400E-02
RMM:   6    -0.413200989733E+03   -0.29434E-04   -0.20339E-03  5849   0.423E-02    0.243E-02
RMM:   7    -0.413201001231E+03   -0.11498E-04   -0.26200E-04  5761   0.145E-02    0.144E-02
RMM:   8    -0.413200992555E+03    0.86766E-05   -0.51634E-05  5003   0.732E-03    0.841E-03
RMM:   9    -0.413200989306E+03    0.32484E-05   -0.12298E-05  3956   0.416E-03    0.514E-03
RMM:  10    -0.413200984796E+03    0.45102E-05   -0.19192E-06  2569   0.214E-03    0.319E-03
RMM:  11    -0.413200980460E+03    0.43367E-05   -0.11643E-06  2497   0.172E-03    0.167E-03
RMM:  12    -0.413200974029E+03    0.64309E-05   -0.93042E-07  2452   0.158E-03    0.675E-04
RMM:  13    -0.413200971944E+03    0.20851E-05   -0.34685E-07  2152   0.104E-03    0.438E-04
RMM:  14    -0.413200971304E+03    0.63943E-06   -0.16102E-07  1480   0.736E-04
   37 T=    68. E= -.41286662E+03 F= -.41320097E+03 E0= -.41317975E+03  EK= 0.33435E+00 SP= 0.00E+00 SK= 0.00E+00
       N       E                     dE             d eps       ncg     rms          rms(c)
RMM:   1    -0.413197255714E+03    0.37162E-02   -0.11823E+01  4307   0.101E+00    0.943E-01
RMM:   2    -0.413206159420E+03   -0.89037E-02   -0.15576E-01  4262   0.128E-01    0.677E-01
RMM:   3    -0.413203652238E+03    0.25072E-02   -0.84952E-03  4725   0.521E-02    0.178E-01
RMM:   4    -0.413233265576E+03   -0.29613E-01   -0.29976E-02  5151   0.145E-01    0.718E-01
RMM:   5    -0.413203309494E+03    0.29956E-01   -0.15266E-02  4810   0.120E-01    0.424E-02
RMM:   6    -0.413203349460E+03   -0.39965E-04   -0.23270E-03  5834   0.459E-02    0.256E-02
RMM:   7    -0.413203361273E+03   -0.11814E-04   -0.30405E-04  5796   0.156E-02    0.156E-02
RMM:   8    -0.413203350784E+03    0.10490E-04   -0.56196E-05  5049   0.765E-03    0.880E-03
RMM:   9    -0.413203346559E+03    0.42250E-05   -0.13846E-05  4074   0.432E-03    0.534E-03
RMM:  10    -0.413203341022E+03    0.55364E-05   -0.21427E-06  2588   0.220E-03    0.330E-03
RMM:  11    -0.413203335914E+03    0.51080E-05   -0.11557E-06  2502   0.172E-03    0.178E-03
RMM:  12    -0.413203327673E+03    0.82417E-05   -0.95880E-07  2471   0.164E-03    0.714E-04
RMM:  13    -0.413203324802E+03    0.28709E-05   -0.36489E-07  2194   0.108E-03    0.485E-04
RMM:  14    -0.413203324190E+03    0.61141E-06   -0.16762E-07  1562   0.754E-04
   38 T=    69. E= -.41286649E+03 F= -.41320332E+03 E0= -.41318214E+03  EK= 0.33684E+00 SP= 0.00E+00 SK= 0.00E+00
       N       E                     dE             d eps       ncg     rms          rms(c)
RMM:   1    -0.413216706672E+03   -0.13382E-01   -0.12026E+01  4305   0.112E+00    0.957E-01
RMM:   2    -0.413207985267E+03    0.87214E-02   -0.16494E-01  4270   0.128E-01    0.672E-01
RMM:   3    -0.413206525550E+03    0.14597E-02   -0.89350E-03  4970   0.536E-02    0.216E-01
RMM:   4    -0.413256563607E+03   -0.50038E-01   -0.53389E-02  5138   0.192E-01    0.928E-01
RMM:   5    -0.413205551976E+03    0.51012E-01   -0.25423E-02  4787   0.156E-01    0.530E-02
RMM:   6    -0.413205688411E+03   -0.13644E-03   -0.40092E-03  5826   0.596E-02    0.292E-02
RMM:   7    -0.413205703090E+03   -0.14679E-04   -0.42932E-04  5773   0.181E-02    0.170E-02
RMM:   8    -0.413205697250E+03    0.58401E-05   -0.62552E-05  5001   0.732E-03    0.970E-03
RMM:   9    -0.413205688704E+03    0.85460E-05   -0.22181E-05  4496   0.485E-03    0.667E-03
RMM:  10    -0.413205682591E+03    0.61125E-05   -0.49529E-06  2929   0.296E-03    0.378E-03
RMM:  11    -0.413205676000E+03    0.65915E-05   -0.17857E-06  2525   0.214E-03    0.223E-03
RMM:  12    -0.413205664788E+03    0.11212E-04   -0.11407E-06  2484   0.186E-03    0.666E-04
RMM:  13    -0.413205660709E+03    0.40785E-05   -0.45836E-07  2343   0.122E-03    0.545E-04
RMM:  14    -0.413205659459E+03    0.12501E-05   -0.20068E-07  1886   0.832E-04    0.346E-04
RMM:  15    -0.413205654121E+03    0.53380E-05   -0.11417E-07  1442   0.712E-04    0.166E-04
RMM:  16    -0.413205651335E+03    0.27866E-05   -0.61706E-08  1065   0.621E-04    0.112E-04
RMM:  17    -0.413205648144E+03    0.31911E-05   -0.49678E-08  1061   0.612E-04    0.869E-05
RMM:  18    -0.413205643893E+03    0.42507E-05   -0.53605E-08  1253   0.630E-04    0.876E-05
RMM:  19    -0.413205642366E+03    0.15266E-05   -0.27539E-08   940   0.558E-04    0.641E-05
RMM:  20    -0.413205641640E+03    0.72676E-06   -0.17661E-08   823   0.531E-04
   39 T=    69. E= -.41286634E+03 F= -.41320564E+03 E0= -.41318450E+03  EK= 0.33931E+00 SP= 0.00E+00 SK= 0.00E+00
       N       E                     dE             d eps       ncg     rms          rms(c)
RMM:   1    -0.413204388343E+03    0.12540E-02   -0.11881E+01  4310   0.110E+00    0.934E-01
RMM:   2    -0.413211335233E+03   -0.69469E-02   -0.16033E-01  4267   0.130E-01    0.677E-01
RMM:   3    -0.413209848635E+03    0.14866E-02   -0.91144E-03  5005   0.579E-02    0.228E-01
RMM:   4    -0.413262922412E+03   -0.53074E-01   -0.59318E-02  5127   0.202E-01    0.957E-01
RMM:   5    -0.413208362233E+03    0.54560E-01   -0.26661E-02  4777   0.161E-01    0.549E-02
RMM:   6    -0.413208517458E+03   -0.15522E-03   -0.42708E-03  5812   0.613E-02    0.291E-02
RMM:   7    -0.413208536170E+03   -0.18713E-04   -0.47704E-04  5881   0.189E-02    0.188E-02
RMM:   8    -0.413208537079E+03   -0.90823E-06   -0.95685E-05  5244   0.916E-03    0.124E-02
RMM:   9    -0.413208525795E+03    0.11283E-04   -0.23418E-05  4556   0.542E-03    0.613E-03
RMM:  10    -0.413208521282E+03    0.45128E-05   -0.46260E-06  2796   0.285E-03    0.362E-03
RMM:  11    -0.413208517617E+03    0.36657E-05   -0.15714E-06  2503   0.204E-03    0.210E-03
RMM:  12    -0.413208511655E+03    0.59617E-05   -0.10126E-06  2479   0.173E-03    0.678E-04
RMM:  13    -0.413208508781E+03    0.28743E-05   -0.45771E-07  2318   0.119E-03    0.413E-04
RMM:  14    -0.413208507378E+03    0.14031E-05   -0.21665E-07  1835   0.839E-04    0.278E-04
RMM:  15    -0.413208503685E+03    0.36927E-05   -0.13440E-07  1399   0.722E-04    0.165E-04
RMM:  16    -0.413208502275E+03    0.14103E-05   -0.73805E-08  1061   0.629E-04    0.974E-05
RMM:  17    -0.413208500312E+03    0.19631E-05   -0.57480E-08  1032   0.615E-04    0.686E-05
RMM:  18    -0.413208497716E+03    0.25953E-05   -0.48971E-08  1030   0.614E-04    0.362E-05
RMM:  19    -0.413208496109E+03    0.16068E-05   -0.36937E-08   993   0.595E-04    0.271E-05
RMM:  20    -0.413208495429E+03    0.68039E-06   -0.20255E-08   800   0.562E-04
   40 T=    70. E= -.41286659E+03 F= -.41320850E+03 E0= -.41318739E+03  EK= 0.34190E+00 SP= 0.00E+00 SK= 0.00E+00
       N       E                     dE             d eps       ncg     rms          rms(c)
RMM:   1    -0.413221065678E+03   -0.12570E-01   -0.12163E+01  4308   0.124E+00    0.945E-01
RMM:   2    -0.413213057438E+03    0.80082E-02   -0.17783E-01  4274   0.142E-01    0.689E-01
RMM:   3    -0.413212194214E+03    0.86322E-03   -0.95035E-03  5053   0.617E-02    0.265E-01
RMM:   4    -0.413267144531E+03   -0.54950E-01   -0.64376E-02  5118   0.211E-01    0.979E-01
RMM:   5    -0.413210090199E+03    0.57054E-01   -0.27523E-02  4774   0.165E-01    0.582E-02
RMM:   6    -0.413210242965E+03   -0.15277E-03   -0.43706E-03  5801   0.625E-02    0.293E-02
RMM:   7    -0.413210263137E+03   -0.20171E-04   -0.50551E-04  5902   0.195E-02    0.201E-02
RMM:   8    -0.413210263232E+03   -0.95464E-07   -0.10398E-04  5286   0.970E-03    0.125E-02
RMM:   9    -0.413210251470E+03    0.11762E-04   -0.22334E-05  4485   0.545E-03    0.537E-03
RMM:  10    -0.413210247304E+03    0.41663E-05   -0.50942E-06  2857   0.283E-03    0.325E-03
RMM:  11    -0.413210243793E+03    0.35112E-05   -0.14070E-06  2501   0.193E-03    0.183E-03
RMM:  12    -0.413210238614E+03    0.51789E-05   -0.82063E-07  2470   0.154E-03    0.633E-04
RMM:  13    -0.413210235774E+03    0.28401E-05   -0.39123E-07  2240   0.108E-03    0.314E-04
RMM:  14    -0.413210233782E+03    0.19914E-05   -0.20332E-07  1701   0.805E-04    0.211E-04
RMM:  15    -0.413210230446E+03    0.33359E-05   -0.12901E-07  1280   0.700E-04    0.108E-04
RMM:  16    -0.413210228990E+03    0.14568E-05   -0.81159E-08  1129   0.644E-04    0.680E-05
RMM:  17    -0.413210227027E+03    0.19631E-05   -0.66657E-08  1132   0.637E-04    0.584E-05
RMM:  18    -0.413210224809E+03    0.22172E-05   -0.47928E-08  1003   0.614E-04    0.275E-05
RMM:  19    -0.413210223391E+03    0.14183E-05   -0.37912E-08   999   0.596E-04    0.247E-05
RMM:  20    -0.413210222913E+03    0.47850E-06   -0.20507E-08   798   0.561E-04
   41 T=    70. E= -.41286618E+03 F= -.41321022E+03 E0= -.41318915E+03  EK= 0.34405E+00 SP= 0.00E+00 SK= 0.00E+00
       N       E                     dE             d eps       ncg     rms          rms(c)
RMM:   1    -0.413227685544E+03   -0.17462E-01   -0.12248E+01  4310   0.129E+00    0.970E-01
RMM:   2    -0.413214815102E+03    0.12870E-01   -0.17115E-01  4287   0.144E-01    0.682E-01
RMM:   3    -0.413216383431E+03   -0.15683E-02   -0.11665E-02  5109   0.738E-02    0.320E-01
RMM:   4    -0.413252511735E+03   -0.36128E-01   -0.52297E-02  5095   0.192E-01    0.828E-01
RMM:   5    -0.413212600844E+03    0.39911E-01   -0.17971E-02  4733   0.139E-01    0.561E-02
RMM:   6    -0.413212658785E+03   -0.57940E-04   -0.30389E-03  5751   0.524E-02    0.288E-02
RMM:   7    -0.413212667661E+03   -0.88767E-05   -0.39887E-04  5839   0.176E-02    0.199E-02
RMM:   8    -0.413212663816E+03    0.38456E-05   -0.95139E-05  5181   0.956E-03    0.112E-02
RMM:   9    -0.413212649922E+03    0.13894E-04   -0.18698E-05  4312   0.524E-03    0.432E-03
RMM:  10    -0.413212644345E+03    0.55769E-05   -0.38653E-06  2754   0.252E-03    0.265E-03
RMM:  11    -0.413212637935E+03    0.64098E-05   -0.12071E-06  2499   0.179E-03    0.141E-03
RMM:  12    -0.413212630613E+03    0.73218E-05   -0.59794E-07  2412   0.135E-03    0.559E-04
RMM:  13    -0.413212626447E+03    0.41668E-05   -0.29968E-07  1950   0.948E-04    0.257E-04
RMM:  14    -0.413212622835E+03    0.36114E-05   -0.16882E-07  1446   0.755E-04    0.149E-04
RMM:  15    -0.413212616776E+03    0.60594E-05   -0.13097E-07  1347   0.717E-04    0.112E-04
RMM:  16    -0.413212614621E+03    0.21551E-05   -0.84138E-08  1182   0.651E-04    0.778E-05
RMM:  17    -0.413212610381E+03    0.42397E-05   -0.77864E-08  1308   0.654E-04    0.650E-05
RMM:  18    -0.413212607861E+03    0.25197E-05   -0.53637E-08  1132   0.600E-04    0.388E-05
RMM:  19    -0.413212607152E+03    0.70938E-06   -0.29655E-08   856   0.546E-04
   42 T=    70. E= -.41286633E+03 F= -.41321261E+03 E0= -.41319156E+03  EK= 0.34628E+00 SP= 0.00E+00 SK= 0.00E+00
       N       E                     dE             d eps       ncg     rms          rms(c)
RMM:   1    -0.413219631038E+03   -0.70232E-02   -0.12095E+01  4312   0.131E+00    0.946E-01
RMM:   2    -0.413216651033E+03    0.29800E-02   -0.16381E-01  4294   0.149E-01    0.681E-01
RMM:   3    -0.413219517189E+03   -0.28662E-02   -0.12742E-02  5096   0.827E-02    0.349E-01
RMM:   4    -0.413249386013E+03   -0.29869E-01   -0.49636E-02  5064   0.188E-01    0.776E-01
RMM:   5    -0.413214469228E+03    0.34917E-01   -0.15065E-02  4711   0.130E-01    0.542E-02
RMM:   6    -0.413214495529E+03   -0.26302E-04   -0.25936E-03  5723   0.485E-02    0.277E-02
RMM:   7    -0.413214500404E+03   -0.48751E-05   -0.34105E-04  5804   0.167E-02    0.193E-02
RMM:   8    -0.413214496383E+03    0.40213E-05   -0.85832E-05  5145   0.924E-03    0.102E-02
RMM:   9    -0.413214484819E+03    0.11564E-04   -0.17053E-05  4212   0.506E-03    0.393E-03
RMM:  10    -0.413214480977E+03    0.38428E-05   -0.34003E-06  2726   0.237E-03    0.240E-03
RMM:  11    -0.413214475828E+03    0.51487E-05   -0.11616E-06  2495   0.174E-03    0.128E-03
RMM:  12    -0.413214470751E+03    0.50773E-05   -0.55912E-07  2398   0.129E-03    0.542E-04
RMM:  13    -0.413214467687E+03    0.30639E-05   -0.28001E-07  1838   0.902E-04    0.243E-04
RMM:  14    -0.413214464823E+03    0.28636E-05   -0.16492E-07  1374   0.738E-04    0.135E-04
RMM:  15    -0.413214460203E+03    0.46204E-05   -0.13259E-07  1289   0.706E-04    0.994E-05
RMM:  16    -0.413214458523E+03    0.16793E-05   -0.82810E-08  1124   0.643E-04    0.755E-05
RMM:  17    -0.413214455211E+03    0.33122E-05   -0.76932E-08  1264   0.648E-04    0.561E-05
RMM:  18    -0.413214452931E+03    0.22800E-05   -0.51663E-08  1074   0.597E-04    0.401E-05
RMM:  19    -0.413214452206E+03    0.72545E-06   -0.28107E-08   812   0.548E-04
   43 T=    71. E= -.41286637E+03 F= -.41321445E+03 E0= -.41319344E+03  EK= 0.34809E+00 SP= 0.00E+00 SK= 0.00E+00
       N       E                     dE             d eps       ncg     rms          rms(c)
RMM:   1    -0.413250338772E+03   -0.35886E-01   -0.12497E+01  4312   0.149E+00    0.945E-01
RMM:   2    -0.413218051064E+03    0.32288E-01   -0.21010E-01  4299   0.174E-01    0.700E-01
RMM:   3    -0.413221458341E+03   -0.34073E-02   -0.12624E-02  5090   0.887E-02    0.406E-01
RMM:   4    -0.413251973281E+03   -0.30515E-01   -0.53353E-02  5062   0.196E-01    0.801E-01
RMM:   5    -0.413215424850E+03    0.36548E-01   -0.16245E-02  4700   0.136E-01    0.597E-02
RMM:   6    -0.413215436462E+03   -0.11612E-04   -0.27242E-03  5686   0.500E-02    0.287E-02
RMM:   7    -0.413215443135E+03   -0.66732E-05   -0.36232E-04  5901   0.172E-02    0.207E-02
RMM:   8    -0.413215439006E+03    0.41292E-05   -0.86729E-05  5186   0.928E-03    0.107E-02
RMM:   9    -0.413215428428E+03    0.10578E-04   -0.20733E-05  4332   0.552E-03    0.420E-03
RMM:  10    -0.413215425666E+03    0.27628E-05   -0.37839E-06  2744   0.244E-03    0.244E-03
RMM:  11    -0.413215421712E+03    0.39536E-05   -0.17823E-06  2555   0.198E-03    0.146E-03
RMM:  12    -0.413215418739E+03    0.29733E-05   -0.60169E-07  2455   0.139E-03    0.671E-04
RMM:  13    -0.413215416277E+03    0.24622E-05   -0.31472E-07  1747   0.925E-04    0.310E-04
RMM:  14    -0.413215413833E+03    0.24440E-05   -0.20170E-07  1442   0.780E-04    0.159E-04
RMM:  15    -0.413215411148E+03    0.26843E-05   -0.14670E-07  1333   0.715E-04    0.958E-05
RMM:  16    -0.413215409098E+03    0.20503E-05   -0.10433E-07  1238   0.665E-04    0.649E-05
RMM:  17    -0.413215407230E+03    0.18678E-05   -0.76244E-08  1143   0.625E-04    0.467E-05
RMM:  18    -0.413215404906E+03    0.23241E-05   -0.64005E-08  1128   0.605E-04    0.429E-05
RMM:  19    -0.413215404313E+03    0.59344E-06   -0.33740E-08   840   0.548E-04
   44 T=    71. E= -.41286609E+03 F= -.41321540E+03 E0= -.41319441E+03  EK= 0.34931E+00 SP= 0.00E+00 SK= 0.00E+00
       N       E                     dE             d eps       ncg     rms          rms(c)
RMM:   1    -0.413227110384E+03   -0.11705E-01   -0.12263E+01  4310   0.148E+00    0.975E-01
RMM:   2    -0.413218618770E+03    0.84916E-02   -0.17198E-01  4335   0.175E-01    0.689E-01
RMM:   3    -0.413228685729E+03   -0.10067E-01   -0.19314E-02  5132   0.114E-01    0.500E-01
RMM:   4    -0.413235068571E+03   -0.63828E-02   -0.40363E-02  5018   0.174E-01    0.576E-01
RMM:   5    -0.413216839863E+03    0.18229E-01   -0.68473E-03  4594   0.987E-02    0.504E-02
RMM:   6    -0.413216798550E+03    0.41314E-04   -0.13194E-03  5451   0.354E-02    0.263E-02
RMM:   7    -0.413216795809E+03    0.27404E-05   -0.19344E-04  5622   0.136E-02    0.182E-02
RMM:   8    -0.413216788548E+03    0.72612E-05   -0.86456E-05  5083   0.948E-03    0.898E-03
RMM:   9    -0.413216774593E+03    0.13955E-04   -0.14270E-05  4139   0.506E-03    0.361E-03
RMM:  10    -0.413216770867E+03    0.37268E-05   -0.22728E-06  2647   0.211E-03    0.206E-03
RMM:  11    -0.413216763514E+03    0.73529E-05   -0.11357E-06  2488   0.171E-03    0.119E-03
RMM:  12    -0.413216758004E+03    0.55096E-05   -0.48463E-07  2401   0.123E-03    0.591E-04
RMM:  13    -0.413216754131E+03    0.38728E-05   -0.22466E-07  1662   0.828E-04    0.284E-04
RMM:  14    -0.413216750361E+03    0.37704E-05   -0.12802E-07  1242   0.681E-04    0.146E-04
RMM:  15    -0.413216745125E+03    0.52358E-05   -0.10465E-07  1194   0.668E-04    0.112E-04
RMM:  16    -0.413216742364E+03    0.27606E-05   -0.68920E-08  1088   0.618E-04    0.104E-04
RMM:  17    -0.413216739153E+03    0.32109E-05   -0.56824E-08  1115   0.603E-04    0.583E-05
RMM:  18    -0.413216735430E+03    0.37235E-05   -0.53218E-08  1153   0.600E-04    0.503E-05
RMM:  19    -0.413216735047E+03    0.38266E-06   -0.19689E-08   723   0.513E-04
   45 T=    71. E= -.41286642E+03 F= -.41321674E+03 E0= -.41319576E+03  EK= 0.35031E+00 SP= 0.00E+00 SK= 0.00E+00
       N       E                     dE             d eps       ncg     rms          rms(c)
RMM:   1    -0.413234683716E+03   -0.17948E-01   -0.12225E+01  4309   0.159E+00    0.956E-01
RMM:   2    -0.413218361155E+03    0.16323E-01   -0.17951E-01  4370   0.186E-01    0.686E-01
RMM:   3    -0.413231033692E+03   -0.12673E-01   -0.21298E-02  5129   0.123E-01    0.551E-01
RMM:   4    -0.413231856741E+03   -0.82305E-03   -0.39513E-02  5009   0.174E-01    0.535E-01
RMM:   5    -0.413216543043E+03    0.15314E-01   -0.58296E-03  4562   0.944E-02    0.507E-02
RMM:   6    -0.413216480468E+03    0.62575E-04   -0.10276E-03  5249   0.324E-02    0.257E-02
RMM:   7    -0.413216476816E+03    0.36523E-05   -0.15319E-04  5652   0.122E-02    0.165E-02
RMM:   8    -0.413216473934E+03    0.28815E-05   -0.96269E-05  5161   0.984E-03    0.102E-02
RMM:   9    -0.413216458398E+03    0.15537E-04   -0.18172E-05  4384   0.557E-03    0.385E-03
RMM:  10    -0.413216455489E+03    0.29089E-05   -0.27155E-06  2687   0.223E-03    0.217E-03
RMM:  11    -0.413216449333E+03    0.61559E-05   -0.13597E-06  2494   0.185E-03    0.125E-03
RMM:  12    -0.413216444785E+03    0.45477E-05   -0.53623E-07  2395   0.132E-03    0.687E-04
RMM:  13    -0.413216441058E+03    0.37274E-05   -0.24119E-07  1731   0.883E-04    0.342E-04
RMM:  14    -0.413216437434E+03    0.36243E-05   -0.12599E-07  1297   0.701E-04    0.170E-04
RMM:  15    -0.413216433179E+03    0.42543E-05   -0.93063E-08  1178   0.655E-04    0.121E-04
RMM:  16    -0.413216430863E+03    0.23165E-05   -0.55820E-08   966   0.592E-04    0.107E-04
RMM:  17    -0.413216427607E+03    0.32553E-05   -0.51776E-08  1013   0.592E-04    0.613E-05
RMM:  18    -0.413216424607E+03    0.30010E-05   -0.46616E-08  1045   0.587E-04    0.458E-05
RMM:  19    -0.413216424022E+03    0.58404E-06   -0.15886E-08   652   0.509E-04
   46 T=    71. E= -.41286627E+03 F= -.41321642E+03 E0= -.41319547E+03  EK= 0.35016E+00 SP= 0.00E+00 SK= 0.00E+00
       N       E                     dE             d eps       ncg     rms          rms(c)
RMM:   1    -0.413239905448E+03   -0.23481E-01   -0.12286E+01  4310   0.169E+00    0.944E-01
RMM:   2    -0.413217806653E+03    0.22099E-01   -0.19456E-01  4373   0.203E-01    0.699E-01
RMM:   3    -0.413231057729E+03   -0.13251E-01   -0.21901E-02  5135   0.129E-01    0.577E-01
RMM:   4    -0.413231698820E+03   -0.64109E-03   -0.42061E-02  5003   0.180E-01    0.553E-01
RMM:   5    -0.413215339348E+03    0.16359E-01   -0.64390E-03  4558   0.993E-02    0.534E-02
RMM:   6    -0.413215263077E+03    0.76271E-04   -0.10863E-03  5239   0.338E-02    0.265E-02
RMM:   7    -0.413215258630E+03    0.44474E-05   -0.16552E-04  5708   0.125E-02    0.177E-02
RMM:   8    -0.413215255240E+03    0.33892E-05   -0.99026E-05  5190   0.997E-03    0.105E-02
RMM:   9    -0.413215240577E+03    0.14663E-04   -0.19914E-05  4439   0.583E-03    0.402E-03
RMM:  10    -0.413215238440E+03    0.21373E-05   -0.29441E-06  2705   0.230E-03    0.226E-03
RMM:  11    -0.413215234266E+03    0.41740E-05   -0.15016E-06  2503   0.192E-03    0.136E-03
RMM:  12    -0.413215231136E+03    0.31301E-05   -0.56983E-07  2405   0.136E-03    0.726E-04
RMM:  13    -0.413215228312E+03    0.28233E-05   -0.27255E-07  1787   0.922E-04    0.347E-04
RMM:  14    -0.413215225699E+03    0.26135E-05   -0.15498E-07  1436   0.739E-04    0.183E-04
RMM:  15    -0.413215222684E+03    0.30144E-05   -0.11081E-07  1162   0.662E-04    0.117E-04
RMM:  16    -0.413215220698E+03    0.19863E-05   -0.71120E-08  1025   0.611E-04    0.952E-05
RMM:  17    -0.413215219038E+03    0.16601E-05   -0.52667E-08   963   0.584E-04    0.575E-05
RMM:  18    -0.413215216613E+03    0.24249E-05   -0.52018E-08   989   0.587E-04    0.409E-05
RMM:  19    -0.413215216200E+03    0.41261E-06   -0.19325E-08   662   0.522E-04
   47 T=    71. E= -.41286627E+03 F= -.41321522E+03 E0= -.41319427E+03  EK= 0.34894E+00 SP= 0.00E+00 SK= 0.00E+00
       N       E                     dE             d eps       ncg     rms          rms(c)
RMM:   1    -0.413260784693E+03   -0.45568E-01   -0.12433E+01  4306   0.187E+00    0.967E-01
RMM:   2    -0.413215165668E+03    0.45619E-01   -0.20346E-01  4440   0.208E-01    0.694E-01
RMM:   3    -0.413236655299E+03   -0.21490E-01   -0.29207E-02  5146   0.150E-01    0.691E-01
RMM:   4    -0.413222799476E+03    0.13856E-01   -0.39123E-02  4967   0.178E-01    0.450E-01
RMM:   5    -0.413213252772E+03    0.95467E-02   -0.48360E-03  4548   0.911E-02    0.583E-02
RMM:   6    -0.413213098257E+03    0.15452E-03   -0.51056E-04  4758   0.289E-02    0.284E-02
RMM:   7    -0.413213099445E+03   -0.11885E-05   -0.20385E-04  5909   0.145E-02    0.194E-02
RMM:   8    -0.413213079339E+03    0.20107E-04   -0.81885E-05  5099   0.995E-03    0.993E-03
RMM:   9    -0.413213068729E+03    0.10610E-04   -0.14736E-05  4176   0.504E-03    0.486E-03
RMM:  10    -0.413213064321E+03    0.44079E-05   -0.22137E-06  2579   0.238E-03    0.244E-03
RMM:  11    -0.413213058688E+03    0.56331E-05   -0.17901E-06  2525   0.206E-03    0.180E-03
RMM:  12    -0.413213054836E+03    0.38517E-05   -0.52835E-07  2397   0.136E-03    0.907E-04
RMM:  13    -0.413213050495E+03    0.43408E-05   -0.26405E-07  1808   0.895E-04    0.455E-04
RMM:  14    -0.413213045157E+03    0.53387E-05   -0.21953E-07  1884   0.815E-04    0.392E-04
RMM:  15    -0.413213041255E+03    0.39012E-05   -0.10827E-07  1064   0.601E-04    0.169E-04
RMM:  16    -0.413213038407E+03    0.28480E-05   -0.75805E-08  1032   0.584E-04    0.897E-05
RMM:  17    -0.413213035965E+03    0.24420E-05   -0.59223E-08  1008   0.573E-04    0.554E-05
RMM:  18    -0.413213033567E+03    0.23984E-05   -0.48444E-08   994   0.565E-04    0.561E-05
RMM:  19    -0.413213032541E+03    0.10261E-05   -0.25196E-08   760   0.522E-04    0.479E-05
RMM:  20    -0.413213031857E+03    0.68355E-06   -0.19779E-08   741   0.516E-04
   48 T=    71. E= -.41286663E+03 F= -.41321303E+03 E0= -.41319210E+03  EK= 0.34641E+00 SP= 0.00E+00 SK= 0.00E+00
       N       E                     dE             d eps       ncg     rms          rms(c)
RMM:   1    -0.413258705051E+03   -0.45673E-01   -0.12220E+01  4306   0.198E+00    0.957E-01
RMM:   2    -0.413210114295E+03    0.48591E-01   -0.19728E-01  4481   0.219E-01    0.683E-01
RMM:   3    -0.413239133816E+03   -0.29020E-01   -0.35969E-02  5158   0.169E-01    0.779E-01
RMM:   4    -0.413214616004E+03    0.24518E-01   -0.38969E-02  4932   0.180E-01    0.385E-01
RMM:   5    -0.413208363000E+03    0.62530E-02   -0.50339E-03  4782   0.928E-02    0.705E-02
RMM:   6    -0.413208098446E+03    0.26455E-03   -0.52457E-04  4663   0.321E-02    0.323E-02
RMM:   7    -0.413208094477E+03    0.39692E-05   -0.18614E-04  5725   0.149E-02    0.223E-02
RMM:   8    -0.413208069947E+03    0.24530E-04   -0.58357E-05  4973   0.846E-03    0.936E-03
RMM:   9    -0.413208058914E+03    0.11033E-04   -0.13859E-05  3717   0.446E-03    0.414E-03
RMM:  10    -0.413208053552E+03    0.53625E-05   -0.20844E-06  2584   0.227E-03    0.246E-03
RMM:  11    -0.413208046361E+03    0.71914E-05   -0.89368E-07  2489   0.155E-03    0.143E-03
RMM:  12    -0.413208042455E+03    0.39057E-05   -0.37163E-07  2270   0.106E-03    0.689E-04
RMM:  13    -0.413208036501E+03    0.59544E-05   -0.32834E-07  1880   0.921E-04    0.384E-04
RMM:  14    -0.413208032389E+03    0.41115E-05   -0.18451E-07  1358   0.748E-04    0.259E-04
RMM:  15    -0.413208027629E+03    0.47596E-05   -0.15466E-07  1309   0.718E-04    0.123E-04
RMM:  16    -0.413208025261E+03    0.23689E-05   -0.99996E-08  1245   0.648E-04    0.101E-04
RMM:  17    -0.413208021735E+03    0.35255E-05   -0.91465E-08  1309   0.637E-04    0.729E-05
RMM:  18    -0.413208021046E+03    0.68895E-06   -0.43813E-08   923   0.537E-04
   49 T=    70. E= -.41286629E+03 F= -.41320802E+03 E0= -.41318709E+03  EK= 0.34174E+00 SP= 0.00E+00 SK= 0.00E+00
       N       E                     dE             d eps       ncg     rms          rms(c)
RMM:   1    -0.413227968621E+03   -0.19947E-01   -0.11751E+01  4305   0.197E+00    0.925E-01
RMM:   2    -0.413204364146E+03    0.23604E-01   -0.19484E-01  4499   0.227E-01    0.688E-01
RMM:   3    -0.413233208336E+03   -0.28844E-01   -0.35711E-02  5161   0.170E-01    0.786E-01
RMM:   4    -0.413208690959E+03    0.24517E-01   -0.40007E-02  4931   0.183E-01    0.389E-01
RMM:   5    -0.413202074902E+03    0.66161E-02   -0.55528E-03  4824   0.964E-02    0.748E-02
RMM:   6    -0.413201771869E+03    0.30303E-03   -0.56563E-04  4650   0.337E-02    0.332E-02
RMM:   7    -0.413201766837E+03    0.50320E-05   -0.19333E-04  5729   0.151E-02    0.225E-02
RMM:   8    -0.413201743676E+03    0.23161E-04   -0.60247E-05  5036   0.846E-03    0.971E-03
RMM:   9    -0.413201734476E+03    0.92005E-05   -0.15067E-05  3775   0.462E-03    0.414E-03
RMM:  10    -0.413201730103E+03    0.43723E-05   -0.24131E-06  2630   0.237E-03    0.255E-03
RMM:  11    -0.413201724940E+03    0.51633E-05   -0.87648E-07  2488   0.156E-03    0.141E-03
RMM:  12    -0.413201722103E+03    0.28367E-05   -0.38259E-07  2263   0.106E-03    0.686E-04
RMM:  13    -0.413201717518E+03    0.45856E-05   -0.38800E-07  2078   0.973E-04    0.462E-04
RMM:  14    -0.413201714939E+03    0.25790E-05   -0.18938E-07  1302   0.736E-04    0.283E-04
RMM:  15    -0.413201711639E+03    0.32999E-05   -0.17962E-07  1343   0.733E-04    0.122E-04
RMM:  16    -0.413201709927E+03    0.17117E-05   -0.11427E-07  1287   0.662E-04    0.113E-04
RMM:  17    -0.413201708037E+03    0.18898E-05   -0.93286E-08  1243   0.628E-04    0.855E-05
RMM:  18    -0.413201707631E+03    0.40662E-06   -0.45908E-08   935   0.544E-04
   50 T=    68. E= -.41286663E+03 F= -.41320171E+03 E0= -.41318078E+03  EK= 0.33507E+00 SP= 0.00E+00 SK= 0.00E+00
       N       E                     dE             d eps       ncg     rms          rms(c)
[...]
RMM:  14    -0.413158920861E+03   -0.75658E-06   -0.20643E-07  1473   0.784E-04
  138 T=    60. E= -.41286610E+03 F= -.41315892E+03 E0= -.41313822E+03  EK= 0.29282E+00 SP= 0.00E+00 SK= 0.00E+00
       N       E                     dE             d eps       ncg     rms          rms(c)
RMM:   1    -0.413151283808E+03    0.76363E-02   -0.10202E+01  4269   0.853E-01    0.856E-01
RMM:   2    -0.413160435346E+03   -0.91515E-02   -0.11959E-01  4326   0.989E-02    0.606E-01
RMM:   3    -0.413159813473E+03    0.62187E-03   -0.73796E-03  5066   0.462E-02    0.174E-01
RMM:   4    -0.413197253976E+03   -0.37441E-01   -0.41163E-02  5148   0.169E-01    0.807E-01
RMM:   5    -0.413159005982E+03    0.38248E-01   -0.18504E-02  4792   0.136E-01    0.538E-02
RMM:   6    -0.413159043056E+03   -0.37074E-04   -0.30980E-03  5696   0.530E-02    0.203E-02
RMM:   7    -0.413159081764E+03   -0.38708E-04   -0.39558E-04  6048   0.165E-02    0.148E-02
RMM:   8    -0.413159090472E+03   -0.87082E-05   -0.60273E-05  5219   0.735E-03    0.831E-03
RMM:   9    -0.413159095578E+03   -0.51056E-05   -0.95361E-06  3229   0.342E-03    0.364E-03
RMM:  10    -0.413159100748E+03   -0.51705E-05   -0.24183E-06  2579   0.210E-03    0.232E-03
RMM:  11    -0.413159107056E+03   -0.63077E-05   -0.12062E-06  2515   0.164E-03    0.122E-03
RMM:  12    -0.413159111134E+03   -0.40781E-05   -0.64448E-07  2318   0.123E-03    0.439E-04
RMM:  13    -0.413159113467E+03   -0.23331E-05   -0.35046E-07  1935   0.947E-04    0.256E-04
RMM:  14    -0.413159115334E+03   -0.18667E-05   -0.22514E-07  1501   0.794E-04    0.161E-04
RMM:  15    -0.413159118194E+03   -0.28604E-05   -0.25980E-07  1633   0.798E-04    0.113E-04
RMM:  16    -0.413159118727E+03   -0.53231E-06   -0.10985E-07  1200   0.647E-04
  139 T=    60. E= -.41286621E+03 F= -.41315912E+03 E0= -.41313842E+03  EK= 0.29291E+00 SP= 0.00E+00 SK= 0.00E+00
       N       E                     dE             d eps       ncg     rms          rms(c)
RMM:   1    -0.413150857123E+03    0.82611E-02   -0.10328E+01  4265   0.860E-01    0.855E-01
RMM:   2    -0.413160525211E+03   -0.96681E-02   -0.12277E-01  4321   0.101E-01    0.618E-01
RMM:   3    -0.413159389871E+03    0.11353E-02   -0.71269E-03  5003   0.459E-02    0.160E-01
RMM:   4    -0.413195961188E+03   -0.36571E-01   -0.39110E-02  5148   0.165E-01    0.795E-01
RMM:   5    -0.413158746165E+03    0.37215E-01   -0.18182E-02  4804   0.134E-01    0.500E-02
RMM:   6    -0.413158796360E+03   -0.50194E-04   -0.29945E-03  5717   0.520E-02    0.184E-02
RMM:   7    -0.413158836104E+03   -0.39744E-04   -0.37554E-04  6004   0.160E-02    0.139E-02
RMM:   8    -0.413158847804E+03   -0.11700E-04   -0.53577E-05  5071   0.687E-03    0.798E-03
RMM:   9    -0.413158856687E+03   -0.88832E-05   -0.85358E-06  3142   0.324E-03    0.362E-03
RMM:  10    -0.413158864998E+03   -0.83107E-05   -0.23755E-06  2571   0.205E-03    0.227E-03
RMM:  11    -0.413158873929E+03   -0.89320E-05   -0.11282E-06  2491   0.157E-03    0.116E-03
RMM:  12    -0.413158880394E+03   -0.64648E-05   -0.66378E-07  2299   0.121E-03    0.389E-04
RMM:  13    -0.413158883768E+03   -0.33733E-05   -0.35628E-07  1905   0.933E-04    0.257E-04
RMM:  14    -0.413158887177E+03   -0.34097E-05   -0.26825E-07  1559   0.819E-04    0.151E-04
RMM:  15    -0.413158890624E+03   -0.34467E-05   -0.26274E-07  1608   0.783E-04    0.104E-04
RMM:  16    -0.413158891503E+03   -0.87928E-06   -0.12095E-07  1220   0.651E-04
  140 T=    60. E= -.41286593E+03 F= -.41315889E+03 E0= -.41313820E+03  EK= 0.29296E+00 SP= 0.00E+00 SK= 0.00E+00
       N       E                     dE             d eps       ncg     rms          rms(c)
RMM:   1    -0.413151567951E+03    0.73227E-02   -0.10405E+01  4264   0.865E-01    0.880E-01
RMM:   2    -0.413160461629E+03   -0.88937E-02   -0.12050E-01  4315   0.101E-01    0.610E-01
RMM:   3    -0.413159692145E+03    0.76948E-03   -0.71285E-03  5003   0.430E-02    0.160E-01
RMM:   4    -0.413191447321E+03   -0.31755E-01   -0.33333E-02  5151   0.152E-01    0.742E-01
RMM:   5    -0.413159217572E+03    0.32230E-01   -0.15880E-02  4813   0.124E-01    0.481E-02
RMM:   6    -0.413159251919E+03   -0.34347E-04   -0.25966E-03  5718   0.486E-02    0.196E-02
RMM:   7    -0.413159279805E+03   -0.27886E-04   -0.32961E-04  5972   0.151E-02    0.138E-02
RMM:   8    -0.413159284578E+03   -0.47736E-05   -0.46979E-05  4933   0.649E-03    0.773E-03
RMM:   9    -0.413159286674E+03   -0.20960E-05   -0.71776E-06  3054   0.304E-03    0.356E-03
RMM:  10    -0.413159289861E+03   -0.31865E-05   -0.20894E-06  2560   0.195E-03    0.222E-03
RMM:  11    -0.413159292993E+03   -0.31326E-05   -0.99999E-07  2477   0.151E-03    0.109E-03
RMM:  12    -0.413159295226E+03   -0.22327E-05   -0.59368E-07  2293   0.117E-03    0.341E-04
RMM:  13    -0.413159296384E+03   -0.11585E-05   -0.30794E-07  1867   0.899E-04    0.237E-04
RMM:  14    -0.413159297634E+03   -0.12491E-05   -0.21871E-07  1455   0.780E-04    0.129E-04
RMM:  15    -0.413159298728E+03   -0.10942E-05   -0.17901E-07  1408   0.735E-04    0.782E-05
RMM:  16    -0.413159299210E+03   -0.48181E-06   -0.11314E-07  1297   0.662E-04
  141 T=    60. E= -.41286629E+03 F= -.41315930E+03 E0= -.41313862E+03  EK= 0.29301E+00 SP= 0.00E+00 SK= 0.00E+00
       N       E                     dE             d eps       ncg     rms          rms(c)
RMM:   1    -0.413150604575E+03    0.86942E-02   -0.10347E+01  4264   0.865E-01    0.862E-01
RMM:   2    -0.413159918458E+03   -0.93139E-02   -0.12079E-01  4314   0.101E-01    0.603E-01
RMM:   3    -0.413159042469E+03    0.87599E-03   -0.65951E-03  4979   0.400E-02    0.152E-01
RMM:   4    -0.413183845433E+03   -0.24803E-01   -0.25602E-02  5155   0.134E-01    0.657E-01
RMM:   5    -0.413158796917E+03    0.25049E-01   -0.12491E-02  4823   0.110E-01    0.427E-02
RMM:   6    -0.413158816608E+03   -0.19690E-04   -0.20243E-03  5716   0.430E-02    0.178E-02
RMM:   7    -0.413158840810E+03   -0.24202E-04   -0.25534E-04  5869   0.135E-02    0.123E-02
RMM:   8    -0.413158846710E+03   -0.59006E-05   -0.37049E-05  4686   0.587E-03    0.683E-03
RMM:   9    -0.413158850369E+03   -0.36584E-05   -0.55504E-06  2923   0.278E-03    0.319E-03
RMM:  10    -0.413158854660E+03   -0.42916E-05   -0.17668E-06  2544   0.183E-03    0.198E-03
RMM:  11    -0.413158858810E+03   -0.41502E-05   -0.92594E-07  2458   0.142E-03    0.973E-04
RMM:  12    -0.413158861864E+03   -0.30535E-05   -0.55207E-07  2166   0.111E-03    0.304E-04
RMM:  13    -0.413158863399E+03   -0.15354E-05   -0.28573E-07  1757   0.869E-04    0.215E-04
RMM:  14    -0.413158865248E+03   -0.18484E-05   -0.23756E-07  1463   0.787E-04    0.113E-04
RMM:  15    -0.413158866419E+03   -0.11716E-05   -0.16781E-07  1436   0.723E-04    0.778E-05
RMM:  16    -0.413158867054E+03   -0.63467E-06   -0.11488E-07  1256   0.651E-04
  142 T=    60. E= -.41286602E+03 F= -.41315887E+03 E0= -.41313820E+03  EK= 0.29285E+00 SP= 0.00E+00 SK= 0.00E+00
       N       E                     dE             d eps       ncg     rms          rms(c)
RMM:   1    -0.413150938219E+03    0.79282E-02   -0.10425E+01  4264   0.879E-01    0.851E-01
RMM:   2    -0.413160981409E+03   -0.10043E-01   -0.12482E-01  4318   0.102E-01    0.615E-01
RMM:   3    -0.413159378312E+03    0.16031E-02   -0.62452E-03  4911   0.379E-02    0.138E-01
RMM:   4    -0.413173391878E+03   -0.14014E-01   -0.14531E-02  5165   0.101E-01    0.497E-01
RMM:   5    -0.413159274585E+03    0.14117E-01   -0.71521E-03  4835   0.827E-02    0.337E-02
RMM:   6    -0.413159268526E+03    0.60589E-05   -0.11454E-03  5687   0.332E-02    0.143E-02
RMM:   7    -0.413159292239E+03   -0.23713E-04   -0.15123E-04  5632   0.106E-02    0.101E-02
RMM:   8    -0.413159304062E+03   -0.11823E-04   -0.23724E-05  4341   0.498E-03    0.530E-03
RMM:   9    -0.413159313556E+03   -0.94949E-05   -0.34246E-06  2716   0.239E-03    0.247E-03
RMM:  10    -0.413159321779E+03   -0.82229E-05   -0.12691E-06  2523   0.162E-03    0.156E-03
RMM:  11    -0.413159330194E+03   -0.84143E-05   -0.82112E-07  2393   0.128E-03    0.780E-04
RMM:  12    -0.413159336056E+03   -0.58628E-05   -0.49128E-07  2029   0.100E-03    0.277E-04
RMM:  13    -0.413159339060E+03   -0.30034E-05   -0.25915E-07  1506   0.805E-04    0.188E-04
RMM:  14    -0.413159343057E+03   -0.39973E-05   -0.28452E-07  1521   0.800E-04    0.117E-04
RMM:  15    -0.413159345217E+03   -0.21596E-05   -0.18066E-07  1451   0.718E-04    0.910E-05
RMM:  16    -0.413159345957E+03   -0.74050E-06   -0.10447E-07  1127   0.619E-04
  143 T=    60. E= -.41286613E+03 F= -.41315935E+03 E0= -.41313868E+03  EK= 0.29322E+00 SP= 0.00E+00 SK= 0.00E+00
       N       E                     dE             d eps       ncg     rms          rms(c)
RMM:   1    -0.413151502183E+03    0.78430E-02   -0.10498E+01  4264   0.875E-01    0.874E-01
RMM:   2    -0.413160991589E+03   -0.94894E-02   -0.12240E-01  4314   0.100E-01    0.611E-01
RMM:   3    -0.413159858227E+03    0.11334E-02   -0.63625E-03  4846   0.356E-02    0.141E-01
RMM:   4    -0.413166021160E+03   -0.61629E-02   -0.67592E-03  5165   0.705E-02    0.332E-01
RMM:   5    -0.413159801136E+03    0.62200E-02   -0.31935E-03  4834   0.556E-02    0.301E-02
RMM:   6    -0.413159780859E+03    0.20277E-04   -0.55310E-04  5606   0.239E-02    0.149E-02
RMM:   7    -0.413159793838E+03   -0.12980E-04   -0.83639E-05  5359   0.847E-03    0.919E-03
RMM:   8    -0.413159799005E+03   -0.51662E-05   -0.15649E-05  3960   0.436E-03    0.393E-03
RMM:   9    -0.413159802959E+03   -0.39549E-05   -0.20176E-06  2573   0.210E-03    0.201E-03
RMM:  10    -0.413159806864E+03   -0.39043E-05   -0.82735E-07  2476   0.142E-03    0.122E-03
RMM:  11    -0.413159811319E+03   -0.44554E-05   -0.67333E-07  2287   0.117E-03    0.588E-04
RMM:  12    -0.413159813595E+03   -0.22760E-05   -0.32813E-07  1792   0.885E-04    0.224E-04
RMM:  13    -0.413159814991E+03   -0.13959E-05   -0.19223E-07  1429   0.756E-04    0.145E-04
RMM:  14    -0.413159816798E+03   -0.18074E-05   -0.20976E-07  1531   0.753E-04    0.104E-04
RMM:  15    -0.413159817832E+03   -0.10335E-05   -0.13608E-07  1353   0.670E-04    0.787E-05
RMM:  16    -0.413159818282E+03   -0.44973E-06   -0.81857E-08  1069   0.595E-04
  144 T=    60. E= -.41286634E+03 F= -.41315982E+03 E0= -.41313916E+03  EK= 0.29347E+00 SP= 0.00E+00 SK= 0.00E+00
       N       E                     dE             d eps       ncg     rms          rms(c)
RMM:   1    -0.413150859190E+03    0.89586E-02   -0.10466E+01  4264   0.877E-01    0.871E-01
RMM:   2    -0.413160129476E+03   -0.92703E-02   -0.12159E-01  4312   0.101E-01    0.602E-01
RMM:   3    -0.413159191485E+03    0.93799E-03   -0.62842E-03  4813   0.342E-02    0.143E-01
RMM:   4    -0.413160329919E+03   -0.11384E-02   -0.19054E-03  5167   0.388E-02    0.143E-01
RMM:   5    -0.413159212403E+03    0.11175E-02   -0.62097E-04  4857   0.255E-02    0.286E-02
RMM:   6    -0.413159188468E+03    0.23934E-04   -0.18213E-04  5294   0.146E-02    0.145E-02
RMM:   7    -0.413159199143E+03   -0.10675E-04   -0.39766E-05  5158   0.673E-03    0.836E-03
RMM:   8    -0.413159201749E+03   -0.26058E-05   -0.91401E-06  3442   0.375E-03    0.317E-03
RMM:   9    -0.413159204203E+03   -0.24541E-05   -0.16324E-06  2527   0.207E-03    0.181E-03
RMM:  10    -0.413159206706E+03   -0.25026E-05   -0.93037E-07  2455   0.152E-03    0.104E-03
RMM:  11    -0.413159209822E+03   -0.31161E-05   -0.66802E-07  2243   0.118E-03    0.502E-04
RMM:  12    -0.413159211208E+03   -0.13861E-05   -0.27021E-07  1776   0.822E-04    0.245E-04
RMM:  13    -0.413159212297E+03   -0.10890E-05   -0.16345E-07  1309   0.696E-04    0.143E-04
RMM:  14    -0.413159213715E+03   -0.14185E-05   -0.21848E-07  1478   0.729E-04    0.109E-04
RMM:  15    -0.413159214145E+03   -0.42950E-06   -0.85907E-08  1097   0.599E-04
  145 T=    60. E= -.41286590E+03 F= -.41315921E+03 E0= -.41313856E+03  EK= 0.29331E+00 SP= 0.00E+00 SK= 0.00E+00
       N       E                     dE             d eps       ncg     rms          rms(c)
RMM:   1    -0.413151045830E+03    0.81679E-02   -0.10462E+01  4264   0.879E-01    0.849E-01
RMM:   2    -0.413161465482E+03   -0.10420E-01   -0.12451E-01  4315   0.100E-01    0.611E-01
RMM:   3    -0.413160003008E+03    0.14625E-02   -0.58915E-03  4825   0.332E-02    0.135E-01
RMM:   4    -0.413161525163E+03   -0.15222E-02   -0.23001E-03  5202   0.413E-02    0.168E-01
RMM:   5    -0.413159968176E+03    0.15570E-02   -0.82470E-04  4843   0.292E-02    0.251E-02
RMM:   6    -0.413159950262E+03    0.17914E-04   -0.20572E-04  5421   0.152E-02    0.110E-02
RMM:   7    -0.413159969961E+03   -0.19699E-04   -0.38902E-05  5060   0.648E-03    0.767E-03
RMM:   8    -0.413159980597E+03   -0.10636E-04   -0.84011E-06  3464   0.361E-03    0.310E-03
RMM:   9    -0.413159988752E+03   -0.81552E-05   -0.16941E-06  2522   0.209E-03    0.156E-03
RMM:  10    -0.413159994432E+03   -0.56806E-05   -0.76966E-07  2447   0.142E-03    0.897E-04
RMM:  11    -0.413160001477E+03   -0.70445E-05   -0.55971E-07  2184   0.109E-03    0.492E-04
RMM:  12    -0.413160005605E+03   -0.41286E-05   -0.29041E-07  1726   0.821E-04    0.224E-04
RMM:  13    -0.413160008866E+03   -0.32601E-05   -0.21373E-07  1471   0.735E-04    0.138E-04
RMM:  14    -0.413160011907E+03   -0.30418E-05   -0.20773E-07  1433   0.708E-04    0.991E-05
RMM:  15    -0.413160013805E+03   -0.18975E-05   -0.15040E-07  1335   0.657E-04    0.661E-05
RMM:  16    -0.413160014384E+03   -0.57883E-06   -0.77357E-08  1002   0.565E-04
  146 T=    60. E= -.41286624E+03 F= -.41316001E+03 E0= -.41313936E+03  EK= 0.29378E+00 SP= 0.00E+00 SK= 0.00E+00
       N       E                     dE             d eps       ncg     rms          rms(c)
RMM:   1    -0.413151381416E+03    0.86324E-02   -0.10537E+01  4264   0.885E-01    0.867E-01
RMM:   2    -0.413161243850E+03   -0.98624E-02   -0.12405E-01  4317   0.101E-01    0.613E-01
RMM:   3    -0.413160114232E+03    0.11296E-02   -0.61407E-03  4835   0.376E-02    0.142E-01
RMM:   4    -0.413168543465E+03   -0.84292E-02   -0.88678E-03  5176   0.801E-02    0.387E-01
RMM:   5    -0.413160044671E+03    0.84988E-02   -0.43162E-03  4841   0.641E-02    0.312E-02
RMM:   6    -0.413160027435E+03    0.17236E-04   -0.72489E-04  5671   0.263E-02    0.124E-02
RMM:   7    -0.413160043998E+03   -0.16563E-04   -0.91924E-05  5276   0.875E-03    0.818E-03
RMM:   8    -0.413160051084E+03   -0.70868E-05   -0.13588E-05  3705   0.401E-03    0.455E-03
RMM:   9    -0.413160058293E+03   -0.72089E-05   -0.24882E-06  2570   0.235E-03    0.188E-03
RMM:  10    -0.413160063365E+03   -0.50711E-05   -0.98448E-07  2509   0.151E-03    0.970E-04
RMM:  11    -0.413160067883E+03   -0.45184E-05   -0.60393E-07  2292   0.114E-03    0.542E-04
RMM:  12    -0.413160071412E+03   -0.35290E-05   -0.38274E-07  1790   0.912E-04    0.204E-04
RMM:  13    -0.413160073344E+03   -0.19322E-05   -0.22671E-07  1540   0.787E-04    0.136E-04
RMM:  14    -0.413160075412E+03   -0.20679E-05   -0.21822E-07  1496   0.754E-04    0.853E-05
RMM:  15    -0.413160076729E+03   -0.13173E-05   -0.15638E-07  1415   0.694E-04    0.564E-05
RMM:  16    -0.413160077129E+03   -0.39941E-06   -0.83417E-08  1049   0.605E-04
  147 T=    60. E= -.41286608E+03 F= -.41316008E+03 E0= -.41313943E+03  EK= 0.29400E+00 SP= 0.00E+00 SK= 0.00E+00
       N       E                     dE             d eps       ncg     rms          rms(c)
RMM:   1    -0.413151493345E+03    0.85834E-02   -0.10524E+01  4264   0.887E-01    0.877E-01
RMM:   2    -0.413160654102E+03   -0.91608E-02   -0.12209E-01  4315   0.102E-01    0.604E-01
RMM:   3    -0.413159954045E+03    0.70006E-03   -0.64364E-03  4930   0.392E-02    0.152E-01
RMM:   4    -0.413176684802E+03   -0.16731E-01   -0.17015E-02  5166   0.110E-01    0.541E-01
RMM:   5    -0.413159836537E+03    0.16848E-01   -0.85243E-03  4835   0.897E-02    0.390E-02
RMM:   6    -0.413159841271E+03   -0.47338E-05   -0.13754E-03  5723   0.354E-02    0.150E-02
RMM:   7    -0.413159856997E+03   -0.15726E-04   -0.16855E-04  5611   0.110E-02    0.973E-03
RMM:   8    -0.413159859768E+03   -0.27712E-05   -0.20685E-05  3882   0.433E-03    0.583E-03
RMM:   9    -0.413159861562E+03   -0.17936E-05   -0.33363E-06  2646   0.247E-03    0.253E-03
RMM:  10    -0.413159863697E+03   -0.21349E-05   -0.14268E-06  2530   0.169E-03    0.127E-03
RMM:  11    -0.413159865320E+03   -0.16229E-05   -0.74333E-07  2396   0.126E-03    0.618E-04
RMM:  12    -0.413159866504E+03   -0.11841E-05   -0.43437E-07  2007   0.987E-04    0.233E-04
RMM:  13    -0.413159867143E+03   -0.63910E-06   -0.24386E-07  1568   0.813E-04
  148 T=    60. E= -.41286592E+03 F= -.41315987E+03 E0= -.41313922E+03  EK= 0.29395E+00 SP= 0.00E+00 SK= 0.00E+00
       N       E                     dE             d eps       ncg     rms          rms(c)
RMM:   1    -0.413151659165E+03    0.82073E-02   -0.10447E+01  4265   0.885E-01    0.850E-01
RMM:   2    -0.413161977957E+03   -0.10319E-01   -0.12387E-01  4320   0.102E-01    0.607E-01
RMM:   3    -0.413160803496E+03    0.11745E-02   -0.59939E-03  5048   0.381E-02    0.151E-01
RMM:   4    -0.413183939957E+03   -0.23136E-01   -0.23843E-02  5166   0.129E-01    0.634E-01
RMM:   5    -0.413160529063E+03    0.23411E-01   -0.11721E-02  4834   0.105E-01    0.421E-02
RMM:   6    -0.413160554609E+03   -0.25546E-04   -0.18609E-03  5726   0.411E-02    0.122E-02
RMM:   7    -0.413160581318E+03   -0.26709E-04   -0.22502E-04  5746   0.123E-02    0.955E-03
RMM:   8    -0.413160589014E+03   -0.76964E-05   -0.26295E-05  4011   0.463E-03    0.606E-03
RMM:   9    -0.413160596829E+03   -0.78148E-05   -0.40379E-06  2714   0.257E-03    0.286E-03
RMM:  10    -0.413160604127E+03   -0.72980E-05   -0.16884E-06  2543   0.178E-03    0.142E-03
RMM:  11    -0.413160609818E+03   -0.56912E-05   -0.83802E-07  2407   0.131E-03    0.672E-04
RMM:  12    -0.413160614002E+03   -0.41837E-05   -0.48577E-07  2079   0.102E-03    0.258E-04
RMM:  13    -0.413160616126E+03   -0.21245E-05   -0.25966E-07  1591   0.829E-04    0.187E-04
RMM:  14    -0.413160618997E+03   -0.28712E-05   -0.27185E-07  1606   0.817E-04    0.112E-04
RMM:  15    -0.413160620395E+03   -0.13978E-05   -0.16418E-07  1450   0.718E-04    0.612E-05
RMM:  16    -0.413160621263E+03   -0.86748E-06   -0.12610E-07  1332   0.662E-04
  149 T=    60. E= -.41286625E+03 F= -.41316062E+03 E0= -.41313998E+03  EK= 0.29437E+00 SP= 0.00E+00 SK= 0.00E+00
       N       E                     dE             d eps       ncg     rms          rms(c)
RMM:   1    -0.413151766031E+03    0.88544E-02   -0.10514E+01  4264   0.896E-01    0.860E-01
RMM:   2    -0.413161766870E+03   -0.10001E-01   -0.12510E-01  4312   0.103E-01    0.615E-01
RMM:   3    -0.413160838935E+03    0.92794E-03   -0.63757E-03  5054   0.414E-02    0.159E-01
RMM:   4    -0.413193215436E+03   -0.32377E-01   -0.33926E-02  5159   0.153E-01    0.747E-01
RMM:   5    -0.413160348878E+03    0.32867E-01   -0.16372E-02  4823   0.125E-01    0.488E-02
RMM:   6    -0.413160414122E+03   -0.65243E-04   -0.25592E-03  5698   0.487E-02    0.127E-02
RMM:   7    -0.413160447799E+03   -0.33677E-04   -0.31467E-04  5896   0.143E-02    0.105E-02
RMM:   8    -0.413160455328E+03   -0.75291E-05   -0.35498E-05  4214   0.515E-03    0.666E-03
RMM:   9    -0.413160462490E+03   -0.71618E-05   -0.52374E-06  2807   0.276E-03    0.332E-03
RMM:  10    -0.413160469708E+03   -0.72188E-05   -0.19694E-06  2556   0.191E-03    0.172E-03
RMM:  11    -0.413160475694E+03   -0.59857E-05   -0.96977E-07  2461   0.142E-03    0.804E-04
RMM:  12    -0.413160480115E+03   -0.44208E-05   -0.55129E-07  2208   0.109E-03    0.297E-04
RMM:  13    -0.413160481971E+03   -0.18559E-05   -0.27283E-07  1676   0.854E-04    0.221E-04
RMM:  14    -0.413160485012E+03   -0.30410E-05   -0.27800E-07  1596   0.821E-04    0.132E-04
RMM:  15    -0.413160486423E+03   -0.14112E-05   -0.16384E-07  1415   0.716E-04    0.674E-05
RMM:  16    -0.413160487313E+03   -0.88984E-06   -0.12431E-07  1297   0.668E-04
  150 T=    60. E= -.41286598E+03 F= -.41316049E+03 E0= -.41313984E+03  EK= 0.29450E+00 SP= 0.00E+00 SK= 0.00E+00
