       N       E                     dE             d eps       ncg     rms          rms(c)
RMM:   1     0.220178316411E+04    0.22018E+04   -0.52442E+04  2132   0.654E+02
RMM:   2     0.705570374385E+03   -0.14962E+04   -0.16266E+04  2132   0.177E+02
RMM:   3     0.137710564931E+03   -0.56786E+03   -0.65715E+03  2132   0.117E+02
RMM:   4    -0.159718811492E+03   -0.29743E+03   -0.27854E+03  2132   0.936E+01
RMM:   5    -0.287571426837E+03   -0.12785E+03   -0.11455E+03  2132   0.595E+01
RMM:   6    -0.349898203837E+03   -0.62327E+02   -0.55076E+02  2132   0.423E+01
RMM:   7    -0.382739853061E+03   -0.32842E+02   -0.30399E+02  2132   0.293E+01
RMM:   8    -0.404256287459E+03   -0.21516E+02   -0.18435E+02  2132   0.233E+01
RMM:   9    -0.435988391843E+03   -0.31732E+02   -0.30610E+02  6100   0.173E+01
RMM:  10    -0.441290434790E+03   -0.53020E+01   -0.63085E+01  6401   0.539E+00
RMM:  11    -0.442521625065E+03   -0.12312E+01   -0.11246E+01  6219   0.173E+00
RMM:  12    -0.442896990388E+03   -0.37537E+00   -0.26608E+00  6369   0.600E-01    0.134E+02
RMM:  13    -0.425661651810E+03    0.17235E+02   -0.81278E+01  4677   0.120E+01    0.712E+01
RMM:  14    -0.500264485944E+03   -0.74603E+02   -0.54323E+02  5414   0.233E+01    0.308E+01
RMM:  15    -0.416595134852E+03    0.83669E+02   -0.20217E+02  5106   0.164E+01    0.748E+00
RMM:  16    -0.414013512318E+03    0.25816E+01   -0.39913E+01  6088   0.615E+00    0.428E+00
RMM:  17    -0.413208453636E+03    0.80506E+00   -0.26294E+00  5414   0.191E+00    0.243E+00
RMM:  18    -0.413179963717E+03    0.28490E-01   -0.74447E-01  5995   0.883E-01    0.171E+00
RMM:  19    -0.413170694888E+03    0.92688E-02   -0.27323E-01  5674   0.570E-01    0.890E-01
RMM:  20    -0.413192427470E+03   -0.21733E-01   -0.30257E-01  5591   0.566E-01    0.653E-01
RMM:  21    -0.413168983733E+03    0.23444E-01   -0.39655E-02  4984   0.254E-01    0.289E-01
RMM:  22    -0.413165983101E+03    0.30006E-02   -0.22731E-02  5954   0.140E-01    0.137E-01
RMM:  23    -0.413164907131E+03    0.10760E-02   -0.54229E-03  6018   0.655E-02    0.850E-02
RMM:  24    -0.413163543236E+03    0.13639E-02   -0.16459E-03  5294   0.411E-02    0.537E-02
RMM:  25    -0.413162860975E+03    0.68226E-03   -0.88962E-04  5229   0.293E-02    0.403E-02
RMM:  26    -0.413162937089E+03   -0.76114E-04   -0.11846E-03  5822   0.354E-02    0.384E-02
RMM:  27    -0.413163316028E+03   -0.37894E-03   -0.20993E-04  4571   0.212E-02    0.222E-02
RMM:  28    -0.413163727854E+03   -0.41183E-03   -0.17897E-04  5251   0.185E-02    0.101E-02
RMM:  29    -0.413164101782E+03   -0.37393E-03   -0.11570E-04  4798   0.157E-02    0.501E-03
RMM:  30    -0.413164344881E+03   -0.24310E-03   -0.80046E-05  4335   0.110E-02    0.470E-03
RMM:  31    -0.413164488470E+03   -0.14359E-03   -0.61343E-05  3354   0.771E-03    0.415E-03
RMM:  32    -0.413164511961E+03   -0.23492E-04   -0.22137E-05  2999   0.326E-03    0.228E-03
RMM:  33    -0.413164523324E+03   -0.11363E-04   -0.88160E-06  2804   0.235E-03    0.885E-04
RMM:  34    -0.413164525520E+03   -0.21965E-05   -0.48660E-06  2657   0.176E-03    0.494E-04
RMM:  35    -0.413164525255E+03    0.26573E-06   -0.23253E-06  2456   0.138E-03
    1 T=    61. E= -.41286677E+03 F= -.41316453E+03 E0= -.41314203E+03  EK= 0.29776E+00 SP= 0.00E+00 SK= 0.00E+00
       N       E                     dE             d eps       ncg     rms          rms(c)
RMM:   1    -0.413168350033E+03   -0.38245E-02   -0.76214E+00  3995   0.557E-01    0.892E-01
RMM:   2    -0.413170145514E+03   -0.17955E-02   -0.95136E-02  3977   0.829E-02    0.658E-01
RMM:   3    -0.413165216594E+03    0.49289E-02   -0.30228E-02  4904   0.606E-02    0.164E-01
RMM:   4    -0.413187778775E+03   -0.22562E-01   -0.25925E-02  5182   0.135E-01    0.637E-01
RMM:   5    -0.413164035409E+03    0.23743E-01   -0.11370E-02  4840   0.107E-01    0.481E-02
RMM:   6    -0.413164217445E+03   -0.18204E-03   -0.21519E-03  5753   0.452E-02    0.349E-02
RMM:   7    -0.413164218181E+03   -0.73561E-06   -0.41775E-04  5640   0.190E-02    0.215E-02
RMM:   8    -0.413164216600E+03    0.15807E-05   -0.47354E-05  5145   0.774E-03    0.904E-03
RMM:   9    -0.413164219230E+03   -0.26295E-05   -0.99414E-06  3425   0.335E-03    0.653E-03
RMM:  10    -0.413164224431E+03   -0.52020E-05   -0.21150E-06  2582   0.222E-03    0.378E-03
RMM:  11    -0.413164228389E+03   -0.39573E-05   -0.11965E-06  2514   0.165E-03    0.206E-03
RMM:  12    -0.413164234665E+03   -0.62761E-05   -0.14818E-06  2547   0.172E-03    0.918E-04
RMM:  13    -0.413164237611E+03   -0.29463E-05   -0.64829E-07  2366   0.122E-03    0.672E-04
RMM:  14    -0.413164237667E+03   -0.55923E-07   -0.32742E-07  1838   0.828E-04
    2 T=    61. E= -.41286661E+03 F= -.41316424E+03 E0= -.41314174E+03  EK= 0.29763E+00 SP= 0.00E+00 SK= 0.00E+00
       N       E                     dE             d eps       ncg     rms          rms(c)
RMM:   1    -0.413169339803E+03   -0.51022E-02   -0.75918E+00  4191   0.557E-01    0.908E-01
RMM:   2    -0.413170435814E+03   -0.10960E-02   -0.94871E-02  4092   0.843E-02    0.655E-01
RMM:   3    -0.413165991920E+03    0.44439E-02   -0.27973E-02  4969   0.605E-02    0.160E-01
RMM:   4    -0.413194294630E+03   -0.28303E-01   -0.32375E-02  5150   0.151E-01    0.711E-01
RMM:   5    -0.413164632369E+03    0.29662E-01   -0.13798E-02  4809   0.119E-01    0.507E-02
RMM:   6    -0.413164837685E+03   -0.20532E-03   -0.25672E-03  5732   0.496E-02    0.368E-02
RMM:   7    -0.413164834256E+03    0.34291E-05   -0.46119E-04  5621   0.203E-02    0.232E-02
RMM:   8    -0.413164826161E+03    0.80953E-05   -0.60210E-05  5232   0.890E-03    0.105E-02
RMM:   9    -0.413164824649E+03    0.15120E-05   -0.12114E-05  3788   0.388E-03    0.740E-03
RMM:  10    -0.413164824894E+03   -0.24505E-06   -0.22088E-06  2584   0.240E-03
    3 T=    61. E= -.41286698E+03 F= -.41316482E+03 E0= -.41314233E+03  EK= 0.29784E+00 SP= 0.00E+00 SK= 0.00E+00
       N       E                     dE             d eps       ncg     rms          rms(c)
RMM:   1    -0.413168751313E+03   -0.39267E-02   -0.75372E+00  4218   0.562E-01    0.894E-01
RMM:   2    -0.413169834832E+03   -0.10835E-02   -0.94426E-02  4260   0.820E-02    0.650E-01
RMM:   3    -0.413173526493E+03   -0.36917E-02   -0.33340E-02  5184   0.988E-02    0.403E-01
RMM:   4    -0.413181838948E+03   -0.83125E-02   -0.35126E-02  5089   0.163E-01    0.547E-01
RMM:   5    -0.413164554461E+03    0.17284E-01   -0.62597E-03  4620   0.909E-02    0.555E-02
RMM:   6    -0.413164553407E+03    0.10532E-05   -0.13196E-03  5335   0.365E-02    0.319E-02
RMM:   7    -0.413164576835E+03   -0.23428E-04   -0.27430E-04  5829   0.155E-02    0.184E-02
RMM:   8    -0.413164573207E+03    0.36286E-05   -0.45253E-05  5045   0.803E-03    0.721E-03
RMM:   9    -0.413164571978E+03    0.12286E-05   -0.51898E-06  2987   0.304E-03    0.371E-03
RMM:  10    -0.413164572997E+03   -0.10192E-05   -0.14003E-06  2527   0.198E-03    0.225E-03
RMM:  11    -0.413164574135E+03   -0.11383E-05   -0.10439E-06  2501   0.160E-03    0.115E-03
RMM:  12    -0.413164574903E+03   -0.76757E-06   -0.71514E-07  2444   0.129E-03
    4 T=    61. E= -.41286671E+03 F= -.41316457E+03 E0= -.41314209E+03  EK= 0.29787E+00 SP= 0.00E+00 SK= 0.00E+00
       N       E                     dE             d eps       ncg     rms          rms(c)
RMM:   1    -0.413168827687E+03   -0.42536E-02   -0.76145E+00  4234   0.571E-01    0.890E-01
RMM:   2    -0.413170162108E+03   -0.13344E-02   -0.95369E-02  4097   0.812E-02    0.657E-01
RMM:   3    -0.413166417724E+03    0.37444E-02   -0.30608E-02  5044   0.611E-02    0.198E-01
RMM:   4    -0.413195364816E+03   -0.28947E-01   -0.35041E-02  5135   0.158E-01    0.726E-01
RMM:   5    -0.413164506311E+03    0.30859E-01   -0.14172E-02  4782   0.121E-01    0.510E-02
RMM:   6    -0.413164708608E+03   -0.20230E-03   -0.25973E-03  5727   0.499E-02    0.351E-02
RMM:   7    -0.413164715592E+03   -0.69840E-05   -0.45446E-04  5684   0.198E-02    0.226E-02
RMM:   8    -0.413164712022E+03    0.35697E-05   -0.60230E-05  5203   0.870E-03    0.101E-02
RMM:   9    -0.413164712837E+03   -0.81490E-06   -0.11332E-05  3757   0.384E-03    0.692E-03
RMM:  10    -0.413164717280E+03   -0.44436E-05   -0.20822E-06  2574   0.230E-03    0.409E-03
RMM:  11    -0.413164720473E+03   -0.31931E-05   -0.10896E-06  2525   0.168E-03    0.230E-03
RMM:  12    -0.413164725996E+03   -0.55229E-05   -0.17182E-06  2578   0.190E-03    0.110E-03
RMM:  13    -0.413164728648E+03   -0.26521E-05   -0.70220E-07  2420   0.134E-03    0.855E-04
RMM:  14    -0.413164728465E+03    0.18343E-06   -0.25765E-07  1935   0.874E-04
    5 T=    61. E= -.41286666E+03 F= -.41316473E+03 E0= -.41314225E+03  EK= 0.29807E+00 SP= 0.00E+00 SK= 0.00E+00
       N       E                     dE             d eps       ncg     rms          rms(c)
RMM:   1    -0.413169622166E+03   -0.48935E-02   -0.76036E+00  4246   0.571E-01    0.906E-01
RMM:   2    -0.413170531655E+03   -0.90949E-03   -0.95168E-02  4066   0.800E-02    0.657E-01
RMM:   3    -0.413166355645E+03    0.41760E-02   -0.28418E-02  4988   0.575E-02    0.161E-01
RMM:   4    -0.413194105963E+03   -0.27750E-01   -0.31593E-02  5134   0.149E-01    0.705E-01
RMM:   5    -0.413165006663E+03    0.29099E-01   -0.13591E-02  4796   0.117E-01    0.500E-02
RMM:   6    -0.413165199425E+03   -0.19276E-03   -0.24790E-03  5731   0.488E-02    0.361E-02
RMM:   7    -0.413165197843E+03    0.15816E-05   -0.44128E-04  5613   0.202E-02    0.228E-02
RMM:   8    -0.413165191534E+03    0.63093E-05   -0.58655E-05  5148   0.888E-03    0.104E-02
RMM:   9    -0.413165189968E+03    0.15661E-05   -0.11688E-05  3721   0.384E-03    0.739E-03
RMM:  10    -0.413165190449E+03   -0.48086E-06   -0.20891E-06  2572   0.234E-03
    6 T=    61. E= -.41286680E+03 F= -.41316519E+03 E0= -.41314273E+03  EK= 0.29839E+00 SP= 0.00E+00 SK= 0.00E+00
       N       E                     dE             d eps       ncg     rms          rms(c)
RMM:   1    -0.413169276088E+03   -0.40861E-02   -0.75579E+00  4262   0.575E-01    0.900E-01
RMM:   2    -0.413170367925E+03   -0.10918E-02   -0.94717E-02  4262   0.792E-02    0.651E-01
RMM:   3    -0.413172598686E+03   -0.22308E-02   -0.32182E-02  5145   0.942E-02    0.373E-01
RMM:   4    -0.413184079768E+03   -0.11481E-01   -0.35464E-02  5078   0.163E-01    0.575E-01
RMM:   5    -0.413164916377E+03    0.19163E-01   -0.71385E-03  4641   0.953E-02    0.555E-02
RMM:   6    -0.413164931749E+03   -0.15372E-04   -0.14593E-03  5403   0.385E-02    0.326E-02
RMM:   7    -0.413164953124E+03   -0.21375E-04   -0.29133E-04  5817   0.162E-02    0.190E-02
RMM:   8    -0.413164949510E+03    0.36142E-05   -0.47154E-05  5068   0.820E-03    0.740E-03
RMM:   9    -0.413164947571E+03    0.19397E-05   -0.57957E-06  3037   0.310E-03    0.388E-03
RMM:  10    -0.413164947453E+03    0.11765E-06   -0.14882E-06  2525   0.202E-03
    7 T=    61. E= -.41286649E+03 F= -.41316495E+03 E0= -.41314250E+03  EK= 0.29846E+00 SP= 0.00E+00 SK= 0.00E+00
       N       E                     dE             d eps       ncg     rms          rms(c)
RMM:   1    -0.413169532601E+03   -0.45850E-02   -0.76008E+00  4268   0.581E-01    0.889E-01
RMM:   2    -0.413171331947E+03   -0.17993E-02   -0.94969E-02  4103   0.803E-02    0.655E-01
RMM:   3    -0.413167508527E+03    0.38234E-02   -0.30424E-02  5007   0.669E-02    0.207E-01
RMM:   4    -0.413196957359E+03   -0.29449E-01   -0.36497E-02  5123   0.161E-01    0.734E-01
RMM:   5    -0.413165364056E+03    0.31593E-01   -0.14398E-02  4778   0.122E-01    0.518E-02
RMM:   6    -0.413165561238E+03   -0.19718E-03   -0.26151E-03  5707   0.505E-02    0.352E-02
RMM:   7    -0.413165566359E+03   -0.51216E-05   -0.45262E-04  5693   0.198E-02    0.227E-02
RMM:   8    -0.413165562823E+03    0.35360E-05   -0.60199E-05  5212   0.878E-03    0.991E-03
RMM:   9    -0.413165562693E+03    0.13024E-06   -0.11185E-05  3720   0.382E-03    0.664E-03
RMM:  10    -0.413165565658E+03   -0.29649E-05   -0.20677E-06  2569   0.230E-03    0.393E-03
RMM:  11    -0.413165567691E+03   -0.20335E-05   -0.10562E-06  2521   0.165E-03    0.217E-03
RMM:  12    -0.413165570972E+03   -0.32803E-05   -0.15242E-06  2550   0.183E-03    0.102E-03
RMM:  13    -0.413165572461E+03   -0.14893E-05   -0.72031E-07  2418   0.133E-03    0.835E-04
RMM:  14    -0.413165572241E+03    0.21977E-06   -0.25777E-07  1918   0.868E-04
    8 T=    61. E= -.41286683E+03 F= -.41316557E+03 E0= -.41314314E+03  EK= 0.29875E+00 SP= 0.00E+00 SK= 0.00E+00
       N       E                     dE             d eps       ncg     rms          rms(c)
RMM:   1    -0.413170135816E+03   -0.45634E-02   -0.76165E+00  4280   0.584E-01    0.902E-01
RMM:   2    -0.413171486528E+03   -0.13507E-02   -0.94929E-02  4171   0.826E-02    0.658E-01
RMM:   3    -0.413167068965E+03    0.44176E-02   -0.29231E-02  4967   0.618E-02    0.174E-01
RMM:   4    -0.413195624780E+03   -0.28556E-01   -0.33046E-02  5127   0.153E-01    0.716E-01
RMM:   5    -0.413165553857E+03    0.30071E-01   -0.14055E-02  4791   0.119E-01    0.501E-02
RMM:   6    -0.413165755936E+03   -0.20208E-03   -0.25199E-03  5734   0.493E-02    0.359E-02
RMM:   7    -0.413165749074E+03    0.68614E-05   -0.44327E-04  5619   0.200E-02    0.227E-02
RMM:   8    -0.413165740289E+03    0.87849E-05   -0.58987E-05  5166   0.882E-03    0.103E-02
RMM:   9    -0.413165738293E+03    0.19960E-05   -0.11623E-05  3746   0.387E-03    0.721E-03
RMM:  10    -0.413165738850E+03   -0.55633E-06   -0.20878E-06  2576   0.233E-03
    9 T=    61. E= -.41286684E+03 F= -.41316574E+03 E0= -.41314333E+03  EK= 0.29890E+00 SP= 0.00E+00 SK= 0.00E+00
       N       E                     dE             d eps       ncg     rms          rms(c)
RMM:   1    -0.413170356572E+03   -0.46183E-02   -0.75784E+00  4289   0.591E-01    0.906E-01
RMM:   2    -0.413171329310E+03   -0.97274E-03   -0.95100E-02  4312   0.847E-02    0.653E-01
RMM:   3    -0.413173750011E+03   -0.24207E-02   -0.32439E-02  5121   0.970E-02    0.380E-01
RMM:   4    -0.413184524157E+03   -0.10774E-01   -0.35420E-02  5066   0.163E-01    0.568E-01
RMM:   5    -0.413165789010E+03    0.18735E-01   -0.69060E-03  4637   0.936E-02    0.556E-02
RMM:   6    -0.413165805116E+03   -0.16107E-04   -0.14196E-03  5387   0.378E-02    0.328E-02
RMM:   7    -0.413165822027E+03   -0.16911E-04   -0.28952E-04  5815   0.160E-02    0.190E-02
RMM:   8    -0.413165815052E+03    0.69746E-05   -0.47822E-05  5046   0.830E-03    0.743E-03
RMM:   9    -0.413165811593E+03    0.34595E-05   -0.57091E-06  3021   0.317E-03    0.386E-03
RMM:  10    -0.413165810226E+03    0.13668E-05   -0.14892E-06  2526   0.203E-03    0.234E-03
RMM:  11    -0.413165808331E+03    0.18955E-05   -0.10439E-06  2489   0.161E-03    0.119E-03
RMM:  12    -0.413165806261E+03    0.20695E-05   -0.71243E-07  2449   0.131E-03    0.533E-04
RMM:  13    -0.413165805016E+03    0.12455E-05   -0.35636E-07  2009   0.968E-04    0.333E-04
RMM:  14    -0.413165803639E+03    0.13763E-05   -0.22618E-07  1556   0.784E-04    0.209E-04
RMM:  15    -0.413165801034E+03    0.26054E-05   -0.29406E-07  1770   0.808E-04    0.252E-04
RMM:  16    -0.413165798464E+03    0.25697E-05   -0.21087E-07  1384   0.701E-04    0.159E-04
RMM:  17    -0.413165796994E+03    0.14707E-05   -0.11770E-07  1127   0.616E-04    0.767E-05
RMM:  18    -0.413165795411E+03    0.15826E-05   -0.94859E-08  1095   0.601E-04    0.617E-05
RMM:  19    -0.413165794961E+03    0.44959E-06   -0.39831E-08   810   0.537E-04
   10 T=    61. E= -.41286670E+03 F= -.41316579E+03 E0= -.41314341E+03  EK= 0.29910E+00 SP= 0.00E+00 SK= 0.00E+00
       N       E                     dE             d eps       ncg     rms          rms(c)
RMM:   1    -0.413170590121E+03   -0.47947E-02   -0.75804E+00  4291   0.593E-01    0.888E-01
RMM:   2    -0.413172127437E+03   -0.15373E-02   -0.95011E-02  4221   0.839E-02    0.653E-01
RMM:   3    -0.413168268072E+03    0.38594E-02   -0.29766E-02  5004   0.634E-02    0.194E-01
RMM:   4    -0.413197683023E+03   -0.29415E-01   -0.35711E-02  5116   0.159E-01    0.731E-01
RMM:   5    -0.413166353509E+03    0.31330E-01   -0.14503E-02  4773   0.121E-01    0.512E-02
RMM:   6    -0.413166556849E+03   -0.20334E-03   -0.25770E-03  5697   0.499E-02    0.357E-02
RMM:   7    -0.413166557132E+03   -0.28376E-06   -0.45038E-04  5608   0.199E-02    0.226E-02
RMM:   8    -0.413166553072E+03    0.40608E-05   -0.60301E-05  5190   0.891E-03    0.997E-03
RMM:   9    -0.413166552192E+03    0.87944E-06   -0.11981E-05  3790   0.391E-03    0.679E-03
RMM:  10    -0.413166554051E+03   -0.18588E-05   -0.20763E-06  2571   0.230E-03    0.403E-03
RMM:  11    -0.413166555314E+03   -0.12631E-05   -0.99639E-07  2499   0.162E-03    0.227E-03
RMM:  12    -0.413166557336E+03   -0.20215E-05   -0.13898E-06  2522   0.180E-03    0.105E-03
RMM:  13    -0.413166558087E+03   -0.75119E-06   -0.62695E-07  2386   0.130E-03
   11 T=    61. E= -.41286694E+03 F= -.41316656E+03 E0= -.41314420E+03  EK= 0.29962E+00 SP= 0.00E+00 SK= 0.00E+00
       N       E                     dE             d eps       ncg     rms          rms(c)
RMM:   1    -0.413170828300E+03   -0.42710E-02   -0.76390E+00  4292   0.598E-01    0.900E-01
RMM:   2    -0.413172056965E+03   -0.12287E-02   -0.95615E-02  4228   0.847E-02    0.660E-01
RMM:   3    -0.413167928831E+03    0.41281E-02   -0.29979E-02  4949   0.612E-02    0.181E-01
RMM:   4    -0.413196266824E+03   -0.28338E-01   -0.33227E-02  5118   0.153E-01    0.715E-01
RMM:   5    -0.413166319364E+03    0.29947E-01   -0.14005E-02  4783   0.119E-01    0.498E-02
RMM:   6    -0.413166521163E+03   -0.20180E-03   -0.25346E-03  5754   0.490E-02    0.351E-02
RMM:   7    -0.413166523174E+03   -0.20110E-05   -0.43473E-04  5639   0.199E-02    0.226E-02
RMM:   8    -0.413166516173E+03    0.70015E-05   -0.60815E-05  5081   0.890E-03    0.105E-02
RMM:   9    -0.413166514633E+03    0.15396E-05   -0.11706E-05  3727   0.392E-03    0.737E-03
RMM:  10    -0.413166515792E+03   -0.11593E-05   -0.20783E-06  2577   0.232E-03    0.437E-03
RMM:  11    -0.413166516818E+03   -0.10254E-05   -0.12398E-06  2503   0.180E-03    0.229E-03
RMM:  12    -0.413166518108E+03   -0.12904E-05   -0.15803E-06  2553   0.188E-03    0.106E-03
RMM:  13    -0.413166518234E+03   -0.12625E-06   -0.54264E-07  2360   0.128E-03
   12 T=    61. E= -.41286658E+03 F= -.41316652E+03 E0= -.41314419E+03  EK= 0.29994E+00 SP= 0.00E+00 SK= 0.00E+00
       N       E                     dE             d eps       ncg     rms          rms(c)
RMM:   1    -0.413171751071E+03   -0.52330E-02   -0.76091E+00  4294   0.602E-01    0.911E-01
RMM:   2    -0.413172313097E+03   -0.56203E-03   -0.95530E-02  4230   0.819E-02    0.656E-01
RMM:   3    -0.413168315410E+03    0.39977E-02   -0.27795E-02  4975   0.570E-02    0.159E-01
RMM:   4    -0.413197299232E+03   -0.28984E-01   -0.33258E-02  5119   0.153E-01    0.719E-01
RMM:   5    -0.413166937628E+03    0.30362E-01   -0.14218E-02  4791   0.119E-01    0.507E-02
RMM:   6    -0.413167141760E+03   -0.20413E-03   -0.25837E-03  5741   0.497E-02    0.367E-02
RMM:   7    -0.413167135625E+03    0.61352E-05   -0.45071E-04  5608   0.205E-02    0.233E-02
RMM:   8    -0.413167123662E+03    0.11962E-04   -0.62211E-05  5151   0.898E-03    0.109E-02
RMM:   9    -0.413167118630E+03    0.50328E-05   -0.11879E-05  3779   0.395E-03    0.761E-03
RMM:  10    -0.413167115317E+03    0.33122E-05   -0.22023E-06  2580   0.240E-03    0.442E-03
RMM:  11    -0.413167113069E+03    0.22480E-05   -0.11392E-06  2503   0.174E-03    0.251E-03
RMM:  12    -0.413167108792E+03    0.42777E-05   -0.17359E-06  2568   0.198E-03    0.117E-03
RMM:  13    -0.413167106141E+03    0.26502E-05   -0.65546E-07  2395   0.138E-03    0.895E-04
RMM:  14    -0.413167105992E+03    0.14961E-06   -0.25985E-07  1977   0.896E-04
   13 T=    61. E= -.41286662E+03 F= -.41316711E+03 E0= -.41314480E+03  EK= 0.30049E+00 SP= 0.00E+00 SK= 0.00E+00
       N       E                     dE             d eps       ncg     rms          rms(c)
RMM:   1    -0.413171920267E+03   -0.48141E-02   -0.75802E+00  4296   0.605E-01    0.891E-01
RMM:   2    -0.413173148728E+03   -0.12285E-02   -0.94959E-02  4237   0.799E-02    0.652E-01
RMM:   3    -0.413169152368E+03    0.39964E-02   -0.29069E-02  4987   0.590E-02    0.177E-01
RMM:   4    -0.413197939694E+03   -0.28787E-01   -0.33772E-02  5121   0.154E-01    0.720E-01
RMM:   5    -0.413167545758E+03    0.30394E-01   -0.14138E-02  4781   0.119E-01    0.503E-02
RMM:   6    -0.413167748402E+03   -0.20264E-03   -0.25616E-03  5741   0.494E-02    0.357E-02
RMM:   7    -0.413167748140E+03    0.26173E-06   -0.44235E-04  5606   0.201E-02    0.229E-02
RMM:   8    -0.413167739369E+03    0.87711E-05   -0.60636E-05  5131   0.893E-03    0.105E-02
RMM:   9    -0.413167736339E+03    0.30297E-05   -0.11749E-05  3748   0.396E-03    0.725E-03
RMM:  10    -0.413167735793E+03    0.54573E-06   -0.21533E-06  2577   0.241E-03
   14 T=    61. E= -.41286674E+03 F= -.41316774E+03 E0= -.41314547E+03  EK= 0.30100E+00 SP= 0.00E+00 SK= 0.00E+00
       N       E                     dE             d eps       ncg     rms          rms(c)
RMM:   1    -0.413172613002E+03   -0.48767E-02   -0.76696E+00  4300   0.620E-01    0.898E-01
RMM:   2    -0.413173572996E+03   -0.95999E-03   -0.96373E-02  4322   0.814E-02    0.661E-01
RMM:   3    -0.413176823852E+03   -0.32509E-02   -0.35789E-02  5129   0.101E-01    0.408E-01
RMM:   4    -0.413186512674E+03   -0.96888E-02   -0.36870E-02  5052   0.166E-01    0.572E-01
RMM:   5    -0.413167757360E+03    0.18755E-01   -0.70832E-03  4612   0.949E-02    0.543E-02
RMM:   6    -0.413167778462E+03   -0.21103E-04   -0.14484E-03  5382   0.371E-02    0.314E-02
RMM:   7    -0.413167798552E+03   -0.20090E-04   -0.27864E-04  5760   0.157E-02    0.182E-02
RMM:   8    -0.413167798046E+03    0.50666E-06   -0.45118E-05  5029   0.789E-03    0.702E-03
RMM:   9    -0.413167796999E+03    0.10465E-05   -0.51096E-06  2925   0.299E-03    0.376E-03
RMM:  10    -0.413167798088E+03   -0.10885E-05   -0.14003E-06  2509   0.195E-03    0.228E-03
RMM:  11    -0.413167799014E+03   -0.92628E-06   -0.92277E-07  2468   0.153E-03
   15 T=    61. E= -.41286655E+03 F= -.41316780E+03 E0= -.41314556E+03  EK= 0.30125E+00 SP= 0.00E+00 SK= 0.00E+00
       N       E                     dE             d eps       ncg     rms          rms(c)
RMM:   1    -0.413173578626E+03   -0.57805E-02   -0.76353E+00  4295   0.615E-01    0.913E-01
RMM:   2    -0.413174567914E+03   -0.98929E-03   -0.95689E-02  4258   0.845E-02    0.658E-01
RMM:   3    -0.413170842593E+03    0.37253E-02   -0.28692E-02  5005   0.674E-02    0.199E-01
RMM:   4    -0.413201509625E+03   -0.30667E-01   -0.38649E-02  5111   0.165E-01    0.746E-01
RMM:   5    -0.413168665842E+03    0.32844E-01   -0.14907E-02  4769   0.123E-01    0.531E-02
RMM:   6    -0.413168879220E+03   -0.21338E-03   -0.27536E-03  5713   0.513E-02    0.372E-02
RMM:   7    -0.413168867255E+03    0.11965E-04   -0.47576E-04  5674   0.204E-02    0.239E-02
RMM:   8    -0.413168853412E+03    0.13842E-04   -0.65119E-05  5214   0.919E-03    0.107E-02
RMM:   9    -0.413168848267E+03    0.51455E-05   -0.12146E-05  3817   0.399E-03    0.703E-03
RMM:  10    -0.413168844516E+03    0.37508E-05   -0.22253E-06  2581   0.239E-03    0.411E-03
RMM:  11    -0.413168842161E+03    0.23547E-05   -0.10351E-06  2501   0.167E-03    0.239E-03
RMM:  12    -0.413168837012E+03    0.51495E-05   -0.15987E-06  2548   0.192E-03    0.114E-03
RMM:  13    -0.413168833277E+03    0.37343E-05   -0.72772E-07  2422   0.140E-03    0.921E-04
RMM:  14    -0.413168833105E+03    0.17279E-06   -0.27609E-07  2016   0.916E-04
   16 T=    61. E= -.41286693E+03 F= -.41316883E+03 E0= -.41314664E+03  EK= 0.30190E+00 SP= 0.00E+00 SK= 0.00E+00
       N       E                     dE             d eps       ncg     rms          rms(c)
RMM:   1    -0.413173604203E+03   -0.47709E-02   -0.75884E+00  4296   0.618E-01    0.896E-01
RMM:   2    -0.413175043807E+03   -0.14396E-02   -0.95318E-02  4261   0.863E-02    0.653E-01
RMM:   3    -0.413170860400E+03    0.41834E-02   -0.28798E-02  4967   0.645E-02    0.181E-01
RMM:   4    -0.413200694231E+03   -0.29834E-01   -0.35546E-02  5112   0.158E-01    0.733E-01
RMM:   5    -0.413169122271E+03    0.31572E-01   -0.14666E-02  4775   0.121E-01    0.512E-02
RMM:   6    -0.413169332915E+03   -0.21064E-03   -0.26787E-03  5733   0.501E-02    0.364E-02
RMM:   7    -0.413169327855E+03    0.50605E-05   -0.45547E-04  5612   0.202E-02    0.233E-02
RMM:   8    -0.413169318549E+03    0.93060E-05   -0.63038E-05  5157   0.905E-03    0.107E-02
RMM:   9    -0.413169314600E+03    0.39487E-05   -0.12138E-05  3799   0.401E-03    0.734E-03
RMM:  10    -0.413169312549E+03    0.20508E-05   -0.21688E-06  2575   0.240E-03    0.432E-03
RMM:  11    -0.413169311023E+03    0.15263E-05   -0.11338E-06  2509   0.172E-03    0.243E-03
RMM:  12    -0.413169307959E+03    0.30642E-05   -0.16014E-06  2547   0.195E-03    0.112E-03
RMM:  13    -0.413169305656E+03    0.23025E-05   -0.64218E-07  2399   0.136E-03    0.918E-04
RMM:  14    -0.413169305566E+03    0.90742E-07   -0.25543E-07  1957   0.887E-04
   17 T=    62. E= -.41286681E+03 F= -.41316931E+03 E0= -.41314715E+03  EK= 0.30249E+00 SP= 0.00E+00 SK= 0.00E+00
       N       E                     dE             d eps       ncg     rms          rms(c)
RMM:   1    -0.413174148639E+03   -0.48430E-02   -0.76827E+00  4295   0.625E-01    0.897E-01
RMM:   2    -0.413175606235E+03   -0.14576E-02   -0.96476E-02  4271   0.871E-02    0.662E-01
RMM:   3    -0.413171455877E+03    0.41504E-02   -0.31105E-02  4973   0.645E-02    0.195E-01
RMM:   4    -0.413200547602E+03   -0.29092E-01   -0.34893E-02  5113   0.157E-01    0.726E-01
RMM:   5    -0.413169609153E+03    0.30938E-01   -0.14498E-02  4774   0.120E-01    0.503E-02
RMM:   6    -0.413169821559E+03   -0.21241E-03   -0.26166E-03  5760   0.492E-02    0.351E-02
RMM:   7    -0.413169821978E+03   -0.41887E-06   -0.43734E-04  5602   0.199E-02    0.226E-02
RMM:   8    -0.413169813782E+03    0.81961E-05   -0.61772E-05  5100   0.906E-03    0.104E-02
RMM:   9    -0.413169811358E+03    0.24237E-05   -0.12330E-05  3775   0.402E-03    0.721E-03
RMM:  10    -0.413169811847E+03   -0.48851E-06   -0.20934E-06  2571   0.235E-03
   18 T=    62. E= -.41286665E+03 F= -.41316981E+03 E0= -.41314769E+03  EK= 0.30316E+00 SP= 0.00E+00 SK= 0.00E+00
       N       E                     dE             d eps       ncg     rms          rms(c)
RMM:   1    -0.413175767698E+03   -0.59563E-02   -0.76699E+00  4300   0.631E-01    0.914E-01
RMM:   2    -0.413176374578E+03   -0.60688E-03   -0.96504E-02  4324   0.836E-02    0.662E-01
RMM:   3    -0.413179659438E+03   -0.32849E-02   -0.33948E-02  5136   0.978E-02    0.397E-01
RMM:   4    -0.413189459644E+03   -0.98002E-02   -0.36526E-02  5053   0.165E-01    0.565E-01
RMM:   5    -0.413170970170E+03    0.18489E-01   -0.67616E-03  4620   0.932E-02    0.548E-02
RMM:   6    -0.413170981447E+03   -0.11277E-04   -0.14455E-03  5392   0.369E-02    0.328E-02
RMM:   7    -0.413170988652E+03   -0.72054E-05   -0.28374E-04  5722   0.160E-02    0.190E-02
RMM:   8    -0.413170983244E+03    0.54082E-05   -0.45724E-05  5006   0.817E-03    0.734E-03
RMM:   9    -0.413170978941E+03    0.43027E-05   -0.56325E-06  2963   0.313E-03    0.389E-03
RMM:  10    -0.413170976369E+03    0.25719E-05   -0.14776E-06  2511   0.202E-03    0.234E-03
RMM:  11    -0.413170973199E+03    0.31706E-05   -0.92987E-07  2467   0.157E-03    0.119E-03
RMM:  12    -0.413170969410E+03    0.37888E-05   -0.66641E-07  2434   0.129E-03    0.519E-04
RMM:  13    -0.413170967190E+03    0.22199E-05   -0.32531E-07  1982   0.948E-04    0.332E-04
RMM:  14    -0.413170965050E+03    0.21400E-05   -0.18573E-07  1478   0.754E-04    0.209E-04
RMM:  15    -0.413170960504E+03    0.45466E-05   -0.21947E-07  1661   0.774E-04    0.262E-04
RMM:  16    -0.413170956748E+03    0.37552E-05   -0.13821E-07  1197   0.654E-04    0.161E-04
RMM:  17    -0.413170954416E+03    0.23323E-05   -0.88763E-08  1088   0.607E-04    0.779E-05
RMM:  18    -0.413170951838E+03    0.25781E-05   -0.71469E-08  1042   0.596E-04    0.598E-05
RMM:  19    -0.413170951090E+03    0.74755E-06   -0.30877E-08   782   0.547E-04
   19 T=    62. E= -.41286688E+03 F= -.41317095E+03 E0= -.41314887E+03  EK= 0.30407E+00 SP= 0.00E+00 SK= 0.00E+00
       N       E                     dE             d eps       ncg     rms          rms(c)
RMM:   1    -0.413175849372E+03   -0.48975E-02   -0.76279E+00  4294   0.633E-01    0.904E-01
RMM:   2    -0.413176620162E+03   -0.77079E-03   -0.96185E-02  4261   0.806E-02    0.656E-01
RMM:   3    -0.413173093833E+03    0.35263E-02   -0.28660E-02  5034   0.610E-02    0.188E-01
RMM:   4    -0.413203881403E+03   -0.30788E-01   -0.37829E-02  5116   0.163E-01    0.745E-01
RMM:   5    -0.413171185717E+03    0.32696E-01   -0.15121E-02  4771   0.124E-01    0.526E-02
RMM:   6    -0.413171376974E+03   -0.19126E-03   -0.27559E-03  5714   0.508E-02    0.371E-02
RMM:   7    -0.413171363127E+03    0.13847E-04   -0.47113E-04  5600   0.205E-02    0.237E-02
RMM:   8    -0.413171354528E+03    0.85982E-05   -0.66552E-05  5203   0.940E-03    0.108E-02
RMM:   9    -0.413171349799E+03    0.47298E-05   -0.12985E-05  3871   0.414E-03    0.717E-03
RMM:  10    -0.413171347020E+03    0.27786E-05   -0.22360E-06  2584   0.241E-03    0.426E-03
RMM:  11    -0.413171345155E+03    0.18652E-05   -0.10530E-06  2503   0.167E-03    0.247E-03
RMM:  12    -0.413171341260E+03    0.38951E-05   -0.15801E-06  2539   0.194E-03    0.115E-03
RMM:  13    -0.413171338414E+03    0.28457E-05   -0.67357E-07  2403   0.137E-03    0.936E-04
RMM:  14    -0.413171338308E+03    0.10564E-06   -0.27019E-07  1990   0.907E-04
   20 T=    62. E= -.41286655E+03 F= -.41317134E+03 E0= -.41314930E+03  EK= 0.30478E+00 SP= 0.00E+00 SK= 0.00E+00
       N       E                     dE             d eps       ncg     rms          rms(c)
RMM:   1    -0.413176709362E+03   -0.53709E-02   -0.77034E+00  4300   0.635E-01    0.897E-01
RMM:   2    -0.413178185732E+03   -0.14764E-02   -0.96775E-02  4260   0.811E-02    0.662E-01
RMM:   3    -0.413173876329E+03    0.43094E-02   -0.30984E-02  4975   0.613E-02    0.185E-01
RMM:   4    -0.413201921913E+03   -0.28046E-01   -0.32931E-02  5116   0.152E-01    0.711E-01
RMM:   5    -0.413172259604E+03    0.29662E-01   -0.13992E-02  4783   0.118E-01    0.494E-02
RMM:   6    -0.413172459589E+03   -0.19999E-03   -0.25335E-03  5774   0.483E-02    0.344E-02
RMM:   7    -0.413172462919E+03   -0.33303E-05   -0.41294E-04  5604   0.198E-02    0.223E-02
RMM:   8    -0.413172456103E+03    0.68168E-05   -0.62959E-05  5069   0.908E-03    0.107E-02
RMM:   9    -0.413172453186E+03    0.29168E-05   -0.12237E-05  3792   0.408E-03    0.745E-03
RMM:  10    -0.413172453216E+03   -0.30581E-07   -0.21121E-06  2574   0.238E-03
   21 T=    62. E= -.41286671E+03 F= -.41317245E+03 E0= -.41315046E+03  EK= 0.30575E+00 SP= 0.00E+00 SK= 0.00E+00
       N       E                     dE             d eps       ncg     rms          rms(c)
RMM:   1    -0.413178185909E+03   -0.57327E-02   -0.77164E+00  4299   0.637E-01    0.913E-01
RMM:   2    -0.413179360899E+03   -0.11750E-02   -0.96841E-02  4349   0.831E-02    0.665E-01
RMM:   3    -0.413181805536E+03   -0.24446E-02   -0.34336E-02  5124   0.980E-02    0.386E-01
RMM:   4    -0.413193439412E+03   -0.11634E-01   -0.37185E-02  5057   0.166E-01    0.585E-01
RMM:   5    -0.413173582111E+03    0.19857E-01   -0.74233E-03  4631   0.972E-02    0.543E-02
RMM:   6    -0.413173617387E+03   -0.35276E-04   -0.15561E-03  5441   0.384E-02    0.328E-02
RMM:   7    -0.413173626278E+03   -0.88917E-05   -0.29878E-04  5690   0.168E-02    0.194E-02
RMM:   8    -0.413173620833E+03    0.54449E-05   -0.47617E-05  4994   0.859E-03    0.749E-03
RMM:   9    -0.413173616780E+03    0.40540E-05   -0.62864E-06  3049   0.328E-03    0.403E-03
RMM:  10    -0.413173614378E+03    0.24015E-05   -0.15298E-06  2515   0.204E-03    0.244E-03
RMM:  11    -0.413173611594E+03    0.27839E-05   -0.90057E-07  2468   0.155E-03    0.121E-03
RMM:  12    -0.413173607895E+03    0.36992E-05   -0.67648E-07  2432   0.130E-03    0.518E-04
RMM:  13    -0.413173605529E+03    0.23660E-05   -0.33138E-07  2007   0.956E-04    0.318E-04
RMM:  14    -0.413173603621E+03    0.19077E-05   -0.18260E-07  1498   0.748E-04    0.204E-04
RMM:  15    -0.413173599226E+03    0.43951E-05   -0.19318E-07  1534   0.746E-04    0.232E-04
RMM:  16    -0.413173595847E+03    0.33794E-05   -0.11507E-07  1118   0.642E-04    0.178E-04
RMM:  17    -0.413173593535E+03    0.23116E-05   -0.75185E-08  1019   0.601E-04    0.901E-05
RMM:  18    -0.413173590884E+03    0.26513E-05   -0.67319E-08  1050   0.596E-04    0.355E-05
RMM:  19    -0.413173589573E+03    0.13111E-05   -0.34348E-08   857   0.559E-04    0.312E-05
RMM:  20    -0.413173589134E+03    0.43863E-06   -0.17489E-08   718   0.538E-04
   22 T=    62. E= -.41286688E+03 F= -.41317359E+03 E0= -.41315165E+03  EK= 0.30671E+00 SP= 0.00E+00 SK= 0.00E+00
       N       E                     dE             d eps       ncg     rms          rms(c)
RMM:   1    -0.413179176611E+03   -0.55870E-02   -0.76853E+00  4294   0.653E-01    0.912E-01
RMM:   2    -0.413180003699E+03   -0.82709E-03   -0.97341E-02  4290   0.864E-02    0.660E-01
RMM:   3    -0.413175782891E+03    0.42208E-02   -0.28530E-02  4978   0.627E-02    0.174E-01
RMM:   4    -0.413206771050E+03   -0.30988E-01   -0.36729E-02  5111   0.160E-01    0.744E-01
RMM:   5    -0.413174106591E+03    0.32664E-01   -0.15259E-02  4779   0.123E-01    0.521E-02
RMM:   6    -0.413174321171E+03   -0.21458E-03   -0.27979E-03  5745   0.509E-02    0.374E-02
RMM:   7    -0.413174318099E+03    0.30724E-05   -0.46955E-04  5591   0.207E-02    0.239E-02
RMM:   8    -0.413174307143E+03    0.10956E-04   -0.67577E-05  5184   0.945E-03    0.112E-02
RMM:   9    -0.413174301137E+03    0.60053E-05   -0.13032E-05  3886   0.417E-03    0.758E-03
RMM:  10    -0.413174296994E+03    0.41437E-05   -0.23067E-06  2583   0.247E-03    0.441E-03
RMM:  11    -0.413174294435E+03    0.25581E-05   -0.10999E-06  2503   0.171E-03    0.260E-03
RMM:  12    -0.413174289064E+03    0.53717E-05   -0.17630E-06  2564   0.202E-03    0.123E-03
RMM:  13    -0.413174285318E+03    0.37456E-05   -0.72607E-07  2413   0.143E-03    0.993E-04
RMM:  14    -0.413174285207E+03    0.11097E-06   -0.28215E-07  2041   0.931E-04
   23 T=    63. E= -.41286669E+03 F= -.41317429E+03 E0= -.41315239E+03  EK= 0.30760E+00 SP= 0.00E+00 SK= 0.00E+00
       N       E                     dE             d eps       ncg     rms          rms(c)
RMM:   1    -0.413180371526E+03   -0.60862E-02   -0.77245E+00  4295   0.652E-01    0.899E-01
RMM:   2    -0.413181926590E+03   -0.15551E-02   -0.97482E-02  4289   0.866E-02    0.663E-01
RMM:   3    -0.413177162643E+03    0.47639E-02   -0.30715E-02  4908   0.640E-02    0.173E-01
RMM:   4    -0.413204221627E+03   -0.27059E-01   -0.31069E-02  5117   0.148E-01    0.697E-01
RMM:   5    -0.413175710127E+03    0.28512E-01   -0.13515E-02  4784   0.116E-01    0.489E-02
RMM:   6    -0.413175907005E+03   -0.19688E-03   -0.24802E-03  5809   0.470E-02    0.336E-02
RMM:   7    -0.413175913648E+03   -0.66436E-05   -0.37821E-04  5614   0.191E-02    0.215E-02
RMM:   8    -0.413175904720E+03    0.89281E-05   -0.64244E-05  4989   0.898E-03    0.109E-02
RMM:   9    -0.413175900733E+03    0.39872E-05   -0.12446E-05  3882   0.412E-03    0.766E-03
RMM:  10    -0.413175899449E+03    0.12834E-05   -0.20727E-06  2559   0.238E-03    0.446E-03
RMM:  11    -0.413175898424E+03    0.10252E-05   -0.12913E-06  2512   0.183E-03    0.242E-03
RMM:  12    -0.413175896439E+03    0.19857E-05   -0.16217E-06  2533   0.197E-03    0.117E-03
RMM:  13    -0.413175894964E+03    0.14751E-05   -0.54544E-07  2353   0.131E-03    0.783E-04
RMM:  14    -0.413175894656E+03    0.30738E-06   -0.23842E-07  1906   0.858E-04
   24 T=    63. E= -.41286699E+03 F= -.41317589E+03 E0= -.41315405E+03  EK= 0.30891E+00 SP= 0.00E+00 SK= 0.00E+00
       N       E                     dE             d eps       ncg     rms          rms(c)
RMM:   1    -0.413181828566E+03   -0.59336E-02   -0.77802E+00  4295   0.663E-01    0.913E-01
RMM:   2    -0.413182926746E+03   -0.10982E-02   -0.98535E-02  4290   0.886E-02    0.669E-01
RMM:   3    -0.413178372568E+03    0.45542E-02   -0.30569E-02  4929   0.668E-02    0.180E-01
RMM:   4    -0.413208029523E+03   -0.29657E-01   -0.34660E-02  5111   0.156E-01    0.729E-01
RMM:   5    -0.413176704893E+03    0.31325E-01   -0.14625E-02  4785   0.121E-01    0.508E-02
RMM:   6    -0.413176918201E+03   -0.21331E-03   -0.27284E-03  5786   0.497E-02    0.358E-02
RMM:   7    -0.413176914585E+03    0.36154E-05   -0.44343E-04  5600   0.202E-02    0.232E-02
RMM:   8    -0.413176905461E+03    0.91239E-05   -0.65159E-05  5096   0.919E-03    0.110E-02
RMM:   9    -0.413176900980E+03    0.44811E-05   -0.12757E-05  3866   0.411E-03    0.764E-03
RMM:  10    -0.413176898592E+03    0.23886E-05   -0.21815E-06  2573   0.239E-03    0.449E-03
RMM:  11    -0.413176896888E+03    0.17035E-05   -0.11469E-06  2498   0.174E-03    0.257E-03
RMM:  12    -0.413176893452E+03    0.34363E-05   -0.17185E-06  2547   0.201E-03    0.120E-03
RMM:  13    -0.413176890790E+03    0.26623E-05   -0.64310E-07  2406   0.138E-03    0.971E-04
RMM:  14    -0.413176890696E+03    0.93103E-07   -0.26127E-07  1985   0.896E-04
   25 T=    63. E= -.41286676E+03 F= -.41317689E+03 E0= -.41315509E+03  EK= 0.31013E+00 SP= 0.00E+00 SK= 0.00E+00
       N       E                     dE             d eps       ncg     rms          rms(c)
RMM:   1    -0.413186974966E+03   -0.10084E-01   -0.77983E+00  4299   0.693E-01    0.920E-01
RMM:   2    -0.413184033652E+03    0.29413E-02   -0.10701E-01  4286   0.921E-02    0.666E-01
RMM:   3    -0.413179246312E+03    0.47873E-02   -0.27074E-02  4887   0.614E-02    0.143E-01
RMM:   4    -0.413209637085E+03   -0.30391E-01   -0.33909E-02  5118   0.154E-01    0.732E-01
RMM:   5    -0.413178089219E+03    0.31548E-01   -0.15066E-02  4784   0.121E-01    0.511E-02
RMM:   6    -0.413178280809E+03   -0.19159E-03   -0.27737E-03  5802   0.500E-02    0.363E-02
RMM:   7    -0.413178275402E+03    0.54072E-05   -0.43394E-04  5610   0.203E-02    0.231E-02
RMM:   8    -0.413178261974E+03    0.13428E-04   -0.70821E-05  5084   0.940E-03    0.117E-02
RMM:   9    -0.413178254970E+03    0.70033E-05   -0.13725E-05  3999   0.428E-03    0.823E-03
RMM:  10    -0.413178249561E+03    0.54096E-05   -0.23135E-06  2592   0.245E-03    0.485E-03
RMM:  11    -0.413178245625E+03    0.39359E-05   -0.13195E-06  2519   0.184E-03    0.278E-03
RMM:  12    -0.413178238251E+03    0.73732E-05   -0.19207E-06  2575   0.212E-03    0.124E-03
RMM:  13    -0.413178233420E+03    0.48315E-05   -0.68021E-07  2401   0.142E-03    0.971E-04
RMM:  14    -0.413178233583E+03   -0.16269E-06   -0.28068E-07  2014   0.919E-04
   26 T=    63. E= -.41286669E+03 F= -.41317823E+03 E0= -.41315649E+03  EK= 0.31155E+00 SP= 0.00E+00 SK= 0.00E+00
       N       E                     dE             d eps       ncg     rms          rms(c)
RMM:   1    -0.413184640529E+03   -0.64071E-02   -0.77665E+00  4296   0.661E-01    0.904E-01
RMM:   2    -0.413185763097E+03   -0.11226E-02   -0.98398E-02  4295   0.894E-02    0.664E-01
RMM:   3    -0.413181292874E+03    0.44702E-02   -0.30128E-02  4950   0.603E-02    0.166E-01
RMM:   4    -0.413208862620E+03   -0.27570E-01   -0.31465E-02  5119   0.149E-01    0.702E-01
RMM:   5    -0.413179974382E+03    0.28888E-01   -0.13773E-02  4780   0.117E-01    0.492E-02
RMM:   6    -0.413180138055E+03   -0.16367E-03   -0.25285E-03  5810   0.477E-02    0.338E-02
RMM:   7    -0.413180134475E+03    0.35801E-05   -0.38559E-04  5622   0.195E-02    0.217E-02
RMM:   8    -0.413180123781E+03    0.10694E-04   -0.66384E-05  5005   0.909E-03    0.111E-02
RMM:   9    -0.413180118460E+03    0.53217E-05   -0.12766E-05  3901   0.418E-03    0.781E-03
RMM:  10    -0.413180115539E+03    0.29207E-05   -0.21173E-06  2564   0.239E-03    0.454E-03
RMM:  11    -0.413180113344E+03    0.21954E-05   -0.12977E-06  2516   0.183E-03    0.253E-03
RMM:  12    -0.413180109362E+03    0.39820E-05   -0.16787E-06  2537   0.200E-03    0.117E-03
RMM:  13    -0.413180106584E+03    0.27772E-05   -0.57368E-07  2354   0.133E-03    0.820E-04
RMM:  14    -0.413180106448E+03    0.13593E-06   -0.25232E-07  1920   0.874E-04
   27 T=    64. E= -.41286694E+03 F= -.41318011E+03 E0= -.41315841E+03  EK= 0.31316E+00 SP= 0.00E+00 SK= 0.00E+00
       N       E                     dE             d eps       ncg     rms          rms(c)
RMM:   1    -0.413186064424E+03   -0.59578E-02   -0.78645E+00  4299   0.671E-01    0.914E-01
RMM:   2    -0.413186994151E+03   -0.92973E-03   -0.99873E-02  4292   0.895E-02    0.674E-01
RMM:   3    -0.413182425487E+03    0.45687E-02   -0.31598E-02  4947   0.628E-02    0.176E-01
RMM:   4    -0.413210408057E+03   -0.27983E-01   -0.32107E-02  5119   0.151E-01    0.708E-01
RMM:   5    -0.413180974115E+03    0.29434E-01   -0.13948E-02  4774   0.118E-01    0.496E-02
RMM:   6    -0.413181157170E+03   -0.18306E-03   -0.25826E-03  5810   0.483E-02    0.341E-02
RMM:   7    -0.413181158956E+03   -0.17861E-05   -0.39318E-04  5609   0.196E-02    0.219E-02
RMM:   8    -0.413181149603E+03    0.93536E-05   -0.66898E-05  5024   0.917E-03    0.112E-02
RMM:   9    -0.413181144912E+03    0.46903E-05   -0.12827E-05  3899   0.421E-03    0.782E-03
RMM:  10    -0.413181142921E+03    0.19908E-05   -0.21735E-06  2578   0.243E-03    0.452E-03
RMM:  11    -0.413181141421E+03    0.15005E-05   -0.12857E-06  2517   0.183E-03    0.252E-03
RMM:  12    -0.413181138430E+03    0.29911E-05   -0.17365E-06  2540   0.203E-03    0.119E-03
RMM:  13    -0.413181135985E+03    0.24450E-05   -0.59098E-07  2382   0.134E-03    0.874E-04
RMM:  14    -0.413181135919E+03    0.65491E-07   -0.25344E-07  1940   0.876E-04
   28 T=    64. E= -.41286658E+03 F= -.41318114E+03 E0= -.41315949E+03  EK= 0.31456E+00 SP= 0.00E+00 SK= 0.00E+00
       N       E                     dE             d eps       ncg     rms          rms(c)
RMM:   1    -0.413188782864E+03   -0.76469E-02   -0.78562E+00  4292   0.696E-01    0.930E-01
RMM:   2    -0.413189027874E+03   -0.24501E-03   -0.10099E-01  4283   0.946E-02    0.672E-01
RMM:   3    -0.413183915053E+03    0.51128E-02   -0.29031E-02  4827   0.600E-02    0.132E-01
RMM:   4    -0.413207237351E+03   -0.23322E-01   -0.25141E-02  5128   0.134E-01    0.644E-01
RMM:   5    -0.413183015762E+03    0.24222E-01   -0.11678E-02  4789   0.106E-01    0.478E-02
RMM:   6    -0.413183162655E+03   -0.14689E-03   -0.21048E-03  5837   0.436E-02    0.320E-02
RMM:   7    -0.413183162807E+03   -0.15178E-06   -0.26261E-04  5594   0.173E-02    0.174E-02
RMM:   8    -0.413183157147E+03    0.56596E-05   -0.54410E-05  4971   0.807E-03    0.109E-02
RMM:   9    -0.413183150962E+03    0.61856E-05   -0.10983E-05  3800   0.396E-03    0.778E-03
RMM:  10    -0.413183146118E+03    0.48440E-05   -0.21544E-06  2589   0.256E-03    0.433E-03
RMM:  11    -0.413183141573E+03    0.45442E-05   -0.14986E-06  2533   0.197E-03    0.230E-03
RMM:  12    -0.413183134659E+03    0.69144E-05   -0.15236E-06  2532   0.197E-03    0.107E-03
RMM:  13    -0.413183131317E+03    0.33416E-05   -0.51765E-07  2328   0.126E-03    0.682E-04
RMM:  14    -0.413183130584E+03    0.73337E-06   -0.23140E-07  1808   0.842E-04
   29 T=    64. E= -.41286682E+03 F= -.41318313E+03 E0= -.41316153E+03  EK= 0.31631E+00 SP= 0.00E+00 SK= 0.00E+00
       N       E                     dE             d eps       ncg     rms          rms(c)
RMM:   1    -0.413191568819E+03   -0.84375E-02   -0.78493E+00  4292   0.713E-01    0.913E-01
RMM:   2    -0.413191203434E+03    0.36539E-03   -0.10005E-01  4271   0.996E-02    0.668E-01
RMM:   3    -0.413185611485E+03    0.55919E-02   -0.30030E-02  4704   0.620E-02    0.131E-01
RMM:   4    -0.413202550349E+03   -0.16939E-01   -0.18047E-02  5135   0.115E-01    0.554E-01
RMM:   5    -0.413184837435E+03    0.17713E-01   -0.86232E-03  4803   0.909E-02    0.449E-02
RMM:   6    -0.413184954178E+03   -0.11674E-03   -0.15902E-03  5854   0.374E-02    0.293E-02
RMM:   7    -0.413184957077E+03   -0.28985E-05   -0.17476E-04  5477   0.148E-02    0.141E-02
RMM:   8    -0.413184952930E+03    0.41462E-05   -0.28284E-05  4516   0.576E-03    0.868E-03
RMM:   9    -0.413184949572E+03    0.33582E-05   -0.71668E-06  3312   0.314E-03    0.617E-03
RMM:  10    -0.413184947315E+03    0.22568E-05   -0.17153E-06  2540   0.222E-03    0.364E-03
RMM:  11    -0.413184943682E+03    0.36337E-05   -0.16046E-06  2543   0.198E-03    0.191E-03
RMM:  12    -0.413184939152E+03    0.45296E-05   -0.11268E-06  2482   0.172E-03    0.115E-03
RMM:  13    -0.413184937375E+03    0.17772E-05   -0.38105E-07  2270   0.111E-03    0.632E-04
RMM:  14    -0.413184936518E+03    0.85717E-06   -0.16862E-07  1596   0.752E-04
   30 T=    65. E= -.41286691E+03 F= -.41318494E+03 E0= -.41316339E+03  EK= 0.31802E+00 SP= 0.00E+00 SK= 0.00E+00
       N       E                     dE             d eps       ncg     rms          rms(c)
RMM:   1    -0.413193515248E+03   -0.85779E-02   -0.79690E+00  4295   0.713E-01    0.918E-01
RMM:   2    -0.413193299691E+03    0.21556E-03   -0.10354E-01  4276   0.104E-01    0.679E-01
RMM:   3    -0.413187260095E+03    0.60396E-02   -0.32035E-02  4605   0.689E-02    0.141E-01
RMM:   4    -0.413200939999E+03   -0.13680E-01   -0.14595E-02  5133   0.105E-01    0.501E-01
RMM:   5    -0.413186510584E+03    0.14429E-01   -0.70290E-03  4801   0.821E-02    0.432E-02
RMM:   6    -0.413186597185E+03   -0.86602E-04   -0.13093E-03  5843   0.339E-02    0.282E-02
RMM:   7    -0.413186608793E+03   -0.11608E-04   -0.19317E-04  5472   0.150E-02    0.160E-02
RMM:   8    -0.413186598340E+03    0.10453E-04   -0.31768E-05  4730   0.641E-03    0.848E-03
RMM:   9    -0.413186597931E+03    0.40895E-06   -0.66439E-06  3200   0.323E-03
   31 T=    65. E= -.41286683E+03 F= -.41318660E+03 E0= -.41316510E+03  EK= 0.31977E+00 SP= 0.00E+00 SK= 0.00E+00
       N       E                     dE             d eps       ncg     rms          rms(c)
RMM:   1    -0.413196063720E+03   -0.94654E-02   -0.79591E+00  4296   0.733E-01    0.937E-01
RMM:   2    -0.413195665628E+03    0.39809E-03   -0.10351E-01  4321   0.110E-01    0.679E-01
RMM:   3    -0.413194320612E+03    0.13450E-02   -0.32707E-02  5032   0.977E-02    0.305E-01
RMM:   4    -0.413217632217E+03   -0.23312E-01   -0.41101E-02  5064   0.173E-01    0.695E-01
RMM:   5    -0.413189095043E+03    0.28537E-01   -0.11721E-02  4701   0.114E-01    0.547E-02
RMM:   6    -0.413189244955E+03   -0.14991E-03   -0.24440E-03  5712   0.475E-02    0.364E-02
RMM:   7    -0.413189252461E+03   -0.75062E-05   -0.42946E-04  5601   0.197E-02    0.236E-02
RMM:   8    -0.413189246615E+03    0.58462E-05   -0.70742E-05  5134   0.999E-03    0.105E-02
RMM:   9    -0.413189239364E+03    0.72509E-05   -0.11063E-05  3646   0.420E-03    0.579E-03
RMM:  10    -0.413189233957E+03    0.54072E-05   -0.22415E-06  2594   0.242E-03    0.361E-03
RMM:  11    -0.413189229146E+03    0.48113E-05   -0.11191E-06  2502   0.174E-03    0.193E-03
RMM:  12    -0.413189221010E+03    0.81361E-05   -0.11612E-06  2499   0.168E-03    0.766E-04
RMM:  13    -0.413189217156E+03    0.38540E-05   -0.51812E-07  2325   0.120E-03    0.522E-04
RMM:  14    -0.413189215268E+03    0.18877E-05   -0.25687E-07  1875   0.863E-04    0.383E-04
RMM:  15    -0.413189210569E+03    0.46985E-05   -0.16718E-07  1557   0.752E-04    0.207E-04
RMM:  16    -0.413189204752E+03    0.58174E-05   -0.13177E-07  1401   0.692E-04    0.277E-04
RMM:  17    -0.413189200030E+03    0.47220E-05   -0.83951E-08  1045   0.612E-04    0.199E-04
RMM:  18    -0.413189195631E+03    0.43988E-05   -0.75929E-08  1139   0.616E-04    0.619E-05
RMM:  19    -0.413189193936E+03    0.16956E-05   -0.45460E-08   981   0.577E-04    0.527E-05
RMM:  20    -0.413189193249E+03    0.68705E-06   -0.23768E-08   799   0.545E-04
   32 T=    66. E= -.41286723E+03 F= -.41318919E+03 E0= -.41316774E+03  EK= 0.32196E+00 SP= 0.00E+00 SK= 0.00E+00
       N       E                     dE             d eps       ncg     rms          rms(c)
RMM:   1    -0.413200842139E+03   -0.11648E-01   -0.79679E+00  4299   0.760E-01    0.925E-01
RMM:   2    -0.413197123231E+03    0.37189E-02   -0.10669E-01  4281   0.112E-01    0.674E-01
RMM:   3    -0.413191580390E+03    0.55428E-02   -0.29381E-02  4579   0.709E-02    0.111E-01
RMM:   4    -0.413205230996E+03   -0.13651E-01   -0.14151E-02  5136   0.101E-01    0.498E-01
RMM:   5    -0.413191011369E+03    0.14220E-01   -0.70955E-03  4811   0.817E-02    0.441E-02
RMM:   6    -0.413191110761E+03   -0.99392E-04   -0.13346E-03  5825   0.344E-02    0.294E-02
RMM:   7    -0.413191119235E+03   -0.84740E-05   -0.22139E-04  5446   0.157E-02    0.176E-02
RMM:   8    -0.413191104551E+03    0.14683E-04   -0.34234E-05  4749   0.672E-03    0.884E-03
RMM:   9    -0.413191102765E+03    0.17862E-05   -0.68614E-06  3191   0.321E-03    0.640E-03
RMM:  10    -0.413191099040E+03    0.37247E-05   -0.16608E-06  2513   0.221E-03    0.344E-03
RMM:  11    -0.413191095543E+03    0.34973E-05   -0.11555E-06  2506   0.175E-03    0.179E-03
RMM:  12    -0.413191091383E+03    0.41598E-05   -0.85077E-07  2453   0.149E-03    0.988E-04
RMM:  13    -0.413191089410E+03    0.19729E-05   -0.34178E-07  2145   0.102E-03    0.467E-04
RMM:  14    -0.413191087929E+03    0.14813E-05   -0.17123E-07  1562   0.749E-04    0.307E-04
RMM:  15    -0.413191084162E+03    0.37676E-05   -0.13179E-07  1517   0.713E-04    0.167E-04
RMM:  16    -0.413191080944E+03    0.32176E-05   -0.73923E-08  1094   0.627E-04    0.151E-04
RMM:  17    -0.413191078227E+03    0.27171E-05   -0.46595E-08   911   0.584E-04    0.983E-05
RMM:  18    -0.413191073672E+03    0.45547E-05   -0.57290E-08  1037   0.606E-04    0.406E-05
RMM:  19    -0.413191072801E+03    0.87157E-06   -0.20602E-08   758   0.553E-04
   33 T=    66. E= -.41286704E+03 F= -.41319107E+03 E0= -.41316967E+03  EK= 0.32404E+00 SP= 0.00E+00 SK= 0.00E+00
       N       E                     dE             d eps       ncg     rms          rms(c)
RMM:   1    -0.413200376385E+03   -0.93027E-02   -0.80573E+00  4305   0.746E-01    0.923E-01
RMM:   2    -0.413199640509E+03    0.73588E-03   -0.10630E-01  4273   0.116E-01    0.683E-01
RMM:   3    -0.413194120162E+03    0.55203E-02   -0.32657E-02  4532   0.765E-02    0.137E-01
RMM:   4    -0.413205352949E+03   -0.11233E-01   -0.11992E-02  5134   0.938E-02    0.457E-01
RMM:   5    -0.413193414708E+03    0.11938E-01   -0.59585E-03  4817   0.751E-02    0.426E-02
RMM:   6    -0.413193499059E+03   -0.84351E-04   -0.11642E-03  5819   0.318E-02    0.284E-02
RMM:   7    -0.413193509262E+03   -0.10203E-04   -0.22840E-04  5409   0.157E-02    0.183E-02
RMM:   8    -0.413193494451E+03    0.14812E-04   -0.30497E-05  4682   0.664E-03    0.836E-03
RMM:   9    -0.413193494201E+03    0.24951E-06   -0.58740E-06  3049   0.303E-03
   34 T=    66. E= -.41286706E+03 F= -.41319349E+03 E0= -.41317214E+03  EK= 0.32643E+00 SP= 0.00E+00 SK= 0.00E+00
       N       E                     dE             d eps       ncg     rms          rms(c)
RMM:   1    -0.413202192685E+03   -0.86982E-02   -0.80703E+00  4303   0.760E-01    0.943E-01
RMM:   2    -0.413202118302E+03    0.74383E-04   -0.10584E-01  4299   0.120E-01    0.687E-01
RMM:   3    -0.413199495976E+03    0.26223E-02   -0.32950E-02  4935   0.994E-02    0.250E-01
RMM:   4    -0.413230624919E+03   -0.31129E-01   -0.43062E-02  5075   0.176E-01    0.764E-01
RMM:   5    -0.413196026796E+03    0.34598E-01   -0.15321E-02  4754   0.127E-01    0.542E-02
RMM:   6    -0.413196219166E+03   -0.19237E-03   -0.29962E-03  5783   0.521E-02    0.373E-02
RMM:   7    -0.413196225481E+03   -0.63152E-05   -0.44893E-04  5589   0.205E-02    0.240E-02
RMM:   8    -0.413196219723E+03    0.57583E-05   -0.84799E-05  5186   0.103E-02    0.123E-02
RMM:   9    -0.413196211086E+03    0.86363E-05   -0.13448E-05  3961   0.455E-03    0.715E-03
RMM:  10    -0.413196205895E+03    0.51913E-05   -0.27696E-06  2662   0.263E-03    0.424E-03
RMM:  11    -0.413196202233E+03    0.36623E-05   -0.11508E-06  2497   0.180E-03    0.244E-03
RMM:  12    -0.413196194693E+03    0.75397E-05   -0.15874E-06  2520   0.199E-03    0.112E-03
RMM:  13    -0.413196189780E+03    0.49125E-05   -0.70168E-07  2411   0.141E-03    0.817E-04
RMM:  14    -0.413196188806E+03    0.97437E-06   -0.29717E-07  2068   0.946E-04
   35 T=    67. E= -.41286715E+03 F= -.41319619E+03 E0= -.41317488E+03  EK= 0.32904E+00 SP= 0.00E+00 SK= 0.00E+00
       N       E                     dE             d eps       ncg     rms          rms(c)
RMM:   1    -0.413207416436E+03   -0.11227E-01   -0.80928E+00  4305   0.823E-01    0.940E-01
RMM:   2    -0.413204133114E+03    0.32833E-02   -0.11258E-01  4268   0.132E-01    0.684E-01
RMM:   3    -0.413198508923E+03    0.56242E-02   -0.29588E-02  4339   0.805E-02    0.846E-02
RMM:   4    -0.413199160035E+03   -0.65111E-03   -0.11053E-03  5156   0.302E-02    0.132E-01
RMM:   5    -0.413198271304E+03    0.88873E-03   -0.52121E-04  4794   0.226E-02    0.421E-02
RMM:   6    -0.413198333108E+03   -0.61804E-04   -0.52895E-04  5340   0.225E-02    0.350E-02
RMM:   7    -0.413198287088E+03    0.46020E-04   -0.20707E-04  4846   0.161E-02    0.189E-02
RMM:   8    -0.413198280660E+03    0.64284E-05   -0.38606E-05  4809   0.596E-03    0.580E-03
RMM:   9    -0.413198278511E+03    0.21483E-05   -0.39776E-06  2578   0.231E-03    0.243E-03
RMM:  10    -0.413198272179E+03    0.63320E-05   -0.85295E-07  2400   0.161E-03    0.123E-03
RMM:  11    -0.413198266914E+03    0.52652E-05   -0.35824E-07  2155   0.102E-03    0.626E-04
RMM:  12    -0.413198261180E+03    0.57346E-05   -0.20592E-07  1591   0.802E-04    0.312E-04
RMM:  13    -0.413198255366E+03    0.58139E-05   -0.13238E-07  1289   0.704E-04    0.245E-04
RMM:  14    -0.413198250419E+03    0.49471E-05   -0.83492E-08  1048   0.637E-04    0.136E-04
RMM:  15    -0.413198241175E+03    0.92435E-05   -0.11203E-07  1327   0.680E-04    0.114E-04
RMM:  16    -0.413198236700E+03    0.44753E-05   -0.52761E-08  1028   0.587E-04    0.998E-05
RMM:  17    -0.413198234778E+03    0.19214E-05   -0.23992E-08   775   0.531E-04    0.560E-05
RMM:  18    -0.413198233763E+03    0.10152E-05   -0.12498E-08   643   0.514E-04    0.395E-05
RMM:  19    -0.413198233290E+03    0.47317E-06   -0.95172E-09   600   0.509E-04
   36 T=    67. E= -.41286673E+03 F= -.41319823E+03 E0= -.41317697E+03  EK= 0.33151E+00 SP= 0.00E+00 SK= 0.00E+00
       N       E                     dE             d eps       ncg     rms          rms(c)
RMM:   1    -0.413207177611E+03   -0.89438E-02   -0.81524E+00  4310   0.806E-01    0.932E-01
RMM:   2    -0.413207546131E+03   -0.36852E-03   -0.10926E-01  4252   0.128E-01    0.689E-01
RMM:   3    -0.413201603410E+03    0.59427E-02   -0.33001E-02  4383   0.858E-02    0.121E-01
RMM:   4    -0.413204770978E+03   -0.31676E-02   -0.38867E-03  5141   0.560E-02    0.257E-01
RMM:   5    -0.413201136103E+03    0.36349E-02   -0.18270E-03  4794   0.425E-02    0.411E-02
RMM:   6    -0.413201190937E+03   -0.54834E-04   -0.64492E-04  5525   0.253E-02    0.327E-02
RMM:   7    -0.413201177259E+03    0.13679E-04   -0.24048E-04  5060   0.170E-02    0.189E-02
RMM:   8    -0.413201169355E+03    0.79036E-05   -0.30592E-05  4837   0.626E-03    0.768E-03
RMM:   9    -0.413201168781E+03    0.57405E-06   -0.43849E-06  2726   0.250E-03
   37 T=    68. E= -.41286689E+03 F= -.41320117E+03 E0= -.41317995E+03  EK= 0.33428E+00 SP= 0.00E+00 SK= 0.00E+00
       N       E                     dE             d eps       ncg     rms          rms(c)
RMM:   1    -0.413216752593E+03   -0.15583E-01   -0.82857E+00  4310   0.880E-01    0.946E-01
RMM:   2    -0.413210452194E+03    0.63004E-02   -0.12532E-01  4266   0.127E-01    0.698E-01
RMM:   3    -0.413205034660E+03    0.54175E-02   -0.29813E-02  4825   0.807E-02    0.159E-01
RMM:   4    -0.413242318981E+03   -0.37284E-01   -0.41515E-02  5123   0.171E-01    0.810E-01
RMM:   5    -0.413203623964E+03    0.38695E-01   -0.18616E-02  4792   0.135E-01    0.543E-02
RMM:   6    -0.413203725804E+03   -0.10184E-03   -0.32489E-03  5816   0.539E-02    0.356E-02
RMM:   7    -0.413203745954E+03   -0.20150E-04   -0.38035E-04  5610   0.190E-02    0.192E-02
RMM:   8    -0.413203740972E+03    0.49819E-05   -0.45248E-05  4672   0.709E-03    0.964E-03
RMM:   9    -0.413203737668E+03    0.33041E-05   -0.99065E-06  3346   0.366E-03    0.559E-03
RMM:  10    -0.413203734607E+03    0.30602E-05   -0.21864E-06  2586   0.221E-03    0.376E-03
RMM:  11    -0.413203730513E+03    0.40946E-05   -0.16479E-06  2503   0.209E-03    0.215E-03
RMM:  12    -0.413203723552E+03    0.69611E-05   -0.15302E-06  2518   0.197E-03    0.113E-03
RMM:  13    -0.413203721142E+03    0.24095E-05   -0.51133E-07  2365   0.127E-03    0.778E-04
RMM:  14    -0.413203720294E+03    0.84858E-06   -0.23034E-07  1895   0.850E-04
   38 T=    69. E= -.41286677E+03 F= -.41320372E+03 E0= -.41318254E+03  EK= 0.33695E+00 SP= 0.00E+00 SK= 0.00E+00
       N       E                     dE             d eps       ncg     rms          rms(c)
RMM:   1    -0.413220720820E+03   -0.17000E-01   -0.82922E+00  4312   0.932E-01    0.956E-01
RMM:   2    -0.413213065010E+03    0.76558E-02   -0.12334E-01  4253   0.125E-01    0.694E-01
RMM:   3    -0.413207032540E+03    0.60325E-02   -0.28582E-02  4783   0.707E-02    0.119E-01
RMM:   4    -0.413234880061E+03   -0.27848E-01   -0.29505E-02  5132   0.144E-01    0.701E-01
RMM:   5    -0.413206274162E+03    0.28606E-01   -0.14133E-02  4801   0.116E-01    0.511E-02
RMM:   6    -0.413206344557E+03   -0.70395E-04   -0.24556E-03  5810   0.473E-02    0.347E-02
RMM:   7    -0.413206369585E+03   -0.25028E-04   -0.36606E-04  5594   0.188E-02    0.205E-02
RMM:   8    -0.413206357466E+03    0.12119E-04   -0.63606E-05  5105   0.854E-03    0.113E-02
RMM:   9    -0.413206354549E+03    0.29168E-05   -0.15599E-05  4212   0.461E-03    0.746E-03
RMM:  10    -0.413206347976E+03    0.65734E-05   -0.25761E-06  2647   0.264E-03    0.412E-03
RMM:  11    -0.413206344029E+03    0.39465E-05   -0.11137E-06  2495   0.177E-03    0.249E-03
RMM:  12    -0.413206334963E+03    0.90667E-05   -0.16238E-06  2530   0.203E-03    0.134E-03
RMM:  13    -0.413206330089E+03    0.48734E-05   -0.60992E-07  2379   0.137E-03    0.848E-04
RMM:  14    -0.413206329050E+03    0.10388E-05   -0.25780E-07  2015   0.906E-04    0.513E-04
RMM:  15    -0.413206325199E+03    0.38517E-05   -0.14155E-07  1550   0.733E-04    0.274E-04
RMM:  16    -0.413206319438E+03    0.57610E-05   -0.12843E-07  1639   0.720E-04    0.382E-04
RMM:  17    -0.413206316228E+03    0.32092E-05   -0.59134E-08  1065   0.595E-04    0.329E-04
RMM:  18    -0.413206309842E+03    0.63864E-05   -0.61848E-08  1151   0.609E-04    0.203E-04
RMM:  19    -0.413206308329E+03    0.15129E-05   -0.28630E-08   852   0.549E-04    0.689E-05
RMM:  20    -0.413206306538E+03    0.17915E-05   -0.32676E-08  1005   0.573E-04    0.126E-04
RMM:  21    -0.413206306490E+03    0.47308E-07   -0.10589E-08   666   0.517E-04
   39 T=    69. E= -.41286669E+03 F= -.41320631E+03 E0= -.41318517E+03  EK= 0.33962E+00 SP= 0.00E+00 SK= 0.00E+00
       N       E                     dE             d eps       ncg     rms          rms(c)
RMM:   1    -0.413221437832E+03   -0.15131E-01   -0.83135E+00  4312   0.941E-01    0.939E-01
RMM:   2    -0.413216503367E+03    0.49345E-02   -0.12486E-01  4257   0.127E-01    0.696E-01
RMM:   3    -0.413211125834E+03    0.53775E-02   -0.30624E-02  4941   0.781E-02    0.177E-01
RMM:   4    -0.413250386260E+03   -0.39260E-01   -0.45518E-02  5124   0.179E-01    0.833E-01
RMM:   5    -0.413209366133E+03    0.41020E-01   -0.19515E-02  4784   0.138E-01    0.556E-02
RMM:   6    -0.413209485758E+03   -0.11963E-03   -0.33950E-03  5818   0.549E-02    0.356E-02
RMM:   7    -0.413209510593E+03   -0.24835E-04   -0.41188E-04  5681   0.194E-02    0.200E-02
RMM:   8    -0.413209513482E+03   -0.28891E-05   -0.73318E-05  5109   0.865E-03    0.119E-02
RMM:   9    -0.413209507563E+03    0.59190E-05   -0.20487E-05  4481   0.496E-03    0.753E-03
RMM:  10    -0.413209505854E+03    0.17089E-05   -0.35732E-06  2736   0.287E-03    0.437E-03
RMM:  11    -0.413209504213E+03    0.16410E-05   -0.14283E-06  2503   0.198E-03    0.266E-03
RMM:  12    -0.413209500116E+03    0.40979E-05   -0.16140E-06  2524   0.204E-03    0.114E-03
RMM:  13    -0.413209497130E+03    0.29857E-05   -0.69933E-07  2419   0.143E-03    0.787E-04
RMM:  14    -0.413209496434E+03    0.69605E-06   -0.29081E-07  2084   0.947E-04
   40 T=    70. E= -.41286705E+03 F= -.41320950E+03 E0= -.41318839E+03  EK= 0.34244E+00 SP= 0.00E+00 SK= 0.00E+00
       N       E                     dE             d eps       ncg     rms          rms(c)
RMM:   1    -0.413221559275E+03   -0.12062E-01   -0.83922E+00  4315   0.944E-01    0.956E-01
RMM:   2    -0.413218855388E+03    0.27039E-02   -0.11704E-01  4256   0.124E-01    0.705E-01
RMM:   3    -0.413213255151E+03    0.56002E-02   -0.33555E-02  4904   0.771E-02    0.175E-01
RMM:   4    -0.413248043694E+03   -0.34789E-01   -0.39750E-02  5126   0.167E-01    0.787E-01
RMM:   5    -0.413211651586E+03    0.36392E-01   -0.17404E-02  4796   0.131E-01    0.540E-02
RMM:   6    -0.413211765292E+03   -0.11371E-03   -0.29927E-03  5814   0.515E-02    0.339E-02
RMM:   7    -0.413211793967E+03   -0.28675E-04   -0.38418E-04  5674   0.186E-02    0.191E-02
RMM:   8    -0.413211787393E+03    0.65738E-05   -0.58469E-05  5018   0.799E-03    0.103E-02
RMM:   9    -0.413211787422E+03   -0.28736E-07   -0.20954E-05  4526   0.488E-03    0.752E-03
RMM:  10    -0.413211782809E+03    0.46127E-05   -0.29887E-06  2675   0.274E-03    0.421E-03
RMM:  11    -0.413211780547E+03    0.22624E-05   -0.13041E-06  2500   0.187E-03    0.256E-03
RMM:  12    -0.413211774748E+03    0.57985E-05   -0.17306E-06  2534   0.206E-03    0.128E-03
RMM:  13    -0.413211771485E+03    0.32631E-05   -0.65105E-07  2404   0.140E-03    0.848E-04
RMM:  14    -0.413211770749E+03    0.73631E-06   -0.25784E-07  1977   0.906E-04
   41 T=    70. E= -.41286690E+03 F= -.41321177E+03 E0= -.41319070E+03  EK= 0.34487E+00 SP= 0.00E+00 SK= 0.00E+00
       N       E                     dE             d eps       ncg     rms          rms(c)
RMM:   1    -0.413232123223E+03   -0.20352E-01   -0.84504E+00  4312   0.106E+00    0.971E-01
RMM:   2    -0.413221348656E+03    0.10775E-01   -0.12567E-01  4283   0.130E-01    0.703E-01
RMM:   3    -0.413216360391E+03    0.49883E-02   -0.30456E-02  5000   0.767E-02    0.190E-01
RMM:   4    -0.413257235325E+03   -0.40875E-01   -0.49219E-02  5122   0.186E-01    0.851E-01
RMM:   5    -0.413214274529E+03    0.42961E-01   -0.20094E-02  4784   0.141E-01    0.580E-02
RMM:   6    -0.413214410789E+03   -0.13626E-03   -0.35237E-03  5803   0.556E-02    0.364E-02
RMM:   7    -0.413214430968E+03   -0.20179E-04   -0.42106E-04  5688   0.195E-02    0.202E-02
RMM:   8    -0.413214429867E+03    0.11006E-05   -0.71988E-05  5127   0.857E-03    0.118E-02
RMM:   9    -0.413214421861E+03    0.80062E-05   -0.21907E-05  4537   0.505E-03    0.747E-03
RMM:  10    -0.413214416859E+03    0.50019E-05   -0.39847E-06  2798   0.296E-03    0.440E-03
RMM:  11    -0.413214412875E+03    0.39845E-05   -0.14254E-06  2497   0.202E-03    0.268E-03
RMM:  12    -0.413214403716E+03    0.91581E-05   -0.14790E-06  2507   0.200E-03    0.112E-03
RMM:  13    -0.413214397962E+03    0.57545E-05   -0.63583E-07  2417   0.139E-03    0.765E-04
RMM:  14    -0.413214396990E+03    0.97157E-06   -0.27659E-07  2066   0.931E-04
   42 T=    71. E= -.41286718E+03 F= -.41321440E+03 E0= -.41319336E+03  EK= 0.34722E+00 SP= 0.00E+00 SK= 0.00E+00
       N       E                     dE             d eps       ncg     rms          rms(c)
RMM:   1    -0.413228666517E+03   -0.14269E-01   -0.83817E+00  4316   0.108E+00    0.952E-01
RMM:   2    -0.413223652409E+03    0.50141E-02   -0.12444E-01  4322   0.131E-01    0.701E-01
RMM:   3    -0.413219119559E+03    0.45328E-02   -0.32209E-02  5011   0.821E-02    0.219E-01
RMM:   4    -0.413259122578E+03   -0.40003E-01   -0.50811E-02  5117   0.190E-01    0.848E-01
RMM:   5    -0.413216380085E+03    0.42742E-01   -0.19536E-02  4768   0.141E-01    0.582E-02
RMM:   6    -0.413216511062E+03   -0.13098E-03   -0.35028E-03  5784   0.553E-02    0.354E-02
RMM:   7    -0.413216531195E+03   -0.20133E-04   -0.42416E-04  5736   0.195E-02    0.203E-02
RMM:   8    -0.413216534741E+03   -0.35459E-05   -0.89466E-05  5183   0.952E-03    0.128E-02
RMM:   9    -0.413216524805E+03    0.99355E-05   -0.22502E-05  4551   0.536E-03    0.705E-03
RMM:  10    -0.413216520950E+03    0.38553E-05   -0.38263E-06  2757   0.291E-03    0.425E-03
RMM:  11    -0.413216517751E+03    0.31993E-05   -0.13773E-06  2506   0.197E-03    0.253E-03
RMM:  12    -0.413216510463E+03    0.72875E-05   -0.13756E-06  2506   0.193E-03    0.111E-03
RMM:  13    -0.413216505502E+03    0.49609E-05   -0.61662E-07  2407   0.135E-03    0.686E-04
RMM:  14    -0.413216504360E+03    0.11422E-05   -0.27289E-07  2008   0.910E-04    0.423E-04
RMM:  15    -0.413216501876E+03    0.24839E-05   -0.13795E-07  1389   0.712E-04    0.249E-04
RMM:  16    -0.413216495509E+03    0.63671E-05   -0.13493E-07  1592   0.735E-04    0.319E-04
RMM:  17    -0.413216493377E+03    0.21319E-05   -0.58170E-08   973   0.593E-04    0.219E-04
RMM:  18    -0.413216487456E+03    0.59214E-05   -0.78811E-08  1368   0.648E-04    0.195E-04
RMM:  19    -0.413216486025E+03    0.14304E-05   -0.32165E-08   864   0.540E-04    0.792E-05
RMM:  20    -0.413216484103E+03    0.19224E-05   -0.33283E-08   975   0.564E-04    0.750E-05
RMM:  21    -0.413216483931E+03    0.17131E-06   -0.13611E-08   698   0.520E-04
   43 T=    71. E= -.41286733E+03 F= -.41321648E+03 E0= -.41319548E+03  EK= 0.34916E+00 SP= 0.00E+00 SK= 0.00E+00
       N       E                     dE             d eps       ncg     rms          rms(c)
RMM:   1    -0.413229295740E+03   -0.12812E-01   -0.84772E+00  4316   0.110E+00    0.958E-01
RMM:   2    -0.413225135247E+03    0.41605E-02   -0.12542E-01  4337   0.142E-01    0.711E-01
RMM:   3    -0.413221645328E+03    0.34899E-02   -0.35124E-02  5030   0.930E-02    0.272E-01
RMM:   4    -0.413258058810E+03   -0.36413E-01   -0.52160E-02  5105   0.194E-01    0.827E-01
RMM:   5    -0.413217464614E+03    0.40594E-01   -0.17792E-02  4756   0.137E-01    0.579E-02
RMM:   6    -0.413217564866E+03   -0.10025E-03   -0.32664E-03  5775   0.534E-02    0.347E-02
RMM:   7    -0.413217581560E+03   -0.16695E-04   -0.41232E-04  5703   0.195E-02    0.213E-02
RMM:   8    -0.413217587397E+03   -0.58362E-05   -0.10804E-04  5200   0.106E-02    0.131E-02
RMM:   9    -0.413217578064E+03    0.93326E-05   -0.19710E-05  4426   0.545E-03    0.619E-03
RMM:  10    -0.413217576453E+03    0.16110E-05   -0.40101E-06  2823   0.279E-03    0.375E-03
RMM:  11    -0.413217574914E+03    0.15387E-05   -0.12741E-06  2509   0.188E-03    0.215E-03
RMM:  12    -0.413217571098E+03    0.38166E-05   -0.12068E-06  2496   0.177E-03    0.966E-04
RMM:  13    -0.413217568066E+03    0.30319E-05   -0.56524E-07  2355   0.125E-03    0.546E-04
RMM:  14    -0.413217567080E+03    0.98629E-06   -0.25476E-07  1886   0.866E-04
   44 T=    71. E= -.41286711E+03 F= -.41321757E+03 E0= -.41319658E+03  EK= 0.35046E+00 SP= 0.00E+00 SK= 0.00E+00
       N       E                     dE             d eps       ncg     rms          rms(c)
RMM:   1    -0.413236457728E+03   -0.18890E-01   -0.84781E+00  4314   0.122E+00    0.976E-01
RMM:   2    -0.413226143037E+03    0.10315E-01   -0.13162E-01  4339   0.150E-01    0.711E-01
RMM:   3    -0.413223992843E+03    0.21502E-02   -0.33049E-02  5061   0.979E-02    0.304E-01
RMM:   4    -0.413256151446E+03   -0.32159E-01   -0.51888E-02  5081   0.195E-01    0.794E-01
RMM:   5    -0.413218761229E+03    0.37390E-01   -0.15584E-02  4722   0.130E-01    0.596E-02
RMM:   6    -0.413218829825E+03   -0.68596E-04   -0.29707E-03  5733   0.513E-02    0.351E-02
RMM:   7    -0.413218846698E+03   -0.16873E-04   -0.42391E-04  5694   0.197E-02    0.225E-02
RMM:   8    -0.413218846890E+03   -0.19233E-06   -0.11910E-04  5190   0.114E-02    0.132E-02
RMM:   9    -0.413218834237E+03    0.12653E-04   -0.18213E-05  4354   0.552E-03    0.574E-03
RMM:  10    -0.413218829181E+03    0.50557E-05   -0.41534E-06  2837   0.273E-03    0.348E-03
RMM:  11    -0.413218824960E+03    0.42210E-05   -0.11632E-06  2493   0.184E-03    0.192E-03
RMM:  12    -0.413218817123E+03    0.78372E-05   -0.95398E-07  2468   0.163E-03    0.887E-04
RMM:  13    -0.413218811923E+03    0.52005E-05   -0.44273E-07  2279   0.115E-03    0.435E-04
RMM:  14    -0.413218809847E+03    0.20760E-05   -0.21992E-07  1775   0.824E-04    0.281E-04
RMM:  15    -0.413218804130E+03    0.57168E-05   -0.14180E-07  1426   0.728E-04    0.168E-04
RMM:  16    -0.413218800168E+03    0.39621E-05   -0.89253E-08  1194   0.657E-04    0.145E-04
RMM:  17    -0.413218796482E+03    0.36859E-05   -0.68946E-08  1174   0.632E-04    0.106E-04
RMM:  18    -0.413218792748E+03    0.37337E-05   -0.58778E-08  1235   0.618E-04    0.574E-05
RMM:  19    -0.413218789903E+03    0.28456E-05   -0.38735E-08  1047   0.579E-04    0.423E-05
RMM:  20    -0.413218789329E+03    0.57340E-06   -0.20434E-08   801   0.530E-04
   45 T=    72. E= -.41286739E+03 F= -.41321879E+03 E0= -.41319783E+03  EK= 0.35140E+00 SP= 0.00E+00 SK= 0.00E+00
       N       E                     dE             d eps       ncg     rms          rms(c)
RMM:   1    -0.413244625581E+03   -0.25836E-01   -0.84827E+00  4312   0.133E+00    0.957E-01
RMM:   2    -0.413225674986E+03    0.18951E-01   -0.14498E-01  4378   0.159E-01    0.706E-01
RMM:   3    -0.413225488331E+03    0.18665E-03   -0.31049E-02  5071   0.105E-01    0.359E-01
RMM:   4    -0.413252421495E+03   -0.26933E-01   -0.52529E-02  5069   0.197E-01    0.758E-01
RMM:   5    -0.413218335059E+03    0.34086E-01   -0.13346E-02  4700   0.124E-01    0.603E-02
RMM:   6    -0.413218370422E+03   -0.35363E-04   -0.26419E-03  5703   0.485E-02    0.343E-02
RMM:   7    -0.413218384020E+03   -0.13598E-04   -0.41073E-04  5684   0.195E-02    0.234E-02
RMM:   8    -0.413218382158E+03    0.18629E-05   -0.11684E-04  5124   0.116E-02    0.122E-02
RMM:   9    -0.413218372056E+03    0.10102E-04   -0.15400E-05  4208   0.545E-03    0.499E-03
RMM:  10    -0.413218368354E+03    0.37017E-05   -0.37256E-06  2790   0.255E-03    0.303E-03
RMM:  11    -0.413218364566E+03    0.37882E-05   -0.11657E-06  2495   0.178E-03    0.159E-03
RMM:  12    -0.413218358794E+03    0.57716E-05   -0.79133E-07  2442   0.147E-03    0.731E-04
RMM:  13    -0.413218355064E+03    0.37297E-05   -0.37883E-07  2097   0.105E-03    0.334E-04
RMM:  14    -0.413218352602E+03    0.24628E-05   -0.20201E-07  1593   0.795E-04    0.203E-04
RMM:  15    -0.413218347348E+03    0.52537E-05   -0.14960E-07  1368   0.733E-04    0.139E-04
RMM:  16    -0.413218345094E+03    0.22536E-05   -0.90341E-08  1157   0.660E-04    0.926E-05
RMM:  17    -0.413218341522E+03    0.35721E-05   -0.82039E-08  1298   0.658E-04    0.583E-05
RMM:  18    -0.413218338602E+03    0.29199E-05   -0.60636E-08  1218   0.616E-04    0.386E-05
RMM:  19    -0.413218336726E+03    0.18764E-05   -0.37885E-08   966   0.564E-04    0.286E-05
RMM:  20    -0.413218336316E+03    0.40964E-06   -0.19504E-08   760   0.530E-04
   46 T=    72. E= -.41286707E+03 F= -.41321834E+03 E0= -.41319739E+03  EK= 0.35126E+00 SP= 0.00E+00 SK= 0.00E+00
       N       E                     dE             d eps       ncg     rms          rms(c)
RMM:   1    -0.413238291498E+03   -0.19955E-01   -0.84681E+00  4314   0.139E+00    0.953E-01
RMM:   2    -0.413224561387E+03    0.13730E-01   -0.13338E-01  4385   0.169E-01    0.712E-01
RMM:   3    -0.413226631000E+03   -0.20696E-02   -0.37824E-02  5072   0.121E-01    0.409E-01
RMM:   4    -0.413245861311E+03   -0.19230E-01   -0.49425E-02  5054   0.193E-01    0.699E-01
RMM:   5    -0.413217093067E+03    0.28768E-01   -0.10774E-02  4677   0.115E-01    0.571E-02
RMM:   6    -0.413217109510E+03   -0.16443E-04   -0.21528E-03  5672   0.444E-02    0.316E-02
RMM:   7    -0.413217130814E+03   -0.21305E-04   -0.33926E-04  5612   0.183E-02    0.211E-02
RMM:   8    -0.413217130088E+03    0.72618E-06   -0.11029E-04  5095   0.112E-02    0.110E-02
RMM:   9    -0.413217121962E+03    0.81265E-05   -0.13708E-05  4086   0.514E-03    0.464E-03
RMM:  10    -0.413217119651E+03    0.23108E-05   -0.31262E-06  2744   0.242E-03    0.276E-03
RMM:  11    -0.413217117072E+03    0.25788E-05   -0.11229E-06  2495   0.172E-03    0.142E-03
RMM:  12    -0.413217112878E+03    0.41943E-05   -0.80298E-07  2438   0.142E-03    0.679E-04
RMM:  13    -0.413217110102E+03    0.27753E-05   -0.36577E-07  1990   0.100E-03    0.316E-04
RMM:  14    -0.413217108049E+03    0.20530E-05   -0.20163E-07  1506   0.773E-04    0.183E-04
RMM:  15    -0.413217103655E+03    0.43947E-05   -0.17720E-07  1404   0.753E-04    0.138E-04
RMM:  16    -0.413217101747E+03    0.19073E-05   -0.10537E-07  1214   0.663E-04    0.902E-05
RMM:  17    -0.413217098535E+03    0.32125E-05   -0.10060E-07  1373   0.665E-04    0.543E-05
RMM:  18    -0.413217096166E+03    0.23690E-05   -0.65392E-08  1116   0.594E-04    0.327E-05
RMM:  19    -0.413217095068E+03    0.10983E-05   -0.35824E-08   867   0.542E-04    0.252E-05
RMM:  20    -0.413217094782E+03    0.28550E-06   -0.21305E-08   742   0.523E-04
   47 T=    71. E= -.41286699E+03 F= -.41321709E+03 E0= -.41319617E+03  EK= 0.35010E+00 SP= 0.00E+00 SK= 0.00E+00
       N       E                     dE             d eps       ncg     rms          rms(c)
RMM:   1    -0.413235065373E+03   -0.17970E-01   -0.83473E+00  4312   0.144E+00    0.968E-01
RMM:   2    -0.413222108324E+03    0.12957E-01   -0.13377E-01  4433   0.176E-01    0.710E-01
RMM:   3    -0.413228273552E+03   -0.61652E-02   -0.38664E-02  5093   0.134E-01    0.487E-01
RMM:   4    -0.413235803900E+03   -0.75303E-02   -0.45468E-02  5033   0.188E-01    0.598E-01
RMM:   5    -0.413214794555E+03    0.21009E-01   -0.69694E-03  4621   0.998E-02    0.562E-02
RMM:   6    -0.413214758867E+03    0.35688E-04   -0.14747E-03  5448   0.376E-02    0.300E-02
RMM:   7    -0.413214780884E+03   -0.22017E-04   -0.25302E-04  5548   0.162E-02    0.193E-02
RMM:   8    -0.413214782103E+03   -0.12187E-05   -0.11195E-04  5106   0.112E-02    0.106E-02
RMM:   9    -0.413214771064E+03    0.11038E-04   -0.12748E-05  4023   0.510E-03    0.431E-03
RMM:  10    -0.413214767723E+03    0.33418E-05   -0.28480E-06  2714   0.234E-03    0.248E-03
RMM:  11    -0.413214762967E+03    0.47561E-05   -0.10920E-06  2481   0.173E-03    0.127E-03
RMM:  12    -0.413214757680E+03    0.52865E-05   -0.60205E-07  2372   0.131E-03    0.654E-04
RMM:  13    -0.413214754142E+03    0.35377E-05   -0.28395E-07  1822   0.917E-04    0.311E-04
RMM:  14    -0.413214750611E+03    0.35314E-05   -0.16769E-07  1411   0.744E-04    0.171E-04
RMM:  15    -0.413214745916E+03    0.46953E-05   -0.13328E-07  1367   0.715E-04    0.123E-04
RMM:  16    -0.413214743375E+03    0.25403E-05   -0.84634E-08  1208   0.646E-04    0.861E-05
RMM:  17    -0.413214738509E+03    0.48666E-05   -0.93835E-08  1468   0.669E-04    0.652E-05
RMM:  18    -0.413214737058E+03    0.14507E-05   -0.41849E-08   925   0.545E-04    0.403E-05
RMM:  19    -0.413214735940E+03    0.11175E-05   -0.29051E-08   849   0.532E-04    0.204E-05
RMM:  20    -0.413214735216E+03    0.72474E-06   -0.19339E-08   755   0.520E-04
   48 T=    71. E= -.41286712E+03 F= -.41321474E+03 E0= -.41319382E+03  EK= 0.34762E+00 SP= 0.00E+00 SK= 0.00E+00
       N       E                     dE             d eps       ncg     rms          rms(c)
RMM:   1    -0.413232849100E+03   -0.18113E-01   -0.81953E+00  4307   0.155E+00    0.958E-01
RMM:   2    -0.413217249774E+03    0.15599E-01   -0.13438E-01  4478   0.188E-01    0.699E-01
RMM:   3    -0.413229440841E+03   -0.12191E-01   -0.41705E-02  5113   0.151E-01    0.584E-01
RMM:   4    -0.413224578902E+03    0.48619E-02   -0.43024E-02  4992   0.187E-01    0.498E-01
RMM:   5    -0.413210073630E+03    0.14505E-01   -0.44315E-03  4574   0.878E-02    0.559E-02
RMM:   6    -0.413209989941E+03    0.83689E-04   -0.82868E-04  5012   0.307E-02    0.288E-02
RMM:   7    -0.413210003733E+03   -0.13792E-04   -0.15566E-04  5587   0.130E-02    0.120E-02
RMM:   8    -0.413210007241E+03   -0.35085E-05   -0.60305E-05  5276   0.810E-03    0.941E-03
RMM:   9    -0.413209997216E+03    0.10026E-04   -0.14259E-05  4170   0.461E-03    0.426E-03
RMM:  10    -0.413209994580E+03    0.26360E-05   -0.21053E-06  2593   0.231E-03    0.236E-03
RMM:  11    -0.413209988964E+03    0.56160E-05   -0.12984E-06  2471   0.186E-03    0.131E-03
RMM:  12    -0.413209984618E+03    0.43454E-05   -0.57293E-07  2363   0.130E-03    0.754E-04
RMM:  13    -0.413209980013E+03    0.46050E-05   -0.29270E-07  1808   0.935E-04    0.386E-04
RMM:  14    -0.413209975953E+03    0.40597E-05   -0.15359E-07  1290   0.725E-04    0.211E-04
RMM:  15    -0.413209971088E+03    0.48653E-05   -0.13383E-07  1309   0.700E-04    0.139E-04
RMM:  16    -0.413209968511E+03    0.25768E-05   -0.86553E-08  1147   0.628E-04    0.113E-04
RMM:  17    -0.413209964365E+03    0.41466E-05   -0.84246E-08  1273   0.626E-04    0.600E-05
RMM:  18    -0.413209962432E+03    0.19325E-05   -0.44885E-08   905   0.542E-04    0.468E-05
RMM:  19    -0.413209961267E+03    0.11651E-05   -0.30692E-08   776   0.516E-04    0.283E-05
RMM:  20    -0.413209960357E+03    0.91013E-06   -0.25086E-08   745   0.510E-04
   49 T=    70. E= -.41286674E+03 F= -.41320996E+03 E0= -.41318905E+03  EK= 0.34322E+00 SP= 0.00E+00 SK= 0.00E+00
       N       E                     dE             d eps       ncg     rms          rms(c)
RMM:   1    -0.413234938757E+03   -0.24977E-01   -0.81703E+00  4310   0.172E+00    0.931E-01
RMM:   2    -0.413211593950E+03    0.23345E-01   -0.14292E-01  4544   0.200E-01    0.699E-01
RMM:   3    -0.413228890217E+03   -0.17296E-01   -0.45017E-02  5134   0.166E-01    0.658E-01
RMM:   4    -0.413216809835E+03    0.12080E-01   -0.45460E-02  4977   0.194E-01    0.465E-01
RMM:   5    -0.413204235348E+03    0.12574E-01   -0.41368E-03  4566   0.877E-02    0.580E-02
RMM:   6    -0.413204111894E+03    0.12345E-03   -0.63961E-04  4847   0.292E-02    0.287E-02
RMM:   7    -0.413204123540E+03   -0.11646E-04   -0.18052E-04  5804   0.145E-02    0.131E-02
RMM:   8    -0.413204119282E+03    0.42573E-05   -0.62109E-05  5250   0.899E-03    0.990E-03
RMM:   9    -0.413204114838E+03    0.44442E-05   -0.15195E-05  4294   0.474E-03    0.407E-03
RMM:  10    -0.413204112011E+03    0.28266E-05   -0.22929E-06  2619   0.242E-03    0.244E-03
RMM:  11    -0.413204107842E+03    0.41698E-05   -0.13503E-06  2495   0.194E-03    0.149E-03
RMM:  12    -0.413204104910E+03    0.29315E-05   -0.57348E-07  2425   0.132E-03    0.850E-04
RMM:  13    -0.413204101352E+03    0.35583E-05   -0.36490E-07  2152   0.992E-04    0.515E-04
RMM:  14    -0.413204096981E+03    0.43713E-05   -0.25996E-07  1617   0.802E-04    0.340E-04
RMM:  15    -0.413204094130E+03    0.28509E-05   -0.15371E-07  1221   0.667E-04    0.154E-04
RMM:  16    -0.413204092176E+03    0.19534E-05   -0.11377E-07  1269   0.635E-04    0.997E-05
RMM:  17    -0.413204088536E+03    0.36407E-05   -0.13138E-07  1391   0.670E-04    0.136E-04
RMM:  18    -0.413204087685E+03    0.85071E-06   -0.55809E-08   937   0.550E-04
   50 T=    69. E= -.41286700E+03 F= -.41320409E+03 E0= -.41318318E+03  EK= 0.33709E+00 SP= 0.00E+00 SK= 0.00E+00
       N       E                     dE             d eps       ncg     rms          rms(c)
RMM:   1    -0.413226659762E+03   -0.22571E-01   -0.79811E+00  4306   0.179E+00    0.932E-01
RMM:   2    -0.413202959294E+03    0.23700E-01   -0.14934E-01  4620   0.210E-01    0.695E-01
RMM:   3    -0.413227577989E+03   -0.24619E-01   -0.48133E-02  5139   0.182E-01    0.750E-01
RMM:   4    -0.413204563635E+03    0.23014E-01   -0.45434E-02  4946   0.197E-01    0.393E-01
RMM:   5    -0.413195720919E+03    0.88427E-02   -0.36761E-03  4664   0.859E-02    0.633E-02
RMM:   6    -0.413195541100E+03    0.17982E-03   -0.43948E-04  4671   0.282E-02    0.311E-02
[...]
RMM:  11    -0.413128227426E+03   -0.99603E-05   -0.12433E-06  2503   0.189E-03    0.128E-03
RMM:  12    -0.413128236246E+03   -0.88197E-05   -0.61689E-07  2405   0.129E-03    0.789E-04
RMM:  13    -0.413128248081E+03   -0.11835E-04   -0.65751E-07  2255   0.112E-03    0.464E-04
RMM:  14    -0.413128253832E+03   -0.57511E-05   -0.25218E-07  1645   0.776E-04    0.298E-04
RMM:  15    -0.413128259573E+03   -0.57410E-05   -0.19749E-07  1519   0.728E-04    0.159E-04
RMM:  16    -0.413128263709E+03   -0.41362E-05   -0.11801E-07  1393   0.651E-04    0.103E-04
RMM:  17    -0.413128265768E+03   -0.20584E-05   -0.59443E-08  1128   0.561E-04    0.874E-05
RMM:  18    -0.413128267240E+03   -0.14721E-05   -0.36234E-08   997   0.528E-04    0.599E-05
RMM:  19    -0.413128267808E+03   -0.56863E-06   -0.16333E-08   802   0.498E-04
  140 T=    48. E= -.41289208E+03 F= -.41312827E+03 E0= -.41310788E+03  EK= 0.23619E+00 SP= 0.00E+00 SK= 0.00E+00
       N       E                     dE             d eps       ncg     rms          rms(c)
RMM:   1    -0.413015088405E+03    0.11318E+00   -0.91766E+00  4308   0.126E+00    0.104E+00
RMM:   2    -0.413014306105E+03    0.78230E-03   -0.14737E-01  4411   0.154E-01    0.815E-01
RMM:   3    -0.413030224114E+03   -0.15918E-01   -0.12331E-01  5159   0.204E-01    0.844E-01
RMM:   4    -0.413014856485E+03    0.15368E-01   -0.39196E-02  4965   0.184E-01    0.654E-01
RMM:   5    -0.413001068384E+03    0.13788E-01   -0.15882E-02  4653   0.110E-01    0.891E-02
RMM:   6    -0.413001190228E+03   -0.12184E-03   -0.10574E-03  5286   0.341E-02    0.434E-02
RMM:   7    -0.413001252066E+03   -0.61838E-04   -0.17721E-04  5016   0.148E-02    0.258E-02
RMM:   8    -0.413001372139E+03   -0.12007E-03   -0.84121E-05  5441   0.105E-02    0.168E-02
RMM:   9    -0.413001423041E+03   -0.50902E-04   -0.26363E-05  4695   0.626E-03    0.705E-03
RMM:  10    -0.413001478863E+03   -0.55822E-04   -0.15726E-05  4083   0.444E-03    0.363E-03
RMM:  11    -0.413001510856E+03   -0.31993E-04   -0.23117E-06  2600   0.229E-03    0.225E-03
RMM:  12    -0.413001554105E+03   -0.43249E-04   -0.28206E-06  2647   0.218E-03    0.164E-03
RMM:  13    -0.413001591081E+03   -0.36977E-04   -0.24262E-06  2595   0.170E-03    0.869E-04
RMM:  14    -0.413001607610E+03   -0.16528E-04   -0.95384E-07  1819   0.101E-03    0.502E-04
RMM:  15    -0.413001626647E+03   -0.19037E-04   -0.93199E-07  2335   0.111E-03    0.353E-04
RMM:  16    -0.413001632893E+03   -0.62465E-05   -0.27052E-07  1293   0.667E-04    0.204E-04
RMM:  17    -0.413001637487E+03   -0.45939E-05   -0.15994E-07  1505   0.692E-04    0.155E-04
RMM:  18    -0.413001638939E+03   -0.14516E-05   -0.63574E-08  1181   0.568E-04    0.112E-04
RMM:  19    -0.413001640760E+03   -0.18211E-05   -0.64022E-08  1236   0.573E-04    0.898E-05
RMM:  20    -0.413001641982E+03   -0.12224E-05   -0.39438E-08   973   0.516E-04    0.672E-05
RMM:  21    -0.413001642411E+03   -0.42829E-06   -0.19079E-08   767   0.474E-04
  141 T=    44. E= -.41278652E+03 F= -.41300164E+03 E0= -.41298133E+03  EK= 0.21512E+00 SP= 0.00E+00 SK= 0.00E+00
       N       E                     dE             d eps       ncg     rms          rms(c)
RMM:   1    -0.413027038938E+03   -0.25397E-01   -0.16182E+01  4299   0.163E+00    0.179E+00
RMM:   2    -0.412979573871E+03    0.47465E-01   -0.18384E-01  4400   0.184E-01    0.920E-01
RMM:   3    -0.412970787509E+03    0.87864E-02   -0.58787E-02  4983   0.929E-02    0.183E-01
RMM:   4    -0.412990287843E+03   -0.19500E-01   -0.23059E-02  5156   0.131E-01    0.595E-01
RMM:   5    -0.412970649008E+03    0.19639E-01   -0.10000E-02  4825   0.104E-01    0.758E-02
RMM:   6    -0.412970613589E+03    0.35420E-04   -0.18688E-03  5610   0.454E-02    0.394E-02
RMM:   7    -0.412970627567E+03   -0.13978E-04   -0.41381E-04  5826   0.197E-02    0.186E-02
RMM:   8    -0.412970608766E+03    0.18801E-04   -0.11386E-04  5203   0.107E-02    0.102E-02
RMM:   9    -0.412970588541E+03    0.20225E-04   -0.17042E-05  4128   0.494E-03    0.577E-03
RMM:  10    -0.412970570786E+03    0.17755E-04   -0.52290E-06  2829   0.305E-03    0.389E-03
RMM:  11    -0.412970541691E+03    0.29095E-04   -0.64426E-06  2787   0.300E-03    0.233E-03
RMM:  12    -0.412970516098E+03    0.25592E-04   -0.45045E-06  2713   0.227E-03    0.135E-03
RMM:  13    -0.412970501562E+03    0.14537E-04   -0.18859E-06  2534   0.148E-03    0.828E-04
RMM:  14    -0.412970479244E+03    0.22318E-04   -0.20992E-06  2529   0.155E-03    0.581E-04
RMM:  15    -0.412970469513E+03    0.97307E-05   -0.78279E-07  1751   0.974E-04    0.381E-04
RMM:  16    -0.412970460949E+03    0.85641E-05   -0.45395E-07  1943   0.924E-04    0.188E-04
RMM:  17    -0.412970457463E+03    0.34858E-05   -0.18479E-07  1510   0.677E-04    0.152E-04
RMM:  18    -0.412970455537E+03    0.19260E-05   -0.88266E-08  1111   0.564E-04    0.920E-05
RMM:  19    -0.412970453223E+03    0.23145E-05   -0.66421E-08  1118   0.584E-04    0.659E-05
RMM:  20    -0.412970452490E+03    0.73295E-06   -0.35781E-08   940   0.547E-04
  142 T=    49. E= -.41272871E+03 F= -.41297045E+03 E0= -.41295022E+03  EK= 0.24175E+00 SP= 0.00E+00 SK= 0.00E+00
       N       E                     dE             d eps       ncg     rms          rms(c)
RMM:   1    -0.412974584506E+03   -0.41313E-02   -0.36084E+00  4270   0.961E-01    0.389E-01
RMM:   2    -0.412977100518E+03   -0.25160E-02   -0.33080E-02  4484   0.104E-01    0.280E-01
RMM:   3    -0.412980778453E+03   -0.36779E-02   -0.56420E-03  5215   0.730E-02    0.260E-01
RMM:   4    -0.412978950425E+03    0.18280E-02   -0.60896E-03  4991   0.730E-02    0.181E-01
RMM:   5    -0.412977226464E+03    0.17240E-02   -0.16721E-03  5073   0.509E-02    0.455E-02
RMM:   6    -0.412977135467E+03    0.90997E-04   -0.20764E-04  4732   0.198E-02    0.173E-02
RMM:   7    -0.412977134566E+03    0.90099E-06   -0.66586E-05  5332   0.924E-03    0.915E-03
RMM:   8    -0.412977150946E+03   -0.16381E-04   -0.36670E-05  5166   0.634E-03    0.784E-03
RMM:   9    -0.412977154342E+03   -0.33951E-05   -0.41501E-06  2870   0.294E-03    0.417E-03
RMM:  10    -0.412977158378E+03   -0.40363E-05   -0.38820E-06  3060   0.257E-03    0.147E-03
RMM:  11    -0.412977164443E+03   -0.60650E-05   -0.13166E-06  2471   0.183E-03    0.927E-04
RMM:  12    -0.412977169837E+03   -0.53941E-05   -0.64956E-07  2305   0.127E-03    0.547E-04
RMM:  13    -0.412977174308E+03   -0.44709E-05   -0.43977E-07  2003   0.986E-04    0.378E-04
RMM:  14    -0.412977177740E+03   -0.34320E-05   -0.26892E-07  1762   0.799E-04    0.260E-04
RMM:  15    -0.412977179615E+03   -0.18754E-05   -0.11712E-07  1222   0.636E-04    0.187E-04
RMM:  16    -0.412977181710E+03   -0.20950E-05   -0.10696E-07  1224   0.632E-04    0.549E-05
RMM:  17    -0.412977182478E+03   -0.76741E-06   -0.42769E-08  1002   0.545E-04
  143 T=    50. E= -.41273160E+03 F= -.41297718E+03 E0= -.41295702E+03  EK= 0.24559E+00 SP= 0.00E+00 SK= 0.00E+00
       N       E                     dE             d eps       ncg     rms          rms(c)
RMM:   1    -0.412983340346E+03   -0.61586E-02   -0.15743E+01  4313   0.143E+00    0.137E+00
RMM:   2    -0.412988008532E+03   -0.46682E-02   -0.33740E-01  4380   0.194E-01    0.114E+00
RMM:   3    -0.412993079046E+03   -0.50705E-02   -0.23555E-01  5137   0.211E-01    0.101E+00
RMM:   4    -0.413035484873E+03   -0.42406E-01   -0.12164E-01  5065   0.307E-01    0.122E+00
RMM:   5    -0.412958053899E+03    0.77431E-01   -0.47268E-02  4662   0.206E-01    0.105E-01
RMM:   6    -0.412958279020E+03   -0.22512E-03   -0.56607E-03  5674   0.729E-02    0.503E-02
RMM:   7    -0.412958431101E+03   -0.15208E-03   -0.73884E-04  5923   0.253E-02    0.320E-02
RMM:   8    -0.412958547495E+03   -0.11639E-03   -0.12438E-04  5384   0.112E-02    0.211E-02
RMM:   9    -0.412958701476E+03   -0.15398E-03   -0.52517E-05  4742   0.831E-03    0.786E-03
RMM:  10    -0.412958784475E+03   -0.82999E-04   -0.15080E-05  3274   0.465E-03    0.444E-03
RMM:  11    -0.412958891159E+03   -0.10668E-03   -0.12509E-05  3366   0.486E-03    0.348E-03
RMM:  12    -0.412958941464E+03   -0.50305E-04   -0.47203E-06  2746   0.272E-03    0.217E-03
RMM:  13    -0.412958981593E+03   -0.40128E-04   -0.31897E-06  2689   0.215E-03    0.135E-03
RMM:  14    -0.412959014076E+03   -0.32483E-04   -0.23772E-06  2602   0.163E-03    0.696E-04
RMM:  15    -0.412959035666E+03   -0.21590E-04   -0.15242E-06  2245   0.126E-03    0.459E-04
RMM:  16    -0.412959046123E+03   -0.10457E-04   -0.66209E-07  1766   0.944E-04    0.281E-04
RMM:  17    -0.412959053061E+03   -0.69378E-05   -0.39936E-07  1948   0.892E-04    0.180E-04
RMM:  18    -0.412959056214E+03   -0.31532E-05   -0.18795E-07  1409   0.680E-04    0.995E-05
RMM:  19    -0.412959057837E+03   -0.16229E-05   -0.10798E-07  1255   0.638E-04    0.931E-05
RMM:  20    -0.412959058431E+03   -0.59453E-06   -0.64463E-08  1158   0.574E-04
  144 T=    41. E= -.41275965E+03 F= -.41295906E+03 E0= -.41293896E+03  EK= 0.19941E+00 SP= 0.00E+00 SK= 0.00E+00
       N       E                     dE             d eps       ncg     rms          rms(c)
RMM:   1    -0.413145599493E+03   -0.18654E+00   -0.12939E+01  4299   0.156E+00    0.156E+00
RMM:   2    -0.413073181601E+03    0.72418E-01   -0.12421E-01  4379   0.147E-01    0.824E-01
RMM:   3    -0.413063636513E+03    0.95451E-02   -0.49424E-02  4641   0.863E-02    0.112E-01
RMM:   4    -0.413064402997E+03   -0.76648E-03   -0.21507E-03  5259   0.422E-02    0.104E-01
RMM:   5    -0.413064219058E+03    0.18394E-03   -0.77253E-04  5119   0.275E-02    0.873E-02
RMM:   6    -0.413063963272E+03    0.25579E-03   -0.46245E-04  5211   0.255E-02    0.307E-02
RMM:   7    -0.413063960458E+03    0.28147E-05   -0.12905E-04  5080   0.120E-02    0.106E-02
RMM:   8    -0.413063950721E+03    0.97365E-05   -0.19203E-05  4240   0.484E-03    0.663E-03
RMM:   9    -0.413063938930E+03    0.11791E-04   -0.59788E-06  3175   0.315E-03    0.378E-03
RMM:  10    -0.413063919862E+03    0.19068E-04   -0.76228E-06  3236   0.332E-03    0.318E-03
RMM:  11    -0.413063881840E+03    0.38022E-04   -0.85336E-06  2770   0.309E-03    0.187E-03
RMM:  12    -0.413063868367E+03    0.13473E-04   -0.23881E-06  2594   0.150E-03    0.114E-03
RMM:  13    -0.413063854783E+03    0.13584E-04   -0.88866E-07  2269   0.116E-03    0.719E-04
RMM:  14    -0.413063838969E+03    0.15813E-04   -0.92625E-07  2157   0.110E-03    0.435E-04
RMM:  15    -0.413063831109E+03    0.78601E-05   -0.35571E-07  1529   0.765E-04    0.191E-04
RMM:  16    -0.413063827722E+03    0.33871E-05   -0.13923E-07  1264   0.634E-04    0.146E-04
RMM:  17    -0.413063824762E+03    0.29598E-05   -0.95022E-08  1360   0.627E-04    0.130E-04
RMM:  18    -0.413063823319E+03    0.14430E-05   -0.45982E-08  1057   0.525E-04    0.793E-05
RMM:  19    -0.413063821794E+03    0.15254E-05   -0.39054E-08   997   0.536E-04    0.451E-05
RMM:  20    -0.413063821239E+03    0.55506E-06   -0.17889E-08   845   0.492E-04
  145 T=    46. E= -.41283744E+03 F= -.41306382E+03 E0= -.41304378E+03  EK= 0.22638E+00 SP= 0.00E+00 SK= 0.00E+00
       N       E                     dE             d eps       ncg     rms          rms(c)
RMM:   1    -0.413016439326E+03    0.47382E-01   -0.38219E+00  4269   0.915E-01    0.447E-01
RMM:   2    -0.413018380715E+03   -0.19414E-02   -0.33937E-02  4478   0.918E-02    0.296E-01
RMM:   3    -0.413020527664E+03   -0.21469E-02   -0.49231E-03  5232   0.617E-02    0.203E-01
RMM:   4    -0.413020560521E+03   -0.32858E-04   -0.52264E-03  5024   0.660E-02    0.199E-01
RMM:   5    -0.413018484049E+03    0.20765E-02   -0.14369E-03  5004   0.466E-02    0.434E-02
RMM:   6    -0.413018408019E+03    0.76030E-04   -0.24448E-04  4852   0.199E-02    0.171E-02
RMM:   7    -0.413018406904E+03    0.11152E-05   -0.67164E-05  5471   0.901E-03    0.934E-03
RMM:   8    -0.413018416814E+03   -0.99105E-05   -0.19887E-05  4403   0.486E-03    0.536E-03
RMM:   9    -0.413018419984E+03   -0.31700E-05   -0.26285E-06  2643   0.244E-03    0.285E-03
RMM:  10    -0.413018423358E+03   -0.33734E-05   -0.21691E-06  2681   0.205E-03    0.128E-03
RMM:  11    -0.413018426509E+03   -0.31515E-05   -0.10588E-06  2407   0.152E-03    0.814E-04
RMM:  12    -0.413018428908E+03   -0.23985E-05   -0.66288E-07  2138   0.111E-03    0.512E-04
RMM:  13    -0.413018430032E+03   -0.11241E-05   -0.34458E-07  1663   0.823E-04    0.293E-04
RMM:  14    -0.413018430860E+03   -0.82835E-06   -0.38545E-07  1763   0.833E-04
  146 T=    40. E= -.41282240E+03 F= -.41301843E+03 E0= -.41299844E+03  EK= 0.19603E+00 SP= 0.00E+00 SK= 0.00E+00
       N       E                     dE             d eps       ncg     rms          rms(c)
RMM:   1    -0.413070387543E+03   -0.51958E-01   -0.10712E+01  4297   0.119E+00    0.110E+00
RMM:   2    -0.413071088056E+03   -0.70051E-03   -0.17693E-01  4377   0.149E-01    0.867E-01
RMM:   3    -0.413074056197E+03   -0.29681E-02   -0.12823E-01  5132   0.158E-01    0.729E-01
RMM:   4    -0.413084513540E+03   -0.10457E-01   -0.47870E-02  5044   0.195E-01    0.782E-01
RMM:   5    -0.413055116218E+03    0.29397E-01   -0.19246E-02  4627   0.129E-01    0.743E-02
RMM:   6    -0.413055184765E+03   -0.68548E-04   -0.20442E-03  5583   0.441E-02    0.407E-02
RMM:   7    -0.413055271523E+03   -0.86758E-04   -0.30581E-04  5777   0.173E-02    0.257E-02
RMM:   8    -0.413055366200E+03   -0.94677E-04   -0.62451E-05  5060   0.865E-03    0.141E-02
RMM:   9    -0.413055466111E+03   -0.99911E-04   -0.29164E-05  4164   0.618E-03    0.499E-03
RMM:  10    -0.413055519927E+03   -0.53815E-04   -0.70906E-06  2847   0.326E-03    0.307E-03
RMM:  11    -0.413055594486E+03   -0.74559E-04   -0.70209E-06  2867   0.358E-03    0.246E-03
RMM:  12    -0.413055636435E+03   -0.41950E-04   -0.40781E-06  2712   0.230E-03    0.152E-03
RMM:  13    -0.413055655952E+03   -0.19516E-04   -0.16356E-06  2592   0.142E-03    0.836E-04
RMM:  14    -0.413055678096E+03   -0.22144E-04   -0.13830E-06  2322   0.128E-03    0.499E-04
RMM:  15    -0.413055692069E+03   -0.13973E-04   -0.85571E-07  1931   0.105E-03    0.289E-04
RMM:  16    -0.413055698483E+03   -0.64135E-05   -0.37854E-07  1715   0.828E-04    0.171E-04
RMM:  17    -0.413055702026E+03   -0.35438E-05   -0.18820E-07  1543   0.697E-04    0.122E-04
RMM:  18    -0.413055703961E+03   -0.19342E-05   -0.98270E-08  1249   0.613E-04    0.741E-05
RMM:  19    -0.413055704915E+03   -0.95391E-06   -0.64136E-08  1097   0.573E-04
  147 T=    39. E= -.41286290E+03 F= -.41305570E+03 E0= -.41303576E+03  EK= 0.19281E+00 SP= 0.00E+00 SK= 0.00E+00
       N       E                     dE             d eps       ncg     rms          rms(c)
RMM:   1    -0.413141998872E+03   -0.86295E-01   -0.58961E+00  4278   0.104E+00    0.871E-01
RMM:   2    -0.413133491199E+03    0.85077E-02   -0.52153E-02  4435   0.100E-01    0.496E-01
RMM:   3    -0.413131769134E+03    0.17221E-02   -0.15454E-02  5106   0.607E-02    0.128E-01
RMM:   4    -0.413137779569E+03   -0.60104E-02   -0.82138E-03  5135   0.793E-02    0.344E-01
RMM:   5    -0.413131263602E+03    0.65160E-02   -0.32438E-03  4864   0.611E-02    0.487E-02
RMM:   6    -0.413131228539E+03    0.35064E-04   -0.66699E-04  5417   0.275E-02    0.241E-02
RMM:   7    -0.413131234441E+03   -0.59026E-05   -0.16683E-04  5731   0.133E-02    0.146E-02
RMM:   8    -0.413131233800E+03    0.64137E-06   -0.29428E-05  4515   0.641E-03    0.532E-03
RMM:   9    -0.413131230337E+03    0.34627E-05   -0.70781E-06  3177   0.321E-03    0.310E-03
RMM:  10    -0.413131225790E+03    0.45474E-05   -0.26872E-06  2628   0.234E-03    0.198E-03
RMM:  11    -0.413131217769E+03    0.80206E-05   -0.22095E-06  2599   0.193E-03    0.111E-03
RMM:  12    -0.413131212071E+03    0.56981E-05   -0.10665E-06  2365   0.126E-03    0.712E-04
RMM:  13    -0.413131207617E+03    0.44542E-05   -0.57468E-07  1826   0.943E-04    0.424E-04
RMM:  14    -0.413131200028E+03    0.75888E-05   -0.77411E-07  2239   0.108E-03    0.343E-04
RMM:  15    -0.413131196746E+03    0.32821E-05   -0.27415E-07  1375   0.713E-04    0.225E-04
RMM:  16    -0.413131193415E+03    0.33310E-05   -0.19572E-07  1394   0.708E-04    0.121E-04
RMM:  17    -0.413131192376E+03    0.10393E-05   -0.83159E-08  1128   0.598E-04    0.847E-05
RMM:  18    -0.413131191500E+03    0.87637E-06   -0.55790E-08  1121   0.575E-04
  148 T=    40. E= -.41293565E+03 F= -.41313119E+03 E0= -.41311129E+03  EK= 0.19554E+00 SP= 0.00E+00 SK= 0.00E+00
       N       E                     dE             d eps       ncg     rms          rms(c)
RMM:   1    -0.413067547203E+03    0.63645E-01   -0.46689E+00  4272   0.909E-01    0.646E-01
RMM:   2    -0.413067280690E+03    0.26651E-03   -0.40416E-02  4430   0.954E-02    0.386E-01
RMM:   3    -0.413067099627E+03    0.18106E-03   -0.89194E-03  5144   0.548E-02    0.131E-01
RMM:   4    -0.413071067234E+03   -0.39676E-02   -0.64336E-03  5111   0.707E-02    0.291E-01
RMM:   5    -0.413066432876E+03    0.46344E-02   -0.22343E-03  4857   0.523E-02    0.419E-02
RMM:   6    -0.413066401817E+03    0.31059E-04   -0.46555E-04  5346   0.232E-02    0.214E-02
RMM:   7    -0.413066408281E+03   -0.64635E-05   -0.11968E-04  5683   0.114E-02    0.128E-02
RMM:   8    -0.413066410046E+03   -0.17655E-05   -0.21849E-05  4191   0.550E-03    0.456E-03
RMM:   9    -0.413066408572E+03    0.14742E-05   -0.48612E-06  2925   0.283E-03    0.260E-03
RMM:  10    -0.413066406980E+03    0.15920E-05   -0.20542E-06  2582   0.211E-03    0.165E-03
RMM:  11    -0.413066403583E+03    0.33971E-05   -0.16172E-06  2549   0.173E-03    0.952E-04
RMM:  12    -0.413066400299E+03    0.32838E-05   -0.85370E-07  2296   0.118E-03    0.591E-04
RMM:  13    -0.413066397659E+03    0.26404E-05   -0.44243E-07  1700   0.879E-04    0.357E-04
RMM:  14    -0.413066393118E+03    0.45407E-05   -0.61375E-07  2121   0.994E-04    0.284E-04
RMM:  15    -0.413066391096E+03    0.20217E-05   -0.20829E-07  1352   0.672E-04    0.186E-04
RMM:  16    -0.413066388337E+03    0.27593E-05   -0.19755E-07  1397   0.699E-04    0.107E-04
RMM:  17    -0.413066387629E+03    0.70843E-06   -0.69960E-08  1069   0.569E-04
  149 T=    33. E= -.41290494E+03 F= -.41306639E+03 E0= -.41304651E+03  EK= 0.16144E+00 SP= 0.00E+00 SK= 0.00E+00
       N       E                     dE             d eps       ncg     rms          rms(c)
RMM:   1    -0.413128085331E+03   -0.61697E-01   -0.54406E+00  4264   0.949E-01    0.663E-01
RMM:   2    -0.413130097837E+03   -0.20125E-02   -0.62693E-02  4415   0.102E-01    0.505E-01
RMM:   3    -0.413130901600E+03   -0.80376E-03   -0.29384E-02  5121   0.942E-02    0.352E-01
RMM:   4    -0.413133926402E+03   -0.30248E-02   -0.13992E-02  5030   0.106E-01    0.405E-01
RMM:   5    -0.413125929139E+03    0.79973E-02   -0.41844E-03  4634   0.687E-02    0.448E-02
RMM:   6    -0.413125936489E+03   -0.73504E-05   -0.57818E-04  5472   0.238E-02    0.262E-02
RMM:   7    -0.413125977130E+03   -0.40641E-04   -0.10599E-04  5516   0.104E-02    0.162E-02
RMM:   8    -0.413126028389E+03   -0.51259E-04   -0.27542E-05  4317   0.566E-03    0.690E-03
RMM:   9    -0.413126064927E+03   -0.36538E-04   -0.92738E-06  3165   0.364E-03    0.296E-03
RMM:  10    -0.413126091517E+03   -0.26591E-04   -0.29046E-06  2629   0.236E-03    0.186E-03
RMM:  11    -0.413126118440E+03   -0.26923E-04   -0.18611E-06  2598   0.182E-03    0.122E-03
RMM:  12    -0.413126144729E+03   -0.26289E-04   -0.21673E-06  2604   0.162E-03    0.944E-04
RMM:  13    -0.413126153579E+03   -0.88505E-05   -0.67911E-07  1745   0.944E-04    0.478E-04
RMM:  14    -0.413126164685E+03   -0.11105E-04   -0.65166E-07  2171   0.101E-03    0.332E-04
RMM:  15    -0.413126169543E+03   -0.48579E-05   -0.26348E-07  1374   0.697E-04    0.208E-04
RMM:  16    -0.413126174534E+03   -0.49917E-05   -0.21633E-07  1459   0.715E-04    0.104E-04
RMM:  17    -0.413126176281E+03   -0.17466E-05   -0.94374E-08  1270   0.613E-04    0.846E-05
RMM:  18    -0.413126176871E+03   -0.59009E-06   -0.44995E-08   983   0.538E-04
  150 T=    38. E= -.41293879E+03 F= -.41312618E+03 E0= -.41310633E+03  EK= 0.18738E+00 SP= 0.00E+00 SK= 0.00E+00
