       N       E                     dE             d eps       ncg     rms          rms(c)
RMM:   1     0.220137876540E+04    0.22014E+04   -0.52442E+04  2132   0.654E+02
RMM:   2     0.705802636463E+03   -0.14956E+04   -0.16261E+04  2132   0.177E+02
RMM:   3     0.137585785360E+03   -0.56822E+03   -0.65711E+03  2132   0.117E+02
RMM:   4    -0.159566004011E+03   -0.29715E+03   -0.27856E+03  2132   0.936E+01
RMM:   5    -0.287531532268E+03   -0.12797E+03   -0.11426E+03  2132   0.595E+01
RMM:   6    -0.349875234849E+03   -0.62344E+02   -0.55135E+02  2132   0.423E+01
RMM:   7    -0.382723497392E+03   -0.32848E+02   -0.30383E+02  2132   0.293E+01
RMM:   8    -0.404243600580E+03   -0.21520E+02   -0.18448E+02  2132   0.233E+01
RMM:   9    -0.436001971889E+03   -0.31758E+02   -0.30588E+02  6105   0.173E+01
RMM:  10    -0.441317327964E+03   -0.53154E+01   -0.63092E+01  6396   0.540E+00
RMM:  11    -0.442515649162E+03   -0.11983E+01   -0.11138E+01  6211   0.173E+00
RMM:  12    -0.442863297254E+03   -0.34765E+00   -0.25088E+00  6366   0.594E-01    0.134E+02
RMM:  13    -0.425520506485E+03    0.17343E+02   -0.80727E+01  4677   0.119E+01    0.712E+01
RMM:  14    -0.498011298114E+03   -0.72491E+02   -0.53368E+02  5411   0.231E+01    0.304E+01
RMM:  15    -0.412141108930E+03    0.85870E+02   -0.18696E+02  5051   0.160E+01    0.442E+00
RMM:  16    -0.414268012340E+03   -0.21269E+01   -0.37885E+01  6075   0.588E+00    0.448E+00
RMM:  17    -0.413336764714E+03    0.93125E+00   -0.20223E+00  5314   0.166E+00    0.277E+00
RMM:  18    -0.413150418068E+03    0.18635E+00   -0.13123E+00  5795   0.121E+00    0.160E+00
RMM:  19    -0.413171289232E+03   -0.20871E-01   -0.30268E-01  5834   0.559E-01    0.975E-01
RMM:  20    -0.413217227660E+03   -0.45938E-01   -0.36147E-01  5441   0.653E-01    0.954E-01
RMM:  21    -0.413179266780E+03    0.37961E-01   -0.44858E-02  4868   0.288E-01    0.559E-01
RMM:  22    -0.413167318163E+03    0.11949E-01   -0.43032E-02  5689   0.215E-01    0.252E-01
RMM:  23    -0.413164425874E+03    0.28923E-02   -0.20338E-02  6144   0.134E-01    0.831E-02
RMM:  24    -0.413163232946E+03    0.11929E-02   -0.35718E-03  6044   0.601E-02    0.503E-02
RMM:  25    -0.413162856960E+03    0.37599E-03   -0.75613E-04  5301   0.272E-02    0.297E-02
RMM:  26    -0.413162844853E+03    0.12107E-04   -0.60226E-04  5833   0.257E-02    0.279E-02
RMM:  27    -0.413163325071E+03   -0.48022E-03   -0.26857E-04  4772   0.221E-02    0.192E-02
RMM:  28    -0.413163654228E+03   -0.32916E-03   -0.12717E-04  5046   0.136E-02    0.115E-02
RMM:  29    -0.413164155214E+03   -0.50099E-03   -0.12755E-04  4357   0.190E-02    0.459E-03
RMM:  30    -0.413164392315E+03   -0.23710E-03   -0.91995E-05  4156   0.109E-02    0.217E-03
RMM:  31    -0.413164485768E+03   -0.93453E-04   -0.46990E-05  3295   0.602E-03    0.139E-03
RMM:  32    -0.413164508815E+03   -0.23047E-04   -0.17606E-05  2922   0.296E-03    0.110E-03
RMM:  33    -0.413164517752E+03   -0.89364E-05   -0.78300E-06  2774   0.210E-03    0.688E-04
RMM:  34    -0.413164518305E+03   -0.55337E-06   -0.44596E-06  2488   0.133E-03
    1 T=    61. E= -.41286671E+03 F= -.41316452E+03 E0= -.41314202E+03  EK= 0.29781E+00 SP= 0.00E+00 SK= 0.00E+00
       N       E                     dE             d eps       ncg     rms          rms(c)
RMM:   1    -0.413166565098E+03   -0.20473E-02   -0.80993E+00  3990   0.578E-01    0.890E-01
RMM:   2    -0.413169425001E+03   -0.28599E-02   -0.10023E-01  3921   0.834E-02    0.656E-01
RMM:   3    -0.413165488774E+03    0.39362E-02   -0.25147E-02  5003   0.616E-02    0.165E-01
RMM:   4    -0.413196557402E+03   -0.31069E-01   -0.37207E-02  5188   0.161E-01    0.742E-01
RMM:   5    -0.413163980507E+03    0.32577E-01   -0.15270E-02  4824   0.125E-01    0.532E-02
RMM:   6    -0.413164192033E+03   -0.21153E-03   -0.28463E-03  5734   0.521E-02    0.353E-02
RMM:   7    -0.413164198974E+03   -0.69416E-05   -0.49930E-04  5736   0.200E-02    0.228E-02
RMM:   8    -0.413164195086E+03    0.38880E-05   -0.64264E-05  5285   0.879E-03    0.983E-03
RMM:   9    -0.413164196683E+03   -0.15965E-05   -0.13387E-05  3863   0.389E-03    0.693E-03
RMM:  10    -0.413164201721E+03   -0.50379E-05   -0.25538E-06  2621   0.235E-03    0.421E-03
RMM:  11    -0.413164205196E+03   -0.34755E-05   -0.12362E-06  2523   0.165E-03    0.247E-03
RMM:  12    -0.413164211929E+03   -0.67323E-05   -0.17932E-06  2567   0.191E-03    0.111E-03
RMM:  13    -0.413164215589E+03   -0.36601E-05   -0.85530E-07  2447   0.137E-03    0.868E-04
RMM:  14    -0.413164215561E+03    0.28143E-07   -0.38662E-07  1968   0.911E-04
    2 T=    61. E= -.41286646E+03 F= -.41316422E+03 E0= -.41314171E+03  EK= 0.29776E+00 SP= 0.00E+00 SK= 0.00E+00
       N       E                     dE             d eps       ncg     rms          rms(c)
RMM:   1    -0.413167482279E+03   -0.32667E-02   -0.80805E+00  4188   0.580E-01    0.906E-01
RMM:   2    -0.413169618403E+03   -0.21361E-02   -0.99813E-02  3953   0.826E-02    0.653E-01
RMM:   3    -0.413165512501E+03    0.41059E-02   -0.23020E-02  4919   0.527E-02    0.125E-01
RMM:   4    -0.413192454317E+03   -0.26942E-01   -0.29405E-02  5159   0.144E-01    0.690E-01
RMM:   5    -0.413164615737E+03    0.27839E-01   -0.13124E-02  4817   0.115E-01    0.499E-02
RMM:   6    -0.413164809892E+03   -0.19415E-03   -0.24601E-03  5750   0.485E-02    0.359E-02
RMM:   7    -0.413164796403E+03    0.13489E-04   -0.45148E-04  5626   0.203E-02    0.227E-02
RMM:   8    -0.413164784992E+03    0.11411E-04   -0.59063E-05  5119   0.882E-03    0.106E-02
RMM:   9    -0.413164783135E+03    0.18569E-05   -0.12075E-05  3752   0.386E-03    0.773E-03
RMM:  10    -0.413164783150E+03   -0.14617E-07   -0.22175E-06  2589   0.242E-03
    3 T=    61. E= -.41286677E+03 F= -.41316478E+03 E0= -.41314229E+03  EK= 0.29801E+00 SP= 0.00E+00 SK= 0.00E+00
       N       E                     dE             d eps       ncg     rms          rms(c)
RMM:   1    -0.413166897841E+03   -0.21147E-02   -0.80240E+00  4221   0.583E-01    0.892E-01
RMM:   2    -0.413169195640E+03   -0.22978E-02   -0.99407E-02  4266   0.847E-02    0.647E-01
RMM:   3    -0.413172807501E+03   -0.36119E-02   -0.28344E-02  5174   0.956E-02    0.386E-01
RMM:   4    -0.413183247919E+03   -0.10440E-01   -0.36235E-02  5098   0.165E-01    0.566E-01
RMM:   5    -0.413164558442E+03    0.18689E-01   -0.66039E-03  4639   0.938E-02    0.574E-02
RMM:   6    -0.413164549886E+03    0.85565E-05   -0.14143E-03  5363   0.382E-02    0.322E-02
RMM:   7    -0.413164556762E+03   -0.68761E-05   -0.29788E-04  5888   0.163E-02    0.188E-02
RMM:   8    -0.413164552870E+03    0.38921E-05   -0.50367E-05  5083   0.845E-03    0.745E-03
RMM:   9    -0.413164551610E+03    0.12592E-05   -0.59551E-06  3114   0.326E-03    0.383E-03
RMM:  10    -0.413164552603E+03   -0.99263E-06   -0.14841E-06  2531   0.206E-03
    4 T=    61. E= -.41286656E+03 F= -.41316455E+03 E0= -.41314206E+03  EK= 0.29799E+00 SP= 0.00E+00 SK= 0.00E+00
       N       E                     dE             d eps       ncg     rms          rms(c)
RMM:   1    -0.413166916221E+03   -0.23646E-02   -0.80927E+00  4235   0.592E-01    0.887E-01
RMM:   2    -0.413169664981E+03   -0.27488E-02   -0.10052E-01  4036   0.825E-02    0.654E-01
RMM:   3    -0.413165995938E+03    0.36690E-02   -0.25054E-02  4970   0.603E-02    0.164E-01
RMM:   4    -0.413196880595E+03   -0.30885E-01   -0.35550E-02  5139   0.159E-01    0.742E-01
RMM:   5    -0.413164509172E+03    0.32371E-01   -0.14939E-02  4802   0.124E-01    0.519E-02
RMM:   6    -0.413164716454E+03   -0.20728E-03   -0.27267E-03  5741   0.516E-02    0.353E-02
RMM:   7    -0.413164714746E+03    0.17072E-05   -0.47288E-04  5721   0.201E-02    0.226E-02
RMM:   8    -0.413164710467E+03    0.42793E-05   -0.62408E-05  5188   0.894E-03    0.101E-02
RMM:   9    -0.413164711617E+03   -0.11500E-05   -0.12010E-05  3792   0.393E-03    0.711E-03
RMM:  10    -0.413164716167E+03   -0.45504E-05   -0.21308E-06  2583   0.235E-03    0.427E-03
RMM:  11    -0.413164719477E+03   -0.33094E-05   -0.11350E-06  2525   0.171E-03    0.243E-03
RMM:  12    -0.413164725332E+03   -0.58556E-05   -0.18813E-06  2600   0.198E-03    0.109E-03
RMM:  13    -0.413164728088E+03   -0.27559E-05   -0.77108E-07  2445   0.138E-03    0.897E-04
RMM:  14    -0.413164727794E+03    0.29413E-06   -0.27041E-07  1946   0.894E-04
    5 T=    61. E= -.41286665E+03 F= -.41316473E+03 E0= -.41314225E+03  EK= 0.29808E+00 SP= 0.00E+00 SK= 0.00E+00
       N       E                     dE             d eps       ncg     rms          rms(c)
RMM:   1    -0.413167790472E+03   -0.30624E-02   -0.80888E+00  4247   0.593E-01    0.903E-01
RMM:   2    -0.413169875032E+03   -0.20846E-02   -0.10008E-01  4058   0.819E-02    0.654E-01
RMM:   3    -0.413165960493E+03    0.39145E-02   -0.23317E-02  4915   0.527E-02    0.127E-01
RMM:   4    -0.413192863222E+03   -0.26903E-01   -0.29187E-02  5140   0.143E-01    0.690E-01
RMM:   5    -0.413165028632E+03    0.27835E-01   -0.13027E-02  4803   0.114E-01    0.498E-02
RMM:   6    -0.413165233241E+03   -0.20461E-03   -0.24925E-03  5747   0.482E-02    0.356E-02
RMM:   7    -0.413165221835E+03    0.11407E-04   -0.43709E-04  5613   0.201E-02    0.225E-02
RMM:   8    -0.413165210529E+03    0.11306E-04   -0.59045E-05  5068   0.883E-03    0.106E-02
RMM:   9    -0.413165208313E+03    0.22157E-05   -0.11772E-05  3751   0.387E-03    0.775E-03
RMM:  10    -0.413165208321E+03   -0.83019E-08   -0.21166E-06  2571   0.239E-03
    6 T=    61. E= -.41286686E+03 F= -.41316521E+03 E0= -.41314275E+03  EK= 0.29834E+00 SP= 0.00E+00 SK= 0.00E+00
       N       E                     dE             d eps       ncg     rms          rms(c)
RMM:   1    -0.413167547293E+03   -0.23390E-02   -0.80433E+00  4257   0.601E-01    0.898E-01
RMM:   2    -0.413169582750E+03   -0.20355E-02   -0.99668E-02  4294   0.828E-02    0.648E-01
RMM:   3    -0.413172971126E+03   -0.33884E-02   -0.27957E-02  5153   0.940E-02    0.381E-01
RMM:   4    -0.413183901919E+03   -0.10931E-01   -0.36069E-02  5082   0.165E-01    0.570E-01
RMM:   5    -0.413164962465E+03    0.18939E-01   -0.67226E-03  4645   0.937E-02    0.574E-02
RMM:   6    -0.413164955253E+03    0.72119E-05   -0.14193E-03  5374   0.383E-02    0.326E-02
RMM:   7    -0.413164962726E+03   -0.74727E-05   -0.29762E-04  5881   0.161E-02    0.188E-02
RMM:   8    -0.413164954781E+03    0.79445E-05   -0.50067E-05  5086   0.840E-03    0.745E-03
RMM:   9    -0.413164952151E+03    0.26307E-05   -0.57732E-06  3094   0.323E-03    0.382E-03
RMM:  10    -0.413164951966E+03    0.18470E-06   -0.14874E-06  2530   0.205E-03
    7 T=    61. E= -.41286652E+03 F= -.41316495E+03 E0= -.41314250E+03  EK= 0.29843E+00 SP= 0.00E+00 SK= 0.00E+00
       N       E                     dE             d eps       ncg     rms          rms(c)
RMM:   1    -0.413167718308E+03   -0.27662E-02   -0.80814E+00  4270   0.603E-01    0.886E-01
RMM:   2    -0.413170651512E+03   -0.29332E-02   -0.10015E-01  4100   0.835E-02    0.652E-01
RMM:   3    -0.413166801790E+03    0.38497E-02   -0.24709E-02  4958   0.601E-02    0.162E-01
RMM:   4    -0.413197882727E+03   -0.31081E-01   -0.35650E-02  5130   0.159E-01    0.744E-01
RMM:   5    -0.413165355057E+03    0.32528E-01   -0.15067E-02  4792   0.124E-01    0.518E-02
RMM:   6    -0.413165566670E+03   -0.21161E-03   -0.27192E-03  5730   0.515E-02    0.355E-02
RMM:   7    -0.413165561999E+03    0.46716E-05   -0.46803E-04  5692   0.201E-02    0.226E-02
RMM:   8    -0.413165555487E+03    0.65119E-05   -0.62997E-05  5213   0.889E-03    0.102E-02
RMM:   9    -0.413165554614E+03    0.87318E-06   -0.12005E-05  3819   0.392E-03    0.713E-03
RMM:  10    -0.413165557128E+03   -0.25144E-05   -0.20987E-06  2573   0.231E-03    0.427E-03
RMM:  11    -0.413165559112E+03   -0.19843E-05   -0.10944E-06  2523   0.168E-03    0.244E-03
RMM:  12    -0.413165562506E+03   -0.33935E-05   -0.18224E-06  2585   0.196E-03    0.112E-03
RMM:  13    -0.413165563948E+03   -0.14423E-05   -0.75120E-07  2435   0.138E-03    0.919E-04
RMM:  14    -0.413165563724E+03    0.22412E-06   -0.26293E-07  1947   0.887E-04
    8 T=    61. E= -.41286676E+03 F= -.41316556E+03 E0= -.41314313E+03  EK= 0.29881E+00 SP= 0.00E+00 SK= 0.00E+00
       N       E                     dE             d eps       ncg     rms          rms(c)
RMM:   1    -0.413168242179E+03   -0.26782E-02   -0.81093E+00  4281   0.606E-01    0.900E-01
RMM:   2    -0.413170768844E+03   -0.25267E-02   -0.10011E-01  4151   0.837E-02    0.656E-01
RMM:   3    -0.413166542329E+03    0.42265E-02   -0.23884E-02  4893   0.562E-02    0.134E-01
RMM:   4    -0.413194088569E+03   -0.27546E-01   -0.30086E-02  5127   0.146E-01    0.698E-01
RMM:   5    -0.413165530818E+03    0.28558E-01   -0.13432E-02  4797   0.116E-01    0.495E-02
RMM:   6    -0.413165727574E+03   -0.19676E-03   -0.24834E-03  5749   0.484E-02    0.351E-02
RMM:   7    -0.413165718613E+03    0.89615E-05   -0.42982E-04  5626   0.200E-02    0.222E-02
RMM:   8    -0.413165707975E+03    0.10637E-04   -0.59917E-05  5073   0.883E-03    0.105E-02
RMM:   9    -0.413165705886E+03    0.20895E-05   -0.11787E-05  3770   0.390E-03    0.763E-03
RMM:  10    -0.413165706271E+03   -0.38523E-06   -0.20870E-06  2573   0.235E-03
    9 T=    61. E= -.41286665E+03 F= -.41316571E+03 E0= -.41314330E+03  EK= 0.29906E+00 SP= 0.00E+00 SK= 0.00E+00
       N       E                     dE             d eps       ncg     rms          rms(c)
RMM:   1    -0.413168448691E+03   -0.27428E-02   -0.80783E+00  4293   0.617E-01    0.904E-01
RMM:   2    -0.413170640168E+03   -0.21915E-02   -0.99984E-02  4318   0.854E-02    0.650E-01
RMM:   3    -0.413173393020E+03   -0.27529E-02   -0.27706E-02  5140   0.935E-02    0.371E-01
RMM:   4    -0.413185397740E+03   -0.12005E-01   -0.36358E-02  5071   0.165E-01    0.579E-01
RMM:   5    -0.413165782642E+03    0.19615E-01   -0.70464E-03  4649   0.949E-02    0.573E-02
RMM:   6    -0.413165783995E+03   -0.13527E-05   -0.14856E-03  5390   0.389E-02    0.330E-02
RMM:   7    -0.413165788002E+03   -0.40072E-05   -0.30515E-04  5855   0.164E-02    0.191E-02
RMM:   8    -0.413165780686E+03    0.73159E-05   -0.50912E-05  5084   0.849E-03    0.758E-03
RMM:   9    -0.413165776909E+03    0.37776E-05   -0.61096E-06  3125   0.327E-03    0.394E-03
RMM:  10    -0.413165775617E+03    0.12918E-05   -0.15161E-06  2525   0.206E-03    0.243E-03
RMM:  11    -0.413165773726E+03    0.18906E-05   -0.10901E-06  2495   0.166E-03    0.127E-03
RMM:  12    -0.413165771700E+03    0.20265E-05   -0.74126E-07  2465   0.135E-03    0.546E-04
RMM:  13    -0.413165770444E+03    0.12563E-05   -0.36976E-07  2059   0.983E-04    0.320E-04
RMM:  14    -0.413165769102E+03    0.13411E-05   -0.23116E-07  1571   0.788E-04    0.203E-04
RMM:  15    -0.413165766863E+03    0.22397E-05   -0.26393E-07  1624   0.781E-04    0.208E-04
RMM:  16    -0.413165764780E+03    0.20822E-05   -0.19083E-07  1334   0.689E-04    0.156E-04
RMM:  17    -0.413165763075E+03    0.17058E-05   -0.13026E-07  1197   0.638E-04    0.749E-05
RMM:  18    -0.413165761705E+03    0.13697E-05   -0.87645E-08  1044   0.595E-04    0.460E-05
RMM:  19    -0.413165761147E+03    0.55749E-06   -0.42162E-08   820   0.546E-04
   10 T=    61. E= -.41286645E+03 F= -.41316576E+03 E0= -.41314338E+03  EK= 0.29931E+00 SP= 0.00E+00 SK= 0.00E+00
       N       E                     dE             d eps       ncg     rms          rms(c)
RMM:   1    -0.413168724484E+03   -0.29628E-02   -0.80732E+00  4288   0.615E-01    0.886E-01
RMM:   2    -0.413171407352E+03   -0.26829E-02   -0.10014E-01  4214   0.830E-02    0.651E-01
RMM:   3    -0.413167832991E+03    0.35744E-02   -0.24267E-02  4959   0.591E-02    0.161E-01
RMM:   4    -0.413199390256E+03   -0.31557E-01   -0.36505E-02  5123   0.160E-01    0.749E-01
RMM:   5    -0.413166359120E+03    0.33031E-01   -0.15371E-02  4778   0.124E-01    0.522E-02
RMM:   6    -0.413166571856E+03   -0.21274E-03   -0.27605E-03  5708   0.517E-02    0.359E-02
RMM:   7    -0.413166562358E+03    0.94979E-05   -0.47355E-04  5627   0.202E-02    0.227E-02
RMM:   8    -0.413166554846E+03    0.75114E-05   -0.64305E-05  5213   0.901E-03    0.103E-02
RMM:   9    -0.413166552979E+03    0.18678E-05   -0.12656E-05  3896   0.401E-03    0.718E-03
RMM:  10    -0.413166554464E+03   -0.14852E-05   -0.21243E-06  2582   0.233E-03    0.431E-03
RMM:  11    -0.413166555540E+03   -0.10762E-05   -0.10115E-06  2500   0.164E-03    0.252E-03
RMM:  12    -0.413166557424E+03   -0.18836E-05   -0.16206E-06  2545   0.193E-03    0.113E-03
RMM:  13    -0.413166558195E+03   -0.77090E-06   -0.69273E-07  2424   0.137E-03
   11 T=    61. E= -.41286678E+03 F= -.41316656E+03 E0= -.41314420E+03  EK= 0.29978E+00 SP= 0.00E+00 SK= 0.00E+00
       N       E                     dE             d eps       ncg     rms          rms(c)
RMM:   1    -0.413168950312E+03   -0.23929E-02   -0.81346E+00  4292   0.620E-01    0.897E-01
RMM:   2    -0.413171371087E+03   -0.24208E-02   -0.10085E-01  4227   0.827E-02    0.657E-01
RMM:   3    -0.413167468192E+03    0.39029E-02   -0.24463E-02  4901   0.566E-02    0.143E-01
RMM:   4    -0.413196091356E+03   -0.28623E-01   -0.31843E-02  5119   0.149E-01    0.712E-01
RMM:   5    -0.413166326635E+03    0.29765E-01   -0.13932E-02  4789   0.118E-01    0.500E-02
RMM:   6    -0.413166530076E+03   -0.20344E-03   -0.26117E-03  5754   0.492E-02    0.347E-02
RMM:   7    -0.413166524458E+03    0.56183E-05   -0.43180E-04  5657   0.199E-02    0.223E-02
RMM:   8    -0.413166515595E+03    0.88628E-05   -0.63513E-05  5043   0.897E-03    0.107E-02
RMM:   9    -0.413166513571E+03    0.20241E-05   -0.12392E-05  3842   0.403E-03    0.778E-03
RMM:  10    -0.413166514394E+03   -0.82375E-06   -0.20887E-06  2573   0.236E-03
   12 T=    61. E= -.41286648E+03 F= -.41316651E+03 E0= -.41314418E+03  EK= 0.30003E+00 SP= 0.00E+00 SK= 0.00E+00
       N       E                     dE             d eps       ncg     rms          rms(c)
RMM:   1    -0.413170809290E+03   -0.42957E-02   -0.81221E+00  4305   0.641E-01    0.909E-01
RMM:   2    -0.413171673123E+03   -0.86383E-03   -0.10037E-01  4322   0.837E-02    0.653E-01
RMM:   3    -0.413175783878E+03   -0.41108E-02   -0.28612E-02  5142   0.963E-02    0.395E-01
RMM:   4    -0.413185222960E+03   -0.94391E-02   -0.36177E-02  5059   0.164E-01    0.556E-01
RMM:   5    -0.413167147813E+03    0.18075E-01   -0.62434E-03  4620   0.913E-02    0.569E-02
RMM:   6    -0.413167143421E+03    0.43929E-05   -0.13985E-03  5348   0.371E-02    0.330E-02
RMM:   7    -0.413167147563E+03   -0.41423E-05   -0.28680E-04  5804   0.162E-02    0.188E-02
RMM:   8    -0.413167138951E+03    0.86120E-05   -0.48844E-05  5048   0.836E-03    0.739E-03
RMM:   9    -0.413167134219E+03    0.47322E-05   -0.55706E-06  3034   0.320E-03    0.384E-03
RMM:  10    -0.413167132078E+03    0.21404E-05   -0.14203E-06  2502   0.203E-03    0.235E-03
RMM:  11    -0.413167129034E+03    0.30448E-05   -0.10387E-06  2485   0.163E-03    0.124E-03
RMM:  12    -0.413167126203E+03    0.28310E-05   -0.66567E-07  2436   0.131E-03    0.542E-04
RMM:  13    -0.413167124396E+03    0.18062E-05   -0.34272E-07  2026   0.965E-04    0.331E-04
RMM:  14    -0.413167122581E+03    0.18156E-05   -0.20172E-07  1522   0.766E-04    0.212E-04
RMM:  15    -0.413167119150E+03    0.34305E-05   -0.23952E-07  1607   0.773E-04    0.224E-04
RMM:  16    -0.413167116545E+03    0.26055E-05   -0.15404E-07  1241   0.663E-04    0.139E-04
RMM:  17    -0.413167114359E+03    0.21853E-05   -0.11499E-07  1200   0.632E-04    0.688E-05
RMM:  18    -0.413167112818E+03    0.15409E-05   -0.69905E-08   988   0.579E-04    0.498E-05
RMM:  19    -0.413167112048E+03    0.77015E-06   -0.36668E-08   804   0.542E-04
   13 T=    61. E= -.41286658E+03 F= -.41316711E+03 E0= -.41314481E+03  EK= 0.30053E+00 SP= 0.00E+00 SK= 0.00E+00
       N       E                     dE             d eps       ncg     rms          rms(c)
RMM:   1    -0.413170032150E+03   -0.29193E-02   -0.80777E+00  4292   0.628E-01    0.888E-01
RMM:   2    -0.413172527488E+03   -0.24953E-02   -0.10022E-01  4237   0.823E-02    0.650E-01
RMM:   3    -0.413169005815E+03    0.35217E-02   -0.23844E-02  4977   0.584E-02    0.161E-01
RMM:   4    -0.413201020676E+03   -0.32015E-01   -0.37142E-02  5120   0.161E-01    0.754E-01
RMM:   5    -0.413167543865E+03    0.33477E-01   -0.15613E-02  4782   0.125E-01    0.524E-02
RMM:   6    -0.413167747964E+03   -0.20410E-03   -0.27720E-03  5720   0.519E-02    0.363E-02
RMM:   7    -0.413167734401E+03    0.13563E-04   -0.47636E-04  5627   0.203E-02    0.229E-02
RMM:   8    -0.413167724864E+03    0.95378E-05   -0.65746E-05  5219   0.909E-03    0.104E-02
RMM:   9    -0.413167721713E+03    0.31509E-05   -0.12734E-05  3896   0.403E-03    0.719E-03
RMM:  10    -0.413167721562E+03    0.15079E-06   -0.21251E-06  2572   0.233E-03
   14 T=    61. E= -.41286664E+03 F= -.41316772E+03 E0= -.41314545E+03  EK= 0.30108E+00 SP= 0.00E+00 SK= 0.00E+00
       N       E                     dE             d eps       ncg     rms          rms(c)
RMM:   1    -0.413170110670E+03   -0.23890E-02   -0.81668E+00  4304   0.634E-01    0.895E-01
RMM:   2    -0.413172964953E+03   -0.28543E-02   -0.10125E-01  4303   0.850E-02    0.659E-01
RMM:   3    -0.413176517920E+03   -0.35530E-02   -0.30429E-02  5127   0.985E-02    0.397E-01
RMM:   4    -0.413187638501E+03   -0.11121E-01   -0.38412E-02  5057   0.169E-01    0.584E-01
RMM:   5    -0.413167777035E+03    0.19861E-01   -0.72125E-03  4625   0.967E-02    0.562E-02
RMM:   6    -0.413167787853E+03   -0.10818E-04   -0.15048E-03  5371   0.383E-02    0.316E-02
RMM:   7    -0.413167803004E+03   -0.15151E-04   -0.29474E-04  5846   0.160E-02    0.185E-02
RMM:   8    -0.413167800949E+03    0.20548E-05   -0.50847E-05  5058   0.838E-03    0.732E-03
RMM:   9    -0.413167799254E+03    0.16953E-05   -0.57705E-06  3041   0.327E-03    0.381E-03
RMM:  10    -0.413167800351E+03   -0.10970E-05   -0.14214E-06  2510   0.200E-03    0.235E-03
RMM:  11    -0.413167801591E+03   -0.12400E-05   -0.10386E-06  2483   0.161E-03    0.124E-03
RMM:  12    -0.413167802061E+03   -0.47051E-06   -0.65679E-07  2432   0.129E-03
   15 T=    61. E= -.41286634E+03 F= -.41316780E+03 E0= -.41314557E+03  EK= 0.30147E+00 SP= 0.00E+00 SK= 0.00E+00
       N       E                     dE             d eps       ncg     rms          rms(c)
RMM:   1    -0.413171668833E+03   -0.38672E-02   -0.81528E+00  4294   0.640E-01    0.911E-01
RMM:   2    -0.413173770378E+03   -0.21015E-02   -0.10086E-01  4254   0.845E-02    0.656E-01
RMM:   3    -0.413170084616E+03    0.36858E-02   -0.23296E-02  4979   0.582E-02    0.156E-01
RMM:   4    -0.413202949488E+03   -0.32865E-01   -0.37889E-02  5117   0.163E-01    0.762E-01
RMM:   5    -0.413168676656E+03    0.34273E-01   -0.15933E-02  4780   0.126E-01    0.532E-02
RMM:   6    -0.413168882447E+03   -0.20579E-03   -0.29007E-03  5733   0.530E-02    0.374E-02
RMM:   7    -0.413168866616E+03    0.15830E-04   -0.49719E-04  5663   0.210E-02    0.238E-02
RMM:   8    -0.413168852406E+03    0.14211E-04   -0.69493E-05  5187   0.949E-03    0.111E-02
RMM:   9    -0.413168846420E+03    0.59859E-05   -0.13287E-05  3909   0.417E-03    0.768E-03
RMM:  10    -0.413168842433E+03    0.39870E-05   -0.23408E-06  2597   0.243E-03    0.455E-03
RMM:  11    -0.413168839965E+03    0.24676E-05   -0.11438E-06  2512   0.172E-03    0.267E-03
RMM:  12    -0.413168834847E+03    0.51181E-05   -0.18316E-06  2576   0.205E-03    0.120E-03
RMM:  13    -0.413168831488E+03    0.33587E-05   -0.74179E-07  2435   0.144E-03    0.100E-03
RMM:  14    -0.413168831542E+03   -0.53238E-07   -0.27977E-07  2023   0.929E-04
   16 T=    62. E= -.41286663E+03 F= -.41316883E+03 E0= -.41314663E+03  EK= 0.30220E+00 SP= 0.00E+00 SK= 0.00E+00
       N       E                     dE             d eps       ncg     rms          rms(c)
RMM:   1    -0.413171645663E+03   -0.28142E-02   -0.81051E+00  4294   0.641E-01    0.894E-01
RMM:   2    -0.413174222653E+03   -0.25770E-02   -0.10065E-01  4257   0.853E-02    0.650E-01
RMM:   3    -0.413170250800E+03    0.39719E-02   -0.23271E-02  4923   0.561E-02    0.140E-01
RMM:   4    -0.413200287377E+03   -0.30037E-01   -0.33591E-02  5119   0.153E-01    0.728E-01
RMM:   5    -0.413169128936E+03    0.31158E-01   -0.14757E-02  4782   0.121E-01    0.508E-02
RMM:   6    -0.413169323506E+03   -0.19457E-03   -0.26658E-03  5754   0.502E-02    0.357E-02
RMM:   7    -0.413169306225E+03    0.17281E-04   -0.44755E-04  5620   0.203E-02    0.227E-02
RMM:   8    -0.413169293555E+03    0.12671E-04   -0.66407E-05  5106   0.920E-03    0.109E-02
RMM:   9    -0.413169288861E+03    0.46936E-05   -0.12878E-05  3882   0.410E-03    0.777E-03
RMM:  10    -0.413169286309E+03    0.25521E-05   -0.21679E-06  2572   0.238E-03    0.461E-03
RMM:  11    -0.413169284557E+03    0.17515E-05   -0.12117E-06  2513   0.177E-03    0.261E-03
RMM:  12    -0.413169281272E+03    0.32858E-05   -0.17473E-06  2560   0.203E-03    0.116E-03
RMM:  13    -0.413169279052E+03    0.22194E-05   -0.62448E-07  2391   0.137E-03    0.926E-04
RMM:  14    -0.413169279130E+03   -0.78049E-07   -0.25862E-07  1972   0.888E-04
   17 T=    62. E= -.41286651E+03 F= -.41316928E+03 E0= -.41314712E+03  EK= 0.30277E+00 SP= 0.00E+00 SK= 0.00E+00
       N       E                     dE             d eps       ncg     rms          rms(c)
RMM:   1    -0.413172099903E+03   -0.28209E-02   -0.81961E+00  4295   0.645E-01    0.894E-01
RMM:   2    -0.413174866857E+03   -0.27670E-02   -0.10201E-01  4257   0.853E-02    0.660E-01
RMM:   3    -0.413170937179E+03    0.39297E-02   -0.25131E-02  4909   0.590E-02    0.154E-01
RMM:   4    -0.413201153871E+03   -0.30217E-01   -0.34266E-02  5111   0.155E-01    0.732E-01
RMM:   5    -0.413169652126E+03    0.31502E-01   -0.14898E-02  4780   0.121E-01    0.505E-02
RMM:   6    -0.413169843266E+03   -0.19114E-03   -0.26443E-03  5743   0.503E-02    0.348E-02
RMM:   7    -0.413169834560E+03    0.87059E-05   -0.44231E-04  5628   0.201E-02    0.223E-02
RMM:   8    -0.413169825410E+03    0.91498E-05   -0.65286E-05  5095   0.922E-03    0.105E-02
RMM:   9    -0.413169822690E+03    0.27204E-05   -0.12709E-05  3843   0.414E-03    0.748E-03
RMM:  10    -0.413169823049E+03   -0.35958E-06   -0.21302E-06  2582   0.236E-03
   18 T=    62. E= -.41286648E+03 F= -.41316982E+03 E0= -.41314770E+03  EK= 0.30335E+00 SP= 0.00E+00 SK= 0.00E+00
       N       E                     dE             d eps       ncg     rms          rms(c)
RMM:   1    -0.413173711790E+03   -0.38891E-02   -0.81946E+00  4300   0.652E-01    0.911E-01
RMM:   2    -0.413175756261E+03   -0.20445E-02   -0.10191E-01  4335   0.861E-02    0.659E-01
RMM:   3    -0.413179221138E+03   -0.34649E-02   -0.28768E-02  5131   0.959E-02    0.385E-01
RMM:   4    -0.413190614847E+03   -0.11394E-01   -0.37703E-02  5053   0.167E-01    0.579E-01
RMM:   5    -0.413170979890E+03    0.19635E-01   -0.69605E-03  4629   0.950E-02    0.567E-02
RMM:   6    -0.413170988801E+03   -0.89104E-05   -0.15395E-03  5384   0.384E-02    0.330E-02
RMM:   7    -0.413170983801E+03    0.49997E-05   -0.30322E-04  5825   0.166E-02    0.192E-02
RMM:   8    -0.413170975434E+03    0.83667E-05   -0.51655E-05  5030   0.867E-03    0.761E-03
RMM:   9    -0.413170970627E+03    0.48073E-05   -0.62628E-06  3126   0.334E-03    0.399E-03
RMM:  10    -0.413170968181E+03    0.24453E-05   -0.14490E-06  2505   0.205E-03    0.244E-03
RMM:  11    -0.413170964851E+03    0.33307E-05   -0.99757E-07  2481   0.162E-03    0.127E-03
RMM:  12    -0.413170961288E+03    0.35625E-05   -0.66190E-07  2441   0.132E-03    0.525E-04
RMM:  13    -0.413170959121E+03    0.21670E-05   -0.33364E-07  2040   0.967E-04    0.321E-04
RMM:  14    -0.413170957166E+03    0.19556E-05   -0.18841E-07  1518   0.760E-04    0.211E-04
RMM:  15    -0.413170953056E+03    0.41099E-05   -0.20076E-07  1536   0.756E-04    0.217E-04
RMM:  16    -0.413170950164E+03    0.28914E-05   -0.12066E-07  1186   0.646E-04    0.158E-04
RMM:  17    -0.413170947431E+03    0.27335E-05   -0.98316E-08  1151   0.624E-04    0.727E-05
RMM:  18    -0.413170945074E+03    0.23567E-05   -0.67676E-08  1010   0.592E-04    0.439E-05
RMM:  19    -0.413170944272E+03    0.80169E-06   -0.30006E-08   779   0.549E-04
   19 T=    62. E= -.41286677E+03 F= -.41317094E+03 E0= -.41314887E+03  EK= 0.30417E+00 SP= 0.00E+00 SK= 0.00E+00
       N       E                     dE             d eps       ncg     rms          rms(c)
RMM:   1    -0.413173931639E+03   -0.29866E-02   -0.81519E+00  4295   0.658E-01    0.901E-01
RMM:   2    -0.413175996937E+03   -0.20653E-02   -0.10159E-01  4262   0.862E-02    0.653E-01
RMM:   3    -0.413172769976E+03    0.32270E-02   -0.23276E-02  4990   0.584E-02    0.163E-01
RMM:   4    -0.413206151657E+03   -0.33382E-01   -0.39250E-02  5115   0.165E-01    0.769E-01
RMM:   5    -0.413171235857E+03    0.34916E-01   -0.16273E-02  4777   0.128E-01    0.539E-02
RMM:   6    -0.413171436303E+03   -0.20045E-03   -0.29574E-03  5714   0.533E-02    0.373E-02
RMM:   7    -0.413171422540E+03    0.13763E-04   -0.50193E-04  5639   0.210E-02    0.238E-02
RMM:   8    -0.413171410902E+03    0.11638E-04   -0.71291E-05  5211   0.972E-03    0.109E-02
RMM:   9    -0.413171405299E+03    0.56033E-05   -0.14065E-05  3977   0.428E-03    0.746E-03
RMM:  10    -0.413171401929E+03    0.33698E-05   -0.23147E-06  2587   0.242E-03    0.450E-03
RMM:  11    -0.413171399949E+03    0.19806E-05   -0.10513E-06  2503   0.167E-03    0.269E-03
RMM:  12    -0.413171395721E+03    0.42271E-05   -0.16642E-06  2547   0.200E-03    0.120E-03
RMM:  13    -0.413171393068E+03    0.26531E-05   -0.73310E-07  2415   0.143E-03    0.963E-04
RMM:  14    -0.413171392887E+03    0.18083E-06   -0.28794E-07  2047   0.942E-04
   20 T=    62. E= -.41286653E+03 F= -.41317139E+03 E0= -.41314936E+03  EK= 0.30487E+00 SP= 0.00E+00 SK= 0.00E+00
       N       E                     dE             d eps       ncg     rms          rms(c)
RMM:   1    -0.413174879454E+03   -0.34864E-02   -0.82251E+00  4294   0.664E-01    0.894E-01
RMM:   2    -0.413177492668E+03   -0.26132E-02   -0.10280E-01  4263   0.870E-02    0.660E-01
RMM:   3    -0.413173506423E+03    0.39862E-02   -0.24865E-02  4915   0.565E-02    0.146E-01
RMM:   4    -0.413202577452E+03   -0.29071E-01   -0.32604E-02  5126   0.151E-01    0.718E-01
RMM:   5    -0.413172325712E+03    0.30252E-01   -0.14427E-02  4785   0.119E-01    0.500E-02
RMM:   6    -0.413172512229E+03   -0.18652E-03   -0.26115E-03  5770   0.495E-02    0.341E-02
RMM:   7    -0.413172510019E+03    0.22098E-05   -0.42421E-04  5625   0.199E-02    0.219E-02
RMM:   8    -0.413172501325E+03    0.86940E-05   -0.68145E-05  5080   0.922E-03    0.108E-02
RMM:   9    -0.413172497699E+03    0.36258E-05   -0.13196E-05  3936   0.416E-03    0.776E-03
RMM:  10    -0.413172497198E+03    0.50094E-06   -0.20915E-06  2562   0.235E-03
   21 T=    62. E= -.41286663E+03 F= -.41317250E+03 E0= -.41315051E+03  EK= 0.30587E+00 SP= 0.00E+00 SK= 0.00E+00
       N       E                     dE             d eps       ncg     rms          rms(c)
RMM:   1    -0.413180759644E+03   -0.82619E-02   -0.82986E+00  4303   0.696E-01    0.911E-01
RMM:   2    -0.413178620908E+03    0.21387E-02   -0.10238E-01  4345   0.854E-02    0.662E-01
RMM:   3    -0.413182230507E+03   -0.36096E-02   -0.29642E-02  5131   0.977E-02    0.394E-01
RMM:   4    -0.413193246905E+03   -0.11016E-01   -0.38219E-02  5056   0.168E-01    0.579E-01
RMM:   5    -0.413173612481E+03    0.19634E-01   -0.69907E-03  4628   0.955E-02    0.558E-02
RMM:   6    -0.413173622693E+03   -0.10212E-04   -0.15292E-03  5390   0.385E-02    0.329E-02
RMM:   7    -0.413173620600E+03    0.20925E-05   -0.30002E-04  5748   0.164E-02    0.191E-02
RMM:   8    -0.413173613912E+03    0.66885E-05   -0.50508E-05  5027   0.849E-03    0.748E-03
RMM:   9    -0.413173609113E+03    0.47987E-05   -0.59714E-06  3084   0.325E-03    0.395E-03
RMM:  10    -0.413173606709E+03    0.24047E-05   -0.14587E-06  2508   0.203E-03    0.242E-03
RMM:  11    -0.413173603625E+03    0.30840E-05   -0.92732E-07  2466   0.158E-03    0.125E-03
RMM:  12    -0.413173600038E+03    0.35861E-05   -0.64393E-07  2432   0.129E-03    0.504E-04
RMM:  13    -0.413173597906E+03    0.21324E-05   -0.31786E-07  2000   0.947E-04    0.312E-04
RMM:  14    -0.413173595954E+03    0.19520E-05   -0.17831E-07  1499   0.748E-04    0.200E-04
RMM:  15    -0.413173591979E+03    0.39753E-05   -0.17259E-07  1456   0.731E-04    0.203E-04
RMM:  16    -0.413173589046E+03    0.29331E-05   -0.10463E-07  1092   0.637E-04    0.155E-04
RMM:  17    -0.413173586410E+03    0.26359E-05   -0.82914E-08  1089   0.620E-04    0.746E-05
RMM:  18    -0.413173584129E+03    0.22804E-05   -0.60313E-08  1016   0.591E-04    0.382E-05
RMM:  19    -0.413173582870E+03    0.12593E-05   -0.32924E-08   834   0.555E-04    0.291E-05
RMM:  20    -0.413173582460E+03    0.40987E-06   -0.15415E-08   693   0.535E-04
   22 T=    62. E= -.41286669E+03 F= -.41317358E+03 E0= -.41315164E+03  EK= 0.30689E+00 SP= 0.00E+00 SK= 0.00E+00
       N       E                     dE             d eps       ncg     rms          rms(c)
RMM:   1    -0.413178003332E+03   -0.44205E-02   -0.82389E+00  4294   0.696E-01    0.910E-01
RMM:   2    -0.413179282670E+03   -0.12793E-02   -0.10275E-01  4282   0.877E-02    0.657E-01
RMM:   3    -0.413175464906E+03    0.38178E-02   -0.23203E-02  4945   0.592E-02    0.153E-01
RMM:   4    -0.413208679908E+03   -0.33215E-01   -0.38113E-02  5119   0.163E-01    0.765E-01
RMM:   5    -0.413174118305E+03    0.34562E-01   -0.16268E-02  4776   0.127E-01    0.533E-02
RMM:   6    -0.413174318504E+03   -0.20020E-03   -0.29668E-03  5736   0.533E-02    0.376E-02
RMM:   7    -0.413174304466E+03    0.14037E-04   -0.50029E-04  5621   0.213E-02    0.239E-02
RMM:   8    -0.413174291294E+03    0.13172E-04   -0.73718E-05  5209   0.972E-03    0.114E-02
RMM:   9    -0.413174284804E+03    0.64896E-05   -0.13989E-05  3996   0.429E-03    0.790E-03
RMM:  10    -0.413174280295E+03    0.45090E-05   -0.23336E-06  2590   0.245E-03    0.474E-03
RMM:  11    -0.413174277492E+03    0.28029E-05   -0.11184E-06  2501   0.173E-03    0.282E-03
RMM:  12    -0.413174271762E+03    0.57306E-05   -0.18675E-06  2577   0.209E-03    0.126E-03
RMM:  13    -0.413174268070E+03    0.36919E-05   -0.73776E-07  2414   0.146E-03    0.103E-03
RMM:  14    -0.413174268114E+03   -0.44194E-07   -0.28691E-07  2049   0.943E-04
   23 T=    63. E= -.41286648E+03 F= -.41317427E+03 E0= -.41315237E+03  EK= 0.30779E+00 SP= 0.00E+00 SK= 0.00E+00
       N       E                     dE             d eps       ncg     rms          rms(c)
RMM:   1    -0.413178173430E+03   -0.39054E-02   -0.82627E+00  4298   0.671E-01    0.896E-01
RMM:   2    -0.413181262070E+03   -0.30886E-02   -0.10322E-01  4287   0.883E-02    0.660E-01
RMM:   3    -0.413176658289E+03    0.46038E-02   -0.24553E-02  4848   0.593E-02    0.133E-01
RMM:   4    -0.413203265260E+03   -0.26607E-01   -0.29055E-02  5115   0.143E-01    0.686E-01
RMM:   5    -0.413175698376E+03    0.27567E-01   -0.13211E-02  4785   0.114E-01    0.489E-02
RMM:   6    -0.413175870353E+03   -0.17198E-03   -0.24403E-03  5796   0.472E-02    0.325E-02
RMM:   7    -0.413175870181E+03    0.17218E-06   -0.35922E-04  5636   0.187E-02    0.201E-02
RMM:   8    -0.413175860338E+03    0.98425E-05   -0.67682E-05  5017   0.891E-03    0.110E-02
RMM:   9    -0.413175855527E+03    0.48113E-05   -0.12811E-05  3953   0.416E-03    0.801E-03
RMM:  10    -0.413175853847E+03    0.16800E-05   -0.20453E-06  2563   0.236E-03    0.476E-03
RMM:  11    -0.413175852491E+03    0.13561E-05   -0.14403E-06  2523   0.192E-03    0.255E-03
RMM:  12    -0.413175850282E+03    0.22089E-05   -0.16458E-06  2541   0.198E-03    0.112E-03
RMM:  13    -0.413175848980E+03    0.13021E-05   -0.52262E-07  2337   0.129E-03    0.718E-04
RMM:  14    -0.413175848679E+03    0.30015E-06   -0.24050E-07  1907   0.858E-04
   24 T=    63. E= -.41286681E+03 F= -.41317585E+03 E0= -.41315400E+03  EK= 0.30904E+00 SP= 0.00E+00 SK= 0.00E+00
       N       E                     dE             d eps       ncg     rms          rms(c)
RMM:   1    -0.413179448683E+03   -0.35997E-02   -0.83280E+00  4294   0.676E-01    0.910E-01
RMM:   2    -0.413182120555E+03   -0.26719E-02   -0.10396E-01  4286   0.893E-02    0.666E-01
RMM:   3    -0.413177646753E+03    0.44738E-02   -0.24443E-02  4845   0.589E-02    0.129E-01
RMM:   4    -0.413204484592E+03   -0.26838E-01   -0.29188E-02  5115   0.143E-01    0.688E-01
RMM:   5    -0.413176732943E+03    0.27752E-01   -0.13264E-02  4786   0.115E-01    0.494E-02
RMM:   6    -0.413176898625E+03   -0.16568E-03   -0.24830E-03  5793   0.477E-02    0.341E-02
RMM:   7    -0.413176890284E+03    0.83406E-05   -0.40158E-04  5598   0.197E-02    0.216E-02
RMM:   8    -0.413176877262E+03    0.13022E-04   -0.65568E-05  5046   0.916E-03    0.110E-02
RMM:   9    -0.413176872065E+03    0.51973E-05   -0.12711E-05  3884   0.411E-03    0.797E-03
RMM:  10    -0.413176869382E+03    0.26836E-05   -0.20882E-06  2568   0.238E-03    0.474E-03
RMM:  11    -0.413176867170E+03    0.22120E-05   -0.13820E-06  2520   0.189E-03    0.253E-03
RMM:  12    -0.413176863712E+03    0.34574E-05   -0.16445E-06  2538   0.198E-03    0.111E-03
RMM:  13    -0.413176861861E+03    0.18508E-05   -0.53730E-07  2351   0.130E-03    0.750E-04
RMM:  14    -0.413176861545E+03    0.31647E-06   -0.24379E-07  1915   0.864E-04
   25 T=    63. E= -.41286668E+03 F= -.41317686E+03 E0= -.41315506E+03  EK= 0.31019E+00 SP= 0.00E+00 SK= 0.00E+00
       N       E                     dE             d eps       ncg     rms          rms(c)
RMM:   1    -0.413183527546E+03   -0.66657E-02   -0.83439E+00  4293   0.731E-01    0.919E-01
RMM:   2    -0.413183103750E+03    0.42380E-03   -0.10882E-01  4285   0.957E-02    0.663E-01
RMM:   3    -0.413178737166E+03    0.43666E-02   -0.22450E-02  4808   0.560E-02    0.109E-01
RMM:   4    -0.413203750963E+03   -0.25014E-01   -0.26429E-02  5127   0.136E-01    0.663E-01
RMM:   5    -0.413178082562E+03    0.25668E-01   -0.12526E-02  4793   0.110E-01    0.492E-02
RMM:   6    -0.413178226901E+03   -0.14434E-03   -0.23175E-03  5819   0.458E-02    0.342E-02
RMM:   7    -0.413178214054E+03    0.12846E-04   -0.36728E-04  5587   0.193E-02    0.209E-02
RMM:   8    -0.413178200447E+03    0.13608E-04   -0.62690E-05  4989   0.893E-03    0.110E-02
RMM:   9    -0.413178193886E+03    0.65604E-05   -0.12263E-05  3864   0.406E-03    0.806E-03
RMM:  10    -0.413178188514E+03    0.53726E-05   -0.20821E-06  2563   0.240E-03    0.473E-03
RMM:  11    -0.413178183533E+03    0.49802E-05   -0.14963E-06  2528   0.196E-03    0.247E-03
RMM:  12    -0.413178176609E+03    0.69247E-05   -0.15912E-06  2540   0.197E-03    0.107E-03
RMM:  13    -0.413178173359E+03    0.32494E-05   -0.52892E-07  2336   0.129E-03    0.699E-04
RMM:  14    -0.413178172857E+03    0.50246E-06   -0.24837E-07  1903   0.864E-04
   26 T=    63. E= -.41286669E+03 F= -.41317817E+03 E0= -.41315642E+03  EK= 0.31149E+00 SP= 0.00E+00 SK= 0.00E+00
       N       E                     dE             d eps       ncg     rms          rms(c)
RMM:   1    -0.413184190777E+03   -0.60174E-02   -0.83361E+00  4291   0.711E-01    0.901E-01
RMM:   2    -0.413184965838E+03   -0.77506E-03   -0.10441E-01  4281   0.945E-02    0.661E-01
RMM:   3    -0.413180622142E+03    0.43437E-02   -0.24106E-02  4791   0.582E-02    0.117E-01
RMM:   4    -0.413203568792E+03   -0.22947E-01   -0.24336E-02  5125   0.132E-01    0.637E-01
RMM:   5    -0.413179895685E+03    0.23673E-01   -0.11438E-02  4794   0.105E-01    0.476E-02
RMM:   6    -0.413180034688E+03   -0.13900E-03   -0.21207E-03  5820   0.435E-02    0.322E-02
RMM:   7    -0.413180032121E+03    0.25675E-05   -0.32371E-04  5591   0.183E-02    0.196E-02
RMM:   8    -0.413180022129E+03    0.99916E-05   -0.57988E-05  4947   0.856E-03    0.106E-02
RMM:   9    -0.413180017023E+03    0.51062E-05   -0.11072E-05  3752   0.394E-03    0.767E-03
RMM:  10    -0.413180014121E+03    0.29023E-05   -0.19662E-06  2557   0.238E-03    0.444E-03
RMM:  11    -0.413180011310E+03    0.28112E-05   -0.15257E-06  2530   0.198E-03    0.225E-03
RMM:  12    -0.413180007618E+03    0.36912E-05   -0.13572E-06  2504   0.185E-03    0.101E-03
RMM:  13    -0.413180005981E+03    0.16371E-05   -0.47537E-07  2307   0.122E-03    0.642E-04
RMM:  14    -0.413180005348E+03    0.63352E-06   -0.22313E-07  1811   0.832E-04
   27 T=    64. E= -.41286697E+03 F= -.41318001E+03 E0= -.41315831E+03  EK= 0.31303E+00 SP= 0.00E+00 SK= 0.00E+00
       N       E                     dE             d eps       ncg     rms          rms(c)
RMM:   1    -0.413188145186E+03   -0.81392E-02   -0.84668E+00  4291   0.734E-01    0.908E-01
RMM:   2    -0.413186312849E+03    0.18323E-02   -0.11670E-01  4279   0.100E-01    0.672E-01
RMM:   3    -0.413181519011E+03    0.47938E-02   -0.23251E-02  4745   0.558E-02    0.104E-01
RMM:   4    -0.413203129463E+03   -0.21610E-01   -0.22543E-02  5136   0.126E-01    0.618E-01
RMM:   5    -0.413180937561E+03    0.22192E-01   -0.10869E-02  4800   0.102E-01    0.469E-02
RMM:   6    -0.413181067761E+03   -0.13020E-03   -0.19952E-03  5840   0.420E-02    0.319E-02
RMM:   7    -0.413181064138E+03    0.36237E-05   -0.30864E-04  5573   0.179E-02    0.191E-02
RMM:   8    -0.413181055998E+03    0.81399E-05   -0.54743E-05  4919   0.835E-03    0.103E-02
RMM:   9    -0.413181051654E+03    0.43439E-05   -0.10614E-05  3675   0.385E-03    0.749E-03
RMM:  10    -0.413181049839E+03    0.18144E-05   -0.19236E-06  2544   0.235E-03    0.432E-03
RMM:  11    -0.413181047984E+03    0.18559E-05   -0.15537E-06  2536   0.198E-03    0.215E-03
RMM:  12    -0.413181045479E+03    0.25050E-05   -0.13030E-06  2502   0.182E-03    0.102E-03
RMM:  13    -0.413181044308E+03    0.11701E-05   -0.46865E-07  2304   0.121E-03    0.640E-04
RMM:  14    -0.413181043691E+03    0.61744E-06   -0.22091E-07  1820   0.828E-04
   28 T=    64. E= -.41286660E+03 F= -.41318104E+03 E0= -.41315940E+03  EK= 0.31444E+00 SP= 0.00E+00 SK= 0.00E+00
       N       E                     dE             d eps       ncg     rms          rms(c)
RMM:   1    -0.413187465612E+03   -0.64213E-02   -0.84404E+00  4291   0.743E-01    0.927E-01
RMM:   2    -0.413188298067E+03   -0.83246E-03   -0.10768E-01  4278   0.101E-01    0.668E-01
RMM:   3    -0.413183563150E+03    0.47349E-02   -0.23132E-02  4720   0.544E-02    0.970E-02
RMM:   4    -0.413202439120E+03   -0.18876E-01   -0.19554E-02  5136   0.117E-01    0.578E-01
RMM:   5    -0.413183081898E+03    0.19357E-01   -0.95615E-03  4805   0.951E-02    0.469E-02
RMM:   6    -0.413183185205E+03   -0.10331E-03   -0.17846E-03  5846   0.393E-02    0.313E-02
RMM:   7    -0.413183176893E+03    0.83122E-05   -0.23598E-04  5551   0.164E-02    0.166E-02
RMM:   8    -0.413183169487E+03    0.74058E-05   -0.44132E-05  4895   0.724E-03    0.102E-02
RMM:   9    -0.413183163573E+03    0.59138E-05   -0.87514E-06  3519   0.352E-03    0.739E-03
RMM:  10    -0.413183158557E+03    0.50162E-05   -0.17809E-06  2530   0.230E-03    0.414E-03
RMM:  11    -0.413183153208E+03    0.53489E-05   -0.15670E-06  2542   0.198E-03    0.210E-03
RMM:  12    -0.413183146931E+03    0.62775E-05   -0.12250E-06  2497   0.177E-03    0.106E-03
RMM:  13    -0.413183144633E+03    0.22974E-05   -0.45906E-07  2288   0.118E-03    0.646E-04
RMM:  14    -0.413183143470E+03    0.11628E-05   -0.21427E-07  1777   0.819E-04    0.484E-04
RMM:  15    -0.413183139367E+03    0.41034E-05   -0.18419E-07  1914   0.799E-04    0.324E-04
RMM:  16    -0.413183134968E+03    0.43989E-05   -0.13452E-07  1608   0.703E-04    0.432E-04
RMM:  17    -0.413183133358E+03    0.16098E-05   -0.43363E-08   879   0.544E-04    0.326E-04
RMM:  18    -0.413183128806E+03    0.45525E-05   -0.68292E-08  1044   0.604E-04    0.656E-05
RMM:  19    -0.413183127501E+03    0.13048E-05   -0.29705E-08   838   0.567E-04    0.858E-05
RMM:  20    -0.413183126937E+03    0.56365E-06   -0.16896E-08   754   0.552E-04
   29 T=    64. E= -.41286684E+03 F= -.41318313E+03 E0= -.41316153E+03  EK= 0.31628E+00 SP= 0.00E+00 SK= 0.00E+00
       N       E                     dE             d eps       ncg     rms          rms(c)
RMM:   1    -0.413190102371E+03   -0.69749E-02   -0.84337E+00  4290   0.741E-01    0.910E-01
RMM:   2    -0.413190453464E+03   -0.35109E-03   -0.10824E-01  4277   0.104E-01    0.665E-01
RMM:   3    -0.413185503683E+03    0.49498E-02   -0.23575E-02  4720   0.598E-02    0.105E-01
RMM:   4    -0.413206514980E+03   -0.21011E-01   -0.21894E-02  5132   0.124E-01    0.610E-01
RMM:   5    -0.413184915332E+03    0.21600E-01   -0.10648E-02  4800   0.100E-01    0.470E-02
RMM:   6    -0.413185030033E+03   -0.11470E-03   -0.19403E-03  5855   0.409E-02    0.308E-02
RMM:   7    -0.413185025819E+03    0.42140E-05   -0.22616E-04  5567   0.158E-02    0.153E-02
RMM:   8    -0.413185020756E+03    0.50625E-05   -0.37266E-05  4795   0.651E-03    0.965E-03
RMM:   9    -0.413185016693E+03    0.40637E-05   -0.92076E-06  3592   0.342E-03    0.721E-03
RMM:  10    -0.413185014199E+03    0.24936E-05   -0.18106E-06  2542   0.229E-03    0.425E-03
RMM:  11    -0.413185011461E+03    0.27380E-05   -0.15652E-06  2538   0.196E-03    0.224E-03
RMM:  12    -0.413185007371E+03    0.40905E-05   -0.14091E-06  2497   0.189E-03    0.116E-03
RMM:  13    -0.413185005885E+03    0.14857E-05   -0.46946E-07  2330   0.123E-03    0.716E-04
RMM:  14    -0.413185005354E+03    0.53147E-06   -0.20688E-07  1787   0.815E-04
   30 T=    65. E= -.41286684E+03 F= -.41318501E+03 E0= -.41316346E+03  EK= 0.31816E+00 SP= 0.00E+00 SK= 0.00E+00
       N       E                     dE             d eps       ncg     rms          rms(c)
RMM:   1    -0.413189478185E+03   -0.44723E-02   -0.85352E+00  4294   0.733E-01    0.914E-01
RMM:   2    -0.413192575734E+03   -0.30975E-02   -0.10882E-01  4271   0.107E-01    0.676E-01
RMM:   3    -0.413187199927E+03    0.53758E-02   -0.25637E-02  4631   0.638E-02    0.107E-01
RMM:   4    -0.413202917144E+03   -0.15717E-01   -0.16229E-02  5137   0.108E-01    0.531E-01
RMM:   5    -0.413186673071E+03    0.16244E-01   -0.80115E-03  4807   0.870E-02    0.447E-02
RMM:   6    -0.413186755466E+03   -0.82395E-04   -0.15024E-03  5852   0.356E-02    0.284E-02
RMM:   7    -0.413186758149E+03   -0.26822E-05   -0.18056E-04  5487   0.144E-02    0.142E-02
RMM:   8    -0.413186750752E+03    0.73960E-05   -0.26580E-05  4546   0.563E-03    0.840E-03
RMM:   9    -0.413186750765E+03   -0.12275E-07   -0.77680E-06  3458   0.322E-03
   31 T=    65. E= -.41286667E+03 F= -.41318675E+03 E0= -.41316525E+03  EK= 0.32008E+00 SP= 0.00E+00 SK= 0.00E+00
       N       E                     dE             d eps       ncg     rms          rms(c)
RMM:   1    -0.413196073842E+03   -0.93231E-02   -0.85917E+00  4296   0.780E-01    0.933E-01
RMM:   2    -0.413194860638E+03    0.12132E-02   -0.11678E-01  4310   0.113E-01    0.677E-01
RMM:   3    -0.413194578806E+03    0.28183E-03   -0.26278E-02  5044   0.949E-02    0.310E-01
RMM:   4    -0.413219649900E+03   -0.25071E-01   -0.44395E-02  5062   0.179E-01    0.716E-01
RMM:   5    -0.413189210146E+03    0.30440E-01   -0.12152E-02  4705   0.116E-01    0.584E-02
RMM:   6    -0.413189311516E+03   -0.10137E-03   -0.25171E-03  5684   0.478E-02    0.359E-02
RMM:   7    -0.413189316030E+03   -0.45135E-05   -0.42929E-04  5725   0.194E-02    0.230E-02
RMM:   8    -0.413189308617E+03    0.74125E-05   -0.75347E-05  5112   0.101E-02    0.995E-03
RMM:   9    -0.413189300449E+03    0.81687E-05   -0.11298E-05  3724   0.424E-03    0.513E-03
RMM:  10    -0.413189295466E+03    0.49822E-05   -0.23515E-06  2604   0.238E-03    0.327E-03
RMM:  11    -0.413189290012E+03    0.54545E-05   -0.11706E-06  2501   0.178E-03    0.169E-03
RMM:  12    -0.413189282570E+03    0.74416E-05   -0.93341E-07  2471   0.154E-03    0.618E-04
RMM:  13    -0.413189278879E+03    0.36913E-05   -0.46262E-07  2275   0.113E-03    0.407E-04
RMM:  14    -0.413189276624E+03    0.22546E-05   -0.24381E-07  1785   0.843E-04    0.311E-04
RMM:  15    -0.413189270283E+03    0.63410E-05   -0.19436E-07  1651   0.783E-04    0.266E-04
RMM:  16    -0.413189265740E+03    0.45432E-05   -0.11413E-07  1199   0.660E-04    0.227E-04
RMM:  17    -0.413189261260E+03    0.44807E-05   -0.89728E-08  1138   0.637E-04    0.142E-04
RMM:  18    -0.413189258951E+03    0.23087E-05   -0.60725E-08  1041   0.605E-04    0.529E-05
RMM:  19    -0.413189255869E+03    0.30816E-05   -0.56427E-08  1141   0.610E-04    0.580E-05
RMM:  20    -0.413189255660E+03    0.20934E-06   -0.21246E-08   745   0.539E-04
   32 T=    66. E= -.41286692E+03 F= -.41318926E+03 E0= -.41316781E+03  EK= 0.32233E+00 SP= 0.00E+00 SK= 0.00E+00
       N       E                     dE             d eps       ncg     rms          rms(c)
RMM:   1    -0.413197999226E+03   -0.87434E-02   -0.85791E+00  4300   0.803E-01    0.922E-01
RMM:   2    -0.413196420628E+03    0.15786E-02   -0.11777E-01  4277   0.117E-01    0.672E-01
RMM:   3    -0.413191335981E+03    0.50846E-02   -0.22821E-02  4479   0.675E-02    0.760E-02
RMM:   4    -0.413200457678E+03   -0.91217E-02   -0.92372E-03  5140   0.812E-02    0.406E-01
RMM:   5    -0.413191131093E+03    0.93266E-02   -0.47398E-03  4821   0.664E-02    0.434E-02
RMM:   6    -0.413191181416E+03   -0.50323E-04   -0.10366E-03  5785   0.294E-02    0.296E-02
RMM:   7    -0.413191172628E+03    0.87887E-05   -0.25778E-04  5335   0.165E-02    0.191E-02
RMM:   8    -0.413191156289E+03    0.16339E-04   -0.26170E-05  4542   0.648E-03    0.840E-03
RMM:   9    -0.413191153999E+03    0.22899E-05   -0.47277E-06  2905   0.275E-03    0.576E-03
RMM:  10    -0.413191150111E+03    0.38873E-05   -0.16860E-06  2520   0.210E-03    0.305E-03
RMM:  11    -0.413191146214E+03    0.38972E-05   -0.10880E-06  2473   0.173E-03    0.152E-03
RMM:  12    -0.413191142509E+03    0.37047E-05   -0.62315E-07  2368   0.132E-03    0.765E-04
RMM:  13    -0.413191140455E+03    0.20545E-05   -0.31073E-07  1993   0.947E-04    0.356E-04
RMM:  14    -0.413191138121E+03    0.23337E-05   -0.17031E-07  1561   0.749E-04    0.229E-04
RMM:  15    -0.413191134535E+03    0.35863E-05   -0.10638E-07  1277   0.672E-04    0.129E-04
RMM:  16    -0.413191131507E+03    0.30282E-05   -0.63658E-08  1000   0.620E-04    0.874E-05
RMM:  17    -0.413191128757E+03    0.27497E-05   -0.47303E-08   969   0.603E-04    0.551E-05
RMM:  18    -0.413191124970E+03    0.37866E-05   -0.53503E-08  1083   0.615E-04    0.451E-05
RMM:  19    -0.413191124170E+03    0.79978E-06   -0.19447E-08   759   0.553E-04
   33 T=    66. E= -.41286670E+03 F= -.41319112E+03 E0= -.41316972E+03  EK= 0.32442E+00 SP= 0.00E+00 SK= 0.00E+00
       N       E                     dE             d eps       ncg     rms          rms(c)
RMM:   1    -0.413202113533E+03   -0.10989E-01   -0.87142E+00  4305   0.811E-01    0.916E-01
RMM:   2    -0.413199047994E+03    0.30655E-02   -0.12549E-01  4271   0.122E-01    0.683E-01
RMM:   3    -0.413193609047E+03    0.54389E-02   -0.23551E-02  4366   0.714E-02    0.675E-02
RMM:   4    -0.413197202009E+03   -0.35930E-02   -0.37616E-03  5150   0.526E-02    0.259E-01
RMM:   5    -0.413193483828E+03    0.37182E-02   -0.19341E-03  4824   0.428E-02    0.411E-02
RMM:   6    -0.413193533235E+03   -0.49407E-04   -0.67396E-04  5621   0.242E-02    0.310E-02
RMM:   7    -0.413193507282E+03    0.25953E-04   -0.23386E-04  5108   0.161E-02    0.188E-02
RMM:   8    -0.413193497809E+03    0.94734E-05   -0.24995E-05  4407   0.573E-03    0.711E-03
RMM:   9    -0.413193497054E+03    0.75483E-06   -0.27176E-06  2608   0.228E-03
   34 T=    67. E= -.41286674E+03 F= -.41319350E+03 E0= -.41317214E+03  EK= 0.32675E+00 SP= 0.00E+00 SK= 0.00E+00
       N       E                     dE             d eps       ncg     rms          rms(c)
RMM:   1    -0.413202686077E+03   -0.91883E-02   -0.87343E+00  4303   0.820E-01    0.940E-01
RMM:   2    -0.413201206806E+03    0.14793E-02   -0.11555E-01  4278   0.124E-01    0.684E-01
RMM:   3    -0.413197081313E+03    0.41255E-02   -0.24833E-02  4738   0.835E-02    0.136E-01
RMM:   4    -0.413230311526E+03   -0.33230E-01   -0.35739E-02  5113   0.159E-01    0.763E-01
RMM:   5    -0.413195996857E+03    0.34315E-01   -0.16666E-02  4793   0.126E-01    0.524E-02
RMM:   6    -0.413196168889E+03   -0.17203E-03   -0.29373E-03  5823   0.509E-02    0.349E-02
RMM:   7    -0.413196171448E+03   -0.25590E-05   -0.34568E-04  5563   0.184E-02    0.177E-02
RMM:   8    -0.413196161556E+03    0.98921E-05   -0.41734E-05  4686   0.676E-03    0.976E-03
RMM:   9    -0.413196155403E+03    0.61532E-05   -0.78319E-06  3195   0.329E-03    0.588E-03
RMM:  10    -0.413196153108E+03    0.22951E-05   -0.20223E-06  2563   0.213E-03    0.427E-03
RMM:  11    -0.413196146908E+03    0.61995E-05   -0.18052E-06  2543   0.222E-03    0.226E-03
RMM:  12    -0.413196140209E+03    0.66997E-05   -0.14990E-06  2493   0.197E-03    0.118E-03
RMM:  13    -0.413196138290E+03    0.19183E-05   -0.49998E-07  2358   0.126E-03    0.749E-04
RMM:  14    -0.413196137281E+03    0.10095E-05   -0.22862E-07  1891   0.848E-04    0.541E-04
RMM:  15    -0.413196132552E+03    0.47289E-05   -0.19598E-07  2000   0.814E-04    0.410E-04
RMM:  16    -0.413196128059E+03    0.44933E-05   -0.12954E-07  1576   0.692E-04    0.418E-04
RMM:  17    -0.413196124267E+03    0.37918E-05   -0.60451E-08   991   0.585E-04    0.337E-04
RMM:  18    -0.413196121346E+03    0.29209E-05   -0.44750E-08   927   0.564E-04    0.147E-04
RMM:  19    -0.413196117147E+03    0.41991E-05   -0.67161E-08  1290   0.630E-04    0.202E-04
RMM:  20    -0.413196116790E+03    0.35681E-06   -0.15060E-08   706   0.527E-04
   35 T=    67. E= -.41286685E+03 F= -.41319612E+03 E0= -.41317481E+03  EK= 0.32926E+00 SP= 0.00E+00 SK= 0.00E+00
       N       E                     dE             d eps       ncg     rms          rms(c)
RMM:   1    -0.413212400723E+03   -0.16284E-01   -0.88084E+00  4300   0.921E-01    0.937E-01
RMM:   2    -0.413203262992E+03    0.91377E-02   -0.12531E-01  4261   0.137E-01    0.681E-01
RMM:   3    -0.413198396938E+03    0.48661E-02   -0.22716E-02  4361   0.752E-02    0.668E-02
RMM:   4    -0.413201722317E+03   -0.33254E-02   -0.35314E-03  5174   0.507E-02    0.249E-01
RMM:   5    -0.413198328753E+03    0.33936E-02   -0.18160E-03  4832   0.417E-02    0.429E-02
RMM:   6    -0.413198374331E+03   -0.45578E-04   -0.67997E-04  5571   0.257E-02    0.332E-02
RMM:   7    -0.413198340420E+03    0.33911E-04   -0.25157E-04  5057   0.170E-02    0.193E-02
RMM:   8    -0.413198330545E+03    0.98755E-05   -0.30644E-05  4827   0.620E-03    0.787E-03
RMM:   9    -0.413198328532E+03    0.20125E-05   -0.38563E-06  2680   0.245E-03    0.432E-03
RMM:  10    -0.413198323932E+03    0.46007E-05   -0.11814E-06  2484   0.184E-03    0.237E-03
RMM:  11    -0.413198319318E+03    0.46133E-05   -0.74554E-07  2405   0.138E-03    0.103E-03
RMM:  12    -0.413198315108E+03    0.42108E-05   -0.40015E-07  2147   0.105E-03    0.465E-04
RMM:  13    -0.413198311289E+03    0.38181E-05   -0.21946E-07  1621   0.819E-04    0.271E-04
RMM:  14    -0.413198307764E+03    0.35255E-05   -0.10773E-07  1101   0.671E-04    0.200E-04
RMM:  15    -0.413198303243E+03    0.45212E-05   -0.73758E-08   946   0.636E-04    0.976E-05
RMM:  16    -0.413198299057E+03    0.41853E-05   -0.64951E-08  1027   0.627E-04    0.795E-05
RMM:  17    -0.413198296570E+03    0.24878E-05   -0.38205E-08   852   0.582E-04    0.531E-05
RMM:  18    -0.413198293160E+03    0.34101E-05   -0.37826E-08   902   0.583E-04    0.336E-05
RMM:  19    -0.413198292631E+03    0.52840E-06   -0.12291E-08   549   0.523E-04
   36 T=    68. E= -.41286661E+03 F= -.41319829E+03 E0= -.41317703E+03  EK= 0.33169E+00 SP= 0.00E+00 SK= 0.00E+00
       N       E                     dE             d eps       ncg     rms          rms(c)
RMM:   1    -0.413204647739E+03   -0.63546E-02   -0.87893E+00  4305   0.835E-01    0.928E-01
RMM:   2    -0.413206834782E+03   -0.21870E-02   -0.11656E-01  4260   0.127E-01    0.686E-01
RMM:   3    -0.413201476384E+03    0.53584E-02   -0.25689E-02  4453   0.755E-02    0.841E-02
RMM:   4    -0.413208722117E+03   -0.72457E-02   -0.74872E-03  5162   0.741E-02    0.367E-01
RMM:   5    -0.413201219725E+03    0.75024E-02   -0.37989E-03  4815   0.604E-02    0.432E-02
RMM:   6    -0.413201249365E+03   -0.29640E-04   -0.95061E-04  5673   0.298E-02    0.322E-02
RMM:   7    -0.413201238709E+03    0.10656E-04   -0.29834E-04  5226   0.178E-02    0.198E-02
RMM:   8    -0.413201226796E+03    0.11913E-04   -0.33420E-05  4932   0.680E-03    0.899E-03
RMM:   9    -0.413201225582E+03    0.12143E-05   -0.48832E-06  2855   0.274E-03    0.523E-03
RMM:  10    -0.413201223833E+03    0.17488E-05   -0.15874E-06  2513   0.211E-03    0.274E-03
RMM:  11    -0.413201221718E+03    0.21153E-05   -0.98339E-07  2466   0.162E-03    0.133E-03
RMM:  12    -0.413201219439E+03    0.22786E-05   -0.57881E-07  2345   0.124E-03    0.656E-04
RMM:  13    -0.413201217595E+03    0.18440E-05   -0.30490E-07  1941   0.919E-04    0.326E-04
RMM:  14    -0.413201215592E+03    0.20033E-05   -0.15711E-07  1402   0.726E-04    0.216E-04
RMM:  15    -0.413201212618E+03    0.29735E-05   -0.10083E-07  1134   0.661E-04    0.123E-04
RMM:  16    -0.413201209988E+03    0.26304E-05   -0.71382E-08  1018   0.630E-04    0.759E-05
RMM:  17    -0.413201208020E+03    0.19682E-05   -0.44160E-08   918   0.599E-04    0.505E-05
RMM:  18    -0.413201204622E+03    0.33979E-05   -0.52698E-08  1092   0.610E-04    0.303E-05
RMM:  19    -0.413201203806E+03    0.81547E-06   -0.19948E-08   746   0.542E-04
   37 T=    68. E= -.41286679E+03 F= -.41320120E+03 E0= -.41317998E+03  EK= 0.33442E+00 SP= 0.00E+00 SK= 0.00E+00
       N       E                     dE             d eps       ncg     rms          rms(c)
RMM:   1    -0.413208566510E+03   -0.73619E-02   -0.88849E+00  4309   0.871E-01    0.945E-01
RMM:   2    -0.413209705882E+03   -0.11394E-02   -0.11817E-01  4258   0.123E-01    0.693E-01
RMM:   3    -0.413204293324E+03    0.54126E-02   -0.25349E-02  4643   0.705E-02    0.998E-02
RMM:   4    -0.413223746594E+03   -0.19453E-01   -0.20047E-02  5135   0.119E-01    0.589E-01
RMM:   5    -0.413203835470E+03    0.19911E-01   -0.99600E-03  4813   0.971E-02    0.479E-02
RMM:   6    -0.413203868334E+03   -0.32864E-04   -0.17879E-03  5803   0.405E-02    0.326E-02
RMM:   7    -0.413203879968E+03   -0.11634E-04   -0.35231E-04  5475   0.186E-02    0.210E-02
RMM:   8    -0.413203862789E+03    0.17179E-04   -0.52914E-05  5061   0.828E-03    0.102E-02
RMM:   9    -0.413203861220E+03    0.15692E-05   -0.99335E-06  3583   0.386E-03    0.657E-03
RMM:  10    -0.413203857910E+03    0.33100E-05   -0.20082E-06  2584   0.237E-03    0.352E-03
RMM:  11    -0.413203855041E+03    0.28684E-05   -0.10908E-06  2493   0.173E-03    0.192E-03
RMM:  12    -0.413203850567E+03    0.44739E-05   -0.11272E-06  2495   0.167E-03    0.104E-03
RMM:  13    -0.413203848115E+03    0.24522E-05   -0.42300E-07  2243   0.113E-03    0.547E-04
RMM:  14    -0.413203847111E+03    0.10041E-05   -0.20356E-07  1725   0.798E-04    0.375E-04
RMM:  15    -0.413203843602E+03    0.35093E-05   -0.13532E-07  1468   0.720E-04    0.163E-04
RMM:  16    -0.413203840703E+03    0.28984E-05   -0.84000E-08  1177   0.645E-04    0.148E-04
RMM:  17    -0.413203837913E+03    0.27900E-05   -0.53237E-08   967   0.601E-04    0.132E-04
RMM:  18    -0.413203833795E+03    0.41180E-05   -0.52644E-08  1012   0.601E-04    0.491E-05
RMM:  19    -0.413203832506E+03    0.12898E-05   -0.25619E-08   803   0.559E-04    0.287E-05
RMM:  20    -0.413203831707E+03    0.79841E-06   -0.19309E-08   777   0.552E-04
   38 T=    69. E= -.41286674E+03 F= -.41320383E+03 E0= -.41318265E+03  EK= 0.33709E+00 SP= 0.00E+00 SK= 0.00E+00
       N       E                     dE             d eps       ncg     rms          rms(c)
RMM:   1    -0.413227930063E+03   -0.24098E-01   -0.90599E+00  4306   0.102E+00    0.953E-01
RMM:   2    -0.413212369299E+03    0.15561E-01   -0.13658E-01  4259   0.128E-01    0.691E-01
RMM:   3    -0.413207157969E+03    0.52113E-02   -0.21966E-02  4873   0.652E-02    0.132E-01
RMM:   4    -0.413244530400E+03   -0.37372E-01   -0.40040E-02  5131   0.167E-01    0.806E-01
RMM:   5    -0.413206348921E+03    0.38181E-01   -0.18828E-02  4792   0.134E-01    0.552E-02
RMM:   6    -0.413206456039E+03   -0.10712E-03   -0.32708E-03  5823   0.534E-02    0.366E-02
RMM:   7    -0.413206461414E+03   -0.53753E-05   -0.38681E-04  5616   0.191E-02    0.192E-02
RMM:   8    -0.413206453715E+03    0.76987E-05   -0.46174E-05  4700   0.698E-03    0.990E-03
RMM:   9    -0.413206448463E+03    0.52526E-05   -0.87222E-06  3216   0.338E-03    0.557E-03
RMM:  10    -0.413206445132E+03    0.33305E-05   -0.18260E-06  2532   0.208E-03    0.361E-03
RMM:  11    -0.413206437642E+03    0.74906E-05   -0.24445E-06  2597   0.244E-03    0.165E-03
RMM:  12    -0.413206432869E+03    0.47726E-05   -0.11418E-06  2472   0.181E-03    0.118E-03
RMM:  13    -0.413206431300E+03    0.15691E-05   -0.45135E-07  2312   0.120E-03    0.829E-04
RMM:  14    -0.413206430572E+03    0.72761E-06   -0.21312E-07  1870   0.837E-04
   39 T=    69. E= -.41286665E+03 F= -.41320643E+03 E0= -.41318529E+03  EK= 0.33978E+00 SP= 0.00E+00 SK= 0.00E+00
       N       E                     dE             d eps       ncg     rms          rms(c)
RMM:   1    -0.413216388634E+03   -0.99573E-02   -0.89593E+00  4305   0.959E-01    0.938E-01
RMM:   2    -0.413215780211E+03    0.60842E-03   -0.12174E-01  4261   0.124E-01    0.692E-01
RMM:   3    -0.413210479077E+03    0.53011E-02   -0.25465E-02  4851   0.711E-02    0.135E-01
RMM:   4    -0.413244712341E+03   -0.34233E-01   -0.37218E-02  5132   0.161E-01    0.775E-01
RMM:   5    -0.413209471935E+03    0.35240E-01   -0.17182E-02  4795   0.128E-01    0.536E-02
RMM:   6    -0.413209560484E+03   -0.88549E-04   -0.29626E-03  5813   0.510E-02    0.345E-02
RMM:   7    -0.413209574747E+03   -0.14263E-04   -0.38720E-04  5648   0.189E-02    0.194E-02
RMM:   8    -0.413209565416E+03    0.93307E-05   -0.63315E-05  5046   0.833E-03    0.110E-02
RMM:   9    -0.413209564278E+03    0.11385E-05   -0.20032E-05  4511   0.491E-03    0.784E-03
RMM:  10    -0.413209559078E+03    0.51997E-05   -0.27922E-06  2664   0.270E-03    0.433E-03
RMM:  11    -0.413209556459E+03    0.26195E-05   -0.12877E-06  2506   0.185E-03    0.267E-03
RMM:  12    -0.413209549740E+03    0.67189E-05   -0.18417E-06  2540   0.215E-03    0.137E-03
RMM:  13    -0.413209546170E+03    0.35695E-05   -0.71739E-07  2410   0.147E-03    0.893E-04
RMM:  14    -0.413209545448E+03    0.72189E-06   -0.28201E-07  2084   0.945E-04
   40 T=    70. E= -.41286695E+03 F= -.41320955E+03 E0= -.41318844E+03  EK= 0.34260E+00 SP= 0.00E+00 SK= 0.00E+00
       N       E                     dE             d eps       ncg     rms          rms(c)
RMM:   1    -0.413224711687E+03   -0.15166E-01   -0.91351E+00  4304   0.103E+00    0.948E-01
RMM:   2    -0.413218200150E+03    0.65115E-02   -0.13952E-01  4265   0.134E-01    0.704E-01
RMM:   3    -0.413213349534E+03    0.48506E-02   -0.23970E-02  4960   0.732E-02    0.178E-01
RMM:   4    -0.413259935896E+03   -0.46586E-01   -0.53887E-02  5126   0.194E-01    0.901E-01
RMM:   5    -0.413211587288E+03    0.48349E-01   -0.23043E-02  4784   0.150E-01    0.592E-02
RMM:   6    -0.413211733589E+03   -0.14630E-03   -0.39636E-03  5815   0.588E-02    0.369E-02
RMM:   7    -0.413211745254E+03   -0.11664E-04   -0.48216E-04  5731   0.206E-02    0.212E-02
RMM:   8    -0.413211746993E+03   -0.17395E-05   -0.97564E-05  5196   0.995E-03    0.134E-02
RMM:   9    -0.413211737043E+03    0.99502E-05   -0.24661E-05  4634   0.560E-03    0.770E-03
RMM:  10    -0.413211733618E+03    0.34252E-05   -0.41479E-06  2796   0.299E-03    0.456E-03
RMM:  11    -0.413211731075E+03    0.25429E-05   -0.15216E-06  2508   0.205E-03    0.278E-03
RMM:  12    -0.413211724913E+03    0.61624E-05   -0.17552E-06  2538   0.212E-03    0.117E-03
RMM:  13    -0.413211720687E+03    0.42260E-05   -0.77022E-07  2448   0.150E-03    0.815E-04
RMM:  14    -0.413211719954E+03    0.73223E-06   -0.31779E-07  2135   0.989E-04
   41 T=    70. E= -.41286667E+03 F= -.41321172E+03 E0= -.41319065E+03  EK= 0.34505E+00 SP= 0.00E+00 SK= 0.00E+00
       N       E                     dE             d eps       ncg     rms          rms(c)
RMM:   1    -0.413241853397E+03   -0.30133E-01   -0.92796E+00  4310   0.117E+00    0.966E-01
RMM:   2    -0.413220335939E+03    0.21517E-01   -0.15185E-01  4300   0.139E-01    0.702E-01
RMM:   3    -0.413216609540E+03    0.37264E-02   -0.22126E-02  5018   0.746E-02    0.222E-01
RMM:   4    -0.413264649067E+03   -0.48040E-01   -0.59246E-02  5118   0.204E-01    0.919E-01
RMM:   5    -0.413214159630E+03    0.50489E-01   -0.23500E-02  4769   0.153E-01    0.628E-02
RMM:   6    -0.413214309740E+03   -0.15011E-03   -0.41128E-03  5795   0.603E-02    0.390E-02
RMM:   7    -0.413214317339E+03   -0.75987E-05   -0.54369E-04  5718   0.218E-02    0.243E-02
RMM:   8    -0.413214315498E+03    0.18409E-05   -0.13061E-04  5248   0.117E-02    0.149E-02
RMM:   9    -0.413214301223E+03    0.14275E-04   -0.24770E-05  4596   0.602E-03    0.719E-03
RMM:  10    -0.413214295532E+03    0.56911E-05   -0.53556E-06  3006   0.306E-03    0.434E-03
RMM:  11    -0.413214291307E+03    0.42255E-05   -0.14255E-06  2510   0.202E-03    0.258E-03
RMM:  12    -0.413214282343E+03    0.89638E-05   -0.14019E-06  2499   0.196E-03    0.106E-03
RMM:  13    -0.413214276399E+03    0.59438E-05   -0.65406E-07  2421   0.140E-03    0.676E-04
RMM:  14    -0.413214275307E+03    0.10925E-05   -0.29736E-07  2089   0.960E-04    0.453E-04
RMM:  15    -0.413214273123E+03    0.21842E-05   -0.15140E-07  1573   0.737E-04    0.297E-04
RMM:  16    -0.413214264806E+03    0.83164E-05   -0.16325E-07  1848   0.773E-04    0.422E-04
RMM:  17    -0.413214263268E+03    0.15382E-05   -0.55623E-08   974   0.570E-04    0.303E-04
RMM:  18    -0.413214257318E+03    0.59497E-05   -0.61636E-08  1133   0.610E-04    0.185E-04
RMM:  19    -0.413214255872E+03    0.14460E-05   -0.33981E-08   908   0.565E-04    0.655E-05
RMM:  20    -0.413214253466E+03    0.24061E-05   -0.48563E-08  1215   0.611E-04    0.206E-04
RMM:  21    -0.413214253405E+03    0.61151E-07   -0.12859E-08   695   0.528E-04
   42 T=    71. E= -.41286678E+03 F= -.41321425E+03 E0= -.41319322E+03  EK= 0.34747E+00 SP= 0.00E+00 SK= 0.00E+00
       N       E                     dE             d eps       ncg     rms          rms(c)
RMM:   1    -0.413231316505E+03   -0.17063E-01   -0.91401E+00  4310   0.115E+00    0.949E-01
RMM:   2    -0.413222469038E+03    0.88475E-02   -0.13207E-01  4327   0.137E-01    0.698E-01
RMM:   3    -0.413220606689E+03    0.18623E-02   -0.27008E-02  5058   0.886E-02    0.278E-01
RMM:   4    -0.413256332369E+03   -0.35726E-01   -0.53065E-02  5096   0.195E-01    0.820E-01
RMM:   5    -0.413216317659E+03    0.40015E-01   -0.17197E-02  4746   0.135E-01    0.602E-02
RMM:   6    -0.413216401991E+03   -0.84331E-04   -0.32512E-03  5764   0.535E-02    0.366E-02
RMM:   7    -0.413216406793E+03   -0.48025E-05   -0.46762E-04  5681   0.206E-02    0.232E-02
RMM:   8    -0.413216405033E+03    0.17598E-05   -0.11929E-04  5199   0.114E-02    0.132E-02
RMM:   9    -0.413216394276E+03    0.10758E-04   -0.17971E-05  4332   0.543E-03    0.607E-03
RMM:  10    -0.413216391010E+03    0.32655E-05   -0.40377E-06  2822   0.271E-03    0.368E-03
RMM:  11    -0.413216388343E+03    0.26670E-05   -0.12089E-06  2497   0.186E-03    0.208E-03
RMM:  12    -0.413216382826E+03    0.55175E-05   -0.11073E-06  2482   0.173E-03    0.906E-04
RMM:  13    -0.413216379161E+03    0.36642E-05   -0.51325E-07  2341   0.124E-03    0.492E-04
RMM:  14    -0.413216378029E+03    0.11327E-05   -0.24730E-07  1911   0.871E-04    0.334E-04
RMM:  15    -0.413216375320E+03    0.27088E-05   -0.13683E-07  1426   0.712E-04    0.157E-04
RMM:  16    -0.413216371318E+03    0.40022E-05   -0.99700E-08  1233   0.671E-04    0.154E-04
RMM:  17    -0.413216368693E+03    0.26242E-05   -0.60810E-08  1028   0.618E-04    0.105E-04
RMM:  18    -0.413216365768E+03    0.29253E-05   -0.50054E-08  1062   0.613E-04    0.728E-05
RMM:  19    -0.413216362974E+03    0.27941E-05   -0.41764E-08  1059   0.598E-04    0.341E-05
RMM:  20    -0.413216362274E+03    0.69961E-06   -0.20328E-08   782   0.547E-04
   43 T=    71. E= -.41286683E+03 F= -.41321636E+03 E0= -.41319535E+03  EK= 0.34954E+00 SP= 0.00E+00 SK= 0.00E+00
       N       E                     dE             d eps       ncg     rms          rms(c)
RMM:   1    -0.413228263256E+03   -0.11900E-01   -0.92023E+00  4315   0.116E+00    0.954E-01
RMM:   2    -0.413224000848E+03    0.42624E-02   -0.13360E-01  4338   0.148E-01    0.709E-01
RMM:   3    -0.413222919495E+03    0.10814E-02   -0.29236E-02  5061   0.961E-02    0.309E-01
RMM:   4    -0.413256121022E+03   -0.33202E-01   -0.53748E-02  5088   0.197E-01    0.806E-01
RMM:   5    -0.413217542830E+03    0.38578E-01   -0.16065E-02  4725   0.132E-01    0.600E-02
RMM:   6    -0.413217609227E+03   -0.66397E-04   -0.30581E-03  5747   0.521E-02    0.352E-02
RMM:   7    -0.413217615183E+03   -0.59551E-05   -0.44936E-04  5673   0.202E-02    0.228E-02
RMM:   8    -0.413217614967E+03    0.21553E-06   -0.11920E-04  5195   0.115E-02    0.126E-02
RMM:   9    -0.413217605831E+03    0.91364E-05   -0.17261E-05  4285   0.540E-03    0.554E-03
RMM:  10    -0.413217603760E+03    0.20707E-05   -0.38277E-06  2795   0.263E-03    0.338E-03
RMM:  11    -0.413217601759E+03    0.20006E-05   -0.12001E-06  2501   0.182E-03    0.186E-03
RMM:  12    -0.413217597665E+03    0.40943E-05   -0.10345E-06  2484   0.164E-03    0.819E-04
RMM:  13    -0.413217594883E+03    0.27826E-05   -0.47806E-07  2274   0.117E-03    0.417E-04
RMM:  14    -0.413217593630E+03    0.12526E-05   -0.23329E-07  1780   0.834E-04    0.271E-04
RMM:  15    -0.413217590069E+03    0.35607E-05   -0.15744E-07  1378   0.731E-04    0.155E-04
RMM:  16    -0.413217587718E+03    0.23513E-05   -0.97177E-08  1167   0.657E-04    0.127E-04
RMM:  17    -0.413217585489E+03    0.22291E-05   -0.68591E-08  1062   0.626E-04    0.894E-05
RMM:  18    -0.413217582710E+03    0.27790E-05   -0.59450E-08  1128   0.622E-04    0.533E-05
RMM:  19    -0.413217580378E+03    0.23317E-05   -0.43463E-08  1050   0.595E-04    0.327E-05
RMM:  20    -0.413217579689E+03    0.68906E-06   -0.21850E-08   799   0.548E-04
   44 T=    71. E= -.41286659E+03 F= -.41321758E+03 E0= -.41319660E+03  EK= 0.35099E+00 SP= 0.00E+00 SK= 0.00E+00
       N       E                     dE             d eps       ncg     rms          rms(c)
RMM:   1    -0.413239974820E+03   -0.22394E-01   -0.92661E+00  4311   0.130E+00    0.973E-01
RMM:   2    -0.413224967068E+03    0.15008E-01   -0.14116E-01  4341   0.156E-01    0.708E-01
RMM:   3    -0.413226285938E+03   -0.13189E-02   -0.28598E-02  5073   0.105E-01    0.369E-01
RMM:   4    -0.413250219895E+03   -0.23934E-01   -0.50103E-02  5065   0.192E-01    0.728E-01
RMM:   5    -0.413218848035E+03    0.31372E-01   -0.12141E-02  4697   0.119E-01    0.602E-02
RMM:   6    -0.413218865826E+03   -0.17791E-04   -0.24475E-03  5682   0.472E-02    0.355E-02
RMM:   7    -0.413218870412E+03   -0.45859E-05   -0.41283E-04  5624   0.197E-02    0.234E-02
RMM:   8    -0.413218865253E+03    0.51594E-05   -0.11810E-04  5121   0.118E-02    0.118E-02
RMM:   9    -0.413218853982E+03    0.11271E-04   -0.14619E-05  4178   0.529E-03    0.498E-03
RMM:  10    -0.413218849805E+03    0.41769E-05   -0.33709E-06  2768   0.249E-03    0.299E-03
RMM:  11    -0.413218845454E+03    0.43510E-05   -0.11124E-06  2488   0.176E-03    0.160E-03
RMM:  12    -0.413218838819E+03    0.66351E-05   -0.76790E-07  2444   0.146E-03    0.716E-04
RMM:  13    -0.413218834925E+03    0.38937E-05   -0.36512E-07  2101   0.104E-03    0.320E-04
RMM:  14    -0.413218832364E+03    0.25612E-05   -0.19693E-07  1626   0.792E-04    0.206E-04
RMM:  15    -0.413218826360E+03    0.60033E-05   -0.13995E-07  1340   0.725E-04    0.152E-04
RMM:  16    -0.413218824040E+03    0.23205E-05   -0.81266E-08  1095   0.650E-04    0.961E-05
RMM:  17    -0.413218820356E+03    0.36841E-05   -0.70818E-08  1190   0.647E-04    0.568E-05
RMM:  18    -0.413218816831E+03    0.35244E-05   -0.57570E-08  1203   0.623E-04    0.400E-05
RMM:  19    -0.413218814774E+03    0.20572E-05   -0.36888E-08  1000   0.572E-04    0.264E-05
RMM:  20    -0.413218814228E+03    0.54610E-06   -0.19948E-08   771   0.533E-04
   45 T=    72. E= -.41286687E+03 F= -.41321881E+03 E0= -.41319785E+03  EK= 0.35194E+00 SP= 0.00E+00 SK= 0.00E+00
       N       E                     dE             d eps       ncg     rms          rms(c)
RMM:   1    -0.413237248141E+03   -0.18433E-01   -0.91524E+00  4311   0.137E+00    0.957E-01
RMM:   2    -0.413224529020E+03    0.12719E-01   -0.14088E-01  4362   0.166E-01    0.702E-01
RMM:   3    -0.413228354959E+03   -0.38259E-02   -0.30303E-02  5079   0.117E-01    0.426E-01
RMM:   4    -0.413244214198E+03   -0.15859E-01   -0.47520E-02  5055   0.189E-01    0.662E-01
RMM:   5    -0.413218373953E+03    0.25840E-01   -0.92489E-03  4663   0.109E-01    0.589E-02
RMM:   6    -0.413218351148E+03    0.22806E-04   -0.19657E-03  5594   0.427E-02    0.335E-02
RMM:   7    -0.413218355771E+03   -0.46234E-05   -0.35345E-04  5572   0.185E-02    0.224E-02
RMM:   8    -0.413218348965E+03    0.68061E-05   -0.11966E-04  5092   0.118E-02    0.109E-02
RMM:   9    -0.413218338242E+03    0.10723E-04   -0.13487E-05  4107   0.520E-03    0.454E-03
RMM:  10    -0.413218334690E+03    0.35516E-05   -0.29040E-06  2720   0.234E-03    0.267E-03
RMM:  11    -0.413218330332E+03    0.43586E-05   -0.10599E-06  2482   0.171E-03    0.139E-03
RMM:  12    -0.413218324710E+03    0.56220E-05   -0.66466E-07  2412   0.136E-03    0.678E-04
RMM:  13    -0.413218321148E+03    0.35613E-05   -0.31720E-07  1934   0.965E-04    0.295E-04
RMM:  14    -0.413218318143E+03    0.30053E-05   -0.17661E-07  1484   0.755E-04    0.173E-04
RMM:  15    -0.413218312904E+03    0.52386E-05   -0.13204E-07  1281   0.709E-04    0.123E-04
RMM:  16    -0.413218310343E+03    0.25618E-05   -0.84042E-08  1158   0.653E-04    0.845E-05
RMM:  17    -0.413218305276E+03    0.50669E-05   -0.85830E-08  1387   0.668E-04    0.590E-05
RMM:  18    -0.413218303031E+03    0.22444E-05   -0.44269E-08  1015   0.578E-04    0.344E-05
RMM:  19    -0.413218301441E+03    0.15904E-05   -0.32955E-08   927   0.552E-04    0.203E-05
RMM:  20    -0.413218301052E+03    0.38903E-06   -0.18419E-08   745   0.524E-04
   46 T=    72. E= -.41286663E+03 F= -.41321830E+03 E0= -.41319736E+03  EK= 0.35167E+00 SP= 0.00E+00 SK= 0.00E+00
       N       E                     dE             d eps       ncg     rms          rms(c)
RMM:   1    -0.413231296729E+03   -0.12995E-01   -0.91258E+00  4311   0.139E+00    0.948E-01
RMM:   2    -0.413223479538E+03    0.78172E-02   -0.14063E-01  4383   0.172E-01    0.709E-01
RMM:   3    -0.413229842937E+03   -0.63634E-02   -0.33837E-02  5089   0.129E-01    0.478E-01
RMM:   4    -0.413240341228E+03   -0.10498E-01   -0.48096E-02  5037   0.192E-01    0.629E-01
RMM:   5    -0.413217002108E+03    0.23339E-01   -0.78506E-03  4621   0.104E-01    0.582E-02
RMM:   6    -0.413216957935E+03    0.44173E-04   -0.17085E-03  5492   0.401E-02    0.310E-02
RMM:   7    -0.413216962656E+03   -0.47210E-05   -0.30640E-04  5570   0.175E-02    0.212E-02
RMM:   8    -0.413216956991E+03    0.56652E-05   -0.12022E-04  5078   0.117E-02    0.101E-02
RMM:   9    -0.413216947897E+03    0.90941E-05   -0.12626E-05  4020   0.513E-03    0.430E-03
RMM:  10    -0.413216945663E+03    0.22337E-05   -0.26642E-06  2684   0.228E-03    0.248E-03
RMM:  11    -0.413216942523E+03    0.31394E-05   -0.11335E-06  2488   0.172E-03    0.128E-03
RMM:  12    -0.413216938925E+03    0.35980E-05   -0.65207E-07  2377   0.132E-03    0.668E-04
RMM:  13    -0.413216936136E+03    0.27898E-05   -0.32149E-07  1860   0.941E-04    0.294E-04
RMM:  14    -0.413216933505E+03    0.26310E-05   -0.18651E-07  1400   0.751E-04    0.163E-04
RMM:  15    -0.413216929847E+03    0.36579E-05   -0.14868E-07  1327   0.714E-04    0.112E-04
RMM:  16    -0.413216927581E+03    0.22658E-05   -0.93640E-08  1151   0.650E-04    0.795E-05
RMM:  17    -0.413216923085E+03    0.44957E-05   -0.10309E-07  1428   0.681E-04    0.570E-05
RMM:  18    -0.413216921558E+03    0.15274E-05   -0.46437E-08   961   0.565E-04    0.340E-05
RMM:  19    -0.413216920217E+03    0.13408E-05   -0.31846E-08   881   0.544E-04    0.204E-05
RMM:  20    -0.413216919686E+03    0.53096E-06   -0.20297E-08   756   0.524E-04
   47 T=    71. E= -.41286663E+03 F= -.41321692E+03 E0= -.41319599E+03  EK= 0.35028E+00 SP= 0.00E+00 SK= 0.00E+00
       N       E                     dE             d eps       ncg     rms          rms(c)
RMM:   1    -0.413235095704E+03   -0.18175E-01   -0.90682E+00  4308   0.152E+00    0.962E-01
RMM:   2    -0.413220578687E+03    0.14517E-01   -0.14517E-01  4424   0.185E-01    0.707E-01
RMM:   3    -0.413233367432E+03   -0.12789E-01   -0.37007E-02  5117   0.145E-01    0.584E-01
RMM:   4    -0.413230100339E+03    0.32671E-02   -0.44994E-02  4997   0.189E-01    0.519E-01
RMM:   5    -0.413214376084E+03    0.15724E-01   -0.48099E-03  4570   0.908E-02    0.575E-02
RMM:   6    -0.413214285662E+03    0.90423E-04   -0.94630E-04  5101   0.324E-02    0.299E-02
RMM:   7    -0.413214283763E+03    0.18987E-05   -0.19315E-04  5521   0.141E-02    0.163E-02
RMM:   8    -0.413214284680E+03   -0.91679E-06   -0.11334E-04  5202   0.110E-02    0.116E-02
RMM:   9    -0.413214270381E+03    0.14299E-04   -0.16792E-05  4352   0.556E-03    0.436E-03
RMM:  10    -0.413214267628E+03    0.27536E-05   -0.32315E-06  2740   0.241E-03    0.240E-03
RMM:  11    -0.413214262419E+03    0.52091E-05   -0.13187E-06  2450   0.188E-03    0.127E-03
RMM:  12    -0.413214258482E+03    0.39364E-05   -0.60074E-07  2348   0.134E-03    0.754E-04
RMM:  13    -0.413214254266E+03    0.42158E-05   -0.30021E-07  1902   0.977E-04    0.363E-04
RMM:  14    -0.413214250007E+03    0.42591E-05   -0.15561E-07  1374   0.728E-04    0.188E-04
RMM:  15    -0.413214246086E+03    0.39211E-05   -0.10363E-07  1152   0.665E-04    0.121E-04
RMM:  16    -0.413214243014E+03    0.30725E-05   -0.73468E-08  1089   0.627E-04    0.981E-05
RMM:  17    -0.413214238216E+03    0.47972E-05   -0.75077E-08  1267   0.636E-04    0.651E-05
RMM:  18    -0.413214236159E+03    0.20574E-05   -0.35323E-08   867   0.545E-04    0.514E-05
RMM:  19    -0.413214234854E+03    0.13054E-05   -0.20672E-08   705   0.516E-04    0.317E-05
RMM:  20    -0.413214233719E+03    0.11343E-05   -0.18866E-08   736   0.519E-04    0.146E-05
RMM:  21    -0.413214233342E+03    0.37717E-06   -0.11233E-08   606   0.500E-04
   48 T=    71. E= -.41286675E+03 F= -.41321423E+03 E0= -.41319332E+03  EK= 0.34748E+00 SP= 0.00E+00 SK= 0.00E+00
       N       E                     dE             d eps       ncg     rms          rms(c)
RMM:   1    -0.413234846960E+03   -0.20613E-01   -0.89101E+00  4304   0.165E+00    0.949E-01
RMM:   2    -0.413215201528E+03    0.19645E-01   -0.14860E-01  4482   0.198E-01    0.696E-01
RMM:   3    -0.413235566267E+03   -0.20365E-01   -0.41224E-02  5140   0.163E-01    0.687E-01
RMM:   4    -0.413219802740E+03    0.15764E-01   -0.44033E-02  4969   0.190E-01    0.429E-01
RMM:   5    -0.413209248336E+03    0.10554E-01   -0.36548E-03  4564   0.853E-02    0.599E-02
RMM:   6    -0.413209106156E+03    0.14218E-03   -0.50702E-04  4742   0.282E-02    0.309E-02
RMM:   7    -0.413209112962E+03   -0.68056E-05   -0.24302E-04  5814   0.164E-02    0.186E-02
RMM:   8    -0.413209096317E+03    0.16644E-04   -0.84872E-05  5106   0.103E-02    0.998E-03
RMM:   9    -0.413209090168E+03    0.61493E-05   -0.13700E-05  4322   0.503E-03    0.438E-03
RMM:  10    -0.413209086480E+03    0.36878E-05   -0.19771E-06  2608   0.227E-03    0.240E-03
RMM:  11    -0.413209080589E+03    0.58911E-05   -0.12114E-06  2489   0.180E-03    0.159E-03
RMM:  12    -0.413209077070E+03    0.35187E-05   -0.46300E-07  2359   0.121E-03    0.845E-04
RMM:  13    -0.413209072201E+03    0.48692E-05   -0.33667E-07  2149   0.970E-04    0.458E-04
RMM:  14    -0.413209067221E+03    0.49802E-05   -0.18408E-07  1544   0.757E-04    0.307E-04
[...]
RMM:   2    -0.413162074632E+03   -0.70005E-02   -0.11095E-01  4317   0.943E-02    0.620E-01
RMM:   3    -0.413160864730E+03    0.12099E-02   -0.11190E-02  5042   0.533E-02    0.170E-01
RMM:   4    -0.413197360313E+03   -0.36496E-01   -0.42676E-02  5135   0.173E-01    0.800E-01
RMM:   5    -0.413159607341E+03    0.37753E-01   -0.17852E-02  4794   0.134E-01    0.576E-02
RMM:   6    -0.413159626317E+03   -0.18975E-04   -0.29260E-03  5659   0.524E-02    0.279E-02
RMM:   7    -0.413159666014E+03   -0.39698E-04   -0.41758E-04  6032   0.174E-02    0.174E-02
RMM:   8    -0.413159676927E+03   -0.10913E-04   -0.78433E-05  5324   0.913E-03    0.909E-03
RMM:   9    -0.413159680307E+03   -0.33796E-05   -0.11357E-05  3558   0.398E-03    0.407E-03
RMM:  10    -0.413159687022E+03   -0.67148E-05   -0.30902E-06  2677   0.230E-03    0.276E-03
RMM:  11    -0.413159695220E+03   -0.81979E-05   -0.14553E-06  2518   0.184E-03    0.143E-03
RMM:  12    -0.413159701879E+03   -0.66596E-05   -0.86080E-07  2472   0.141E-03    0.478E-04
RMM:  13    -0.413159704594E+03   -0.27142E-05   -0.39212E-07  2035   0.100E-03    0.319E-04
RMM:  14    -0.413159706959E+03   -0.23652E-05   -0.24221E-07  1582   0.813E-04    0.209E-04
RMM:  15    -0.413159710555E+03   -0.35964E-05   -0.24791E-07  1453   0.780E-04    0.113E-04
RMM:  16    -0.413159712035E+03   -0.14798E-05   -0.14708E-07  1355   0.697E-04    0.827E-05
RMM:  17    -0.413159713495E+03   -0.14605E-05   -0.12948E-07  1326   0.665E-04    0.555E-05
RMM:  18    -0.413159714132E+03   -0.63664E-06   -0.74804E-08  1064   0.592E-04
  137 T=    60. E= -.41286676E+03 F= -.41315971E+03 E0= -.41313898E+03  EK= 0.29295E+00 SP= 0.00E+00 SK= 0.00E+00
       N       E                     dE             d eps       ncg     rms          rms(c)
RMM:   1    -0.413155169710E+03    0.45438E-02   -0.97138E+00  4264   0.809E-01    0.877E-01
RMM:   2    -0.413161999617E+03   -0.68299E-02   -0.11182E-01  4312   0.955E-02    0.613E-01
RMM:   3    -0.413160956352E+03    0.10433E-02   -0.99440E-03  5020   0.491E-02    0.163E-01
RMM:   4    -0.413196179177E+03   -0.35223E-01   -0.39376E-02  5138   0.165E-01    0.784E-01
RMM:   5    -0.413160096366E+03    0.36083E-01   -0.17309E-02  4797   0.131E-01    0.567E-02
RMM:   6    -0.413160126019E+03   -0.29653E-04   -0.29550E-03  5675   0.518E-02    0.282E-02
RMM:   7    -0.413160156563E+03   -0.30544E-04   -0.41251E-04  6022   0.171E-02    0.172E-02
RMM:   8    -0.413160161107E+03   -0.45437E-05   -0.72265E-05  5297   0.870E-03    0.894E-03
RMM:   9    -0.413160160516E+03    0.59072E-06   -0.10476E-05  3471   0.380E-03    0.414E-03
RMM:  10    -0.413160163548E+03   -0.30324E-05   -0.30431E-06  2666   0.230E-03    0.280E-03
RMM:  11    -0.413160166560E+03   -0.30119E-05   -0.13744E-06  2523   0.179E-03    0.140E-03
RMM:  12    -0.413160169066E+03   -0.25059E-05   -0.85091E-07  2457   0.140E-03    0.472E-04
RMM:  13    -0.413160170221E+03   -0.11554E-05   -0.39734E-07  2041   0.100E-03    0.317E-04
RMM:  14    -0.413160171266E+03   -0.10447E-05   -0.24291E-07  1587   0.810E-04    0.197E-04
RMM:  15    -0.413160172718E+03   -0.14516E-05   -0.23079E-07  1405   0.769E-04    0.105E-04
RMM:  16    -0.413160173508E+03   -0.79003E-06   -0.15947E-07  1390   0.706E-04
  138 T=    60. E= -.41286701E+03 F= -.41316017E+03 E0= -.41313945E+03  EK= 0.29316E+00 SP= 0.00E+00 SK= 0.00E+00
       N       E                     dE             d eps       ncg     rms          rms(c)
RMM:   1    -0.413154030445E+03    0.61423E-02   -0.98204E+00  4264   0.817E-01    0.860E-01
RMM:   2    -0.413161893661E+03   -0.78632E-02   -0.11339E-01  4308   0.971E-02    0.606E-01
RMM:   3    -0.413160598477E+03    0.12952E-02   -0.87297E-03  4993   0.455E-02    0.151E-01
RMM:   4    -0.413194172728E+03   -0.33574E-01   -0.36245E-02  5145   0.159E-01    0.764E-01
RMM:   5    -0.413159989169E+03    0.34184E-01   -0.16608E-02  4808   0.128E-01    0.535E-02
RMM:   6    -0.413160024527E+03   -0.35358E-04   -0.28353E-03  5691   0.503E-02    0.264E-02
RMM:   7    -0.413160053384E+03   -0.28858E-04   -0.38463E-04  6003   0.163E-02    0.160E-02
RMM:   8    -0.413160059478E+03   -0.60936E-05   -0.63883E-05  5256   0.811E-03    0.844E-03
RMM:   9    -0.413160060214E+03   -0.73570E-06   -0.97628E-06  3410   0.362E-03
  139 T=    60. E= -.41286680E+03 F= -.41316006E+03 E0= -.41313934E+03  EK= 0.29326E+00 SP= 0.00E+00 SK= 0.00E+00
       N       E                     dE             d eps       ncg     rms          rms(c)
RMM:   1    -0.413153445239E+03    0.66142E-02   -0.10037E+01  4269   0.827E-01    0.853E-01
RMM:   2    -0.413162158501E+03   -0.87133E-02   -0.11871E-01  4317   0.998E-02    0.617E-01
RMM:   3    -0.413162793274E+03   -0.63477E-03   -0.99432E-03  5142   0.619E-02    0.243E-01
RMM:   4    -0.413193916476E+03   -0.31123E-01   -0.43157E-02  5119   0.175E-01    0.758E-01
RMM:   5    -0.413160319004E+03    0.33597E-01   -0.15261E-02  4776   0.128E-01    0.631E-02
RMM:   6    -0.413160216895E+03    0.10211E-03   -0.25069E-03  5513   0.497E-02    0.228E-02
RMM:   7    -0.413160263957E+03   -0.47062E-04   -0.40262E-04  6085   0.178E-02    0.160E-02
RMM:   8    -0.413160275966E+03   -0.12009E-04   -0.70699E-05  5420   0.851E-03    0.848E-03
RMM:   9    -0.413160283882E+03   -0.79165E-05   -0.13621E-05  4007   0.436E-03    0.382E-03
RMM:  10    -0.413160288985E+03   -0.51023E-05   -0.21344E-06  2593   0.207E-03    0.247E-03
RMM:  11    -0.413160298383E+03   -0.93987E-05   -0.16944E-06  2548   0.196E-03    0.151E-03
RMM:  12    -0.413160304928E+03   -0.65448E-05   -0.86943E-07  2501   0.143E-03    0.659E-04
RMM:  13    -0.413160308031E+03   -0.31026E-05   -0.38825E-07  1820   0.929E-04    0.360E-04
RMM:  14    -0.413160311025E+03   -0.29944E-05   -0.29114E-07  1453   0.801E-04    0.190E-04
RMM:  15    -0.413160314080E+03   -0.30550E-05   -0.29905E-07  1544   0.802E-04    0.138E-04
RMM:  16    -0.413160315629E+03   -0.15490E-05   -0.18528E-07  1396   0.705E-04    0.100E-04
RMM:  17    -0.413160316486E+03   -0.85658E-06   -0.12789E-07  1260   0.634E-04
  140 T=    60. E= -.41286657E+03 F= -.41316032E+03 E0= -.41313961E+03  EK= 0.29374E+00 SP= 0.00E+00 SK= 0.00E+00
       N       E                     dE             d eps       ncg     rms          rms(c)
RMM:   1    -0.413153926796E+03    0.63888E-02   -0.10224E+01  4264   0.837E-01    0.875E-01
RMM:   2    -0.413162302579E+03   -0.83758E-02   -0.11837E-01  4304   0.982E-02    0.611E-01
RMM:   3    -0.413161141210E+03    0.11614E-02   -0.76162E-03  4872   0.414E-02    0.140E-01
RMM:   4    -0.413182311621E+03   -0.21170E-01   -0.21792E-02  5153   0.124E-01    0.608E-01
RMM:   5    -0.413160971406E+03    0.21340E-01   -0.10695E-02  4818   0.101E-01    0.437E-02
RMM:   6    -0.413160980308E+03   -0.89024E-05   -0.17993E-03  5700   0.405E-02    0.225E-02
RMM:   7    -0.413161002153E+03   -0.21845E-04   -0.24089E-04  5848   0.132E-02    0.127E-02
RMM:   8    -0.413161007946E+03   -0.57929E-05   -0.41593E-05  4918   0.657E-03    0.670E-03
RMM:   9    -0.413161008897E+03   -0.95080E-06   -0.57780E-06  3010   0.291E-03
  141 T=    60. E= -.41286689E+03 F= -.41316101E+03 E0= -.41314031E+03  EK= 0.29412E+00 SP= 0.00E+00 SK= 0.00E+00
       N       E                     dE             d eps       ncg     rms          rms(c)
RMM:   1    -0.413153086244E+03    0.79217E-02   -0.10287E+01  4272   0.842E-01    0.868E-01
RMM:   2    -0.413161539912E+03   -0.84537E-02   -0.11928E-01  4306   0.101E-01    0.604E-01
RMM:   3    -0.413161616240E+03   -0.76327E-04   -0.78026E-03  5079   0.495E-02    0.192E-01
RMM:   4    -0.413198368349E+03   -0.36752E-01   -0.42106E-02  5135   0.171E-01    0.803E-01
RMM:   5    -0.413160566546E+03    0.37802E-01   -0.18118E-02  4801   0.135E-01    0.594E-02
RMM:   6    -0.413160537081E+03    0.29466E-04   -0.30039E-03  5635   0.528E-02    0.206E-02
RMM:   7    -0.413160575274E+03   -0.38193E-04   -0.41635E-04  6091   0.170E-02    0.146E-02
RMM:   8    -0.413160580383E+03   -0.51094E-05   -0.59713E-05  5265   0.746E-03    0.830E-03
RMM:   9    -0.413160582102E+03   -0.17185E-05   -0.10182E-05  3331   0.372E-03    0.358E-03
RMM:  10    -0.413160584718E+03   -0.26167E-05   -0.23771E-06  2578   0.214E-03    0.221E-03
RMM:  11    -0.413160588340E+03   -0.36212E-05   -0.14758E-06  2538   0.176E-03    0.132E-03
RMM:  12    -0.413160590149E+03   -0.18094E-05   -0.76564E-07  2449   0.130E-03    0.522E-04
RMM:  13    -0.413160591156E+03   -0.10073E-05   -0.39893E-07  1915   0.950E-04    0.280E-04
RMM:  14    -0.413160591784E+03   -0.62804E-06   -0.23618E-07  1411   0.792E-04
  142 T=    60. E= -.41286641E+03 F= -.41316059E+03 E0= -.41313990E+03  EK= 0.29419E+00 SP= 0.00E+00 SK= 0.00E+00
       N       E                     dE             d eps       ncg     rms          rms(c)
RMM:   1    -0.413153274889E+03    0.73163E-02   -0.10395E+01  4266   0.853E-01    0.852E-01
RMM:   2    -0.413162921680E+03   -0.96468E-02   -0.12372E-01  4315   0.985E-02    0.613E-01
RMM:   3    -0.413161582488E+03    0.13392E-02   -0.63946E-03  4762   0.337E-02    0.129E-01
RMM:   4    -0.413163210133E+03   -0.16276E-02   -0.24062E-03  5194   0.418E-02    0.171E-01
RMM:   5    -0.413161595631E+03    0.16145E-02   -0.88180E-04  4851   0.300E-02    0.290E-02
RMM:   6    -0.413161573751E+03    0.21880E-04   -0.22553E-04  5372   0.161E-02    0.154E-02
RMM:   7    -0.413161593724E+03   -0.19973E-04   -0.56665E-05  5309   0.758E-03    0.866E-03
RMM:   8    -0.413161599929E+03   -0.62051E-05   -0.14701E-05  4034   0.448E-03    0.387E-03
RMM:   9    -0.413161602759E+03   -0.28302E-05   -0.13482E-06  2541   0.190E-03    0.221E-03
RMM:  10    -0.413161608476E+03   -0.57165E-05   -0.10457E-06  2488   0.153E-03    0.113E-03
RMM:  11    -0.413161614656E+03   -0.61806E-05   -0.97138E-07  2362   0.133E-03    0.558E-04
RMM:  12    -0.413161617355E+03   -0.26987E-05   -0.39448E-07  1969   0.928E-04    0.287E-04
RMM:  13    -0.413161619350E+03   -0.19950E-05   -0.23263E-07  1357   0.743E-04    0.181E-04
RMM:  14    -0.413161621890E+03   -0.25402E-05   -0.33373E-07  1513   0.785E-04    0.116E-04
RMM:  15    -0.413161622361E+03   -0.47057E-06   -0.11216E-07  1144   0.623E-04
  143 T=    60. E= -.41286668E+03 F= -.41316162E+03 E0= -.41314094E+03  EK= 0.29495E+00 SP= 0.00E+00 SK= 0.00E+00
       N       E                     dE             d eps       ncg     rms          rms(c)
RMM:   1    -0.413153568283E+03    0.80536E-02   -0.10530E+01  4264   0.859E-01    0.870E-01
RMM:   2    -0.413163294444E+03   -0.97262E-02   -0.12315E-01  4303   0.102E-01    0.613E-01
RMM:   3    -0.413161961576E+03    0.13329E-02   -0.63103E-03  4632   0.372E-02    0.137E-01
RMM:   4    -0.413162004588E+03   -0.43013E-04   -0.89425E-04  5101   0.243E-02    0.395E-02
RMM:   5    -0.413161999494E+03    0.50939E-05   -0.14807E-04  4961   0.128E-02    0.399E-02
RMM:   6    -0.413161932392E+03    0.67103E-04   -0.89006E-05  5157   0.998E-03    0.147E-02
RMM:   7    -0.413161941365E+03   -0.89733E-05   -0.34149E-05  4905   0.658E-03    0.785E-03
RMM:   8    -0.413161943561E+03   -0.21960E-05   -0.77486E-06  3235   0.364E-03    0.344E-03
RMM:   9    -0.413161945766E+03   -0.22046E-05   -0.13482E-06  2509   0.188E-03    0.181E-03
RMM:  10    -0.413161949223E+03   -0.34575E-05   -0.10690E-06  2424   0.151E-03    0.844E-04
RMM:  11    -0.413161952146E+03   -0.29233E-05   -0.78477E-07  2294   0.121E-03    0.420E-04
RMM:  12    -0.413161953103E+03   -0.95650E-06   -0.27050E-07  1690   0.797E-04
  144 T=    60. E= -.41286668E+03 F= -.41316195E+03 E0= -.41314128E+03  EK= 0.29528E+00 SP= 0.00E+00 SK= 0.00E+00
       N       E                     dE             d eps       ncg     rms          rms(c)
RMM:   1    -0.413153264876E+03    0.86873E-02   -0.10546E+01  4264   0.860E-01    0.875E-01
RMM:   2    -0.413162209543E+03   -0.89447E-02   -0.12282E-01  4308   0.103E-01    0.604E-01
RMM:   3    -0.413161597672E+03    0.61187E-03   -0.64060E-03  4758   0.346E-02    0.144E-01
RMM:   4    -0.413163235831E+03   -0.16382E-02   -0.23918E-03  5194   0.437E-02    0.174E-01
RMM:   5    -0.413161585557E+03    0.16503E-02   -0.89078E-04  4843   0.304E-02    0.300E-02
RMM:   6    -0.413161555163E+03    0.30394E-04   -0.23667E-04  5371   0.163E-02    0.150E-02
RMM:   7    -0.413161560830E+03   -0.56663E-05   -0.48984E-05  5220   0.733E-03    0.819E-03
RMM:   8    -0.413161560422E+03    0.40756E-06   -0.10101E-05  3591   0.387E-03    0.354E-03
RMM:   9    -0.413161560710E+03   -0.28744E-06   -0.19391E-06  2559   0.222E-03
  145 T=    60. E= -.41286629E+03 F= -.41316156E+03 E0= -.41314089E+03  EK= 0.29527E+00 SP= 0.00E+00 SK= 0.00E+00
       N       E                     dE             d eps       ncg     rms          rms(c)
RMM:   1    -0.413153570452E+03    0.79900E-02   -0.10522E+01  4265   0.862E-01    0.851E-01
RMM:   2    -0.413163748890E+03   -0.10178E-01   -0.12529E-01  4326   0.994E-02    0.609E-01
RMM:   3    -0.413162727505E+03    0.10214E-02   -0.59356E-03  4923   0.356E-02    0.146E-01
RMM:   4    -0.413176673254E+03   -0.13946E-01   -0.14338E-02  5170   0.101E-01    0.495E-01
RMM:   5    -0.413162625541E+03    0.14048E-01   -0.70425E-03  4840   0.818E-02    0.351E-02
RMM:   6    -0.413162628084E+03   -0.25439E-05   -0.12007E-03  5746   0.324E-02    0.119E-02
RMM:   7    -0.413162648196E+03   -0.20112E-04   -0.14314E-04  5501   0.102E-02    0.864E-03
RMM:   8    -0.413162655163E+03   -0.69666E-05   -0.17691E-05  3838   0.424E-03    0.525E-03
RMM:   9    -0.413162661741E+03   -0.65787E-05   -0.31265E-06  2616   0.245E-03    0.226E-03
RMM:  10    -0.413162666655E+03   -0.49136E-05   -0.15560E-06  2551   0.170E-03    0.111E-03
RMM:  11    -0.413162669972E+03   -0.33168E-05   -0.92288E-07  2411   0.129E-03    0.560E-04
RMM:  12    -0.413162671875E+03   -0.19037E-05   -0.55851E-07  2004   0.102E-03    0.240E-04
RMM:  13    -0.413162672847E+03   -0.97112E-06   -0.36742E-07  1671   0.862E-04
  146 T=    60. E= -.41286663E+03 F= -.41316267E+03 E0= -.41314201E+03  EK= 0.29604E+00 SP= 0.00E+00 SK= 0.00E+00
       N       E                     dE             d eps       ncg     rms          rms(c)
RMM:   1    -0.413154142063E+03    0.85298E-02   -0.10593E+01  4267   0.877E-01    0.863E-01
RMM:   2    -0.413163885229E+03   -0.97432E-02   -0.12620E-01  4309   0.105E-01    0.616E-01
RMM:   3    -0.413162966303E+03    0.91893E-03   -0.61652E-03  4922   0.383E-02    0.149E-01
RMM:   4    -0.413181622481E+03   -0.18656E-01   -0.19115E-02  5165   0.116E-01    0.571E-01
RMM:   5    -0.413162761234E+03    0.18861E-01   -0.94755E-03  4838   0.946E-02    0.396E-02
RMM:   6    -0.413162763524E+03   -0.22899E-05   -0.15202E-03  5724   0.371E-02    0.122E-02
RMM:   7    -0.413162782666E+03   -0.19142E-04   -0.17879E-04  5677   0.114E-02    0.914E-03
RMM:   8    -0.413162787796E+03   -0.51302E-05   -0.22130E-05  3955   0.447E-03    0.573E-03
RMM:   9    -0.413162792527E+03   -0.47302E-05   -0.35938E-06  2662   0.259E-03    0.252E-03
RMM:  10    -0.413162796157E+03   -0.36306E-05   -0.16321E-06  2551   0.176E-03    0.119E-03
RMM:  11    -0.413162798579E+03   -0.24220E-05   -0.89156E-07  2423   0.131E-03    0.603E-04
RMM:  12    -0.413162799891E+03   -0.13114E-05   -0.52593E-07  2009   0.102E-03    0.243E-04
RMM:  13    -0.413162800440E+03   -0.54904E-06   -0.31924E-07  1631   0.850E-04
  147 T=    60. E= -.41286632E+03 F= -.41316280E+03 E0= -.41314214E+03  EK= 0.29648E+00 SP= 0.00E+00 SK= 0.00E+00
       N       E                     dE             d eps       ncg     rms          rms(c)
RMM:   1    -0.413154851658E+03    0.79482E-02   -0.10567E+01  4264   0.869E-01    0.879E-01
RMM:   2    -0.413163934929E+03   -0.90833E-02   -0.12356E-01  4319   0.101E-01    0.607E-01
RMM:   3    -0.413163451392E+03    0.48354E-03   -0.66171E-03  4966   0.397E-02    0.159E-01
RMM:   4    -0.413188251631E+03   -0.24800E-01   -0.25449E-02  5157   0.133E-01    0.656E-01
RMM:   5    -0.413163175115E+03    0.25077E-01   -0.12570E-02  4832   0.109E-01    0.465E-02
RMM:   6    -0.413163197240E+03   -0.22125E-04   -0.20668E-03  5708   0.429E-02    0.159E-02
RMM:   7    -0.413163217454E+03   -0.20213E-04   -0.25520E-04  5803   0.130E-02    0.109E-02
RMM:   8    -0.413163218610E+03   -0.11566E-05   -0.30070E-05  4254   0.511E-03    0.654E-03
RMM:   9    -0.413163217021E+03    0.15889E-05   -0.49091E-06  2790   0.277E-03    0.294E-03
RMM:  10    -0.413163216019E+03    0.10022E-05   -0.18369E-06  2557   0.186E-03    0.156E-03
RMM:  11    -0.413163214536E+03    0.14835E-05   -0.95652E-07  2468   0.140E-03    0.768E-04
RMM:  12    -0.413163212929E+03    0.16061E-05   -0.57678E-07  2167   0.109E-03    0.267E-04
RMM:  13    -0.413163211863E+03    0.10668E-05   -0.30050E-07  1695   0.859E-04    0.191E-04
RMM:  14    -0.413163209968E+03    0.18942E-05   -0.31305E-07  1724   0.836E-04    0.118E-04
RMM:  15    -0.413163208563E+03    0.14054E-05   -0.18395E-07  1448   0.714E-04    0.636E-05
RMM:  16    -0.413163206998E+03    0.15652E-05   -0.14315E-07  1315   0.672E-04    0.381E-05
RMM:  17    -0.413163206209E+03    0.78927E-06   -0.80457E-08  1106   0.594E-04
  148 T=    60. E= -.41286643E+03 F= -.41316321E+03 E0= -.41314255E+03  EK= 0.29678E+00 SP= 0.00E+00 SK= 0.00E+00
       N       E                     dE             d eps       ncg     rms          rms(c)
RMM:   1    -0.413155253837E+03    0.79532E-02   -0.10431E+01  4264   0.867E-01    0.853E-01
RMM:   2    -0.413165238543E+03   -0.99847E-02   -0.12420E-01  4320   0.101E-01    0.608E-01
RMM:   3    -0.413164491753E+03    0.74679E-03   -0.63989E-03  5018   0.417E-02    0.164E-01
RMM:   4    -0.413198291276E+03   -0.33800E-01   -0.35671E-02  5154   0.157E-01    0.764E-01
RMM:   5    -0.413163914882E+03    0.34376E-01   -0.17060E-02  4825   0.128E-01    0.525E-02
RMM:   6    -0.413163970629E+03   -0.55747E-04   -0.27809E-03  5684   0.501E-02    0.151E-02
RMM:   7    -0.413164000167E+03   -0.29539E-04   -0.34695E-04  5965   0.148E-02    0.115E-02
RMM:   8    -0.413164003912E+03   -0.37447E-05   -0.39808E-05  4641   0.582E-03    0.689E-03
RMM:   9    -0.413164005414E+03   -0.15016E-05   -0.68154E-06  2983   0.305E-03    0.325E-03
RMM:  10    -0.413164007253E+03   -0.18395E-05   -0.21226E-06  2559   0.196E-03    0.182E-03
RMM:  11    -0.413164008524E+03   -0.12707E-05   -0.10656E-06  2496   0.146E-03    0.987E-04
RMM:  12    -0.413164009016E+03   -0.49265E-06   -0.65365E-07  2195   0.114E-03
  149 T=    61. E= -.41286656E+03 F= -.41316401E+03 E0= -.41314336E+03  EK= 0.29744E+00 SP= 0.00E+00 SK= 0.00E+00
       N       E                     dE             d eps       ncg     rms          rms(c)
RMM:   1    -0.413155782337E+03    0.82262E-02   -0.10425E+01  4272   0.873E-01    0.857E-01
RMM:   2    -0.413165735748E+03   -0.99534E-02   -0.12569E-01  4321   0.101E-01    0.619E-01
RMM:   3    -0.413164744338E+03    0.99141E-03   -0.68566E-03  5050   0.436E-02    0.165E-01
RMM:   4    -0.413201964812E+03   -0.37220E-01   -0.39776E-02  5145   0.166E-01    0.800E-01
RMM:   5    -0.413164092537E+03    0.37872E-01   -0.18634E-02  4818   0.134E-01    0.552E-02
RMM:   6    -0.413164161571E+03   -0.69034E-04   -0.30727E-03  5687   0.526E-02    0.161E-02
RMM:   7    -0.413164196674E+03   -0.35103E-04   -0.38431E-04  6007   0.156E-02    0.122E-02
RMM:   8    -0.413164202471E+03   -0.57974E-05   -0.46034E-05  5012   0.642E-03    0.708E-03
RMM:   9    -0.413164205236E+03   -0.27645E-05   -0.82294E-06  3105   0.322E-03    0.333E-03
RMM:  10    -0.413164208057E+03   -0.28209E-05   -0.23957E-06  2576   0.205E-03    0.194E-03
RMM:  11    -0.413164210424E+03   -0.23674E-05   -0.11781E-06  2509   0.155E-03    0.113E-03
RMM:  12    -0.413164211644E+03   -0.12203E-05   -0.73599E-07  2303   0.120E-03    0.407E-04
RMM:  13    -0.413164211871E+03   -0.22685E-06   -0.33850E-07  1824   0.888E-04
  150 T=    61. E= -.41286625E+03 F= -.41316421E+03 E0= -.41314356E+03  EK= 0.29796E+00 SP= 0.00E+00 SK= 0.00E+00
