       N       E                     dE             d eps       ncg     rms          rms(c)
RMM:   1     0.220133652368E+04    0.22013E+04   -0.52441E+04  2132   0.654E+02
RMM:   2     0.705303407735E+03   -0.14960E+04   -0.16261E+04  2132   0.177E+02
RMM:   3     0.137709871171E+03   -0.56759E+03   -0.65709E+03  2132   0.117E+02
RMM:   4    -0.159442626295E+03   -0.29715E+03   -0.27854E+03  2132   0.936E+01
RMM:   5    -0.287486929997E+03   -0.12804E+03   -0.11443E+03  2132   0.595E+01
RMM:   6    -0.349772939999E+03   -0.62286E+02   -0.55062E+02  2132   0.423E+01
RMM:   7    -0.382643215076E+03   -0.32870E+02   -0.30390E+02  2132   0.293E+01
RMM:   8    -0.404113752789E+03   -0.21471E+02   -0.18466E+02  2132   0.233E+01
RMM:   9    -0.435979761972E+03   -0.31866E+02   -0.30773E+02  6099   0.173E+01
RMM:  10    -0.441315205910E+03   -0.53354E+01   -0.63475E+01  6396   0.539E+00
RMM:  11    -0.442497624405E+03   -0.11824E+01   -0.10990E+01  6217   0.173E+00
RMM:  12    -0.442871630942E+03   -0.37401E+00   -0.26395E+00  6371   0.602E-01    0.134E+02
RMM:  13    -0.425622640177E+03    0.17249E+02   -0.81293E+01  4674   0.119E+01    0.712E+01
RMM:  14    -0.500109056941E+03   -0.74486E+02   -0.54620E+02  5426   0.233E+01    0.307E+01
RMM:  15    -0.414664226610E+03    0.85445E+02   -0.19780E+02  5064   0.163E+01    0.632E+00
RMM:  16    -0.414018049850E+03    0.64618E+00   -0.39337E+01  6078   0.606E+00    0.426E+00
RMM:  17    -0.413211551856E+03    0.80650E+00   -0.23746E+00  5355   0.184E+00    0.243E+00
RMM:  18    -0.413170056226E+03    0.41496E-01   -0.83292E-01  5984   0.933E-01    0.161E+00
RMM:  19    -0.413168588055E+03    0.14682E-02   -0.29624E-01  5688   0.580E-01    0.851E-01
RMM:  20    -0.413183291701E+03   -0.14704E-01   -0.21050E-01  5413   0.501E-01    0.534E-01
RMM:  21    -0.413167953580E+03    0.15338E-01   -0.33946E-02  4991   0.229E-01    0.245E-01
RMM:  22    -0.413166421685E+03    0.15319E-02   -0.14224E-02  6141   0.986E-02    0.149E-01
RMM:  23    -0.413164708423E+03    0.17133E-02   -0.61526E-03  5803   0.732E-02    0.858E-02
RMM:  24    -0.413163184982E+03    0.15234E-02   -0.16806E-03  5332   0.413E-02    0.402E-02
RMM:  25    -0.413162814891E+03    0.37009E-03   -0.86542E-04  5636   0.259E-02    0.315E-02
RMM:  26    -0.413162957900E+03   -0.14301E-03   -0.68511E-04  5846   0.267E-02    0.307E-02
RMM:  27    -0.413163397550E+03   -0.43965E-03   -0.19744E-04  4526   0.201E-02    0.175E-02
RMM:  28    -0.413163880624E+03   -0.48307E-03   -0.19167E-04  5205   0.201E-02    0.977E-03
RMM:  29    -0.413164243027E+03   -0.36240E-03   -0.10417E-04  4379   0.150E-02    0.424E-03
RMM:  30    -0.413164447770E+03   -0.20474E-03   -0.76814E-05  4238   0.989E-03    0.294E-03
RMM:  31    -0.413164549384E+03   -0.10161E-03   -0.48478E-05  3218   0.634E-03    0.293E-03
RMM:  32    -0.413164568483E+03   -0.19100E-04   -0.19541E-05  2944   0.298E-03    0.138E-03
RMM:  33    -0.413164573620E+03   -0.51367E-05   -0.80010E-06  2739   0.195E-03    0.517E-04
RMM:  34    -0.413164573256E+03    0.36469E-06   -0.41675E-06  2660   0.161E-03
    1 T=    61. E= -.41286680E+03 F= -.41316457E+03 E0= -.41314208E+03  EK= 0.29777E+00 SP= 0.00E+00 SK= 0.00E+00
       N       E                     dE             d eps       ncg     rms          rms(c)
RMM:   1    -0.413170101828E+03   -0.55282E-02   -0.71931E+00  3982   0.536E-01    0.896E-01
RMM:   2    -0.413170474127E+03   -0.37230E-03   -0.90586E-02  3992   0.793E-02    0.660E-01
RMM:   3    -0.413166272161E+03    0.42020E-02   -0.36293E-02  5009   0.693E-02    0.225E-01
RMM:   4    -0.413192324866E+03   -0.26053E-01   -0.33600E-02  5181   0.154E-01    0.694E-01
RMM:   5    -0.413164090946E+03    0.28234E-01   -0.13347E-02  4805   0.118E-01    0.516E-02
RMM:   6    -0.413164280958E+03   -0.19001E-03   -0.24858E-03  5716   0.487E-02    0.340E-02
RMM:   7    -0.413164293389E+03   -0.12430E-04   -0.43982E-04  5791   0.186E-02    0.218E-02
RMM:   8    -0.413164291635E+03    0.17540E-05   -0.52829E-05  5205   0.808E-03    0.865E-03
RMM:   9    -0.413164294325E+03   -0.26906E-05   -0.11348E-05  3538   0.352E-03    0.595E-03
RMM:  10    -0.413164299852E+03   -0.55265E-05   -0.23164E-06  2594   0.223E-03    0.356E-03
RMM:  11    -0.413164303729E+03   -0.38776E-05   -0.11847E-06  2516   0.159E-03    0.193E-03
RMM:  12    -0.413164309939E+03   -0.62093E-05   -0.13761E-06  2531   0.165E-03    0.895E-04
RMM:  13    -0.413164313210E+03   -0.32710E-05   -0.68491E-07  2344   0.120E-03    0.648E-04
RMM:  14    -0.413164313284E+03   -0.74146E-07   -0.34602E-07  1846   0.835E-04
    2 T=    61. E= -.41286669E+03 F= -.41316431E+03 E0= -.41314181E+03  EK= 0.29762E+00 SP= 0.00E+00 SK= 0.00E+00
       N       E                     dE             d eps       ncg     rms          rms(c)
RMM:   1    -0.413171123142E+03   -0.68099E-02   -0.71584E+00  4189   0.537E-01    0.911E-01
RMM:   2    -0.413170701610E+03    0.42153E-03   -0.90610E-02  4004   0.786E-02    0.658E-01
RMM:   3    -0.413166565679E+03    0.41359E-02   -0.33242E-02  5010   0.639E-02    0.195E-01
RMM:   4    -0.413193903701E+03   -0.27338E-01   -0.33311E-02  5152   0.154E-01    0.706E-01
RMM:   5    -0.413164709112E+03    0.29195E-01   -0.13510E-02  4800   0.118E-01    0.503E-02
RMM:   6    -0.413164913884E+03   -0.20477E-03   -0.25216E-03  5726   0.494E-02    0.362E-02
RMM:   7    -0.413164895795E+03    0.18089E-04   -0.45088E-04  5653   0.200E-02    0.233E-02
RMM:   8    -0.413164887305E+03    0.84901E-05   -0.59318E-05  5235   0.889E-03    0.103E-02
RMM:   9    -0.413164885822E+03    0.14837E-05   -0.12151E-05  3761   0.385E-03    0.707E-03
RMM:  10    -0.413164886117E+03   -0.29580E-06   -0.22309E-06  2586   0.236E-03
    3 T=    61. E= -.41286714E+03 F= -.41316489E+03 E0= -.41314239E+03  EK= 0.29774E+00 SP= 0.00E+00 SK= 0.00E+00
       N       E                     dE             d eps       ncg     rms          rms(c)
RMM:   1    -0.413170519607E+03   -0.56338E-02   -0.71101E+00  4220   0.542E-01    0.897E-01
RMM:   2    -0.413170332526E+03    0.18708E-03   -0.90124E-02  4229   0.777E-02    0.652E-01
RMM:   3    -0.413174078039E+03   -0.37455E-02   -0.38470E-02  5173   0.103E-01    0.417E-01
RMM:   4    -0.413180674546E+03   -0.65965E-02   -0.33784E-02  5078   0.160E-01    0.531E-01
RMM:   5    -0.413164653316E+03    0.16021E-01   -0.61187E-03  4598   0.889E-02    0.531E-02
RMM:   6    -0.413164654281E+03   -0.96568E-06   -0.12257E-03  5339   0.352E-02    0.313E-02
RMM:   7    -0.413164660426E+03   -0.61449E-05   -0.25406E-04  5755   0.151E-02    0.182E-02
RMM:   8    -0.413164656512E+03    0.39144E-05   -0.40550E-05  5017   0.766E-03    0.692E-03
RMM:   9    -0.413164655888E+03    0.62373E-06   -0.45960E-06  2880   0.289E-03
    4 T=    61. E= -.41286696E+03 F= -.41316466E+03 E0= -.41314217E+03  EK= 0.29770E+00 SP= 0.00E+00 SK= 0.00E+00
       N       E                     dE             d eps       ncg     rms          rms(c)
RMM:   1    -0.413170515101E+03   -0.58586E-02   -0.71906E+00  4237   0.549E-01    0.893E-01
RMM:   2    -0.413170731068E+03   -0.21597E-03   -0.90816E-02  4111   0.762E-02    0.658E-01
RMM:   3    -0.413170313245E+03    0.41782E-03   -0.38259E-02  5121   0.863E-02    0.334E-01
RMM:   4    -0.413188165449E+03   -0.17852E-01   -0.36074E-02  5101   0.163E-01    0.640E-01
RMM:   5    -0.413164695273E+03    0.23470E-01   -0.10007E-02  4693   0.107E-01    0.526E-02
RMM:   6    -0.413164798370E+03   -0.10310E-03   -0.18621E-03  5598   0.430E-02    0.317E-02
RMM:   7    -0.413164813133E+03   -0.14762E-04   -0.34209E-04  5800   0.166E-02    0.198E-02
RMM:   8    -0.413164813248E+03   -0.11531E-06   -0.46177E-05  5074   0.792E-03    0.766E-03
RMM:   9    -0.413164815259E+03   -0.20107E-05   -0.69437E-06  3156   0.316E-03    0.449E-03
RMM:  10    -0.413164820091E+03   -0.48327E-05   -0.17215E-06  2549   0.209E-03    0.276E-03
RMM:  11    -0.413164823760E+03   -0.36687E-05   -0.95170E-07  2506   0.155E-03    0.139E-03
RMM:  12    -0.413164828432E+03   -0.46713E-05   -0.99422E-07  2505   0.143E-03    0.660E-04
RMM:  13    -0.413164830805E+03   -0.23734E-05   -0.52978E-07  2185   0.108E-03    0.387E-04
RMM:  14    -0.413164831353E+03   -0.54837E-06   -0.23894E-07  1640   0.797E-04
    5 T=    61. E= -.41286695E+03 F= -.41316483E+03 E0= -.41314235E+03  EK= 0.29788E+00 SP= 0.00E+00 SK= 0.00E+00
       N       E                     dE             d eps       ncg     rms          rms(c)
RMM:   1    -0.413171358828E+03   -0.65280E-02   -0.71783E+00  4245   0.550E-01    0.908E-01
RMM:   2    -0.413170957482E+03    0.40135E-03   -0.90728E-02  4053   0.755E-02    0.659E-01
RMM:   3    -0.413167471337E+03    0.34861E-02   -0.33964E-02  5051   0.657E-02    0.219E-01
RMM:   4    -0.413194947479E+03   -0.27476E-01   -0.35446E-02  5128   0.159E-01    0.714E-01
RMM:   5    -0.413165106180E+03    0.29841E-01   -0.13646E-02  4767   0.119E-01    0.516E-02
RMM:   6    -0.413165295886E+03   -0.18971E-03   -0.24756E-03  5681   0.494E-02    0.355E-02
RMM:   7    -0.413165287175E+03    0.87110E-05   -0.44025E-04  5662   0.195E-02    0.228E-02
RMM:   8    -0.413165279212E+03    0.79633E-05   -0.58567E-05  5243   0.870E-03    0.975E-03
RMM:   9    -0.413165277189E+03    0.20231E-05   -0.10903E-05  3664   0.375E-03    0.641E-03
RMM:  10    -0.413165277657E+03   -0.46836E-06   -0.20778E-06  2568   0.231E-03
    6 T=    61. E= -.41286704E+03 F= -.41316528E+03 E0= -.41314281E+03  EK= 0.29824E+00 SP= 0.00E+00 SK= 0.00E+00
       N       E                     dE             d eps       ncg     rms          rms(c)
RMM:   1    -0.413170974958E+03   -0.56978E-02   -0.71403E+00  4258   0.555E-01    0.903E-01
RMM:   2    -0.413170698955E+03    0.27600E-03   -0.90450E-02  4244   0.771E-02    0.653E-01
RMM:   3    -0.413172709779E+03   -0.20108E-02   -0.36778E-02  5143   0.952E-02    0.378E-01
RMM:   4    -0.413183505670E+03   -0.10796E-01   -0.34426E-02  5077   0.160E-01    0.567E-01
RMM:   5    -0.413164998982E+03    0.18507E-01   -0.72167E-03  4642   0.947E-02    0.534E-02
RMM:   6    -0.413165029920E+03   -0.30938E-04   -0.14130E-03  5415   0.378E-02    0.321E-02
RMM:   7    -0.413165045008E+03   -0.15088E-04   -0.28112E-04  5783   0.159E-02    0.191E-02
RMM:   8    -0.413165036831E+03    0.81774E-05   -0.44644E-05  5020   0.815E-03    0.733E-03
RMM:   9    -0.413165034665E+03    0.21663E-05   -0.56633E-06  2997   0.306E-03    0.387E-03
RMM:  10    -0.413165034264E+03    0.40041E-06   -0.14841E-06  2526   0.197E-03
    7 T=    61. E= -.41286666E+03 F= -.41316503E+03 E0= -.41314259E+03  EK= 0.29838E+00 SP= 0.00E+00 SK= 0.00E+00
       N       E                     dE             d eps       ncg     rms          rms(c)
RMM:   1    -0.413171183645E+03   -0.61490E-02   -0.71944E+00  4267   0.563E-01    0.892E-01
RMM:   2    -0.413171716659E+03   -0.53301E-03   -0.90658E-02  4150   0.788E-02    0.657E-01
RMM:   3    -0.413168464281E+03    0.32524E-02   -0.36058E-02  5029   0.743E-02    0.253E-01
RMM:   4    -0.413194490734E+03   -0.26026E-01   -0.35942E-02  5118   0.160E-01    0.706E-01
RMM:   5    -0.413165438086E+03    0.29053E-01   -0.13173E-02  4752   0.118E-01    0.511E-02
RMM:   6    -0.413165628651E+03   -0.19056E-03   -0.24110E-03  5678   0.485E-02    0.343E-02
RMM:   7    -0.413165630691E+03   -0.20403E-05   -0.42530E-04  5673   0.193E-02    0.222E-02
RMM:   8    -0.413165623549E+03    0.71421E-05   -0.57625E-05  5176   0.878E-03    0.942E-03
RMM:   9    -0.413165623574E+03   -0.24884E-07   -0.10982E-05  3600   0.379E-03    0.615E-03
RMM:  10    -0.413165626495E+03   -0.29212E-05   -0.20640E-06  2576   0.230E-03    0.366E-03
RMM:  11    -0.413165628512E+03   -0.20169E-05   -0.10174E-06  2515   0.161E-03    0.202E-03
RMM:  12    -0.413165631664E+03   -0.31519E-05   -0.14202E-06  2536   0.175E-03    0.962E-04
RMM:  13    -0.413165633035E+03   -0.13709E-05   -0.70712E-07  2385   0.128E-03    0.765E-04
RMM:  14    -0.413165632807E+03    0.22764E-06   -0.25474E-07  1888   0.855E-04
    8 T=    61. E= -.41286693E+03 F= -.41316563E+03 E0= -.41314320E+03  EK= 0.29870E+00 SP= 0.00E+00 SK= 0.00E+00
       N       E                     dE             d eps       ncg     rms          rms(c)
RMM:   1    -0.413171752100E+03   -0.61191E-02   -0.72138E+00  4279   0.566E-01    0.905E-01
RMM:   2    -0.413171823402E+03   -0.71303E-04   -0.90800E-02  4173   0.797E-02    0.660E-01
RMM:   3    -0.413167753475E+03    0.40699E-02   -0.34449E-02  4984   0.678E-02    0.214E-01
RMM:   4    -0.413195086584E+03   -0.27333E-01   -0.33988E-02  5124   0.155E-01    0.710E-01
RMM:   5    -0.413165618373E+03    0.29468E-01   -0.13673E-02  4781   0.118E-01    0.499E-02
RMM:   6    -0.413165819592E+03   -0.20122E-03   -0.24509E-03  5710   0.489E-02    0.355E-02
RMM:   7    -0.413165808758E+03    0.10834E-04   -0.43338E-04  5621   0.197E-02    0.227E-02
RMM:   8    -0.413165801036E+03    0.77221E-05   -0.57169E-05  5184   0.871E-03    0.994E-03
RMM:   9    -0.413165799947E+03    0.10890E-05   -0.11257E-05  3708   0.380E-03    0.675E-03
RMM:  10    -0.413165800874E+03   -0.92688E-06   -0.20224E-06  2564   0.230E-03
    9 T=    61. E= -.41286696E+03 F= -.41316580E+03 E0= -.41314339E+03  EK= 0.29884E+00 SP= 0.00E+00 SK= 0.00E+00
       N       E                     dE             d eps       ncg     rms          rms(c)
RMM:   1    -0.413172001335E+03   -0.62014E-02   -0.71811E+00  4288   0.573E-01    0.909E-01
RMM:   2    -0.413171672001E+03    0.32933E-03   -0.91045E-02  4300   0.804E-02    0.655E-01
RMM:   3    -0.413174485416E+03   -0.28134E-02   -0.37195E-02  5133   0.100E-01    0.397E-01
RMM:   4    -0.413183071945E+03   -0.85865E-02   -0.34096E-02  5058   0.160E-01    0.547E-01
RMM:   5    -0.413165898697E+03    0.17173E-01   -0.64817E-03  4614   0.909E-02    0.534E-02
RMM:   6    -0.413165913057E+03   -0.14360E-04   -0.13450E-03  5369   0.363E-02    0.322E-02
RMM:   7    -0.413165914507E+03   -0.14495E-05   -0.26875E-04  5721   0.156E-02    0.188E-02
RMM:   8    -0.413165908105E+03    0.64016E-05   -0.42610E-05  5015   0.778E-03    0.719E-03
RMM:   9    -0.413165904962E+03    0.31433E-05   -0.49592E-06  2922   0.294E-03    0.377E-03
RMM:  10    -0.413165903436E+03    0.15262E-05   -0.14518E-06  2522   0.196E-03    0.226E-03
RMM:  11    -0.413165901580E+03    0.18555E-05   -0.91985E-07  2462   0.151E-03    0.112E-03
RMM:  12    -0.413165899198E+03    0.23820E-05   -0.73786E-07  2443   0.128E-03    0.496E-04
RMM:  13    -0.413165897607E+03    0.15915E-05   -0.35360E-07  1945   0.940E-04    0.309E-04
RMM:  14    -0.413165895966E+03    0.16405E-05   -0.22678E-07  1531   0.776E-04    0.188E-04
RMM:  15    -0.413165892900E+03    0.30665E-05   -0.31689E-07  1782   0.811E-04    0.277E-04
RMM:  16    -0.413165890117E+03    0.27831E-05   -0.22177E-07  1342   0.688E-04    0.175E-04
RMM:  17    -0.413165888897E+03    0.12195E-05   -0.10182E-07  1060   0.596E-04    0.879E-05
RMM:  18    -0.413165887241E+03    0.16562E-05   -0.92883E-08  1088   0.598E-04    0.479E-05
RMM:  19    -0.413165886912E+03    0.32905E-06   -0.36761E-08   801   0.537E-04
   10 T=    61. E= -.41286690E+03 F= -.41316589E+03 E0= -.41314350E+03  EK= 0.29899E+00 SP= 0.00E+00 SK= 0.00E+00
       N       E                     dE             d eps       ncg     rms          rms(c)
RMM:   1    -0.413172269099E+03   -0.63819E-02   -0.71941E+00  4291   0.576E-01    0.891E-01
RMM:   2    -0.413172519473E+03   -0.25037E-03   -0.90802E-02  4216   0.790E-02    0.655E-01
RMM:   3    -0.413169032925E+03    0.34865E-02   -0.34905E-02  5011   0.691E-02    0.233E-01
RMM:   4    -0.413196030398E+03   -0.26997E-01   -0.35391E-02  5111   0.159E-01    0.711E-01
RMM:   5    -0.413166485220E+03    0.29545E-01   -0.13615E-02  4756   0.118E-01    0.505E-02
RMM:   6    -0.413166670304E+03   -0.18508E-03   -0.24248E-03  5673   0.487E-02    0.350E-02
RMM:   7    -0.413166665550E+03    0.47538E-05   -0.42883E-04  5598   0.193E-02    0.224E-02
RMM:   8    -0.413166661838E+03    0.37117E-05   -0.57415E-05  5209   0.856E-03    0.963E-03
RMM:   9    -0.413166660866E+03    0.97246E-06   -0.10818E-05  3693   0.375E-03    0.638E-03
RMM:  10    -0.413166662825E+03   -0.19587E-05   -0.19512E-06  2553   0.225E-03    0.379E-03
RMM:  11    -0.413166664066E+03   -0.12415E-05   -0.92104E-07  2495   0.157E-03    0.213E-03
RMM:  12    -0.413166666023E+03   -0.19573E-05   -0.13078E-06  2519   0.173E-03    0.103E-03
RMM:  13    -0.413166666703E+03   -0.67915E-06   -0.60253E-07  2379   0.126E-03
   11 T=    61. E= -.41286723E+03 F= -.41316667E+03 E0= -.41314431E+03  EK= 0.29944E+00 SP= 0.00E+00 SK= 0.00E+00
       N       E                     dE             d eps       ncg     rms          rms(c)
RMM:   1    -0.413172471208E+03   -0.58052E-02   -0.72563E+00  4293   0.581E-01    0.902E-01
RMM:   2    -0.413172466160E+03    0.50485E-05   -0.91478E-02  4230   0.787E-02    0.661E-01
RMM:   3    -0.413168641821E+03    0.38243E-02   -0.35026E-02  4994   0.667E-02    0.219E-01
RMM:   4    -0.413195805896E+03   -0.27164E-01   -0.34103E-02  5115   0.155E-01    0.709E-01
RMM:   5    -0.413166427762E+03    0.29378E-01   -0.13649E-02  4765   0.118E-01    0.495E-02
RMM:   6    -0.413166626688E+03   -0.19893E-03   -0.24796E-03  5736   0.487E-02    0.350E-02
RMM:   7    -0.413166619742E+03    0.69468E-05   -0.42440E-04  5628   0.197E-02    0.226E-02
RMM:   8    -0.413166613545E+03    0.61968E-05   -0.58518E-05  5128   0.871E-03    0.102E-02
RMM:   9    -0.413166612201E+03    0.13438E-05   -0.11314E-05  3702   0.384E-03    0.697E-03
RMM:  10    -0.413166613553E+03   -0.13521E-05   -0.19970E-06  2559   0.228E-03    0.409E-03
RMM:  11    -0.413166614483E+03   -0.93038E-06   -0.10536E-06  2498   0.167E-03
   12 T=    61. E= -.41286688E+03 F= -.41316661E+03 E0= -.41314428E+03  EK= 0.29973E+00 SP= 0.00E+00 SK= 0.00E+00
       N       E                     dE             d eps       ncg     rms          rms(c)
RMM:   1    -0.413173527901E+03   -0.69143E-02   -0.72344E+00  4292   0.591E-01    0.913E-01
RMM:   2    -0.413172717497E+03    0.81040E-03   -0.91796E-02  4248   0.772E-02    0.658E-01
RMM:   3    -0.413168582761E+03    0.41347E-02   -0.32066E-02  4987   0.584E-02    0.176E-01
RMM:   4    -0.413195527940E+03   -0.26945E-01   -0.31567E-02  5118   0.149E-01    0.697E-01
RMM:   5    -0.413167046705E+03    0.28481E-01   -0.13335E-02  4784   0.116E-01    0.493E-02
RMM:   6    -0.413167237320E+03   -0.19062E-03   -0.24446E-03  5753   0.484E-02    0.358E-02
RMM:   7    -0.413167215772E+03    0.21548E-04   -0.42511E-04  5630   0.200E-02    0.230E-02
RMM:   8    -0.413167201027E+03    0.14745E-04   -0.56814E-05  5075   0.875E-03    0.106E-02
RMM:   9    -0.413167196328E+03    0.46984E-05   -0.11627E-05  3706   0.388E-03    0.746E-03
RMM:  10    -0.413167192993E+03    0.33353E-05   -0.21490E-06  2573   0.240E-03    0.431E-03
RMM:  11    -0.413167190574E+03    0.24190E-05   -0.11618E-06  2507   0.176E-03    0.243E-03
RMM:  12    -0.413167185886E+03    0.46880E-05   -0.17770E-06  2578   0.198E-03    0.116E-03
RMM:  13    -0.413167182628E+03    0.32578E-05   -0.63770E-07  2409   0.135E-03    0.909E-04
RMM:  14    -0.413167182728E+03   -0.99993E-07   -0.24085E-07  1911   0.860E-04
   13 T=    61. E= -.41286690E+03 F= -.41316718E+03 E0= -.41314488E+03  EK= 0.30028E+00 SP= 0.00E+00 SK= 0.00E+00
       N       E                     dE             d eps       ncg     rms          rms(c)
RMM:   1    -0.413173354355E+03   -0.61717E-02   -0.72171E+00  4295   0.587E-01    0.894E-01
RMM:   2    -0.413173575266E+03   -0.22091E-03   -0.91071E-02  4247   0.769E-02    0.654E-01
RMM:   3    -0.413169795900E+03    0.37794E-02   -0.33695E-02  5004   0.648E-02    0.212E-01
RMM:   4    -0.413197289747E+03   -0.27494E-01   -0.34375E-02  5117   0.156E-01    0.712E-01
RMM:   5    -0.413167648909E+03    0.29641E-01   -0.13707E-02  4766   0.119E-01    0.500E-02
RMM:   6    -0.413167842306E+03   -0.19340E-03   -0.24781E-03  5710   0.489E-02    0.354E-02
RMM:   7    -0.413167833385E+03    0.89205E-05   -0.43050E-04  5598   0.198E-02    0.228E-02
RMM:   8    -0.413167824937E+03    0.84479E-05   -0.58724E-05  5173   0.875E-03    0.101E-02
RMM:   9    -0.413167821969E+03    0.29684E-05   -0.11273E-05  3708   0.384E-03    0.686E-03
RMM:  10    -0.413167821549E+03    0.41943E-06   -0.20160E-06  2560   0.231E-03
   14 T=    61. E= -.41286698E+03 F= -.41316782E+03 E0= -.41314555E+03  EK= 0.30084E+00 SP= 0.00E+00 SK= 0.00E+00
       N       E                     dE             d eps       ncg     rms          rms(c)
RMM:   1    -0.413173478069E+03   -0.56561E-02   -0.73126E+00  4305   0.595E-01    0.900E-01
RMM:   2    -0.413173984450E+03   -0.50638E-03   -0.91983E-02  4319   0.796E-02    0.663E-01
RMM:   3    -0.413178001472E+03   -0.40170E-02   -0.40819E-02  5130   0.106E-01    0.435E-01
RMM:   4    -0.413184438920E+03   -0.64374E-02   -0.35126E-02  5049   0.163E-01    0.542E-01
RMM:   5    -0.413167892647E+03    0.16546E-01   -0.65535E-03  4585   0.916E-02    0.521E-02
RMM:   6    -0.413167907552E+03   -0.14906E-04   -0.12823E-03  5354   0.350E-02    0.309E-02
RMM:   7    -0.413167912414E+03   -0.48617E-05   -0.25217E-04  5642   0.152E-02    0.177E-02
RMM:   8    -0.413167907866E+03    0.45477E-05   -0.39051E-05  4906   0.784E-03    0.657E-03
RMM:   9    -0.413167907228E+03    0.63832E-06   -0.46832E-06  2864   0.290E-03
   15 T=    61. E= -.41286673E+03 F= -.41316791E+03 E0= -.41314567E+03  EK= 0.30118E+00 SP= 0.00E+00 SK= 0.00E+00
       N       E                     dE             d eps       ncg     rms          rms(c)
RMM:   1    -0.413174990244E+03   -0.70824E-02   -0.72911E+00  4299   0.597E-01    0.915E-01
RMM:   2    -0.413174755130E+03    0.23511E-03   -0.92098E-02  4273   0.828E-02    0.660E-01
RMM:   3    -0.413174165344E+03    0.58979E-03   -0.34605E-02  5095   0.856E-02    0.313E-01
RMM:   4    -0.413192885390E+03   -0.18720E-01   -0.36731E-02  5080   0.164E-01    0.642E-01
RMM:   5    -0.413168884955E+03    0.24000E-01   -0.97974E-03  4688   0.106E-01    0.536E-02
RMM:   6    -0.413168978172E+03   -0.93217E-04   -0.19528E-03  5598   0.435E-02    0.339E-02
RMM:   7    -0.413168967465E+03    0.10707E-04   -0.35544E-04  5725   0.177E-02    0.210E-02
RMM:   8    -0.413168960333E+03    0.71321E-05   -0.49241E-05  5054   0.851E-03    0.830E-03
RMM:   9    -0.413168956109E+03    0.42242E-05   -0.80219E-06  3233   0.335E-03    0.479E-03
RMM:  10    -0.413168953013E+03    0.30955E-05   -0.18414E-06  2553   0.220E-03    0.291E-03
RMM:  11    -0.413168950205E+03    0.28081E-05   -0.94205E-07  2479   0.159E-03    0.149E-03
RMM:  12    -0.413168945507E+03    0.46983E-05   -0.94639E-07  2483   0.149E-03    0.699E-04
RMM:  13    -0.413168941872E+03    0.36345E-05   -0.48637E-07  2237   0.111E-03    0.435E-04
RMM:  14    -0.413168940775E+03    0.10974E-05   -0.21647E-07  1676   0.794E-04    0.294E-04
RMM:  15    -0.413168934954E+03    0.58205E-05   -0.33270E-07  1993   0.886E-04    0.490E-04
RMM:  16    -0.413168931359E+03    0.35950E-05   -0.15985E-07  1249   0.652E-04    0.363E-04
RMM:  17    -0.413168929729E+03    0.16302E-05   -0.81545E-08   975   0.572E-04    0.246E-04
RMM:  18    -0.413168927708E+03    0.20215E-05   -0.71258E-08  1019   0.587E-04    0.101E-04
RMM:  19    -0.413168925980E+03    0.17273E-05   -0.69785E-08  1187   0.611E-04    0.134E-04
RMM:  20    -0.413168926016E+03   -0.35296E-07   -0.19122E-08   712   0.534E-04
   16 T=    61. E= -.41286712E+03 F= -.41316893E+03 E0= -.41314673E+03  EK= 0.30181E+00 SP= 0.00E+00 SK= 0.00E+00
       N       E                     dE             d eps       ncg     rms          rms(c)
RMM:   1    -0.413175025001E+03   -0.60990E-02   -0.72611E+00  4296   0.601E-01    0.898E-01
RMM:   2    -0.413175274571E+03   -0.24957E-03   -0.91860E-02  4258   0.814E-02    0.655E-01
RMM:   3    -0.413171684315E+03    0.35903E-02   -0.33080E-02  5006   0.700E-02    0.221E-01
RMM:   4    -0.413199765227E+03   -0.28081E-01   -0.36480E-02  5104   0.161E-01    0.721E-01
RMM:   5    -0.413169256094E+03    0.30509E-01   -0.13929E-02  4752   0.120E-01    0.512E-02
RMM:   6    -0.413169434114E+03   -0.17802E-03   -0.25589E-03  5692   0.497E-02    0.360E-02
RMM:   7    -0.413169418188E+03    0.15927E-04   -0.43975E-04  5593   0.199E-02    0.231E-02
RMM:   8    -0.413169409005E+03    0.91830E-05   -0.60165E-05  5172   0.907E-03    0.101E-02
RMM:   9    -0.413169405513E+03    0.34918E-05   -0.11813E-05  3751   0.394E-03    0.670E-03
RMM:  10    -0.413169404278E+03    0.12350E-05   -0.20631E-06  2562   0.234E-03    0.396E-03
RMM:  11    -0.413169403379E+03    0.89849E-06   -0.96962E-07  2490   0.162E-03
   17 T=    62. E= -.41286708E+03 F= -.41316940E+03 E0= -.41314724E+03  EK= 0.30232E+00 SP= 0.00E+00 SK= 0.00E+00
       N       E                     dE             d eps       ncg     rms          rms(c)
RMM:   1    -0.413175504916E+03   -0.61006E-02   -0.73657E+00  4297   0.609E-01    0.899E-01
RMM:   2    -0.413175970425E+03   -0.46551E-03   -0.92942E-02  4262   0.826E-02    0.663E-01
RMM:   3    -0.413171726354E+03    0.42441E-02   -0.35119E-02  4937   0.665E-02    0.213E-01
RMM:   4    -0.413198451435E+03   -0.26725E-01   -0.32471E-02  5108   0.152E-01    0.701E-01
RMM:   5    -0.413169767175E+03    0.28684E-01   -0.13511E-02  4773   0.117E-01    0.488E-02
RMM:   6    -0.413169954359E+03   -0.18718E-03   -0.24586E-03  5736   0.483E-02    0.344E-02
RMM:   7    -0.413169946087E+03    0.82723E-05   -0.41833E-04  5638   0.196E-02    0.224E-02
RMM:   8    -0.413169936382E+03    0.97055E-05   -0.56678E-05  5045   0.868E-03    0.101E-02
RMM:   9    -0.413169934334E+03    0.20472E-05   -0.11573E-05  3684   0.388E-03    0.710E-03
RMM:  10    -0.413169935007E+03   -0.67231E-06   -0.20219E-06  2567   0.231E-03
   18 T=    62. E= -.41286700E+03 F= -.41316994E+03 E0= -.41314782E+03  EK= 0.30293E+00 SP= 0.00E+00 SK= 0.00E+00
       N       E                     dE             d eps       ncg     rms          rms(c)
RMM:   1    -0.413177014616E+03   -0.70803E-02   -0.73608E+00  4302   0.611E-01    0.915E-01
RMM:   2    -0.413176810398E+03    0.20422E-03   -0.93217E-02  4318   0.821E-02    0.663E-01
RMM:   3    -0.413180180385E+03   -0.33700E-02   -0.37498E-02  5136   0.101E-01    0.407E-01
RMM:   4    -0.413188563729E+03   -0.83833E-02   -0.35372E-02  5052   0.163E-01    0.551E-01
RMM:   5    -0.413171113359E+03    0.17450E-01   -0.65366E-03  4601   0.916E-02    0.532E-02
RMM:   6    -0.413171133621E+03   -0.20261E-04   -0.13892E-03  5375   0.363E-02    0.324E-02
RMM:   7    -0.413171122397E+03    0.11224E-04   -0.26798E-04  5662   0.156E-02    0.187E-02
RMM:   8    -0.413171117889E+03    0.45074E-05   -0.41622E-05  4959   0.790E-03    0.708E-03
RMM:   9    -0.413171113914E+03    0.39756E-05   -0.53000E-06  2933   0.301E-03    0.380E-03
RMM:  10    -0.413171111200E+03    0.27136E-05   -0.14238E-06  2510   0.197E-03    0.227E-03
RMM:  11    -0.413171108193E+03    0.30071E-05   -0.84534E-07  2459   0.149E-03    0.113E-03
RMM:  12    -0.413171104050E+03    0.41432E-05   -0.66072E-07  2430   0.126E-03    0.514E-04
RMM:  13    -0.413171101331E+03    0.27189E-05   -0.31858E-07  1922   0.927E-04    0.314E-04
RMM:  14    -0.413171099048E+03    0.22833E-05   -0.18059E-07  1450   0.739E-04    0.195E-04
RMM:  15    -0.413171094119E+03    0.49285E-05   -0.21499E-07  1620   0.764E-04    0.271E-04
RMM:  16    -0.413171089968E+03    0.41509E-05   -0.14068E-07  1194   0.651E-04    0.184E-04
RMM:  17    -0.413171088042E+03    0.19262E-05   -0.75583E-08  1004   0.587E-04    0.944E-05
RMM:  18    -0.413171085507E+03    0.25347E-05   -0.66551E-08  1036   0.592E-04    0.367E-05
RMM:  19    -0.413171084659E+03    0.84857E-06   -0.30847E-08   805   0.550E-04
   19 T=    62. E= -.41286722E+03 F= -.41317108E+03 E0= -.41314901E+03  EK= 0.30387E+00 SP= 0.00E+00 SK= 0.00E+00
       N       E                     dE             d eps       ncg     rms          rms(c)
RMM:   1    -0.413177084945E+03   -0.59994E-02   -0.73362E+00  4296   0.617E-01    0.905E-01
RMM:   2    -0.413177021034E+03    0.63911E-04   -0.92993E-02  4255   0.802E-02    0.657E-01
RMM:   3    -0.413173771301E+03    0.32497E-02   -0.32238E-02  5047   0.670E-02    0.215E-01
RMM:   4    -0.413202539415E+03   -0.28768E-01   -0.37463E-02  5108   0.163E-01    0.729E-01
RMM:   5    -0.413171345096E+03    0.31194E-01   -0.14253E-02  4756   0.121E-01    0.520E-02
RMM:   6    -0.413171536284E+03   -0.19119E-03   -0.26131E-03  5687   0.504E-02    0.364E-02
RMM:   7    -0.413171526759E+03    0.95247E-05   -0.45356E-04  5592   0.202E-02    0.235E-02
RMM:   8    -0.413171515977E+03    0.10782E-04   -0.64547E-05  5189   0.937E-03    0.104E-02
RMM:   9    -0.413171511396E+03    0.45808E-05   -0.12550E-05  3809   0.407E-03    0.683E-03
RMM:  10    -0.413171508553E+03    0.28432E-05   -0.21952E-06  2579   0.239E-03    0.404E-03
RMM:  11    -0.413171506718E+03    0.18344E-05   -0.99193E-07  2503   0.163E-03    0.234E-03
RMM:  12    -0.413171502764E+03    0.39542E-05   -0.14678E-06  2530   0.186E-03    0.111E-03
RMM:  13    -0.413171499747E+03    0.30168E-05   -0.66003E-07  2394   0.135E-03    0.904E-04
RMM:  14    -0.413171499546E+03    0.20119E-06   -0.26610E-07  1972   0.902E-04
   20 T=    62. E= -.41286685E+03 F= -.41317150E+03 E0= -.41314947E+03  EK= 0.30465E+00 SP= 0.00E+00 SK= 0.00E+00
       N       E                     dE             d eps       ncg     rms          rms(c)
RMM:   1    -0.413177982996E+03   -0.64832E-02   -0.74286E+00  4295   0.623E-01    0.899E-01
RMM:   2    -0.413178477883E+03   -0.49489E-03   -0.93643E-02  4257   0.805E-02    0.663E-01
RMM:   3    -0.413174591749E+03    0.38861E-02   -0.34620E-02  4997   0.653E-02    0.215E-01
RMM:   4    -0.413202304296E+03   -0.27713E-01   -0.34343E-02  5107   0.156E-01    0.714E-01
RMM:   5    -0.413172440877E+03    0.29863E-01   -0.13964E-02  4763   0.120E-01    0.497E-02
RMM:   6    -0.413172634930E+03   -0.19405E-03   -0.25336E-03  5725   0.492E-02    0.347E-02
RMM:   7    -0.413172630777E+03    0.41532E-05   -0.42254E-04  5593   0.199E-02    0.226E-02
RMM:   8    -0.413172623159E+03    0.76178E-05   -0.62283E-05  5091   0.921E-03    0.105E-02
RMM:   9    -0.413172620461E+03    0.26980E-05   -0.12365E-05  3779   0.406E-03    0.715E-03
RMM:  10    -0.413172620652E+03   -0.19081E-06   -0.20794E-06  2569   0.235E-03
   21 T=    62. E= -.41286698E+03 F= -.41317262E+03 E0= -.41315063E+03  EK= 0.30564E+00 SP= 0.00E+00 SK= 0.00E+00
       N       E                     dE             d eps       ncg     rms          rms(c)
RMM:   1    -0.413179342584E+03   -0.67221E-02   -0.74534E+00  4300   0.624E-01    0.915E-01
RMM:   2    -0.413179632108E+03   -0.28952E-03   -0.93944E-02  4338   0.847E-02    0.666E-01
RMM:   3    -0.413182753659E+03   -0.31216E-02   -0.37625E-02  5132   0.102E-01    0.406E-01
RMM:   4    -0.413191881321E+03   -0.91277E-02   -0.36013E-02  5048   0.164E-01    0.562E-01
RMM:   5    -0.413173730847E+03    0.18150E-01   -0.68131E-03  4603   0.943E-02    0.529E-02
RMM:   6    -0.413173766825E+03   -0.35977E-04   -0.14506E-03  5393   0.369E-02    0.321E-02
RMM:   7    -0.413173773486E+03   -0.66612E-05   -0.27738E-04  5648   0.160E-02    0.189E-02
RMM:   8    -0.413173764911E+03    0.85750E-05   -0.43968E-05  4978   0.810E-03    0.722E-03
RMM:   9    -0.413173760882E+03    0.40284E-05   -0.55482E-06  2960   0.310E-03    0.390E-03
RMM:  10    -0.413173758499E+03    0.23834E-05   -0.14137E-06  2513   0.197E-03    0.235E-03
RMM:  11    -0.413173755886E+03    0.26130E-05   -0.83595E-07  2460   0.149E-03    0.118E-03
RMM:  12    -0.413173752045E+03    0.38406E-05   -0.66381E-07  2434   0.127E-03    0.523E-04
RMM:  13    -0.413173749615E+03    0.24306E-05   -0.31598E-07  1954   0.931E-04    0.329E-04
RMM:  14    -0.413173747641E+03    0.19731E-05   -0.17421E-07  1441   0.732E-04    0.211E-04
RMM:  15    -0.413173742804E+03    0.48373E-05   -0.19915E-07  1568   0.751E-04    0.269E-04
RMM:  16    -0.413173738777E+03    0.40268E-05   -0.12307E-07  1128   0.639E-04    0.186E-04
RMM:  17    -0.413173736593E+03    0.21848E-05   -0.71928E-08   988   0.590E-04    0.964E-05
RMM:  18    -0.413173733674E+03    0.29185E-05   -0.67048E-08  1059   0.596E-04    0.447E-05
RMM:  19    -0.413173732783E+03    0.89109E-06   -0.29297E-08   787   0.548E-04
   22 T=    62. E= -.41286711E+03 F= -.41317373E+03 E0= -.41315179E+03  EK= 0.30663E+00 SP= 0.00E+00 SK= 0.00E+00
       N       E                     dE             d eps       ncg     rms          rms(c)
RMM:   1    -0.413180261093E+03   -0.65274E-02   -0.74403E+00  4295   0.635E-01    0.914E-01
RMM:   2    -0.413180264700E+03   -0.36061E-05   -0.94310E-02  4280   0.833E-02    0.661E-01
RMM:   3    -0.413176297274E+03    0.39674E-02   -0.31479E-02  4976   0.664E-02    0.195E-01
RMM:   4    -0.413206068432E+03   -0.29771E-01   -0.36560E-02  5104   0.161E-01    0.735E-01
RMM:   5    -0.413174300580E+03    0.31768E-01   -0.14690E-02  4772   0.123E-01    0.516E-02
RMM:   6    -0.413174493438E+03   -0.19286E-03   -0.27272E-03  5716   0.510E-02    0.370E-02
RMM:   7    -0.413174477459E+03    0.15979E-04   -0.46103E-04  5586   0.206E-02    0.238E-02
RMM:   8    -0.413174466729E+03    0.10730E-04   -0.66712E-05  5197   0.934E-03    0.110E-02
RMM:   9    -0.413174461197E+03    0.55320E-05   -0.12725E-05  3868   0.409E-03    0.741E-03
RMM:  10    -0.413174457215E+03    0.39817E-05   -0.22287E-06  2574   0.240E-03    0.438E-03
RMM:  11    -0.413174454600E+03    0.26152E-05   -0.10506E-06  2498   0.168E-03    0.256E-03
RMM:  12    -0.413174449213E+03    0.53868E-05   -0.16789E-06  2555   0.198E-03    0.119E-03
RMM:  13    -0.413174445477E+03    0.37357E-05   -0.69402E-07  2406   0.139E-03    0.962E-04
RMM:  14    -0.413174445262E+03    0.21475E-06   -0.27522E-07  2019   0.915E-04
   23 T=    63. E= -.41286687E+03 F= -.41317445E+03 E0= -.41315255E+03  EK= 0.30757E+00 SP= 0.00E+00 SK= 0.00E+00
       N       E                     dE             d eps       ncg     rms          rms(c)
RMM:   1    -0.413181330786E+03   -0.68853E-02   -0.74996E+00  4295   0.636E-01    0.901E-01
RMM:   2    -0.413182218022E+03   -0.88724E-03   -0.94877E-02  4281   0.848E-02    0.664E-01
RMM:   3    -0.413177614401E+03    0.46036E-02   -0.33570E-02  4905   0.672E-02    0.193E-01
RMM:   4    -0.413204338564E+03   -0.26724E-01   -0.31426E-02  5116   0.149E-01    0.697E-01
RMM:   5    -0.413175889496E+03    0.28449E-01   -0.13478E-02  4782   0.117E-01    0.487E-02
RMM:   6    -0.413176069205E+03   -0.17971E-03   -0.24760E-03  5783   0.478E-02    0.335E-02
RMM:   7    -0.413176066067E+03    0.31378E-05   -0.38698E-04  5619   0.193E-02    0.217E-02
RMM:   8    -0.413176056883E+03    0.91846E-05   -0.64774E-05  5018   0.902E-03    0.109E-02
RMM:   9    -0.413176053044E+03    0.38384E-05   -0.12424E-05  3856   0.413E-03    0.760E-03
RMM:  10    -0.413176052079E+03    0.96502E-06   -0.20784E-06  2564   0.238E-03
   24 T=    63. E= -.41286717E+03 F= -.41317605E+03 E0= -.41315421E+03  EK= 0.30888E+00 SP= 0.00E+00 SK= 0.00E+00
       N       E                     dE             d eps       ncg     rms          rms(c)
RMM:   1    -0.413182663315E+03   -0.66103E-02   -0.75704E+00  4301   0.641E-01    0.914E-01
RMM:   2    -0.413183149157E+03   -0.48584E-03   -0.95776E-02  4341   0.861E-02    0.670E-01
RMM:   3    -0.413186639874E+03   -0.34907E-02   -0.38544E-02  5113   0.107E-01    0.418E-01
RMM:   4    -0.413195304734E+03   -0.86649E-02   -0.36453E-02  5047   0.166E-01    0.564E-01
RMM:   5    -0.413177067980E+03    0.18237E-01   -0.67907E-03  4601   0.941E-02    0.524E-02
RMM:   6    -0.413177105738E+03   -0.37759E-04   -0.14703E-03  5451   0.370E-02    0.323E-02
RMM:   7    -0.413177099541E+03    0.61970E-05   -0.27916E-04  5589   0.162E-02    0.189E-02
RMM:   8    -0.413177094614E+03    0.49276E-05   -0.43351E-05  4963   0.804E-03    0.719E-03
RMM:   9    -0.413177091085E+03    0.35285E-05   -0.56520E-06  2982   0.309E-03    0.395E-03
RMM:  10    -0.413177089129E+03    0.19560E-05   -0.13698E-06  2504   0.196E-03    0.239E-03
RMM:  11    -0.413177086928E+03    0.22007E-05   -0.82913E-07  2454   0.147E-03    0.120E-03
RMM:  12    -0.413177083541E+03    0.33872E-05   -0.66128E-07  2424   0.126E-03    0.540E-04
RMM:  13    -0.413177081385E+03    0.21562E-05   -0.32123E-07  1968   0.938E-04    0.352E-04
RMM:  14    -0.413177079513E+03    0.18720E-05   -0.17143E-07  1455   0.733E-04    0.227E-04
RMM:  15    -0.413177074909E+03    0.46039E-05   -0.18612E-07  1525   0.740E-04    0.264E-04
RMM:  16    -0.413177070949E+03    0.39605E-05   -0.11509E-07  1086   0.634E-04    0.177E-04
RMM:  17    -0.413177068584E+03    0.23644E-05   -0.70522E-08   987   0.596E-04    0.910E-05
RMM:  18    -0.413177065726E+03    0.28581E-05   -0.60192E-08  1024   0.596E-04    0.412E-05
RMM:  19    -0.413177064739E+03    0.98661E-06   -0.29129E-08   809   0.554E-04
   25 T=    63. E= -.41286698E+03 F= -.41317706E+03 E0= -.41315527E+03  EK= 0.31008E+00 SP= 0.00E+00 SK= 0.00E+00
       N       E                     dE             d eps       ncg     rms          rms(c)
RMM:   1    -0.413184421143E+03   -0.73554E-02   -0.75711E+00  4294   0.658E-01    0.923E-01
RMM:   2    -0.413184175446E+03    0.24570E-03   -0.96709E-02  4286   0.881E-02    0.666E-01
RMM:   3    -0.413180046139E+03    0.41293E-02   -0.30967E-02  4949   0.665E-02    0.183E-01
RMM:   4    -0.413210438066E+03   -0.30392E-01   -0.36293E-02  5110   0.160E-01    0.739E-01
RMM:   5    -0.413178267075E+03    0.32171E-01   -0.15024E-02  4774   0.123E-01    0.517E-02
RMM:   6    -0.413178457565E+03   -0.19049E-03   -0.27713E-03  5772   0.508E-02    0.371E-02
RMM:   7    -0.413178450993E+03    0.65728E-05   -0.45695E-04  5592   0.208E-02    0.239E-02
RMM:   8    -0.413178439881E+03    0.11112E-04   -0.68255E-05  5160   0.954E-03    0.114E-02
RMM:   9    -0.413178433704E+03    0.61765E-05   -0.13246E-05  3893   0.422E-03    0.769E-03
RMM:  10    -0.413178429079E+03    0.46250E-05   -0.22996E-06  2587   0.247E-03    0.451E-03
RMM:  11    -0.413178425909E+03    0.31707E-05   -0.11570E-06  2507   0.175E-03    0.260E-03
RMM:  12    -0.413178419712E+03    0.61971E-05   -0.18196E-06  2572   0.205E-03    0.120E-03
RMM:  13    -0.413178415606E+03    0.41058E-05   -0.68132E-07  2406   0.140E-03    0.960E-04
RMM:  14    -0.413178415515E+03    0.91131E-07   -0.27681E-07  2020   0.917E-04
   26 T=    63. E= -.41286690E+03 F= -.41317842E+03 E0= -.41315667E+03  EK= 0.31151E+00 SP= 0.00E+00 SK= 0.00E+00
       N       E                     dE             d eps       ncg     rms          rms(c)
RMM:   1    -0.413185450699E+03   -0.70351E-02   -0.75973E+00  4295   0.655E-01    0.905E-01
RMM:   2    -0.413186072772E+03   -0.62207E-03   -0.96505E-02  4283   0.912E-02    0.665E-01
RMM:   3    -0.413181491125E+03    0.45816E-02   -0.32196E-02  4910   0.637E-02    0.173E-01
RMM:   4    -0.413207378059E+03   -0.25887E-01   -0.29522E-02  5120   0.145E-01    0.683E-01
RMM:   5    -0.413180121111E+03    0.27257E-01   -0.12975E-02  4779   0.114E-01    0.481E-02
RMM:   6    -0.413180272177E+03   -0.15107E-03   -0.23648E-03  5819   0.462E-02    0.326E-02
RMM:   7    -0.413180271480E+03    0.69693E-06   -0.34368E-04  5623   0.187E-02    0.203E-02
RMM:   8    -0.413180262717E+03    0.87622E-05   -0.65266E-05  4998   0.889E-03    0.110E-02
RMM:   9    -0.413180257983E+03    0.47347E-05   -0.12551E-05  3906   0.417E-03    0.775E-03
RMM:  10    -0.413180255679E+03    0.23040E-05   -0.20805E-06  2567   0.239E-03    0.451E-03
RMM:  11    -0.413180253494E+03    0.21849E-05   -0.14229E-06  2523   0.190E-03    0.241E-03
RMM:  12    -0.413180249813E+03    0.36810E-05   -0.15911E-06  2529   0.195E-03    0.113E-03
RMM:  13    -0.413180247704E+03    0.21085E-05   -0.52352E-07  2339   0.128E-03    0.722E-04
RMM:  14    -0.413180247232E+03    0.47200E-06   -0.23826E-07  1865   0.851E-04
   27 T=    64. E= -.41286705E+03 F= -.41318025E+03 E0= -.41315855E+03  EK= 0.31320E+00 SP= 0.00E+00 SK= 0.00E+00
       N       E                     dE             d eps       ncg     rms          rms(c)
RMM:   1    -0.413188218009E+03   -0.79703E-02   -0.77284E+00  4294   0.675E-01    0.915E-01
RMM:   2    -0.413187279778E+03    0.93823E-03   -0.99411E-02  4283   0.924E-02    0.674E-01
RMM:   3    -0.413182629424E+03    0.46504E-02   -0.33124E-02  4912   0.643E-02    0.179E-01
RMM:   4    -0.413208992420E+03   -0.26363E-01   -0.30140E-02  5119   0.146E-01    0.690E-01
RMM:   5    -0.413181150483E+03    0.27842E-01   -0.13200E-02  4774   0.115E-01    0.487E-02
RMM:   6    -0.413181321104E+03   -0.17062E-03   -0.24375E-03  5814   0.471E-02    0.340E-02
RMM:   7    -0.413181323002E+03   -0.18979E-05   -0.38388E-04  5585   0.196E-02    0.218E-02
RMM:   8    -0.413181316561E+03    0.64412E-05   -0.64286E-05  5006   0.926E-03    0.110E-02
RMM:   9    -0.413181313157E+03    0.34036E-05   -0.12444E-05  3822   0.421E-03    0.768E-03
RMM:  10    -0.413181311862E+03    0.12947E-05   -0.23156E-06  2599   0.254E-03    0.446E-03
RMM:  11    -0.413181310448E+03    0.14140E-05   -0.14325E-06  2530   0.192E-03    0.235E-03
RMM:  12    -0.413181307867E+03    0.25811E-05   -0.16194E-06  2525   0.201E-03    0.111E-03
RMM:  13    -0.413181306186E+03    0.16810E-05   -0.54561E-07  2357   0.131E-03    0.738E-04
RMM:  14    -0.413181305708E+03    0.47772E-06   -0.24761E-07  1910   0.868E-04
   28 T=    64. E= -.41286663E+03 F= -.41318131E+03 E0= -.41315966E+03  EK= 0.31468E+00 SP= 0.00E+00 SK= 0.00E+00
       N       E                     dE             d eps       ncg     rms          rms(c)
RMM:   1    -0.413189545372E+03   -0.82392E-02   -0.77269E+00  4294   0.687E-01    0.931E-01
RMM:   2    -0.413189323027E+03    0.22234E-03   -0.99261E-02  4284   0.951E-02    0.672E-01
RMM:   3    -0.413184202591E+03    0.51204E-02   -0.30465E-02  4795   0.612E-02    0.138E-01
RMM:   4    -0.413206465683E+03   -0.22263E-01   -0.23964E-02  5127   0.131E-01    0.631E-01
RMM:   5    -0.413183277574E+03    0.23188E-01   -0.11153E-02  4788   0.105E-01    0.474E-02
RMM:   6    -0.413183404757E+03   -0.12718E-03   -0.20535E-03  5834   0.429E-02    0.324E-02
RMM:   7    -0.413183401290E+03    0.34670E-05   -0.27762E-04  5575   0.177E-02    0.184E-02
RMM:   8    -0.413183393880E+03    0.74105E-05   -0.55605E-05  4971   0.817E-03    0.109E-02
RMM:   9    -0.413183387527E+03    0.63521E-05   -0.10964E-05  3753   0.391E-03    0.770E-03
RMM:  10    -0.413183382572E+03    0.49555E-05   -0.20681E-06  2573   0.244E-03    0.435E-03
RMM:  11    -0.413183377482E+03    0.50902E-05   -0.16194E-06  2540   0.201E-03    0.224E-03
RMM:  12    -0.413183370761E+03    0.67206E-05   -0.14749E-06  2527   0.190E-03    0.113E-03
RMM:  13    -0.413183368217E+03    0.25445E-05   -0.50357E-07  2327   0.124E-03    0.704E-04
RMM:  14    -0.413183367099E+03    0.11174E-05   -0.23235E-07  1831   0.840E-04    0.514E-04
RMM:  15    -0.413183362359E+03    0.47399E-05   -0.20997E-07  2054   0.830E-04    0.435E-04
RMM:  16    -0.413183357806E+03    0.45534E-05   -0.13584E-07  1550   0.697E-04    0.453E-04
RMM:  17    -0.413183355815E+03    0.19909E-05   -0.48746E-08   898   0.549E-04    0.358E-04
RMM:  18    -0.413183351269E+03    0.45458E-05   -0.75813E-08  1117   0.623E-04    0.809E-05
RMM:  19    -0.413183349092E+03    0.21776E-05   -0.38929E-08   915   0.577E-04    0.115E-04
RMM:  20    -0.413183349067E+03    0.24091E-07   -0.13583E-08   696   0.539E-04
   29 T=    64. E= -.41286685E+03 F= -.41318335E+03 E0= -.41316175E+03  EK= 0.31650E+00 SP= 0.00E+00 SK= 0.00E+00
       N       E                     dE             d eps       ncg     rms          rms(c)
RMM:   1    -0.413190683117E+03   -0.73340E-02   -0.77279E+00  4295   0.689E-01    0.914E-01
RMM:   2    -0.413191428155E+03   -0.74504E-03   -0.98823E-02  4281   0.975E-02    0.669E-01
RMM:   3    -0.413186240874E+03    0.51873E-02   -0.31406E-02  4792   0.660E-02    0.155E-01
RMM:   4    -0.413210006843E+03   -0.23766E-01   -0.26003E-02  5126   0.136E-01    0.653E-01
RMM:   5    -0.413185098140E+03    0.24909E-01   -0.11987E-02  4787   0.108E-01    0.474E-02
RMM:   6    -0.413185244789E+03   -0.14665E-03   -0.21649E-03  5843   0.439E-02    0.322E-02
RMM:   7    -0.413185248874E+03   -0.40850E-05   -0.28838E-04  5615   0.174E-02    0.184E-02
RMM:   8    -0.413185244441E+03    0.44322E-05   -0.57159E-05  4993   0.814E-03    0.109E-02
RMM:   9    -0.413185239220E+03    0.52217E-05   -0.11214E-05  3810   0.397E-03    0.762E-03
RMM:  10    -0.413185236880E+03    0.23392E-05   -0.20672E-06  2572   0.239E-03    0.437E-03
RMM:  11    -0.413185234545E+03    0.23358E-05   -0.14933E-06  2525   0.194E-03    0.228E-03
RMM:  12    -0.413185230989E+03    0.35562E-05   -0.14698E-06  2517   0.190E-03    0.115E-03
RMM:  13    -0.413185229393E+03    0.15956E-05   -0.50190E-07  2332   0.125E-03    0.702E-04
RMM:  14    -0.413185228694E+03    0.69885E-06   -0.22683E-07  1836   0.840E-04
   30 T=    65. E= -.41286693E+03 F= -.41318523E+03 E0= -.41316368E+03  EK= 0.31830E+00 SP= 0.00E+00 SK= 0.00E+00
       N       E                     dE             d eps       ncg     rms          rms(c)
RMM:   1    -0.413193012599E+03   -0.77832E-02   -0.78760E+00  4294   0.702E-01    0.919E-01
RMM:   2    -0.413193477613E+03   -0.46501E-03   -0.10142E-01  4275   0.102E-01    0.679E-01
RMM:   3    -0.413187754989E+03    0.57226E-02   -0.33408E-02  4689   0.684E-02    0.156E-01
RMM:   4    -0.413204933528E+03   -0.17179E-01   -0.18605E-02  5135   0.117E-01    0.561E-01
RMM:   5    -0.413186793586E+03    0.18140E-01   -0.88502E-03  4800   0.923E-02    0.445E-02
RMM:   6    -0.413186897717E+03   -0.10413E-03   -0.16220E-03  5854   0.374E-02    0.291E-02
RMM:   7    -0.413186902807E+03   -0.50897E-05   -0.18256E-04  5476   0.148E-02    0.141E-02
RMM:   8    -0.413186898836E+03    0.39710E-05   -0.26147E-05  4338   0.550E-03    0.826E-03
RMM:   9    -0.413186897323E+03    0.15127E-05   -0.58142E-06  3075   0.295E-03    0.505E-03
RMM:  10    -0.413186897169E+03    0.15425E-06   -0.14457E-06  2534   0.193E-03
   31 T=    65. E= -.41286685E+03 F= -.41318690E+03 E0= -.41316540E+03  EK= 0.32005E+00 SP= 0.00E+00 SK= 0.00E+00
       N       E                     dE             d eps       ncg     rms          rms(c)
RMM:   1    -0.413196221412E+03   -0.93241E-02   -0.78981E+00  4300   0.726E-01    0.938E-01
RMM:   2    -0.413195769075E+03    0.45234E-03   -0.10236E-01  4293   0.107E-01    0.679E-01
RMM:   3    -0.413190289313E+03    0.54798E-02   -0.30749E-02  4704   0.711E-02    0.136E-01
RMM:   4    -0.413212471615E+03   -0.22182E-01   -0.23611E-02  5126   0.130E-01    0.630E-01
RMM:   5    -0.413189362640E+03    0.23109E-01   -0.11292E-02  4806   0.104E-01    0.474E-02
RMM:   6    -0.413189497782E+03   -0.13514E-03   -0.20296E-03  5846   0.421E-02    0.319E-02
RMM:   7    -0.413189498140E+03   -0.35768E-06   -0.24655E-04  5591   0.166E-02    0.166E-02
RMM:   8    -0.413189492752E+03    0.53881E-05   -0.43322E-05  4872   0.707E-03    0.101E-02
RMM:   9    -0.413189487001E+03    0.57513E-05   -0.10765E-05  3748   0.369E-03    0.737E-03
RMM:  10    -0.413189482269E+03    0.47313E-05   -0.20289E-06  2563   0.241E-03    0.425E-03
RMM:  11    -0.413189477285E+03    0.49840E-05   -0.15013E-06  2527   0.194E-03    0.228E-03
RMM:  12    -0.413189469360E+03    0.79256E-05   -0.15375E-06  2522   0.196E-03    0.123E-03
RMM:  13    -0.413189466413E+03    0.29467E-05   -0.50487E-07  2347   0.126E-03    0.754E-04
RMM:  14    -0.413189465253E+03    0.11595E-05   -0.22212E-07  1844   0.834E-04    0.540E-04
RMM:  15    -0.413189459693E+03    0.55600E-05   -0.20809E-07  2092   0.834E-04    0.496E-04
RMM:  16    -0.413189453436E+03    0.62578E-05   -0.17374E-07  1786   0.757E-04    0.630E-04
RMM:  17    -0.413189451872E+03    0.15636E-05   -0.44059E-08   901   0.550E-04    0.498E-04
RMM:  18    -0.413189446638E+03    0.52336E-05   -0.73125E-08  1158   0.625E-04    0.799E-05
RMM:  19    -0.413189444700E+03    0.19386E-05   -0.47429E-08  1155   0.595E-04    0.212E-04
RMM:  20    -0.413189444715E+03   -0.14938E-07   -0.12635E-08   686   0.510E-04
   32 T=    66. E= -.41286726E+03 F= -.41318944E+03 E0= -.41316800E+03  EK= 0.32218E+00 SP= 0.00E+00 SK= 0.00E+00
       N       E                     dE             d eps       ncg     rms          rms(c)
RMM:   1    -0.413200557343E+03   -0.11113E-01   -0.79273E+00  4300   0.756E-01    0.926E-01
RMM:   2    -0.413197337323E+03    0.32200E-02   -0.10551E-01  4276   0.112E-01    0.674E-01
RMM:   3    -0.413191824948E+03    0.55124E-02   -0.29951E-02  4562   0.711E-02    0.112E-01
RMM:   4    -0.413203884011E+03   -0.12059E-01   -0.12515E-02  5135   0.953E-02    0.469E-01
RMM:   5    -0.413191289697E+03    0.12594E-01   -0.62945E-03  4821   0.766E-02    0.436E-02
RMM:   6    -0.413191363803E+03   -0.74106E-04   -0.12111E-03  5829   0.323E-02    0.296E-02
RMM:   7    -0.413191366494E+03   -0.26917E-05   -0.24174E-04  5419   0.162E-02    0.188E-02
RMM:   8    -0.413191349394E+03    0.17100E-04   -0.31599E-05  4715   0.680E-03    0.857E-03
RMM:   9    -0.413191347262E+03    0.21324E-05   -0.60961E-06  3076   0.307E-03    0.596E-03
RMM:  10    -0.413191343581E+03    0.36803E-05   -0.17142E-06  2517   0.218E-03    0.314E-03
RMM:  11    -0.413191339990E+03    0.35911E-05   -0.11458E-06  2497   0.175E-03    0.161E-03
RMM:  12    -0.413191335992E+03    0.39985E-05   -0.73100E-07  2424   0.140E-03    0.885E-04
RMM:  13    -0.413191333948E+03    0.20441E-05   -0.31881E-07  2068   0.969E-04    0.413E-04
RMM:  14    -0.413191331904E+03    0.20437E-05   -0.17170E-07  1549   0.747E-04    0.252E-04
RMM:  15    -0.413191327895E+03    0.40092E-05   -0.12189E-07  1394   0.696E-04    0.145E-04
RMM:  16    -0.413191324700E+03    0.31951E-05   -0.69321E-08  1046   0.627E-04    0.114E-04
RMM:  17    -0.413191321694E+03    0.30058E-05   -0.49728E-08   963   0.601E-04    0.758E-05
RMM:  18    -0.413191317207E+03    0.44866E-05   -0.62140E-08  1166   0.624E-04    0.360E-05
RMM:  19    -0.413191316327E+03    0.88002E-06   -0.20661E-08   772   0.547E-04
   33 T=    66. E= -.41286708E+03 F= -.41319132E+03 E0= -.41316991E+03  EK= 0.32423E+00 SP= 0.00E+00 SK= 0.00E+00
       N       E                     dE             d eps       ncg     rms          rms(c)
RMM:   1    -0.413200556015E+03   -0.92388E-02   -0.80456E+00  4307   0.746E-01    0.923E-01
RMM:   2    -0.413199876912E+03    0.67910E-03   -0.10581E-01  4268   0.113E-01    0.683E-01
RMM:   3    -0.413194302365E+03    0.55745E-02   -0.32845E-02  4498   0.771E-02    0.135E-01
RMM:   4    -0.413203051801E+03   -0.87494E-02   -0.94458E-03  5142   0.840E-02    0.407E-01
RMM:   5    -0.413193662155E+03    0.93896E-02   -0.47028E-03  4827   0.665E-02    0.418E-02
RMM:   6    -0.413193727181E+03   -0.65026E-04   -0.99653E-04  5784   0.292E-02    0.292E-02
RMM:   7    -0.413193729582E+03   -0.24012E-05   -0.24586E-04  5312   0.163E-02    0.189E-02
RMM:   8    -0.413193715506E+03    0.14076E-04   -0.25834E-05  4548   0.643E-03    0.798E-03
RMM:   9    -0.413193714894E+03    0.61264E-06   -0.47311E-06  2895   0.275E-03
   34 T=    67. E= -.41286707E+03 F= -.41319371E+03 E0= -.41317236E+03  EK= 0.32664E+00 SP= 0.00E+00 SK= 0.00E+00
       N       E                     dE             d eps       ncg     rms          rms(c)
RMM:   1    -0.413202548592E+03   -0.88331E-02   -0.80898E+00  4304   0.764E-01    0.943E-01
RMM:   2    -0.413202089833E+03    0.45876E-03   -0.10596E-01  4296   0.120E-01    0.687E-01
RMM:   3    -0.413198632211E+03    0.34576E-02   -0.32075E-02  4869   0.941E-02    0.207E-01
RMM:   4    -0.413232445038E+03   -0.33813E-01   -0.41144E-02  5093   0.172E-01    0.782E-01
RMM:   5    -0.413196260125E+03    0.36185E-01   -0.16711E-02  4784   0.129E-01    0.533E-02
RMM:   6    -0.413196444226E+03   -0.18410E-03   -0.30723E-03  5804   0.521E-02    0.361E-02
RMM:   7    -0.413196449784E+03   -0.55584E-05   -0.38612E-04  5643   0.194E-02    0.209E-02
RMM:   8    -0.413196445262E+03    0.45228E-05   -0.81835E-05  5145   0.953E-03    0.128E-02
RMM:   9    -0.413196435597E+03    0.96648E-05   -0.16150E-05  4211   0.475E-03    0.775E-03
RMM:  10    -0.413196430644E+03    0.49525E-05   -0.30663E-06  2704   0.276E-03    0.458E-03
RMM:  11    -0.413196427035E+03    0.36094E-05   -0.13120E-06  2506   0.190E-03    0.269E-03
RMM:  12    -0.413196419250E+03    0.77848E-05   -0.17794E-06  2537   0.211E-03    0.119E-03
RMM:  13    -0.413196414593E+03    0.46572E-05   -0.70571E-07  2405   0.144E-03    0.820E-04
RMM:  14    -0.413196413524E+03    0.10694E-05   -0.29896E-07  2066   0.954E-04    0.542E-04
RMM:  15    -0.413196411440E+03    0.20834E-05   -0.14854E-07  1523   0.730E-04    0.353E-04
RMM:  16    -0.413196403759E+03    0.76818E-05   -0.22847E-07  2189   0.848E-04    0.711E-04
RMM:  17    -0.413196401556E+03    0.22025E-05   -0.70034E-08  1072   0.579E-04    0.579E-04
RMM:  18    -0.413196395921E+03    0.56347E-05   -0.66147E-08   951   0.578E-04    0.360E-04
RMM:  19    -0.413196394206E+03    0.17157E-05   -0.53592E-08  1120   0.597E-04    0.841E-05
RMM:  20    -0.413196392000E+03    0.22055E-05   -0.52716E-08  1234   0.604E-04    0.307E-04
RMM:  21    -0.413196391791E+03    0.20923E-06   -0.19909E-08   788   0.523E-04
   35 T=    67. E= -.41286705E+03 F= -.41319639E+03 E0= -.41317508E+03  EK= 0.32934E+00 SP= 0.00E+00 SK= 0.00E+00
       N       E                     dE             d eps       ncg     rms          rms(c)
RMM:   1    -0.413208248611E+03   -0.11857E-01   -0.81465E+00  4304   0.828E-01    0.940E-01
RMM:   2    -0.413204116630E+03    0.41320E-02   -0.11509E-01  4258   0.133E-01    0.684E-01
RMM:   3    -0.413198720361E+03    0.53963E-02   -0.28724E-02  4309   0.807E-02    0.783E-02
RMM:   4    -0.413198750072E+03   -0.29711E-04   -0.44584E-04  5075   0.193E-02    0.740E-02
RMM:   5    -0.413198564602E+03    0.18547E-03   -0.20972E-04  4824   0.143E-02    0.466E-02
RMM:   6    -0.413198597141E+03   -0.32539E-04   -0.48914E-04  5249   0.214E-02    0.347E-02
RMM:   7    -0.413198546593E+03    0.50548E-04   -0.19541E-04  4770   0.158E-02    0.189E-02
RMM:   8    -0.413198540281E+03    0.63112E-05   -0.36477E-05  4776   0.587E-03    0.643E-03
RMM:   9    -0.413198538825E+03    0.14560E-05   -0.69435E-06  2536   0.237E-03    0.224E-03
RMM:  10    -0.413198532728E+03    0.60973E-05   -0.98596E-07  2377   0.159E-03    0.861E-04
RMM:  11    -0.413198529121E+03    0.36067E-05   -0.28379E-07  1876   0.893E-04    0.484E-04
RMM:  12    -0.413198524257E+03    0.48643E-05   -0.16078E-07  1382   0.736E-04    0.387E-04
RMM:  13    -0.413198519956E+03    0.43011E-05   -0.10356E-07  1121   0.659E-04    0.246E-04
RMM:  14    -0.413198513883E+03    0.60734E-05   -0.10420E-07  1115   0.653E-04    0.130E-04
RMM:  15    -0.413198509823E+03    0.40594E-05   -0.46447E-08   876   0.588E-04    0.130E-04
RMM:  16    -0.413198505133E+03    0.46905E-05   -0.43718E-08   978   0.592E-04    0.726E-05
RMM:  17    -0.413198503611E+03    0.15213E-05   -0.17593E-08   691   0.529E-04    0.526E-05
RMM:  18    -0.413198502830E+03    0.78177E-06   -0.11077E-08   599   0.516E-04
   36 T=    68. E= -.41286662E+03 F= -.41319850E+03 E0= -.41317724E+03  EK= 0.33188E+00 SP= 0.00E+00 SK= 0.00E+00
       N       E                     dE             d eps       ncg     rms          rms(c)
RMM:   1    -0.413207292165E+03   -0.87886E-02   -0.82266E+00  4311   0.813E-01    0.932E-01
RMM:   2    -0.413207666515E+03   -0.37435E-03   -0.11037E-01  4257   0.126E-01    0.689E-01
RMM:   3    -0.413201934678E+03    0.57318E-02   -0.32093E-02  4428   0.824E-02    0.117E-01
RMM:   4    -0.413206644775E+03   -0.47101E-02   -0.53414E-03  5152   0.643E-02    0.306E-01
RMM:   5    -0.413201473885E+03    0.51709E-02   -0.26052E-03  4811   0.503E-02    0.417E-02
RMM:   6    -0.413201512699E+03   -0.38814E-04   -0.74109E-04  5586   0.271E-02    0.325E-02
RMM:   7    -0.413201502697E+03    0.10003E-04   -0.25980E-04  5157   0.171E-02    0.191E-02
RMM:   8    -0.413201494090E+03    0.86064E-05   -0.31014E-05  4899   0.646E-03    0.812E-03
RMM:   9    -0.413201493530E+03    0.55991E-06   -0.45057E-06  2784   0.256E-03
   37 T=    68. E= -.41286681E+03 F= -.41320149E+03 E0= -.41318027E+03  EK= 0.33468E+00 SP= 0.00E+00 SK= 0.00E+00
       N       E                     dE             d eps       ncg     rms          rms(c)
RMM:   1    -0.413211581787E+03   -0.10088E-01   -0.83370E+00  4312   0.853E-01    0.949E-01
RMM:   2    -0.413210553913E+03    0.10279E-02   -0.11555E-01  4273   0.124E-01    0.696E-01
RMM:   3    -0.413205871237E+03    0.46827E-02   -0.31553E-02  4857   0.847E-02    0.184E-01
RMM:   4    -0.413242400051E+03   -0.36529E-01   -0.42480E-02  5118   0.173E-01    0.807E-01
RMM:   5    -0.413204019580E+03    0.38380E-01   -0.18137E-02  4779   0.134E-01    0.547E-02
RMM:   6    -0.413204128122E+03   -0.10854E-03   -0.32292E-03  5822   0.534E-02    0.354E-02
RMM:   7    -0.413204144646E+03   -0.16524E-04   -0.37742E-04  5603   0.190E-02    0.191E-02
RMM:   8    -0.413204140842E+03    0.38042E-05   -0.53481E-05  4873   0.746E-03    0.105E-02
RMM:   9    -0.413204136664E+03    0.41773E-05   -0.17608E-05  4328   0.448E-03    0.730E-03
RMM:  10    -0.413204133584E+03    0.30801E-05   -0.47186E-06  2992   0.298E-03    0.419E-03
RMM:  11    -0.413204130252E+03    0.33324E-05   -0.15113E-06  2497   0.206E-03    0.258E-03
RMM:  12    -0.413204122159E+03    0.80929E-05   -0.18154E-06  2528   0.215E-03    0.113E-03
RMM:  13    -0.413204118012E+03    0.41472E-05   -0.65891E-07  2433   0.142E-03    0.846E-04
RMM:  14    -0.413204117406E+03    0.60560E-06   -0.27656E-07  2073   0.929E-04
   38 T=    69. E= -.41286677E+03 F= -.41320412E+03 E0= -.41318294E+03  EK= 0.33735E+00 SP= 0.00E+00 SK= 0.00E+00
       N       E                     dE             d eps       ncg     rms          rms(c)
RMM:   1    -0.413222608941E+03   -0.18491E-01   -0.84459E+00  4312   0.950E-01    0.955E-01
RMM:   2    -0.413213168971E+03    0.94400E-02   -0.12778E-01  4260   0.125E-01    0.694E-01
RMM:   3    -0.413207241622E+03    0.59273E-02   -0.26626E-02  4725   0.669E-02    0.104E-01
RMM:   4    -0.413231591539E+03   -0.24350E-01   -0.25250E-02  5139   0.134E-01    0.656E-01
RMM:   5    -0.413206728305E+03    0.24863E-01   -0.12402E-02  4813   0.108E-01    0.499E-02
RMM:   6    -0.413206775316E+03   -0.47011E-04   -0.21514E-03  5815   0.444E-02    0.343E-02
RMM:   7    -0.413206785537E+03   -0.10220E-04   -0.36953E-04  5549   0.189E-02    0.213E-02
RMM:   8    -0.413206768066E+03    0.17471E-04   -0.62108E-05  5126   0.865E-03    0.110E-02
RMM:   9    -0.413206764950E+03    0.31158E-05   -0.12483E-05  3938   0.429E-03    0.706E-03
RMM:  10    -0.413206758427E+03    0.65228E-05   -0.23355E-06  2635   0.250E-03    0.386E-03
RMM:  11    -0.413206754037E+03    0.43900E-05   -0.10328E-06  2491   0.171E-03    0.226E-03
RMM:  12    -0.413206745058E+03    0.89798E-05   -0.14276E-06  2518   0.188E-03    0.124E-03
RMM:  13    -0.413206740039E+03    0.50187E-05   -0.52863E-07  2351   0.127E-03    0.740E-04
RMM:  14    -0.413206738836E+03    0.12032E-05   -0.23627E-07  1927   0.856E-04    0.462E-04
RMM:  15    -0.413206733413E+03    0.54228E-05   -0.14756E-07  1586   0.744E-04    0.255E-04
RMM:  16    -0.413206728044E+03    0.53685E-05   -0.11273E-07  1518   0.694E-04    0.344E-04
RMM:  17    -0.413206724296E+03    0.37478E-05   -0.57711E-08  1068   0.594E-04    0.304E-04
RMM:  18    -0.413206718090E+03    0.62070E-05   -0.58093E-08  1148   0.608E-04    0.153E-04
RMM:  19    -0.413206716723E+03    0.13665E-05   -0.28122E-08   856   0.550E-04    0.533E-05
RMM:  20    -0.413206715177E+03    0.15459E-05   -0.27904E-08   952   0.564E-04    0.881E-05
RMM:  21    -0.413206715129E+03    0.47992E-07   -0.10342E-08   667   0.513E-04
   39 T=    69. E= -.41286671E+03 F= -.41320672E+03 E0= -.41318557E+03  EK= 0.34000E+00 SP= 0.00E+00 SK= 0.00E+00
       N       E                     dE             d eps       ncg     rms          rms(c)
RMM:   1    -0.413217145959E+03   -0.10431E-01   -0.84349E+00  4311   0.924E-01    0.941E-01
RMM:   2    -0.413216619917E+03    0.52604E-03   -0.11716E-01  4264   0.124E-01    0.694E-01
RMM:   3    -0.413211541414E+03    0.50785E-02   -0.31046E-02  4896   0.793E-02    0.178E-01
RMM:   4    -0.413248379089E+03   -0.36838E-01   -0.42626E-02  5122   0.173E-01    0.809E-01
RMM:   5    -0.413209807404E+03    0.38572E-01   -0.18328E-02  4787   0.134E-01    0.548E-02
RMM:   6    -0.413209917841E+03   -0.11044E-03   -0.31935E-03  5817   0.532E-02    0.350E-02
RMM:   7    -0.413209934779E+03   -0.16938E-04   -0.38720E-04  5638   0.188E-02    0.190E-02
RMM:   8    -0.413209933620E+03    0.11594E-05   -0.53730E-05  4913   0.741E-03    0.103E-02
RMM:   9    -0.413209930469E+03    0.31509E-05   -0.18046E-05  4358   0.448E-03    0.732E-03
RMM:  10    -0.413209928882E+03    0.15863E-05   -0.44700E-06  2930   0.294E-03    0.418E-03
RMM:  11    -0.413209927104E+03    0.17781E-05   -0.14884E-06  2495   0.203E-03    0.257E-03
RMM:  12    -0.413209922428E+03    0.46760E-05   -0.17030E-06  2527   0.208E-03    0.109E-03
RMM:  13    -0.413209919611E+03    0.28169E-05   -0.64523E-07  2423   0.140E-03    0.797E-04
RMM:  14    -0.413209919097E+03    0.51472E-06   -0.27102E-07  2055   0.921E-04
   40 T=    70. E= -.41286711E+03 F= -.41320992E+03 E0= -.41318882E+03  EK= 0.34281E+00 SP= 0.00E+00 SK= 0.00E+00
       N       E                     dE             d eps       ncg     rms          rms(c)
RMM:   1    -0.413220574127E+03   -0.10655E-01   -0.85796E+00  4305   0.960E-01    0.954E-01
RMM:   2    -0.413219055611E+03    0.15185E-02   -0.11963E-01  4267   0.127E-01    0.704E-01
RMM:   3    -0.413213771889E+03    0.52837E-02   -0.31382E-02  4897   0.781E-02    0.174E-01
RMM:   4    -0.413251077623E+03   -0.37306E-01   -0.42849E-02  5125   0.174E-01    0.813E-01
RMM:   5    -0.413212108405E+03    0.38969E-01   -0.18581E-02  4792   0.135E-01    0.553E-02
RMM:   6    -0.413212216059E+03   -0.10765E-03   -0.31906E-03  5811   0.532E-02    0.346E-02
RMM:   7    -0.413212231574E+03   -0.15515E-04   -0.39214E-04  5653   0.187E-02    0.187E-02
RMM:   8    -0.413212226065E+03    0.55093E-05   -0.45427E-05  4716   0.695E-03    0.902E-03
RMM:   9    -0.413212224773E+03    0.12914E-05   -0.11072E-05  3494   0.368E-03    0.567E-03
RMM:  10    -0.413212222072E+03    0.27018E-05   -0.23417E-06  2613   0.227E-03    0.376E-03
RMM:  11    -0.413212219117E+03    0.29545E-05   -0.13763E-06  2504   0.193E-03    0.216E-03
RMM:  12    -0.413212213003E+03    0.61141E-05   -0.15102E-06  2520   0.191E-03    0.108E-03
RMM:  13    -0.413212210952E+03    0.20510E-05   -0.47382E-07  2364   0.124E-03    0.713E-04
RMM:  14    -0.413212210279E+03    0.67267E-06   -0.21128E-07  1842   0.823E-04
   41 T=    70. E= -.41286693E+03 F= -.41321221E+03 E0= -.41319114E+03  EK= 0.34528E+00 SP= 0.00E+00 SK= 0.00E+00
       N       E                     dE             d eps       ncg     rms          rms(c)
RMM:   1    -0.413234262331E+03   -0.22051E-01   -0.87082E+00  4312   0.109E+00    0.969E-01
RMM:   2    -0.413221363861E+03    0.12898E-01   -0.13397E-01  4306   0.133E-01    0.703E-01
RMM:   3    -0.413217203865E+03    0.41600E-02   -0.27449E-02  5002   0.779E-02    0.208E-01
RMM:   4    -0.413260510902E+03   -0.43307E-01   -0.53590E-02  5118   0.194E-01    0.876E-01
RMM:   5    -0.413214781390E+03    0.45730E-01   -0.21080E-02  4772   0.145E-01    0.602E-02
RMM:   6    -0.413214920291E+03   -0.13890E-03   -0.37324E-03  5789   0.574E-02    0.376E-02
RMM:   7    -0.413214933411E+03   -0.13120E-04   -0.48936E-04  5702   0.208E-02    0.228E-02
RMM:   8    -0.413214933376E+03    0.34583E-07   -0.11300E-04  5226   0.108E-02    0.143E-02
RMM:   9    -0.413214920240E+03    0.13136E-04   -0.22616E-05  4544   0.567E-03    0.725E-03
RMM:  10    -0.413214914835E+03    0.54050E-05   -0.46208E-06  2907   0.299E-03    0.429E-03
RMM:  11    -0.413214910971E+03    0.38648E-05   -0.13440E-06  2498   0.198E-03    0.257E-03
RMM:  12    -0.413214902249E+03    0.87215E-05   -0.14476E-06  2506   0.197E-03    0.115E-03
RMM:  13    -0.413214896084E+03    0.61650E-05   -0.65580E-07  2425   0.141E-03    0.710E-04
RMM:  14    -0.413214894997E+03    0.10870E-05   -0.29367E-07  2082   0.951E-04    0.459E-04
RMM:  15    -0.413214892509E+03    0.24887E-05   -0.14772E-07  1532   0.729E-04    0.295E-04
RMM:  16    -0.413214884387E+03    0.81220E-05   -0.15518E-07  1831   0.767E-04    0.439E-04
RMM:  17    -0.413214882459E+03    0.19280E-05   -0.55387E-08   971   0.571E-04    0.323E-04
RMM:  18    -0.413214876007E+03    0.64514E-05   -0.65061E-08  1179   0.615E-04    0.206E-04
RMM:  19    -0.413214874747E+03    0.12601E-05   -0.34688E-08   921   0.561E-04    0.642E-05
RMM:  20    -0.413214872442E+03    0.23053E-05   -0.42258E-08  1128   0.598E-04    0.181E-04
RMM:  21    -0.413214872314E+03    0.12764E-06   -0.13576E-08   697   0.526E-04
   42 T=    71. E= -.41286710E+03 F= -.41321487E+03 E0= -.41319383E+03  EK= 0.34777E+00 SP= 0.00E+00 SK= 0.00E+00
       N       E                     dE             d eps       ncg     rms          rms(c)
RMM:   1    -0.413228139852E+03   -0.13267E-01   -0.86465E+00  4314   0.109E+00    0.952E-01
RMM:   2    -0.413223726835E+03    0.44130E-02   -0.12418E-01  4341   0.133E-01    0.700E-01
RMM:   3    -0.413220946694E+03    0.27801E-02   -0.31164E-02  5039   0.891E-02    0.262E-01
RMM:   4    -0.413256819233E+03   -0.35873E-01   -0.51086E-02  5102   0.192E-01    0.819E-01
RMM:   5    -0.413217045949E+03    0.39773E-01   -0.17334E-02  4754   0.135E-01    0.587E-02
RMM:   6    -0.413217143549E+03   -0.97599E-04   -0.32003E-03  5768   0.532E-02    0.358E-02
RMM:   7    -0.413217155810E+03   -0.12261E-04   -0.43111E-04  5681   0.200E-02    0.220E-02
RMM:   8    -0.413217155745E+03    0.65320E-07   -0.11143E-04  5214   0.109E-02    0.133E-02
RMM:   9    -0.413217145609E+03    0.10136E-04   -0.18739E-05  4374   0.540E-03    0.629E-03
RMM:  10    -0.413217142715E+03    0.28936E-05   -0.39076E-06  2804   0.276E-03    0.377E-03
RMM:  11    -0.413217140366E+03    0.23485E-05   -0.12247E-06  2498   0.187E-03    0.217E-03
RMM:  12    -0.413217134918E+03    0.54484E-05   -0.11935E-06  2493   0.179E-03    0.100E-03
RMM:  13    -0.413217130971E+03    0.39471E-05   -0.55202E-07  2358   0.127E-03    0.555E-04
RMM:  14    -0.413217129902E+03    0.10690E-05   -0.25827E-07  1926   0.880E-04    0.362E-04
RMM:  15    -0.413217127386E+03    0.25163E-05   -0.14072E-07  1420   0.714E-04    0.182E-04
RMM:  16    -0.413217122748E+03    0.46373E-05   -0.11396E-07  1363   0.692E-04    0.203E-04
RMM:  17    -0.413217120324E+03    0.24242E-05   -0.59949E-08   975   0.608E-04    0.129E-04
RMM:  18    -0.413217116201E+03    0.41234E-05   -0.64671E-08  1208   0.633E-04    0.112E-04
RMM:  19    -0.413217114128E+03    0.20731E-05   -0.37999E-08   966   0.575E-04    0.423E-05
RMM:  20    -0.413217113129E+03    0.99836E-06   -0.24163E-08   834   0.548E-04
   43 T=    71. E= -.41286721E+03 F= -.41321711E+03 E0= -.41319610E+03  EK= 0.34990E+00 SP= 0.00E+00 SK= 0.00E+00
       N       E                     dE             d eps       ncg     rms          rms(c)
RMM:   1    -0.413229855186E+03   -0.12741E-01   -0.87871E+00  4316   0.113E+00    0.957E-01
RMM:   2    -0.413225325667E+03    0.45295E-02   -0.12831E-01  4359   0.142E-01    0.711E-01
RMM:   3    -0.413223257938E+03    0.20677E-02   -0.33009E-02  5045   0.960E-02    0.297E-01
RMM:   4    -0.413257116469E+03   -0.33859E-01   -0.52579E-02  5095   0.195E-01    0.809E-01
RMM:   5    -0.413218273427E+03    0.38843E-01   -0.16448E-02  4738   0.133E-01    0.590E-02
RMM:   6    -0.413218359272E+03   -0.85845E-04   -0.30898E-03  5762   0.522E-02    0.348E-02
RMM:   7    -0.413218373140E+03   -0.13868E-04   -0.43615E-04  5679   0.199E-02    0.222E-02
RMM:   8    -0.413218374576E+03   -0.14361E-05   -0.11557E-04  5209   0.111E-02    0.129E-02
RMM:   9    -0.413218365632E+03    0.89440E-05   -0.17968E-05  4313   0.539E-03    0.579E-03
RMM:  10    -0.413218363800E+03    0.18322E-05   -0.38953E-06  2797   0.269E-03    0.351E-03
RMM:  11    -0.413218362062E+03    0.17374E-05   -0.12171E-06  2500   0.184E-03    0.197E-03
RMM:  12    -0.413218358080E+03    0.39827E-05   -0.11224E-06  2493   0.170E-03    0.900E-04
RMM:  13    -0.413218355071E+03    0.30082E-05   -0.52112E-07  2318   0.121E-03    0.473E-04
RMM:  14    -0.413218353862E+03    0.12090E-05   -0.24377E-07  1813   0.846E-04    0.301E-04
RMM:  15    -0.413218350514E+03    0.33482E-05   -0.15615E-07  1392   0.728E-04    0.154E-04
RMM:  16    -0.413218347538E+03    0.29758E-05   -0.10627E-07  1231   0.670E-04    0.150E-04
RMM:  17    -0.413218344957E+03    0.25815E-05   -0.74458E-08  1112   0.628E-04    0.114E-04
RMM:  18    -0.413218342320E+03    0.26369E-05   -0.58880E-08  1125   0.614E-04    0.701E-05
RMM:  19    -0.413218339631E+03    0.26892E-05   -0.45441E-08  1062   0.591E-04    0.354E-05
RMM:  20    -0.413218338988E+03    0.64241E-06   -0.21030E-08   757   0.539E-04
   44 T=    72. E= -.41286696E+03 F= -.41321834E+03 E0= -.41319735E+03  EK= 0.35138E+00 SP= 0.00E+00 SK= 0.00E+00
       N       E                     dE             d eps       ncg     rms          rms(c)
RMM:   1    -0.413237379228E+03   -0.19040E-01   -0.88326E+00  4312   0.126E+00    0.976E-01
RMM:   2    -0.413226303610E+03    0.11076E-01   -0.13326E-01  4368   0.152E-01    0.709E-01
RMM:   3    -0.413226644768E+03   -0.34116E-03   -0.31904E-02  5065   0.105E-01    0.354E-01
RMM:   4    -0.413251490380E+03   -0.24846E-01   -0.49403E-02  5061   0.191E-01    0.734E-01
RMM:   5    -0.413219649205E+03    0.31841E-01   -0.12417E-02  4704   0.120E-01    0.594E-02
RMM:   6    -0.413219679426E+03   -0.30221E-04   -0.24987E-03  5695   0.474E-02    0.348E-02
RMM:   7    -0.413219688631E+03   -0.92058E-05   -0.40393E-04  5624   0.194E-02    0.229E-02
RMM:   8    -0.413219684646E+03    0.39858E-05   -0.11707E-04  5141   0.115E-02    0.121E-02
RMM:   9    -0.413219673835E+03    0.10810E-04   -0.14588E-05  4179   0.522E-03    0.512E-03
RMM:  10    -0.413219669679E+03    0.41559E-05   -0.34136E-06  2765   0.251E-03    0.307E-03
RMM:  11    -0.413219665639E+03    0.40406E-05   -0.10785E-06  2491   0.175E-03    0.165E-03
RMM:  12    -0.413219658753E+03    0.68854E-05   -0.80668E-07  2455   0.150E-03    0.764E-04
RMM:  13    -0.413219654529E+03    0.42247E-05   -0.37371E-07  2136   0.106E-03    0.343E-04
RMM:  14    -0.413219652115E+03    0.24139E-05   -0.19531E-07  1629   0.789E-04    0.218E-04
RMM:  15    -0.413219645767E+03    0.63478E-05   -0.14018E-07  1381   0.729E-04    0.171E-04
RMM:  16    -0.413219643155E+03    0.26118E-05   -0.81865E-08  1119   0.648E-04    0.111E-04
RMM:  17    -0.413219639629E+03    0.35258E-05   -0.69038E-08  1194   0.638E-04    0.706E-05
RMM:  18    -0.413219635888E+03    0.37415E-05   -0.56581E-08  1191   0.617E-04    0.423E-05
RMM:  19    -0.413219633601E+03    0.22868E-05   -0.37300E-08  1017   0.571E-04    0.338E-05
RMM:  20    -0.413219633130E+03    0.47054E-06   -0.18654E-08   761   0.531E-04
   45 T=    72. E= -.41286721E+03 F= -.41321963E+03 E0= -.41319867E+03  EK= 0.35242E+00 SP= 0.00E+00 SK= 0.00E+00
       N       E                     dE             d eps       ncg     rms          rms(c)
RMM:   1    -0.413237676253E+03   -0.18043E-01   -0.87877E+00  4312   0.134E+00    0.958E-01
RMM:   2    -0.413225996700E+03    0.11680E-01   -0.13711E-01  4392   0.163E-01    0.704E-01
RMM:   3    -0.413229034664E+03   -0.30380E-02   -0.32833E-02  5072   0.117E-01    0.416E-01
RMM:   4    -0.413245947372E+03   -0.16913E-01   -0.47753E-02  5055   0.190E-01    0.672E-01
RMM:   5    -0.413219348132E+03    0.26599E-01   -0.96104E-03  4664   0.110E-01    0.587E-02
RMM:   6    -0.413219338227E+03    0.99050E-05   -0.20278E-03  5615   0.432E-02    0.332E-02
RMM:   7    -0.413219348666E+03   -0.10439E-04   -0.35619E-04  5577   0.186E-02    0.224E-02
RMM:   8    -0.413219343424E+03    0.52420E-05   -0.11667E-04  5075   0.116E-02    0.109E-02
RMM:   9    -0.413219333408E+03    0.10017E-04   -0.13048E-05  4088   0.511E-03    0.457E-03
RMM:  10    -0.413219329863E+03    0.35453E-05   -0.28384E-06  2710   0.234E-03    0.269E-03
RMM:  11    -0.413219325661E+03    0.42016E-05   -0.10729E-06  2488   0.170E-03    0.140E-03
RMM:  12    -0.413219319910E+03    0.57515E-05   -0.69137E-07  2413   0.137E-03    0.689E-04
RMM:  13    -0.413219316184E+03    0.37257E-05   -0.33141E-07  1940   0.976E-04    0.298E-04
RMM:  14    -0.413219313160E+03    0.30233E-05   -0.18591E-07  1477   0.763E-04    0.174E-04
RMM:  15    -0.413219307662E+03    0.54989E-05   -0.14081E-07  1298   0.718E-04    0.128E-04
RMM:  16    -0.413219304971E+03    0.26906E-05   -0.91976E-08  1186   0.660E-04    0.885E-05
RMM:  17    -0.413219299816E+03    0.51546E-05   -0.92682E-08  1413   0.672E-04    0.606E-05
RMM:  18    -0.413219297493E+03    0.23238E-05   -0.51602E-08  1067   0.581E-04    0.338E-05
RMM:  19    -0.413219295888E+03    0.16049E-05   -0.35004E-08   925   0.550E-04    0.214E-05
RMM:  20    -0.413219295623E+03    0.26464E-06   -0.20408E-08   740   0.521E-04
   46 T=    72. E= -.41286692E+03 F= -.41321930E+03 E0= -.41319834E+03  EK= 0.35237E+00 SP= 0.00E+00 SK= 0.00E+00
       N       E                     dE             d eps       ncg     rms          rms(c)
RMM:   1    -0.413233521953E+03   -0.14226E-01   -0.88219E+00  4312   0.138E+00    0.951E-01
RMM:   2    -0.413225054893E+03    0.84671E-02   -0.13724E-01  4416   0.170E-01    0.711E-01
RMM:   3    -0.413231232351E+03   -0.61775E-02   -0.36681E-02  5090   0.130E-01    0.480E-01
RMM:   4    -0.413241280230E+03   -0.10048E-01   -0.47803E-02  5037   0.192E-01    0.626E-01
RMM:   5    -0.413218177581E+03    0.23103E-01   -0.77645E-03  4619   0.104E-01    0.576E-02
RMM:   6    -0.413218142802E+03    0.34779E-04   -0.16986E-03  5486   0.399E-02    0.307E-02
RMM:   7    -0.413218154702E+03   -0.11900E-04   -0.30227E-04  5564   0.173E-02    0.212E-02
RMM:   8    -0.413218149336E+03    0.53661E-05   -0.11626E-04  5067   0.115E-02    0.101E-02
RMM:   9    -0.413218141381E+03    0.79550E-05   -0.11864E-05  3965   0.496E-03    0.430E-03
RMM:  10    -0.413218139153E+03    0.22274E-05   -0.25805E-06  2676   0.226E-03    0.247E-03
RMM:  11    -0.413218136001E+03    0.31519E-05   -0.11228E-06  2491   0.171E-03    0.126E-03
RMM:  12    -0.413218132300E+03    0.37018E-05   -0.65182E-07  2364   0.131E-03    0.657E-04
RMM:  13    -0.413218129451E+03    0.28491E-05   -0.32633E-07  1871   0.944E-04    0.296E-04
RMM:  14    -0.413218126658E+03    0.27922E-05   -0.19347E-07  1427   0.761E-04    0.165E-04
RMM:  15    -0.413218122739E+03    0.39188E-05   -0.15782E-07  1388   0.729E-04    0.119E-04
RMM:  16    -0.413218120267E+03    0.24730E-05   -0.99707E-08  1209   0.656E-04    0.836E-05
RMM:  17    -0.413218115522E+03    0.47442E-05   -0.11088E-07  1480   0.681E-04    0.603E-05
RMM:  18    -0.413218114009E+03    0.15136E-05   -0.48009E-08   965   0.554E-04    0.349E-05
RMM:  19    -0.413218112746E+03    0.12632E-05   -0.32134E-08   874   0.531E-04    0.202E-05
RMM:  20    -0.413218112248E+03    0.49738E-06   -0.18241E-08   726   0.510E-04
   47 T=    72. E= -.41286684E+03 F= -.41321811E+03 E0= -.41319717E+03  EK= 0.35128E+00 SP= 0.00E+00 SK= 0.00E+00
       N       E                     dE             d eps       ncg     rms          rms(c)
RMM:   1    -0.413235467901E+03   -0.17355E-01   -0.87838E+00  4311   0.149E+00    0.966E-01
RMM:   2    -0.413222458024E+03    0.13010E-01   -0.13924E-01  4459   0.182E-01    0.709E-01
RMM:   3    -0.413235478833E+03   -0.13021E-01   -0.40016E-02  5117   0.148E-01    0.589E-01
RMM:   4    -0.413231225693E+03    0.42531E-02   -0.44787E-02  4992   0.189E-01    0.511E-01
RMM:   5    -0.413215921677E+03    0.15304E-01   -0.46432E-03  4570   0.895E-02    0.572E-02
RMM:   6    -0.413215833428E+03    0.88249E-04   -0.91002E-04  5074   0.318E-02    0.294E-02
RMM:   7    -0.413215839774E+03   -0.63459E-05   -0.18019E-04  5526   0.137E-02    0.153E-02
RMM:   8    -0.413215843675E+03   -0.39008E-05   -0.10369E-04  5226   0.104E-02    0.113E-02
RMM:   9    -0.413215829944E+03    0.13731E-04   -0.16052E-05  4306   0.537E-03    0.429E-03
RMM:  10    -0.413215827206E+03    0.27378E-05   -0.31552E-06  2738   0.239E-03    0.235E-03
RMM:  11    -0.413215821961E+03    0.52446E-05   -0.12602E-06  2447   0.185E-03    0.125E-03
RMM:  12    -0.413215817942E+03    0.40191E-05   -0.57855E-07  2328   0.131E-03    0.738E-04
RMM:  13    -0.413215813425E+03    0.45176E-05   -0.28710E-07  1798   0.940E-04    0.350E-04
RMM:  14    -0.413215808962E+03    0.44624E-05   -0.15375E-07  1384   0.737E-04    0.187E-04
RMM:  15    -0.413215804594E+03    0.43686E-05   -0.10741E-07  1205   0.676E-04    0.126E-04
RMM:  16    -0.413215801530E+03    0.30635E-05   -0.74526E-08  1123   0.621E-04    0.102E-04
RMM:  17    -0.413215796316E+03    0.52143E-05   -0.78699E-08  1291   0.639E-04    0.618E-05
RMM:  18    -0.413215794282E+03    0.20342E-05   -0.33858E-08   864   0.541E-04    0.534E-05
RMM:  19    -0.413215793180E+03    0.11020E-05   -0.19768E-08   719   0.512E-04    0.304E-05
RMM:  20    -0.413215791834E+03    0.13460E-05   -0.19610E-08   746   0.515E-04    0.165E-05
RMM:  21    -0.413215791611E+03    0.22262E-06   -0.72092E-09   554   0.488E-04
   48 T=    71. E= -.41286693E+03 F= -.41321579E+03 E0= -.41319486E+03  EK= 0.34886E+00 SP= 0.00E+00 SK= 0.00E+00
       N       E                     dE             d eps       ncg     rms          rms(c)
RMM:   1    -0.413234809097E+03   -0.19017E-01   -0.86688E+00  4306   0.162E+00    0.954E-01
RMM:   2    -0.413217640261E+03    0.17169E-01   -0.14226E-01  4513   0.194E-01    0.698E-01
RMM:   3    -0.413239109404E+03   -0.21469E-01   -0.44624E-02  5137   0.167E-01    0.701E-01
RMM:   4    -0.413221426327E+03    0.17683E-01   -0.44459E-02  4967   0.192E-01    0.418E-01
RMM:   5    -0.413211344486E+03    0.10082E-01   -0.35483E-03  4576   0.842E-02    0.600E-02
RMM:   6    -0.413211201101E+03    0.14338E-03   -0.47761E-04  4717   0.278E-02    0.307E-02
RMM:   7    -0.413211215307E+03   -0.14206E-04   -0.25426E-04  5795   0.168E-02    0.197E-02
RMM:   8    -0.413211195504E+03    0.19803E-04   -0.80539E-05  5072   0.101E-02    0.949E-03
RMM:   9    -0.413211190524E+03    0.49805E-05   -0.14135E-05  4397   0.506E-03    0.432E-03
RMM:  10    -0.413211186835E+03    0.36885E-05   -0.19282E-06  2606   0.225E-03    0.240E-03
RMM:  11    -0.413211180922E+03    0.59133E-05   -0.10622E-06  2485   0.172E-03    0.162E-03
RMM:  12    -0.413211177287E+03    0.36346E-05   -0.40448E-07  2295   0.113E-03    0.834E-04
RMM:  13    -0.413211172083E+03    0.52046E-05   -0.35283E-07  2246   0.972E-04    0.475E-04
RMM:  14    -0.413211167737E+03    0.43455E-05   -0.16523E-07  1394   0.727E-04    0.292E-04
RMM:  15    -0.413211162656E+03    0.50808E-05   -0.11726E-07  1169   0.671E-04    0.142E-04
RMM:  16    -0.413211159405E+03    0.32513E-05   -0.78167E-08  1145   0.631E-04    0.854E-05
RMM:  17    -0.413211153616E+03    0.57888E-05   -0.90053E-08  1409   0.657E-04    0.116E-04
RMM:  18    -0.413211151831E+03    0.17857E-05   -0.41342E-08   954   0.536E-04    0.809E-05
RMM:  19    -0.413211150411E+03    0.14199E-05   -0.27987E-08   861   0.516E-04    0.392E-05
RMM:  20    -0.413211148940E+03    0.14705E-05   -0.24239E-08   834   0.511E-04    0.302E-05
RMM:  21    -0.413211148741E+03    0.19882E-06   -0.11680E-08   658   0.480E-04
   49 T=    70. E= -.41286661E+03 F= -.41321115E+03 E0= -.41319023E+03  EK= 0.34454E+00 SP= 0.00E+00 SK= 0.00E+00
       N       E                     dE             d eps       ncg     rms          rms(c)
RMM:   1    -0.413229624928E+03   -0.18476E-01   -0.85837E+00  4306   0.175E+00    0.928E-01
RMM:   2    -0.413212157679E+03    0.17467E-01   -0.14600E-01  4595   0.209E-01    0.698E-01
RMM:   3    -0.413240357062E+03   -0.28199E-01   -0.49543E-02  5147   0.184E-01    0.782E-01
RMM:   4    -0.413213901776E+03    0.26455E-01   -0.47064E-02  4938   0.200E-01    0.380E-01
[...]
RMM:  17    -0.413760856626E+03   -0.22044E-05   -0.44476E-07  1847   0.911E-04    0.238E-04
RMM:  18    -0.413760858526E+03   -0.19008E-05   -0.35628E-07  1625   0.816E-04    0.187E-04
RMM:  19    -0.413760860350E+03   -0.18239E-05   -0.30746E-07  1548   0.756E-04    0.897E-05
RMM:  20    -0.413760861667E+03   -0.13166E-05   -0.18859E-07  1254   0.650E-04    0.796E-05
RMM:  21    -0.413760862642E+03   -0.97495E-06   -0.11598E-07  1071   0.587E-04
  138 T=   180. E= -.41287542E+03 F= -.41376086E+03 E0= -.41373864E+03  EK= 0.88545E+00 SP= 0.00E+00 SK= 0.00E+00
       N       E                     dE             d eps       ncg     rms          rms(c)
RMM:   1    -0.414060656822E+03   -0.29980E+00   -0.22810E+01  4288   0.793E+00    0.145E+00
RMM:   2    -0.413830542656E+03    0.23011E+00   -0.72583E-01  5398   0.933E-01    0.126E+00
RMM:   3    -0.413898522877E+03   -0.67980E-01   -0.15932E-01  5607   0.441E-01    0.140E+00
RMM:   4    -0.413843292800E+03    0.55230E-01   -0.95087E-02  5197   0.333E-01    0.783E-01
RMM:   5    -0.413828230120E+03    0.15063E-01   -0.52414E-02  4765   0.308E-01    0.267E-01
RMM:   6    -0.413826605729E+03    0.16244E-02   -0.91435E-03  5174   0.129E-01    0.127E-01
RMM:   7    -0.413826076475E+03    0.52925E-03   -0.18892E-03  5012   0.581E-02    0.642E-02
RMM:   8    -0.413826035916E+03    0.40559E-04   -0.86233E-04  5657   0.349E-02    0.433E-02
RMM:   9    -0.413826007008E+03    0.28908E-04   -0.43023E-04  5509   0.250E-02    0.312E-02
RMM:  10    -0.413825994951E+03    0.12057E-04   -0.99768E-05  5433   0.130E-02    0.172E-02
RMM:  11    -0.413825992817E+03    0.21332E-05   -0.67191E-05  5636   0.948E-03    0.742E-03
RMM:  12    -0.413825994385E+03   -0.15675E-05   -0.93834E-06  3761   0.422E-03    0.364E-03
RMM:  13    -0.413825996321E+03   -0.19359E-05   -0.25450E-06  2690   0.249E-03    0.213E-03
RMM:  14    -0.413825998654E+03   -0.23334E-05   -0.95007E-07  2510   0.168E-03    0.904E-04
RMM:  15    -0.413826000549E+03   -0.18944E-05   -0.58995E-07  2292   0.119E-03    0.518E-04
RMM:  16    -0.413826002781E+03   -0.22319E-05   -0.51305E-07  2095   0.103E-03    0.288E-04
RMM:  17    -0.413826004310E+03   -0.15290E-05   -0.31301E-07  1656   0.849E-04    0.191E-04
RMM:  18    -0.413826005921E+03   -0.16114E-05   -0.29703E-07  1652   0.806E-04    0.163E-04
RMM:  19    -0.413826007079E+03   -0.11582E-05   -0.20138E-07  1366   0.691E-04    0.833E-05
RMM:  20    -0.413826007997E+03   -0.91745E-06   -0.14414E-07  1216   0.628E-04
  139 T=   193. E= -.41288037E+03 F= -.41382601E+03 E0= -.41380421E+03  EK= 0.94564E+00 SP= 0.00E+00 SK= 0.00E+00
       N       E                     dE             d eps       ncg     rms          rms(c)
RMM:   1    -0.414031374670E+03   -0.20537E+00   -0.22575E+01  4290   0.809E+00    0.128E+00
RMM:   2    -0.413767150330E+03    0.26422E+00   -0.60941E-01  5405   0.917E-01    0.118E+00
RMM:   3    -0.413802727419E+03   -0.35577E-01   -0.11453E-01  5753   0.373E-01    0.120E+00
RMM:   4    -0.413773868672E+03    0.28859E-01   -0.58386E-02  5248   0.258E-01    0.778E-01
RMM:   5    -0.413763984869E+03    0.98838E-02   -0.45673E-02  4561   0.290E-01    0.295E-01
RMM:   6    -0.413761970892E+03    0.20140E-02   -0.74107E-03  4725   0.123E-01    0.122E-01
RMM:   7    -0.413761631135E+03    0.33976E-03   -0.16171E-03  5488   0.526E-02    0.799E-02
RMM:   8    -0.413761539554E+03    0.91581E-04   -0.75856E-04  5499   0.329E-02    0.523E-02
RMM:   9    -0.413761487742E+03    0.51812E-04   -0.53389E-04  4844   0.289E-02    0.250E-02
RMM:  10    -0.413761489598E+03   -0.18551E-05   -0.13014E-04  5654   0.142E-02    0.175E-02
RMM:  11    -0.413761485814E+03    0.37833E-05   -0.40197E-05  5132   0.822E-03    0.703E-03
RMM:  12    -0.413761489882E+03   -0.40682E-05   -0.10708E-05  3793   0.422E-03    0.398E-03
RMM:  13    -0.413761492124E+03   -0.22413E-05   -0.20444E-06  2643   0.234E-03    0.229E-03
RMM:  14    -0.413761494521E+03   -0.23977E-05   -0.12011E-06  2537   0.175E-03    0.112E-03
RMM:  15    -0.413761496631E+03   -0.21096E-05   -0.71512E-07  2333   0.132E-03    0.614E-04
RMM:  16    -0.413761498329E+03   -0.16983E-05   -0.46613E-07  2035   0.102E-03    0.316E-04
RMM:  17    -0.413761499639E+03   -0.13101E-05   -0.30787E-07  1661   0.857E-04    0.173E-04
RMM:  18    -0.413761501013E+03   -0.13736E-05   -0.30416E-07  1713   0.814E-04    0.152E-04
RMM:  19    -0.413761501721E+03   -0.70827E-06   -0.16900E-07  1271   0.664E-04
  140 T=   181. E= -.41287081E+03 F= -.41376150E+03 E0= -.41374038E+03  EK= 0.89070E+00 SP= 0.00E+00 SK= 0.00E+00
       N       E                     dE             d eps       ncg     rms          rms(c)
RMM:   1    -0.413905218316E+03   -0.14372E+00   -0.19593E+01  4294   0.774E+00    0.868E-01
RMM:   2    -0.413694723446E+03    0.21049E+00   -0.47108E-01  5405   0.822E-01    0.865E-01
RMM:   3    -0.413706946316E+03   -0.12223E-01   -0.75642E-02  5930   0.287E-01    0.899E-01
RMM:   4    -0.413691925523E+03    0.15021E-01   -0.17815E-02  5200   0.151E-01    0.620E-01
RMM:   5    -0.413690179253E+03    0.17463E-02   -0.34232E-02  4479   0.237E-01    0.297E-01
RMM:   6    -0.413689004495E+03    0.11748E-02   -0.16421E-02  4902   0.162E-01    0.169E-01
RMM:   7    -0.413688247368E+03    0.75713E-03   -0.25479E-03  5575   0.674E-02    0.131E-01
RMM:   8    -0.413687791077E+03    0.45629E-03   -0.79330E-04  4416   0.371E-02    0.706E-02
RMM:   9    -0.413687701304E+03    0.89773E-04   -0.11512E-03  4443   0.411E-02    0.187E-02
RMM:  10    -0.413687722887E+03   -0.21583E-04   -0.18572E-04  5770   0.152E-02    0.146E-02
RMM:  11    -0.413687724122E+03   -0.12342E-05   -0.40245E-05  4745   0.805E-03    0.737E-03
RMM:  12    -0.413687730172E+03   -0.60504E-05   -0.82415E-06  3367   0.391E-03    0.373E-03
RMM:  13    -0.413687734639E+03   -0.44666E-05   -0.31005E-06  2788   0.258E-03    0.321E-03
RMM:  14    -0.413687737146E+03   -0.25075E-05   -0.18335E-06  2612   0.210E-03    0.118E-03
RMM:  15    -0.413687739135E+03   -0.19887E-05   -0.80432E-07  2360   0.140E-03    0.797E-04
RMM:  16    -0.413687740728E+03   -0.15930E-05   -0.70444E-07  2312   0.122E-03    0.292E-04
RMM:  17    -0.413687742039E+03   -0.13114E-05   -0.43860E-07  1956   0.967E-04    0.226E-04
RMM:  18    -0.413687743038E+03   -0.99863E-06   -0.36588E-07  1787   0.861E-04
  141 T=   167. E= -.41286571E+03 F= -.41368774E+03 E0= -.41366718E+03  EK= 0.82203E+00 SP= 0.00E+00 SK= 0.00E+00
       N       E                     dE             d eps       ncg     rms          rms(c)
RMM:   1    -0.413804402819E+03   -0.11666E+00   -0.17931E+01  4293   0.779E+00    0.103E+00
RMM:   2    -0.413677628589E+03    0.12677E+00   -0.43883E-01  5397   0.797E-01    0.941E-01
RMM:   3    -0.413699789401E+03   -0.22161E-01   -0.93717E-02  5817   0.319E-01    0.104E+00
RMM:   4    -0.413669841654E+03    0.29948E-01   -0.36351E-02  5079   0.221E-01    0.546E-01
RMM:   5    -0.413670853121E+03   -0.10115E-02   -0.51301E-02  4966   0.274E-01    0.352E-01
RMM:   6    -0.413666438827E+03    0.44143E-02   -0.17711E-02  5022   0.167E-01    0.154E-01
RMM:   7    -0.413665791290E+03    0.64754E-03   -0.24883E-03  5447   0.673E-02    0.108E-01
RMM:   8    -0.413665501310E+03    0.28998E-03   -0.11025E-03  4713   0.412E-02    0.506E-02
RMM:   9    -0.413665520791E+03   -0.19482E-04   -0.70712E-04  5002   0.309E-02    0.213E-02
RMM:  10    -0.413665537260E+03   -0.16469E-04   -0.11369E-04  5805   0.124E-02    0.156E-02
RMM:  11    -0.413665541391E+03   -0.41304E-05   -0.35452E-05  4497   0.794E-03    0.592E-03
RMM:  12    -0.413665551593E+03   -0.10202E-04   -0.87924E-06  3424   0.402E-03    0.353E-03
RMM:  13    -0.413665556872E+03   -0.52785E-05   -0.27753E-06  2741   0.239E-03    0.186E-03
RMM:  14    -0.413665560660E+03   -0.37881E-05   -0.16292E-06  2602   0.182E-03    0.934E-04
RMM:  15    -0.413665563465E+03   -0.28050E-05   -0.10722E-06  2353   0.140E-03    0.574E-04
RMM:  16    -0.413665565240E+03   -0.17751E-05   -0.88889E-07  2310   0.122E-03    0.334E-04
RMM:  17    -0.413665566106E+03   -0.86614E-06   -0.73588E-07  2065   0.107E-03
  142 T=   162. E= -.41287118E+03 F= -.41366557E+03 E0= -.41364563E+03  EK= 0.79439E+00 SP= 0.00E+00 SK= 0.00E+00
       N       E                     dE             d eps       ncg     rms          rms(c)
RMM:   1    -0.413706690527E+03   -0.41125E-01   -0.16926E+01  4295   0.786E+00    0.108E+00
RMM:   2    -0.413631843237E+03    0.74847E-01   -0.41734E-01  5387   0.774E-01    0.988E-01
RMM:   3    -0.413652152175E+03   -0.20309E-01   -0.95958E-02  5791   0.322E-01    0.106E+00
RMM:   4    -0.413622440243E+03    0.29712E-01   -0.46319E-02  5148   0.246E-01    0.551E-01
RMM:   5    -0.413621262531E+03    0.11777E-02   -0.50429E-02  4909   0.275E-01    0.316E-01
RMM:   6    -0.413617987221E+03    0.32753E-02   -0.14207E-02  5109   0.150E-01    0.154E-01
RMM:   7    -0.413617260955E+03    0.72627E-03   -0.19362E-03  5151   0.614E-02    0.103E-01
RMM:   8    -0.413617011888E+03    0.24907E-03   -0.13809E-03  4743   0.455E-02    0.408E-02
RMM:   9    -0.413617058247E+03   -0.46358E-04   -0.63600E-04  5470   0.283E-02    0.246E-02
RMM:  10    -0.413617058985E+03   -0.73876E-06   -0.81494E-05  5314   0.113E-02    0.139E-02
RMM:  11    -0.413617068835E+03   -0.98494E-05   -0.36781E-05  4742   0.763E-03    0.634E-03
RMM:  12    -0.413617080639E+03   -0.11805E-04   -0.84976E-06  3297   0.387E-03    0.297E-03
RMM:  13    -0.413617087936E+03   -0.72970E-05   -0.35222E-06  2833   0.251E-03    0.155E-03
RMM:  14    -0.413617093317E+03   -0.53808E-05   -0.22207E-06  2676   0.202E-03    0.902E-04
RMM:  15    -0.413617096621E+03   -0.33042E-05   -0.14287E-06  2428   0.151E-03    0.552E-04
RMM:  16    -0.413617098879E+03   -0.22572E-05   -0.14128E-06  2434   0.144E-03    0.370E-04
RMM:  17    -0.413617099269E+03   -0.39041E-06   -0.12142E-06  2243   0.126E-03
  143 T=   152. E= -.41287181E+03 F= -.41361710E+03 E0= -.41359794E+03  EK= 0.74529E+00 SP= 0.00E+00 SK= 0.00E+00
       N       E                     dE             d eps       ncg     rms          rms(c)
RMM:   1    -0.413571031181E+03    0.46068E-01   -0.14611E+01  4296   0.749E+00    0.817E-01
RMM:   2    -0.413527493675E+03    0.43538E-01   -0.34102E-01  5368   0.698E-01    0.798E-01
RMM:   3    -0.413533635675E+03   -0.61420E-02   -0.65111E-02  5887   0.262E-01    0.800E-01
RMM:   4    -0.413519394193E+03    0.14241E-01   -0.21652E-02  5169   0.171E-01    0.479E-01
RMM:   5    -0.413519546213E+03   -0.15202E-03   -0.32473E-02  4803   0.223E-01    0.284E-01
RMM:   6    -0.413517428462E+03    0.21178E-02   -0.12735E-02  5090   0.138E-01    0.146E-01
RMM:   7    -0.413516838175E+03    0.59029E-03   -0.18634E-03  5370   0.576E-02    0.104E-01
RMM:   8    -0.413516548383E+03    0.28979E-03   -0.12019E-03  4436   0.432E-02    0.355E-02
RMM:   9    -0.413516596944E+03   -0.48561E-04   -0.60788E-04  5393   0.274E-02    0.215E-02
RMM:  10    -0.413516598786E+03   -0.18418E-05   -0.65467E-05  5069   0.102E-02    0.116E-02
RMM:  11    -0.413516609152E+03   -0.10366E-04   -0.24278E-05  4454   0.624E-03    0.518E-03
RMM:  12    -0.413516619653E+03   -0.10501E-04   -0.66066E-06  3145   0.344E-03    0.260E-03
RMM:  13    -0.413516626430E+03   -0.67772E-05   -0.31942E-06  2802   0.241E-03    0.129E-03
RMM:  14    -0.413516630595E+03   -0.41649E-05   -0.21090E-06  2649   0.191E-03    0.807E-04
RMM:  15    -0.413516633115E+03   -0.25196E-05   -0.14365E-06  2429   0.152E-03    0.510E-04
RMM:  16    -0.413516634237E+03   -0.11218E-05   -0.15072E-06  2459   0.148E-03    0.378E-04
RMM:  17    -0.413516633401E+03    0.83579E-06   -0.11940E-06  2207   0.125E-03
  144 T=   132. E= -.41286847E+03 F= -.41351663E+03 E0= -.41349811E+03  EK= 0.64817E+00 SP= 0.00E+00 SK= 0.00E+00
       N       E                     dE             d eps       ncg     rms          rms(c)
RMM:   1    -0.413430839439E+03    0.85795E-01   -0.11482E+01  4293   0.675E+00    0.613E-01
RMM:   2    -0.413407595184E+03    0.23244E-01   -0.24307E-01  5334   0.595E-01    0.596E-01
RMM:   3    -0.413412769410E+03   -0.51742E-02   -0.43668E-02  5934   0.208E-01    0.615E-01
RMM:   4    -0.413404459843E+03    0.83096E-02   -0.10949E-02  5121   0.121E-01    0.391E-01
RMM:   5    -0.413404875726E+03   -0.41588E-03   -0.21790E-02  4721   0.184E-01    0.234E-01
RMM:   6    -0.413403415586E+03    0.14601E-02   -0.91089E-03  5051   0.117E-01    0.124E-01
RMM:   7    -0.413403045404E+03    0.37018E-03   -0.14456E-03  5479   0.489E-02    0.921E-02
RMM:   8    -0.413402800382E+03    0.24502E-03   -0.81202E-04  4399   0.361E-02    0.339E-02
RMM:   9    -0.413402830681E+03   -0.30299E-04   -0.50300E-04  5280   0.253E-02    0.186E-02
RMM:  10    -0.413402835212E+03   -0.45303E-05   -0.52372E-05  5169   0.893E-03    0.100E-02
RMM:  11    -0.413402843264E+03   -0.80521E-05   -0.16593E-05  4213   0.539E-03    0.396E-03
RMM:  12    -0.413402850425E+03   -0.71615E-05   -0.43952E-06  2934   0.292E-03    0.223E-03
RMM:  13    -0.413402855737E+03   -0.53121E-05   -0.23268E-06  2713   0.214E-03    0.120E-03
RMM:  14    -0.413402858493E+03   -0.27561E-05   -0.15537E-06  2546   0.167E-03    0.624E-04
RMM:  15    -0.413402860239E+03   -0.17460E-05   -0.12000E-06  2374   0.141E-03    0.430E-04
RMM:  16    -0.413402860684E+03   -0.44465E-06   -0.10829E-06  2332   0.129E-03
  145 T=   109. E= -.41286571E+03 F= -.41340286E+03 E0= -.41338471E+03  EK= 0.53715E+00 SP= 0.00E+00 SK= 0.00E+00
       N       E                     dE             d eps       ncg     rms          rms(c)
RMM:   1    -0.413326660788E+03    0.76199E-01   -0.86840E+00  4286   0.594E+00    0.516E-01
RMM:   2    -0.413314641822E+03    0.12019E-01   -0.16888E-01  5268   0.506E-01    0.472E-01
RMM:   3    -0.413319773657E+03   -0.51318E-02   -0.29568E-02  5942   0.170E-01    0.473E-01
RMM:   4    -0.413315854143E+03    0.39195E-02   -0.97988E-03  5242   0.103E-01    0.339E-01
RMM:   5    -0.413315213927E+03    0.64022E-03   -0.16624E-02  4667   0.163E-01    0.188E-01
RMM:   6    -0.413313967393E+03    0.12465E-02   -0.39988E-03  4946   0.828E-02    0.948E-02
RMM:   7    -0.413313783831E+03    0.18356E-03   -0.88872E-04  5405   0.371E-02    0.669E-02
RMM:   8    -0.413313661693E+03    0.12214E-03   -0.47413E-04  4630   0.274E-02    0.293E-02
RMM:   9    -0.413313674734E+03   -0.13041E-04   -0.28073E-04  5209   0.196E-02    0.154E-02
RMM:  10    -0.413313679045E+03   -0.43114E-05   -0.33345E-05  5029   0.731E-03    0.903E-03
RMM:  11    -0.413313682592E+03   -0.35466E-05   -0.10256E-05  3836   0.449E-03    0.361E-03
RMM:  12    -0.413313686346E+03   -0.37536E-05   -0.26496E-06  2736   0.249E-03    0.226E-03
RMM:  13    -0.413313689704E+03   -0.33588E-05   -0.16470E-06  2616   0.190E-03    0.109E-03
RMM:  14    -0.413313691352E+03   -0.16480E-05   -0.11160E-06  2425   0.151E-03    0.540E-04
RMM:  15    -0.413313692409E+03   -0.10565E-05   -0.75743E-07  2283   0.122E-03    0.406E-04
RMM:  16    -0.413313692608E+03   -0.19892E-06   -0.53837E-07  2038   0.103E-03
  146 T=    91. E= -.41286481E+03 F= -.41331369E+03 E0= -.41329569E+03  EK= 0.44889E+00 SP= 0.00E+00 SK= 0.00E+00
       N       E                     dE             d eps       ncg     rms          rms(c)
RMM:   1    -0.413268602143E+03    0.45090E-01   -0.68157E+00  4264   0.529E+00    0.495E-01
RMM:   2    -0.413262351546E+03    0.62506E-02   -0.12638E-01  5223   0.449E-01    0.445E-01
RMM:   3    -0.413267819827E+03   -0.54683E-02   -0.25723E-02  5891   0.156E-01    0.445E-01
RMM:   4    -0.413263697204E+03    0.41226E-02   -0.92187E-03  5202   0.102E-01    0.295E-01
RMM:   5    -0.413262701623E+03    0.99558E-03   -0.10403E-02  4421   0.138E-01    0.134E-01
RMM:   6    -0.413262021335E+03    0.68029E-03   -0.12767E-03  4663   0.522E-02    0.659E-02
RMM:   7    -0.413261931810E+03    0.89525E-04   -0.45636E-04  5288   0.270E-02    0.383E-02
RMM:   8    -0.413261911311E+03    0.20499E-04   -0.24583E-04  4762   0.191E-02    0.152E-02
RMM:   9    -0.413261917251E+03   -0.59396E-05   -0.91107E-05  5732   0.110E-02    0.113E-02
RMM:  10    -0.413261918329E+03   -0.10783E-05   -0.19874E-05  4693   0.512E-03    0.702E-03
RMM:  11    -0.413261918394E+03   -0.64312E-07   -0.52666E-06  3143   0.347E-03
  147 T=    81. E= -.41286527E+03 F= -.41326192E+03 E0= -.41324394E+03  EK= 0.39665E+00 SP= 0.00E+00 SK= 0.00E+00
       N       E                     dE             d eps       ncg     rms          rms(c)
RMM:   1    -0.413242021726E+03    0.19897E-01   -0.58255E+00  4264   0.489E+00    0.524E-01
RMM:   2    -0.413239660294E+03    0.23614E-02   -0.10747E-01  5237   0.421E-01    0.476E-01
RMM:   3    -0.413246320876E+03   -0.66606E-02   -0.27076E-02  5855   0.159E-01    0.530E-01
RMM:   4    -0.413238631351E+03    0.76895E-02   -0.85441E-03  4966   0.113E-01    0.240E-01
RMM:   5    -0.413238935183E+03   -0.30383E-03   -0.86300E-03  4570   0.125E-01    0.114E-01
RMM:   6    -0.413238402471E+03    0.53271E-03   -0.15257E-03  4908   0.514E-02    0.627E-02
RMM:   7    -0.413238308127E+03    0.94344E-04   -0.37800E-04  5274   0.247E-02    0.420E-02
RMM:   8    -0.413238268320E+03    0.39807E-04   -0.20343E-04  4557   0.182E-02    0.164E-02
RMM:   9    -0.413238270809E+03   -0.24890E-05   -0.10067E-04  5360   0.119E-02    0.100E-02
RMM:  10    -0.413238270270E+03    0.53892E-06   -0.16754E-05  4244   0.488E-03    0.533E-03
RMM:  11    -0.413238270897E+03   -0.62637E-06   -0.35964E-06  2840   0.286E-03
  148 T=    76. E= -.41286646E+03 F= -.41323827E+03 E0= -.41322026E+03  EK= 0.37181E+00 SP= 0.00E+00 SK= 0.00E+00
       N       E                     dE             d eps       ncg     rms          rms(c)
RMM:   1    -0.413223761179E+03    0.14509E-01   -0.52721E+00  4265   0.468E+00    0.568E-01
RMM:   2    -0.413225284077E+03   -0.15229E-02   -0.10893E-01  5256   0.413E-01    0.504E-01
RMM:   3    -0.413233657084E+03   -0.83730E-02   -0.28423E-02  5780   0.168E-01    0.577E-01
RMM:   4    -0.413224069434E+03    0.95876E-02   -0.11204E-02  4944   0.131E-01    0.217E-01
RMM:   5    -0.413224204200E+03   -0.13477E-03   -0.80662E-03  4794   0.118E-01    0.108E-01
RMM:   6    -0.413223712683E+03    0.49152E-03   -0.16776E-03  4985   0.522E-02    0.573E-02
RMM:   7    -0.413223612269E+03    0.10041E-03   -0.33022E-04  5044   0.239E-02    0.343E-02
RMM:   8    -0.413223586101E+03    0.26169E-04   -0.15830E-04  4633   0.164E-02    0.129E-02
RMM:   9    -0.413223589639E+03   -0.35388E-05   -0.70039E-05  5643   0.964E-03    0.889E-03
RMM:  10    -0.413223588764E+03    0.87575E-06   -0.12337E-05  3985   0.425E-03    0.482E-03
RMM:  11    -0.413223589461E+03   -0.69777E-06   -0.33204E-06  2820   0.272E-03
  149 T=    73. E= -.41286735E+03 F= -.41322359E+03 E0= -.41320553E+03  EK= 0.35624E+00 SP= 0.00E+00 SK= 0.00E+00
       N       E                     dE             d eps       ncg     rms          rms(c)
RMM:   1    -0.413204058687E+03    0.19530E-01   -0.47309E+00  4287   0.445E+00    0.603E-01
RMM:   2    -0.413206180459E+03   -0.21218E-02   -0.98829E-02  5237   0.389E-01    0.491E-01
RMM:   3    -0.413225489049E+03   -0.19309E-01   -0.35492E-02  5645   0.188E-01    0.667E-01
RMM:   4    -0.413207053658E+03    0.18435E-01   -0.19044E-02  5057   0.154E-01    0.225E-01
RMM:   5    -0.413206015878E+03    0.10378E-02   -0.86109E-03  4982   0.121E-01    0.938E-02
RMM:   6    -0.413205751768E+03    0.26411E-03   -0.12480E-03  5244   0.461E-02    0.486E-02
RMM:   7    -0.413205677479E+03    0.74289E-04   -0.33298E-04  5140   0.221E-02    0.288E-02
RMM:   8    -0.413205664624E+03    0.12855E-04   -0.16454E-04  5177   0.161E-02    0.159E-02
RMM:   9    -0.413205661554E+03    0.30706E-05   -0.49615E-05  5476   0.851E-03    0.104E-02
RMM:  10    -0.413205660554E+03    0.99906E-06   -0.17772E-05  4622   0.524E-03    0.507E-03
RMM:  11    -0.413205661137E+03   -0.58226E-06   -0.59746E-06  3205   0.316E-03
  150 T=    69. E= -.41286688E+03 F= -.41320566E+03 E0= -.41318757E+03  EK= 0.33878E+00 SP= 0.00E+00 SK= 0.00E+00
