       N       E                     dE             d eps       ncg     rms          rms(c)
RMM:   1     0.220070707735E+04    0.22007E+04   -0.52444E+04  2132   0.654E+02
RMM:   2     0.705079366767E+03   -0.14956E+04   -0.16262E+04  2132   0.177E+02
RMM:   3     0.137803760510E+03   -0.56728E+03   -0.65702E+03  2132   0.117E+02
RMM:   4    -0.159032587300E+03   -0.29684E+03   -0.27827E+03  2132   0.936E+01
RMM:   5    -0.287395640676E+03   -0.12836E+03   -0.11443E+03  2132   0.595E+01
RMM:   6    -0.349843697433E+03   -0.62448E+02   -0.55195E+02  2132   0.423E+01
RMM:   7    -0.382727363962E+03   -0.32884E+02   -0.30444E+02  2132   0.293E+01
RMM:   8    -0.404183366407E+03   -0.21456E+02   -0.18410E+02  2132   0.233E+01
RMM:   9    -0.435998821210E+03   -0.31815E+02   -0.30735E+02  6101   0.173E+01
RMM:  10    -0.441299112854E+03   -0.53003E+01   -0.63410E+01  6390   0.539E+00
RMM:  11    -0.442494610615E+03   -0.11955E+01   -0.11070E+01  6220   0.174E+00
RMM:  12    -0.442870929471E+03   -0.37632E+00   -0.26183E+00  6362   0.601E-01    0.134E+02
RMM:  13    -0.425581552450E+03    0.17289E+02   -0.80786E+01  4674   0.119E+01    0.712E+01
RMM:  14    -0.499671736459E+03   -0.74090E+02   -0.54015E+02  5418   0.232E+01    0.307E+01
RMM:  15    -0.416090627630E+03    0.83581E+02   -0.19956E+02  5095   0.164E+01    0.712E+00
RMM:  16    -0.414002559332E+03    0.20881E+01   -0.39325E+01  6077   0.610E+00    0.425E+00
RMM:  17    -0.413213919349E+03    0.78864E+00   -0.25875E+00  5398   0.188E+00    0.245E+00
RMM:  18    -0.413175475559E+03    0.38444E-01   -0.77763E-01  5985   0.900E-01    0.168E+00
RMM:  19    -0.413168275020E+03    0.72005E-02   -0.28748E-01  5679   0.577E-01    0.880E-01
RMM:  20    -0.413187741926E+03   -0.19467E-01   -0.27419E-01  5566   0.549E-01    0.620E-01
RMM:  21    -0.413167585510E+03    0.20156E-01   -0.36271E-02  4990   0.242E-01    0.286E-01
RMM:  22    -0.413164921128E+03    0.26644E-02   -0.20205E-02  5959   0.132E-01    0.143E-01
RMM:  23    -0.413163931902E+03    0.98923E-03   -0.61863E-03  6018   0.711E-02    0.887E-02
RMM:  24    -0.413162825737E+03    0.11062E-02   -0.17258E-03  5390   0.433E-02    0.509E-02
RMM:  25    -0.413162421372E+03    0.40436E-03   -0.85209E-04  5175   0.289E-02    0.410E-02
RMM:  26    -0.413162577471E+03   -0.15610E-03   -0.10013E-03  5778   0.331E-02    0.335E-02
RMM:  27    -0.413163045763E+03   -0.46829E-03   -0.18754E-04  4579   0.201E-02    0.212E-02
RMM:  28    -0.413163495044E+03   -0.44928E-03   -0.15535E-04  5152   0.177E-02    0.111E-02
RMM:  29    -0.413163920636E+03   -0.42559E-03   -0.12309E-04  4741   0.165E-02    0.490E-03
RMM:  30    -0.413164148208E+03   -0.22757E-03   -0.74117E-05  4355   0.102E-02    0.434E-03
RMM:  31    -0.413164294202E+03   -0.14599E-03   -0.54254E-05  3222   0.731E-03    0.363E-03
RMM:  32    -0.413164322262E+03   -0.28059E-04   -0.21089E-05  2987   0.320E-03    0.184E-03
RMM:  33    -0.413164336098E+03   -0.13836E-04   -0.86121E-06  2823   0.235E-03    0.665E-04
RMM:  34    -0.413164339301E+03   -0.32025E-05   -0.48023E-06  2657   0.171E-03    0.712E-04
RMM:  35    -0.413164339874E+03   -0.57283E-06   -0.46755E-06  2383   0.128E-03
    1 T=    61. E= -.41286652E+03 F= -.41316434E+03 E0= -.41314184E+03  EK= 0.29782E+00 SP= 0.00E+00 SK= 0.00E+00
       N       E                     dE             d eps       ncg     rms          rms(c)
RMM:   1    -0.413155586613E+03    0.87527E-02   -0.10877E+01  3985   0.690E-01    0.886E-01
RMM:   2    -0.413165872416E+03   -0.10286E-01   -0.13378E-01  3960   0.992E-02    0.642E-01
RMM:   3    -0.413164071224E+03    0.18012E-02   -0.71784E-03  4656   0.362E-02    0.141E-01
RMM:   4    -0.413178147043E+03   -0.14076E-01   -0.14741E-02  5224   0.101E-01    0.498E-01
RMM:   5    -0.413163846107E+03    0.14301E-01   -0.70979E-03  4860   0.832E-02    0.304E-02
RMM:   6    -0.413163935971E+03   -0.89864E-04   -0.11670E-03  5818   0.330E-02    0.196E-02
RMM:   7    -0.413163947390E+03   -0.11419E-04   -0.17597E-04  5726   0.118E-02    0.122E-02
RMM:   8    -0.413163953996E+03   -0.66060E-05   -0.24306E-05  4266   0.507E-03    0.537E-03
RMM:   9    -0.413163959119E+03   -0.51235E-05   -0.50835E-06  2929   0.260E-03    0.410E-03
RMM:  10    -0.413163964343E+03   -0.52231E-05   -0.11950E-06  2529   0.161E-03    0.269E-03
RMM:  11    -0.413163971979E+03   -0.76363E-05   -0.12017E-06  2517   0.153E-03    0.113E-03
RMM:  12    -0.413163977246E+03   -0.52673E-05   -0.78491E-07  2341   0.120E-03    0.464E-04
RMM:  13    -0.413163977837E+03   -0.59098E-06   -0.33909E-07  1654   0.812E-04
    2 T=    61. E= -.41286620E+03 F= -.41316398E+03 E0= -.41314148E+03  EK= 0.29778E+00 SP= 0.00E+00 SK= 0.00E+00
       N       E                     dE             d eps       ncg     rms          rms(c)
RMM:   1    -0.413156760832E+03    0.72164E-02   -0.10908E+01  4186   0.692E-01    0.910E-01
RMM:   2    -0.413165949078E+03   -0.91882E-02   -0.13115E-01  3954   0.960E-02    0.635E-01
RMM:   3    -0.413164751075E+03    0.11980E-02   -0.75726E-03  4842   0.381E-02    0.158E-01
RMM:   4    -0.413190775508E+03   -0.26024E-01   -0.26436E-02  5188   0.136E-01    0.673E-01
RMM:   5    -0.413164409769E+03    0.26366E-01   -0.12785E-02  4828   0.113E-01    0.386E-02
RMM:   6    -0.413164581117E+03   -0.17135E-03   -0.21215E-03  5805   0.447E-02    0.229E-02
RMM:   7    -0.413164590245E+03   -0.91280E-05   -0.27961E-04  5914   0.145E-02    0.152E-02
RMM:   8    -0.413164590020E+03    0.22495E-06   -0.42211E-05  4871   0.636E-03    0.768E-03
RMM:   9    -0.413164589235E+03    0.78512E-06   -0.88107E-06  3414   0.332E-03
    3 T=    61. E= -.41286658E+03 F= -.41316459E+03 E0= -.41314209E+03  EK= 0.29801E+00 SP= 0.00E+00 SK= 0.00E+00
       N       E                     dE             d eps       ncg     rms          rms(c)
RMM:   1    -0.413156225381E+03    0.83646E-02   -0.10818E+01  4224   0.693E-01    0.893E-01
RMM:   2    -0.413165906745E+03   -0.96814E-02   -0.13018E-01  4277   0.979E-02    0.629E-01
RMM:   3    -0.413170903114E+03   -0.49964E-02   -0.12540E-02  5201   0.818E-02    0.372E-01
RMM:   4    -0.413184303580E+03   -0.13400E-01   -0.35119E-02  5110   0.161E-01    0.591E-01
RMM:   5    -0.413164375300E+03    0.19928E-01   -0.75026E-03  4685   0.988E-02    0.539E-02
RMM:   6    -0.413164338919E+03    0.36380E-04   -0.13417E-03  5395   0.372E-02    0.217E-02
RMM:   7    -0.413164356658E+03   -0.17739E-04   -0.24467E-04  6003   0.148E-02    0.141E-02
RMM:   8    -0.413164358426E+03   -0.17678E-05   -0.40946E-05  5182   0.683E-03    0.671E-03
RMM:   9    -0.413164359017E+03   -0.59092E-06   -0.96031E-06  3631   0.389E-03
    4 T=    61. E= -.41286634E+03 F= -.41316436E+03 E0= -.41314187E+03  EK= 0.29802E+00 SP= 0.00E+00 SK= 0.00E+00
       N       E                     dE             d eps       ncg     rms          rms(c)
RMM:   1    -0.413156108697E+03    0.82497E-02   -0.10864E+01  4235   0.703E-01    0.883E-01
RMM:   2    -0.413166336832E+03   -0.10228E-01   -0.13390E-01  4097   0.955E-02    0.641E-01
RMM:   3    -0.413164666524E+03    0.16703E-02   -0.71632E-03  4806   0.365E-02    0.146E-01
RMM:   4    -0.413185506124E+03   -0.20840E-01   -0.21132E-02  5165   0.122E-01    0.605E-01
RMM:   5    -0.413164345820E+03    0.21160E-01   -0.10336E-02  4832   0.100E-01    0.329E-02
RMM:   6    -0.413164478886E+03   -0.13307E-03   -0.16423E-03  5858   0.390E-02    0.184E-02
RMM:   7    -0.413164496050E+03   -0.17164E-04   -0.16690E-04  5684   0.115E-02    0.993E-03
RMM:   8    -0.413164504586E+03   -0.85359E-05   -0.32849E-05  4732   0.547E-03    0.716E-03
RMM:   9    -0.413164507020E+03   -0.24342E-05   -0.77884E-06  3357   0.317E-03    0.523E-03
RMM:  10    -0.413164510917E+03   -0.38972E-05   -0.14708E-06  2557   0.194E-03    0.353E-03
RMM:  11    -0.413164518491E+03   -0.75736E-05   -0.21150E-06  2608   0.213E-03    0.170E-03
RMM:  12    -0.413164523010E+03   -0.45188E-05   -0.10139E-06  2489   0.155E-03    0.744E-04
RMM:  13    -0.413164523235E+03   -0.22501E-06   -0.28245E-07  1993   0.915E-04
    5 T=    61. E= -.41286638E+03 F= -.41316452E+03 E0= -.41314205E+03  EK= 0.29814E+00 SP= 0.00E+00 SK= 0.00E+00
       N       E                     dE             d eps       ncg     rms          rms(c)
RMM:   1    -0.413157013604E+03    0.75094E-02   -0.10906E+01  4248   0.705E-01    0.905E-01
RMM:   2    -0.413166496432E+03   -0.94828E-02   -0.13131E-01  4046   0.968E-02    0.637E-01
RMM:   3    -0.413165239332E+03    0.12571E-02   -0.74240E-03  4792   0.381E-02    0.154E-01
RMM:   4    -0.413189085296E+03   -0.23846E-01   -0.24161E-02  5165   0.130E-01    0.646E-01
RMM:   5    -0.413164857973E+03    0.24227E-01   -0.11899E-02  4829   0.107E-01    0.367E-02
RMM:   6    -0.413165009118E+03   -0.15115E-03   -0.18952E-03  5800   0.422E-02    0.222E-02
RMM:   7    -0.413165015347E+03   -0.62290E-05   -0.25242E-04  5837   0.138E-02    0.147E-02
RMM:   8    -0.413165014835E+03    0.51173E-06   -0.38022E-05  4750   0.615E-03    0.728E-03
RMM:   9    -0.413165014131E+03    0.70396E-06   -0.80959E-06  3324   0.324E-03
    6 T=    61. E= -.41286663E+03 F= -.41316501E+03 E0= -.41314255E+03  EK= 0.29838E+00 SP= 0.00E+00 SK= 0.00E+00
       N       E                     dE             d eps       ncg     rms          rms(c)
RMM:   1    -0.413156779940E+03    0.82349E-02   -0.10847E+01  4274   0.710E-01    0.901E-01
RMM:   2    -0.413165997917E+03   -0.92180E-02   -0.13047E-01  4305   0.979E-02    0.630E-01
RMM:   3    -0.413170883592E+03   -0.48857E-02   -0.12459E-02  5166   0.800E-02    0.365E-01
RMM:   4    -0.413185097480E+03   -0.14214E-01   -0.35106E-02  5089   0.160E-01    0.598E-01
RMM:   5    -0.413164731266E+03    0.20366E-01   -0.77467E-03  4683   0.993E-02    0.539E-02
RMM:   6    -0.413164699956E+03    0.31311E-04   -0.13953E-03  5410   0.376E-02    0.219E-02
RMM:   7    -0.413164715236E+03   -0.15281E-04   -0.24403E-04  6008   0.148E-02    0.142E-02
RMM:   8    -0.413164714928E+03    0.30798E-06   -0.41198E-05  5172   0.688E-03    0.669E-03
RMM:   9    -0.413164712753E+03    0.21757E-05   -0.89962E-06  3493   0.378E-03    0.356E-03
RMM:  10    -0.413164712921E+03   -0.16811E-06   -0.12611E-06  2527   0.193E-03
    7 T=    61. E= -.41286626E+03 F= -.41316471E+03 E0= -.41314227E+03  EK= 0.29845E+00 SP= 0.00E+00 SK= 0.00E+00
       N       E                     dE             d eps       ncg     rms          rms(c)
RMM:   1    -0.413156904713E+03    0.78080E-02   -0.10846E+01  4268   0.713E-01    0.882E-01
RMM:   2    -0.413167113967E+03   -0.10209E-01   -0.13314E-01  4088   0.952E-02    0.638E-01
RMM:   3    -0.413165569235E+03    0.15447E-02   -0.72334E-03  4890   0.385E-02    0.153E-01
RMM:   4    -0.413194197969E+03   -0.28629E-01   -0.29235E-02  5157   0.142E-01    0.705E-01
RMM:   5    -0.413165144025E+03    0.29054E-01   -0.14255E-02  4821   0.118E-01    0.388E-02
RMM:   6    -0.413165317581E+03   -0.17356E-03   -0.22099E-03  5772   0.462E-02    0.216E-02
RMM:   7    -0.413165332380E+03   -0.14799E-04   -0.29476E-04  5902   0.145E-02    0.145E-02
RMM:   8    -0.413165336588E+03   -0.42083E-05   -0.39713E-05  4744   0.608E-03    0.702E-03
RMM:   9    -0.413165339259E+03   -0.26711E-05   -0.88796E-06  3331   0.324E-03    0.490E-03
RMM:  10    -0.413165342641E+03   -0.33818E-05   -0.16140E-06  2545   0.188E-03    0.313E-03
RMM:  11    -0.413165347178E+03   -0.45364E-05   -0.14497E-06  2550   0.177E-03    0.137E-03
RMM:  12    -0.413165350131E+03   -0.29530E-05   -0.92513E-07  2452   0.140E-03    0.509E-04
RMM:  13    -0.413165350386E+03   -0.25528E-06   -0.29585E-07  1906   0.900E-04
    8 T=    61. E= -.41286649E+03 F= -.41316535E+03 E0= -.41314292E+03  EK= 0.29886E+00 SP= 0.00E+00 SK= 0.00E+00
       N       E                     dE             d eps       ncg     rms          rms(c)
RMM:   1    -0.413157352108E+03    0.79980E-02   -0.10908E+01  4285   0.718E-01    0.900E-01
RMM:   2    -0.413167040418E+03   -0.96883E-02   -0.13235E-01  4167   0.995E-02    0.640E-01
RMM:   3    -0.413165724301E+03    0.13161E-02   -0.74290E-03  4807   0.388E-02    0.154E-01
RMM:   4    -0.413191378235E+03   -0.25654E-01   -0.26120E-02  5154   0.135E-01    0.669E-01
RMM:   5    -0.413165286501E+03    0.26092E-01   -0.12839E-02  4816   0.111E-01    0.369E-02
RMM:   6    -0.413165445457E+03   -0.15896E-03   -0.19952E-03  5801   0.436E-02    0.218E-02
RMM:   7    -0.413165454735E+03   -0.92780E-05   -0.26544E-04  5855   0.142E-02    0.147E-02
RMM:   8    -0.413165455221E+03   -0.48554E-06   -0.41912E-05  4829   0.640E-03    0.766E-03
RMM:   9    -0.413165454326E+03    0.89460E-06   -0.88114E-06  3400   0.338E-03
    9 T=    61. E= -.41286637E+03 F= -.41316545E+03 E0= -.41314305E+03  EK= 0.29909E+00 SP= 0.00E+00 SK= 0.00E+00
       N       E                     dE             d eps       ncg     rms          rms(c)
RMM:   1    -0.413157846141E+03    0.76091E-02   -0.10888E+01  4294   0.729E-01    0.908E-01
RMM:   2    -0.413166776774E+03   -0.89306E-02   -0.13054E-01  4329   0.977E-02    0.632E-01
RMM:   3    -0.413171882869E+03   -0.51061E-02   -0.12805E-02  5151   0.818E-02    0.371E-01
RMM:   4    -0.413185120660E+03   -0.13238E-01   -0.34583E-02  5080   0.159E-01    0.588E-01
RMM:   5    -0.413165564079E+03    0.19557E-01   -0.73754E-03  4666   0.978E-02    0.528E-02
RMM:   6    -0.413165540679E+03    0.23399E-04   -0.13622E-03  5421   0.366E-02    0.222E-02
RMM:   7    -0.413165553355E+03   -0.12676E-04   -0.23127E-04  6001   0.145E-02    0.142E-02
RMM:   8    -0.413165551477E+03    0.18778E-05   -0.40670E-05  5150   0.686E-03    0.660E-03
RMM:   9    -0.413165547066E+03    0.44110E-05   -0.84489E-06  3427   0.371E-03    0.348E-03
RMM:  10    -0.413165546376E+03    0.69053E-06   -0.12240E-06  2518   0.191E-03
   10 T=    61. E= -.41286628E+03 F= -.41316555E+03 E0= -.41314316E+03  EK= 0.29927E+00 SP= 0.00E+00 SK= 0.00E+00
       N       E                     dE             d eps       ncg     rms          rms(c)
RMM:   1    -0.413157942344E+03    0.76047E-02   -0.10833E+01  4297   0.725E-01    0.883E-01
RMM:   2    -0.413168053200E+03   -0.10111E-01   -0.13216E-01  4196   0.966E-02    0.635E-01
RMM:   3    -0.413166693306E+03    0.13599E-02   -0.72302E-03  4902   0.417E-02    0.158E-01
RMM:   4    -0.413198453835E+03   -0.31761E-01   -0.32664E-02  5150   0.150E-01    0.742E-01
RMM:   5    -0.413166110414E+03    0.32343E-01   -0.15847E-02  4813   0.124E-01    0.408E-02
RMM:   6    -0.413166295779E+03   -0.18537E-03   -0.24573E-03  5773   0.486E-02    0.224E-02
RMM:   7    -0.413166308379E+03   -0.12599E-04   -0.32359E-04  5921   0.152E-02    0.153E-02
RMM:   8    -0.413166309774E+03   -0.13953E-05   -0.44157E-05  4870   0.644E-03    0.755E-03
RMM:   9    -0.413166310009E+03   -0.23460E-06   -0.99857E-06  3446   0.342E-03
   11 T=    61. E= -.41286658E+03 F= -.41316631E+03 E0= -.41314395E+03  EK= 0.29973E+00 SP= 0.00E+00 SK= 0.00E+00
       N       E                     dE             d eps       ncg     rms          rms(c)
RMM:   1    -0.413158033447E+03    0.82763E-02   -0.10913E+01  4301   0.731E-01    0.895E-01
RMM:   2    -0.413167939393E+03   -0.99059E-02   -0.13361E-01  4319   0.984E-02    0.643E-01
RMM:   3    -0.413172385755E+03   -0.44464E-02   -0.12331E-02  5148   0.802E-02    0.362E-01
RMM:   4    -0.413190053651E+03   -0.17668E-01   -0.39508E-02  5083   0.169E-01    0.643E-01
RMM:   5    -0.413166198495E+03    0.23855E-01   -0.92179E-03  4683   0.106E-01    0.546E-02
RMM:   6    -0.413166194465E+03    0.40299E-05   -0.16535E-03  5458   0.402E-02    0.209E-02
RMM:   7    -0.413166214636E+03   -0.20172E-04   -0.26773E-04  6014   0.152E-02    0.141E-02
RMM:   8    -0.413166217152E+03   -0.25160E-05   -0.44638E-05  5215   0.699E-03    0.690E-03
RMM:   9    -0.413166217803E+03   -0.65030E-06   -0.94649E-06  3480   0.384E-03
   12 T=    61. E= -.41286626E+03 F= -.41316622E+03 E0= -.41314389E+03  EK= 0.29996E+00 SP= 0.00E+00 SK= 0.00E+00
       N       E                     dE             d eps       ncg     rms          rms(c)
RMM:   1    -0.413161790785E+03    0.44264E-02   -0.10950E+01  4301   0.766E-01    0.913E-01
RMM:   2    -0.413168052681E+03   -0.62619E-02   -0.13463E-01  4239   0.972E-02    0.634E-01
RMM:   3    -0.413167021699E+03    0.10310E-02   -0.75010E-03  4827   0.346E-02    0.159E-01
RMM:   4    -0.413186954796E+03   -0.19933E-01   -0.20251E-02  5151   0.119E-01    0.591E-01
RMM:   5    -0.413166730385E+03    0.20224E-01   -0.10011E-02  4821   0.979E-02    0.348E-02
RMM:   6    -0.413166839958E+03   -0.10957E-03   -0.15519E-03  5855   0.377E-02    0.197E-02
RMM:   7    -0.413166843299E+03   -0.33404E-05   -0.15716E-04  5596   0.114E-02    0.962E-03
RMM:   8    -0.413166840142E+03    0.31572E-05   -0.27248E-05  4510   0.506E-03    0.661E-03
RMM:   9    -0.413166836751E+03    0.33902E-05   -0.45053E-06  2848   0.255E-03    0.455E-03
RMM:  10    -0.413166835943E+03    0.80874E-06   -0.11530E-06  2514   0.165E-03
   13 T=    61. E= -.41286643E+03 F= -.41316684E+03 E0= -.41314454E+03  EK= 0.30040E+00 SP= 0.00E+00 SK= 0.00E+00
       N       E                     dE             d eps       ncg     rms          rms(c)
RMM:   1    -0.413159208457E+03    0.76283E-02   -0.10836E+01  4301   0.735E-01    0.887E-01
RMM:   2    -0.413169018194E+03   -0.98097E-02   -0.13208E-01  4250   0.952E-02    0.634E-01
RMM:   3    -0.413168083235E+03    0.93496E-03   -0.75375E-03  4983   0.428E-02    0.175E-01
RMM:   4    -0.413208509415E+03   -0.40426E-01   -0.42943E-02  5145   0.172E-01    0.836E-01
RMM:   5    -0.413167227652E+03    0.41282E-01   -0.19990E-02  4797   0.140E-01    0.469E-02
RMM:   6    -0.413167431739E+03   -0.20409E-03   -0.31368E-03  5739   0.548E-02    0.231E-02
RMM:   7    -0.413167448234E+03   -0.16496E-04   -0.40169E-04  5950   0.166E-02    0.161E-02
RMM:   8    -0.413167447469E+03    0.76556E-06   -0.51547E-05  4960   0.680E-03    0.786E-03
RMM:   9    -0.413167445215E+03    0.22537E-05   -0.11772E-05  3557   0.358E-03    0.511E-03
RMM:  10    -0.413167444729E+03    0.48646E-06   -0.21879E-06  2567   0.207E-03
   14 T=    61. E= -.41286649E+03 F= -.41316744E+03 E0= -.41314518E+03  EK= 0.30096E+00 SP= 0.00E+00 SK= 0.00E+00
       N       E                     dE             d eps       ncg     rms          rms(c)
RMM:   1    -0.413159835641E+03    0.76096E-02   -0.10932E+01  4305   0.762E-01    0.891E-01
RMM:   2    -0.413169567985E+03   -0.97323E-02   -0.13538E-01  4288   0.998E-02    0.645E-01
RMM:   3    -0.413170703117E+03   -0.11351E-02   -0.98075E-03  5124   0.641E-02    0.279E-01
RMM:   4    -0.413203943699E+03   -0.33241E-01   -0.47514E-02  5108   0.183E-01    0.789E-01
RMM:   5    -0.413167377137E+03    0.36567E-01   -0.15758E-02  4737   0.130E-01    0.530E-02
RMM:   6    -0.413167486870E+03   -0.10973E-03   -0.25888E-03  5638   0.503E-02    0.204E-02
RMM:   7    -0.413167511063E+03   -0.24193E-04   -0.34838E-04  6022   0.158E-02    0.147E-02
RMM:   8    -0.413167513987E+03   -0.29236E-05   -0.54013E-05  5208   0.725E-03    0.748E-03
RMM:   9    -0.413167513323E+03    0.66416E-06   -0.98036E-06  3307   0.354E-03
   15 T=    61. E= -.41286610E+03 F= -.41316751E+03 E0= -.41314528E+03  EK= 0.30142E+00 SP= 0.00E+00 SK= 0.00E+00
       N       E                     dE             d eps       ncg     rms          rms(c)
RMM:   1    -0.413160857649E+03    0.66563E-02   -0.10959E+01  4300   0.749E-01    0.915E-01
RMM:   2    -0.413169885745E+03   -0.90281E-02   -0.13165E-01  4258   0.991E-02    0.637E-01
RMM:   3    -0.413169107336E+03    0.77841E-03   -0.79784E-03  4976   0.432E-02    0.177E-01
RMM:   4    -0.413208450590E+03   -0.39343E-01   -0.41539E-02  5143   0.169E-01    0.825E-01
RMM:   5    -0.413168299264E+03    0.40151E-01   -0.19501E-02  4804   0.138E-01    0.466E-02
RMM:   6    -0.413168502379E+03   -0.20312E-03   -0.30699E-03  5807   0.543E-02    0.249E-02
RMM:   7    -0.413168511363E+03   -0.89845E-05   -0.40068E-04  5955   0.168E-02    0.171E-02
RMM:   8    -0.413168506707E+03    0.46558E-05   -0.54298E-05  5052   0.712E-03    0.860E-03
RMM:   9    -0.413168501035E+03    0.56727E-05   -0.12071E-05  3646   0.371E-03    0.561E-03
RMM:  10    -0.413168497416E+03    0.36185E-05   -0.21223E-06  2564   0.208E-03    0.350E-03
RMM:  11    -0.413168493238E+03    0.41786E-05   -0.14486E-06  2532   0.184E-03    0.160E-03
RMM:  12    -0.413168488904E+03    0.43340E-05   -0.99654E-07  2495   0.154E-03    0.494E-04
RMM:  13    -0.413168487908E+03    0.99566E-06   -0.35923E-07  2128   0.102E-03
   16 T=    62. E= -.41286635E+03 F= -.41316849E+03 E0= -.41314629E+03  EK= 0.30214E+00 SP= 0.00E+00 SK= 0.00E+00
       N       E                     dE             d eps       ncg     rms          rms(c)
RMM:   1    -0.413160789387E+03    0.76995E-02   -0.10871E+01  4298   0.747E-01    0.894E-01
RMM:   2    -0.413170590335E+03   -0.98009E-02   -0.13232E-01  4261   0.978E-02    0.634E-01
RMM:   3    -0.413169262679E+03    0.13277E-02   -0.74534E-03  4900   0.421E-02    0.165E-01
RMM:   4    -0.413203010313E+03   -0.33748E-01   -0.34830E-02  5139   0.155E-01    0.764E-01
RMM:   5    -0.413168729998E+03    0.34280E-01   -0.16857E-02  4805   0.128E-01    0.415E-02
RMM:   6    -0.413168914995E+03   -0.18500E-03   -0.26283E-03  5779   0.502E-02    0.237E-02
RMM:   7    -0.413168923255E+03   -0.82597E-05   -0.33641E-04  5876   0.158E-02    0.162E-02
RMM:   8    -0.413168920071E+03    0.31837E-05   -0.53148E-05  5006   0.706E-03    0.881E-03
RMM:   9    -0.413168915091E+03    0.49798E-05   -0.11350E-05  3649   0.375E-03    0.592E-03
RMM:  10    -0.413168912613E+03    0.24785E-05   -0.19433E-06  2565   0.205E-03    0.372E-03
RMM:  11    -0.413168909338E+03    0.32753E-05   -0.17803E-06  2560   0.202E-03    0.166E-03
RMM:  12    -0.413168906465E+03    0.28728E-05   -0.94754E-07  2479   0.157E-03    0.589E-04
RMM:  13    -0.413168906014E+03    0.45044E-06   -0.33353E-07  2092   0.991E-04
   17 T=    62. E= -.41286623E+03 F= -.41316891E+03 E0= -.41314675E+03  EK= 0.30268E+00 SP= 0.00E+00 SK= 0.00E+00
       N       E                     dE             d eps       ncg     rms          rms(c)
RMM:   1    -0.413165073621E+03    0.38328E-02   -0.10983E+01  4300   0.785E-01    0.888E-01
RMM:   2    -0.413171575503E+03   -0.65019E-02   -0.14563E-01  4274   0.104E-01    0.647E-01
RMM:   3    -0.413169814104E+03    0.17614E-02   -0.71410E-03  4870   0.395E-02    0.168E-01
RMM:   4    -0.413201157012E+03   -0.31343E-01   -0.32338E-02  5146   0.149E-01    0.737E-01
RMM:   5    -0.413169253274E+03    0.31904E-01   -0.15790E-02  4808   0.123E-01    0.395E-02
RMM:   6    -0.413169429980E+03   -0.17671E-03   -0.24301E-03  5790   0.482E-02    0.225E-02
RMM:   7    -0.413169440859E+03   -0.10879E-04   -0.30515E-04  5867   0.152E-02    0.153E-02
RMM:   8    -0.413169441144E+03   -0.28571E-06   -0.51298E-05  4967   0.695E-03    0.843E-03
RMM:   9    -0.413169438905E+03    0.22399E-05   -0.11257E-05  3676   0.377E-03    0.567E-03
RMM:  10    -0.413169439254E+03   -0.34956E-06   -0.18694E-06  2558   0.203E-03
   18 T=    62. E= -.41286615E+03 F= -.41316944E+03 E0= -.41314732E+03  EK= 0.30329E+00 SP= 0.00E+00 SK= 0.00E+00
       N       E                     dE             d eps       ncg     rms          rms(c)
RMM:   1    -0.413162850859E+03    0.65880E-02   -0.10989E+01  4306   0.758E-01    0.914E-01
RMM:   2    -0.413172110155E+03   -0.92593E-02   -0.13324E-01  4306   0.984E-02    0.641E-01
RMM:   3    -0.413173590339E+03   -0.14802E-02   -0.98763E-03  5097   0.637E-02    0.272E-01
RMM:   4    -0.413205307169E+03   -0.31717E-01   -0.44865E-02  5102   0.177E-01    0.771E-01
RMM:   5    -0.413170515655E+03    0.34792E-01   -0.15162E-02  4743   0.128E-01    0.521E-02
RMM:   6    -0.413170624040E+03   -0.10838E-03   -0.24969E-03  5633   0.496E-02    0.224E-02
RMM:   7    -0.413170640199E+03   -0.16159E-04   -0.33960E-04  5996   0.156E-02    0.154E-02
RMM:   8    -0.413170637046E+03    0.31529E-05   -0.53056E-05  5189   0.732E-03    0.751E-03
RMM:   9    -0.413170630063E+03    0.69836E-05   -0.96681E-06  3322   0.355E-03    0.333E-03
RMM:  10    -0.413170627230E+03    0.28327E-05   -0.21780E-06  2565   0.206E-03    0.223E-03
RMM:  11    -0.413170623252E+03    0.39780E-05   -0.10432E-06  2511   0.158E-03    0.118E-03
RMM:  12    -0.413170619794E+03    0.34584E-05   -0.56797E-07  2312   0.121E-03    0.417E-04
RMM:  13    -0.413170617953E+03    0.18411E-05   -0.29147E-07  1883   0.893E-04    0.230E-04
RMM:  14    -0.413170616387E+03    0.15659E-05   -0.18004E-07  1417   0.748E-04    0.151E-04
RMM:  15    -0.413170612918E+03    0.34690E-05   -0.21583E-07  1579   0.773E-04    0.115E-04
RMM:  16    -0.413170611742E+03    0.11753E-05   -0.10136E-07  1170   0.638E-04    0.855E-05
RMM:  17    -0.413170608997E+03    0.27456E-05   -0.11970E-07  1406   0.666E-04    0.610E-05
RMM:  18    -0.413170607584E+03    0.14134E-05   -0.64146E-08  1005   0.568E-04    0.380E-05
RMM:  19    -0.413170607331E+03    0.25217E-06   -0.31767E-08   822   0.530E-04
   19 T=    62. E= -.41286649E+03 F= -.41317061E+03 E0= -.41314853E+03  EK= 0.30412E+00 SP= 0.00E+00 SK= 0.00E+00
       N       E                     dE             d eps       ncg     rms          rms(c)
RMM:   1    -0.413163157002E+03    0.74506E-02   -0.10926E+01  4298   0.764E-01    0.903E-01
RMM:   2    -0.413172565092E+03   -0.94081E-02   -0.13228E-01  4273   0.997E-02    0.635E-01
RMM:   3    -0.413171618579E+03    0.94651E-03   -0.77334E-03  4949   0.430E-02    0.176E-01
RMM:   4    -0.413210764566E+03   -0.39146E-01   -0.41428E-02  5142   0.169E-01    0.822E-01
RMM:   5    -0.413170842810E+03    0.39922E-01   -0.19561E-02  4799   0.138E-01    0.456E-02
RMM:   6    -0.413171042533E+03   -0.19972E-03   -0.30371E-03  5746   0.543E-02    0.251E-02
RMM:   7    -0.413171050219E+03   -0.76863E-05   -0.39305E-04  5879   0.169E-02    0.173E-02
RMM:   8    -0.413171044986E+03    0.52333E-05   -0.59201E-05  5120   0.744E-03    0.919E-03
RMM:   9    -0.413171038336E+03    0.66503E-05   -0.12593E-05  3764   0.388E-03    0.588E-03
RMM:  10    -0.413171034484E+03    0.38516E-05   -0.21854E-06  2575   0.211E-03    0.369E-03
RMM:  11    -0.413171030285E+03    0.41988E-05   -0.14447E-06  2519   0.188E-03    0.171E-03
RMM:  12    -0.413171026351E+03    0.39347E-05   -0.93128E-07  2475   0.156E-03    0.523E-04
RMM:  13    -0.413171025574E+03    0.77720E-06   -0.35632E-07  2146   0.104E-03
   20 T=    62. E= -.41286628E+03 F= -.41317103E+03 E0= -.41314899E+03  EK= 0.30475E+00 SP= 0.00E+00 SK= 0.00E+00
       N       E                     dE             d eps       ncg     rms          rms(c)
RMM:   1    -0.413164122807E+03    0.69035E-02   -0.10963E+01  4301   0.777E-01    0.889E-01
RMM:   2    -0.413174141083E+03   -0.10018E-01   -0.13600E-01  4278   0.101E-01    0.646E-01
RMM:   3    -0.413172488434E+03    0.16526E-02   -0.75488E-03  4895   0.414E-02    0.159E-01
RMM:   4    -0.413206156388E+03   -0.33668E-01   -0.34983E-02  5139   0.155E-01    0.763E-01
RMM:   5    -0.413171886308E+03    0.34270E-01   -0.16961E-02  4803   0.128E-01    0.410E-02
RMM:   6    -0.413172072788E+03   -0.18648E-03   -0.26537E-03  5784   0.504E-02    0.232E-02
RMM:   7    -0.413172085057E+03   -0.12269E-04   -0.33180E-04  5870   0.158E-02    0.158E-02
RMM:   8    -0.413172084557E+03    0.49960E-06   -0.55819E-05  5016   0.722E-03    0.897E-03
RMM:   9    -0.413172080963E+03    0.35946E-05   -0.12151E-05  3777   0.389E-03    0.600E-03
RMM:  10    -0.413172080214E+03    0.74891E-06   -0.20677E-06  2575   0.210E-03
   21 T=    62. E= -.41286638E+03 F= -.41317208E+03 E0= -.41315009E+03  EK= 0.30570E+00 SP= 0.00E+00 SK= 0.00E+00
       N       E                     dE             d eps       ncg     rms          rms(c)
RMM:   1    -0.413165335568E+03    0.67454E-02   -0.11030E+01  4300   0.771E-01    0.911E-01
RMM:   2    -0.413174924502E+03   -0.95889E-02   -0.13465E-01  4307   0.992E-02    0.646E-01
RMM:   3    -0.413176395169E+03   -0.14707E-02   -0.10131E-02  5087   0.658E-02    0.280E-01
RMM:   4    -0.413208068771E+03   -0.31674E-01   -0.45901E-02  5106   0.179E-01    0.773E-01
RMM:   5    -0.413173076614E+03    0.34992E-01   -0.15197E-02  4730   0.128E-01    0.522E-02
RMM:   6    -0.413173181832E+03   -0.10522E-03   -0.25457E-03  5633   0.501E-02    0.223E-02
RMM:   7    -0.413173196706E+03   -0.14874E-04   -0.34011E-04  5998   0.157E-02    0.154E-02
RMM:   8    -0.413173193328E+03    0.33779E-05   -0.53636E-05  5191   0.736E-03    0.751E-03
RMM:   9    -0.413173186309E+03    0.70194E-05   -0.99933E-06  3358   0.356E-03    0.334E-03
RMM:  10    -0.413173183578E+03    0.27307E-05   -0.21756E-06  2568   0.206E-03    0.224E-03
RMM:  11    -0.413173179605E+03    0.39730E-05   -0.10348E-06  2506   0.159E-03    0.119E-03
RMM:  12    -0.413173176149E+03    0.34566E-05   -0.55202E-07  2319   0.120E-03    0.399E-04
RMM:  13    -0.413173174192E+03    0.19568E-05   -0.27767E-07  1848   0.880E-04    0.213E-04
RMM:  14    -0.413173171816E+03    0.23758E-05   -0.19248E-07  1476   0.763E-04    0.122E-04
RMM:  15    -0.413173169025E+03    0.27913E-05   -0.16401E-07  1479   0.729E-04    0.101E-04
RMM:  16    -0.413173167677E+03    0.13482E-05   -0.97533E-08  1215   0.638E-04    0.799E-05
RMM:  17    -0.413173164777E+03    0.29001E-05   -0.10584E-07  1342   0.649E-04    0.448E-05
RMM:  18    -0.413173163716E+03    0.10605E-05   -0.52509E-08   969   0.560E-04    0.317E-05
RMM:  19    -0.413173163096E+03    0.61961E-06   -0.28561E-08   821   0.533E-04
   22 T=    62. E= -.41286639E+03 F= -.41317316E+03 E0= -.41315122E+03  EK= 0.30677E+00 SP= 0.00E+00 SK= 0.00E+00
       N       E                     dE             d eps       ncg     rms          rms(c)
RMM:   1    -0.413168057689E+03    0.51060E-02   -0.11030E+01  4298   0.804E-01    0.913E-01
RMM:   2    -0.413175415524E+03   -0.73578E-02   -0.13448E-01  4279   0.107E-01    0.639E-01
RMM:   3    -0.413174310495E+03    0.11050E-02   -0.79098E-03  4868   0.450E-02    0.171E-01
RMM:   4    -0.413209721012E+03   -0.35411E-01   -0.36768E-02  5140   0.159E-01    0.782E-01
RMM:   5    -0.413173672280E+03    0.36049E-01   -0.17758E-02  4794   0.131E-01    0.438E-02
RMM:   6    -0.413173865762E+03   -0.19348E-03   -0.28708E-03  5783   0.517E-02    0.255E-02
RMM:   7    -0.413173871810E+03   -0.60471E-05   -0.35366E-04  5820   0.165E-02    0.171E-02
RMM:   8    -0.413173865492E+03    0.63179E-05   -0.59516E-05  5057   0.753E-03    0.949E-03
RMM:   9    -0.413173857235E+03    0.82567E-05   -0.12621E-05  3835   0.397E-03    0.636E-03
RMM:  10    -0.413173852053E+03    0.51815E-05   -0.21005E-06  2585   0.213E-03    0.404E-03
RMM:  11    -0.413173845500E+03    0.65537E-05   -0.17911E-06  2541   0.209E-03    0.178E-03
RMM:  12    -0.413173840056E+03    0.54441E-05   -0.94705E-07  2471   0.163E-03    0.593E-04
RMM:  13    -0.413173839226E+03    0.82977E-06   -0.34560E-07  2155   0.103E-03
   23 T=    63. E= -.41286606E+03 F= -.41317384E+03 E0= -.41315194E+03  EK= 0.30778E+00 SP= 0.00E+00 SK= 0.00E+00
       N       E                     dE             d eps       ncg     rms          rms(c)
RMM:   1    -0.413167722799E+03    0.61173E-02   -0.11009E+01  4296   0.793E-01    0.893E-01
RMM:   2    -0.413177572582E+03   -0.98498E-02   -0.13644E-01  4279   0.103E-01    0.646E-01
RMM:   3    -0.413175652076E+03    0.19205E-02   -0.75314E-03  4787   0.426E-02    0.155E-01
RMM:   4    -0.413203067403E+03   -0.27415E-01   -0.28031E-02  5146   0.139E-01    0.690E-01
RMM:   5    -0.413175248841E+03    0.27819E-01   -0.13831E-02  4805   0.115E-01    0.381E-02
RMM:   6    -0.413175398496E+03   -0.14966E-03   -0.21919E-03  5808   0.448E-02    0.223E-02
RMM:   7    -0.413175406656E+03   -0.81593E-05   -0.25176E-04  5835   0.144E-02    0.137E-02
RMM:   8    -0.413175405150E+03    0.15056E-05   -0.51356E-05  4981   0.693E-03    0.870E-03
RMM:   9    -0.413175399659E+03    0.54908E-05   -0.11647E-05  3870   0.388E-03    0.596E-03
RMM:  10    -0.413175397758E+03    0.19016E-05   -0.17019E-06  2547   0.206E-03    0.387E-03
RMM:  11    -0.413175394658E+03    0.30994E-05   -0.20782E-06  2584   0.219E-03    0.174E-03
RMM:  12    -0.413175391954E+03    0.27047E-05   -0.86291E-07  2475   0.157E-03    0.603E-04
RMM:  13    -0.413175391575E+03    0.37899E-06   -0.29940E-07  2061   0.951E-04
   24 T=    63. E= -.41286630E+03 F= -.41317539E+03 E0= -.41315354E+03  EK= 0.30909E+00 SP= 0.00E+00 SK= 0.00E+00
       N       E                     dE             d eps       ncg     rms          rms(c)
RMM:   1    -0.413168405793E+03    0.69862E-02   -0.11099E+01  4297   0.794E-01    0.908E-01
RMM:   2    -0.413178489016E+03   -0.10083E-01   -0.13653E-01  4280   0.106E-01    0.651E-01
RMM:   3    -0.413176681935E+03    0.18071E-02   -0.76912E-03  4736   0.430E-02    0.154E-01
RMM:   4    -0.413201206566E+03   -0.24525E-01   -0.25006E-02  5145   0.132E-01    0.654E-01
RMM:   5    -0.413176281562E+03    0.24925E-01   -0.12368E-02  4811   0.109E-01    0.372E-02
RMM:   6    -0.413176412576E+03   -0.13101E-03   -0.19619E-03  5811   0.421E-02    0.220E-02
RMM:   7    -0.413176416814E+03   -0.42378E-05   -0.21844E-04  5775   0.136E-02    0.126E-02
RMM:   8    -0.413176414316E+03    0.24981E-05   -0.46789E-05  4957   0.666E-03    0.840E-03
RMM:   9    -0.413176408320E+03    0.59963E-05   -0.10998E-05  3848   0.379E-03    0.587E-03
RMM:  10    -0.413176405702E+03    0.26174E-05   -0.15600E-06  2543   0.203E-03    0.383E-03
RMM:  11    -0.413176401268E+03    0.44345E-05   -0.19263E-06  2566   0.215E-03    0.173E-03
RMM:  12    -0.413176397341E+03    0.39270E-05   -0.82139E-07  2461   0.154E-03    0.593E-04
RMM:  13    -0.413176396841E+03    0.49947E-06   -0.28427E-07  2017   0.935E-04
   25 T=    63. E= -.41286615E+03 F= -.41317640E+03 E0= -.41315460E+03  EK= 0.31025E+00 SP= 0.00E+00 SK= 0.00E+00
       N       E                     dE             d eps       ncg     rms          rms(c)
RMM:   1    -0.413173919039E+03    0.24783E-02   -0.11154E+01  4296   0.829E-01    0.923E-01
RMM:   2    -0.413179178830E+03   -0.52598E-02   -0.13346E-01  4281   0.107E-01    0.644E-01
RMM:   3    -0.413177849343E+03    0.13295E-02   -0.80082E-03  4687   0.433E-02    0.155E-01
RMM:   4    -0.413198937917E+03   -0.21089E-01   -0.21358E-02  5147   0.122E-01    0.607E-01
RMM:   5    -0.413177596331E+03    0.21342E-01   -0.10622E-02  4814   0.101E-01    0.370E-02
RMM:   6    -0.413177701788E+03   -0.10546E-03   -0.16852E-03  5812   0.388E-02    0.220E-02
RMM:   7    -0.413177699524E+03    0.22641E-05   -0.17644E-04  5665   0.126E-02    0.109E-02
RMM:   8    -0.413177692765E+03    0.67587E-05   -0.33064E-05  4728   0.571E-03    0.738E-03
RMM:   9    -0.413177686534E+03    0.62315E-05   -0.80706E-06  3438   0.322E-03    0.564E-03
RMM:  10    -0.413177682434E+03    0.40996E-05   -0.14092E-06  2542   0.197E-03    0.375E-03
RMM:  11    -0.413177673434E+03    0.89997E-05   -0.18385E-06  2559   0.213E-03    0.169E-03
RMM:  12    -0.413177665903E+03    0.75319E-05   -0.82488E-07  2452   0.155E-03    0.776E-04
RMM:  13    -0.413177665528E+03    0.37434E-06   -0.25005E-07  2025   0.917E-04
   26 T=    63. E= -.41286614E+03 F= -.41317767E+03 E0= -.41315592E+03  EK= 0.31153E+00 SP= 0.00E+00 SK= 0.00E+00
       N       E                     dE             d eps       ncg     rms          rms(c)
RMM:   1    -0.413171361395E+03    0.63045E-02   -0.11068E+01  4296   0.798E-01    0.899E-01
RMM:   2    -0.413181326519E+03   -0.99651E-02   -0.13660E-01  4277   0.104E-01    0.646E-01
RMM:   3    -0.413179709208E+03    0.16173E-02   -0.76161E-03  4623   0.412E-02    0.150E-01
RMM:   4    -0.413195601546E+03   -0.15892E-01   -0.16248E-02  5148   0.106E-01    0.529E-01
RMM:   5    -0.413179480814E+03    0.16121E-01   -0.80791E-03  4822   0.874E-02    0.332E-02
RMM:   6    -0.413179550291E+03   -0.69477E-04   -0.12719E-03  5838   0.333E-02    0.198E-02
RMM:   7    -0.413179549412E+03    0.87874E-06   -0.13462E-04  5544   0.111E-02    0.906E-03
RMM:   8    -0.413179544272E+03    0.51408E-05   -0.22664E-05  4334   0.485E-03    0.592E-03
RMM:   9    -0.413179540475E+03    0.37967E-05   -0.27631E-06  2651   0.212E-03    0.401E-03
RMM:  10    -0.413179538894E+03    0.15814E-05   -0.88326E-07  2472   0.144E-03    0.301E-03
RMM:  11    -0.413179532565E+03    0.63281E-05   -0.14155E-06  2511   0.196E-03    0.143E-03
RMM:  12    -0.413179529879E+03    0.26868E-05   -0.53066E-07  2302   0.127E-03    0.704E-04
RMM:  13    -0.413179529557E+03    0.32150E-06   -0.19581E-07  1651   0.799E-04
   27 T=    64. E= -.41286646E+03 F= -.41317953E+03 E0= -.41315783E+03  EK= 0.31307E+00 SP= 0.00E+00 SK= 0.00E+00
       N       E                     dE             d eps       ncg     rms          rms(c)
RMM:   1    -0.413173367035E+03    0.61628E-02   -0.11191E+01  4294   0.832E-01    0.907E-01
RMM:   2    -0.413182669640E+03   -0.93026E-02   -0.14023E-01  4279   0.108E-01    0.657E-01
RMM:   3    -0.413180794519E+03    0.18751E-02   -0.78390E-03  4577   0.430E-02    0.149E-01
RMM:   4    -0.413195515699E+03   -0.14721E-01   -0.15077E-02  5153   0.104E-01    0.509E-01
RMM:   5    -0.413180595805E+03    0.14920E-01   -0.74254E-03  4819   0.839E-02    0.325E-02
RMM:   6    -0.413180655195E+03   -0.59390E-04   -0.11818E-03  5850   0.320E-02    0.196E-02
RMM:   7    -0.413180655714E+03   -0.51864E-06   -0.12983E-04  5541   0.110E-02    0.914E-03
RMM:   8    -0.413180650064E+03    0.56494E-05   -0.22402E-05  4404   0.487E-03    0.589E-03
RMM:   9    -0.413180649164E+03    0.90015E-06   -0.58948E-06  3109   0.288E-03
   28 T=    64. E= -.41286614E+03 F= -.41318065E+03 E0= -.41315900E+03  EK= 0.31451E+00 SP= 0.00E+00 SK= 0.00E+00
       N       E                     dE             d eps       ncg     rms          rms(c)
RMM:   1    -0.413187520198E+03   -0.68701E-02   -0.11357E+01  4297   0.893E-01    0.931E-01
RMM:   2    -0.413184305491E+03    0.32147E-02   -0.15039E-01  4328   0.114E-01    0.652E-01
RMM:   3    -0.413186908158E+03   -0.26027E-02   -0.11300E-02  5092   0.759E-02    0.321E-01
RMM:   4    -0.413213759806E+03   -0.26852E-01   -0.43273E-02  5088   0.176E-01    0.733E-01
RMM:   5    -0.413182711658E+03    0.31048E-01   -0.13144E-02  4726   0.122E-01    0.547E-02
RMM:   6    -0.413182764356E+03   -0.52699E-04   -0.22762E-03  5663   0.464E-02    0.245E-02
RMM:   7    -0.413182774059E+03   -0.97024E-05   -0.31811E-04  6015   0.159E-02    0.166E-02
RMM:   8    -0.413182766794E+03    0.72651E-05   -0.59625E-05  5185   0.803E-03    0.793E-03
RMM:   9    -0.413182754745E+03    0.12049E-04   -0.11005E-05  3582   0.396E-03    0.355E-03
RMM:  10    -0.413182750188E+03    0.45574E-05   -0.19780E-06  2559   0.207E-03    0.226E-03
RMM:  11    -0.413182741571E+03    0.86168E-05   -0.13726E-06  2534   0.179E-03    0.146E-03
RMM:  12    -0.413182736013E+03    0.55584E-05   -0.54202E-07  2420   0.128E-03    0.503E-04
RMM:  13    -0.413182732247E+03    0.37661E-05   -0.26276E-07  1770   0.871E-04    0.264E-04
RMM:  14    -0.413182728846E+03    0.34006E-05   -0.16324E-07  1416   0.743E-04    0.157E-04
RMM:  15    -0.413182723930E+03    0.49164E-05   -0.14630E-07  1525   0.727E-04    0.120E-04
RMM:  16    -0.413182719953E+03    0.39770E-05   -0.10593E-07  1313   0.654E-04    0.892E-05
RMM:  17    -0.413182715548E+03    0.44043E-05   -0.10199E-07  1366   0.644E-04    0.441E-05
RMM:  18    -0.413182713708E+03    0.18400E-05   -0.53919E-08   979   0.559E-04    0.363E-05
RMM:  19    -0.413182713217E+03    0.49175E-06   -0.28196E-08   798   0.527E-04
   29 T=    64. E= -.41286634E+03 F= -.41318271E+03 E0= -.41316112E+03  EK= 0.31637E+00 SP= 0.00E+00 SK= 0.00E+00
       N       E                     dE             d eps       ncg     rms          rms(c)
RMM:   1    -0.413180959418E+03    0.17543E-02   -0.11223E+01  4285   0.851E-01    0.909E-01
RMM:   2    -0.413186504410E+03   -0.55450E-02   -0.13800E-01  4273   0.110E-01    0.649E-01
RMM:   3    -0.413184680285E+03    0.18241E-02   -0.79837E-03  4484   0.461E-02    0.149E-01
RMM:   4    -0.413194615288E+03   -0.99350E-02   -0.10361E-02  5161   0.864E-02    0.420E-01
RMM:   5    -0.413184579274E+03    0.10036E-01   -0.50581E-03  4825   0.690E-02    0.315E-02
RMM:   6    -0.413184606899E+03   -0.27624E-04   -0.82053E-04  5839   0.268E-02    0.204E-02
RMM:   7    -0.413184607291E+03   -0.39255E-06   -0.15687E-04  5506   0.122E-02    0.125E-02
RMM:   8    -0.413184594783E+03    0.12509E-04   -0.23310E-05  4431   0.556E-03    0.529E-03
RMM:   9    -0.413184592196E+03    0.25863E-05   -0.43123E-06  2924   0.269E-03    0.414E-03
RMM:  10    -0.413184588630E+03    0.35665E-05   -0.91179E-07  2493   0.168E-03    0.252E-03
RMM:  11    -0.413184583962E+03    0.46680E-05   -0.68780E-07  2461   0.140E-03    0.121E-03
RMM:  12    -0.413184579835E+03    0.41269E-05   -0.42739E-07  2230   0.108E-03    0.484E-04
RMM:  13    -0.413184578385E+03    0.14500E-05   -0.17192E-07  1580   0.761E-04    0.229E-04
RMM:  14    -0.413184576729E+03    0.16557E-05   -0.96413E-08  1146   0.654E-04    0.137E-04
RMM:  15    -0.413184573137E+03    0.35920E-05   -0.95501E-08  1277   0.672E-04    0.118E-04
RMM:  16    -0.413184572631E+03    0.50598E-06   -0.40875E-08   873   0.583E-04
   30 T=    65. E= -.41286628E+03 F= -.41318457E+03 E0= -.41316303E+03  EK= 0.31830E+00 SP= 0.00E+00 SK= 0.00E+00
       N       E                     dE             d eps       ncg     rms          rms(c)
RMM:   1    -0.413188353581E+03   -0.37804E-02   -0.11407E+01  4289   0.912E-01    0.909E-01
RMM:   2    -0.413188941864E+03   -0.58828E-03   -0.15460E-01  4272   0.124E-01    0.665E-01
RMM:   3    -0.413186216166E+03    0.27257E-02   -0.77346E-03  4275   0.440E-02    0.160E-01
RMM:   4    -0.413188290576E+03   -0.20744E-02   -0.30747E-03  5093   0.465E-02    0.192E-01
RMM:   5    -0.413186229788E+03    0.20608E-02   -0.10152E-03  4797   0.319E-02    0.276E-02
RMM:   6    -0.413186228846E+03    0.94221E-06   -0.22995E-04  5647   0.155E-02    0.202E-02
RMM:   7    -0.413186221619E+03    0.72270E-05   -0.11003E-04  5022   0.101E-02    0.913E-03
RMM:   8    -0.413186216952E+03    0.46669E-05   -0.72947E-06  3295   0.367E-03    0.431E-03
RMM:   9    -0.413186215951E+03    0.10004E-05   -0.11219E-06  2495   0.174E-03    0.262E-03
RMM:  10    -0.413186212345E+03    0.36065E-05   -0.90591E-07  2457   0.145E-03    0.121E-03
RMM:  11    -0.413186210791E+03    0.15540E-05   -0.31981E-07  2003   0.947E-04    0.564E-04
RMM:  12    -0.413186208527E+03    0.22642E-05   -0.21712E-07  1618   0.800E-04    0.228E-04
RMM:  13    -0.413186206828E+03    0.16987E-05   -0.11251E-07  1150   0.667E-04    0.142E-04
RMM:  14    -0.413186204695E+03    0.21325E-05   -0.10067E-07  1233   0.661E-04    0.930E-05
RMM:  15    -0.413186202525E+03    0.21706E-05   -0.78058E-08  1166   0.622E-04    0.700E-05
RMM:  16    -0.413186201204E+03    0.13212E-05   -0.45357E-08   936   0.562E-04    0.461E-05
RMM:  17    -0.413186200065E+03    0.11386E-05   -0.29456E-08   794   0.536E-04    0.213E-05
RMM:  18    -0.413186199300E+03    0.76473E-06   -0.17102E-08   688   0.519E-04
   31 T=    65. E= -.41286591E+03 F= -.41318620E+03 E0= -.41316470E+03  EK= 0.32029E+00 SP= 0.00E+00 SK= 0.00E+00
       N       E                     dE             d eps       ncg     rms          rms(c)
RMM:   1    -0.413181520539E+03    0.46795E-02   -0.11386E+01  4289   0.858E-01    0.936E-01
RMM:   2    -0.413190701045E+03   -0.91805E-02   -0.14252E-01  4283   0.122E-01    0.659E-01
RMM:   3    -0.413188861485E+03    0.18396E-02   -0.84587E-03  4243   0.509E-02    0.153E-01
RMM:   4    -0.413189657839E+03   -0.79635E-03   -0.17123E-03  5037   0.350E-02    0.118E-01
RMM:   5    -0.413188910921E+03    0.74692E-03   -0.39109E-04  4763   0.203E-02    0.302E-02
RMM:   6    -0.413188904055E+03    0.68658E-05   -0.16900E-04  5429   0.134E-02    0.221E-02
RMM:   7    -0.413188883217E+03    0.20838E-04   -0.10997E-04  4818   0.101E-02    0.100E-02
RMM:   8    -0.413188879900E+03    0.33172E-05   -0.70277E-06  3212   0.354E-03    0.417E-03
RMM:   9    -0.413188878059E+03    0.18411E-05   -0.13315E-06  2448   0.175E-03    0.224E-03
RMM:  10    -0.413188869191E+03    0.88678E-05   -0.74849E-07  2333   0.134E-03    0.871E-04
RMM:  11    -0.413188864891E+03    0.43005E-05   -0.28144E-07  1847   0.867E-04    0.335E-04
RMM:  12    -0.413188861021E+03    0.38702E-05   -0.15744E-07  1513   0.738E-04    0.194E-04
RMM:  13    -0.413188857768E+03    0.32528E-05   -0.90180E-08  1155   0.653E-04    0.107E-04
RMM:  14    -0.413188852684E+03    0.50833E-05   -0.82745E-08  1236   0.652E-04    0.105E-04
RMM:  15    -0.413188849549E+03    0.31356E-05   -0.50591E-08  1024   0.580E-04    0.763E-05
RMM:  16    -0.413188846109E+03    0.34399E-05   -0.50406E-08  1055   0.573E-04    0.471E-05
RMM:  17    -0.413188845438E+03    0.67068E-06   -0.16650E-08   657   0.499E-04
   32 T=    66. E= -.41286621E+03 F= -.41318885E+03 E0= -.41316740E+03  EK= 0.32263E+00 SP= 0.00E+00 SK= 0.00E+00
       N       E                     dE             d eps       ncg     rms          rms(c)
RMM:   1    -0.413183292269E+03    0.55538E-02   -0.11350E+01  4283   0.875E-01    0.923E-01
RMM:   2    -0.413192893279E+03   -0.96010E-02   -0.14409E-01  4276   0.128E-01    0.655E-01
RMM:   3    -0.413190720719E+03    0.21726E-02   -0.81383E-03  4281   0.439E-02    0.156E-01
RMM:   4    -0.413192688480E+03   -0.19678E-02   -0.27952E-03  5111   0.458E-02    0.187E-01
RMM:   5    -0.413190763091E+03    0.19254E-02   -0.95882E-04  4792   0.312E-02    0.300E-02
RMM:   6    -0.413190753554E+03    0.95367E-05   -0.23985E-04  5602   0.161E-02    0.220E-02
RMM:   7    -0.413190738732E+03    0.14822E-04   -0.12013E-04  4999   0.104E-02    0.101E-02
RMM:   8    -0.413190733289E+03    0.54434E-05   -0.89689E-06  3533   0.394E-03    0.457E-03
RMM:   9    -0.413190731297E+03    0.19918E-05   -0.13700E-06  2480   0.181E-03    0.247E-03
RMM:  10    -0.413190724273E+03    0.70244E-05   -0.75957E-07  2407   0.142E-03    0.115E-03
RMM:  11    -0.413190720468E+03    0.38046E-05   -0.32382E-07  2042   0.953E-04    0.637E-04
RMM:  12    -0.413190715729E+03    0.47390E-05   -0.21159E-07  1631   0.810E-04    0.211E-04
RMM:  13    -0.413190712747E+03    0.29820E-05   -0.10179E-07  1073   0.659E-04    0.136E-04
RMM:  14    -0.413190708887E+03    0.38599E-05   -0.83306E-08  1075   0.644E-04    0.103E-04
RMM:  15    -0.413190704243E+03    0.46442E-05   -0.80528E-08  1194   0.639E-04    0.589E-05
RMM:  16    -0.413190702528E+03    0.17150E-05   -0.41836E-08   864   0.555E-04    0.489E-05
RMM:  17    -0.413190700519E+03    0.20092E-05   -0.30638E-08   764   0.541E-04    0.233E-05
RMM:  18    -0.413190699662E+03    0.85698E-06   -0.20298E-08   636   0.515E-04
   33 T=    66. E= -.41286593E+03 F= -.41319070E+03 E0= -.41316930E+03  EK= 0.32477E+00 SP= 0.00E+00 SK= 0.00E+00
       N       E                     dE             d eps       ncg     rms          rms(c)
RMM:   1    -0.413190846993E+03   -0.14647E-03   -0.11503E+01  4296   0.942E-01    0.915E-01
RMM:   2    -0.413195531821E+03   -0.46848E-02   -0.15495E-01  4281   0.133E-01    0.669E-01
RMM:   3    -0.413193270646E+03    0.22612E-02   -0.80488E-03  4415   0.512E-02    0.159E-01
RMM:   4    -0.413199313857E+03   -0.60432E-02   -0.66722E-03  5148   0.718E-02    0.328E-01
RMM:   5    -0.413193292666E+03    0.60212E-02   -0.29448E-03  4802   0.539E-02    0.310E-02
RMM:   6    -0.413193280928E+03    0.11738E-04   -0.51823E-04  5770   0.229E-02    0.218E-02
RMM:   7    -0.413193279012E+03    0.19164E-05   -0.14563E-04  5316   0.117E-02    0.109E-02
RMM:   8    -0.413193271073E+03    0.79384E-05   -0.16388E-05  4195   0.491E-03    0.493E-03
RMM:   9    -0.413193269794E+03    0.12796E-05   -0.23315E-06  2691   0.222E-03    0.315E-03
RMM:  10    -0.413193267051E+03    0.27426E-05   -0.82798E-07  2468   0.152E-03    0.172E-03
RMM:  11    -0.413193263577E+03    0.34740E-05   -0.58669E-07  2375   0.123E-03    0.796E-04
RMM:  12    -0.413193260885E+03    0.26923E-05   -0.31292E-07  1937   0.918E-04    0.350E-04
RMM:  13    -0.413193259403E+03    0.14815E-05   -0.14930E-07  1279   0.705E-04    0.177E-04
RMM:  14    -0.413193257760E+03    0.16427E-05   -0.95297E-08  1059   0.650E-04    0.111E-04
RMM:  15    -0.413193255040E+03    0.27204E-05   -0.87417E-08  1102   0.653E-04    0.637E-05
RMM:  16    -0.413193254095E+03    0.94477E-06   -0.48292E-08   925   0.599E-04
   34 T=    67. E= -.41286606E+03 F= -.41319325E+03 E0= -.41317190E+03  EK= 0.32720E+00 SP= 0.00E+00 SK= 0.00E+00
       N       E                     dE             d eps       ncg     rms          rms(c)
RMM:   1    -0.413188652004E+03    0.46030E-02   -0.11547E+01  4301   0.910E-01    0.940E-01
RMM:   2    -0.413198153057E+03   -0.95011E-02   -0.14834E-01  4259   0.131E-01    0.669E-01
RMM:   3    -0.413196100855E+03    0.20522E-02   -0.84253E-03  4415   0.495E-02    0.158E-01
RMM:   4    -0.413201055260E+03   -0.49544E-02   -0.56610E-03  5165   0.640E-02    0.299E-01
RMM:   5    -0.413196064315E+03    0.49909E-02   -0.25179E-03  4817   0.496E-02    0.323E-02
RMM:   6    -0.413196051799E+03    0.12517E-04   -0.47456E-04  5731   0.217E-02    0.233E-02
RMM:   7    -0.413196042577E+03    0.92217E-05   -0.15068E-04  5255   0.117E-02    0.109E-02
RMM:   8    -0.413196034138E+03    0.84387E-05   -0.14661E-05  4024   0.461E-03    0.491E-03
RMM:   9    -0.413196031494E+03    0.26438E-05   -0.20877E-06  2646   0.208E-03    0.299E-03
RMM:  10    -0.413196025548E+03    0.59465E-05   -0.81219E-07  2468   0.150E-03    0.154E-03
RMM:  11    -0.413196019603E+03    0.59450E-05   -0.49612E-07  2307   0.115E-03    0.732E-04
RMM:  12    -0.413196014793E+03    0.48100E-05   -0.26957E-07  1936   0.886E-04    0.312E-04
RMM:  13    -0.413196012179E+03    0.26140E-05   -0.13521E-07  1248   0.693E-04    0.166E-04
RMM:  14    -0.413196009072E+03    0.31065E-05   -0.88434E-08  1103   0.646E-04    0.120E-04
RMM:  15    -0.413196003668E+03    0.54039E-05   -0.87171E-08  1194   0.659E-04    0.715E-05
RMM:  16    -0.413196002260E+03    0.14086E-05   -0.46656E-08   964   0.591E-04    0.633E-05
RMM:  17    -0.413195999033E+03    0.32268E-05   -0.48136E-08  1111   0.602E-04    0.320E-05
RMM:  18    -0.413195997406E+03    0.16273E-05   -0.30617E-08   910   0.548E-04    0.177E-05
RMM:  19    -0.413195997185E+03    0.22068E-06   -0.12711E-08   663   0.508E-04
   35 T=    67. E= -.41286629E+03 F= -.41319600E+03 E0= -.41317469E+03  EK= 0.32971E+00 SP= 0.00E+00 SK= 0.00E+00
       N       E                     dE             d eps       ncg     rms          rms(c)
RMM:   1    -0.413207422184E+03   -0.11425E-01   -0.11709E+01  4298   0.102E+00    0.940E-01
RMM:   2    -0.413200059483E+03    0.73627E-02   -0.16493E-01  4261   0.132E-01    0.664E-01
RMM:   3    -0.413198387941E+03    0.16715E-02   -0.83786E-03  4769   0.501E-02    0.195E-01
RMM:   4    -0.413232510952E+03   -0.34123E-01   -0.34660E-02  5164   0.156E-01    0.769E-01
RMM:   5    -0.413197974159E+03    0.34537E-01   -0.17423E-02  4800   0.129E-01    0.452E-02
RMM:   6    -0.413198047158E+03   -0.72998E-04   -0.28269E-03  5858   0.495E-02    0.269E-02
RMM:   7    -0.413198054395E+03   -0.72373E-05   -0.30421E-04  5707   0.157E-02    0.145E-02
RMM:   8    -0.413198046056E+03    0.83387E-05   -0.43989E-05  4838   0.659E-03    0.844E-03
RMM:   9    -0.413198043128E+03    0.29287E-05   -0.18002E-05  4317   0.443E-03    0.685E-03
RMM:  10    -0.413198036195E+03    0.69325E-05   -0.29222E-06  2682   0.258E-03    0.390E-03
RMM:  11    -0.413198030873E+03    0.53220E-05   -0.17230E-06  2539   0.204E-03    0.230E-03
RMM:  12    -0.413198020407E+03    0.10466E-04   -0.14673E-06  2494   0.206E-03    0.984E-04
RMM:  13    -0.413198017343E+03    0.30639E-05   -0.47619E-07  2347   0.128E-03    0.628E-04
RMM:  14    -0.413198017154E+03    0.18963E-06   -0.20073E-07  1794   0.823E-04
   36 T=    68. E= -.41286600E+03 F= -.41319802E+03 E0= -.41317675E+03  EK= 0.33201E+00 SP= 0.00E+00 SK= 0.00E+00
       N       E                     dE             d eps       ncg     rms          rms(c)
RMM:   1    -0.413202776463E+03   -0.47591E-02   -0.11687E+01  4304   0.104E+00    0.924E-01
RMM:   2    -0.413203845323E+03   -0.10689E-02   -0.15608E-01  4257   0.136E-01    0.674E-01
RMM:   3    -0.413201395116E+03    0.24502E-02   -0.84252E-03  4665   0.537E-02    0.169E-01
RMM:   4    -0.413226189672E+03   -0.24795E-01   -0.25081E-02  5164   0.133E-01    0.658E-01
RMM:   5    -0.413201131941E+03    0.25058E-01   -0.12660E-02  4804   0.110E-01    0.408E-02
RMM:   6    -0.413201160265E+03   -0.28324E-04   -0.20358E-03  5849   0.424E-02    0.249E-02
RMM:   7    -0.413201170594E+03   -0.10328E-04   -0.26515E-04  5751   0.146E-02    0.144E-02
RMM:   8    -0.413201161896E+03    0.86978E-05   -0.52911E-05  5000   0.741E-03    0.858E-03
RMM:   9    -0.413201158862E+03    0.30339E-05   -0.13172E-05  4070   0.427E-03    0.535E-03
RMM:  10    -0.413201154356E+03    0.45058E-05   -0.19215E-06  2576   0.216E-03    0.328E-03
RMM:  11    -0.413201150356E+03    0.40000E-05   -0.11327E-06  2493   0.171E-03    0.179E-03
RMM:  12    -0.413201143710E+03    0.66463E-05   -0.10369E-06  2476   0.164E-03    0.755E-04
RMM:  13    -0.413201141331E+03    0.23788E-05   -0.36750E-07  2185   0.107E-03    0.469E-04
RMM:  14    -0.413201140818E+03    0.51284E-06   -0.16678E-07  1520   0.745E-04
   37 T=    68. E= -.41286639E+03 F= -.41320114E+03 E0= -.41317992E+03  EK= 0.33475E+00 SP= 0.00E+00 SK= 0.00E+00
       N       E                     dE             d eps       ncg     rms          rms(c)
RMM:   1    -0.413198491392E+03    0.26499E-02   -0.11738E+01  4308   0.101E+00    0.944E-01
RMM:   2    -0.413206445771E+03   -0.79544E-02   -0.15511E-01  4262   0.128E-01    0.678E-01
RMM:   3    -0.413203793732E+03    0.26520E-02   -0.87800E-03  4719   0.523E-02    0.175E-01
RMM:   4    -0.413233639279E+03   -0.29846E-01   -0.30255E-02  5157   0.145E-01    0.721E-01
RMM:   5    -0.413203446398E+03    0.30193E-01   -0.15288E-02  4805   0.120E-01    0.437E-02
RMM:   6    -0.413203496676E+03   -0.50278E-04   -0.24605E-03  5838   0.463E-02    0.265E-02
RMM:   7    -0.413203508248E+03   -0.11572E-04   -0.31546E-04  5781   0.158E-02    0.160E-02
RMM:   8    -0.413203497529E+03    0.10720E-04   -0.59073E-05  5049   0.786E-03    0.917E-03
RMM:   9    -0.413203493395E+03    0.41340E-05   -0.14801E-05  4175   0.447E-03    0.566E-03
RMM:  10    -0.413203487847E+03    0.55474E-05   -0.23128E-06  2616   0.227E-03    0.348E-03
RMM:  11    -0.413203483123E+03    0.47237E-05   -0.11820E-06  2498   0.174E-03    0.195E-03
RMM:  12    -0.413203474597E+03    0.85268E-05   -0.10939E-06  2484   0.173E-03    0.811E-04
RMM:  13    -0.413203471222E+03    0.33742E-05   -0.40775E-07  2256   0.114E-03    0.542E-04
RMM:  14    -0.413203470816E+03    0.40601E-06   -0.18388E-07  1652   0.778E-04
   38 T=    69. E= -.41286620E+03 F= -.41320347E+03 E0= -.41318229E+03  EK= 0.33727E+00 SP= 0.00E+00 SK= 0.00E+00
       N       E                     dE             d eps       ncg     rms          rms(c)
RMM:   1    -0.413220705961E+03   -0.17235E-01   -0.11961E+01  4305   0.114E+00    0.957E-01
RMM:   2    -0.413208381251E+03    0.12325E-01   -0.16694E-01  4270   0.128E-01    0.673E-01
RMM:   3    -0.413206760273E+03    0.16210E-02   -0.91507E-03  4971   0.537E-02    0.217E-01
RMM:   4    -0.413257201126E+03   -0.50441E-01   -0.53829E-02  5141   0.193E-01    0.931E-01
RMM:   5    -0.413205758440E+03    0.51443E-01   -0.25455E-02  4784   0.157E-01    0.544E-02
RMM:   6    -0.413205923448E+03   -0.16501E-03   -0.42134E-03  5827   0.600E-02    0.302E-02
RMM:   7    -0.413205938482E+03   -0.15034E-04   -0.45088E-04  5780   0.184E-02    0.176E-02
RMM:   8    -0.413205933735E+03    0.47467E-05   -0.72390E-05  5103   0.797E-03    0.108E-02
RMM:   9    -0.413205923889E+03    0.98455E-05   -0.24546E-05  4579   0.518E-03    0.696E-03
RMM:  10    -0.413205917265E+03    0.66242E-05   -0.47548E-06  2865   0.299E-03    0.401E-03
RMM:  11    -0.413205910974E+03    0.62912E-05   -0.18821E-06  2533   0.220E-03    0.238E-03
RMM:  12    -0.413205899761E+03    0.11213E-04   -0.12697E-06  2491   0.196E-03    0.733E-04
RMM:  13    -0.413205895271E+03    0.44896E-05   -0.51140E-07  2372   0.129E-03    0.593E-04
RMM:  14    -0.413205894152E+03    0.11195E-05   -0.22364E-07  1950   0.865E-04    0.369E-04
RMM:  15    -0.413205889865E+03    0.42867E-05   -0.11518E-07  1369   0.705E-04    0.148E-04
RMM:  16    -0.413205885915E+03    0.39499E-05   -0.78417E-08  1215   0.654E-04    0.151E-04
RMM:  17    -0.413205884058E+03    0.18569E-05   -0.45894E-08   950   0.598E-04    0.931E-05
RMM:  18    -0.413205878653E+03    0.54053E-05   -0.71354E-08  1397   0.660E-04    0.140E-04
RMM:  19    -0.413205877345E+03    0.13077E-05   -0.28841E-08   917   0.543E-04    0.984E-05
RMM:  20    -0.413205876344E+03    0.10014E-05   -0.20771E-08   837   0.526E-04    0.500E-05
RMM:  21    -0.413205876001E+03    0.34331E-06   -0.13922E-08   740   0.510E-04
   39 T=    69. E= -.41286610E+03 F= -.41320588E+03 E0= -.41318473E+03  EK= 0.33978E+00 SP= 0.00E+00 SK= 0.00E+00
       N       E                     dE             d eps       ncg     rms          rms(c)
RMM:   1    -0.413206272169E+03   -0.39583E-03   -0.11789E+01  4310   0.110E+00    0.934E-01
RMM:   2    -0.413211778897E+03   -0.55067E-02   -0.15986E-01  4269   0.130E-01    0.678E-01
RMM:   3    -0.413210135730E+03    0.16432E-02   -0.94474E-03  5011   0.582E-02    0.227E-01
RMM:   4    -0.413263186517E+03   -0.53051E-01   -0.59535E-02  5134   0.203E-01    0.957E-01
RMM:   5    -0.413208603017E+03    0.54583E-01   -0.26492E-02  4775   0.161E-01    0.561E-02
RMM:   6    -0.413208779160E+03   -0.17614E-03   -0.43937E-03  5814   0.614E-02    0.300E-02
RMM:   7    -0.413208798078E+03   -0.18918E-04   -0.49402E-04  5885   0.192E-02    0.194E-02
RMM:   8    -0.413208799336E+03   -0.12582E-05   -0.10082E-04  5251   0.949E-03    0.128E-02
RMM:   9    -0.413208787708E+03    0.11627E-04   -0.23947E-05  4577   0.553E-03    0.624E-03
RMM:  10    -0.413208783409E+03    0.42989E-05   -0.48138E-06  2838   0.288E-03    0.373E-03
RMM:  11    -0.413208779855E+03    0.35546E-05   -0.16070E-06  2506   0.206E-03    0.218E-03
RMM:  12    -0.413208773774E+03    0.60808E-05   -0.10989E-06  2485   0.179E-03    0.705E-04
RMM:  13    -0.413208770835E+03    0.29389E-05   -0.48555E-07  2341   0.123E-03    0.446E-04
RMM:  14    -0.413208769615E+03    0.12196E-05   -0.22726E-07  1873   0.854E-04    0.299E-04
RMM:  15    -0.413208766257E+03    0.33588E-05   -0.13285E-07  1389   0.718E-04    0.153E-04
RMM:  16    -0.413208764460E+03    0.17962E-05   -0.77231E-08  1080   0.636E-04    0.105E-04
RMM:  17    -0.413208762689E+03    0.17713E-05   -0.56553E-08  1018   0.615E-04    0.711E-05
RMM:  18    -0.413208760135E+03    0.25546E-05   -0.49389E-08  1033   0.616E-04    0.431E-05
RMM:  19    -0.413208758241E+03    0.18931E-05   -0.38000E-08   999   0.598E-04    0.303E-05
RMM:  20    -0.413208757627E+03    0.61453E-06   -0.21547E-08   814   0.564E-04
   40 T=    70. E= -.41286635E+03 F= -.41320876E+03 E0= -.41318765E+03  EK= 0.34240E+00 SP= 0.00E+00 SK= 0.00E+00
       N       E                     dE             d eps       ncg     rms          rms(c)
RMM:   1    -0.413227601870E+03   -0.18844E-01   -0.12109E+01  4308   0.126E+00    0.945E-01
RMM:   2    -0.413213645903E+03    0.13956E-01   -0.18065E-01  4273   0.142E-01    0.690E-01
RMM:   3    -0.413212591569E+03    0.10543E-02   -0.97403E-03  5052   0.619E-02    0.267E-01
RMM:   4    -0.413268004304E+03   -0.55413E-01   -0.64982E-02  5125   0.212E-01    0.983E-01
RMM:   5    -0.413210441754E+03    0.57563E-01   -0.27757E-02  4771   0.166E-01    0.592E-02
RMM:   6    -0.413210607050E+03   -0.16530E-03   -0.44134E-03  5799   0.628E-02    0.303E-02
RMM:   7    -0.413210626576E+03   -0.19526E-04   -0.52411E-04  5900   0.199E-02    0.208E-02
RMM:   8    -0.413210627105E+03   -0.52889E-06   -0.10931E-04  5286   0.100E-02    0.128E-02
RMM:   9    -0.413210615432E+03    0.11673E-04   -0.23092E-05  4516   0.558E-03    0.537E-03
RMM:  10    -0.413210611557E+03    0.38746E-05   -0.52738E-06  2894   0.285E-03    0.329E-03
RMM:  11    -0.413210608148E+03    0.34098E-05   -0.14128E-06  2503   0.193E-03    0.186E-03
RMM:  12    -0.413210602959E+03    0.51890E-05   -0.83290E-07  2469   0.156E-03    0.636E-04
RMM:  13    -0.413210600060E+03    0.28990E-05   -0.40513E-07  2237   0.110E-03    0.317E-04
RMM:  14    -0.413210598200E+03    0.18594E-05   -0.21077E-07  1726   0.816E-04    0.219E-04
RMM:  15    -0.413210595029E+03    0.31710E-05   -0.13167E-07  1299   0.703E-04    0.105E-04
RMM:  16    -0.413210593342E+03    0.16873E-05   -0.83878E-08  1126   0.649E-04    0.715E-05
RMM:  17    -0.413210591409E+03    0.19333E-05   -0.65910E-08  1103   0.631E-04    0.572E-05
RMM:  18    -0.413210589272E+03    0.21369E-05   -0.51167E-08  1046   0.617E-04    0.272E-05
RMM:  19    -0.413210587751E+03    0.15203E-05   -0.37410E-08   973   0.593E-04    0.262E-05
RMM:  20    -0.413210587272E+03    0.47927E-06   -0.20800E-08   789   0.563E-04
   41 T=    70. E= -.41286601E+03 F= -.41321059E+03 E0= -.41318951E+03  EK= 0.34458E+00 SP= 0.00E+00 SK= 0.00E+00
       N       E                     dE             d eps       ncg     rms          rms(c)
RMM:   1    -0.413222220087E+03   -0.11632E-01   -0.12063E+01  4310   0.127E+00    0.970E-01
RMM:   2    -0.413215442590E+03    0.67775E-02   -0.16651E-01  4295   0.142E-01    0.682E-01
RMM:   3    -0.413216794549E+03   -0.13520E-02   -0.12027E-02  5106   0.740E-02    0.315E-01
RMM:   4    -0.413253135367E+03   -0.36341E-01   -0.52439E-02  5099   0.192E-01    0.829E-01
RMM:   5    -0.413213030517E+03    0.40105E-01   -0.17987E-02  4735   0.139E-01    0.567E-02
RMM:   6    -0.413213095256E+03   -0.64739E-04   -0.30761E-03  5756   0.526E-02    0.298E-02
RMM:   7    -0.413213102815E+03   -0.75593E-05   -0.40042E-04  5826   0.179E-02    0.204E-02
RMM:   8    -0.413213098914E+03    0.39011E-05   -0.99474E-05  5180   0.989E-03    0.114E-02
RMM:   9    -0.413213084938E+03    0.13976E-04   -0.19128E-05  4349   0.532E-03    0.443E-03
RMM:  10    -0.413213079586E+03    0.53521E-05   -0.39339E-06  2775   0.255E-03    0.274E-03
RMM:  11    -0.413213073473E+03    0.61127E-05   -0.12078E-06  2497   0.180E-03    0.148E-03
RMM:  12    -0.413213065852E+03    0.76215E-05   -0.63446E-07  2422   0.139E-03    0.571E-04
RMM:  13    -0.413213061693E+03    0.41590E-05   -0.31397E-07  2016   0.973E-04    0.269E-04
RMM:  14    -0.413213058377E+03    0.33154E-05   -0.17283E-07  1475   0.763E-04    0.159E-04
RMM:  15    -0.413213052285E+03    0.60924E-05   -0.13153E-07  1342   0.721E-04    0.121E-04
RMM:  16    -0.413213050152E+03    0.21330E-05   -0.84259E-08  1178   0.654E-04    0.809E-05
RMM:  17    -0.413213046158E+03    0.39939E-05   -0.79853E-08  1345   0.659E-04    0.665E-05
RMM:  18    -0.413213043551E+03    0.26072E-05   -0.53372E-08  1114   0.597E-04    0.334E-05
RMM:  19    -0.413213042406E+03    0.11454E-05   -0.32745E-08   915   0.555E-04    0.278E-05
RMM:  20    -0.413213042152E+03    0.25319E-06   -0.18333E-08   740   0.528E-04
   42 T=    71. E= -.41286617E+03 F= -.41321304E+03 E0= -.41319200E+03  EK= 0.34687E+00 SP= 0.00E+00 SK= 0.00E+00
       N       E                     dE             d eps       ncg     rms          rms(c)
RMM:   1    -0.413217227252E+03   -0.41848E-02   -0.11935E+01  4311   0.129E+00    0.946E-01
RMM:   2    -0.413217446070E+03   -0.21882E-03   -0.16628E-01  4298   0.149E-01    0.682E-01
RMM:   3    -0.413219864187E+03   -0.24181E-02   -0.12744E-02  5097   0.814E-02    0.344E-01
RMM:   4    -0.413251712197E+03   -0.31848E-01   -0.51128E-02  5078   0.191E-01    0.794E-01
RMM:   5    -0.413215027931E+03    0.36684E-01   -0.15998E-02  4714   0.133E-01    0.557E-02
RMM:   6    -0.413215066202E+03   -0.38272E-04   -0.27330E-03  5734   0.500E-02    0.290E-02
RMM:   7    -0.413215071695E+03   -0.54925E-05   -0.36425E-04  5816   0.173E-02    0.201E-02
RMM:   8    -0.413215068235E+03    0.34598E-05   -0.92572E-05  5160   0.964E-03    0.106E-02
RMM:   9    -0.413215056692E+03    0.11544E-04   -0.18153E-05  4276   0.522E-03    0.406E-03
RMM:  10    -0.413215052989E+03    0.37021E-05   -0.34964E-06  2738   0.244E-03    0.249E-03
RMM:  11    -0.413215048116E+03    0.48730E-05   -0.12181E-06  2496   0.178E-03    0.134E-03
RMM:  12    -0.413215042857E+03    0.52596E-05   -0.59695E-07  2416   0.134E-03    0.548E-04
RMM:  13    -0.413215039810E+03    0.30471E-05   -0.29680E-07  1880   0.928E-04    0.248E-04
RMM:  14    -0.413215037059E+03    0.27503E-05   -0.17365E-07  1429   0.753E-04    0.141E-04
RMM:  15    -0.413215032510E+03    0.45492E-05   -0.13565E-07  1308   0.714E-04    0.105E-04
RMM:  16    -0.413215030853E+03    0.16574E-05   -0.84578E-08  1135   0.650E-04    0.774E-05
RMM:  17    -0.413215027497E+03    0.33558E-05   -0.79010E-08  1272   0.654E-04    0.583E-05
RMM:  18    -0.413215025307E+03    0.21903E-05   -0.56059E-08  1132   0.604E-04    0.415E-05
RMM:  19    -0.413215024419E+03    0.88770E-06   -0.29057E-08   831   0.552E-04
   43 T=    71. E= -.41286621E+03 F= -.41321502E+03 E0= -.41319401E+03  EK= 0.34882E+00 SP= 0.00E+00 SK= 0.00E+00
       N       E                     dE             d eps       ncg     rms          rms(c)
RMM:   1    -0.413246050600E+03   -0.31025E-01   -0.12314E+01  4311   0.146E+00    0.946E-01
RMM:   2    -0.413218960574E+03    0.27090E-01   -0.20228E-01  4307   0.172E-01    0.700E-01
RMM:   3    -0.413222116698E+03   -0.31561E-02   -0.13083E-02  5090   0.888E-02    0.398E-01
RMM:   4    -0.413253081279E+03   -0.30965E-01   -0.53789E-02  5067   0.197E-01    0.803E-01
RMM:   5    -0.413216101538E+03    0.36980E-01   -0.16301E-02  4710   0.136E-01    0.597E-02
RMM:   6    -0.413216116395E+03   -0.14857E-04   -0.27122E-03  5695   0.501E-02    0.297E-02
RMM:   7    -0.413216121622E+03   -0.52267E-05   -0.36313E-04  5873   0.174E-02    0.210E-02
RMM:   8    -0.413216118049E+03    0.35727E-05   -0.91518E-05  5178   0.961E-03    0.107E-02
RMM:   9    -0.413216107795E+03    0.10254E-04   -0.20852E-05  4377   0.553E-03    0.412E-03
RMM:  10    -0.413216105199E+03    0.25960E-05   -0.37339E-06  2744   0.244E-03    0.242E-03
RMM:  11    -0.413216101341E+03    0.38584E-05   -0.16565E-06  2542   0.194E-03    0.143E-03
RMM:  12    -0.413216098095E+03    0.32454E-05   -0.60471E-07  2451   0.138E-03    0.638E-04
RMM:  13    -0.413216095674E+03    0.24217E-05   -0.30974E-07  1753   0.918E-04    0.283E-04
RMM:  14    -0.413216093272E+03    0.24018E-05   -0.19698E-07  1428   0.773E-04    0.149E-04
RMM:  15    -0.413216090436E+03    0.28358E-05   -0.14618E-07  1332   0.719E-04    0.917E-05
RMM:  16    -0.413216088425E+03    0.20115E-05   -0.10180E-07  1205   0.665E-04    0.649E-05
RMM:  17    -0.413216086374E+03    0.20507E-05   -0.79471E-08  1210   0.637E-04    0.530E-05
RMM:  18    -0.413216083992E+03    0.23822E-05   -0.61906E-08  1092   0.603E-04    0.377E-05
RMM:  19    -0.413216083435E+03    0.55685E-06   -0.32840E-08   836   0.550E-04
   44 T=    71. E= -.41286594E+03 F= -.41321608E+03 E0= -.41319509E+03  EK= 0.35014E+00 SP= 0.00E+00 SK= 0.00E+00
       N       E                     dE             d eps       ncg     rms          rms(c)
RMM:   1    -0.413227266126E+03   -0.11182E-01   -0.12111E+01  4310   0.148E+00    0.975E-01
RMM:   2    -0.413219677405E+03    0.75887E-02   -0.17103E-01  4343   0.173E-01    0.691E-01
RMM:   3    -0.413229119592E+03   -0.94422E-02   -0.19389E-02  5131   0.113E-01    0.493E-01
RMM:   4    -0.413236664906E+03   -0.75453E-02   -0.41100E-02  5025   0.176E-01    0.587E-01
RMM:   5    -0.413217599726E+03    0.19065E-01   -0.71555E-03  4600   0.100E-01    0.517E-02
RMM:   6    -0.413217562810E+03    0.36916E-04   -0.13965E-03  5479   0.363E-02    0.275E-02
RMM:   7    -0.413217559295E+03    0.35151E-05   -0.21130E-04  5623   0.142E-02    0.189E-02
RMM:   8    -0.413217551618E+03    0.76762E-05   -0.92641E-05  5080   0.985E-03    0.912E-03
RMM:   9    -0.413217537972E+03    0.13646E-04   -0.14424E-05  4164   0.511E-03    0.368E-03
RMM:  10    -0.413217534245E+03    0.37273E-05   -0.23275E-06  2650   0.212E-03    0.212E-03
RMM:  11    -0.413217527062E+03    0.71835E-05   -0.11227E-06  2485   0.171E-03    0.120E-03
RMM:  12    -0.413217521378E+03    0.56835E-05   -0.49243E-07  2390   0.124E-03    0.593E-04
RMM:  13    -0.413217517597E+03    0.37811E-05   -0.22679E-07  1689   0.834E-04    0.287E-04
RMM:  14    -0.413217513877E+03    0.37197E-05   -0.12946E-07  1257   0.684E-04    0.148E-04
RMM:  15    -0.413217508672E+03    0.52056E-05   -0.10554E-07  1209   0.668E-04    0.115E-04
RMM:  16    -0.413217505953E+03    0.27192E-05   -0.68457E-08  1072   0.617E-04    0.104E-04
RMM:  17    -0.413217502385E+03    0.35674E-05   -0.60895E-08  1155   0.613E-04    0.602E-05
RMM:  18    -0.413217498916E+03    0.34688E-05   -0.52239E-08  1136   0.594E-04    0.469E-05
RMM:  19    -0.413217498405E+03    0.51160E-06   -0.20895E-08   750   0.518E-04
   45 T=    72. E= -.41286628E+03 F= -.41321750E+03 E0= -.41319653E+03  EK= 0.35122E+00 SP= 0.00E+00 SK= 0.00E+00
       N       E                     dE             d eps       ncg     rms          rms(c)
RMM:   1    -0.413239986068E+03   -0.22487E-01   -0.12115E+01  4310   0.161E+00    0.957E-01
RMM:   2    -0.413219634316E+03    0.20352E-01   -0.17913E-01  4378   0.186E-01    0.687E-01
RMM:   3    -0.413231781212E+03   -0.12147E-01   -0.21464E-02  5131   0.122E-01    0.546E-01
RMM:   4    -0.413233361709E+03   -0.15805E-02   -0.40178E-02  5014   0.175E-01    0.543E-01
RMM:   5    -0.413217485372E+03    0.15876E-01   -0.60060E-03  4566   0.951E-02    0.519E-02
RMM:   6    -0.413217424627E+03    0.60746E-04   -0.10896E-03  5286   0.332E-02    0.269E-02
RMM:   7    -0.413217420706E+03    0.39205E-05   -0.16922E-04  5626   0.128E-02    0.175E-02
RMM:   8    -0.413217417041E+03    0.36655E-05   -0.10368E-04  5146   0.102E-02    0.101E-02
RMM:   9    -0.413217402134E+03    0.14907E-04   -0.17453E-05  4356   0.555E-03    0.385E-03
RMM:  10    -0.413217399251E+03    0.28832E-05   -0.27851E-06  2692   0.222E-03    0.221E-03
RMM:  11    -0.413217393002E+03    0.62490E-05   -0.12961E-06  2490   0.182E-03    0.124E-03
RMM:  12    -0.413217388533E+03    0.44682E-05   -0.53113E-07  2398   0.130E-03    0.679E-04
RMM:  13    -0.413217384905E+03    0.36282E-05   -0.24027E-07  1717   0.873E-04    0.337E-04
RMM:  14    -0.413217381365E+03    0.35400E-05   -0.12621E-07  1286   0.696E-04    0.170E-04
RMM:  15    -0.413217377227E+03    0.41379E-05   -0.92726E-08  1148   0.654E-04    0.115E-04
RMM:  16    -0.413217374802E+03    0.24257E-05   -0.57092E-08   965   0.601E-04    0.104E-04
RMM:  17    -0.413217371743E+03    0.30588E-05   -0.53833E-08  1053   0.598E-04    0.598E-05
RMM:  18    -0.413217368558E+03    0.31846E-05   -0.48513E-08  1059   0.588E-04    0.449E-05
RMM:  19    -0.413217367960E+03    0.59867E-06   -0.18118E-08   688   0.512E-04
   46 T=    72. E= -.41286614E+03 F= -.41321737E+03 E0= -.41319641E+03  EK= 0.35123E+00 SP= 0.00E+00 SK= 0.00E+00
       N       E                     dE             d eps       ncg     rms          rms(c)
RMM:   1    -0.413239202555E+03   -0.21834E-01   -0.12113E+01  4310   0.168E+00    0.945E-01
RMM:   2    -0.413219319135E+03    0.19883E-01   -0.19166E-01  4381   0.201E-01    0.701E-01
RMM:   3    -0.413232229079E+03   -0.12910E-01   -0.22293E-02  5136   0.129E-01    0.574E-01
RMM:   4    -0.413233292922E+03   -0.10638E-02   -0.42762E-02  5003   0.181E-01    0.557E-01
RMM:   5    -0.413216496564E+03    0.16796E-01   -0.65145E-03  4567   0.996E-02    0.545E-02
RMM:   6    -0.413216420214E+03    0.76350E-04   -0.11298E-03  5256   0.343E-02    0.275E-02
RMM:   7    -0.413216416116E+03    0.40978E-05   -0.17893E-04  5678   0.131E-02    0.185E-02
RMM:   8    -0.413216412774E+03    0.33421E-05   -0.10734E-04  5177   0.104E-02    0.105E-02
RMM:   9    -0.413216398624E+03    0.14150E-04   -0.19273E-05  4422   0.582E-03    0.400E-03
RMM:  10    -0.413216396592E+03    0.20327E-05   -0.29711E-06  2713   0.229E-03    0.228E-03
RMM:  11    -0.413216392418E+03    0.41736E-05   -0.14356E-06  2497   0.190E-03    0.133E-03
RMM:  12    -0.413216389338E+03    0.30804E-05   -0.56989E-07  2405   0.135E-03    0.718E-04
RMM:  13    -0.413216386571E+03    0.27662E-05   -0.27090E-07  1763   0.918E-04    0.349E-04
RMM:  14    -0.413216384016E+03    0.25558E-05   -0.14988E-07  1391   0.728E-04    0.184E-04
RMM:  15    -0.413216381082E+03    0.29341E-05   -0.10738E-07  1164   0.659E-04    0.117E-04
RMM:  16    -0.413216379155E+03    0.19269E-05   -0.65688E-08   980   0.604E-04    0.958E-05
RMM:  17    -0.413216377017E+03    0.21375E-05   -0.57912E-08  1012   0.595E-04    0.571E-05
RMM:  18    -0.413216374883E+03    0.21344E-05   -0.48090E-08   981   0.580E-04    0.393E-05
RMM:  19    -0.413216374365E+03    0.51820E-06   -0.19064E-08   673   0.524E-04
   47 T=    71. E= -.41286611E+03 F= -.41321637E+03 E0= -.41319543E+03  EK= 0.35026E+00 SP= 0.00E+00 SK= 0.00E+00
       N       E                     dE             d eps       ncg     rms          rms(c)
RMM:   1    -0.413259756780E+03   -0.43382E-01   -0.12249E+01  4306   0.185E+00    0.968E-01
RMM:   2    -0.413216898649E+03    0.42858E-01   -0.19990E-01  4450   0.208E-01    0.696E-01
RMM:   3    -0.413238080310E+03   -0.21182E-01   -0.29531E-02  5149   0.150E-01    0.689E-01
RMM:   4    -0.413224461509E+03    0.13619E-01   -0.39683E-02  4969   0.179E-01    0.451E-01
RMM:   5    -0.413214633821E+03    0.98277E-02   -0.48266E-03  4547   0.913E-02    0.588E-02
RMM:   6    -0.413214481817E+03    0.15200E-03   -0.52333E-04  4776   0.290E-02    0.291E-02
RMM:   7    -0.413214482697E+03   -0.88033E-06   -0.21340E-04  5912   0.148E-02    0.191E-02
RMM:   8    -0.413214464143E+03    0.18554E-04   -0.91236E-05  5120   0.105E-02    0.102E-02
RMM:   9    -0.413214454247E+03    0.98964E-05   -0.14980E-05  4227   0.516E-03    0.484E-03
RMM:  10    -0.413214450076E+03    0.41705E-05   -0.23030E-06  2590   0.241E-03    0.242E-03
RMM:  11    -0.413214444531E+03    0.55455E-05   -0.18321E-06  2533   0.208E-03    0.176E-03
RMM:  12    -0.413214440701E+03    0.38296E-05   -0.55284E-07  2397   0.139E-03    0.916E-04
RMM:  13    -0.413214436476E+03    0.42257E-05   -0.27203E-07  1821   0.916E-04    0.472E-04
RMM:  14    -0.413214431036E+03    0.54397E-05   -0.23112E-07  1972   0.838E-04    0.446E-04
RMM:  15    -0.413214427512E+03    0.35239E-05   -0.10016E-07  1047   0.591E-04    0.201E-04
RMM:  16    -0.413214424568E+03    0.29440E-05   -0.73800E-08  1002   0.579E-04    0.960E-05
RMM:  17    -0.413214422029E+03    0.25392E-05   -0.57347E-08   978   0.573E-04    0.578E-05
RMM:  18    -0.413214419656E+03    0.23730E-05   -0.49497E-08   999   0.568E-04    0.696E-05
RMM:  19    -0.413214418435E+03    0.12205E-05   -0.25776E-08   770   0.526E-04    0.629E-05
RMM:  20    -0.413214417747E+03    0.68856E-06   -0.17953E-08   717   0.513E-04
   48 T=    71. E= -.41286640E+03 F= -.41321442E+03 E0= -.41319348E+03  EK= 0.34802E+00 SP= 0.00E+00 SK= 0.00E+00
       N       E                     dE             d eps       ncg     rms          rms(c)
RMM:   1    -0.413258151277E+03   -0.43733E-01   -0.12036E+01  4305   0.197E+00    0.957E-01
RMM:   2    -0.413212193208E+03    0.45958E-01   -0.19421E-01  4501   0.219E-01    0.685E-01
RMM:   3    -0.413241189979E+03   -0.28997E-01   -0.36475E-02  5159   0.169E-01    0.780E-01
RMM:   4    -0.413216528812E+03    0.24661E-01   -0.39565E-02  4933   0.182E-01    0.384E-01
RMM:   5    -0.413210108696E+03    0.64201E-02   -0.49935E-03  4776   0.925E-02    0.708E-02
RMM:   6    -0.413209849956E+03    0.25874E-03   -0.51948E-04  4660   0.319E-02    0.331E-02
RMM:   7    -0.413209847284E+03    0.26710E-05   -0.20311E-04  5734   0.155E-02    0.231E-02
RMM:   8    -0.413209821797E+03    0.25488E-04   -0.66958E-05  4977   0.909E-03    0.932E-03
RMM:   9    -0.413209812003E+03    0.97933E-05   -0.14349E-05  3893   0.462E-03    0.411E-03
RMM:  10    -0.413209806843E+03    0.51604E-05   -0.21404E-06  2587   0.227E-03    0.250E-03
RMM:  11    -0.413209799884E+03    0.69589E-05   -0.86143E-07  2490   0.155E-03    0.141E-03
RMM:  12    -0.413209796126E+03    0.37576E-05   -0.35676E-07  2239   0.104E-03    0.696E-04
RMM:  13    -0.413209790064E+03    0.60620E-05   -0.34889E-07  2034   0.949E-04    0.424E-04
RMM:  14    -0.413209786336E+03    0.37283E-05   -0.17226E-07  1279   0.727E-04    0.269E-04
RMM:  15    -0.413209781625E+03    0.47105E-05   -0.14429E-07  1227   0.703E-04    0.120E-04
RMM:  16    -0.413209778940E+03    0.26850E-05   -0.99648E-08  1225   0.656E-04    0.101E-04
RMM:  17    -0.413209775489E+03    0.34514E-05   -0.89158E-08  1332   0.642E-04    0.866E-05
RMM:  18    -0.413209774692E+03    0.79747E-06   -0.42471E-08   919   0.537E-04
   49 T=    70. E= -.41286602E+03 F= -.41320977E+03 E0= -.41318884E+03  EK= 0.34376E+00 SP= 0.00E+00 SK= 0.00E+00
       N       E                     dE             d eps       ncg     rms          rms(c)
RMM:   1    -0.413230049422E+03   -0.20274E-01   -0.11600E+01  4304   0.197E+00    0.927E-01
RMM:   2    -0.413207032475E+03    0.23017E-01   -0.19252E-01  4524   0.227E-01    0.690E-01
RMM:   3    -0.413236203210E+03   -0.29171E-01   -0.36572E-02  5159   0.171E-01    0.791E-01
RMM:   4    -0.413211085759E+03    0.25117E-01   -0.40778E-02  4930   0.185E-01    0.387E-01
RMM:   5    -0.413204410419E+03    0.66753E-02   -0.55642E-03  4835   0.965E-02    0.756E-02
RMM:   6    -0.413204105761E+03    0.30466E-03   -0.56474E-04  4632   0.337E-02    0.341E-02
RMM:   7    -0.413204101581E+03    0.41808E-05   -0.20883E-04  5724   0.157E-02    0.232E-02
RMM:   8    -0.413204077119E+03    0.24462E-04   -0.68298E-05  5052   0.901E-03    0.977E-03
RMM:   9    -0.413204068815E+03    0.83040E-05   -0.15673E-05  3936   0.476E-03    0.413E-03
RMM:  10    -0.413204064658E+03    0.41574E-05   -0.24649E-06  2628   0.236E-03    0.259E-03
RMM:  11    -0.413204059720E+03    0.49376E-05   -0.83393E-07  2488   0.154E-03    0.139E-03
RMM:  12    -0.413204056938E+03    0.27825E-05   -0.36623E-07  2207   0.104E-03    0.685E-04
RMM:  13    -0.413204052308E+03    0.46298E-05   -0.41216E-07  2221   0.999E-04    0.518E-04
RMM:  14    -0.413204050073E+03    0.22347E-05   -0.17393E-07  1275   0.719E-04    0.322E-04
RMM:  15    -0.413204046576E+03    0.34970E-05   -0.17877E-07  1382   0.741E-04    0.124E-04
RMM:  16    -0.413204044688E+03    0.18887E-05   -0.10881E-07  1245   0.660E-04    0.123E-04
RMM:  17    -0.413204042974E+03    0.17131E-05   -0.83245E-08  1176   0.617E-04    0.869E-05
RMM:  18    -0.413204042395E+03    0.57928E-06   -0.46205E-08   946   0.548E-04
   50 T=    69. E= -.41286638E+03 F= -.41320404E+03 E0= -.41318312E+03  EK= 0.33766E+00 SP= 0.00E+00 SK= 0.00E+00
       N       E                     dE             d eps       ncg     rms          rms(c)
RMM:   1    -0.413229506120E+03   -0.25463E-01   -0.11411E+01  4301   0.213E+00    0.935E-01
RMM:   2    -0.413198083148E+03    0.31423E-01   -0.19319E-01  4580   0.241E-01    0.685E-01
RMM:   3    -0.413237527626E+03   -0.39444E-01   -0.46108E-02  5166   0.194E-01    0.897E-01
RMM:   4    -0.413199718718E+03    0.37809E-01   -0.42289E-02  4911   0.192E-01    0.333E-01
RMM:   5    -0.413195843871E+03    0.38748E-02   -0.74380E-03  5168   0.107E-01    0.993E-02
RMM:   6    -0.413195288667E+03    0.55520E-03   -0.10652E-03  4720   0.439E-02    0.395E-02
RMM:   7    -0.413195281210E+03    0.74572E-05   -0.29283E-04  5715   0.187E-02    0.255E-02
RMM:   8    -0.413195256202E+03    0.25008E-04   -0.67939E-05  5201   0.911E-03    0.110E-02
RMM:   9    -0.413195245634E+03    0.10568E-04   -0.17544E-05  3882   0.489E-03    0.438E-03
RMM:  10    -0.413195239726E+03    0.59074E-05   -0.33797E-06  2730   0.267E-03    0.296E-03
RMM:  11    -0.413195233138E+03    0.65884E-05   -0.97442E-07  2509   0.171E-03    0.131E-03
RMM:  12    -0.413195229678E+03    0.34599E-05   -0.44766E-07  2213   0.111E-03    0.657E-04
[...]
       N       E                     dE             d eps       ncg     rms          rms(c)
RMM:   1    -0.413889441654E+03   -0.25391E-01   -0.20580E+01  4265   0.819E+00    0.130E+00
RMM:   2    -0.413717570542E+03    0.17187E+00   -0.75938E-01  5399   0.102E+00    0.128E+00
RMM:   3    -0.413751674909E+03   -0.34104E-01   -0.15306E-01  5632   0.422E-01    0.137E+00
RMM:   4    -0.413703019059E+03    0.48656E-01   -0.57479E-02  5220   0.282E-01    0.767E-01
RMM:   5    -0.413699263276E+03    0.37558E-02   -0.29868E-02  4396   0.245E-01    0.274E-01
RMM:   6    -0.413698855330E+03    0.40795E-03   -0.12603E-02  5092   0.142E-01    0.140E-01
RMM:   7    -0.413697967533E+03    0.88780E-03   -0.34973E-03  5251   0.748E-02    0.805E-02
RMM:   8    -0.413697792468E+03    0.17506E-03   -0.68883E-04  5192   0.346E-02    0.500E-02
RMM:   9    -0.413697730193E+03    0.62275E-04   -0.43269E-04  4541   0.267E-02    0.168E-02
RMM:  10    -0.413697735490E+03   -0.52970E-05   -0.11249E-04  5846   0.123E-02    0.121E-02
RMM:  11    -0.413697734032E+03    0.14579E-05   -0.26371E-05  4894   0.630E-03    0.636E-03
RMM:  12    -0.413697734312E+03   -0.28031E-06   -0.59673E-06  3130   0.348E-03
  138 T=   166. E= -.41288080E+03 F= -.41369773E+03 E0= -.41367629E+03  EK= 0.81694E+00 SP= 0.00E+00 SK= 0.00E+00
       N       E                     dE             d eps       ncg     rms          rms(c)
RMM:   1    -0.413520073784E+03    0.17766E+00   -0.14360E+01  4265   0.684E+00    0.106E+00
RMM:   2    -0.413446600861E+03    0.73473E-01   -0.54053E-01  5410   0.794E-01    0.990E-01
RMM:   3    -0.413472432544E+03   -0.25832E-01   -0.98850E-02  5680   0.328E-01    0.109E+00
RMM:   4    -0.413442640019E+03    0.29793E-01   -0.33923E-02  5153   0.220E-01    0.601E-01
RMM:   5    -0.413441464856E+03    0.11752E-02   -0.25178E-02  4565   0.215E-01    0.213E-01
RMM:   6    -0.413440303069E+03    0.11618E-02   -0.79354E-03  4946   0.115E-01    0.103E-01
RMM:   7    -0.413439809883E+03    0.49319E-03   -0.18876E-03  5349   0.563E-02    0.561E-02
RMM:   8    -0.413439726473E+03    0.83410E-04   -0.43604E-04  5344   0.263E-02    0.355E-02
RMM:   9    -0.413439699663E+03    0.26810E-04   -0.24882E-04  4614   0.197E-02    0.145E-02
RMM:  10    -0.413439701279E+03   -0.16164E-05   -0.60321E-05  5629   0.885E-03    0.925E-03
RMM:  11    -0.413439700270E+03    0.10089E-05   -0.14323E-05  4209   0.477E-03    0.470E-03
RMM:  12    -0.413439700220E+03    0.49968E-07   -0.30126E-06  2763   0.265E-03
  139 T=   116. E= -.41287167E+03 F= -.41343970E+03 E0= -.41341843E+03  EK= 0.56803E+00 SP= 0.00E+00 SK= 0.00E+00
       N       E                     dE             d eps       ncg     rms          rms(c)
RMM:   1    -0.413233734985E+03    0.20597E+00   -0.74899E+00  4264   0.499E+00    0.778E-01
RMM:   2    -0.413238221881E+03   -0.44869E-02   -0.32137E-01  5445   0.542E-01    0.711E-01
RMM:   3    -0.413248030520E+03   -0.98086E-02   -0.52365E-02  5590   0.237E-01    0.768E-01
RMM:   4    -0.413233484395E+03    0.14546E-01   -0.20186E-02  5100   0.177E-01    0.358E-01
RMM:   5    -0.413233392997E+03    0.91398E-04   -0.14291E-02  4865   0.155E-01    0.158E-01
RMM:   6    -0.413232664424E+03    0.72857E-03   -0.56645E-03  5038   0.915E-02    0.884E-02
RMM:   7    -0.413232244290E+03    0.42013E-03   -0.10176E-03  4894   0.440E-02    0.321E-02
RMM:   8    -0.413232247149E+03   -0.28590E-05   -0.35870E-04  5939   0.216E-02    0.231E-02
RMM:   9    -0.413232240642E+03    0.65068E-05   -0.82757E-05  5081   0.111E-02    0.122E-02
RMM:  10    -0.413232236961E+03    0.36808E-05   -0.23906E-05  4939   0.603E-03    0.522E-03
RMM:  11    -0.413232236738E+03    0.22318E-06   -0.64355E-06  3228   0.326E-03
  140 T=    75. E= -.41286347E+03 F= -.41323224E+03 E0= -.41321104E+03  EK= 0.36876E+00 SP= 0.00E+00 SK= 0.00E+00
       N       E                     dE             d eps       ncg     rms          rms(c)
RMM:   1    -0.413189598966E+03    0.42638E-01   -0.40332E+00  4264   0.375E+00    0.618E-01
RMM:   2    -0.413208681515E+03   -0.19083E-01   -0.18430E-01  5467   0.396E-01    0.618E-01
RMM:   3    -0.413204462392E+03    0.42191E-02   -0.29906E-02  5427   0.185E-01    0.538E-01
RMM:   4    -0.413199263618E+03    0.51988E-02   -0.20953E-02  5253   0.174E-01    0.254E-01
RMM:   5    -0.413197770007E+03    0.14936E-02   -0.81835E-03  4748   0.121E-01    0.923E-02
RMM:   6    -0.413197669689E+03    0.10032E-03   -0.33785E-03  5301   0.690E-02    0.732E-02
RMM:   7    -0.413197432780E+03    0.23691E-03   -0.57226E-04  4840   0.325E-02    0.308E-02
RMM:   8    -0.413197434303E+03   -0.15235E-05   -0.23488E-04  5678   0.182E-02    0.183E-02
RMM:   9    -0.413197433350E+03    0.95290E-06   -0.56306E-05  5557   0.866E-03    0.124E-02
RMM:  10    -0.413197428299E+03    0.50518E-05   -0.16004E-05  4504   0.507E-03    0.449E-03
RMM:  11    -0.413197428471E+03   -0.17259E-06   -0.10063E-05  3967   0.360E-03    0.288E-03
RMM:  12    -0.413197428008E+03    0.46362E-06   -0.91773E-07  2470   0.187E-03
  141 T=    68. E= -.41286232E+03 F= -.41319743E+03 E0= -.41317614E+03  EK= 0.33511E+00 SP= 0.00E+00 SK= 0.00E+00
       N       E                     dE             d eps       ncg     rms          rms(c)
RMM:   1    -0.413353546677E+03   -0.15612E+00   -0.59443E+00  4275   0.445E+00    0.922E-01
RMM:   2    -0.413371651744E+03   -0.18105E-01   -0.25836E-01  5465   0.501E-01    0.874E-01
RMM:   3    -0.413374065942E+03   -0.24142E-02   -0.54866E-02  5421   0.251E-01    0.858E-01
RMM:   4    -0.413358118797E+03    0.15947E-01   -0.44270E-02  5232   0.248E-01    0.373E-01
RMM:   5    -0.413354985381E+03    0.31334E-02   -0.15880E-02  4614   0.175E-01    0.127E-01
RMM:   6    -0.413354578056E+03    0.40733E-03   -0.51756E-03  5262   0.875E-02    0.807E-02
RMM:   7    -0.413354306190E+03    0.27187E-03   -0.82750E-04  4911   0.383E-02    0.395E-02
RMM:   8    -0.413354289344E+03    0.16846E-04   -0.23586E-04  5226   0.202E-02    0.208E-02
RMM:   9    -0.413354292774E+03   -0.34307E-05   -0.88086E-05  5505   0.111E-02    0.134E-02
RMM:  10    -0.413354289026E+03    0.37483E-05   -0.21327E-05  4696   0.578E-03    0.586E-03
RMM:  11    -0.413354290013E+03   -0.98681E-06   -0.14520E-05  4391   0.435E-03    0.415E-03
RMM:  12    -0.413354290085E+03   -0.71690E-07   -0.15569E-06  2571   0.226E-03
  142 T=    99. E= -.41286787E+03 F= -.41335429E+03 E0= -.41333286E+03  EK= 0.48642E+00 SP= 0.00E+00 SK= 0.00E+00
       N       E                     dE             d eps       ncg     rms          rms(c)
RMM:   1    -0.413657081384E+03   -0.30279E+00   -0.12197E+01  4280   0.619E+00    0.112E+00
RMM:   2    -0.413634464728E+03    0.22617E-01   -0.48357E-01  5447   0.715E-01    0.105E+00
RMM:   3    -0.413656318331E+03   -0.21854E-01   -0.95257E-02  5541   0.331E-01    0.113E+00
RMM:   4    -0.413623201425E+03    0.33117E-01   -0.56864E-02  5215   0.279E-01    0.520E-01
RMM:   5    -0.413619261411E+03    0.39400E-02   -0.23305E-02  4414   0.220E-01    0.155E-01
RMM:   6    -0.413619001533E+03    0.25988E-03   -0.70541E-03  5312   0.102E-01    0.108E-01
RMM:   7    -0.413618468339E+03    0.53319E-03   -0.18180E-03  4942   0.539E-02    0.556E-02
RMM:   8    -0.413618416672E+03    0.51667E-04   -0.50434E-04  5318   0.296E-02    0.296E-02
RMM:   9    -0.413618420795E+03   -0.41231E-05   -0.18911E-04  5425   0.166E-02    0.187E-02
RMM:  10    -0.413618414793E+03    0.60016E-05   -0.45168E-05  5304   0.843E-03    0.832E-03
RMM:  11    -0.413618417867E+03   -0.30744E-05   -0.27265E-05  5072   0.587E-03    0.684E-03
RMM:  12    -0.413618418336E+03   -0.46914E-06   -0.36995E-06  2848   0.300E-03
  143 T=   151. E= -.41287803E+03 F= -.41361842E+03 E0= -.41359691E+03  EK= 0.74039E+00 SP= 0.00E+00 SK= 0.00E+00
       N       E                     dE             d eps       ncg     rms          rms(c)
RMM:   1    -0.413959290840E+03   -0.34087E+00   -0.19799E+01  4280   0.779E+00    0.131E+00
RMM:   2    -0.413837760726E+03    0.12153E+00   -0.70572E-01  5420   0.901E-01    0.119E+00
RMM:   3    -0.413885566209E+03   -0.47805E-01   -0.13832E-01  5621   0.397E-01    0.130E+00
RMM:   4    -0.413841506908E+03    0.44059E-01   -0.71832E-02  5219   0.296E-01    0.724E-01
RMM:   5    -0.413831569922E+03    0.99370E-02   -0.40793E-02  4395   0.285E-01    0.195E-01
RMM:   6    -0.413830499237E+03    0.10707E-02   -0.49025E-03  5101   0.977E-02    0.988E-02
RMM:   7    -0.413830340139E+03    0.15910E-03   -0.19881E-03  5208   0.536E-02    0.675E-02
RMM:   8    -0.413830182629E+03    0.15751E-03   -0.79481E-04  5209   0.367E-02    0.374E-02
RMM:   9    -0.413830186489E+03   -0.38599E-05   -0.28052E-04  5576   0.210E-02    0.253E-02
RMM:  10    -0.413830176205E+03    0.10284E-04   -0.74477E-05  5362   0.111E-02    0.988E-03
RMM:  11    -0.413830180720E+03   -0.45143E-05   -0.38582E-05  5393   0.684E-03    0.791E-03
RMM:  12    -0.413830180482E+03    0.23730E-06   -0.58370E-06  3184   0.352E-03
  144 T=   191. E= -.41289409E+03 F= -.41383018E+03 E0= -.41380873E+03  EK= 0.93609E+00 SP= 0.00E+00 SK= 0.00E+00
       N       E                     dE             d eps       ncg     rms          rms(c)
RMM:   1    -0.413947806891E+03   -0.11763E+00   -0.23065E+01  4269   0.844E+00    0.174E+00
RMM:   2    -0.413787328418E+03    0.16048E+00   -0.77322E-01  5371   0.991E-01    0.154E+00
RMM:   3    -0.413789219492E+03   -0.18911E-02   -0.12975E-01  5218   0.418E-01    0.942E-01
RMM:   4    -0.413860260749E+03   -0.71041E-01   -0.12008E-01  4914   0.411E-01    0.115E+00
RMM:   5    -0.413793250381E+03    0.67010E-01   -0.59793E-02  5067   0.268E-01    0.427E-01
RMM:   6    -0.413784031562E+03    0.92188E-02   -0.10948E-02  4838   0.148E-01    0.894E-02
RMM:   7    -0.413784080270E+03   -0.48708E-04   -0.36377E-03  5990   0.662E-02    0.615E-02
RMM:   8    -0.413784059200E+03    0.21070E-04   -0.69353E-04  5238   0.329E-02    0.311E-02
RMM:   9    -0.413784054459E+03    0.47410E-05   -0.18009E-04  5729   0.156E-02    0.140E-02
RMM:  10    -0.413784063484E+03   -0.90251E-05   -0.58886E-05  5641   0.851E-03    0.101E-02
RMM:  11    -0.413784059166E+03    0.43184E-05   -0.17802E-05  4557   0.490E-03    0.564E-03
RMM:  12    -0.413784061212E+03   -0.20462E-05   -0.34432E-06  2825   0.284E-03    0.300E-03
RMM:  13    -0.413784062923E+03   -0.17115E-05   -0.15933E-06  2557   0.213E-03    0.138E-03
RMM:  14    -0.413784064416E+03   -0.14926E-05   -0.88454E-07  2473   0.161E-03    0.648E-04
RMM:  15    -0.413784065566E+03   -0.11500E-05   -0.46322E-07  2332   0.114E-03    0.417E-04
RMM:  16    -0.413784066729E+03   -0.11632E-05   -0.26035E-07  1663   0.845E-04    0.225E-04
RMM:  17    -0.413784067970E+03   -0.12403E-05   -0.19143E-07  1329   0.738E-04    0.110E-04
RMM:  18    -0.413784068906E+03   -0.93676E-06   -0.14379E-07  1228   0.688E-04
  145 T=   182. E= -.41289018E+03 F= -.41378407E+03 E0= -.41376273E+03  EK= 0.89389E+00 SP= 0.00E+00 SK= 0.00E+00
       N       E                     dE             d eps       ncg     rms          rms(c)
RMM:   1    -0.413676903574E+03    0.10716E+00   -0.17933E+01  4264   0.766E+00    0.123E+00
RMM:   2    -0.413601238325E+03    0.75665E-01   -0.52407E-01  5376   0.829E-01    0.111E+00
RMM:   3    -0.413603067394E+03   -0.18291E-02   -0.72802E-02  5346   0.307E-01    0.747E-01
RMM:   4    -0.413751210563E+03   -0.14814E+00   -0.16052E-01  5213   0.393E-01    0.162E+00
RMM:   5    -0.413601882032E+03    0.14933E+00   -0.83486E-02  4919   0.323E-01    0.258E-01
RMM:   6    -0.413599728219E+03    0.21538E-02   -0.15125E-02  5524   0.146E-01    0.857E-02
RMM:   7    -0.413599864646E+03   -0.13643E-03   -0.35136E-03  5968   0.600E-02    0.612E-02
RMM:   8    -0.413599782866E+03    0.81780E-04   -0.85605E-04  5194   0.341E-02    0.333E-02
RMM:   9    -0.413599781435E+03    0.14309E-05   -0.22098E-04  5429   0.184E-02    0.180E-02
RMM:  10    -0.413599782350E+03   -0.91559E-06   -0.57372E-05  5637   0.857E-03    0.960E-03
RMM:  11    -0.413599784553E+03   -0.22030E-05   -0.16341E-05  4409   0.486E-03    0.487E-03
RMM:  12    -0.413599786286E+03   -0.17328E-05   -0.30878E-06  2775   0.262E-03    0.272E-03
RMM:  13    -0.413599787823E+03   -0.15364E-05   -0.86514E-07  2498   0.162E-03    0.124E-03
RMM:  14    -0.413599789750E+03   -0.19278E-05   -0.64452E-07  2420   0.127E-03    0.478E-04
RMM:  15    -0.413599791005E+03   -0.12551E-05   -0.37850E-07  1842   0.956E-04    0.306E-04
RMM:  16    -0.413599792799E+03   -0.17934E-05   -0.29763E-07  1539   0.852E-04    0.158E-04
RMM:  17    -0.413599794287E+03   -0.14885E-05   -0.22355E-07  1440   0.771E-04    0.943E-05
RMM:  18    -0.413599796261E+03   -0.19737E-05   -0.22420E-07  1546   0.756E-04    0.973E-05
RMM:  19    -0.413599797625E+03   -0.13634E-05   -0.16023E-07  1333   0.670E-04    0.810E-05
RMM:  20    -0.413599798630E+03   -0.10054E-05   -0.11141E-07  1154   0.614E-04    0.431E-05
RMM:  21    -0.413599799525E+03   -0.89470E-06   -0.83048E-08  1086   0.586E-04
  146 T=   152. E= -.41285274E+03 F= -.41359980E+03 E0= -.41357845E+03  EK= 0.74706E+00 SP= 0.00E+00 SK= 0.00E+00
       N       E                     dE             d eps       ncg     rms          rms(c)
RMM:   1    -0.413780575925E+03   -0.18078E+00   -0.15992E+01  4287   0.741E+00    0.109E+00
RMM:   2    -0.413734847871E+03    0.45728E-01   -0.41103E-01  5360   0.736E-01    0.944E-01
RMM:   3    -0.413747309969E+03   -0.12462E-01   -0.93430E-02  5530   0.335E-01    0.102E+00
RMM:   4    -0.413720008260E+03    0.27302E-01   -0.53568E-02  5168   0.278E-01    0.407E-01
RMM:   5    -0.413717243917E+03    0.27643E-02   -0.32457E-02  4984   0.224E-01    0.192E-01
RMM:   6    -0.413715794394E+03    0.14495E-02   -0.93090E-03  5166   0.123E-01    0.119E-01
RMM:   7    -0.413715356319E+03    0.43808E-03   -0.98675E-04  4529   0.472E-02    0.556E-02
RMM:   8    -0.413715361205E+03   -0.48854E-05   -0.59533E-04  5499   0.292E-02    0.294E-02
RMM:   9    -0.413715365201E+03   -0.39958E-05   -0.17216E-04  5489   0.158E-02    0.204E-02
RMM:  10    -0.413715359062E+03    0.61382E-05   -0.57657E-05  5445   0.935E-03    0.825E-03
RMM:  11    -0.413715363333E+03   -0.42702E-05   -0.24750E-05  4993   0.552E-03    0.597E-03
RMM:  12    -0.413715366198E+03   -0.28657E-05   -0.43231E-06  2945   0.315E-03    0.302E-03
RMM:  13    -0.413715367694E+03   -0.14960E-05   -0.14147E-06  2555   0.196E-03    0.133E-03
RMM:  14    -0.413715369885E+03   -0.21906E-05   -0.80625E-07  2433   0.145E-03    0.500E-04
RMM:  15    -0.413715371551E+03   -0.16664E-05   -0.45411E-07  1971   0.104E-03    0.283E-04
RMM:  16    -0.413715372970E+03   -0.14190E-05   -0.32105E-07  1801   0.888E-04    0.169E-04
RMM:  17    -0.413715373962E+03   -0.99189E-06   -0.21579E-07  1454   0.757E-04
  147 T=   171. E= -.41287743E+03 F= -.41371537E+03 E0= -.41369358E+03  EK= 0.83795E+00 SP= 0.00E+00 SK= 0.00E+00
       N       E                     dE             d eps       ncg     rms          rms(c)
RMM:   1    -0.414005033464E+03   -0.28966E+00   -0.21052E+01  4296   0.857E+00    0.182E+00
RMM:   2    -0.413972402619E+03    0.32631E-01   -0.65610E-01  5382   0.999E-01    0.188E+00
RMM:   3    -0.413911586726E+03    0.60816E-01   -0.20009E-01  5376   0.502E-01    0.157E+00
RMM:   4    -0.413874317253E+03    0.37269E-01   -0.14349E-01  5275   0.435E-01    0.754E-01
RMM:   5    -0.413868039434E+03    0.62778E-02   -0.91418E-02  5001   0.374E-01    0.374E-01
RMM:   6    -0.413861785575E+03    0.62539E-02   -0.31668E-02  5067   0.224E-01    0.189E-01
RMM:   7    -0.413860508632E+03    0.12769E-02   -0.23850E-03  4461   0.806E-02    0.753E-02
RMM:   8    -0.413860450022E+03    0.58610E-04   -0.77141E-04  5289   0.357E-02    0.416E-02
RMM:   9    -0.413860468311E+03   -0.18289E-04   -0.41770E-04  5562   0.247E-02    0.256E-02
RMM:  10    -0.413860463768E+03    0.45437E-05   -0.79122E-05  5509   0.111E-02    0.135E-02
RMM:  11    -0.413860468618E+03   -0.48505E-05   -0.45095E-05  5476   0.777E-03    0.698E-03
RMM:  12    -0.413860476103E+03   -0.74848E-05   -0.11438E-05  4013   0.451E-03    0.458E-03
RMM:  13    -0.413860479353E+03   -0.32504E-05   -0.28837E-06  2729   0.268E-03    0.212E-03
RMM:  14    -0.413860481856E+03   -0.25029E-05   -0.14112E-06  2572   0.184E-03    0.834E-04
RMM:  15    -0.413860483647E+03   -0.17908E-05   -0.91418E-07  2371   0.141E-03    0.491E-04
RMM:  16    -0.413860484936E+03   -0.12887E-05   -0.74322E-07  2211   0.117E-03    0.309E-04
RMM:  17    -0.413860485244E+03   -0.30837E-06   -0.45922E-07  1840   0.929E-04
  148 T=   197. E= -.41289111E+03 F= -.41386049E+03 E0= -.41383778E+03  EK= 0.96938E+00 SP= 0.00E+00 SK= 0.00E+00
       N       E                     dE             d eps       ncg     rms          rms(c)
RMM:   1    -0.413915329232E+03   -0.54844E-01   -0.20843E+01  4296   0.866E+00    0.139E+00
RMM:   2    -0.413917548666E+03   -0.22194E-02   -0.68384E-01  5405   0.100E+00    0.175E+00
RMM:   3    -0.413815227373E+03    0.10232E+00   -0.15778E-01  5392   0.455E-01    0.122E+00
RMM:   4    -0.413795958839E+03    0.19269E-01   -0.70784E-02  5399   0.315E-01    0.690E-01
RMM:   5    -0.413798700277E+03   -0.27414E-02   -0.61952E-02  5097   0.300E-01    0.424E-01
RMM:   6    -0.413792942969E+03    0.57573E-02   -0.34397E-02  5047   0.224E-01    0.206E-01
RMM:   7    -0.413791388203E+03    0.15548E-02   -0.34829E-03  4641   0.916E-02    0.841E-02
RMM:   8    -0.413791339382E+03    0.48821E-04   -0.11299E-03  5710   0.403E-02    0.560E-02
RMM:   9    -0.413791311136E+03    0.28245E-04   -0.46021E-04  4739   0.268E-02    0.200E-02
RMM:  10    -0.413791322226E+03   -0.11090E-04   -0.11512E-04  5729   0.130E-02    0.121E-02
RMM:  11    -0.413791327714E+03   -0.54879E-05   -0.26382E-05  5004   0.634E-03    0.747E-03
RMM:  12    -0.413791336786E+03   -0.90716E-05   -0.12459E-05  3943   0.482E-03    0.444E-03
RMM:  13    -0.413791342455E+03   -0.56695E-05   -0.33077E-06  2802   0.274E-03    0.175E-03
RMM:  14    -0.413791345896E+03   -0.34413E-05   -0.20873E-06  2656   0.197E-03    0.109E-03
RMM:  15    -0.413791348142E+03   -0.22455E-05   -0.15659E-06  2494   0.163E-03    0.607E-04
RMM:  16    -0.413791348814E+03   -0.67243E-06   -0.11258E-06  2253   0.127E-03
  149 T=   186. E= -.41287711E+03 F= -.41379135E+03 E0= -.41376841E+03  EK= 0.91424E+00 SP= 0.00E+00 SK= 0.00E+00
       N       E                     dE             d eps       ncg     rms          rms(c)
RMM:   1    -0.413726816264E+03    0.64532E-01   -0.17185E+01  4292   0.790E+00    0.937E-01
RMM:   2    -0.413723151972E+03    0.36643E-02   -0.52410E-01  5401   0.847E-01    0.124E+00
RMM:   3    -0.413671037797E+03    0.52114E-01   -0.96333E-02  5437   0.352E-01    0.848E-01
RMM:   4    -0.413659698192E+03    0.11340E-01   -0.31401E-02  5423   0.218E-01    0.509E-01
RMM:   5    -0.413661273873E+03   -0.15757E-02   -0.28093E-02  5061   0.204E-01    0.322E-01
RMM:   6    -0.413659017193E+03    0.22567E-02   -0.20294E-02  5053   0.170E-01    0.164E-01
RMM:   7    -0.413658035407E+03    0.98179E-03   -0.28575E-03  4900   0.776E-02    0.717E-02
RMM:   8    -0.413658007036E+03    0.28371E-04   -0.81856E-04  5785   0.342E-02    0.492E-02
RMM:   9    -0.413657988307E+03    0.18729E-04   -0.37099E-04  4654   0.242E-02    0.160E-02
RMM:  10    -0.413657998578E+03   -0.10271E-04   -0.91343E-05  5761   0.116E-02    0.110E-02
RMM:  11    -0.413658001563E+03   -0.29851E-05   -0.17974E-05  4468   0.538E-03    0.654E-03
RMM:  12    -0.413658007588E+03   -0.60245E-05   -0.92451E-06  3650   0.416E-03    0.385E-03
RMM:  13    -0.413658011163E+03   -0.35754E-05   -0.24852E-06  2720   0.249E-03    0.152E-03
RMM:  14    -0.413658013008E+03   -0.18447E-05   -0.18962E-06  2642   0.187E-03    0.945E-04
RMM:  15    -0.413658013561E+03   -0.55282E-06   -0.13339E-06  2436   0.150E-03
  150 T=   161. E= -.41286870E+03 F= -.41365801E+03 E0= -.41363520E+03  EK= 0.78931E+00 SP= 0.00E+00 SK= 0.00E+00
