       N       E                     dE             d eps       ncg     rms          rms(c)
RMM:   1     0.220113040356E+04    0.22011E+04   -0.52445E+04  2132   0.654E+02
RMM:   2     0.705626785334E+03   -0.14955E+04   -0.16264E+04  2132   0.177E+02
RMM:   3     0.137482209323E+03   -0.56814E+03   -0.65753E+03  2132   0.117E+02
RMM:   4    -0.159089802907E+03   -0.29657E+03   -0.27861E+03  2132   0.936E+01
RMM:   5    -0.287528712707E+03   -0.12844E+03   -0.11442E+03  2132   0.595E+01
RMM:   6    -0.349797873935E+03   -0.62269E+02   -0.55086E+02  2132   0.423E+01
RMM:   7    -0.382623128865E+03   -0.32825E+02   -0.30391E+02  2132   0.293E+01
RMM:   8    -0.404142372082E+03   -0.21519E+02   -0.18432E+02  2132   0.233E+01
RMM:   9    -0.436018838946E+03   -0.31876E+02   -0.30819E+02  6101   0.173E+01
RMM:  10    -0.441280698468E+03   -0.52619E+01   -0.62969E+01  6395   0.540E+00
RMM:  11    -0.442517552386E+03   -0.12369E+01   -0.11008E+01  6222   0.173E+00
RMM:  12    -0.442899974346E+03   -0.38242E+00   -0.28338E+00  6363   0.603E-01    0.134E+02
RMM:  13    -0.425625364268E+03    0.17275E+02   -0.81036E+01  4673   0.119E+01    0.712E+01
RMM:  14    -0.499830644972E+03   -0.74205E+02   -0.54181E+02  5419   0.233E+01    0.307E+01
RMM:  15    -0.417177242217E+03    0.82653E+02   -0.20303E+02  5119   0.164E+01    0.791E+00
RMM:  16    -0.414004375125E+03    0.31729E+01   -0.40004E+01  6096   0.616E+00    0.429E+00
RMM:  17    -0.413204607174E+03    0.79977E+00   -0.26709E+00  5422   0.192E+00    0.242E+00
RMM:  18    -0.413176464927E+03    0.28142E-01   -0.73814E-01  5989   0.879E-01    0.170E+00
RMM:  19    -0.413173821163E+03    0.26438E-02   -0.24187E-01  5676   0.540E-01    0.921E-01
RMM:  20    -0.413193759925E+03   -0.19939E-01   -0.33242E-01  5600   0.590E-01    0.685E-01
RMM:  21    -0.413168836865E+03    0.24923E-01   -0.36510E-02  4978   0.252E-01    0.324E-01
RMM:  22    -0.413164536206E+03    0.43007E-02   -0.28867E-02  5806   0.167E-01    0.137E-01
RMM:  23    -0.413163926059E+03    0.61015E-03   -0.57036E-03  6003   0.673E-02    0.849E-02
RMM:  24    -0.413162965630E+03    0.96043E-03   -0.17685E-03  5308   0.421E-02    0.554E-02
RMM:  25    -0.413162430440E+03    0.53519E-03   -0.88362E-04  4931   0.295E-02    0.442E-02
RMM:  26    -0.413162559276E+03   -0.12884E-03   -0.11774E-03  5746   0.350E-02    0.338E-02
RMM:  27    -0.413162990204E+03   -0.43093E-03   -0.20809E-04  4583   0.199E-02    0.195E-02
RMM:  28    -0.413163434993E+03   -0.44479E-03   -0.15546E-04  5023   0.170E-02    0.976E-03
RMM:  29    -0.413163833047E+03   -0.39805E-03   -0.11105E-04  4632   0.153E-02    0.434E-03
RMM:  30    -0.413164096478E+03   -0.26343E-03   -0.87146E-05  4518   0.113E-02    0.465E-03
RMM:  31    -0.413164248683E+03   -0.15221E-03   -0.60971E-05  3345   0.768E-03    0.378E-03
RMM:  32    -0.413164280591E+03   -0.31908E-04   -0.24004E-05  2998   0.331E-03    0.233E-03
RMM:  33    -0.413164296097E+03   -0.15506E-04   -0.98078E-06  2823   0.242E-03    0.806E-04
RMM:  34    -0.413164299081E+03   -0.29841E-05   -0.53076E-06  2641   0.162E-03    0.487E-04
RMM:  35    -0.413164300564E+03   -0.14831E-05   -0.23967E-06  2486   0.141E-03    0.791E-04
RMM:  36    -0.413164300410E+03    0.15414E-06   -0.38158E-06  1954   0.999E-04
    1 T=    61. E= -.41286649E+03 F= -.41316430E+03 E0= -.41314180E+03  EK= 0.29781E+00 SP= 0.00E+00 SK= 0.00E+00
       N       E                     dE             d eps       ncg     rms          rms(c)
RMM:   1    -0.413154663187E+03    0.96374E-02   -0.11189E+01  3968   0.709E-01    0.886E-01
RMM:   2    -0.413165286715E+03   -0.10624E-01   -0.13819E-01  3921   0.100E-01    0.640E-01
RMM:   3    -0.413163839149E+03    0.14476E-02   -0.62091E-03  4583   0.341E-02    0.153E-01
RMM:   4    -0.413174987056E+03   -0.11148E-01   -0.11709E-02  5216   0.906E-02    0.444E-01
RMM:   5    -0.413163662769E+03    0.11324E-01   -0.56258E-03  4868   0.737E-02    0.230E-02
RMM:   6    -0.413163725185E+03   -0.62416E-04   -0.89326E-04  5818   0.287E-02    0.137E-02
RMM:   7    -0.413163737158E+03   -0.11973E-04   -0.11340E-04  5488   0.930E-03    0.978E-03
RMM:   8    -0.413163744787E+03   -0.76285E-05   -0.13633E-05  3485   0.373E-03    0.541E-03
RMM:   9    -0.413163752365E+03   -0.75781E-05   -0.29079E-06  2651   0.224E-03    0.337E-03
RMM:  10    -0.413163760177E+03   -0.78117E-05   -0.14349E-06  2529   0.169E-03    0.181E-03
RMM:  11    -0.413163767379E+03   -0.72026E-05   -0.10852E-06  2509   0.141E-03    0.718E-04
RMM:  12    -0.413163770429E+03   -0.30499E-05   -0.54275E-07  2141   0.102E-03    0.303E-04
RMM:  13    -0.413163772223E+03   -0.17934E-05   -0.33222E-07  1531   0.789E-04    0.183E-04
RMM:  14    -0.413163774668E+03   -0.24451E-05   -0.28331E-07  1392   0.739E-04    0.130E-04
RMM:  15    -0.413163775950E+03   -0.12827E-05   -0.20653E-07  1200   0.671E-04    0.598E-05
RMM:  16    -0.413163776742E+03   -0.79207E-06   -0.15983E-07  1164   0.641E-04
    2 T=    61. E= -.41286605E+03 F= -.41316378E+03 E0= -.41314128E+03  EK= 0.29772E+00 SP= 0.00E+00 SK= 0.00E+00
       N       E                     dE             d eps       ncg     rms          rms(c)
RMM:   1    -0.413155500623E+03    0.82753E-02   -0.11221E+01  4190   0.704E-01    0.911E-01
RMM:   2    -0.413165454932E+03   -0.99543E-02   -0.13536E-01  3909   0.962E-02    0.633E-01
RMM:   3    -0.413164764346E+03    0.69059E-03   -0.67527E-03  4863   0.389E-02    0.171E-01
RMM:   4    -0.413195028862E+03   -0.30265E-01   -0.30685E-02  5187   0.146E-01    0.724E-01
RMM:   5    -0.413164333517E+03    0.30695E-01   -0.14913E-02  4826   0.121E-01    0.371E-02
RMM:   6    -0.413164520544E+03   -0.18703E-03   -0.23820E-03  5792   0.476E-02    0.184E-02
RMM:   7    -0.413164534097E+03   -0.13553E-04   -0.28557E-04  5893   0.140E-02    0.137E-02
RMM:   8    -0.413164535310E+03   -0.12128E-05   -0.36653E-05  4408   0.525E-03    0.870E-03
RMM:   9    -0.413164534817E+03    0.49302E-06   -0.56251E-06  2943   0.267E-03
    3 T=    61. E= -.41286654E+03 F= -.41316453E+03 E0= -.41314204E+03  EK= 0.29799E+00 SP= 0.00E+00 SK= 0.00E+00
       N       E                     dE             d eps       ncg     rms          rms(c)
RMM:   1    -0.413154958347E+03    0.95770E-02   -0.11134E+01  4230   0.705E-01    0.894E-01
RMM:   2    -0.413165641168E+03   -0.10683E-01   -0.13420E-01  4165   0.994E-02    0.627E-01
RMM:   3    -0.413167625437E+03   -0.19843E-02   -0.89445E-03  5168   0.648E-02    0.291E-01
RMM:   4    -0.413194788487E+03   -0.27163E-01   -0.41097E-02  5139   0.171E-01    0.727E-01
RMM:   5    -0.413164141260E+03    0.30647E-01   -0.13017E-02  4741   0.121E-01    0.533E-02
RMM:   6    -0.413164202346E+03   -0.61086E-04   -0.21794E-03  5594   0.467E-02    0.159E-02
RMM:   7    -0.413164227088E+03   -0.24742E-04   -0.30709E-04  6036   0.150E-02    0.118E-02
RMM:   8    -0.413164230314E+03   -0.32266E-05   -0.38981E-05  4672   0.550E-03    0.744E-03
RMM:   9    -0.413164232526E+03   -0.22121E-05   -0.67108E-06  3064   0.355E-03    0.358E-03
RMM:  10    -0.413164234723E+03   -0.21969E-05   -0.19755E-06  2559   0.219E-03    0.215E-03
RMM:  11    -0.413164236965E+03   -0.22421E-05   -0.99660E-07  2536   0.156E-03    0.995E-04
RMM:  12    -0.413164238128E+03   -0.11622E-05   -0.46231E-07  2092   0.104E-03    0.448E-04
RMM:  13    -0.413164239432E+03   -0.13041E-05   -0.38394E-07  1803   0.891E-04    0.221E-04
RMM:  14    -0.413164240028E+03   -0.59630E-06   -0.21278E-07  1372   0.726E-04
    4 T=    61. E= -.41286627E+03 F= -.41316424E+03 E0= -.41314175E+03  EK= 0.29797E+00 SP= 0.00E+00 SK= 0.00E+00
       N       E                     dE             d eps       ncg     rms          rms(c)
RMM:   1    -0.413154754108E+03    0.94853E-02   -0.11173E+01  4237   0.711E-01    0.884E-01
RMM:   2    -0.413165775085E+03   -0.11021E-01   -0.13834E-01  4013   0.968E-02    0.639E-01
RMM:   3    -0.413164679823E+03    0.10953E-02   -0.63189E-03  4939   0.366E-02    0.167E-01
RMM:   4    -0.413196508905E+03   -0.31829E-01   -0.32536E-02  5164   0.151E-01    0.743E-01
RMM:   5    -0.413164110840E+03    0.32398E-01   -0.15630E-02  4814   0.124E-01    0.367E-02
RMM:   6    -0.413164308165E+03   -0.19732E-03   -0.25122E-03  5771   0.487E-02    0.164E-02
RMM:   7    -0.413164328580E+03   -0.20415E-04   -0.29593E-04  5883   0.141E-02    0.131E-02
RMM:   8    -0.413164333766E+03   -0.51859E-05   -0.36437E-05  4366   0.522E-03    0.835E-03
RMM:   9    -0.413164338330E+03   -0.45645E-05   -0.55449E-06  2912   0.270E-03    0.570E-03
RMM:  10    -0.413164345478E+03   -0.71478E-05   -0.22588E-06  2571   0.219E-03    0.276E-03
RMM:  11    -0.413164351457E+03   -0.59789E-05   -0.14913E-06  2544   0.179E-03    0.136E-03
RMM:  12    -0.413164354875E+03   -0.34178E-05   -0.72887E-07  2436   0.133E-03    0.490E-04
RMM:  13    -0.413164356301E+03   -0.14262E-05   -0.33273E-07  2005   0.933E-04    0.306E-04
RMM:  14    -0.413164357974E+03   -0.16737E-05   -0.23292E-07  1577   0.790E-04    0.183E-04
RMM:  15    -0.413164359726E+03   -0.17516E-05   -0.21095E-07  1468   0.743E-04    0.132E-04
RMM:  16    -0.413164360091E+03   -0.36533E-06   -0.96415E-08  1083   0.632E-04
    5 T=    61. E= -.41286624E+03 F= -.41316436E+03 E0= -.41314188E+03  EK= 0.29812E+00 SP= 0.00E+00 SK= 0.00E+00
       N       E                     dE             d eps       ncg     rms          rms(c)
RMM:   1    -0.413155735015E+03    0.86247E-02   -0.11229E+01  4248   0.716E-01    0.907E-01
RMM:   2    -0.413166128966E+03   -0.10394E-01   -0.13536E-01  4029   0.976E-02    0.635E-01
RMM:   3    -0.413165186203E+03    0.94276E-03   -0.65330E-03  4831   0.375E-02    0.169E-01
RMM:   4    -0.413193356981E+03   -0.28171E-01   -0.28452E-02  5160   0.140E-01    0.700E-01
RMM:   5    -0.413164773266E+03    0.28584E-01   -0.13974E-02  4825   0.117E-01    0.353E-02
RMM:   6    -0.413164947855E+03   -0.17459E-03   -0.21916E-03  5773   0.454E-02    0.178E-02
RMM:   7    -0.413164960124E+03   -0.12269E-04   -0.26044E-04  5851   0.133E-02    0.132E-02
RMM:   8    -0.413164961485E+03   -0.13617E-05   -0.32836E-05  4317   0.507E-03    0.837E-03
RMM:   9    -0.413164961358E+03    0.12756E-06   -0.52586E-06  2888   0.266E-03
    6 T=    61. E= -.41286647E+03 F= -.41316496E+03 E0= -.41314250E+03  EK= 0.29849E+00 SP= 0.00E+00 SK= 0.00E+00
       N       E                     dE             d eps       ncg     rms          rms(c)
RMM:   1    -0.413155469254E+03    0.94922E-02   -0.11173E+01  4267   0.725E-01    0.902E-01
RMM:   2    -0.413165339026E+03   -0.98698E-02   -0.13485E-01  4232   0.997E-02    0.628E-01
RMM:   3    -0.413167590174E+03   -0.22511E-02   -0.89615E-03  5142   0.630E-02    0.284E-01
RMM:   4    -0.413195837873E+03   -0.28248E-01   -0.41282E-02  5123   0.171E-01    0.736E-01
RMM:   5    -0.413164386139E+03    0.31452E-01   -0.13463E-02  4750   0.122E-01    0.529E-02
RMM:   6    -0.413164456146E+03   -0.70008E-04   -0.22221E-03  5611   0.471E-02    0.160E-02
RMM:   7    -0.413164480129E+03   -0.23982E-04   -0.30867E-04  6041   0.150E-02    0.119E-02
RMM:   8    -0.413164482043E+03   -0.19149E-05   -0.38708E-05  4636   0.547E-03    0.749E-03
RMM:   9    -0.413164481044E+03    0.99955E-06   -0.64240E-06  2973   0.346E-03
    7 T=    61. E= -.41286597E+03 F= -.41316448E+03 E0= -.41314203E+03  EK= 0.29851E+00 SP= 0.00E+00 SK= 0.00E+00
       N       E                     dE             d eps       ncg     rms          rms(c)
RMM:   1    -0.413155499829E+03    0.89822E-02   -0.11168E+01  4287   0.726E-01    0.883E-01
RMM:   2    -0.413166571700E+03   -0.11072E-01   -0.13758E-01  4143   0.959E-02    0.636E-01
RMM:   3    -0.413165290940E+03    0.12808E-02   -0.61097E-03  4295   0.315E-02    0.153E-01
RMM:   4    -0.413170537086E+03   -0.52461E-02   -0.56297E-03  5179   0.630E-02    0.307E-01
RMM:   5    -0.413165265502E+03    0.52716E-02   -0.26361E-03  4830   0.508E-02    0.186E-02
RMM:   6    -0.413165267938E+03   -0.24366E-05   -0.41516E-04  5787   0.210E-02    0.114E-02
RMM:   7    -0.413165278765E+03   -0.10826E-04   -0.46677E-05  4671   0.650E-03    0.665E-03
RMM:   8    -0.413165284018E+03   -0.52533E-05   -0.50429E-06  2905   0.267E-03    0.394E-03
RMM:   9    -0.413165290431E+03   -0.64132E-05   -0.19920E-06  2550   0.199E-03    0.224E-03
RMM:  10    -0.413165291923E+03   -0.14912E-05   -0.71232E-07  2425   0.137E-03    0.144E-03
RMM:  11    -0.413165296606E+03   -0.46835E-05   -0.10487E-06  2489   0.144E-03    0.737E-04
RMM:  12    -0.413165298683E+03   -0.20768E-05   -0.52812E-07  2210   0.105E-03    0.426E-04
RMM:  13    -0.413165298999E+03   -0.31625E-06   -0.17956E-07  1398   0.726E-04
    8 T=    61. E= -.41286645E+03 F= -.41316530E+03 E0= -.41314287E+03  EK= 0.29884E+00 SP= 0.00E+00 SK= 0.00E+00
       N       E                     dE             d eps       ncg     rms          rms(c)
RMM:   1    -0.413156010618E+03    0.92881E-02   -0.11237E+01  4287   0.729E-01    0.901E-01
RMM:   2    -0.413166490207E+03   -0.10480E-01   -0.13679E-01  4163   0.101E-01    0.638E-01
RMM:   3    -0.413165733897E+03    0.75631E-03   -0.66031E-03  4887   0.403E-02    0.175E-01
RMM:   4    -0.413201856521E+03   -0.36123E-01   -0.37173E-02  5156   0.160E-01    0.791E-01
RMM:   5    -0.413165047177E+03    0.36809E-01   -0.17862E-02  4799   0.132E-01    0.398E-02
RMM:   6    -0.413165259899E+03   -0.21272E-03   -0.28616E-03  5783   0.518E-02    0.179E-02
RMM:   7    -0.413165277659E+03   -0.17760E-04   -0.33975E-04  5915   0.149E-02    0.140E-02
RMM:   8    -0.413165279039E+03   -0.13803E-05   -0.41041E-05  4444   0.548E-03    0.902E-03
RMM:   9    -0.413165278850E+03    0.18898E-06   -0.64324E-06  2976   0.277E-03
    9 T=    61. E= -.41286623E+03 F= -.41316528E+03 E0= -.41314287E+03  EK= 0.29905E+00 SP= 0.00E+00 SK= 0.00E+00
       N       E                     dE             d eps       ncg     rms          rms(c)
RMM:   1    -0.413156481462E+03    0.87976E-02   -0.11221E+01  4295   0.734E-01    0.909E-01
RMM:   2    -0.413166196689E+03   -0.97152E-02   -0.13487E-01  4276   0.972E-02    0.629E-01
RMM:   3    -0.413169102775E+03   -0.29061E-02   -0.95791E-03  5134   0.672E-02    0.303E-01
RMM:   4    -0.413193488545E+03   -0.24386E-01   -0.38985E-02  5110   0.167E-01    0.699E-01
RMM:   5    -0.413165422790E+03    0.28066E-01   -0.11752E-02  4734   0.116E-01    0.520E-02
RMM:   6    -0.413165470679E+03   -0.47889E-04   -0.19701E-03  5579   0.442E-02    0.167E-02
RMM:   7    -0.413165489825E+03   -0.19146E-04   -0.27677E-04  6040   0.146E-02    0.120E-02
RMM:   8    -0.413165490409E+03   -0.58394E-06   -0.35097E-05  4610   0.538E-03    0.744E-03
RMM:   9    -0.413165487090E+03    0.33190E-05   -0.67356E-06  3047   0.364E-03    0.358E-03
RMM:  10    -0.413165485829E+03    0.12604E-05   -0.18878E-06  2549   0.217E-03    0.213E-03
RMM:  11    -0.413165484441E+03    0.13877E-05   -0.97330E-07  2524   0.155E-03    0.976E-04
RMM:  12    -0.413165483541E+03    0.90003E-06   -0.45600E-07  2128   0.105E-03
   10 T=    61. E= -.41286618E+03 F= -.41316548E+03 E0= -.41314310E+03  EK= 0.29930E+00 SP= 0.00E+00 SK= 0.00E+00
       N       E                     dE             d eps       ncg     rms          rms(c)
RMM:   1    -0.413156575917E+03    0.89085E-02   -0.11172E+01  4293   0.736E-01    0.885E-01
RMM:   2    -0.413167673661E+03   -0.11098E-01   -0.13658E-01  4187   0.961E-02    0.634E-01
RMM:   3    -0.413166559980E+03    0.11137E-02   -0.61955E-03  4896   0.390E-02    0.169E-01
RMM:   4    -0.413197409258E+03   -0.30849E-01   -0.31414E-02  5154   0.147E-01    0.732E-01
RMM:   5    -0.413165977475E+03    0.31432E-01   -0.15362E-02  4806   0.122E-01    0.358E-02
RMM:   6    -0.413166171595E+03   -0.19412E-03   -0.24612E-03  5791   0.476E-02    0.173E-02
RMM:   7    -0.413166187593E+03   -0.15999E-04   -0.28529E-04  5855   0.139E-02    0.133E-02
RMM:   8    -0.413166189919E+03   -0.23259E-05   -0.36684E-05  4416   0.529E-03    0.881E-03
RMM:   9    -0.413166190485E+03   -0.56579E-06   -0.58175E-06  2943   0.277E-03
   11 T=    61. E= -.41286645E+03 F= -.41316619E+03 E0= -.41314383E+03  EK= 0.29974E+00 SP= 0.00E+00 SK= 0.00E+00
       N       E                     dE             d eps       ncg     rms          rms(c)
RMM:   1    -0.413156623339E+03    0.95666E-02   -0.11252E+01  4298   0.744E-01    0.896E-01
RMM:   2    -0.413167284612E+03   -0.10661E-01   -0.13831E-01  4292   0.995E-02    0.641E-01
RMM:   3    -0.413169984715E+03   -0.27001E-02   -0.94843E-03  5142   0.683E-02    0.309E-01
RMM:   4    -0.413197162075E+03   -0.27177E-01   -0.43397E-02  5109   0.175E-01    0.733E-01
RMM:   5    -0.413165909957E+03    0.31252E-01   -0.13067E-02  4725   0.121E-01    0.529E-02
RMM:   6    -0.413165972548E+03   -0.62590E-04   -0.21956E-03  5602   0.464E-02    0.148E-02
RMM:   7    -0.413165997908E+03   -0.25361E-04   -0.30025E-04  6031   0.150E-02    0.114E-02
RMM:   8    -0.413166001217E+03   -0.33084E-05   -0.37949E-05  4633   0.543E-03    0.715E-03
RMM:   9    -0.413166003694E+03   -0.24773E-05   -0.67307E-06  3041   0.358E-03    0.371E-03
RMM:  10    -0.413166005629E+03   -0.19350E-05   -0.20656E-06  2553   0.221E-03    0.221E-03
RMM:  11    -0.413166007330E+03   -0.17009E-05   -0.11559E-06  2548   0.160E-03    0.100E-03
RMM:  12    -0.413166008109E+03   -0.77892E-06   -0.48260E-07  2204   0.107E-03
   12 T=    61. E= -.41286599E+03 F= -.41316601E+03 E0= -.41314368E+03  EK= 0.30001E+00 SP= 0.00E+00 SK= 0.00E+00
       N       E                     dE             d eps       ncg     rms          rms(c)
RMM:   1    -0.413157651445E+03    0.83559E-02   -0.11279E+01  4298   0.748E-01    0.915E-01
RMM:   2    -0.413167581934E+03   -0.99305E-02   -0.13509E-01  4220   0.944E-02    0.631E-01
RMM:   3    -0.413167065567E+03    0.51637E-03   -0.67791E-03  4943   0.375E-02    0.176E-01
RMM:   4    -0.413199461313E+03   -0.32396E-01   -0.32988E-02  5149   0.151E-01    0.749E-01
RMM:   5    -0.413166560293E+03    0.32901E-01   -0.16086E-02  4804   0.125E-01    0.382E-02
RMM:   6    -0.413166753546E+03   -0.19325E-03   -0.25526E-03  5800   0.488E-02    0.193E-02
RMM:   7    -0.413166764361E+03   -0.10815E-04   -0.30082E-04  5877   0.142E-02    0.142E-02
RMM:   8    -0.413166762741E+03    0.16195E-05   -0.38748E-05  4481   0.543E-03    0.935E-03
RMM:   9    -0.413166758464E+03    0.42770E-05   -0.61343E-06  2958   0.278E-03    0.638E-03
RMM:  10    -0.413166754120E+03    0.43439E-05   -0.21891E-06  2552   0.218E-03    0.310E-03
RMM:  11    -0.413166750937E+03    0.31831E-05   -0.15935E-06  2535   0.189E-03    0.152E-03
RMM:  12    -0.413166748509E+03    0.24286E-05   -0.78637E-07  2443   0.141E-03    0.505E-04
RMM:  13    -0.413166747654E+03    0.85466E-06   -0.33398E-07  2095   0.965E-04
   13 T=    61. E= -.41286616E+03 F= -.41316675E+03 E0= -.41314445E+03  EK= 0.30058E+00 SP= 0.00E+00 SK= 0.00E+00
       N       E                     dE             d eps       ncg     rms          rms(c)
RMM:   1    -0.413157664597E+03    0.90839E-02   -0.11195E+01  4295   0.750E-01    0.889E-01
RMM:   2    -0.413168347348E+03   -0.10683E-01   -0.13707E-01  4232   0.961E-02    0.632E-01
RMM:   3    -0.413167500746E+03    0.84660E-03   -0.62892E-03  4849   0.371E-02    0.169E-01
RMM:   4    -0.413196041462E+03   -0.28541E-01   -0.29014E-02  5144   0.142E-01    0.705E-01
RMM:   5    -0.413167002269E+03    0.29039E-01   -0.14240E-02  4805   0.117E-01    0.343E-02
RMM:   6    -0.413167177555E+03   -0.17529E-03   -0.22348E-03  5800   0.456E-02    0.171E-02
RMM:   7    -0.413167188293E+03   -0.10738E-04   -0.25903E-04  5820   0.133E-02    0.129E-02
RMM:   8    -0.413167188706E+03   -0.41245E-06   -0.33328E-05  4335   0.511E-03    0.848E-03
RMM:   9    -0.413167186920E+03    0.17858E-05   -0.52775E-06  2891   0.269E-03    0.582E-03
RMM:  10    -0.413167186067E+03    0.85324E-06   -0.20545E-06  2556   0.214E-03
   14 T=    61. E= -.41286614E+03 F= -.41316719E+03 E0= -.41314492E+03  EK= 0.30104E+00 SP= 0.00E+00 SK= 0.00E+00
       N       E                     dE             d eps       ncg     rms          rms(c)
RMM:   1    -0.413157661591E+03    0.95253E-02   -0.11284E+01  4304   0.757E-01    0.892E-01
RMM:   2    -0.413169076600E+03   -0.11415E-01   -0.13955E-01  4287   0.999E-02    0.643E-01
RMM:   3    -0.413170873103E+03   -0.17965E-02   -0.89227E-03  5126   0.651E-02    0.293E-01
RMM:   4    -0.413202490892E+03   -0.31618E-01   -0.46233E-02  5107   0.180E-01    0.775E-01
RMM:   5    -0.413167333952E+03    0.35157E-01   -0.15061E-02  4734   0.128E-01    0.509E-02
RMM:   6    -0.413167431787E+03   -0.97835E-04   -0.24417E-03  5635   0.490E-02    0.140E-02
RMM:   7    -0.413167458019E+03   -0.26232E-04   -0.31719E-04  6019   0.149E-02    0.113E-02
RMM:   8    -0.413167461515E+03   -0.34966E-05   -0.38560E-05  4576   0.543E-03    0.695E-03
RMM:   9    -0.413167463607E+03   -0.20921E-05   -0.59377E-06  2873   0.319E-03    0.343E-03
RMM:  10    -0.413167465457E+03   -0.18500E-05   -0.22436E-06  2560   0.215E-03    0.201E-03
RMM:  11    -0.413167466723E+03   -0.12658E-05   -0.10274E-06  2536   0.148E-03    0.855E-04
RMM:  12    -0.413167467378E+03   -0.65466E-06   -0.47826E-07  1924   0.102E-03
   15 T=    61. E= -.41286608E+03 F= -.41316747E+03 E0= -.41314523E+03  EK= 0.30139E+00 SP= 0.00E+00 SK= 0.00E+00
       N       E                     dE             d eps       ncg     rms          rms(c)
RMM:   1    -0.413159394929E+03    0.80718E-02   -0.11329E+01  4302   0.766E-01    0.916E-01
RMM:   2    -0.413169322126E+03   -0.99272E-02   -0.13652E-01  4246   0.996E-02    0.635E-01
RMM:   3    -0.413168741047E+03    0.58108E-03   -0.67680E-03  4921   0.386E-02    0.176E-01
RMM:   4    -0.413201834620E+03   -0.33094E-01   -0.33877E-02  5150   0.153E-01    0.757E-01
RMM:   5    -0.413168159422E+03    0.33675E-01   -0.16476E-02  4804   0.127E-01    0.383E-02
RMM:   6    -0.413168351613E+03   -0.19219E-03   -0.26194E-03  5798   0.493E-02    0.191E-02
RMM:   7    -0.413168360909E+03   -0.92961E-05   -0.30517E-04  5874   0.145E-02    0.142E-02
RMM:   8    -0.413168358312E+03    0.25969E-05   -0.39241E-05  4511   0.549E-03    0.944E-03
RMM:   9    -0.413168353068E+03    0.52433E-05   -0.61364E-06  2956   0.281E-03    0.649E-03
RMM:  10    -0.413168347810E+03    0.52586E-05   -0.21996E-06  2555   0.223E-03    0.318E-03
RMM:  11    -0.413168343802E+03    0.40080E-05   -0.16292E-06  2533   0.192E-03    0.156E-03
RMM:  12    -0.413168340804E+03    0.29977E-05   -0.77013E-07  2444   0.143E-03    0.512E-04
RMM:  13    -0.413168339734E+03    0.10707E-05   -0.33753E-07  2116   0.975E-04    0.327E-04
RMM:  14    -0.413168338343E+03    0.13901E-05   -0.19540E-07  1616   0.776E-04    0.189E-04
RMM:  15    -0.413168335753E+03    0.25900E-05   -0.19312E-07  1543   0.754E-04    0.153E-04
RMM:  16    -0.413168335157E+03    0.59608E-06   -0.76338E-08  1042   0.615E-04
   16 T=    61. E= -.41286636E+03 F= -.41316834E+03 E0= -.41314614E+03  EK= 0.30197E+00 SP= 0.00E+00 SK= 0.00E+00
       N       E                     dE             d eps       ncg     rms          rms(c)
RMM:   1    -0.413159291688E+03    0.90441E-02   -0.11239E+01  4296   0.760E-01    0.896E-01
RMM:   2    -0.413169977855E+03   -0.10686E-01   -0.13729E-01  4251   0.979E-02    0.631E-01
RMM:   3    -0.413169092865E+03    0.88499E-03   -0.64103E-03  4899   0.408E-02    0.177E-01
RMM:   4    -0.413203946554E+03   -0.34854E-01   -0.35714E-02  5150   0.157E-01    0.776E-01
RMM:   5    -0.413168574992E+03    0.35372E-01   -0.17392E-02  4800   0.130E-01    0.384E-02
RMM:   6    -0.413168773314E+03   -0.19832E-03   -0.27232E-03  5775   0.505E-02    0.185E-02
RMM:   7    -0.413168785464E+03   -0.12151E-04   -0.31744E-04  5879   0.147E-02    0.140E-02
RMM:   8    -0.413168784328E+03    0.11366E-05   -0.40322E-05  4482   0.547E-03    0.921E-03
RMM:   9    -0.413168780594E+03    0.37339E-05   -0.63746E-06  2978   0.278E-03    0.638E-03
RMM:  10    -0.413168777127E+03    0.34672E-05   -0.22223E-06  2552   0.222E-03    0.308E-03
RMM:  11    -0.413168774845E+03    0.22819E-05   -0.15636E-06  2525   0.189E-03    0.153E-03
RMM:  12    -0.413168773106E+03    0.17390E-05   -0.75200E-07  2442   0.141E-03    0.514E-04
RMM:  13    -0.413168772452E+03    0.65376E-06   -0.33464E-07  2103   0.971E-04
   17 T=    62. E= -.41286627E+03 F= -.41316877E+03 E0= -.41314661E+03  EK= 0.30251E+00 SP= 0.00E+00 SK= 0.00E+00
       N       E                     dE             d eps       ncg     rms          rms(c)
RMM:   1    -0.413159523800E+03    0.92493E-02   -0.11321E+01  4297   0.769E-01    0.890E-01
RMM:   2    -0.413171068165E+03   -0.11544E-01   -0.13987E-01  4263   0.101E-01    0.643E-01
RMM:   3    -0.413169705137E+03    0.13630E-02   -0.62541E-03  4883   0.385E-02    0.171E-01
RMM:   4    -0.413202231004E+03   -0.32526E-01   -0.33388E-02  5153   0.152E-01    0.751E-01
RMM:   5    -0.413169105050E+03    0.33126E-01   -0.16261E-02  4800   0.125E-01    0.363E-02
RMM:   6    -0.413169292183E+03   -0.18713E-03   -0.25574E-03  5793   0.490E-02    0.172E-02
RMM:   7    -0.413169306274E+03   -0.14092E-04   -0.29254E-04  5853   0.142E-02    0.133E-02
RMM:   8    -0.413169307366E+03   -0.10915E-05   -0.38003E-05  4451   0.536E-03    0.883E-03
RMM:   9    -0.413169306365E+03    0.10010E-05   -0.60503E-06  2958   0.280E-03    0.609E-03
RMM:  10    -0.413169306809E+03   -0.44419E-06   -0.22725E-06  2562   0.224E-03
   18 T=    62. E= -.41286613E+03 F= -.41316931E+03 E0= -.41314719E+03  EK= 0.30318E+00 SP= 0.00E+00 SK= 0.00E+00
       N       E                     dE             d eps       ncg     rms          rms(c)
RMM:   1    -0.413161247789E+03    0.80586E-02   -0.11383E+01  4304   0.773E-01    0.915E-01
RMM:   2    -0.413171417479E+03   -0.10170E-01   -0.13846E-01  4310   0.998E-02    0.639E-01
RMM:   3    -0.413174423051E+03   -0.30056E-02   -0.97534E-03  5134   0.683E-02    0.314E-01
RMM:   4    -0.413199060024E+03   -0.24637E-01   -0.40922E-02  5094   0.170E-01    0.706E-01
RMM:   5    -0.413170297643E+03    0.28762E-01   -0.11942E-02  4706   0.117E-01    0.497E-02
RMM:   6    -0.413170351259E+03   -0.53616E-04   -0.20166E-03  5580   0.443E-02    0.159E-02
RMM:   7    -0.413170366077E+03   -0.14818E-04   -0.26677E-04  6003   0.140E-02    0.115E-02
RMM:   8    -0.413170364229E+03    0.18481E-05   -0.32849E-05  4472   0.518E-03    0.698E-03
RMM:   9    -0.413170356995E+03    0.72338E-05   -0.55265E-06  2822   0.329E-03    0.332E-03
RMM:  10    -0.413170353305E+03    0.36902E-05   -0.18453E-06  2536   0.206E-03    0.190E-03
RMM:  11    -0.413170349580E+03    0.37250E-05   -0.83487E-07  2511   0.144E-03    0.859E-04
RMM:  12    -0.413170347413E+03    0.21668E-05   -0.42032E-07  1943   0.101E-03    0.434E-04
RMM:  13    -0.413170344685E+03    0.27276E-05   -0.32172E-07  1854   0.901E-04    0.238E-04
RMM:  14    -0.413170343259E+03    0.14263E-05   -0.17795E-07  1395   0.721E-04    0.141E-04
RMM:  15    -0.413170340493E+03    0.27659E-05   -0.19050E-07  1550   0.737E-04    0.927E-05
RMM:  16    -0.413170338727E+03    0.17667E-05   -0.11687E-07  1232   0.639E-04    0.759E-05
RMM:  17    -0.413170336593E+03    0.21331E-05   -0.10461E-07  1255   0.632E-04    0.450E-05
RMM:  18    -0.413170334802E+03    0.17918E-05   -0.68832E-08  1044   0.580E-04    0.249E-05
RMM:  19    -0.413170334462E+03    0.33974E-06   -0.32699E-08   816   0.531E-04
   19 T=    62. E= -.41286623E+03 F= -.41317033E+03 E0= -.41314826E+03  EK= 0.30410E+00 SP= 0.00E+00 SK= 0.00E+00
       N       E                     dE             d eps       ncg     rms          rms(c)
RMM:   1    -0.413162180508E+03    0.81543E-02   -0.11342E+01  4296   0.793E-01    0.905E-01
RMM:   2    -0.413172067608E+03   -0.98871E-02   -0.13756E-01  4265   0.101E-01    0.632E-01
RMM:   3    -0.413171462885E+03    0.60472E-03   -0.65951E-03  4952   0.414E-02    0.187E-01
RMM:   4    -0.413211115892E+03   -0.39653E-01   -0.41489E-02  5147   0.169E-01    0.827E-01
RMM:   5    -0.413170737100E+03    0.40379E-01   -0.19745E-02  4793   0.139E-01    0.423E-02
RMM:   6    -0.413170947507E+03   -0.21041E-03   -0.31394E-03  5755   0.543E-02    0.192E-02
RMM:   7    -0.413170962327E+03   -0.14819E-04   -0.37111E-04  5868   0.157E-02    0.147E-02
RMM:   8    -0.413170960079E+03    0.22482E-05   -0.45901E-05  4601   0.580E-03    0.968E-03
RMM:   9    -0.413170954683E+03    0.53951E-05   -0.70430E-06  3027   0.286E-03    0.664E-03
RMM:  10    -0.413170948895E+03    0.57880E-05   -0.24204E-06  2559   0.230E-03    0.316E-03
RMM:  11    -0.413170944945E+03    0.39502E-05   -0.15509E-06  2521   0.191E-03    0.155E-03
RMM:  12    -0.413170942104E+03    0.28415E-05   -0.77212E-07  2448   0.144E-03    0.507E-04
RMM:  13    -0.413170941101E+03    0.10023E-05   -0.34215E-07  2141   0.995E-04    0.334E-04
RMM:  14    -0.413170939913E+03    0.11884E-05   -0.18606E-07  1636   0.778E-04    0.196E-04
RMM:  15    -0.413170937508E+03    0.24047E-05   -0.16417E-07  1527   0.740E-04    0.137E-04
RMM:  16    -0.413170936985E+03    0.52343E-06   -0.68635E-08  1029   0.613E-04
   20 T=    62. E= -.41286603E+03 F= -.41317094E+03 E0= -.41314890E+03  EK= 0.30491E+00 SP= 0.00E+00 SK= 0.00E+00
       N       E                     dE             d eps       ncg     rms          rms(c)
RMM:   1    -0.413162456273E+03    0.84812E-02   -0.11383E+01  4295   0.791E-01    0.891E-01
RMM:   2    -0.413173303184E+03   -0.10847E-01   -0.14173E-01  4269   0.103E-01    0.644E-01
RMM:   3    -0.413172220273E+03    0.10829E-02   -0.63677E-03  4913   0.405E-02    0.177E-01
RMM:   4    -0.413209400001E+03   -0.37180E-01   -0.38534E-02  5142   0.163E-01    0.801E-01
RMM:   5    -0.413171505350E+03    0.37895E-01   -0.18625E-02  4798   0.135E-01    0.391E-02
RMM:   6    -0.413171711548E+03   -0.20620E-03   -0.29722E-03  5788   0.529E-02    0.178E-02
RMM:   7    -0.413171729229E+03   -0.17682E-04   -0.34633E-04  5882   0.152E-02    0.140E-02
RMM:   8    -0.413171729343E+03   -0.11357E-06   -0.43836E-05  4553   0.567E-03    0.936E-03
RMM:   9    -0.413171726950E+03    0.23930E-05   -0.68052E-06  3004   0.286E-03    0.655E-03
RMM:  10    -0.413171725623E+03    0.13275E-05   -0.24074E-06  2569   0.232E-03    0.320E-03
RMM:  11    -0.413171724994E+03    0.62850E-06   -0.16979E-06  2533   0.196E-03
   21 T=    62. E= -.41286596E+03 F= -.41317172E+03 E0= -.41314974E+03  EK= 0.30577E+00 SP= 0.00E+00 SK= 0.00E+00
       N       E                     dE             d eps       ncg     rms          rms(c)
RMM:   1    -0.413163291027E+03    0.84346E-02   -0.11459E+01  4297   0.787E-01    0.912E-01
RMM:   2    -0.413174108384E+03   -0.10817E-01   -0.14048E-01  4297   0.100E-01    0.643E-01
RMM:   3    -0.413174127443E+03   -0.19060E-04   -0.71745E-03  5041   0.486E-02    0.215E-01
RMM:   4    -0.413219659290E+03   -0.45532E-01   -0.50999E-02  5135   0.187E-01    0.889E-01
RMM:   5    -0.413172775507E+03    0.46884E-01   -0.22345E-02  4781   0.150E-01    0.469E-02
RMM:   6    -0.413172985998E+03   -0.21049E-03   -0.34949E-03  5743   0.585E-02    0.183E-02
RMM:   7    -0.413173007854E+03   -0.21855E-04   -0.42546E-04  5953   0.169E-02    0.149E-02
RMM:   8    -0.413173006277E+03    0.15766E-05   -0.52682E-05  4763   0.612E-03    0.971E-03
RMM:   9    -0.413173000895E+03    0.53825E-05   -0.75680E-06  3031   0.294E-03    0.621E-03
RMM:  10    -0.413172995331E+03    0.55635E-05   -0.27061E-06  2581   0.240E-03    0.286E-03
RMM:  11    -0.413172991325E+03    0.40056E-05   -0.14273E-06  2516   0.184E-03    0.135E-03
RMM:  12    -0.413172988256E+03    0.30698E-05   -0.73021E-07  2447   0.138E-03    0.444E-04
RMM:  13    -0.413172986634E+03    0.16218E-05   -0.33203E-07  2091   0.969E-04    0.300E-04
RMM:  14    -0.413172984296E+03    0.23380E-05   -0.21424E-07  1653   0.794E-04    0.201E-04
RMM:  15    -0.413172982177E+03    0.21186E-05   -0.14290E-07  1371   0.705E-04    0.106E-04
RMM:  16    -0.413172981307E+03    0.87060E-06   -0.80198E-08  1127   0.629E-04
   22 T=    62. E= -.41286632E+03 F= -.41317298E+03 E0= -.41315104E+03  EK= 0.30666E+00 SP= 0.00E+00 SK= 0.00E+00
       N       E                     dE             d eps       ncg     rms          rms(c)
RMM:   1    -0.413164350495E+03    0.86317E-02   -0.11450E+01  4296   0.792E-01    0.915E-01
RMM:   2    -0.413174676635E+03   -0.10326E-01   -0.13894E-01  4286   0.106E-01    0.635E-01
RMM:   3    -0.413174102375E+03    0.57426E-03   -0.67521E-03  4896   0.435E-02    0.185E-01
RMM:   4    -0.413211420749E+03   -0.37318E-01   -0.38506E-02  5150   0.163E-01    0.802E-01
RMM:   5    -0.413173409302E+03    0.38011E-01   -0.18602E-02  4796   0.135E-01    0.404E-02
RMM:   6    -0.413173620155E+03   -0.21085E-03   -0.30097E-03  5786   0.531E-02    0.197E-02
RMM:   7    -0.413173631802E+03   -0.11646E-04   -0.34160E-04  5886   0.154E-02    0.148E-02
RMM:   8    -0.413173627888E+03    0.39141E-05   -0.44126E-05  4622   0.579E-03    0.998E-03
RMM:   9    -0.413173620584E+03    0.73032E-05   -0.69277E-06  3015   0.292E-03    0.693E-03
RMM:  10    -0.413173612486E+03    0.80986E-05   -0.23519E-06  2562   0.235E-03    0.341E-03
RMM:  11    -0.413173606013E+03    0.64730E-05   -0.16633E-06  2525   0.200E-03    0.170E-03
RMM:  12    -0.413173601523E+03    0.44899E-05   -0.80115E-07  2454   0.149E-03    0.551E-04
RMM:  13    -0.413173599907E+03    0.16160E-05   -0.35150E-07  2153   0.101E-03    0.350E-04
RMM:  14    -0.413173597843E+03    0.20636E-05   -0.19302E-07  1666   0.787E-04    0.197E-04
RMM:  15    -0.413173594030E+03    0.38129E-05   -0.16705E-07  1598   0.751E-04    0.157E-04
RMM:  16    -0.413173593348E+03    0.68210E-06   -0.71142E-08  1054   0.611E-04
   23 T=    63. E= -.41286604E+03 F= -.41317359E+03 E0= -.41315170E+03  EK= 0.30755E+00 SP= 0.00E+00 SK= 0.00E+00
       N       E                     dE             d eps       ncg     rms          rms(c)
RMM:   1    -0.413165234993E+03    0.83590E-02   -0.11446E+01  4294   0.795E-01    0.894E-01
RMM:   2    -0.413176777919E+03   -0.11543E-01   -0.14245E-01  4282   0.104E-01    0.643E-01
RMM:   3    -0.413175447168E+03    0.13308E-02   -0.61835E-03  4789   0.398E-02    0.171E-01
RMM:   4    -0.413202639627E+03   -0.27192E-01   -0.27622E-02  5155   0.138E-01    0.687E-01
RMM:   5    -0.413175046057E+03    0.27594E-01   -0.13664E-02  4805   0.115E-01    0.327E-02
RMM:   6    -0.413175204722E+03   -0.15867E-03   -0.21586E-03  5795   0.446E-02    0.166E-02
RMM:   7    -0.413175215656E+03   -0.10933E-04   -0.23032E-04  5753   0.129E-02    0.119E-02
RMM:   8    -0.413175214975E+03    0.68111E-06   -0.32222E-05  4398   0.507E-03    0.865E-03
RMM:   9    -0.413175210841E+03    0.41334E-05   -0.55649E-06  2958   0.280E-03    0.596E-03
RMM:  10    -0.413175207854E+03    0.29869E-05   -0.18895E-06  2545   0.213E-03    0.306E-03
RMM:  11    -0.413175205568E+03    0.22862E-05   -0.14966E-06  2525   0.187E-03    0.153E-03
RMM:  12    -0.413175203871E+03    0.16971E-05   -0.65085E-07  2423   0.134E-03    0.546E-04
RMM:  13    -0.413175203274E+03    0.59733E-06   -0.28355E-07  1991   0.911E-04
   24 T=    63. E= -.41286636E+03 F= -.41317520E+03 E0= -.41315336E+03  EK= 0.30884E+00 SP= 0.00E+00 SK= 0.00E+00
       N       E                     dE             d eps       ncg     rms          rms(c)
RMM:   1    -0.413166508719E+03    0.86952E-02   -0.11562E+01  4295   0.806E-01    0.910E-01
RMM:   2    -0.413177812995E+03   -0.11304E-01   -0.14228E-01  4283   0.107E-01    0.648E-01
RMM:   3    -0.413176427014E+03    0.13860E-02   -0.63556E-03  4755   0.424E-02    0.173E-01
RMM:   4    -0.413203943221E+03   -0.27516E-01   -0.27705E-02  5149   0.139E-01    0.690E-01
RMM:   5    -0.413176065162E+03    0.27878E-01   -0.13788E-02  4811   0.115E-01    0.329E-02
RMM:   6    -0.413176216975E+03   -0.15181E-03   -0.21428E-03  5804   0.446E-02    0.171E-02
RMM:   7    -0.413176225433E+03   -0.84581E-05   -0.22302E-04  5736   0.130E-02    0.120E-02
RMM:   8    -0.413176223476E+03    0.19574E-05   -0.32202E-05  4401   0.510E-03    0.873E-03
RMM:   9    -0.413176217979E+03    0.54968E-05   -0.58339E-06  3006   0.286E-03    0.599E-03
RMM:  10    -0.413176213234E+03    0.47450E-05   -0.18974E-06  2544   0.218E-03    0.307E-03
RMM:  11    -0.413176209225E+03    0.40091E-05   -0.15204E-06  2527   0.189E-03    0.151E-03
RMM:  12    -0.413176206544E+03    0.26811E-05   -0.64142E-07  2420   0.134E-03    0.531E-04
RMM:  13    -0.413176205527E+03    0.10167E-05   -0.27946E-07  1986   0.906E-04    0.320E-04
RMM:  14    -0.413176203911E+03    0.16159E-05   -0.16591E-07  1542   0.752E-04    0.179E-04
RMM:  15    -0.413176201475E+03    0.24362E-05   -0.14008E-07  1487   0.720E-04    0.167E-04
RMM:  16    -0.413176200878E+03    0.59723E-06   -0.58223E-08   980   0.596E-04
   25 T=    63. E= -.41286625E+03 F= -.41317620E+03 E0= -.41315440E+03  EK= 0.30995E+00 SP= 0.00E+00 SK= 0.00E+00
       N       E                     dE             d eps       ncg     rms          rms(c)
RMM:   1    -0.413167824494E+03    0.83770E-02   -0.11591E+01  4292   0.812E-01    0.925E-01
RMM:   2    -0.413178167040E+03   -0.10343E-01   -0.14149E-01  4277   0.110E-01    0.640E-01
RMM:   3    -0.413177418954E+03    0.74809E-03   -0.66164E-03  4657   0.412E-02    0.174E-01
RMM:   4    -0.413198072205E+03   -0.20653E-01   -0.20754E-02  5151   0.120E-01    0.601E-01
RMM:   5    -0.413177152971E+03    0.20919E-01   -0.10423E-02  4811   0.996E-02    0.305E-02
RMM:   6    -0.413177259388E+03   -0.10642E-03   -0.16209E-03  5816   0.380E-02    0.167E-02
RMM:   7    -0.413177262259E+03   -0.28711E-05   -0.15508E-04  5479   0.110E-02    0.104E-02
RMM:   8    -0.413177255588E+03    0.66709E-05   -0.19370E-05  3698   0.405E-03    0.707E-03
RMM:   9    -0.413177247506E+03    0.80821E-05   -0.42728E-06  2797   0.261E-03    0.443E-03
RMM:  10    -0.413177243036E+03    0.44705E-05   -0.14798E-06  2526   0.192E-03    0.275E-03
RMM:  11    -0.413177234802E+03    0.82336E-05   -0.11230E-06  2503   0.175E-03    0.130E-03
RMM:  12    -0.413177230757E+03    0.40447E-05   -0.49005E-07  2341   0.121E-03    0.538E-04
RMM:  13    -0.413177228779E+03    0.19783E-05   -0.21958E-07  1815   0.845E-04    0.283E-04
RMM:  14    -0.413177225046E+03    0.37333E-05   -0.15860E-07  1656   0.764E-04    0.168E-04
RMM:  15    -0.413177221907E+03    0.31384E-05   -0.10012E-07  1354   0.665E-04    0.145E-04
RMM:  16    -0.413177220718E+03    0.11898E-05   -0.47765E-08   928   0.574E-04    0.905E-05
RMM:  17    -0.413177217368E+03    0.33492E-05   -0.74527E-08  1210   0.627E-04    0.458E-05
RMM:  18    -0.413177215739E+03    0.16295E-05   -0.39908E-08   978   0.568E-04    0.365E-05
RMM:  19    -0.413177215052E+03    0.68707E-06   -0.19632E-08   791   0.535E-04
   26 T=    63. E= -.41286597E+03 F= -.41317722E+03 E0= -.41315547E+03  EK= 0.31125E+00 SP= 0.00E+00 SK= 0.00E+00
       N       E                     dE             d eps       ncg     rms          rms(c)
RMM:   1    -0.413169129401E+03    0.80863E-02   -0.11562E+01  4288   0.815E-01    0.900E-01
RMM:   2    -0.413180398863E+03   -0.11269E-01   -0.14310E-01  4279   0.103E-01    0.643E-01
RMM:   3    -0.413179468726E+03    0.93014E-03   -0.62691E-03  4699   0.411E-02    0.174E-01
RMM:   4    -0.413202807193E+03   -0.23338E-01   -0.23508E-02  5155   0.128E-01    0.637E-01
RMM:   5    -0.413179144081E+03    0.23663E-01   -0.11785E-02  4811   0.106E-01    0.304E-02
RMM:   6    -0.413179271188E+03   -0.12711E-03   -0.18431E-03  5829   0.404E-02    0.162E-02
RMM:   7    -0.413179278275E+03   -0.70873E-05   -0.18022E-04  5603   0.117E-02    0.108E-02
RMM:   8    -0.413179276241E+03    0.20344E-05   -0.25749E-05  4142   0.460E-03    0.800E-03
RMM:   9    -0.413179271195E+03    0.50457E-05   -0.54778E-06  2994   0.282E-03    0.549E-03
RMM:  10    -0.413179267197E+03    0.39979E-05   -0.16622E-06  2529   0.210E-03    0.290E-03
RMM:  11    -0.413179263470E+03    0.37266E-05   -0.13875E-06  2516   0.182E-03    0.148E-03
RMM:  12    -0.413179260903E+03    0.25679E-05   -0.57590E-07  2393   0.129E-03    0.535E-04
RMM:  13    -0.413179259989E+03    0.91357E-06   -0.24620E-07  1945   0.871E-04
   27 T=    64. E= -.41286630E+03 F= -.41317926E+03 E0= -.41315756E+03  EK= 0.31296E+00 SP= 0.00E+00 SK= 0.00E+00
       N       E                     dE             d eps       ncg     rms          rms(c)
RMM:   1    -0.413172116326E+03    0.71446E-02   -0.11718E+01  4292   0.840E-01    0.909E-01
RMM:   2    -0.413181569258E+03   -0.94529E-02   -0.14715E-01  4272   0.108E-01    0.654E-01
RMM:   3    -0.413180358262E+03    0.12110E-02   -0.63552E-03  4595   0.414E-02    0.171E-01
RMM:   4    -0.413197251919E+03   -0.16894E-01   -0.17236E-02  5160   0.111E-01    0.546E-01
RMM:   5    -0.413180024076E+03    0.17228E-01   -0.85740E-03  4819   0.899E-02    0.262E-02
RMM:   6    -0.413180104598E+03   -0.80522E-04   -0.13364E-03  5857   0.339E-02    0.145E-02
RMM:   7    -0.413180109514E+03   -0.49158E-05   -0.12425E-04  5332   0.979E-03    0.927E-03
RMM:   8    -0.413180105037E+03    0.44769E-05   -0.15072E-05  3495   0.372E-03    0.621E-03
RMM:   9    -0.413180102128E+03    0.29097E-05   -0.44091E-06  2822   0.267E-03    0.421E-03
RMM:  10    -0.413180098718E+03    0.34099E-05   -0.12545E-06  2521   0.187E-03    0.242E-03
RMM:  11    -0.413180094453E+03    0.42644E-05   -0.11275E-06  2513   0.166E-03    0.119E-03
RMM:  12    -0.413180092169E+03    0.22837E-05   -0.44741E-07  2324   0.114E-03    0.462E-04
RMM:  13    -0.413180091228E+03    0.94148E-06   -0.18928E-07  1636   0.787E-04
   28 T=    64. E= -.41286565E+03 F= -.41318009E+03 E0= -.41315844E+03  EK= 0.31444E+00 SP= 0.00E+00 SK= 0.00E+00
       N       E                     dE             d eps       ncg     rms          rms(c)
RMM:   1    -0.413172905788E+03    0.71864E-02   -0.11782E+01  4291   0.842E-01    0.933E-01
RMM:   2    -0.413183396102E+03   -0.10490E-01   -0.14457E-01  4276   0.113E-01    0.647E-01
RMM:   3    -0.413182489026E+03    0.90708E-03   -0.67508E-03  4407   0.413E-02    0.173E-01
RMM:   4    -0.413188630642E+03   -0.61416E-02   -0.65230E-03  5171   0.685E-02    0.329E-01
RMM:   5    -0.413182506313E+03    0.61243E-02   -0.30226E-03  4832   0.535E-02    0.219E-02
RMM:   6    -0.413182519005E+03   -0.12692E-04   -0.49657E-04  5843   0.209E-02    0.148E-02
RMM:   7    -0.413182514112E+03    0.48926E-05   -0.66161E-05  5199   0.788E-03    0.858E-03
RMM:   8    -0.413182505079E+03    0.90334E-05   -0.74051E-06  3066   0.334E-03    0.413E-03
RMM:   9    -0.413182498606E+03    0.64725E-05   -0.16593E-06  2562   0.199E-03    0.257E-03
RMM:  10    -0.413182491296E+03    0.73108E-05   -0.78470E-07  2477   0.144E-03    0.140E-03
RMM:  11    -0.413182485165E+03    0.61309E-05   -0.48726E-07  2279   0.113E-03    0.547E-04
RMM:  12    -0.413182480704E+03    0.44601E-05   -0.25698E-07  1839   0.870E-04    0.221E-04
RMM:  13    -0.413182477720E+03    0.29846E-05   -0.13558E-07  1315   0.704E-04    0.134E-04
RMM:  14    -0.413182473809E+03    0.39108E-05   -0.10564E-07  1318   0.680E-04    0.916E-05
RMM:  15    -0.413182469978E+03    0.38312E-05   -0.88938E-08  1323   0.652E-04    0.889E-05
RMM:  16    -0.413182467718E+03    0.22597E-05   -0.56974E-08  1076   0.586E-04    0.561E-05
RMM:  17    -0.413182464873E+03    0.28449E-05   -0.55303E-08  1099   0.585E-04    0.261E-05
RMM:  18    -0.413182464449E+03    0.42470E-06   -0.21474E-08   748   0.517E-04
   29 T=    64. E= -.41286614E+03 F= -.41318246E+03 E0= -.41316087E+03  EK= 0.31633E+00 SP= 0.00E+00 SK= 0.00E+00
       N       E                     dE             d eps       ncg     rms          rms(c)
RMM:   1    -0.413174301642E+03    0.81632E-02   -0.11741E+01  4289   0.849E-01    0.911E-01
RMM:   2    -0.413185355453E+03   -0.11054E-01   -0.14720E-01  4272   0.109E-01    0.646E-01
RMM:   3    -0.413184224353E+03    0.11311E-02   -0.63638E-03  4446   0.425E-02    0.173E-01
RMM:   4    -0.413192242556E+03   -0.80182E-02   -0.85227E-03  5149   0.805E-02    0.379E-01
RMM:   5    -0.413184073557E+03    0.81690E-02   -0.40252E-03  4824   0.617E-02    0.212E-02
RMM:   6    -0.413184092703E+03   -0.19146E-04   -0.63167E-04  5852   0.234E-02    0.140E-02
RMM:   7    -0.413184090984E+03    0.17190E-05   -0.74496E-05  5277   0.821E-03    0.904E-03
RMM:   8    -0.413184083910E+03    0.70742E-05   -0.90568E-06  3226   0.355E-03    0.466E-03
RMM:   9    -0.413184078938E+03    0.49725E-05   -0.19979E-06  2572   0.218E-03    0.282E-03
RMM:  10    -0.413184073848E+03    0.50894E-05   -0.84592E-07  2491   0.150E-03    0.154E-03
RMM:  11    -0.413184069374E+03    0.44746E-05   -0.53307E-07  2360   0.118E-03    0.660E-04
RMM:  12    -0.413184066031E+03    0.33427E-05   -0.28466E-07  1936   0.906E-04    0.237E-04
RMM:  13    -0.413184064187E+03    0.18442E-05   -0.14077E-07  1317   0.712E-04    0.142E-04
RMM:  14    -0.413184061498E+03    0.26885E-05   -0.10612E-07  1271   0.679E-04    0.968E-05
RMM:  15    -0.413184058928E+03    0.25699E-05   -0.81442E-08  1201   0.646E-04    0.657E-05
RMM:  16    -0.413184057369E+03    0.15589E-05   -0.52536E-08  1040   0.596E-04    0.493E-05
RMM:  17    -0.413184054843E+03    0.25265E-05   -0.56143E-08  1127   0.598E-04    0.245E-05
RMM:  18    -0.413184054242E+03    0.60081E-06   -0.23308E-08   765   0.529E-04
   30 T=    65. E= -.41286610E+03 F= -.41318405E+03 E0= -.41316251E+03  EK= 0.31796E+00 SP= 0.00E+00 SK= 0.00E+00
       N       E                     dE             d eps       ncg     rms          rms(c)
RMM:   1    -0.413176531533E+03    0.75233E-02   -0.11875E+01  4288   0.882E-01    0.911E-01
RMM:   2    -0.413187988207E+03   -0.11457E-01   -0.15218E-01  4273   0.123E-01    0.660E-01
RMM:   3    -0.413185929413E+03    0.20588E-02   -0.61843E-03  4367   0.402E-02    0.170E-01
RMM:   4    -0.413189645613E+03   -0.37162E-02   -0.44479E-03  5139   0.569E-02    0.257E-01
RMM:   5    -0.413185917147E+03    0.37285E-02   -0.18366E-03  4823   0.419E-02    0.176E-02
RMM:   6    -0.413185918179E+03   -0.10315E-05   -0.29577E-04  5750   0.168E-02    0.124E-02
RMM:   7    -0.413185916077E+03    0.21015E-05   -0.42674E-05  4858   0.665E-03    0.657E-03
RMM:   8    -0.413185911176E+03    0.49011E-05   -0.62341E-06  3017   0.317E-03    0.310E-03
RMM:   9    -0.413185908944E+03    0.22317E-05   -0.11449E-06  2519   0.178E-03    0.178E-03
RMM:  10    -0.413185906092E+03    0.28528E-05   -0.60369E-07  2330   0.120E-03    0.102E-03
RMM:  11    -0.413185903582E+03    0.25094E-05   -0.37588E-07  2011   0.961E-04    0.412E-04
RMM:  12    -0.413185901375E+03    0.22074E-05   -0.22720E-07  1609   0.799E-04    0.171E-04
RMM:  13    -0.413185899840E+03    0.15351E-05   -0.12825E-07  1204   0.685E-04    0.104E-04
RMM:  14    -0.413185898144E+03    0.16962E-05   -0.96605E-08  1165   0.655E-04    0.550E-05
RMM:  15    -0.413185896225E+03    0.19185E-05   -0.85363E-08  1221   0.639E-04    0.536E-05
RMM:  16    -0.413185895292E+03    0.93280E-06   -0.41823E-08   857   0.569E-04
   31 T=    65. E= -.41286619E+03 F= -.41318590E+03 E0= -.41316440E+03  EK= 0.31971E+00 SP= 0.00E+00 SK= 0.00E+00
       N       E                     dE             d eps       ncg     rms          rms(c)
RMM:   1    -0.413182531901E+03    0.33643E-02   -0.12017E+01  4293   0.916E-01    0.938E-01
RMM:   2    -0.413189683844E+03   -0.71519E-02   -0.15213E-01  4274   0.119E-01    0.654E-01
RMM:   3    -0.413188596662E+03    0.10872E-02   -0.67433E-03  4260   0.477E-02    0.177E-01
RMM:   4    -0.413190687780E+03   -0.20911E-02   -0.28339E-03  5085   0.480E-02    0.191E-01
RMM:   5    -0.413188638136E+03    0.20496E-02   -0.97156E-04  4779   0.313E-02    0.195E-02
RMM:   6    -0.413188630573E+03    0.75625E-05   -0.18561E-04  5672   0.140E-02    0.141E-02
RMM:   7    -0.413188619633E+03    0.10940E-04   -0.32090E-05  4541   0.622E-03    0.534E-03
RMM:   8    -0.413188610758E+03    0.88749E-05   -0.46699E-06  2869   0.301E-03    0.269E-03
RMM:   9    -0.413188606514E+03    0.42445E-05   -0.84772E-07  2486   0.166E-03    0.154E-03
RMM:  10    -0.413188599747E+03    0.67670E-05   -0.50430E-07  2310   0.115E-03    0.801E-04
RMM:  11    -0.413188595010E+03    0.47373E-05   -0.27432E-07  1786   0.866E-04    0.334E-04
RMM:  12    -0.413188590288E+03    0.47214E-05   -0.17484E-07  1490   0.761E-04    0.150E-04
RMM:  13    -0.413188586337E+03    0.39516E-05   -0.11584E-07  1310   0.686E-04    0.887E-05
RMM:  14    -0.413188582782E+03    0.35545E-05   -0.86766E-08  1246   0.644E-04    0.647E-05
RMM:  15    -0.413188578243E+03    0.45388E-05   -0.82838E-08  1295   0.639E-04    0.509E-05
RMM:  16    -0.413188576615E+03    0.16280E-05   -0.40651E-08   902   0.557E-04    0.356E-05
RMM:  17    -0.413188575577E+03    0.10383E-05   -0.29270E-08   818   0.533E-04    0.171E-05
RMM:  18    -0.413188575079E+03    0.49786E-06   -0.17683E-08   686   0.509E-04
   32 T=    66. E= -.41286663E+03 F= -.41318858E+03 E0= -.41316713E+03  EK= 0.32195E+00 SP= 0.00E+00 SK= 0.00E+00
       N       E                     dE             d eps       ncg     rms          rms(c)
RMM:   1    -0.413189023247E+03   -0.44767E-03   -0.12041E+01  4292   0.935E-01    0.925E-01
RMM:   2    -0.413191948804E+03   -0.29256E-02   -0.15634E-01  4280   0.130E-01    0.651E-01
RMM:   3    -0.413190515355E+03    0.14334E-02   -0.62993E-03  4169   0.395E-02    0.182E-01
RMM:   4    -0.413190648652E+03   -0.13330E-03   -0.12143E-03  4875   0.279E-02    0.562E-02
RMM:   5    -0.413190486215E+03    0.16244E-03   -0.99577E-05  4686   0.107E-02    0.199E-02
RMM:   6    -0.413190472738E+03    0.13477E-04   -0.58017E-05  5153   0.819E-03    0.130E-02
RMM:   7    -0.413190459844E+03    0.12894E-04   -0.13872E-05  3520   0.477E-03    0.382E-03
RMM:   8    -0.413190452516E+03    0.73281E-05   -0.23062E-06  2517   0.242E-03    0.210E-03
RMM:   9    -0.413190449063E+03    0.34524E-05   -0.52929E-07  2249   0.134E-03    0.117E-03
RMM:  10    -0.413190443416E+03    0.56472E-05   -0.29327E-07  1761   0.899E-04    0.495E-04
RMM:  11    -0.413190437717E+03    0.56986E-05   -0.17406E-07  1444   0.733E-04    0.194E-04
RMM:  12    -0.413190434722E+03    0.29950E-05   -0.72549E-08  1112   0.612E-04    0.128E-04
RMM:  13    -0.413190428628E+03    0.60947E-05   -0.86798E-08  1253   0.646E-04    0.761E-05
RMM:  14    -0.413190425032E+03    0.35961E-05   -0.44987E-08   989   0.561E-04    0.668E-05
RMM:  15    -0.413190422833E+03    0.21986E-05   -0.26023E-08   783   0.510E-04    0.456E-05
RMM:  16    -0.413190420771E+03    0.20621E-05   -0.21820E-08   721   0.501E-04    0.266E-05
RMM:  17    -0.413190420513E+03    0.25809E-06   -0.59094E-09   505   0.461E-04
   33 T=    66. E= -.41286635E+03 F= -.41319042E+03 E0= -.41316902E+03  EK= 0.32407E+00 SP= 0.00E+00 SK= 0.00E+00
       N       E                     dE             d eps       ncg     rms          rms(c)
RMM:   1    -0.413183817773E+03    0.66030E-02   -0.12094E+01  4289   0.919E-01    0.916E-01
RMM:   2    -0.413194563252E+03   -0.10745E-01   -0.15730E-01  4265   0.126E-01    0.664E-01
RMM:   3    -0.413193020169E+03    0.15431E-02   -0.62147E-03  4438   0.440E-02    0.179E-01
RMM:   4    -0.413200565028E+03   -0.75449E-02   -0.80296E-03  5147   0.790E-02    0.366E-01
RMM:   5    -0.413193001436E+03    0.75636E-02   -0.36787E-03  4804   0.599E-02    0.213E-02
RMM:   6    -0.413192991196E+03    0.10240E-04   -0.57711E-04  5780   0.241E-02    0.133E-02
RMM:   7    -0.413192992229E+03   -0.10330E-05   -0.73805E-05  5217   0.839E-03    0.842E-03
RMM:   8    -0.413192987103E+03    0.51257E-05   -0.10038E-05  3333   0.366E-03    0.436E-03
RMM:   9    -0.413192983665E+03    0.34387E-05   -0.20874E-06  2591   0.224E-03    0.241E-03
RMM:  10    -0.413192980075E+03    0.35892E-05   -0.82726E-07  2478   0.146E-03    0.128E-03
RMM:  11    -0.413192976726E+03    0.33495E-05   -0.52002E-07  2302   0.114E-03    0.604E-04
RMM:  12    -0.413192973700E+03    0.30252E-05   -0.31516E-07  1955   0.917E-04    0.216E-04
RMM:  13    -0.413192972214E+03    0.14869E-05   -0.14849E-07  1276   0.707E-04    0.137E-04
RMM:  14    -0.413192970349E+03    0.18646E-05   -0.10674E-07  1135   0.671E-04    0.786E-05
RMM:  15    -0.413192968648E+03    0.17012E-05   -0.78320E-08  1097   0.644E-04    0.448E-05
RMM:  16    -0.413192967815E+03    0.83244E-06   -0.49230E-08   934   0.601E-04
   34 T=    66. E= -.41286643E+03 F= -.41319297E+03 E0= -.41317162E+03  EK= 0.32654E+00 SP= 0.00E+00 SK= 0.00E+00
       N       E                     dE             d eps       ncg     rms          rms(c)
RMM:   1    -0.413186260766E+03    0.67079E-02   -0.12223E+01  4299   0.944E-01    0.942E-01
RMM:   2    -0.413196857685E+03   -0.10597E-01   -0.15931E-01  4260   0.135E-01    0.664E-01
RMM:   3    -0.413195726109E+03    0.11316E-02   -0.65234E-03  4539   0.444E-02    0.186E-01
RMM:   4    -0.413206573016E+03   -0.10847E-01   -0.11310E-02  5158   0.913E-02    0.442E-01
RMM:   5    -0.413195491739E+03    0.11081E-01   -0.56178E-03  4815   0.730E-02    0.250E-02
RMM:   6    -0.413195486617E+03    0.51220E-05   -0.87838E-04  5807   0.287E-02    0.149E-02
RMM:   7    -0.413195487148E+03   -0.53097E-06   -0.11057E-04  5421   0.945E-03    0.978E-03
RMM:   8    -0.413195479532E+03    0.76156E-05   -0.13405E-05  3563   0.389E-03    0.541E-03
RMM:   9    -0.413195472993E+03    0.65395E-05   -0.26020E-06  2640   0.236E-03    0.303E-03
RMM:  10    -0.413195465796E+03    0.71967E-05   -0.10197E-06  2495   0.163E-03    0.154E-03
RMM:  11    -0.413195459456E+03    0.63394E-05   -0.62966E-07  2425   0.127E-03    0.733E-04
RMM:  12    -0.413195454040E+03    0.54160E-05   -0.34159E-07  2135   0.980E-04    0.263E-04
RMM:  13    -0.413195451648E+03    0.23921E-05   -0.15921E-07  1404   0.735E-04    0.170E-04
RMM:  14    -0.413195447853E+03    0.37952E-05   -0.10487E-07  1190   0.676E-04    0.113E-04
RMM:  15    -0.413195444021E+03    0.38325E-05   -0.86030E-08  1241   0.658E-04    0.669E-05
RMM:  16    -0.413195442086E+03    0.19345E-05   -0.54515E-08  1058   0.607E-04    0.595E-05
RMM:  17    -0.413195438697E+03    0.33890E-05   -0.52720E-08  1159   0.608E-04    0.370E-05
RMM:  18    -0.413195436915E+03    0.17823E-05   -0.31192E-08   906   0.557E-04    0.185E-05
RMM:  19    -0.413195436793E+03    0.12194E-06   -0.14721E-08   679   0.519E-04
   35 T=    67. E= -.41286630E+03 F= -.41319544E+03 E0= -.41317413E+03  EK= 0.32913E+00 SP= 0.00E+00 SK= 0.00E+00
       N       E                     dE             d eps       ncg     rms          rms(c)
RMM:   1    -0.413189096542E+03    0.63404E-02   -0.12268E+01  4297   0.966E-01    0.943E-01
RMM:   2    -0.413198835775E+03   -0.97392E-02   -0.15777E-01  4260   0.120E-01    0.657E-01
RMM:   3    -0.413198005507E+03    0.83027E-03   -0.68195E-03  4838   0.451E-02    0.199E-01
RMM:   4    -0.413231805212E+03   -0.33800E-01   -0.34163E-02  5150   0.154E-01    0.765E-01
RMM:   5    -0.413197590605E+03    0.34215E-01   -0.17221E-02  4802   0.128E-01    0.383E-02
RMM:   6    -0.413197666262E+03   -0.75657E-04   -0.27132E-03  5861   0.484E-02    0.188E-02
RMM:   7    -0.413197679523E+03   -0.13261E-04   -0.27246E-04  5732   0.139E-02    0.130E-02
RMM:   8    -0.413197673253E+03    0.62698E-05   -0.33569E-05  4305   0.513E-03    0.905E-03
RMM:   9    -0.413197667753E+03    0.54995E-05   -0.89927E-06  3403   0.342E-03    0.622E-03
RMM:  10    -0.413197657624E+03    0.10129E-04   -0.24052E-06  2561   0.261E-03    0.280E-03
RMM:  11    -0.413197650103E+03    0.75212E-05   -0.16130E-06  2515   0.199E-03    0.160E-03
RMM:  12    -0.413197643009E+03    0.70937E-05   -0.73291E-07  2454   0.152E-03    0.602E-04
RMM:  13    -0.413197640587E+03    0.24221E-05   -0.30373E-07  2156   0.989E-04    0.420E-04
RMM:  14    -0.413197638445E+03    0.21421E-05   -0.13811E-07  1511   0.734E-04    0.239E-04
RMM:  15    -0.413197631803E+03    0.66425E-05   -0.14701E-07  1867   0.768E-04    0.316E-04
RMM:  16    -0.413197631154E+03    0.64831E-06   -0.43031E-08   919   0.562E-04
   36 T=    67. E= -.41286615E+03 F= -.41319763E+03 E0= -.41317637E+03  EK= 0.33148E+00 SP= 0.00E+00 SK= 0.00E+00
       N       E                     dE             d eps       ncg     rms          rms(c)
RMM:   1    -0.413190313748E+03    0.73181E-02   -0.12321E+01  4299   0.987E-01    0.925E-01
RMM:   2    -0.413202279124E+03   -0.11965E-01   -0.16434E-01  4258   0.135E-01    0.669E-01
RMM:   3    -0.413201108475E+03    0.11706E-02   -0.65905E-03  4845   0.518E-02    0.208E-01
RMM:   4    -0.413245003268E+03   -0.43895E-01   -0.45004E-02  5153   0.177E-01    0.869E-01
RMM:   5    -0.413200361075E+03    0.44642E-01   -0.22468E-02  4798   0.146E-01    0.417E-02
RMM:   6    -0.413200485040E+03   -0.12396E-03   -0.34622E-03  5861   0.549E-02    0.194E-02
RMM:   7    -0.413200502233E+03   -0.17193E-04   -0.33975E-04  5737   0.154E-02    0.133E-02
RMM:   8    -0.413200499053E+03    0.31805E-05   -0.38943E-05  4064   0.511E-03    0.916E-03
RMM:   9    -0.413200491347E+03    0.77058E-05   -0.84310E-06  3223   0.341E-03    0.481E-03
RMM:  10    -0.413200488208E+03    0.31385E-05   -0.30100E-06  2637   0.246E-03    0.287E-03
RMM:  11    -0.413200482319E+03    0.58898E-05   -0.13753E-06  2496   0.196E-03    0.149E-03
RMM:  12    -0.413200477773E+03    0.45456E-05   -0.68676E-07  2439   0.140E-03    0.558E-04
RMM:  13    -0.413200475890E+03    0.18827E-05   -0.30919E-07  2137   0.971E-04    0.331E-04
RMM:  14    -0.413200473832E+03    0.20586E-05   -0.15630E-07  1546   0.748E-04    0.199E-04
RMM:  15    -0.413200469773E+03    0.40589E-05   -0.12562E-07  1471   0.711E-04    0.150E-04
RMM:  16    -0.413200468787E+03    0.98582E-06   -0.56483E-08  1026   0.607E-04
   37 T=    68. E= -.41286629E+03 F= -.41320047E+03 E0= -.41317925E+03  EK= 0.33418E+00 SP= 0.00E+00 SK= 0.00E+00
       N       E                     dE             d eps       ncg     rms          rms(c)
RMM:   1    -0.413195097346E+03    0.53724E-02   -0.12509E+01  4307   0.104E+00    0.946E-01
RMM:   2    -0.413205257508E+03   -0.10160E-01   -0.16401E-01  4258   0.131E-01    0.673E-01
RMM:   3    -0.413203759137E+03    0.14984E-02   -0.67383E-03  4742   0.504E-02    0.202E-01
RMM:   4    -0.413236946070E+03   -0.33187E-01   -0.33397E-02  5154   0.153E-01    0.759E-01
RMM:   5    -0.413203302945E+03    0.33643E-01   -0.17032E-02  4807   0.126E-01    0.368E-02
RMM:   6    -0.413203374651E+03   -0.71705E-04   -0.26342E-03  5851   0.477E-02    0.182E-02
RMM:   7    -0.413203388116E+03   -0.13465E-04   -0.26528E-04  5780   0.138E-02    0.130E-02
RMM:   8    -0.413203382460E+03    0.56557E-05   -0.34575E-05  4392   0.520E-03    0.901E-03
RMM:   9    -0.413203377812E+03    0.46484E-05   -0.81751E-06  3296   0.326E-03    0.603E-03
RMM:  10    -0.413203369437E+03    0.83750E-05   -0.23163E-06  2550   0.246E-03    0.271E-03
RMM:  11    -0.413203363435E+03    0.60016E-05   -0.14808E-06  2508   0.191E-03    0.151E-03
RMM:  12    -0.413203357742E+03    0.56930E-05   -0.69843E-07  2446   0.145E-03    0.568E-04
RMM:  13    -0.413203355619E+03    0.21231E-05   -0.30334E-07  2132   0.977E-04    0.386E-04
RMM:  14    -0.413203353657E+03    0.19625E-05   -0.14464E-07  1525   0.739E-04    0.217E-04
RMM:  15    -0.413203348098E+03    0.55588E-05   -0.13318E-07  1666   0.739E-04    0.227E-04
RMM:  16    -0.413203347400E+03    0.69841E-06   -0.46301E-08   926   0.581E-04
   38 T=    69. E= -.41286663E+03 F= -.41320335E+03 E0= -.41318217E+03  EK= 0.33671E+00 SP= 0.00E+00 SK= 0.00E+00
       N       E                     dE             d eps       ncg     rms          rms(c)
RMM:   1    -0.413200832768E+03    0.25153E-02   -0.12600E+01  4302   0.108E+00    0.959E-01
RMM:   2    -0.413206749369E+03   -0.59166E-02   -0.16761E-01  4264   0.128E-01    0.667E-01
RMM:   3    -0.413206062831E+03    0.68654E-03   -0.72399E-03  4948   0.535E-02    0.227E-01
RMM:   4    -0.413256105196E+03   -0.50042E-01   -0.52662E-02  5136   0.190E-01    0.928E-01
RMM:   5    -0.413205035183E+03    0.51070E-01   -0.25478E-02  4792   0.156E-01    0.466E-02
RMM:   6    -0.413205189780E+03   -0.15460E-03   -0.39959E-03  5840   0.587E-02    0.214E-02
RMM:   7    -0.413205208688E+03   -0.18909E-04   -0.39751E-04  5800   0.167E-02    0.146E-02
RMM:   8    -0.413205205652E+03    0.30363E-05   -0.51521E-05  4555   0.586E-03    0.108E-02
RMM:   9    -0.413205196496E+03    0.91559E-05   -0.11480E-05  3633   0.362E-03    0.700E-03
RMM:  10    -0.413205186204E+03    0.10292E-04   -0.35450E-06  2659   0.288E-03    0.321E-03
RMM:  11    -0.413205178300E+03    0.79041E-05   -0.17678E-06  2525   0.212E-03    0.186E-03
RMM:  12    -0.413205169805E+03    0.84953E-05   -0.85793E-07  2464   0.163E-03    0.639E-04
RMM:  13    -0.413205165984E+03    0.38215E-05   -0.36135E-07  2264   0.108E-03    0.430E-04
RMM:  14    -0.413205162986E+03    0.29978E-05   -0.17346E-07  1731   0.789E-04    0.292E-04
RMM:  15    -0.413205154357E+03    0.86287E-05   -0.15992E-07  1883   0.780E-04    0.293E-04
RMM:  16    -0.413205153827E+03    0.52986E-06   -0.52478E-08  1004   0.571E-04
   39 T=    69. E= -.41286615E+03 F= -.41320515E+03 E0= -.41318402E+03  EK= 0.33900E+00 SP= 0.00E+00 SK= 0.00E+00
       N       E                     dE             d eps       ncg     rms          rms(c)
RMM:   1    -0.413203764782E+03    0.13896E-02   -0.12621E+01  4307   0.114E+00    0.936E-01
RMM:   2    -0.413210257305E+03   -0.64925E-02   -0.16839E-01  4262   0.135E-01    0.672E-01
RMM:   3    -0.413209398542E+03    0.85876E-03   -0.69484E-03  4977   0.528E-02    0.232E-01
RMM:   4    -0.413263021316E+03   -0.53623E-01   -0.57414E-02  5136   0.199E-01    0.959E-01
RMM:   5    -0.413208210495E+03    0.54811E-01   -0.27079E-02  4786   0.161E-01    0.486E-02
RMM:   6    -0.413208395505E+03   -0.18501E-03   -0.44034E-03  5826   0.608E-02    0.208E-02
RMM:   7    -0.413208419818E+03   -0.24313E-04   -0.43704E-04  5840   0.173E-02    0.148E-02
RMM:   8    -0.413208419314E+03    0.50371E-06   -0.59047E-05  4762   0.626E-03    0.113E-02
RMM:   9    -0.413208411588E+03    0.77269E-05   -0.11687E-05  3612   0.365E-03    0.713E-03
RMM:  10    -0.413208404069E+03    0.75189E-05   -0.36822E-06  2655   0.291E-03    0.326E-03
RMM:  11    -0.413208398763E+03    0.53059E-05   -0.17770E-06  2512   0.214E-03    0.190E-03
RMM:  12    -0.413208393049E+03    0.57139E-05   -0.92628E-07  2469   0.166E-03    0.662E-04
RMM:  13    -0.413208390536E+03    0.25127E-05   -0.39048E-07  2280   0.111E-03    0.444E-04
RMM:  14    -0.413208388386E+03    0.21502E-05   -0.19581E-07  1787   0.808E-04    0.292E-04
RMM:  15    -0.413208382582E+03    0.58039E-05   -0.16793E-07  1799   0.773E-04    0.266E-04
RMM:  16    -0.413208382181E+03    0.40153E-06   -0.61852E-08  1043   0.586E-04
   40 T=    70. E= -.41286677E+03 F= -.41320838E+03 E0= -.41318728E+03  EK= 0.34161E+00 SP= 0.00E+00 SK= 0.00E+00
       N       E                     dE             d eps       ncg     rms          rms(c)
RMM:   1    -0.413204831640E+03    0.35509E-02   -0.12780E+01  4303   0.118E+00    0.947E-01
RMM:   2    -0.413211400469E+03   -0.65688E-02   -0.17530E-01  4269   0.140E-01    0.683E-01
RMM:   3    -0.413211049223E+03    0.35125E-03   -0.73963E-03  5041   0.555E-02    0.255E-01
RMM:   4    -0.413267666793E+03   -0.56618E-01   -0.63062E-02  5129   0.208E-01    0.989E-01
RMM:   5    -0.413209394380E+03    0.58272E-01   -0.28321E-02  4772   0.167E-01    0.521E-02
RMM:   6    -0.413209592973E+03   -0.19859E-03   -0.46595E-03  5820   0.628E-02    0.207E-02
RMM:   7    -0.413209619483E+03   -0.26510E-04   -0.47614E-04  5925   0.182E-02    0.157E-02
RMM:   8    -0.413209619706E+03   -0.22271E-06   -0.67197E-05  4953   0.679E-03    0.117E-02
RMM:   9    -0.413209611315E+03    0.83907E-05   -0.10615E-05  3442   0.367E-03    0.682E-03
RMM:  10    -0.413209603654E+03    0.76612E-05   -0.39855E-06  2697   0.299E-03    0.303E-03
RMM:  11    -0.413209598261E+03    0.53928E-05   -0.17490E-06  2518   0.212E-03    0.160E-03
RMM:  12    -0.413209593001E+03    0.52603E-05   -0.87485E-07  2469   0.159E-03    0.615E-04
RMM:  13    -0.413209590600E+03    0.24005E-05   -0.37183E-07  2241   0.107E-03    0.423E-04
RMM:  14    -0.413209587699E+03    0.29016E-05   -0.20182E-07  1782   0.813E-04    0.287E-04
RMM:  15    -0.413209583048E+03    0.46506E-05   -0.14236E-07  1507   0.726E-04    0.174E-04
RMM:  16    -0.413209582052E+03    0.99601E-06   -0.65356E-08  1036   0.608E-04
   41 T=    70. E= -.41286613E+03 F= -.41320958E+03 E0= -.41318852E+03  EK= 0.34345E+00 SP= 0.00E+00 SK= 0.00E+00
       N       E                     dE             d eps       ncg     rms          rms(c)
RMM:   1    -0.413213578989E+03   -0.39959E-02   -0.12914E+01  4308   0.127E+00    0.972E-01
RMM:   2    -0.413213146513E+03    0.43248E-03   -0.17852E-01  4287   0.146E-01    0.676E-01
RMM:   3    -0.413215847707E+03   -0.27012E-02   -0.98242E-03  5123   0.724E-02    0.333E-01
RMM:   4    -0.413250373063E+03   -0.34525E-01   -0.50267E-02  5091   0.188E-01    0.816E-01
RMM:   5    -0.413212096798E+03    0.38276E-01   -0.17295E-02  4731   0.136E-01    0.497E-02
RMM:   6    -0.413212146914E+03   -0.50116E-04   -0.28086E-03  5757   0.501E-02    0.183E-02
RMM:   7    -0.413212160148E+03   -0.13234E-04   -0.32786E-04  5897   0.156E-02    0.143E-02
RMM:   8    -0.413212157451E+03    0.26967E-05   -0.49838E-05  4840   0.614E-03    0.946E-03
RMM:   9    -0.413212145271E+03    0.12180E-04   -0.78471E-06  3169   0.375E-03    0.447E-03
RMM:  10    -0.413212135499E+03    0.97725E-05   -0.27166E-06  2571   0.251E-03    0.230E-03
RMM:  11    -0.413212127611E+03    0.78876E-05   -0.10303E-06  2512   0.163E-03    0.985E-04
RMM:  12    -0.413212122077E+03    0.55339E-05   -0.41641E-07  2324   0.111E-03    0.507E-04
RMM:  13    -0.413212116708E+03    0.53698E-05   -0.24585E-07  1665   0.849E-04    0.249E-04
RMM:  14    -0.413212112643E+03    0.40647E-05   -0.15543E-07  1373   0.738E-04    0.150E-04
RMM:  15    -0.413212107165E+03    0.54783E-05   -0.12469E-07  1393   0.710E-04    0.965E-05
RMM:  16    -0.413212102299E+03    0.48657E-05   -0.97009E-08  1399   0.668E-04    0.568E-05
RMM:  17    -0.413212098193E+03    0.41054E-05   -0.72387E-08  1245   0.618E-04    0.480E-05
RMM:  18    -0.413212096497E+03    0.16963E-05   -0.45559E-08   996   0.558E-04    0.338E-05
RMM:  19    -0.413212095746E+03    0.75104E-06   -0.29539E-08   836   0.532E-04
   42 T=    70. E= -.41286666E+03 F= -.41321210E+03 E0= -.41319106E+03  EK= 0.34544E+00 SP= 0.00E+00 SK= 0.00E+00
       N       E                     dE             d eps       ncg     rms          rms(c)
RMM:   1    -0.413212880889E+03   -0.78439E-03   -0.12858E+01  4309   0.133E+00    0.948E-01
RMM:   2    -0.413214865946E+03   -0.19851E-02   -0.17730E-01  4297   0.154E-01    0.676E-01
RMM:   3    -0.413218845791E+03   -0.39798E-02   -0.10705E-02  5103   0.815E-02    0.369E-01
RMM:   4    -0.413247129690E+03   -0.28284E-01   -0.47617E-02  5060   0.184E-01    0.765E-01
RMM:   5    -0.413213829872E+03    0.33300E-01   -0.14572E-02  4705   0.128E-01    0.482E-02
RMM:   6    -0.413213849586E+03   -0.19714E-04   -0.24072E-03  5733   0.467E-02    0.173E-02
RMM:   7    -0.413213859010E+03   -0.94240E-05   -0.27777E-04  5889   0.148E-02    0.137E-02
RMM:   8    -0.413213856642E+03    0.23685E-05   -0.43646E-05  4762   0.586E-03    0.874E-03
RMM:   9    -0.413213846574E+03    0.10067E-04   -0.75882E-06  3160   0.385E-03    0.421E-03
RMM:  10    -0.413213839494E+03    0.70804E-05   -0.25036E-06  2560   0.247E-03    0.233E-03
RMM:  11    -0.413213833958E+03    0.55364E-05   -0.10286E-06  2514   0.161E-03    0.102E-03
RMM:  12    -0.413213830279E+03    0.36789E-05   -0.43133E-07  2312   0.111E-03    0.519E-04
RMM:  13    -0.413213825864E+03    0.44144E-05   -0.29660E-07  1752   0.894E-04    0.273E-04
RMM:  14    -0.413213823536E+03    0.23279E-05   -0.17138E-07  1343   0.741E-04    0.152E-04
RMM:  15    -0.413213819927E+03    0.36099E-05   -0.13027E-07  1250   0.699E-04    0.843E-05
RMM:  16    -0.413213816287E+03    0.36391E-05   -0.10321E-07  1238   0.677E-04    0.500E-05
RMM:  17    -0.413213813399E+03    0.28880E-05   -0.82727E-08  1296   0.648E-04    0.434E-05
RMM:  18    -0.413213811481E+03    0.19182E-05   -0.54290E-08  1041   0.583E-04    0.333E-05
RMM:  19    -0.413213810551E+03    0.93076E-06   -0.35605E-08   868   0.545E-04
   43 T=    71. E= -.41286667E+03 F= -.41321381E+03 E0= -.41319281E+03  EK= 0.34714E+00 SP= 0.00E+00 SK= 0.00E+00
       N       E                     dE             d eps       ncg     rms          rms(c)
RMM:   1    -0.413240172177E+03   -0.26361E-01   -0.13249E+01  4311   0.152E+00    0.949E-01
RMM:   2    -0.413215832845E+03    0.24339E-01   -0.20101E-01  4298   0.176E-01    0.692E-01
RMM:   3    -0.413221381064E+03   -0.55482E-02   -0.12076E-02  5106   0.918E-02    0.420E-01
RMM:   4    -0.413245700205E+03   -0.24319E-01   -0.48278E-02  5057   0.186E-01    0.744E-01
RMM:   5    -0.413214628096E+03    0.31072E-01   -0.13443E-02  4683   0.127E-01    0.506E-02
RMM:   6    -0.413214627778E+03    0.31777E-06   -0.22888E-03  5672   0.455E-02    0.179E-02
RMM:   7    -0.413214636844E+03   -0.90657E-05   -0.26931E-04  5921   0.149E-02    0.141E-02
RMM:   8    -0.413214634233E+03    0.26104E-05   -0.40934E-05  4746   0.580E-03    0.889E-03
RMM:   9    -0.413214625154E+03    0.90794E-05   -0.88615E-06  3362   0.426E-03    0.444E-03
RMM:  10    -0.413214619433E+03    0.57212E-05   -0.27513E-06  2604   0.260E-03    0.264E-03
RMM:  11    -0.413214615231E+03    0.42013E-05   -0.12640E-06  2518   0.177E-03    0.113E-03
RMM:  12    -0.413214612585E+03    0.26463E-05   -0.52483E-07  2440   0.123E-03    0.617E-04
RMM:  13    -0.413214608940E+03    0.36454E-05   -0.37733E-07  1934   0.985E-04    0.386E-04
RMM:  14    -0.413214607225E+03    0.17146E-05   -0.20063E-07  1425   0.778E-04    0.203E-04
RMM:  15    -0.413214604789E+03    0.24362E-05   -0.14674E-07  1270   0.716E-04    0.119E-04
RMM:  16    -0.413214601737E+03    0.30516E-05   -0.11886E-07  1241   0.687E-04    0.597E-05
RMM:  17    -0.413214600211E+03    0.15260E-05   -0.77025E-08  1094   0.637E-04    0.473E-05
RMM:  18    -0.413214598125E+03    0.20866E-05   -0.62068E-08  1064   0.614E-04    0.402E-05
RMM:  19    -0.413214597037E+03    0.10873E-05   -0.42649E-08   905   0.572E-04    0.305E-05
RMM:  20    -0.413214596621E+03    0.41642E-06   -0.25717E-08   756   0.548E-04
   44 T=    71. E= -.41286636E+03 F= -.41321460E+03 E0= -.41319362E+03  EK= 0.34824E+00 SP= 0.00E+00 SK= 0.00E+00
       N       E                     dE             d eps       ncg     rms          rms(c)
RMM:   1    -0.413239526631E+03   -0.24930E-01   -0.13299E+01  4305   0.158E+00    0.978E-01
RMM:   2    -0.413216347706E+03    0.23179E-01   -0.18910E-01  4347   0.182E-01    0.683E-01
RMM:   3    -0.413229159056E+03   -0.12811E-01   -0.18581E-02  5139   0.118E-01    0.536E-01
RMM:   4    -0.413231349126E+03   -0.21901E-02   -0.37495E-02  5018   0.169E-01    0.542E-01
RMM:   5    -0.413216124108E+03    0.15225E-01   -0.59120E-03  4561   0.950E-02    0.428E-02
RMM:   6    -0.413216076473E+03    0.47635E-04   -0.10333E-03  5328   0.317E-02    0.163E-02
RMM:   7    -0.413216076385E+03    0.87326E-07   -0.11707E-04  5676   0.104E-02    0.124E-02
RMM:   8    -0.413216072015E+03    0.43704E-05   -0.26445E-05  4707   0.509E-03    0.788E-03
RMM:   9    -0.413216056353E+03    0.15662E-04   -0.73771E-06  3221   0.417E-03    0.401E-03
RMM:  10    -0.413216050162E+03    0.61910E-05   -0.14695E-06  2531   0.210E-03    0.180E-03
RMM:  11    -0.413216044222E+03    0.59399E-05   -0.87617E-07  2488   0.148E-03    0.872E-04
RMM:  12    -0.413216039022E+03    0.51996E-05   -0.41521E-07  2370   0.110E-03    0.480E-04
RMM:  13    -0.413216033984E+03    0.50385E-05   -0.23616E-07  1593   0.814E-04    0.257E-04
RMM:  14    -0.413216031086E+03    0.28973E-05   -0.12770E-07  1161   0.685E-04    0.164E-04
RMM:  15    -0.413216026039E+03    0.50478E-05   -0.10900E-07  1235   0.681E-04    0.815E-05
RMM:  16    -0.413216021881E+03    0.41577E-05   -0.85279E-08  1223   0.650E-04    0.927E-05
RMM:  17    -0.413216019525E+03    0.23557E-05   -0.51616E-08   988   0.582E-04    0.642E-05
RMM:  18    -0.413216016307E+03    0.32187E-05   -0.52876E-08  1101   0.585E-04    0.395E-05
RMM:  19    -0.413216015827E+03    0.47929E-06   -0.22274E-08   707   0.515E-04
   45 T=    71. E= -.41286675E+03 F= -.41321602E+03 E0= -.41319507E+03  EK= 0.34927E+00 SP= 0.00E+00 SK= 0.00E+00
       N       E                     dE             d eps       ncg     rms          rms(c)
RMM:   1    -0.413241816475E+03   -0.25800E-01   -0.13233E+01  4305   0.167E+00    0.960E-01
RMM:   2    -0.413216062128E+03    0.25754E-01   -0.18620E-01  4362   0.191E-01    0.679E-01
RMM:   3    -0.413231504598E+03   -0.15442E-01   -0.20758E-02  5133   0.127E-01    0.576E-01
RMM:   4    -0.413228784343E+03    0.27203E-02   -0.36747E-02  4989   0.168E-01    0.504E-01
RMM:   5    -0.413215866912E+03    0.12917E-01   -0.50705E-03  4547   0.917E-02    0.432E-02
RMM:   6    -0.413215798363E+03    0.68549E-04   -0.78938E-04  5093   0.289E-02    0.160E-02
RMM:   7    -0.413215798520E+03   -0.15721E-06   -0.96803E-05  5637   0.932E-03    0.107E-02
RMM:   8    -0.413215794915E+03    0.36051E-05   -0.27057E-05  4822   0.533E-03    0.745E-03
RMM:   9    -0.413215781713E+03    0.13202E-04   -0.12102E-05  3935   0.448E-03    0.442E-03
RMM:  10    -0.413215776738E+03    0.49755E-05   -0.17147E-06  2499   0.221E-03    0.191E-03
RMM:  11    -0.413215771530E+03    0.52074E-05   -0.13084E-06  2483   0.178E-03    0.105E-03
RMM:  12    -0.413215766907E+03    0.46234E-05   -0.47353E-07  2350   0.126E-03    0.632E-04
RMM:  13    -0.413215762950E+03    0.39569E-05   -0.21917E-07  1685   0.837E-04    0.320E-04
RMM:  14    -0.413215759237E+03    0.37129E-05   -0.11945E-07  1184   0.681E-04    0.171E-04
RMM:  15    -0.413215753433E+03    0.58041E-05   -0.11893E-07  1365   0.685E-04    0.118E-04
RMM:  16    -0.413215750999E+03    0.24334E-05   -0.57872E-08   929   0.570E-04    0.104E-04
RMM:  17    -0.413215746908E+03    0.40920E-05   -0.59921E-08  1040   0.582E-04    0.474E-05
RMM:  18    -0.413215745090E+03    0.18173E-05   -0.33842E-08   803   0.531E-04    0.378E-05
RMM:  19    -0.413215744424E+03    0.66580E-06   -0.19776E-08   657   0.508E-04
   46 T=    71. E= -.41286648E+03 F= -.41321574E+03 E0= -.41319482E+03  EK= 0.34926E+00 SP= 0.00E+00 SK= 0.00E+00
       N       E                     dE             d eps       ncg     rms          rms(c)
RMM:   1    -0.413260653646E+03   -0.44909E-01   -0.13474E+01  4308   0.181E+00    0.944E-01
RMM:   2    -0.413215609450E+03    0.45044E-01   -0.22507E-01  4381   0.215E-01    0.696E-01
RMM:   3    -0.413230129702E+03   -0.14520E-01   -0.19995E-02  5138   0.126E-01    0.596E-01
RMM:   4    -0.413229613984E+03    0.51572E-03   -0.38973E-02  5006   0.173E-01    0.551E-01
RMM:   5    -0.413214795663E+03    0.14818E-01   -0.65152E-03  4546   0.101E-01    0.488E-02
RMM:   6    -0.413214714133E+03    0.81530E-04   -0.98745E-04  5157   0.324E-02    0.180E-02
RMM:   7    -0.413214714445E+03   -0.31210E-06   -0.13246E-04  5816   0.109E-02    0.130E-02
RMM:   8    -0.413214711429E+03    0.30159E-05   -0.30758E-05  4886   0.534E-03    0.876E-03
RMM:   9    -0.413214699166E+03    0.12263E-04   -0.11466E-05  3823   0.473E-03    0.496E-03
RMM:  10    -0.413214694427E+03    0.47383E-05   -0.20474E-06  2539   0.231E-03    0.235E-03
RMM:  11    -0.413214690681E+03    0.37460E-05   -0.16752E-06  2534   0.197E-03    0.129E-03
RMM:  12    -0.413214687953E+03    0.27278E-05   -0.53326E-07  2413   0.135E-03    0.747E-04
RMM:  13    -0.413214685136E+03    0.28178E-05   -0.27803E-07  1938   0.900E-04    0.381E-04
RMM:  14    -0.413214682587E+03    0.25487E-05   -0.15520E-07  1243   0.707E-04    0.209E-04
RMM:  15    -0.413214679942E+03    0.26449E-05   -0.11733E-07  1205   0.666E-04    0.927E-05
RMM:  16    -0.413214677562E+03    0.23798E-05   -0.89902E-08  1132   0.633E-04    0.874E-05
RMM:  17    -0.413214675728E+03    0.18344E-05   -0.60620E-08  1007   0.587E-04    0.789E-05
RMM:  18    -0.413214674440E+03    0.12875E-05   -0.38562E-08   827   0.543E-04    0.401E-05
RMM:  19    -0.413214673886E+03    0.55464E-06   -0.25122E-08   712   0.522E-04
   47 T=    71. E= -.41286647E+03 F= -.41321467E+03 E0= -.41319377E+03  EK= 0.34820E+00 SP= 0.00E+00 SK= 0.00E+00
       N       E                     dE             d eps       ncg     rms          rms(c)
RMM:   1    -0.413261321738E+03   -0.46647E-01   -0.13471E+01  4303   0.195E+00    0.971E-01
RMM:   2    -0.413212664586E+03    0.48657E-01   -0.21078E-01  4467   0.212E-01    0.689E-01
RMM:   3    -0.413237650717E+03   -0.24986E-01   -0.29562E-02  5153   0.154E-01    0.718E-01
RMM:   4    -0.413220586811E+03    0.17064E-01   -0.37396E-02  4957   0.174E-01    0.430E-01
RMM:   5    -0.413212491496E+03    0.80953E-02   -0.45949E-03  4577   0.910E-02    0.557E-02
RMM:   6    -0.413212310141E+03    0.18135E-03   -0.45545E-04  4675   0.283E-02    0.210E-02
RMM:   7    -0.413212311401E+03   -0.12605E-05   -0.11573E-04  5850   0.107E-02    0.140E-02
RMM:   8    -0.413212303034E+03    0.83671E-05   -0.22752E-05  4523   0.507E-03    0.100E-02
RMM:   9    -0.413212288225E+03    0.14809E-04   -0.87709E-06  3352   0.424E-03    0.524E-03
RMM:  10    -0.413212280624E+03    0.76009E-05   -0.28132E-06  2651   0.274E-03    0.233E-03
RMM:  11    -0.413212274792E+03    0.58326E-05   -0.20471E-06  2556   0.221E-03    0.144E-03
RMM:  12    -0.413212269442E+03    0.53502E-05   -0.76861E-07  2440   0.155E-03    0.769E-04
RMM:  13    -0.413212265227E+03    0.42151E-05   -0.36202E-07  2250   0.102E-03    0.426E-04
RMM:  14    -0.413212261252E+03    0.39742E-05   -0.19250E-07  1508   0.748E-04    0.228E-04
RMM:  15    -0.413212256018E+03    0.52342E-05   -0.14699E-07  1400   0.710E-04    0.118E-04
RMM:  16    -0.413212252957E+03    0.30615E-05   -0.90542E-08  1206   0.634E-04    0.109E-04
RMM:  17    -0.413212250362E+03    0.25944E-05   -0.61820E-08  1056   0.590E-04    0.719E-05
RMM:  18    -0.413212248122E+03    0.22402E-05   -0.46105E-08   994   0.573E-04    0.393E-05
RMM:  19    -0.413212247357E+03    0.76562E-06   -0.24208E-08   786   0.535E-04
   48 T=    70. E= -.41286653E+03 F= -.41321225E+03 E0= -.41319136E+03  EK= 0.34572E+00 SP= 0.00E+00 SK= 0.00E+00
       N       E                     dE             d eps       ncg     rms          rms(c)
RMM:   1    -0.413258992387E+03   -0.46744E-01   -0.13294E+01  4304   0.207E+00    0.961E-01
RMM:   2    -0.413207460041E+03    0.51532E-01   -0.20677E-01  4489   0.224E-01    0.677E-01
RMM:   3    -0.413238896646E+03   -0.31437E-01   -0.35519E-02  5167   0.169E-01    0.793E-01
RMM:   4    -0.413212854059E+03    0.26043E-01   -0.37377E-02  4924   0.177E-01    0.379E-01
RMM:   5    -0.413207580643E+03    0.52734E-02   -0.51030E-03  4871   0.938E-02    0.711E-02
RMM:   6    -0.413207263917E+03    0.31673E-03   -0.57429E-04  4672   0.331E-02    0.257E-02
RMM:   7    -0.413207260044E+03    0.38723E-05   -0.13465E-04  5713   0.123E-02    0.159E-02
RMM:   8    -0.413207250479E+03    0.95652E-05   -0.18331E-05  4159   0.472E-03    0.108E-02
RMM:   9    -0.413207234699E+03    0.15780E-04   -0.99101E-06  3515   0.434E-03    0.497E-03
RMM:  10    -0.413207225212E+03    0.94871E-05   -0.41215E-06  2857   0.313E-03    0.258E-03
RMM:  11    -0.413207217639E+03    0.75728E-05   -0.26406E-06  2663   0.248E-03    0.180E-03
RMM:  12    -0.413207213437E+03    0.42023E-05   -0.70638E-07  2448   0.157E-03    0.886E-04
RMM:  13    -0.413207209652E+03    0.37852E-05   -0.33561E-07  2255   0.100E-03    0.535E-04
RMM:  14    -0.413207204430E+03    0.52217E-05   -0.22093E-07  1748   0.802E-04    0.249E-04
RMM:  15    -0.413207199636E+03    0.47940E-05   -0.15099E-07  1428   0.715E-04    0.169E-04
RMM:  16    -0.413207197576E+03    0.20598E-05   -0.78188E-08  1133   0.618E-04    0.114E-04
RMM:  17    -0.413207194141E+03    0.34351E-05   -0.76731E-08  1249   0.629E-04    0.477E-05
RMM:  18    -0.413207192821E+03    0.13198E-05   -0.37135E-08   944   0.567E-04    0.366E-05
RMM:  19    -0.413207191900E+03    0.92170E-06   -0.23888E-08   835   0.546E-04
[...]
RMM:  14    -0.413160389801E+03   -0.14101E-05   -0.24890E-07  1621   0.814E-04    0.225E-04
RMM:  15    -0.413160391623E+03   -0.18217E-05   -0.25084E-07  1523   0.781E-04    0.131E-04
RMM:  16    -0.413160392582E+03   -0.95928E-06   -0.17144E-07  1413   0.712E-04
  136 T=    60. E= -.41286601E+03 F= -.41316039E+03 E0= -.41313966E+03  EK= 0.29438E+00 SP= 0.00E+00 SK= 0.00E+00
       N       E                     dE             d eps       ncg     rms          rms(c)
RMM:   1    -0.413157610178E+03    0.27814E-02   -0.89479E+00  4264   0.784E-01    0.858E-01
RMM:   2    -0.413162939247E+03   -0.53291E-02   -0.10514E-01  4307   0.901E-02    0.607E-01
RMM:   3    -0.413161368023E+03    0.15712E-02   -0.11675E-02  5009   0.477E-02    0.143E-01
RMM:   4    -0.413194012443E+03   -0.32644E-01   -0.36334E-02  5139   0.159E-01    0.755E-01
RMM:   5    -0.413160613367E+03    0.33399E-01   -0.16071E-02  4798   0.126E-01    0.555E-02
RMM:   6    -0.413160649494E+03   -0.36127E-04   -0.27851E-03  5683   0.501E-02    0.306E-02
RMM:   7    -0.413160677423E+03   -0.27929E-04   -0.40596E-04  5950   0.172E-02    0.177E-02
RMM:   8    -0.413160682410E+03   -0.49870E-05   -0.65991E-05  5288   0.853E-03    0.881E-03
RMM:   9    -0.413160682760E+03   -0.34976E-06   -0.10189E-05  3472   0.374E-03    0.452E-03
RMM:  10    -0.413160686288E+03   -0.35289E-05   -0.29556E-06  2661   0.231E-03    0.299E-03
RMM:  11    -0.413160688886E+03   -0.25975E-05   -0.12968E-06  2505   0.176E-03    0.151E-03
RMM:  12    -0.413160690813E+03   -0.19273E-05   -0.10106E-06  2479   0.147E-03    0.605E-04
RMM:  13    -0.413160691339E+03   -0.52600E-06   -0.43268E-07  2129   0.105E-03
  137 T=    60. E= -.41286638E+03 F= -.41316069E+03 E0= -.41313997E+03  EK= 0.29431E+00 SP= 0.00E+00 SK= 0.00E+00
       N       E                     dE             d eps       ncg     rms          rms(c)
RMM:   1    -0.413157134051E+03    0.35568E-02   -0.88970E+00  4264   0.787E-01    0.841E-01
RMM:   2    -0.413163033563E+03   -0.58995E-02   -0.10460E-01  4315   0.894E-02    0.602E-01
RMM:   3    -0.413160841967E+03    0.21916E-02   -0.11042E-02  4983   0.417E-02    0.111E-01
RMM:   4    -0.413184748154E+03   -0.23906E-01   -0.25283E-02  5151   0.132E-01    0.647E-01
RMM:   5    -0.413160510469E+03    0.24238E-01   -0.12024E-02  4816   0.108E-01    0.489E-02
RMM:   6    -0.413160536897E+03   -0.26428E-04   -0.20332E-03  5704   0.435E-02    0.301E-02
RMM:   7    -0.413160557375E+03   -0.20478E-04   -0.32748E-04  5835   0.158E-02    0.159E-02
RMM:   8    -0.413160563499E+03   -0.61238E-05   -0.51162E-05  5150   0.761E-03    0.795E-03
RMM:   9    -0.413160565158E+03   -0.16591E-05   -0.76203E-06  3229   0.326E-03    0.440E-03
RMM:  10    -0.413160570539E+03   -0.53807E-05   -0.21914E-06  2567   0.214E-03    0.274E-03
RMM:  11    -0.413160574400E+03   -0.38615E-05   -0.11676E-06  2498   0.164E-03    0.129E-03
RMM:  12    -0.413160577473E+03   -0.30730E-05   -0.97586E-07  2456   0.140E-03    0.610E-04
RMM:  13    -0.413160578526E+03   -0.10526E-05   -0.43023E-07  2056   0.101E-03    0.361E-04
RMM:  14    -0.413160578933E+03   -0.40750E-06   -0.21847E-07  1519   0.785E-04
  138 T=    60. E= -.41286625E+03 F= -.41316058E+03 E0= -.41313987E+03  EK= 0.29433E+00 SP= 0.00E+00 SK= 0.00E+00
       N       E                     dE             d eps       ncg     rms          rms(c)
RMM:   1    -0.413157374436E+03    0.32041E-02   -0.89872E+00  4266   0.787E-01    0.836E-01
RMM:   2    -0.413163830566E+03   -0.64561E-02   -0.10649E-01  4311   0.913E-02    0.611E-01
RMM:   3    -0.413161264520E+03    0.25660E-02   -0.11387E-02  4915   0.430E-02    0.957E-02
RMM:   4    -0.413181022850E+03   -0.19758E-01   -0.20738E-02  5149   0.120E-01    0.589E-01
RMM:   5    -0.413161016417E+03    0.20006E-01   -0.99265E-03  4816   0.980E-02    0.467E-02
RMM:   6    -0.413161030719E+03   -0.14301E-04   -0.17208E-03  5688   0.399E-02    0.285E-02
RMM:   7    -0.413161057205E+03   -0.26486E-04   -0.28296E-04  5799   0.145E-02    0.145E-02
RMM:   8    -0.413161067329E+03   -0.10124E-04   -0.45946E-05  5073   0.729E-03    0.752E-03
RMM:   9    -0.413161070833E+03   -0.35041E-05   -0.62866E-06  3100   0.303E-03    0.402E-03
RMM:  10    -0.413161079282E+03   -0.84482E-05   -0.21215E-06  2556   0.212E-03    0.249E-03
RMM:  11    -0.413161086103E+03   -0.68216E-05   -0.11547E-06  2496   0.162E-03    0.115E-03
RMM:  12    -0.413161091327E+03   -0.52236E-05   -0.83939E-07  2413   0.130E-03    0.555E-04
RMM:  13    -0.413161093847E+03   -0.25202E-05   -0.42993E-07  1974   0.969E-04    0.321E-04
RMM:  14    -0.413161094921E+03   -0.10738E-05   -0.22143E-07  1453   0.773E-04    0.187E-04
RMM:  15    -0.413161096294E+03   -0.13729E-05   -0.24258E-07  1489   0.770E-04    0.127E-04
RMM:  16    -0.413161097006E+03   -0.71267E-06   -0.17279E-07  1413   0.709E-04
  139 T=    60. E= -.41286618E+03 F= -.41316110E+03 E0= -.41314040E+03  EK= 0.29491E+00 SP= 0.00E+00 SK= 0.00E+00
       N       E                     dE             d eps       ncg     rms          rms(c)
RMM:   1    -0.413158057175E+03    0.30391E-02   -0.90517E+00  4264   0.794E-01    0.855E-01
RMM:   2    -0.413163949931E+03   -0.58928E-02   -0.10585E-01  4307   0.929E-02    0.608E-01
RMM:   3    -0.413161702345E+03    0.22476E-02   -0.10851E-02  4832   0.432E-02    0.101E-01
RMM:   4    -0.413177997498E+03   -0.16295E-01   -0.16893E-02  5152   0.109E-01    0.535E-01
RMM:   5    -0.413161563257E+03    0.16434E-01   -0.83061E-03  4825   0.892E-02    0.455E-02
RMM:   6    -0.413161568198E+03   -0.49404E-05   -0.14431E-03  5678   0.371E-02    0.295E-02
RMM:   7    -0.413161580597E+03   -0.12399E-04   -0.26144E-04  5727   0.140E-02    0.140E-02
RMM:   8    -0.413161584502E+03   -0.39046E-05   -0.40040E-05  5007   0.681E-03    0.733E-03
RMM:   9    -0.413161585355E+03   -0.85319E-06   -0.50267E-06  2978   0.280E-03
  140 T=    60. E= -.41286654E+03 F= -.41316159E+03 E0= -.41314090E+03  EK= 0.29505E+00 SP= 0.00E+00 SK= 0.00E+00
       N       E                     dE             d eps       ncg     rms          rms(c)
RMM:   1    -0.413157301507E+03    0.42830E-02   -0.90615E+00  4269   0.797E-01    0.848E-01
RMM:   2    -0.413163551581E+03   -0.62501E-02   -0.10516E-01  4316   0.935E-02    0.601E-01
RMM:   3    -0.413162043718E+03    0.15079E-02   -0.10957E-02  5042   0.506E-02    0.158E-01
RMM:   4    -0.413195486717E+03   -0.33443E-01   -0.38173E-02  5136   0.163E-01    0.765E-01
RMM:   5    -0.413161139293E+03    0.34347E-01   -0.16543E-02  4805   0.128E-01    0.602E-02
RMM:   6    -0.413161118159E+03    0.21134E-04   -0.27631E-03  5641   0.509E-02    0.293E-02
RMM:   7    -0.413161154351E+03   -0.36192E-04   -0.41925E-04  6064   0.173E-02    0.171E-02
RMM:   8    -0.413161160490E+03   -0.61390E-05   -0.75886E-05  5348   0.906E-03    0.920E-03
RMM:   9    -0.413161160605E+03   -0.11558E-06   -0.10665E-05  3552   0.391E-03    0.408E-03
RMM:  10    -0.413161163771E+03   -0.31659E-05   -0.30035E-06  2653   0.235E-03    0.274E-03
RMM:  11    -0.413161167170E+03   -0.33991E-05   -0.17070E-06  2524   0.195E-03    0.151E-03
RMM:  12    -0.413161168813E+03   -0.16423E-05   -0.94659E-07  2486   0.146E-03    0.563E-04
RMM:  13    -0.413161169265E+03   -0.45283E-06   -0.42688E-07  2057   0.102E-03
  141 T=    60. E= -.41286633E+03 F= -.41316117E+03 E0= -.41314050E+03  EK= 0.29484E+00 SP= 0.00E+00 SK= 0.00E+00
       N       E                     dE             d eps       ncg     rms          rms(c)
RMM:   1    -0.413157557954E+03    0.36109E-02   -0.91520E+00  4264   0.803E-01    0.834E-01
RMM:   2    -0.413164521323E+03   -0.69634E-02   -0.10774E-01  4306   0.957E-02    0.607E-01
RMM:   3    -0.413161855086E+03    0.26662E-02   -0.10258E-02  4575   0.397E-02    0.766E-02
RMM:   4    -0.413161943766E+03   -0.88680E-04   -0.63689E-04  5105   0.199E-02    0.432E-02
RMM:   5    -0.413161989269E+03   -0.45503E-04   -0.18457E-04  4999   0.137E-02    0.516E-02
RMM:   6    -0.413161909594E+03    0.79675E-04   -0.16680E-04  5215   0.131E-02    0.268E-02
RMM:   7    -0.413161923185E+03   -0.13591E-04   -0.15108E-04  4910   0.101E-02    0.143E-02
RMM:   8    -0.413161920601E+03    0.25834E-05   -0.10647E-05  3747   0.429E-03    0.690E-03
RMM:   9    -0.413161922936E+03   -0.23348E-05   -0.42621E-06  2542   0.222E-03    0.244E-03
RMM:  10    -0.413161933390E+03   -0.10454E-04   -0.18350E-06  2493   0.181E-03    0.955E-04
RMM:  11    -0.413161940260E+03   -0.68703E-05   -0.10372E-06  2414   0.137E-03    0.460E-04
RMM:  12    -0.413161942270E+03   -0.20096E-05   -0.35108E-07  1898   0.917E-04    0.378E-04
RMM:  13    -0.413161945009E+03   -0.27395E-05   -0.34516E-07  1573   0.805E-04    0.299E-04
RMM:  14    -0.413161946599E+03   -0.15898E-05   -0.27262E-07  1529   0.738E-04    0.186E-04
RMM:  15    -0.413161946808E+03   -0.20841E-06   -0.95566E-08  1072   0.583E-04
  142 T=    60. E= -.41286647E+03 F= -.41316195E+03 E0= -.41314129E+03  EK= 0.29548E+00 SP= 0.00E+00 SK= 0.00E+00
       N       E                     dE             d eps       ncg     rms          rms(c)
RMM:   1    -0.413157746630E+03    0.42000E-02   -0.92737E+00  4264   0.813E-01    0.850E-01
RMM:   2    -0.413164471213E+03   -0.67246E-02   -0.10807E-01  4308   0.947E-02    0.607E-01
RMM:   3    -0.413162097420E+03    0.23738E-02   -0.98321E-03  4595   0.403E-02    0.890E-02
RMM:   4    -0.413162303740E+03   -0.20632E-03   -0.81856E-04  5170   0.230E-02    0.615E-02
RMM:   5    -0.413162201844E+03    0.10190E-03   -0.20851E-04  4934   0.149E-02    0.455E-02
RMM:   6    -0.413162153802E+03    0.48042E-04   -0.20365E-04  5184   0.147E-02    0.266E-02
RMM:   7    -0.413162166811E+03   -0.13009E-04   -0.14210E-04  4849   0.945E-03    0.142E-02
RMM:   8    -0.413162163914E+03    0.28973E-05   -0.98018E-06  3646   0.416E-03    0.682E-03
RMM:   9    -0.413162165576E+03   -0.16617E-05   -0.42060E-06  2522   0.218E-03    0.238E-03
RMM:  10    -0.413162171727E+03   -0.61517E-05   -0.20471E-06  2530   0.192E-03    0.108E-03
RMM:  11    -0.413162175457E+03   -0.37302E-05   -0.97780E-07  2368   0.142E-03    0.591E-04
RMM:  12    -0.413162176670E+03   -0.12125E-05   -0.35260E-07  1902   0.933E-04    0.423E-04
RMM:  13    -0.413162177839E+03   -0.11695E-05   -0.26290E-07  1559   0.769E-04    0.276E-04
RMM:  14    -0.413162178588E+03   -0.74838E-06   -0.26609E-07  1520   0.736E-04
  143 T=    60. E= -.41286658E+03 F= -.41316218E+03 E0= -.41314153E+03  EK= 0.29560E+00 SP= 0.00E+00 SK= 0.00E+00
       N       E                     dE             d eps       ncg     rms          rms(c)
RMM:   1    -0.413156972609E+03    0.52052E-02   -0.93409E+00  4264   0.816E-01    0.855E-01
RMM:   2    -0.413163699236E+03   -0.67266E-02   -0.10736E-01  4301   0.959E-02    0.599E-01
RMM:   3    -0.413161572901E+03    0.21263E-02   -0.93596E-03  4701   0.382E-02    0.103E-01
RMM:   4    -0.413164568263E+03   -0.29954E-02   -0.35701E-03  5194   0.508E-02    0.233E-01
RMM:   5    -0.413161596093E+03    0.29722E-02   -0.15952E-03  4843   0.398E-02    0.393E-02
RMM:   6    -0.413161578954E+03    0.17138E-04   -0.41765E-04  5484   0.210E-02    0.273E-02
RMM:   7    -0.413161582303E+03   -0.33487E-05   -0.15745E-04  5332   0.104E-02    0.131E-02
RMM:   8    -0.413161580855E+03    0.14483E-05   -0.19730E-05  4524   0.516E-03    0.630E-03
RMM:   9    -0.413161581626E+03   -0.77185E-06   -0.32244E-06  2602   0.214E-03
  144 T=    60. E= -.41286630E+03 F= -.41316158E+03 E0= -.41314094E+03  EK= 0.29528E+00 SP= 0.00E+00 SK= 0.00E+00
       N       E                     dE             d eps       ncg     rms          rms(c)
RMM:   1    -0.413157174031E+03    0.44068E-02   -0.94055E+00  4264   0.826E-01    0.835E-01
RMM:   2    -0.413164522506E+03   -0.73485E-02   -0.11012E-01  4312   0.946E-02    0.602E-01
RMM:   3    -0.413162647780E+03    0.18747E-02   -0.90174E-03  4913   0.395E-02    0.108E-01
RMM:   4    -0.413178322819E+03   -0.15675E-01   -0.16252E-02  5153   0.107E-01    0.525E-01
RMM:   5    -0.413162505890E+03    0.15817E-01   -0.79241E-03  4837   0.869E-02    0.452E-02
RMM:   6    -0.413162513293E+03   -0.74026E-05   -0.14053E-03  5700   0.353E-02    0.258E-02
RMM:   7    -0.413162538572E+03   -0.25279E-04   -0.22828E-04  5785   0.128E-02    0.123E-02
RMM:   8    -0.413162547907E+03   -0.93352E-05   -0.38495E-05  5058   0.660E-03    0.685E-03
RMM:   9    -0.413162550928E+03   -0.30213E-05   -0.49714E-06  2964   0.283E-03    0.344E-03
RMM:  10    -0.413162558323E+03   -0.73948E-05   -0.22291E-06  2560   0.214E-03    0.211E-03
RMM:  11    -0.413162564504E+03   -0.61806E-05   -0.12726E-06  2506   0.163E-03    0.985E-04
RMM:  12    -0.413162568025E+03   -0.35215E-05   -0.71569E-07  2353   0.121E-03    0.510E-04
RMM:  13    -0.413162570000E+03   -0.19744E-05   -0.42885E-07  1904   0.931E-04    0.302E-04
RMM:  14    -0.413162570999E+03   -0.99897E-06   -0.26295E-07  1502   0.786E-04
  145 T=    60. E= -.41286648E+03 F= -.41316257E+03 E0= -.41314194E+03  EK= 0.29609E+00 SP= 0.00E+00 SK= 0.00E+00
       N       E                     dE             d eps       ncg     rms          rms(c)
RMM:   1    -0.413157086576E+03    0.54834E-02   -0.95837E+00  4265   0.830E-01    0.845E-01
RMM:   2    -0.413164911845E+03   -0.78253E-02   -0.11165E-01  4301   0.968E-02    0.607E-01
RMM:   3    -0.413162910010E+03    0.20018E-02   -0.87194E-03  4881   0.405E-02    0.112E-01
RMM:   4    -0.413178689557E+03   -0.15780E-01   -0.16302E-02  5154   0.107E-01    0.526E-01
RMM:   5    -0.413162765972E+03    0.15924E-01   -0.80424E-03  4839   0.872E-02    0.444E-02
RMM:   6    -0.413162768300E+03   -0.23275E-05   -0.13687E-03  5710   0.351E-02    0.250E-02
RMM:   7    -0.413162791664E+03   -0.23364E-04   -0.21435E-04  5745   0.123E-02    0.115E-02
RMM:   8    -0.413162800515E+03   -0.88506E-05   -0.35253E-05  4952   0.624E-03    0.649E-03
RMM:   9    -0.413162803317E+03   -0.28023E-05   -0.48749E-06  2961   0.279E-03    0.327E-03
RMM:  10    -0.413162809970E+03   -0.66534E-05   -0.20695E-06  2552   0.207E-03    0.203E-03
RMM:  11    -0.413162815705E+03   -0.57348E-05   -0.11553E-06  2497   0.157E-03    0.939E-04
RMM:  12    -0.413162818905E+03   -0.32000E-05   -0.63307E-07  2261   0.115E-03    0.470E-04
RMM:  13    -0.413162820753E+03   -0.18480E-05   -0.37295E-07  1869   0.901E-04    0.282E-04
RMM:  14    -0.413162821791E+03   -0.10377E-05   -0.23587E-07  1458   0.767E-04    0.185E-04
RMM:  15    -0.413162822592E+03   -0.80089E-06   -0.24888E-07  1537   0.762E-04
  146 T=    60. E= -.41286621E+03 F= -.41316282E+03 E0= -.41314220E+03  EK= 0.29661E+00 SP= 0.00E+00 SK= 0.00E+00
       N       E                     dE             d eps       ncg     rms          rms(c)
RMM:   1    -0.413157024150E+03    0.57976E-02   -0.96946E+00  4264   0.837E-01    0.861E-01
RMM:   2    -0.413164510985E+03   -0.74868E-02   -0.11088E-01  4300   0.985E-02    0.599E-01
RMM:   3    -0.413162991463E+03    0.15195E-02   -0.86069E-03  4953   0.440E-02    0.138E-01
RMM:   4    -0.413189814210E+03   -0.26823E-01   -0.28101E-02  5145   0.140E-01    0.683E-01
RMM:   5    -0.413162595014E+03    0.27219E-01   -0.13509E-02  4824   0.114E-01    0.525E-02
RMM:   6    -0.413162634527E+03   -0.39513E-04   -0.22856E-03  5689   0.452E-02    0.260E-02
RMM:   7    -0.413162654386E+03   -0.19859E-04   -0.31788E-04  5919   0.147E-02    0.138E-02
RMM:   8    -0.413162658110E+03   -0.37245E-05   -0.46473E-05  5207   0.705E-03    0.713E-03
RMM:   9    -0.413162658155E+03   -0.44864E-07   -0.79888E-06  3278   0.326E-03
  147 T=    60. E= -.41286626E+03 F= -.41316266E+03 E0= -.41314204E+03  EK= 0.29640E+00 SP= 0.00E+00 SK= 0.00E+00
       N       E                     dE             d eps       ncg     rms          rms(c)
RMM:   1    -0.413156612508E+03    0.60456E-02   -0.97273E+00  4265   0.843E-01    0.838E-01
RMM:   2    -0.413164752083E+03   -0.81396E-02   -0.11302E-01  4315   0.977E-02    0.597E-01
RMM:   3    -0.413165137678E+03   -0.38560E-03   -0.94205E-03  5140   0.571E-02    0.220E-01
RMM:   4    -0.413196162947E+03   -0.31025E-01   -0.40550E-02  5119   0.168E-01    0.750E-01
RMM:   5    -0.413163223854E+03    0.32939E-01   -0.15351E-02  4799   0.126E-01    0.657E-02
RMM:   6    -0.413163149733E+03    0.74121E-04   -0.24733E-03  5511   0.494E-02    0.240E-02
RMM:   7    -0.413163194532E+03   -0.44800E-04   -0.43081E-04  6073   0.181E-02    0.162E-02
RMM:   8    -0.413163202416E+03   -0.78831E-05   -0.71966E-05  5505   0.882E-03    0.834E-03
RMM:   9    -0.413163207172E+03   -0.47561E-05   -0.13216E-05  3921   0.422E-03    0.380E-03
RMM:  10    -0.413163211291E+03   -0.41196E-05   -0.21392E-06  2566   0.214E-03    0.245E-03
RMM:  11    -0.413163217591E+03   -0.63002E-05   -0.17683E-06  2548   0.194E-03    0.153E-03
RMM:  12    -0.413163221455E+03   -0.38640E-05   -0.98703E-07  2511   0.145E-03    0.640E-04
RMM:  13    -0.413163222978E+03   -0.15225E-05   -0.42997E-07  1944   0.981E-04    0.383E-04
RMM:  14    -0.413163224229E+03   -0.12511E-05   -0.35450E-07  1661   0.862E-04    0.228E-04
RMM:  15    -0.413163224976E+03   -0.74731E-06   -0.38017E-07  1790   0.851E-04
  148 T=    60. E= -.41286644E+03 F= -.41316322E+03 E0= -.41314261E+03  EK= 0.29678E+00 SP= 0.00E+00 SK= 0.00E+00
       N       E                     dE             d eps       ncg     rms          rms(c)
RMM:   1    -0.413156469966E+03    0.67543E-02   -0.99026E+00  4264   0.849E-01    0.841E-01
RMM:   2    -0.413165298479E+03   -0.88285E-02   -0.11572E-01  4309   0.989E-02    0.606E-01
RMM:   3    -0.413163990219E+03    0.13083E-02   -0.79173E-03  5005   0.462E-02    0.151E-01
RMM:   4    -0.413198607045E+03   -0.34617E-01   -0.37302E-02  5143   0.160E-01    0.773E-01
RMM:   5    -0.413163340046E+03    0.35267E-01   -0.17333E-02  4819   0.129E-01    0.556E-02
RMM:   6    -0.413163392192E+03   -0.52146E-04   -0.27933E-03  5676   0.508E-02    0.220E-02
RMM:   7    -0.413163429617E+03   -0.37425E-04   -0.36579E-04  5995   0.156E-02    0.136E-02
RMM:   8    -0.413163441508E+03   -0.11891E-04   -0.52017E-05  5330   0.723E-03    0.719E-03
RMM:   9    -0.413163446110E+03   -0.46019E-05   -0.97529E-06  3369   0.343E-03    0.331E-03
RMM:  10    -0.413163452419E+03   -0.63087E-05   -0.27024E-06  2590   0.222E-03    0.230E-03
RMM:  11    -0.413163458791E+03   -0.63719E-05   -0.13890E-06  2521   0.173E-03    0.134E-03
RMM:  12    -0.413163463700E+03   -0.49090E-05   -0.88744E-07  2483   0.133E-03    0.498E-04
RMM:  13    -0.413163465414E+03   -0.17147E-05   -0.36497E-07  1864   0.917E-04    0.314E-04
RMM:  14    -0.413163467301E+03   -0.18861E-05   -0.31636E-07  1596   0.844E-04    0.202E-04
RMM:  15    -0.413163468409E+03   -0.11080E-05   -0.24835E-07  1583   0.778E-04    0.115E-04
RMM:  16    -0.413163468861E+03   -0.45191E-06   -0.17399E-07  1419   0.701E-04
  149 T=    61. E= -.41286612E+03 F= -.41316347E+03 E0= -.41314286E+03  EK= 0.29735E+00 SP= 0.00E+00 SK= 0.00E+00
       N       E                     dE             d eps       ncg     rms          rms(c)
RMM:   1    -0.413156929461E+03    0.65389E-02   -0.10026E+01  4264   0.856E-01    0.863E-01
RMM:   2    -0.413164920388E+03   -0.79909E-02   -0.11493E-01  4300   0.101E-01    0.598E-01
RMM:   3    -0.413164546185E+03    0.37420E-03   -0.79946E-03  5079   0.462E-02    0.172E-01
RMM:   4    -0.413199959879E+03   -0.35414E-01   -0.39127E-02  5138   0.164E-01    0.784E-01
RMM:   5    -0.413163747576E+03    0.36212E-01   -0.17693E-02  4816   0.132E-01    0.589E-02
RMM:   6    -0.413163780306E+03   -0.32730E-04   -0.28684E-03  5649   0.516E-02    0.224E-02
RMM:   7    -0.413163810977E+03   -0.30670E-04   -0.39730E-04  6048   0.161E-02    0.142E-02
RMM:   8    -0.413163814571E+03   -0.35947E-05   -0.55786E-05  5384   0.750E-03    0.748E-03
RMM:   9    -0.413163814856E+03   -0.28436E-06   -0.98425E-06  3367   0.348E-03
  150 T=    61. E= -.41286639E+03 F= -.41316381E+03 E0= -.41314321E+03  EK= 0.29743E+00 SP= 0.00E+00 SK= 0.00E+00
