       N       E                     dE             d eps       ncg     rms          rms(c)
RMM:   1     0.220162687286E+04    0.22016E+04   -0.52441E+04  2132   0.654E+02
RMM:   2     0.705830276386E+03   -0.14958E+04   -0.16263E+04  2132   0.177E+02
RMM:   3     0.137704329536E+03   -0.56813E+03   -0.65727E+03  2132   0.117E+02
RMM:   4    -0.159346916746E+03   -0.29705E+03   -0.27843E+03  2132   0.936E+01
RMM:   5    -0.287546424546E+03   -0.12820E+03   -0.11444E+03  2132   0.595E+01
RMM:   6    -0.349956290899E+03   -0.62410E+02   -0.55115E+02  2132   0.423E+01
RMM:   7    -0.382807139110E+03   -0.32851E+02   -0.30408E+02  2132   0.293E+01
RMM:   8    -0.404332225059E+03   -0.21525E+02   -0.18411E+02  2132   0.233E+01
RMM:   9    -0.435975241431E+03   -0.31643E+02   -0.30577E+02  6089   0.173E+01
RMM:  10    -0.441252442763E+03   -0.52772E+01   -0.63088E+01  6399   0.538E+00
RMM:  11    -0.442513936633E+03   -0.12615E+01   -0.11493E+01  6223   0.174E+00
RMM:  12    -0.442893110150E+03   -0.37917E+00   -0.27233E+00  6375   0.601E-01    0.134E+02
RMM:  13    -0.425594804300E+03    0.17298E+02   -0.80872E+01  4671   0.119E+01    0.712E+01
RMM:  14    -0.498740164929E+03   -0.73145E+02   -0.53608E+02  5410   0.232E+01    0.306E+01
RMM:  15    -0.414687921519E+03    0.84052E+02   -0.19518E+02  5059   0.162E+01    0.632E+00
RMM:  16    -0.414066922444E+03    0.62100E+00   -0.39340E+01  6080   0.604E+00    0.430E+00
RMM:  17    -0.413219760508E+03    0.84716E+00   -0.23313E+00  5353   0.183E+00    0.246E+00
RMM:  18    -0.413166139390E+03    0.53621E-01   -0.87291E-01  5967   0.962E-01    0.160E+00
RMM:  19    -0.413167403257E+03   -0.12639E-02   -0.27999E-01  5728   0.562E-01    0.850E-01
RMM:  20    -0.413182510968E+03   -0.15108E-01   -0.21176E-01  5411   0.500E-01    0.540E-01
RMM:  21    -0.413166725045E+03    0.15786E-01   -0.32573E-02  5013   0.224E-01    0.253E-01
RMM:  22    -0.413165031533E+03    0.16935E-02   -0.14475E-02  6049   0.104E-01    0.142E-01
RMM:  23    -0.413163750958E+03    0.12806E-02   -0.49196E-03  5897   0.641E-02    0.792E-02
RMM:  24    -0.413162548955E+03    0.12020E-02   -0.16091E-03  5530   0.397E-02    0.360E-02
RMM:  25    -0.413162382844E+03    0.16611E-03   -0.74386E-04  5642   0.234E-02    0.304E-02
RMM:  26    -0.413162655726E+03   -0.27288E-03   -0.72404E-04  5783   0.283E-02    0.340E-02
RMM:  27    -0.413163078661E+03   -0.42293E-03   -0.18256E-04  4562   0.194E-02    0.180E-02
RMM:  28    -0.413163574704E+03   -0.49604E-03   -0.21031E-04  5290   0.203E-02    0.861E-03
RMM:  29    -0.413163925020E+03   -0.35032E-03   -0.93787E-05  4394   0.139E-02    0.473E-03
RMM:  30    -0.413164143544E+03   -0.21852E-03   -0.69573E-05  3970   0.971E-03    0.326E-03
RMM:  31    -0.413164251491E+03   -0.10795E-03   -0.45162E-05  3103   0.597E-03    0.252E-03
RMM:  32    -0.413164276105E+03   -0.24613E-04   -0.18378E-05  2928   0.293E-03    0.130E-03
RMM:  33    -0.413164286176E+03   -0.10071E-04   -0.82211E-06  2778   0.218E-03    0.612E-04
RMM:  34    -0.413164289244E+03   -0.30687E-05   -0.44195E-06  2652   0.164E-03    0.898E-04
RMM:  35    -0.413164289054E+03    0.18981E-06   -0.20600E-06  2189   0.112E-03
    1 T=    61. E= -.41286650E+03 F= -.41316429E+03 E0= -.41314179E+03  EK= 0.29779E+00 SP= 0.00E+00 SK= 0.00E+00
       N       E                     dE             d eps       ncg     rms          rms(c)
RMM:   1    -0.413154715352E+03    0.95739E-02   -0.11172E+01  3991   0.706E-01    0.886E-01
RMM:   2    -0.413165364649E+03   -0.10649E-01   -0.13792E-01  3965   0.100E-01    0.640E-01
RMM:   3    -0.413163959371E+03    0.14053E-02   -0.63164E-03  4753   0.366E-02    0.158E-01
RMM:   4    -0.413184915447E+03   -0.20956E-01   -0.21854E-02  5221   0.123E-01    0.605E-01
RMM:   5    -0.413163592838E+03    0.21323E-01   -0.10596E-02  4859   0.101E-01    0.299E-02
RMM:   6    -0.413163729325E+03   -0.13649E-03   -0.16717E-03  5848   0.396E-02    0.157E-02
RMM:   7    -0.413163746015E+03   -0.16690E-04   -0.20870E-04  5798   0.120E-02    0.121E-02
RMM:   8    -0.413163752353E+03   -0.63378E-05   -0.26396E-05  4119   0.469E-03    0.728E-03
RMM:   9    -0.413163758789E+03   -0.64366E-05   -0.48144E-06  2840   0.261E-03    0.478E-03
RMM:  10    -0.413163766856E+03   -0.80665E-05   -0.19502E-06  2560   0.195E-03    0.248E-03
RMM:  11    -0.413163774193E+03   -0.73373E-05   -0.14283E-06  2543   0.166E-03    0.120E-03
RMM:  12    -0.413163778362E+03   -0.41690E-05   -0.75639E-07  2390   0.123E-03    0.435E-04
RMM:  13    -0.413163780127E+03   -0.17655E-05   -0.40036E-07  1870   0.880E-04    0.249E-04
RMM:  14    -0.413163782275E+03   -0.21472E-05   -0.30763E-07  1498   0.766E-04    0.152E-04
RMM:  15    -0.413163784286E+03   -0.20110E-05   -0.24571E-07  1330   0.712E-04    0.974E-05
RMM:  16    -0.413163784913E+03   -0.62741E-06   -0.16705E-07  1130   0.639E-04
    2 T=    61. E= -.41286615E+03 F= -.41316378E+03 E0= -.41314128E+03  EK= 0.29764E+00 SP= 0.00E+00 SK= 0.00E+00
       N       E                     dE             d eps       ncg     rms          rms(c)
RMM:   1    -0.413155554441E+03    0.82298E-02   -0.11201E+01  4196   0.704E-01    0.911E-01
RMM:   2    -0.413165460659E+03   -0.99062E-02   -0.13511E-01  4051   0.976E-02    0.633E-01
RMM:   3    -0.413164720313E+03    0.74035E-03   -0.67675E-03  4867   0.384E-02    0.169E-01
RMM:   4    -0.413193518019E+03   -0.28798E-01   -0.29191E-02  5189   0.143E-01    0.707E-01
RMM:   5    -0.413164334382E+03    0.29184E-01   -0.14193E-02  4831   0.118E-01    0.365E-02
RMM:   6    -0.413164509363E+03   -0.17498E-03   -0.22749E-03  5811   0.462E-02    0.186E-02
RMM:   7    -0.413164521905E+03   -0.12542E-04   -0.26983E-04  5890   0.137E-02    0.136E-02
RMM:   8    -0.413164522733E+03   -0.82886E-06   -0.34599E-05  4389   0.521E-03    0.843E-03
RMM:   9    -0.413164522313E+03    0.42087E-06   -0.56351E-06  2953   0.273E-03
    3 T=    61. E= -.41286663E+03 F= -.41316452E+03 E0= -.41314203E+03  EK= 0.29789E+00 SP= 0.00E+00 SK= 0.00E+00
       N       E                     dE             d eps       ncg     rms          rms(c)
RMM:   1    -0.413155017449E+03    0.95053E-02   -0.11116E+01  4229   0.705E-01    0.894E-01
RMM:   2    -0.413165568624E+03   -0.10551E-01   -0.13401E-01  4208   0.988E-02    0.627E-01
RMM:   3    -0.413167779217E+03   -0.22106E-02   -0.91304E-03  5173   0.657E-02    0.296E-01
RMM:   4    -0.413193905758E+03   -0.26127E-01   -0.40561E-02  5137   0.170E-01    0.717E-01
RMM:   5    -0.413164151275E+03    0.29754E-01   -0.12510E-02  4739   0.120E-01    0.537E-02
RMM:   6    -0.413164198022E+03   -0.46746E-04   -0.21151E-03  5577   0.457E-02    0.164E-02
RMM:   7    -0.413164222866E+03   -0.24845E-04   -0.30163E-04  6042   0.150E-02    0.119E-02
RMM:   8    -0.413164225964E+03   -0.30972E-05   -0.37844E-05  4722   0.557E-03    0.733E-03
RMM:   9    -0.413164228062E+03   -0.20987E-05   -0.70370E-06  3108   0.360E-03    0.359E-03
RMM:  10    -0.413164229910E+03   -0.18475E-05   -0.18788E-06  2556   0.216E-03    0.216E-03
RMM:  11    -0.413164232084E+03   -0.21737E-05   -0.10305E-06  2544   0.157E-03    0.104E-03
RMM:  12    -0.413164233139E+03   -0.10553E-05   -0.47915E-07  2178   0.107E-03    0.470E-04
RMM:  13    -0.413164234296E+03   -0.11567E-05   -0.37917E-07  1775   0.888E-04    0.219E-04
RMM:  14    -0.413164234803E+03   -0.50697E-06   -0.20880E-07  1363   0.725E-04
    4 T=    61. E= -.41286630E+03 F= -.41316423E+03 E0= -.41314175E+03  EK= 0.29793E+00 SP= 0.00E+00 SK= 0.00E+00
       N       E                     dE             d eps       ncg     rms          rms(c)
RMM:   1    -0.413154773752E+03    0.94605E-02   -0.11157E+01  4236   0.711E-01    0.884E-01
RMM:   2    -0.413165711240E+03   -0.10937E-01   -0.13816E-01  3981   0.954E-02    0.639E-01
RMM:   3    -0.413164611185E+03    0.11001E-02   -0.63451E-03  4929   0.368E-02    0.165E-01
RMM:   4    -0.413195343241E+03   -0.30732E-01   -0.31352E-02  5162   0.148E-01    0.730E-01
RMM:   5    -0.413164084423E+03    0.31259E-01   -0.15135E-02  4818   0.122E-01    0.362E-02
RMM:   6    -0.413164274047E+03   -0.18962E-03   -0.24341E-03  5787   0.476E-02    0.168E-02
RMM:   7    -0.413164294240E+03   -0.20193E-04   -0.28709E-04  5868   0.138E-02    0.130E-02
RMM:   8    -0.413164299406E+03   -0.51655E-05   -0.35388E-05  4371   0.521E-03    0.817E-03
RMM:   9    -0.413164304011E+03   -0.46049E-05   -0.57161E-06  2928   0.273E-03    0.555E-03
RMM:  10    -0.413164310623E+03   -0.66124E-05   -0.21364E-06  2566   0.212E-03    0.278E-03
RMM:  11    -0.413164316345E+03   -0.57221E-05   -0.14341E-06  2540   0.177E-03    0.138E-03
RMM:  12    -0.413164319809E+03   -0.34637E-05   -0.73680E-07  2434   0.133E-03    0.491E-04
RMM:  13    -0.413164321165E+03   -0.13566E-05   -0.33209E-07  2000   0.934E-04    0.295E-04
RMM:  14    -0.413164322688E+03   -0.15230E-05   -0.22470E-07  1525   0.781E-04    0.171E-04
RMM:  15    -0.413164324386E+03   -0.16978E-05   -0.21343E-07  1505   0.749E-04    0.135E-04
RMM:  16    -0.413164324701E+03   -0.31508E-06   -0.97672E-08  1107   0.632E-04
    5 T=    61. E= -.41286617E+03 F= -.41316432E+03 E0= -.41314185E+03  EK= 0.29816E+00 SP= 0.00E+00 SK= 0.00E+00
       N       E                     dE             d eps       ncg     rms          rms(c)
RMM:   1    -0.413155742336E+03    0.85821E-02   -0.11215E+01  4248   0.716E-01    0.907E-01
RMM:   2    -0.413166079207E+03   -0.10337E-01   -0.13523E-01  4092   0.974E-02    0.635E-01
RMM:   3    -0.413165162041E+03    0.91717E-03   -0.65884E-03  4863   0.371E-02    0.168E-01
RMM:   4    -0.413193069209E+03   -0.27907E-01   -0.28176E-02  5161   0.140E-01    0.696E-01
RMM:   5    -0.413164755246E+03    0.28314E-01   -0.13771E-02  4820   0.116E-01    0.355E-02
RMM:   6    -0.413164921803E+03   -0.16656E-03   -0.21902E-03  5788   0.451E-02    0.181E-02
RMM:   7    -0.413164934092E+03   -0.12289E-04   -0.25824E-04  5853   0.133E-02    0.133E-02
RMM:   8    -0.413164935143E+03   -0.10514E-05   -0.32757E-05  4348   0.512E-03    0.826E-03
RMM:   9    -0.413164934854E+03    0.28959E-06   -0.54835E-06  2916   0.272E-03
    6 T=    61. E= -.41286640E+03 F= -.41316493E+03 E0= -.41314247E+03  EK= 0.29853E+00 SP= 0.00E+00 SK= 0.00E+00
       N       E                     dE             d eps       ncg     rms          rms(c)
RMM:   1    -0.413155872322E+03    0.90628E-02   -0.11161E+01  4265   0.731E-01    0.902E-01
RMM:   2    -0.413165411673E+03   -0.95394E-02   -0.13448E-01  4255   0.100E-01    0.628E-01
RMM:   3    -0.413167859986E+03   -0.24483E-02   -0.92084E-03  5140   0.646E-02    0.291E-01
RMM:   4    -0.413194571341E+03   -0.26711E-01   -0.40499E-02  5124   0.169E-01    0.722E-01
RMM:   5    -0.413164402989E+03    0.30168E-01   -0.12732E-02  4741   0.120E-01    0.533E-02
RMM:   6    -0.413164461906E+03   -0.58918E-04   -0.21656E-03  5582   0.461E-02    0.164E-02
RMM:   7    -0.413164485153E+03   -0.23247E-04   -0.30249E-04  6036   0.149E-02    0.120E-02
RMM:   8    -0.413164486710E+03   -0.15564E-05   -0.37867E-05  4695   0.556E-03    0.737E-03
RMM:   9    -0.413164485358E+03    0.13517E-05   -0.67424E-06  3028   0.352E-03    0.353E-03
RMM:  10    -0.413164485324E+03    0.34222E-07   -0.18977E-06  2549   0.214E-03
    7 T=    61. E= -.41286598E+03 F= -.41316449E+03 E0= -.41314204E+03  EK= 0.29851E+00 SP= 0.00E+00 SK= 0.00E+00
       N       E                     dE             d eps       ncg     rms          rms(c)
RMM:   1    -0.413155635005E+03    0.88504E-02   -0.11151E+01  4274   0.730E-01    0.883E-01
RMM:   2    -0.413166638375E+03   -0.11003E-01   -0.13735E-01  4155   0.962E-02    0.636E-01
RMM:   3    -0.413165776015E+03    0.86236E-03   -0.65416E-03  5012   0.413E-02    0.180E-01
RMM:   4    -0.413206744404E+03   -0.40968E-01   -0.42847E-02  5153   0.172E-01    0.840E-01
RMM:   5    -0.413165014431E+03    0.41730E-01   -0.20198E-02  4810   0.141E-01    0.434E-02
RMM:   6    -0.413165222214E+03   -0.20778E-03   -0.31013E-03  5763   0.545E-02    0.169E-02
RMM:   7    -0.413165250591E+03   -0.28378E-04   -0.37932E-04  5944   0.157E-02    0.136E-02
RMM:   8    -0.413165255344E+03   -0.47530E-05   -0.44405E-05  4459   0.562E-03    0.839E-03
RMM:   9    -0.413165258699E+03   -0.33551E-05   -0.69790E-06  2991   0.283E-03    0.558E-03
RMM:  10    -0.413165264050E+03   -0.53502E-05   -0.25569E-06  2581   0.226E-03    0.271E-03
RMM:  11    -0.413165268196E+03   -0.41462E-05   -0.14460E-06  2540   0.176E-03    0.127E-03
RMM:  12    -0.413165270717E+03   -0.25215E-05   -0.80622E-07  2447   0.135E-03    0.419E-04
RMM:  13    -0.413165272079E+03   -0.13614E-05   -0.38604E-07  2010   0.966E-04    0.281E-04
RMM:  14    -0.413165273321E+03   -0.12423E-05   -0.29930E-07  1655   0.825E-04    0.194E-04
RMM:  15    -0.413165274003E+03   -0.68163E-06   -0.19556E-07  1355   0.726E-04
    8 T=    61. E= -.41286653E+03 F= -.41316527E+03 E0= -.41314284E+03  EK= 0.29875E+00 SP= 0.00E+00 SK= 0.00E+00
       N       E                     dE             d eps       ncg     rms          rms(c)
RMM:   1    -0.413156055452E+03    0.92179E-02   -0.11214E+01  4284   0.729E-01    0.901E-01
RMM:   2    -0.413166494887E+03   -0.10439E-01   -0.13655E-01  4197   0.101E-01    0.638E-01
RMM:   3    -0.413165602938E+03    0.89195E-03   -0.65503E-03  4854   0.387E-02    0.168E-01
RMM:   4    -0.413195053228E+03   -0.29450E-01   -0.29950E-02  5158   0.144E-01    0.716E-01
RMM:   5    -0.413165083612E+03    0.29970E-01   -0.14684E-02  4809   0.119E-01    0.354E-02
RMM:   6    -0.413165257824E+03   -0.17421E-03   -0.22947E-03  5802   0.463E-02    0.178E-02
RMM:   7    -0.413165270816E+03   -0.12992E-04   -0.27100E-04  5856   0.137E-02    0.133E-02
RMM:   8    -0.413165272326E+03   -0.15092E-05   -0.34219E-05  4374   0.523E-03    0.838E-03
RMM:   9    -0.413165272143E+03    0.18228E-06   -0.57406E-06  2941   0.278E-03
    9 T=    61. E= -.41286638E+03 F= -.41316527E+03 E0= -.41314286E+03  EK= 0.29889E+00 SP= 0.00E+00 SK= 0.00E+00
       N       E                     dE             d eps       ncg     rms          rms(c)
RMM:   1    -0.413156542870E+03    0.87295E-02   -0.11198E+01  4292   0.733E-01    0.909E-01
RMM:   2    -0.413166200714E+03   -0.96578E-02   -0.13456E-01  4285   0.988E-02    0.629E-01
RMM:   3    -0.413169218207E+03   -0.30175E-02   -0.97352E-03  5142   0.676E-02    0.306E-01
RMM:   4    -0.413192996577E+03   -0.23778E-01   -0.38840E-02  5110   0.166E-01    0.693E-01
RMM:   5    -0.413165422722E+03    0.27574E-01   -0.11517E-02  4725   0.115E-01    0.524E-02
RMM:   6    -0.413165459670E+03   -0.36948E-04   -0.19517E-03  5558   0.436E-02    0.171E-02
RMM:   7    -0.413165477929E+03   -0.18259E-04   -0.27492E-04  6031   0.145E-02    0.121E-02
RMM:   8    -0.413165477967E+03   -0.37933E-07   -0.35089E-05  4690   0.544E-03    0.735E-03
RMM:   9    -0.413165473968E+03    0.39990E-05   -0.69318E-06  3066   0.360E-03    0.358E-03
RMM:  10    -0.413165472761E+03    0.12070E-05   -0.17712E-06  2548   0.212E-03    0.211E-03
RMM:  11    -0.413165471369E+03    0.13922E-05   -0.97718E-07  2535   0.154E-03    0.101E-03
RMM:  12    -0.413165470420E+03    0.94827E-06   -0.44908E-07  2151   0.105E-03
   10 T=    61. E= -.41286628E+03 F= -.41316547E+03 E0= -.41314308E+03  EK= 0.29919E+00 SP= 0.00E+00 SK= 0.00E+00
       N       E                     dE             d eps       ncg     rms          rms(c)
RMM:   1    -0.413156644547E+03    0.88268E-02   -0.11152E+01  4289   0.737E-01    0.884E-01
RMM:   2    -0.413167665039E+03   -0.11020E-01   -0.13625E-01  4223   0.972E-02    0.633E-01
RMM:   3    -0.413166571260E+03    0.10938E-02   -0.62662E-03  4910   0.387E-02    0.169E-01
RMM:   4    -0.413198305066E+03   -0.31734E-01   -0.32479E-02  5155   0.150E-01    0.743E-01
RMM:   5    -0.413165976360E+03    0.32329E-01   -0.15891E-02  4810   0.124E-01    0.363E-02
RMM:   6    -0.413166158198E+03   -0.18184E-03   -0.24382E-03  5808   0.478E-02    0.178E-02
RMM:   7    -0.413166172845E+03   -0.14647E-04   -0.28709E-04  5874   0.140E-02    0.134E-02
RMM:   8    -0.413166175054E+03   -0.22087E-05   -0.37416E-05  4467   0.538E-03    0.864E-03
RMM:   9    -0.413166175435E+03   -0.38138E-06   -0.61316E-06  2987   0.281E-03
   11 T=    61. E= -.41286645E+03 F= -.41316618E+03 E0= -.41314382E+03  EK= 0.29973E+00 SP= 0.00E+00 SK= 0.00E+00
       N       E                     dE             d eps       ncg     rms          rms(c)
RMM:   1    -0.413156671827E+03    0.95032E-02   -0.11236E+01  4295   0.744E-01    0.896E-01
RMM:   2    -0.413167266224E+03   -0.10594E-01   -0.13808E-01  4281   0.982E-02    0.641E-01
RMM:   3    -0.413169935752E+03   -0.26695E-02   -0.95138E-03  5139   0.680E-02    0.308E-01
RMM:   4    -0.413197278478E+03   -0.27343E-01   -0.43605E-02  5108   0.176E-01    0.735E-01
RMM:   5    -0.413165890818E+03    0.31388E-01   -0.13134E-02  4723   0.122E-01    0.535E-02
RMM:   6    -0.413165952417E+03   -0.61599E-04   -0.22353E-03  5587   0.464E-02    0.152E-02
RMM:   7    -0.413165978403E+03   -0.25986E-04   -0.30787E-04  6034   0.151E-02    0.117E-02
RMM:   8    -0.413165981584E+03   -0.31810E-05   -0.38767E-05  4732   0.557E-03    0.722E-03
RMM:   9    -0.413165983728E+03   -0.21435E-05   -0.71912E-06  3122   0.365E-03    0.374E-03
RMM:  10    -0.413165985389E+03   -0.16613E-05   -0.19953E-06  2556   0.218E-03    0.223E-03
RMM:  11    -0.413165987046E+03   -0.16570E-05   -0.11472E-06  2546   0.161E-03    0.105E-03
RMM:  12    -0.413165987770E+03   -0.72417E-06   -0.49678E-07  2226   0.109E-03
   12 T=    61. E= -.41286594E+03 F= -.41316599E+03 E0= -.41314366E+03  EK= 0.30005E+00 SP= 0.00E+00 SK= 0.00E+00
       N       E                     dE             d eps       ncg     rms          rms(c)
RMM:   1    -0.413157670368E+03    0.83167E-02   -0.11261E+01  4294   0.748E-01    0.914E-01
RMM:   2    -0.413167594577E+03   -0.99242E-02   -0.13493E-01  4225   0.938E-02    0.632E-01
RMM:   3    -0.413167064534E+03    0.53004E-03   -0.68419E-03  4981   0.377E-02    0.178E-01
RMM:   4    -0.413201804351E+03   -0.34740E-01   -0.35676E-02  5151   0.157E-01    0.775E-01
RMM:   5    -0.413166525747E+03    0.35279E-01   -0.17332E-02  4804   0.129E-01    0.396E-02
RMM:   6    -0.413166714219E+03   -0.18847E-03   -0.26458E-03  5808   0.500E-02    0.198E-02
RMM:   7    -0.413166725288E+03   -0.11069E-04   -0.31163E-04  5886   0.147E-02    0.145E-02
RMM:   8    -0.413166723531E+03    0.17569E-05   -0.40631E-05  4550   0.560E-03    0.927E-03
RMM:   9    -0.413166719099E+03    0.44322E-05   -0.66253E-06  3016   0.287E-03    0.623E-03
RMM:  10    -0.413166714943E+03    0.41565E-05   -0.21923E-06  2558   0.217E-03    0.308E-03
RMM:  11    -0.413166711738E+03    0.32044E-05   -0.15687E-06  2535   0.188E-03    0.147E-03
RMM:  12    -0.413166709268E+03    0.24706E-05   -0.79916E-07  2449   0.142E-03    0.494E-04
RMM:  13    -0.413166708441E+03    0.82695E-06   -0.33612E-07  2106   0.971E-04
   13 T=    61. E= -.41286610E+03 F= -.41316671E+03 E0= -.41314441E+03  EK= 0.30061E+00 SP= 0.00E+00 SK= 0.00E+00
       N       E                     dE             d eps       ncg     rms          rms(c)
RMM:   1    -0.413157723472E+03    0.89858E-02   -0.11178E+01  4296   0.748E-01    0.889E-01
RMM:   2    -0.413168359522E+03   -0.10636E-01   -0.13689E-01  4244   0.968E-02    0.632E-01
RMM:   3    -0.413167513625E+03    0.84590E-03   -0.63476E-03  4886   0.369E-02    0.169E-01
RMM:   4    -0.413197092061E+03   -0.29578E-01   -0.30237E-02  5147   0.145E-01    0.717E-01
RMM:   5    -0.413166984550E+03    0.30108E-01   -0.14843E-02  4806   0.119E-01    0.349E-02
RMM:   6    -0.413167154167E+03   -0.16962E-03   -0.22512E-03  5801   0.462E-02    0.176E-02
RMM:   7    -0.413167164779E+03   -0.10612E-04   -0.26640E-04  5844   0.137E-02    0.132E-02
RMM:   8    -0.413167164606E+03    0.17342E-06   -0.34975E-05  4417   0.527E-03    0.844E-03
RMM:   9    -0.413167162805E+03    0.18013E-05   -0.56397E-06  2931   0.277E-03    0.576E-03
RMM:  10    -0.413167161915E+03    0.89004E-06   -0.20073E-06  2554   0.209E-03
   14 T=    61. E= -.41286617E+03 F= -.41316716E+03 E0= -.41314489E+03  EK= 0.30099E+00 SP= 0.00E+00 SK= 0.00E+00
       N       E                     dE             d eps       ncg     rms          rms(c)
RMM:   1    -0.413157671057E+03    0.94917E-02   -0.11261E+01  4307   0.756E-01    0.892E-01
RMM:   2    -0.413169119728E+03   -0.11449E-01   -0.13921E-01  4288   0.100E-01    0.643E-01
RMM:   3    -0.413170645954E+03   -0.15262E-02   -0.88319E-03  5120   0.640E-02    0.286E-01
RMM:   4    -0.413203473658E+03   -0.32828E-01   -0.46942E-02  5111   0.181E-01    0.786E-01
RMM:   5    -0.413167309686E+03    0.36164E-01   -0.15633E-02  4738   0.130E-01    0.512E-02
RMM:   6    -0.413167410103E+03   -0.10042E-03   -0.25328E-03  5639   0.495E-02    0.145E-02
RMM:   7    -0.413167437682E+03   -0.27579E-04   -0.32740E-04  6017   0.152E-02    0.117E-02
RMM:   8    -0.413167441111E+03   -0.34285E-05   -0.40526E-05  4686   0.560E-03    0.705E-03
RMM:   9    -0.413167442635E+03   -0.15238E-05   -0.61783E-06  2893   0.317E-03    0.342E-03
RMM:  10    -0.413167444289E+03   -0.16546E-05   -0.22155E-06  2563   0.210E-03    0.199E-03
RMM:  11    -0.413167445485E+03   -0.11954E-05   -0.10205E-06  2531   0.147E-03    0.885E-04
RMM:  12    -0.413167446111E+03   -0.62658E-06   -0.49292E-07  1954   0.104E-03
   15 T=    61. E= -.41286623E+03 F= -.41316745E+03 E0= -.41314521E+03  EK= 0.30121E+00 SP= 0.00E+00 SK= 0.00E+00
       N       E                     dE             d eps       ncg     rms          rms(c)
RMM:   1    -0.413159487584E+03    0.79579E-02   -0.11301E+01  4305   0.767E-01    0.916E-01
RMM:   2    -0.413169394399E+03   -0.99068E-02   -0.13619E-01  4257   0.100E-01    0.635E-01
RMM:   3    -0.413168757021E+03    0.63738E-03   -0.68304E-03  4916   0.404E-02    0.176E-01
RMM:   4    -0.413202257883E+03   -0.33501E-01   -0.34374E-02  5150   0.154E-01    0.762E-01
RMM:   5    -0.413168152540E+03    0.34105E-01   -0.16723E-02  4806   0.127E-01    0.384E-02
RMM:   6    -0.413168334467E+03   -0.18193E-03   -0.25715E-03  5802   0.493E-02    0.194E-02
RMM:   7    -0.413168343529E+03   -0.90619E-05   -0.30087E-04  5887   0.147E-02    0.143E-02
RMM:   8    -0.413168340918E+03    0.26109E-05   -0.39554E-05  4563   0.562E-03    0.928E-03
RMM:   9    -0.413168335593E+03    0.53244E-05   -0.63512E-06  2995   0.292E-03    0.626E-03
RMM:  10    -0.413168330487E+03    0.51061E-05   -0.21475E-06  2557   0.221E-03    0.314E-03
RMM:  11    -0.413168326328E+03    0.41594E-05   -0.15998E-06  2533   0.191E-03    0.149E-03
RMM:  12    -0.413168323351E+03    0.29768E-05   -0.77822E-07  2448   0.142E-03    0.506E-04
RMM:  13    -0.413168322363E+03    0.98796E-06   -0.32884E-07  2096   0.966E-04
   16 T=    61. E= -.41286655E+03 F= -.41316832E+03 E0= -.41314612E+03  EK= 0.30177E+00 SP= 0.00E+00 SK= 0.00E+00
       N       E                     dE             d eps       ncg     rms          rms(c)
RMM:   1    -0.413159471537E+03    0.88518E-02   -0.11214E+01  4298   0.760E-01    0.895E-01
RMM:   2    -0.413170025030E+03   -0.10553E-01   -0.13685E-01  4261   0.100E-01    0.631E-01
RMM:   3    -0.413169075993E+03    0.94904E-03   -0.64492E-03  4880   0.416E-02    0.175E-01
RMM:   4    -0.413202700621E+03   -0.33625E-01   -0.34404E-02  5144   0.154E-01    0.762E-01
RMM:   5    -0.413168581723E+03    0.34119E-01   -0.16864E-02  4808   0.127E-01    0.375E-02
RMM:   6    -0.413168766462E+03   -0.18474E-03   -0.25570E-03  5803   0.490E-02    0.187E-02
RMM:   7    -0.413168776775E+03   -0.10313E-04   -0.29959E-04  5887   0.144E-02    0.139E-02
RMM:   8    -0.413168775307E+03    0.14683E-05   -0.38831E-05  4484   0.548E-03    0.895E-03
RMM:   9    -0.413168771315E+03    0.39920E-05   -0.63491E-06  3001   0.282E-03    0.609E-03
RMM:  10    -0.413168767738E+03    0.35771E-05   -0.20786E-06  2547   0.214E-03    0.303E-03
RMM:  11    -0.413168765009E+03    0.27294E-05   -0.15309E-06  2533   0.186E-03    0.147E-03
RMM:  12    -0.413168762923E+03    0.20858E-05   -0.74147E-07  2437   0.140E-03    0.505E-04
RMM:  13    -0.413168762164E+03    0.75898E-06   -0.32544E-07  2081   0.959E-04
   17 T=    62. E= -.41286642E+03 F= -.41316876E+03 E0= -.41314660E+03  EK= 0.30235E+00 SP= 0.00E+00 SK= 0.00E+00
       N       E                     dE             d eps       ncg     rms          rms(c)
RMM:   1    -0.413159621508E+03    0.91414E-02   -0.11295E+01  4299   0.768E-01    0.890E-01
RMM:   2    -0.413171079091E+03   -0.11458E-01   -0.13948E-01  4272   0.101E-01    0.643E-01
RMM:   3    -0.413169739356E+03    0.13397E-02   -0.63294E-03  4900   0.393E-02    0.172E-01
RMM:   4    -0.413204121938E+03   -0.34383E-01   -0.35509E-02  5144   0.156E-01    0.771E-01
RMM:   5    -0.413169101045E+03    0.35021E-01   -0.17254E-02  4799   0.129E-01    0.376E-02
RMM:   6    -0.413169296331E+03   -0.19529E-03   -0.26666E-03  5795   0.497E-02    0.179E-02
RMM:   7    -0.413169311181E+03   -0.14851E-04   -0.30855E-04  5874   0.145E-02    0.137E-02
RMM:   8    -0.413169312139E+03   -0.95787E-06   -0.39838E-05  4520   0.553E-03    0.883E-03
RMM:   9    -0.413169310967E+03    0.11716E-05   -0.65253E-06  3001   0.288E-03    0.602E-03
RMM:  10    -0.413169311297E+03   -0.32943E-06   -0.22584E-06  2562   0.221E-03
   18 T=    62. E= -.41286622E+03 F= -.41316931E+03 E0= -.41314719E+03  EK= 0.30309E+00 SP= 0.00E+00 SK= 0.00E+00
       N       E                     dE             d eps       ncg     rms          rms(c)
RMM:   1    -0.413161350363E+03    0.79606E-02   -0.11359E+01  4305   0.772E-01    0.915E-01
RMM:   2    -0.413171378306E+03   -0.10028E-01   -0.13816E-01  4310   0.993E-02    0.639E-01
RMM:   3    -0.413174162246E+03   -0.27839E-02   -0.96174E-03  5124   0.675E-02    0.307E-01
RMM:   4    -0.413199997508E+03   -0.25835E-01   -0.41602E-02  5094   0.171E-01    0.717E-01
RMM:   5    -0.413170224778E+03    0.29773E-01   -0.12484E-02  4713   0.119E-01    0.500E-02
RMM:   6    -0.413170293028E+03   -0.68250E-04   -0.20979E-03  5615   0.446E-02    0.163E-02
RMM:   7    -0.413170308419E+03   -0.15391E-04   -0.27166E-04  6002   0.141E-02    0.118E-02
RMM:   8    -0.413170306533E+03    0.18863E-05   -0.34157E-05  4564   0.533E-03    0.699E-03
RMM:   9    -0.413170299130E+03    0.74027E-05   -0.57691E-06  2837   0.323E-03    0.329E-03
RMM:  10    -0.413170295520E+03    0.36098E-05   -0.17964E-06  2538   0.200E-03    0.185E-03
RMM:  11    -0.413170291745E+03    0.37751E-05   -0.84562E-07  2509   0.144E-03    0.895E-04
RMM:  12    -0.413170289522E+03    0.22231E-05   -0.42996E-07  1951   0.102E-03    0.464E-04
RMM:  13    -0.413170286844E+03    0.26778E-05   -0.31706E-07  1865   0.906E-04    0.238E-04
RMM:  14    -0.413170285443E+03    0.14010E-05   -0.17657E-07  1396   0.720E-04    0.144E-04
RMM:  15    -0.413170282508E+03    0.29347E-05   -0.20486E-07  1622   0.755E-04    0.110E-04
RMM:  16    -0.413170280997E+03    0.15119E-05   -0.11179E-07  1220   0.634E-04    0.898E-05
RMM:  17    -0.413170278977E+03    0.20198E-05   -0.98460E-08  1208   0.623E-04    0.466E-05
RMM:  18    -0.413170277157E+03    0.18196E-05   -0.70648E-08  1044   0.580E-04    0.294E-05
RMM:  19    -0.413170276781E+03    0.37631E-06   -0.32110E-08   798   0.533E-04
   19 T=    62. E= -.41286620E+03 F= -.41317028E+03 E0= -.41314820E+03  EK= 0.30407E+00 SP= 0.00E+00 SK= 0.00E+00
       N       E                     dE             d eps       ncg     rms          rms(c)
RMM:   1    -0.413161681066E+03    0.85961E-02   -0.11315E+01  4298   0.785E-01    0.905E-01
RMM:   2    -0.413172018559E+03   -0.10337E-01   -0.13722E-01  4271   0.101E-01    0.632E-01
RMM:   3    -0.413171405286E+03    0.61327E-03   -0.66779E-03  4979   0.408E-02    0.187E-01
RMM:   4    -0.413211274956E+03   -0.39870E-01   -0.41863E-02  5142   0.169E-01    0.829E-01
RMM:   5    -0.413170673479E+03    0.40601E-01   -0.19835E-02  4793   0.139E-01    0.428E-02
RMM:   6    -0.413170888759E+03   -0.21528E-03   -0.31724E-03  5783   0.537E-02    0.197E-02
RMM:   7    -0.413170902455E+03   -0.13697E-04   -0.36399E-04  5879   0.156E-02    0.149E-02
RMM:   8    -0.413170899869E+03    0.25860E-05   -0.45866E-05  4654   0.587E-03    0.956E-03
RMM:   9    -0.413170894253E+03    0.56161E-05   -0.73114E-06  3061   0.295E-03    0.643E-03
RMM:  10    -0.413170888762E+03    0.54913E-05   -0.23015E-06  2548   0.225E-03    0.316E-03
RMM:  11    -0.413170884767E+03    0.39951E-05   -0.15015E-06  2523   0.189E-03    0.155E-03
RMM:  12    -0.413170881856E+03    0.29105E-05   -0.74899E-07  2446   0.144E-03    0.510E-04
RMM:  13    -0.413170880842E+03    0.10142E-05   -0.33688E-07  2135   0.992E-04    0.328E-04
RMM:  14    -0.413170879757E+03    0.10854E-05   -0.18092E-07  1617   0.771E-04    0.192E-04
RMM:  15    -0.413170877211E+03    0.25454E-05   -0.17181E-07  1583   0.752E-04    0.148E-04
RMM:  16    -0.413170876711E+03    0.50035E-06   -0.71160E-08  1053   0.613E-04
   20 T=    62. E= -.41286599E+03 F= -.41317088E+03 E0= -.41314884E+03  EK= 0.30489E+00 SP= 0.00E+00 SK= 0.00E+00
       N       E                     dE             d eps       ncg     rms          rms(c)
RMM:   1    -0.413162185390E+03    0.86918E-02   -0.11356E+01  4298   0.786E-01    0.891E-01
RMM:   2    -0.413173346200E+03   -0.11161E-01   -0.14133E-01  4276   0.101E-01    0.644E-01
RMM:   3    -0.413172257703E+03    0.10885E-02   -0.64290E-03  4930   0.399E-02    0.177E-01
RMM:   4    -0.413209402513E+03   -0.37145E-01   -0.38653E-02  5140   0.163E-01    0.801E-01
RMM:   5    -0.413171509270E+03    0.37893E-01   -0.18610E-02  4798   0.134E-01    0.395E-02
RMM:   6    -0.413171727840E+03   -0.21857E-03   -0.30129E-03  5795   0.522E-02    0.183E-02
RMM:   7    -0.413171744782E+03   -0.16942E-04   -0.34240E-04  5890   0.152E-02    0.142E-02
RMM:   8    -0.413171744553E+03    0.22931E-06   -0.43618E-05  4603   0.574E-03    0.931E-03
RMM:   9    -0.413171741799E+03    0.27536E-05   -0.70342E-06  3036   0.292E-03    0.644E-03
RMM:  10    -0.413171740402E+03    0.13974E-05   -0.23131E-06  2560   0.227E-03    0.325E-03
RMM:  11    -0.413171739686E+03    0.71539E-06   -0.16798E-06  2535   0.195E-03
   21 T=    62. E= -.41286604E+03 F= -.41317174E+03 E0= -.41314975E+03  EK= 0.30570E+00 SP= 0.00E+00 SK= 0.00E+00
       N       E                     dE             d eps       ncg     rms          rms(c)
RMM:   1    -0.413163372318E+03    0.83681E-02   -0.11430E+01  4300   0.786E-01    0.912E-01
RMM:   2    -0.413174196605E+03   -0.10824E-01   -0.14011E-01  4302   0.100E-01    0.643E-01
RMM:   3    -0.413174176694E+03    0.19911E-04   -0.72688E-03  5041   0.491E-02    0.216E-01
RMM:   4    -0.413219545867E+03   -0.45369E-01   -0.51205E-02  5130   0.187E-01    0.888E-01
RMM:   5    -0.413172767670E+03    0.46778E-01   -0.22242E-02  4780   0.149E-01    0.473E-02
RMM:   6    -0.413172985489E+03   -0.21782E-03   -0.35345E-03  5759   0.574E-02    0.188E-02
RMM:   7    -0.413173006635E+03   -0.21147E-04   -0.41863E-04  5957   0.167E-02    0.151E-02
RMM:   8    -0.413173004964E+03    0.16713E-05   -0.52101E-05  4802   0.617E-03    0.966E-03
RMM:   9    -0.413172999500E+03    0.54638E-05   -0.77276E-06  3065   0.302E-03    0.599E-03
RMM:  10    -0.413172994217E+03    0.52830E-05   -0.26259E-06  2571   0.235E-03    0.284E-03
RMM:  11    -0.413172990263E+03    0.39546E-05   -0.13970E-06  2519   0.182E-03    0.135E-03
RMM:  12    -0.413172987158E+03    0.31047E-05   -0.71693E-07  2443   0.138E-03    0.448E-04
RMM:  13    -0.413172985542E+03    0.16159E-05   -0.32857E-07  2085   0.967E-04    0.295E-04
RMM:  14    -0.413172983318E+03    0.22246E-05   -0.20722E-07  1620   0.790E-04    0.186E-04
RMM:  15    -0.413172981127E+03    0.21903E-05   -0.14424E-07  1402   0.712E-04    0.107E-04
RMM:  16    -0.413172980242E+03    0.88571E-06   -0.79806E-08  1126   0.630E-04
   22 T=    62. E= -.41286647E+03 F= -.41317298E+03 E0= -.41315104E+03  EK= 0.30651E+00 SP= 0.00E+00 SK= 0.00E+00
       N       E                     dE             d eps       ncg     rms          rms(c)
RMM:   1    -0.413164457348E+03    0.85238E-02   -0.11418E+01  4296   0.791E-01    0.915E-01
RMM:   2    -0.413174731875E+03   -0.10275E-01   -0.13859E-01  4284   0.107E-01    0.635E-01
RMM:   3    -0.413174098000E+03    0.63387E-03   -0.67946E-03  4893   0.434E-02    0.184E-01
RMM:   4    -0.413211290986E+03   -0.37193E-01   -0.38484E-02  5144   0.163E-01    0.801E-01
RMM:   5    -0.413173427678E+03    0.37863E-01   -0.18566E-02  4799   0.134E-01    0.405E-02
RMM:   6    -0.413173627738E+03   -0.20006E-03   -0.29696E-03  5794   0.521E-02    0.203E-02
RMM:   7    -0.413173636793E+03   -0.90549E-05   -0.32847E-04  5903   0.153E-02    0.149E-02
RMM:   8    -0.413173632698E+03    0.40948E-05   -0.43511E-05  4663   0.585E-03    0.983E-03
RMM:   9    -0.413173625156E+03    0.75428E-05   -0.72043E-06  3069   0.304E-03    0.662E-03
RMM:  10    -0.413173617577E+03    0.75781E-05   -0.22831E-06  2557   0.231E-03    0.335E-03
RMM:  11    -0.413173611219E+03    0.63588E-05   -0.16510E-06  2526   0.199E-03    0.165E-03
RMM:  12    -0.413173606688E+03    0.45302E-05   -0.77364E-07  2452   0.148E-03    0.550E-04
RMM:  13    -0.413173605177E+03    0.15118E-05   -0.34283E-07  2145   0.100E-03    0.349E-04
RMM:  14    -0.413173603427E+03    0.17493E-05   -0.18323E-07  1629   0.775E-04    0.199E-04
RMM:  15    -0.413173599426E+03    0.40014E-05   -0.17673E-07  1655   0.767E-04    0.183E-04
RMM:  16    -0.413173598766E+03    0.65975E-06   -0.69535E-08  1033   0.608E-04
   23 T=    63. E= -.41286631E+03 F= -.41317360E+03 E0= -.41315170E+03  EK= 0.30729E+00 SP= 0.00E+00 SK= 0.00E+00
       N       E                     dE             d eps       ncg     rms          rms(c)
RMM:   1    -0.413165264789E+03    0.83346E-02   -0.11410E+01  4294   0.794E-01    0.893E-01
RMM:   2    -0.413176767811E+03   -0.11503E-01   -0.14196E-01  4281   0.106E-01    0.643E-01
RMM:   3    -0.413175438628E+03    0.13292E-02   -0.62809E-03  4807   0.406E-02    0.172E-01
RMM:   4    -0.413204923114E+03   -0.29484E-01   -0.30130E-02  5149   0.144E-01    0.714E-01
RMM:   5    -0.413174996929E+03    0.29926E-01   -0.14812E-02  4803   0.119E-01    0.345E-02
RMM:   6    -0.413175161080E+03   -0.16415E-03   -0.23666E-03  5805   0.460E-02    0.177E-02
RMM:   7    -0.413175171895E+03   -0.10815E-04   -0.25300E-04  5811   0.135E-02    0.128E-02
RMM:   8    -0.413175170840E+03    0.10551E-05   -0.35734E-05  4531   0.534E-03    0.885E-03
RMM:   9    -0.413175166454E+03    0.43855E-05   -0.62945E-06  3043   0.293E-03    0.603E-03
RMM:  10    -0.413175163618E+03    0.28360E-05   -0.19160E-06  2546   0.213E-03    0.316E-03
RMM:  11    -0.413175161250E+03    0.23677E-05   -0.15395E-06  2525   0.190E-03    0.159E-03
RMM:  12    -0.413175159460E+03    0.17901E-05   -0.70009E-07  2428   0.139E-03    0.552E-04
RMM:  13    -0.413175158866E+03    0.59446E-06   -0.29860E-07  2055   0.938E-04
   24 T=    63. E= -.41286660E+03 F= -.41317516E+03 E0= -.41315331E+03  EK= 0.30856E+00 SP= 0.00E+00 SK= 0.00E+00
       N       E                     dE             d eps       ncg     rms          rms(c)
RMM:   1    -0.413166507968E+03    0.86515E-02   -0.11525E+01  4298   0.802E-01    0.909E-01
RMM:   2    -0.413177836254E+03   -0.11328E-01   -0.14181E-01  4284   0.108E-01    0.648E-01
RMM:   3    -0.413176491773E+03    0.13445E-02   -0.64560E-03  4828   0.423E-02    0.175E-01
RMM:   4    -0.413207745185E+03   -0.31253E-01   -0.31809E-02  5147   0.149E-01    0.735E-01
RMM:   5    -0.413176033399E+03    0.31712E-01   -0.15624E-02  4802   0.123E-01    0.358E-02
RMM:   6    -0.413176206098E+03   -0.17270E-03   -0.25241E-03  5810   0.476E-02    0.184E-02
RMM:   7    -0.413176216197E+03   -0.10098E-04   -0.26947E-04  5832   0.138E-02    0.133E-02
RMM:   8    -0.413176213890E+03    0.23069E-05   -0.37524E-05  4579   0.547E-03    0.924E-03
RMM:   9    -0.413176208103E+03    0.57866E-05   -0.66277E-06  3074   0.299E-03    0.626E-03
RMM:  10    -0.413176203462E+03    0.46405E-05   -0.20340E-06  2553   0.221E-03    0.324E-03
RMM:  11    -0.413176199550E+03    0.39127E-05   -0.16037E-06  2522   0.195E-03    0.161E-03
RMM:  12    -0.413176196701E+03    0.28486E-05   -0.71869E-07  2440   0.142E-03    0.547E-04
RMM:  13    -0.413176195704E+03    0.99704E-06   -0.31005E-07  2092   0.952E-04
   25 T=    63. E= -.41286642E+03 F= -.41317620E+03 E0= -.41315440E+03  EK= 0.30977E+00 SP= 0.00E+00 SK= 0.00E+00
       N       E                     dE             d eps       ncg     rms          rms(c)
RMM:   1    -0.413168000930E+03    0.81958E-02   -0.11560E+01  4295   0.811E-01    0.924E-01
RMM:   2    -0.413178316417E+03   -0.10315E-01   -0.14100E-01  4278   0.108E-01    0.640E-01
RMM:   3    -0.413177543465E+03    0.77295E-03   -0.66994E-03  4754   0.408E-02    0.175E-01
RMM:   4    -0.413202775472E+03   -0.25232E-01   -0.25531E-02  5150   0.133E-01    0.662E-01
RMM:   5    -0.413177201304E+03    0.25574E-01   -0.12770E-02  4808   0.110E-01    0.337E-02
RMM:   6    -0.413177336796E+03   -0.13549E-03   -0.20247E-03  5808   0.424E-02    0.183E-02
RMM:   7    -0.413177340902E+03   -0.41058E-05   -0.20488E-04  5690   0.124E-02    0.120E-02
RMM:   8    -0.413177336023E+03    0.48793E-05   -0.30056E-05  4360   0.498E-03    0.858E-03
RMM:   9    -0.413177327982E+03    0.80409E-05   -0.62640E-06  3085   0.296E-03    0.581E-03
RMM:  10    -0.413177320247E+03    0.77344E-05   -0.16720E-06  2531   0.211E-03    0.313E-03
RMM:  11    -0.413177312089E+03    0.81583E-05   -0.14809E-06  2520   0.190E-03    0.154E-03
RMM:  12    -0.413177306434E+03    0.56550E-05   -0.63276E-07  2417   0.137E-03    0.509E-04
RMM:  13    -0.413177304741E+03    0.16932E-05   -0.26522E-07  1999   0.908E-04    0.323E-04
RMM:  14    -0.413177301859E+03    0.28823E-05   -0.15066E-07  1550   0.744E-04    0.169E-04
RMM:  15    -0.413177297455E+03    0.44036E-05   -0.13197E-07  1562   0.720E-04    0.196E-04
RMM:  16    -0.413177296593E+03    0.86158E-06   -0.50299E-08   935   0.580E-04
   26 T=    63. E= -.41286613E+03 F= -.41317730E+03 E0= -.41315555E+03  EK= 0.31116E+00 SP= 0.00E+00 SK= 0.00E+00
       N       E                     dE             d eps       ncg     rms          rms(c)
RMM:   1    -0.413169293836E+03    0.80036E-02   -0.11532E+01  4293   0.814E-01    0.900E-01
RMM:   2    -0.413180503160E+03   -0.11209E-01   -0.14272E-01  4280   0.104E-01    0.643E-01
RMM:   3    -0.413179557955E+03    0.94520E-03   -0.63668E-03  4771   0.420E-02    0.175E-01
RMM:   4    -0.413207142244E+03   -0.27584E-01   -0.27937E-02  5152   0.139E-01    0.692E-01
RMM:   5    -0.413179164289E+03    0.27978E-01   -0.14000E-02  4810   0.115E-01    0.333E-02
RMM:   6    -0.413179313540E+03   -0.14925E-03   -0.21633E-03  5820   0.443E-02    0.177E-02
RMM:   7    -0.413179321714E+03   -0.81743E-05   -0.22919E-04  5768   0.130E-02    0.124E-02
RMM:   8    -0.413179319329E+03    0.23859E-05   -0.33123E-05  4486   0.520E-03    0.870E-03
RMM:   9    -0.413179313537E+03    0.57916E-05   -0.61759E-06  3057   0.296E-03    0.588E-03
RMM:  10    -0.413179308814E+03    0.47231E-05   -0.18299E-06  2541   0.214E-03    0.308E-03
RMM:  11    -0.413179304699E+03    0.41152E-05   -0.14705E-06  2522   0.188E-03    0.153E-03
RMM:  12    -0.413179301736E+03    0.29630E-05   -0.65049E-07  2423   0.136E-03    0.522E-04
RMM:  13    -0.413179300767E+03    0.96843E-06   -0.27601E-07  2010   0.912E-04
   27 T=    64. E= -.41286641E+03 F= -.41317930E+03 E0= -.41315760E+03  EK= 0.31289E+00 SP= 0.00E+00 SK= 0.00E+00
       N       E                     dE             d eps       ncg     rms          rms(c)
RMM:   1    -0.413171424010E+03    0.78777E-02   -0.11677E+01  4294   0.837E-01    0.908E-01
RMM:   2    -0.413181598542E+03   -0.10175E-01   -0.14653E-01  4279   0.109E-01    0.654E-01
RMM:   3    -0.413180446759E+03    0.11518E-02   -0.64429E-03  4677   0.414E-02    0.171E-01
RMM:   4    -0.413201080590E+03   -0.20634E-01   -0.21039E-02  5151   0.122E-01    0.602E-01
RMM:   5    -0.413180035273E+03    0.21045E-01   -0.10515E-02  4808   0.997E-02    0.290E-02
RMM:   6    -0.413180140583E+03   -0.10531E-03   -0.16263E-03  5832   0.380E-02    0.158E-02
RMM:   7    -0.413180146305E+03   -0.57223E-05   -0.15705E-04  5507   0.109E-02    0.100E-02
RMM:   8    -0.413180142987E+03    0.33183E-05   -0.20452E-05  3821   0.420E-03    0.694E-03
RMM:   9    -0.413180138290E+03    0.46966E-05   -0.53267E-06  2976   0.278E-03    0.473E-03
RMM:  10    -0.413180135559E+03    0.27312E-05   -0.15559E-06  2535   0.200E-03    0.277E-03
RMM:  11    -0.413180131248E+03    0.43110E-05   -0.12804E-06  2513   0.178E-03    0.135E-03
RMM:  12    -0.413180128600E+03    0.26475E-05   -0.52684E-07  2381   0.124E-03    0.518E-04
RMM:  13    -0.413180127528E+03    0.10717E-05   -0.21427E-07  1830   0.840E-04    0.292E-04
RMM:  14    -0.413180125146E+03    0.23829E-05   -0.15627E-07  1595   0.747E-04    0.169E-04
RMM:  15    -0.413180123144E+03    0.20020E-05   -0.94101E-08  1260   0.650E-04    0.140E-04
RMM:  16    -0.413180122314E+03    0.82954E-06   -0.42150E-08   897   0.575E-04
   28 T=    64. E= -.41286582E+03 F= -.41318012E+03 E0= -.41315847E+03  EK= 0.31430E+00 SP= 0.00E+00 SK= 0.00E+00
       N       E                     dE             d eps       ncg     rms          rms(c)
RMM:   1    -0.413173025395E+03    0.70977E-02   -0.11742E+01  4293   0.841E-01    0.933E-01
RMM:   2    -0.413183460705E+03   -0.10435E-01   -0.14416E-01  4275   0.111E-01    0.647E-01
RMM:   3    -0.413182568088E+03    0.89262E-03   -0.68240E-03  4567   0.415E-02    0.175E-01
RMM:   4    -0.413198382291E+03   -0.15814E-01   -0.15900E-02  5161   0.106E-01    0.526E-01
RMM:   5    -0.413182473059E+03    0.15909E-01   -0.79745E-03  4822   0.866E-02    0.280E-02
RMM:   6    -0.413182539226E+03   -0.66167E-04   -0.12283E-03  5858   0.328E-02    0.162E-02
RMM:   7    -0.413182541014E+03   -0.17879E-05   -0.12748E-04  5506   0.101E-02    0.106E-02
RMM:   8    -0.413182533115E+03    0.78994E-05   -0.19575E-05  4042   0.440E-03    0.673E-03
RMM:   9    -0.413182527127E+03    0.59879E-05   -0.44347E-06  2865   0.278E-03    0.449E-03
RMM:  10    -0.413182520193E+03    0.69342E-05   -0.11371E-06  2507   0.182E-03    0.248E-03
RMM:  11    -0.413182512893E+03    0.72996E-05   -0.97454E-07  2495   0.157E-03    0.122E-03
RMM:  12    -0.413182507313E+03    0.55802E-05   -0.47355E-07  2334   0.117E-03    0.421E-04
RMM:  13    -0.413182505974E+03    0.13387E-05   -0.19334E-07  1702   0.795E-04    0.265E-04
RMM:  14    -0.413182503863E+03    0.21110E-05   -0.10478E-07  1278   0.675E-04    0.153E-04
RMM:  15    -0.413182499277E+03    0.45864E-05   -0.10391E-07  1456   0.693E-04    0.155E-04
RMM:  16    -0.413182498495E+03    0.78217E-06   -0.40266E-08   889   0.572E-04
   29 T=    64. E= -.41286642E+03 F= -.41318250E+03 E0= -.41316090E+03  EK= 0.31608E+00 SP= 0.00E+00 SK= 0.00E+00
       N       E                     dE             d eps       ncg     rms          rms(c)
RMM:   1    -0.413174386392E+03    0.81129E-02   -0.11698E+01  4292   0.845E-01    0.910E-01
RMM:   2    -0.413185496033E+03   -0.11110E-01   -0.14644E-01  4271   0.109E-01    0.646E-01
RMM:   3    -0.413184268553E+03    0.12275E-02   -0.64839E-03  4387   0.439E-02    0.171E-01
RMM:   4    -0.413189380129E+03   -0.51116E-02   -0.57757E-03  5130   0.672E-02    0.303E-01
RMM:   5    -0.413184172154E+03    0.52080E-02   -0.25497E-03  4820   0.496E-02    0.202E-02
RMM:   6    -0.413184178278E+03   -0.61247E-05   -0.40946E-04  5778   0.196E-02    0.142E-02
RMM:   7    -0.413184173367E+03    0.49116E-05   -0.58753E-05  5103   0.773E-03    0.771E-03
RMM:   8    -0.413184166002E+03    0.73645E-05   -0.70688E-06  3029   0.337E-03    0.348E-03
RMM:   9    -0.413184161952E+03    0.40497E-05   -0.15417E-06  2560   0.191E-03    0.223E-03
RMM:  10    -0.413184157212E+03    0.47408E-05   -0.65510E-07  2412   0.132E-03    0.127E-03
RMM:  11    -0.413184152584E+03    0.46275E-05   -0.43961E-07  2211   0.106E-03    0.471E-04
RMM:  12    -0.413184149419E+03    0.31653E-05   -0.22959E-07  1671   0.827E-04    0.194E-04
RMM:  13    -0.413184147059E+03    0.23597E-05   -0.13225E-07  1258   0.699E-04    0.111E-04
RMM:  14    -0.413184144044E+03    0.30154E-05   -0.10784E-07  1312   0.685E-04    0.764E-05
RMM:  15    -0.413184141400E+03    0.26436E-05   -0.84028E-08  1275   0.643E-04    0.828E-05
RMM:  16    -0.413184139727E+03    0.16735E-05   -0.52184E-08   986   0.573E-04    0.373E-05
RMM:  17    -0.413184137678E+03    0.20487E-05   -0.50268E-08  1070   0.574E-04    0.238E-05
RMM:  18    -0.413184137267E+03    0.41070E-06   -0.20695E-08   739   0.514E-04
   30 T=    65. E= -.41286652E+03 F= -.41318414E+03 E0= -.41316259E+03  EK= 0.31762E+00 SP= 0.00E+00 SK= 0.00E+00
       N       E                     dE             d eps       ncg     rms          rms(c)
RMM:   1    -0.413177053251E+03    0.70844E-02   -0.11831E+01  4290   0.888E-01    0.911E-01
RMM:   2    -0.413188093739E+03   -0.11040E-01   -0.15127E-01  4273   0.124E-01    0.659E-01
RMM:   3    -0.413185981902E+03    0.21118E-02   -0.62983E-03  4243   0.417E-02    0.168E-01
RMM:   4    -0.413187079331E+03   -0.10974E-02   -0.20151E-03  5073   0.372E-02    0.141E-01
RMM:   5    -0.413185971275E+03    0.11081E-02   -0.53318E-04  4774   0.234E-02    0.168E-02
RMM:   6    -0.413185965905E+03    0.53694E-05   -0.11451E-04  5518   0.111E-02    0.127E-02
RMM:   7    -0.413185961036E+03    0.48695E-05   -0.25923E-05  4363   0.575E-03    0.449E-03
RMM:   8    -0.413185957211E+03    0.38254E-05   -0.39499E-06  2785   0.277E-03    0.248E-03
RMM:   9    -0.413185956088E+03    0.11225E-05   -0.62739E-07  2456   0.151E-03    0.154E-03
RMM:  10    -0.413185953248E+03    0.28396E-05   -0.48121E-07  2203   0.106E-03    0.789E-04
RMM:  11    -0.413185950836E+03    0.24125E-05   -0.27506E-07  1612   0.821E-04    0.316E-04
RMM:  12    -0.413185949061E+03    0.17752E-05   -0.17025E-07  1515   0.729E-04    0.184E-04
RMM:  13    -0.413185946861E+03    0.21995E-05   -0.12422E-07  1240   0.667E-04    0.896E-05
RMM:  14    -0.413185945449E+03    0.14119E-05   -0.73629E-08  1039   0.601E-04    0.625E-05
RMM:  15    -0.413185944089E+03    0.13600E-05   -0.49749E-08   905   0.568E-04    0.351E-05
RMM:  16    -0.413185942428E+03    0.16613E-05   -0.44952E-08   907   0.567E-04    0.269E-05
RMM:  17    -0.413185941990E+03    0.43797E-06   -0.18136E-08   666   0.525E-04
   31 T=    65. E= -.41286667E+03 F= -.41318594E+03 E0= -.41316444E+03  EK= 0.31928E+00 SP= 0.00E+00 SK= 0.00E+00
       N       E                     dE             d eps       ncg     rms          rms(c)
RMM:   1    -0.413183407527E+03    0.25349E-02   -0.11972E+01  4284   0.925E-01    0.937E-01
RMM:   2    -0.413189752185E+03   -0.63447E-02   -0.15187E-01  4265   0.122E-01    0.654E-01
RMM:   3    -0.413188532610E+03    0.12196E-02   -0.68112E-03  4210   0.474E-02    0.175E-01
RMM:   4    -0.413188792315E+03   -0.25970E-03   -0.11563E-03  4839   0.305E-02    0.566E-02
RMM:   5    -0.413188636479E+03    0.15584E-03   -0.96249E-05  4655   0.108E-02    0.210E-02
RMM:   6    -0.413188622043E+03    0.14437E-04   -0.60091E-05  5182   0.842E-03    0.145E-02
RMM:   7    -0.413188607155E+03    0.14888E-04   -0.20617E-05  3776   0.545E-03    0.402E-03
RMM:   8    -0.413188600465E+03    0.66897E-05   -0.25285E-06  2519   0.254E-03    0.238E-03
RMM:   9    -0.413188597590E+03    0.28756E-05   -0.50492E-07  2222   0.137E-03    0.136E-03
RMM:  10    -0.413188591135E+03    0.64543E-05   -0.32561E-07  1770   0.934E-04    0.546E-04
RMM:  11    -0.413188585427E+03    0.57082E-05   -0.17761E-07  1489   0.745E-04    0.222E-04
RMM:  12    -0.413188581870E+03    0.35570E-05   -0.74473E-08  1087   0.617E-04    0.149E-04
RMM:  13    -0.413188575842E+03    0.60279E-05   -0.87971E-08  1149   0.639E-04    0.788E-05
RMM:  14    -0.413188572862E+03    0.29801E-05   -0.38904E-08   863   0.548E-04    0.684E-05
RMM:  15    -0.413188569873E+03    0.29889E-05   -0.35130E-08   856   0.536E-04    0.567E-05
RMM:  16    -0.413188567657E+03    0.22162E-05   -0.25466E-08   761   0.518E-04    0.329E-05
RMM:  17    -0.413188567332E+03    0.32485E-06   -0.84605E-09   486   0.459E-04
   32 T=    65. E= -.41286712E+03 F= -.41318857E+03 E0= -.41316712E+03  EK= 0.32145E+00 SP= 0.00E+00 SK= 0.00E+00
       N       E                     dE             d eps       ncg     rms          rms(c)
RMM:   1    -0.413187100501E+03    0.14672E-02   -0.11966E+01  4282   0.938E-01    0.924E-01
RMM:   2    -0.413191950850E+03   -0.48503E-02   -0.15514E-01  4268   0.132E-01    0.651E-01
RMM:   3    -0.413190488784E+03    0.14621E-02   -0.63817E-03  4323   0.402E-02    0.180E-01
RMM:   4    -0.413192680457E+03   -0.21917E-02   -0.30364E-03  5118   0.484E-02    0.200E-01
RMM:   5    -0.413190449848E+03    0.22306E-02   -0.10887E-03  4793   0.330E-02    0.202E-02
RMM:   6    -0.413190437029E+03    0.12819E-04   -0.20912E-04  5652   0.148E-02    0.144E-02
RMM:   7    -0.413190427369E+03    0.96603E-05   -0.38027E-05  4665   0.646E-03    0.585E-03
RMM:   8    -0.413190419585E+03    0.77841E-05   -0.61425E-06  3073   0.318E-03    0.298E-03
RMM:   9    -0.413190415923E+03    0.36618E-05   -0.85813E-07  2485   0.170E-03    0.169E-03
RMM:  10    -0.413190409717E+03    0.62056E-05   -0.51864E-07  2342   0.117E-03    0.910E-04
RMM:  11    -0.413190405065E+03    0.46523E-05   -0.28520E-07  1860   0.890E-04    0.394E-04
RMM:  12    -0.413190400174E+03    0.48911E-05   -0.19389E-07  1652   0.786E-04    0.176E-04
RMM:  13    -0.413190397250E+03    0.29242E-05   -0.10243E-07  1159   0.661E-04    0.108E-04
RMM:  14    -0.413190393739E+03    0.35103E-05   -0.81183E-08  1159   0.636E-04    0.630E-05
RMM:  15    -0.413190389360E+03    0.43798E-05   -0.75177E-08  1207   0.634E-04    0.492E-05
RMM:  16    -0.413190387844E+03    0.15159E-05   -0.38127E-08   858   0.561E-04    0.374E-05
RMM:  17    -0.413190385973E+03    0.18709E-05   -0.34704E-08   899   0.557E-04    0.183E-05
RMM:  18    -0.413190385562E+03    0.41068E-06   -0.14449E-08   612   0.506E-04
   33 T=    66. E= -.41286680E+03 F= -.41319039E+03 E0= -.41316899E+03  EK= 0.32358E+00 SP= 0.00E+00 SK= 0.00E+00
       N       E                     dE             d eps       ncg     rms          rms(c)
RMM:   1    -0.413184949416E+03    0.54366E-02   -0.12048E+01  4294   0.924E-01    0.915E-01
RMM:   2    -0.413194592570E+03   -0.96432E-02   -0.15677E-01  4263   0.127E-01    0.664E-01
RMM:   3    -0.413193160772E+03    0.14318E-02   -0.63470E-03  4542   0.457E-02    0.179E-01
RMM:   4    -0.413206762019E+03   -0.13601E-01   -0.13814E-02  5159   0.101E-01    0.490E-01
RMM:   5    -0.413193087655E+03    0.13674E-01   -0.67935E-03  4811   0.806E-02    0.259E-02
RMM:   6    -0.413193080753E+03    0.69017E-05   -0.10578E-03  5844   0.315E-02    0.150E-02
RMM:   7    -0.413193085290E+03   -0.45368E-05   -0.12317E-04  5520   0.102E-02    0.105E-02
RMM:   8    -0.413193079839E+03    0.54509E-05   -0.17103E-05  3967   0.436E-03    0.589E-03
RMM:   9    -0.413193076609E+03    0.32302E-05   -0.35552E-06  2764   0.264E-03    0.346E-03
RMM:  10    -0.413193072900E+03    0.37091E-05   -0.10942E-06  2508   0.170E-03    0.186E-03
RMM:  11    -0.413193069322E+03    0.35781E-05   -0.74994E-07  2477   0.135E-03    0.964E-04
RMM:  12    -0.413193065899E+03    0.34227E-05   -0.44131E-07  2262   0.107E-03    0.365E-04
RMM:  13    -0.413193064790E+03    0.11088E-05   -0.17870E-07  1496   0.757E-04    0.208E-04
RMM:  14    -0.413193063184E+03    0.16058E-05   -0.10900E-07  1167   0.670E-04    0.124E-04
RMM:  15    -0.413193060876E+03    0.23080E-05   -0.92038E-08  1172   0.656E-04    0.739E-05
RMM:  16    -0.413193060432E+03    0.44440E-06   -0.45040E-08   869   0.591E-04
   34 T=    66. E= -.41286687E+03 F= -.41319306E+03 E0= -.41317171E+03  EK= 0.32619E+00 SP= 0.00E+00 SK= 0.00E+00
       N       E                     dE             d eps       ncg     rms          rms(c)
RMM:   1    -0.413186287477E+03    0.67734E-02   -0.12167E+01  4300   0.938E-01    0.941E-01
RMM:   2    -0.413197131170E+03   -0.10844E-01   -0.15803E-01  4261   0.134E-01    0.664E-01
RMM:   3    -0.413195877234E+03    0.12539E-02   -0.65700E-03  4440   0.437E-02    0.183E-01
RMM:   4    -0.413200954744E+03   -0.50775E-02   -0.58503E-03  5143   0.662E-02    0.306E-01
RMM:   5    -0.413195709050E+03    0.52457E-02   -0.26367E-03  4809   0.504E-02    0.224E-02
RMM:   6    -0.413195694344E+03    0.14706E-04   -0.44024E-04  5742   0.208E-02    0.148E-02
RMM:   7    -0.413195689482E+03    0.48624E-05   -0.63188E-05  5057   0.776E-03    0.753E-03
RMM:   8    -0.413195681192E+03    0.82897E-05   -0.94819E-06  3322   0.361E-03    0.366E-03
RMM:   9    -0.413195676308E+03    0.48839E-05   -0.15196E-06  2543   0.199E-03    0.207E-03
RMM:  10    -0.413195670061E+03    0.62471E-05   -0.65449E-07  2413   0.130E-03    0.118E-03
RMM:  11    -0.413195663785E+03    0.62759E-05   -0.41192E-07  2200   0.104E-03    0.486E-04
RMM:  12    -0.413195658654E+03    0.51315E-05   -0.23685E-07  1762   0.841E-04    0.191E-04
RMM:  13    -0.413195655884E+03    0.27698E-05   -0.12582E-07  1231   0.692E-04    0.126E-04
RMM:  14    -0.413195652251E+03    0.36326E-05   -0.94679E-08  1191   0.661E-04    0.725E-05
RMM:  15    -0.413195647056E+03    0.51950E-05   -0.95047E-08  1387   0.672E-04    0.776E-05
RMM:  16    -0.413195646035E+03    0.10215E-05   -0.41284E-08   877   0.571E-04    0.524E-05
RMM:  17    -0.413195642564E+03    0.34706E-05   -0.52755E-08  1168   0.604E-04    0.274E-05
RMM:  18    -0.413195642240E+03    0.32436E-06   -0.20085E-08   718   0.520E-04
   35 T=    67. E= -.41286673E+03 F= -.41319564E+03 E0= -.41317434E+03  EK= 0.32891E+00 SP= 0.00E+00 SK= 0.00E+00
       N       E                     dE             d eps       ncg     rms          rms(c)
RMM:   1    -0.413189272047E+03    0.63705E-02   -0.12215E+01  4298   0.965E-01    0.942E-01
RMM:   2    -0.413199184296E+03   -0.99122E-02   -0.15693E-01  4257   0.119E-01    0.657E-01
RMM:   3    -0.413198206698E+03    0.97760E-03   -0.68331E-03  4805   0.439E-02    0.195E-01
RMM:   4    -0.413227242486E+03   -0.29036E-01   -0.29297E-02  5153   0.143E-01    0.711E-01
RMM:   5    -0.413197898766E+03    0.29344E-01   -0.14816E-02  4799   0.118E-01    0.365E-02
RMM:   6    -0.413197934951E+03   -0.36185E-04   -0.23201E-03  5856   0.453E-02    0.187E-02
RMM:   7    -0.413197945725E+03   -0.10774E-04   -0.24387E-04  5777   0.133E-02    0.130E-02
RMM:   8    -0.413197938603E+03    0.71220E-05   -0.33205E-05  4509   0.535E-03    0.866E-03
RMM:   9    -0.413197932580E+03    0.60231E-05   -0.81939E-06  3338   0.340E-03    0.555E-03
RMM:  10    -0.413197923435E+03    0.91446E-05   -0.20599E-06  2548   0.238E-03    0.267E-03
RMM:  11    -0.413197915998E+03    0.74373E-05   -0.13658E-06  2511   0.184E-03    0.144E-03
RMM:  12    -0.413197908535E+03    0.74635E-05   -0.66245E-07  2444   0.143E-03    0.533E-04
RMM:  13    -0.413197906172E+03    0.23622E-05   -0.27714E-07  2096   0.946E-04    0.373E-04
RMM:  14    -0.413197904153E+03    0.20194E-05   -0.12685E-07  1444   0.711E-04    0.225E-04
RMM:  15    -0.413197897921E+03    0.62324E-05   -0.11901E-07  1638   0.725E-04    0.216E-04
RMM:  16    -0.413197897075E+03    0.84514E-06   -0.41569E-08   905   0.570E-04
   36 T=    67. E= -.41286652E+03 F= -.41319790E+03 E0= -.41317664E+03  EK= 0.33137E+00 SP= 0.00E+00 SK= 0.00E+00
       N       E                     dE             d eps       ncg     rms          rms(c)
RMM:   1    -0.413190906810E+03    0.69911E-02   -0.12275E+01  4303   0.990E-01    0.924E-01
RMM:   2    -0.413202617906E+03   -0.11711E-01   -0.16357E-01  4257   0.134E-01    0.669E-01
RMM:   3    -0.413201260094E+03    0.13578E-02   -0.66207E-03  4792   0.509E-02    0.202E-01
RMM:   4    -0.413240251528E+03   -0.38991E-01   -0.39760E-02  5154   0.167E-01    0.821E-01
RMM:   5    -0.413200643653E+03    0.39608E-01   -0.19883E-02  4791   0.137E-01    0.401E-02
RMM:   6    -0.413200735371E+03   -0.91718E-04   -0.31414E-03  5859   0.522E-02    0.191E-02
RMM:   7    -0.413200751966E+03   -0.16595E-04   -0.30757E-04  5731   0.147E-02    0.131E-02
RMM:   8    -0.413200747362E+03    0.46041E-05   -0.35514E-05  4164   0.515E-03    0.861E-03
RMM:   9    -0.413200744066E+03    0.32954E-05   -0.11414E-05  3697   0.366E-03    0.594E-03
RMM:  10    -0.413200737691E+03    0.63751E-05   -0.29287E-06  2637   0.261E-03    0.287E-03
RMM:  11    -0.413200732196E+03    0.54954E-05   -0.17887E-06  2524   0.208E-03    0.162E-03
RMM:  12    -0.413200727836E+03    0.43599E-05   -0.75794E-07  2468   0.151E-03    0.648E-04
RMM:  13    -0.413200726459E+03    0.13772E-05   -0.30506E-07  2161   0.984E-04    0.454E-04
RMM:  14    -0.413200725003E+03    0.14552E-05   -0.13907E-07  1497   0.731E-04    0.246E-04
RMM:  15    -0.413200720258E+03    0.47455E-05   -0.16997E-07  1881   0.780E-04    0.352E-04
RMM:  16    -0.413200719828E+03    0.43040E-06   -0.47261E-08   956   0.570E-04
   37 T=    68. E= -.41286667E+03 F= -.41320072E+03 E0= -.41317950E+03  EK= 0.33405E+00 SP= 0.00E+00 SK= 0.00E+00
       N       E                     dE             d eps       ncg     rms          rms(c)
RMM:   1    -0.413194892098E+03    0.58282E-02   -0.12448E+01  4306   0.104E+00    0.945E-01
RMM:   2    -0.413205487071E+03   -0.10595E-01   -0.16342E-01  4256   0.130E-01    0.673E-01
RMM:   3    -0.413203829801E+03    0.16573E-02   -0.68166E-03  4713   0.493E-02    0.198E-01
RMM:   4    -0.413232655841E+03   -0.28826E-01   -0.29057E-02  5153   0.143E-01    0.709E-01
RMM:   5    -0.413203450800E+03    0.29205E-01   -0.14785E-02  4808   0.118E-01    0.357E-02
RMM:   6    -0.413203502550E+03   -0.51750E-04   -0.23229E-03  5850   0.450E-02    0.182E-02
RMM:   7    -0.413203514678E+03   -0.12128E-04   -0.24445E-04  5781   0.133E-02    0.128E-02
RMM:   8    -0.413203508294E+03    0.63836E-05   -0.33000E-05  4544   0.532E-03    0.850E-03
RMM:   9    -0.413203503525E+03    0.47689E-05   -0.81064E-06  3346   0.332E-03    0.536E-03
RMM:  10    -0.413203496043E+03    0.74827E-05   -0.19983E-06  2539   0.227E-03    0.263E-03
RMM:  11    -0.413203489996E+03    0.60465E-05   -0.13288E-06  2509   0.180E-03    0.141E-03
RMM:  12    -0.413203484117E+03    0.58792E-05   -0.63591E-07  2429   0.138E-03    0.519E-04
RMM:  13    -0.413203482114E+03    0.20027E-05   -0.27061E-07  2082   0.929E-04    0.351E-04
RMM:  14    -0.413203480293E+03    0.18211E-05   -0.12529E-07  1408   0.707E-04    0.204E-04
RMM:  15    -0.413203475014E+03    0.52796E-05   -0.11859E-07  1582   0.718E-04    0.197E-04
RMM:  16    -0.413203474074E+03    0.94017E-06   -0.43126E-08   915   0.579E-04
   38 T=    68. E= -.41286707E+03 F= -.41320347E+03 E0= -.41318230E+03  EK= 0.33640E+00 SP= 0.00E+00 SK= 0.00E+00
       N       E                     dE             d eps       ncg     rms          rms(c)
RMM:   1    -0.413200456085E+03    0.30189E-02   -0.12530E+01  4306   0.108E+00    0.958E-01
RMM:   2    -0.413207000334E+03   -0.65442E-02   -0.16629E-01  4266   0.127E-01    0.667E-01
RMM:   3    -0.413206420572E+03    0.57976E-03   -0.74950E-03  4983   0.545E-02    0.232E-01
RMM:   4    -0.413257631773E+03   -0.51211E-01   -0.55015E-02  5131   0.194E-01    0.940E-01
RMM:   5    -0.413205240045E+03    0.52392E-01   -0.25910E-02  4784   0.158E-01    0.487E-02
RMM:   6    -0.413205401773E+03   -0.16173E-03   -0.41785E-03  5845   0.601E-02    0.222E-02
RMM:   7    -0.413205421424E+03   -0.19651E-04   -0.41746E-04  5832   0.172E-02    0.153E-02
RMM:   8    -0.413205419340E+03    0.20834E-05   -0.59526E-05  4870   0.650E-03    0.113E-02
RMM:   9    -0.413205409199E+03    0.10141E-04   -0.12734E-05  3785   0.390E-03    0.690E-03
RMM:  10    -0.413205398671E+03    0.10528E-04   -0.36873E-06  2659   0.291E-03    0.319E-03
RMM:  11    -0.413205391255E+03    0.74165E-05   -0.16563E-06  2505   0.209E-03    0.185E-03
RMM:  12    -0.413205382838E+03    0.84163E-05   -0.86918E-07  2470   0.164E-03    0.661E-04
RMM:  13    -0.413205378871E+03    0.39673E-05   -0.36763E-07  2278   0.109E-03    0.429E-04
RMM:  14    -0.413205375800E+03    0.30711E-05   -0.17980E-07  1748   0.794E-04    0.278E-04
RMM:  15    -0.413205367538E+03    0.82622E-05   -0.15739E-07  1799   0.771E-04    0.271E-04
RMM:  16    -0.413205366870E+03    0.66847E-06   -0.58165E-08  1013   0.582E-04
   39 T=    69. E= -.41286671E+03 F= -.41320537E+03 E0= -.41318423E+03  EK= 0.33865E+00 SP= 0.00E+00 SK= 0.00E+00
       N       E                     dE             d eps       ncg     rms          rms(c)
RMM:   1    -0.413202801443E+03    0.25661E-02   -0.12543E+01  4310   0.113E+00    0.935E-01
RMM:   2    -0.413210670790E+03   -0.78693E-02   -0.16793E-01  4268   0.133E-01    0.672E-01
RMM:   3    -0.413209936997E+03    0.73379E-03   -0.72380E-03  5009   0.548E-02    0.240E-01
RMM:   4    -0.413264279693E+03   -0.54343E-01   -0.59565E-02  5129   0.202E-01    0.967E-01
RMM:   5    -0.413208548429E+03    0.55731E-01   -0.27391E-02  4781   0.163E-01    0.503E-02
RMM:   6    -0.413208722067E+03   -0.17364E-03   -0.44481E-03  5823   0.618E-02    0.216E-02
RMM:   7    -0.413208745429E+03   -0.23362E-04   -0.45122E-04  5907   0.178E-02    0.156E-02
RMM:   8    -0.413208745356E+03    0.72803E-07   -0.64943E-05  4968   0.677E-03    0.116E-02
RMM:   9    -0.413208736635E+03    0.87216E-05   -0.12263E-05  3699   0.388E-03    0.672E-03
RMM:  10    -0.413208729177E+03    0.74575E-05   -0.38780E-06  2672   0.289E-03    0.311E-03
RMM:  11    -0.413208724208E+03    0.49695E-05   -0.16851E-06  2511   0.208E-03    0.177E-03
RMM:  12    -0.413208718707E+03    0.55010E-05   -0.86761E-07  2465   0.160E-03    0.661E-04
RMM:  13    -0.413208716074E+03    0.26325E-05   -0.37139E-07  2263   0.108E-03    0.423E-04
RMM:  14    -0.413208713648E+03    0.24263E-05   -0.18920E-07  1745   0.800E-04    0.262E-04
RMM:  15    -0.413208708438E+03    0.52103E-05   -0.14712E-07  1606   0.742E-04    0.208E-04
RMM:  16    -0.413208707780E+03    0.65731E-06   -0.62243E-08  1033   0.598E-04
   40 T=    69. E= -.41286738E+03 F= -.41320871E+03 E0= -.41318761E+03  EK= 0.34133E+00 SP= 0.00E+00 SK= 0.00E+00
       N       E                     dE             d eps       ncg     rms          rms(c)
RMM:   1    -0.413206694486E+03    0.20140E-02   -0.12728E+01  4304   0.119E+00    0.947E-01
RMM:   2    -0.413211978563E+03   -0.52841E-02   -0.17498E-01  4271   0.140E-01    0.683E-01
RMM:   3    -0.413211635616E+03    0.34295E-03   -0.75852E-03  5038   0.566E-02    0.257E-01
RMM:   4    -0.413267812784E+03   -0.56177E-01   -0.63203E-02  5126   0.208E-01    0.986E-01
RMM:   5    -0.413209912780E+03    0.57900E-01   -0.28269E-02  4773   0.167E-01    0.521E-02
RMM:   6    -0.413210083235E+03   -0.17046E-03   -0.44967E-03  5815   0.628E-02    0.216E-02
RMM:   7    -0.413210107997E+03   -0.24762E-04   -0.47648E-04  5916   0.183E-02    0.162E-02
RMM:   8    -0.413210108064E+03   -0.66972E-07   -0.69898E-05  5079   0.707E-03    0.117E-02
RMM:   9    -0.413210099204E+03    0.88602E-05   -0.11680E-05  3605   0.390E-03    0.643E-03
RMM:  10    -0.413210091881E+03    0.73226E-05   -0.40880E-06  2691   0.294E-03    0.294E-03
RMM:  11    -0.413210086914E+03    0.49674E-05   -0.16572E-06  2517   0.205E-03    0.157E-03
RMM:  12    -0.413210081799E+03    0.51150E-05   -0.80211E-07  2463   0.154E-03    0.627E-04
RMM:  13    -0.413210079162E+03    0.26369E-05   -0.35151E-07  2220   0.105E-03    0.398E-04
RMM:  14    -0.413210076107E+03    0.30554E-05   -0.19278E-07  1716   0.800E-04    0.255E-04
RMM:  15    -0.413210071832E+03    0.42744E-05   -0.13185E-07  1428   0.713E-04    0.153E-04
RMM:  16    -0.413210070706E+03    0.11264E-05   -0.66969E-08  1047   0.615E-04    0.747E-05
RMM:  17    -0.413210068607E+03    0.20985E-05   -0.55932E-08  1065   0.612E-04    0.458E-05
RMM:  18    -0.413210065003E+03    0.36047E-05   -0.61237E-08  1222   0.631E-04    0.433E-05
RMM:  19    -0.413210064434E+03    0.56874E-06   -0.24670E-08   819   0.560E-04
   41 T=    70. E= -.41286678E+03 F= -.41321006E+03 E0= -.41318900E+03  EK= 0.34328E+00 SP= 0.00E+00 SK= 0.00E+00
       N       E                     dE             d eps       ncg     rms          rms(c)
RMM:   1    -0.413216530901E+03   -0.64659E-02   -0.12872E+01  4310   0.128E+00    0.972E-01
RMM:   2    -0.413213981402E+03    0.25495E-02   -0.17869E-01  4290   0.146E-01    0.676E-01
RMM:   3    -0.413216593938E+03   -0.26125E-02   -0.10013E-02  5120   0.729E-02    0.334E-01
RMM:   4    -0.413250696159E+03   -0.34102E-01   -0.50237E-02  5089   0.188E-01    0.812E-01
RMM:   5    -0.413212735804E+03    0.37960E-01   -0.17123E-02  4727   0.136E-01    0.501E-02
RMM:   6    -0.413212780792E+03   -0.44989E-04   -0.28000E-03  5750   0.503E-02    0.195E-02
RMM:   7    -0.413212793538E+03   -0.12745E-04   -0.33132E-04  5904   0.157E-02    0.150E-02
RMM:   8    -0.413212790710E+03    0.28281E-05   -0.52372E-05  4948   0.644E-03    0.966E-03
RMM:   9    -0.413212778415E+03    0.12295E-04   -0.91846E-06  3326   0.395E-03    0.436E-03
RMM:  10    -0.413212769839E+03    0.85761E-05   -0.27877E-06  2587   0.245E-03    0.225E-03
RMM:  11    -0.413212762565E+03    0.72743E-05   -0.10261E-06  2501   0.163E-03    0.102E-03
RMM:  12    -0.413212756983E+03    0.55813E-05   -0.42180E-07  2319   0.113E-03    0.501E-04
RMM:  13    -0.413212751855E+03    0.51284E-05   -0.24523E-07  1659   0.851E-04    0.246E-04
RMM:  14    -0.413212748147E+03    0.37081E-05   -0.15322E-07  1358   0.733E-04    0.149E-04
RMM:  15    -0.413212742597E+03    0.55496E-05   -0.12667E-07  1409   0.713E-04    0.860E-05
RMM:  16    -0.413212738816E+03    0.37816E-05   -0.91615E-08  1313   0.652E-04    0.539E-05
RMM:  17    -0.413212734823E+03    0.39923E-05   -0.72145E-08  1263   0.624E-04    0.441E-05
RMM:  18    -0.413212733099E+03    0.17245E-05   -0.46869E-08  1016   0.564E-04    0.301E-05
RMM:  19    -0.413212732375E+03    0.72363E-06   -0.28274E-08   831   0.533E-04
   42 T=    70. E= -.41286727E+03 F= -.41321273E+03 E0= -.41319170E+03  EK= 0.34546E+00 SP= 0.00E+00 SK= 0.00E+00
       N       E                     dE             d eps       ncg     rms          rms(c)
RMM:   1    -0.413216480914E+03   -0.37478E-02   -0.12827E+01  4311   0.135E+00    0.948E-01
RMM:   2    -0.413215968254E+03    0.51266E-03   -0.17583E-01  4294   0.155E-01    0.676E-01
RMM:   3    -0.413219515787E+03   -0.35475E-02   -0.10602E-02  5099   0.800E-02    0.360E-01
RMM:   4    -0.413249436065E+03   -0.29920E-01   -0.48668E-02  5067   0.186E-01    0.779E-01
RMM:   5    -0.413214763523E+03    0.34673E-01   -0.15283E-02  4709   0.131E-01    0.489E-02
RMM:   6    -0.413214789268E+03   -0.25745E-04   -0.25250E-03  5732   0.481E-02    0.186E-02
RMM:   7    -0.413214799494E+03   -0.10227E-04   -0.29529E-04  5893   0.152E-02    0.145E-02
RMM:   8    -0.413214796982E+03    0.25127E-05   -0.48174E-05  4893   0.625E-03    0.911E-03
RMM:   9    -0.413214786597E+03    0.10384E-04   -0.90426E-06  3331   0.402E-03    0.417E-03
RMM:  10    -0.413214780149E+03    0.64487E-05   -0.25787E-06  2570   0.241E-03    0.227E-03
RMM:  11    -0.413214774785E+03    0.53640E-05   -0.10444E-06  2511   0.161E-03    0.103E-03
RMM:  12    -0.413214770766E+03    0.40188E-05   -0.43515E-07  2294   0.111E-03    0.502E-04
RMM:  13    -0.413214766462E+03    0.43043E-05   -0.28319E-07  1680   0.871E-04    0.258E-04
RMM:  14    -0.413214764050E+03    0.24117E-05   -0.16865E-07  1328   0.735E-04    0.148E-04
RMM:  15    -0.413214760075E+03    0.39750E-05   -0.13413E-07  1292   0.703E-04    0.740E-05
RMM:  16    -0.413214756708E+03    0.33669E-05   -0.10298E-07  1277   0.672E-04    0.516E-05
RMM:  17    -0.413214753928E+03    0.27803E-05   -0.77174E-08  1238   0.634E-04    0.438E-05
RMM:  18    -0.413214751718E+03    0.22094E-05   -0.57720E-08  1105   0.587E-04    0.348E-05
RMM:  19    -0.413214751086E+03    0.63256E-06   -0.32087E-08   823   0.532E-04
   43 T=    71. E= -.41286731E+03 F= -.41321475E+03 E0= -.41319375E+03  EK= 0.34744E+00 SP= 0.00E+00 SK= 0.00E+00
       N       E                     dE             d eps       ncg     rms          rms(c)
RMM:   1    -0.413243837031E+03   -0.29085E-01   -0.13221E+01  4312   0.152E+00    0.949E-01
RMM:   2    -0.413217247326E+03    0.26590E-01   -0.20186E-01  4296   0.176E-01    0.693E-01
RMM:   3    -0.413222171644E+03   -0.49243E-02   -0.11773E-02  5099   0.893E-02    0.411E-01
RMM:   4    -0.413248747380E+03   -0.26576E-01   -0.49668E-02  5056   0.189E-01    0.764E-01
RMM:   5    -0.413215871143E+03    0.32876E-01   -0.14388E-02  4692   0.130E-01    0.517E-02
RMM:   6    -0.413215875111E+03   -0.39682E-05   -0.24153E-03  5692   0.469E-02    0.191E-02
RMM:   7    -0.413215885647E+03   -0.10536E-04   -0.29087E-04  5916   0.153E-02    0.149E-02
RMM:   8    -0.413215883114E+03    0.25330E-05   -0.46158E-05  4862   0.623E-03    0.920E-03
RMM:   9    -0.413215873865E+03    0.92492E-05   -0.10453E-05  3469   0.441E-03    0.441E-03
RMM:  10    -0.413215868737E+03    0.51276E-05   -0.27671E-06  2594   0.252E-03    0.258E-03
RMM:  11    -0.413215864707E+03    0.40299E-05   -0.13228E-06  2540   0.176E-03    0.114E-03
RMM:  12    -0.413215861913E+03    0.27949E-05   -0.52630E-07  2429   0.123E-03    0.594E-04
RMM:  13    -0.413215858371E+03    0.35414E-05   -0.36401E-07  1795   0.960E-04    0.347E-04
RMM:  14    -0.413215856581E+03    0.17902E-05   -0.20243E-07  1380   0.781E-04    0.187E-04
RMM:  15    -0.413215854194E+03    0.23865E-05   -0.14841E-07  1253   0.721E-04    0.100E-04
RMM:  16    -0.413215851168E+03    0.30260E-05   -0.12293E-07  1289   0.696E-04    0.549E-05
RMM:  17    -0.413215849804E+03    0.13642E-05   -0.77088E-08  1086   0.632E-04    0.439E-05
RMM:  18    -0.413215847716E+03    0.20883E-05   -0.66767E-08  1115   0.614E-04    0.367E-05
RMM:  19    -0.413215846749E+03    0.96645E-06   -0.40820E-08   881   0.566E-04
   44 T=    71. E= -.41286700E+03 F= -.41321585E+03 E0= -.41319487E+03  EK= 0.34885E+00 SP= 0.00E+00 SK= 0.00E+00
       N       E                     dE             d eps       ncg     rms          rms(c)
RMM:   1    -0.413232935057E+03   -0.17087E-01   -0.13171E+01  4307   0.157E+00    0.978E-01
RMM:   2    -0.413218124228E+03    0.14811E-01   -0.18710E-01  4365   0.182E-01    0.684E-01
RMM:   3    -0.413230608886E+03   -0.12485E-01   -0.18560E-02  5135   0.117E-01    0.532E-01
RMM:   4    -0.413233369814E+03   -0.27609E-02   -0.37888E-02  5015   0.169E-01    0.547E-01
RMM:   5    -0.413217765829E+03    0.15604E-01   -0.60506E-03  4566   0.953E-02    0.435E-02
RMM:   6    -0.413217719268E+03    0.46561E-04   -0.10723E-03  5341   0.322E-02    0.175E-02
RMM:   7    -0.413217718564E+03    0.70396E-06   -0.12468E-04  5683   0.107E-02    0.132E-02
RMM:   8    -0.413217713437E+03    0.51271E-05   -0.31950E-05  4884   0.562E-03    0.805E-03
RMM:   9    -0.413217698013E+03    0.15424E-04   -0.88062E-06  3352   0.428E-03    0.389E-03
RMM:  10    -0.413217692620E+03    0.53935E-05   -0.15198E-06  2537   0.206E-03    0.184E-03
RMM:  11    -0.413217686495E+03    0.61247E-05   -0.89980E-07  2488   0.150E-03    0.950E-04
RMM:  12    -0.413217681026E+03    0.54688E-05   -0.41282E-07  2354   0.110E-03    0.478E-04
RMM:  13    -0.413217676164E+03    0.48623E-05   -0.22778E-07  1510   0.800E-04    0.235E-04
RMM:  14    -0.413217673211E+03    0.29526E-05   -0.13383E-07  1195   0.689E-04    0.149E-04
RMM:  15    -0.413217667181E+03    0.60301E-05   -0.12537E-07  1338   0.701E-04    0.890E-05
RMM:  16    -0.413217664019E+03    0.31623E-05   -0.77716E-08  1144   0.628E-04    0.820E-05
RMM:  17    -0.413217661266E+03    0.27533E-05   -0.55874E-08  1014   0.586E-04    0.520E-05
RMM:  18    -0.413217658557E+03    0.27083E-05   -0.47645E-08  1008   0.574E-04    0.295E-05
RMM:  19    -0.413217657914E+03    0.64316E-06   -0.24790E-08   758   0.525E-04
   45 T=    71. E= -.41286734E+03 F= -.41321766E+03 E0= -.41319671E+03  EK= 0.35031E+00 SP= 0.00E+00 SK= 0.00E+00
       N       E                     dE             d eps       ncg     rms          rms(c)
RMM:   1    -0.413241916328E+03   -0.24258E-01   -0.13183E+01  4307   0.168E+00    0.962E-01
RMM:   2    -0.413218300414E+03    0.23616E-01   -0.18604E-01  4378   0.192E-01    0.681E-01
RMM:   3    -0.413233671376E+03   -0.15371E-01   -0.21016E-02  5129   0.127E-01    0.577E-01
RMM:   4    -0.413231043704E+03    0.26277E-02   -0.37112E-02  4988   0.169E-01    0.505E-01
RMM:   5    -0.413217990362E+03    0.13053E-01   -0.51417E-03  4545   0.914E-02    0.439E-02
RMM:   6    -0.413217919478E+03    0.70883E-04   -0.80065E-04  5096   0.292E-02    0.171E-02
RMM:   7    -0.413217918978E+03    0.50016E-06   -0.10111E-04  5663   0.954E-03    0.113E-02
RMM:   8    -0.413217915709E+03    0.32691E-05   -0.34295E-05  5042   0.592E-03    0.805E-03
RMM:   9    -0.413217901925E+03    0.13784E-04   -0.14350E-05  4103   0.474E-03    0.435E-03
RMM:  10    -0.413217897647E+03    0.42784E-05   -0.18124E-06  2511   0.220E-03    0.198E-03
RMM:  11    -0.413217892533E+03    0.51135E-05   -0.13491E-06  2481   0.180E-03    0.113E-03
RMM:  12    -0.413217887723E+03    0.48101E-05   -0.48293E-07  2362   0.127E-03    0.638E-04
RMM:  13    -0.413217883779E+03    0.39442E-05   -0.21653E-07  1683   0.836E-04    0.309E-04
RMM:  14    -0.413217880097E+03    0.36823E-05   -0.12002E-07  1187   0.682E-04    0.159E-04
RMM:  15    -0.413217874284E+03    0.58125E-05   -0.12021E-07  1339   0.686E-04    0.118E-04
RMM:  16    -0.413217872030E+03    0.22538E-05   -0.56240E-08   896   0.570E-04    0.965E-05
RMM:  17    -0.413217868270E+03    0.37607E-05   -0.56555E-08   995   0.580E-04    0.434E-05
RMM:  18    -0.413217866297E+03    0.19730E-05   -0.35418E-08   845   0.544E-04    0.353E-05
RMM:  19    -0.413217865531E+03    0.76575E-06   -0.19286E-08   668   0.513E-04
   46 T=    71. E= -.41286699E+03 F= -.41321787E+03 E0= -.41319694E+03  EK= 0.35087E+00 SP= 0.00E+00 SK= 0.00E+00
       N       E                     dE             d eps       ncg     rms          rms(c)
RMM:   1    -0.413262797059E+03   -0.44931E-01   -0.13455E+01  4311   0.183E+00    0.947E-01
RMM:   2    -0.413218523267E+03    0.44274E-01   -0.22460E-01  4392   0.215E-01    0.698E-01
RMM:   3    -0.413233399900E+03   -0.14877E-01   -0.20602E-02  5135   0.128E-01    0.601E-01
RMM:   4    -0.413232257288E+03    0.11426E-02   -0.39388E-02  5002   0.174E-01    0.547E-01
RMM:   5    -0.413217615257E+03    0.14642E-01   -0.65072E-03  4547   0.100E-01    0.496E-02
RMM:   6    -0.413217528997E+03    0.86259E-04   -0.96492E-04  5132   0.323E-02    0.191E-02
RMM:   7    -0.413217528406E+03    0.59120E-06   -0.13460E-04  5829   0.110E-02    0.137E-02
RMM:   8    -0.413217525189E+03    0.32175E-05   -0.36362E-05  5061   0.586E-03    0.909E-03
RMM:   9    -0.413217512495E+03    0.12693E-04   -0.14286E-05  4081   0.504E-03    0.501E-03
RMM:  10    -0.413217508403E+03    0.40922E-05   -0.22467E-06  2558   0.231E-03    0.240E-03
RMM:  11    -0.413217504950E+03    0.34531E-05   -0.18229E-06  2540   0.204E-03    0.137E-03
RMM:  12    -0.413217502110E+03    0.28406E-05   -0.54732E-07  2410   0.139E-03    0.756E-04
RMM:  13    -0.413217499227E+03    0.28829E-05   -0.27656E-07  1937   0.903E-04    0.372E-04
RMM:  14    -0.413217496697E+03    0.25298E-05   -0.15754E-07  1276   0.703E-04    0.208E-04
RMM:  15    -0.413217493849E+03    0.28477E-05   -0.12156E-07  1137   0.661E-04    0.939E-05
RMM:  16    -0.413217491597E+03    0.22518E-05   -0.91598E-08  1151   0.636E-04    0.874E-05
RMM:  17    -0.413217490041E+03    0.15560E-05   -0.57074E-08   945   0.577E-04    0.694E-05
RMM:  18    -0.413217488742E+03    0.12988E-05   -0.39257E-08   810   0.545E-04    0.372E-05
RMM:  19    -0.413217488297E+03    0.44548E-06   -0.23693E-08   679   0.522E-04
   47 T=    71. E= -.41286692E+03 F= -.41321749E+03 E0= -.41319658E+03  EK= 0.35057E+00 SP= 0.00E+00 SK= 0.00E+00
       N       E                     dE             d eps       ncg     rms          rms(c)
RMM:   1    -0.413268593510E+03   -0.51105E-01   -0.13517E+01  4306   0.196E+00    0.975E-01
RMM:   2    -0.413216699754E+03    0.51894E-01   -0.21446E-01  4490   0.214E-01    0.692E-01
RMM:   3    -0.413241790218E+03   -0.25090E-01   -0.30037E-02  5148   0.155E-01    0.722E-01
RMM:   4    -0.413224532612E+03    0.17258E-01   -0.37866E-02  4952   0.175E-01    0.433E-01
RMM:   5    -0.413216404297E+03    0.81283E-02   -0.47798E-03  4581   0.924E-02    0.578E-02
RMM:   6    -0.413216215882E+03    0.18842E-03   -0.46977E-04  4669   0.287E-02    0.224E-02
RMM:   7    -0.413216217076E+03   -0.11947E-05   -0.12626E-04  5875   0.112E-02    0.151E-02
RMM:   8    -0.413216207161E+03    0.99152E-05   -0.27751E-05  4771   0.562E-03    0.103E-02
RMM:   9    -0.413216192137E+03    0.15024E-04   -0.10819E-05  3537   0.446E-03    0.529E-03
RMM:  10    -0.413216185185E+03    0.69513E-05   -0.28855E-06  2648   0.273E-03    0.243E-03
RMM:  11    -0.413216179790E+03    0.53949E-05   -0.21144E-06  2577   0.222E-03    0.154E-03
RMM:  12    -0.413216174533E+03    0.52578E-05   -0.73839E-07  2441   0.154E-03    0.783E-04
RMM:  13    -0.413216170184E+03    0.43487E-05   -0.35075E-07  2228   0.101E-03    0.426E-04
RMM:  14    -0.413216166043E+03    0.41411E-05   -0.19097E-07  1499   0.741E-04    0.225E-04
RMM:  15    -0.413216161221E+03    0.48217E-05   -0.14366E-07  1368   0.700E-04    0.113E-04
RMM:  16    -0.413216158099E+03    0.31225E-05   -0.91504E-08  1200   0.640E-04    0.101E-04
RMM:  17    -0.413216155580E+03    0.25188E-05   -0.63254E-08  1086   0.598E-04    0.735E-05
RMM:  18    -0.413216153592E+03    0.19878E-05   -0.48065E-08  1026   0.573E-04    0.449E-05
RMM:  19    -0.413216152855E+03    0.73732E-06   -0.24037E-08   773   0.529E-04
   48 T=    71. E= -.41286695E+03 F= -.41321615E+03 E0= -.41319526E+03  EK= 0.34920E+00 SP= 0.00E+00 SK= 0.00E+00
       N       E                     dE             d eps       ncg     rms          rms(c)
RMM:   1    -0.413268665503E+03   -0.52512E-01   -0.13388E+01  4306   0.210E+00    0.967E-01
RMM:   2    -0.413213133699E+03    0.55532E-01   -0.21141E-01  4495   0.228E-01    0.682E-01
RMM:   3    -0.413244578734E+03   -0.31445E-01   -0.35941E-02  5160   0.171E-01    0.796E-01
RMM:   4    -0.413218431323E+03    0.26147E-01   -0.37930E-02  4923   0.178E-01    0.384E-01
RMM:   5    -0.413213048381E+03    0.53829E-02   -0.52977E-03  4868   0.952E-02    0.733E-02
RMM:   6    -0.413212723385E+03    0.32500E-03   -0.58536E-04  4667   0.335E-02    0.273E-02
RMM:   7    -0.413212719490E+03    0.38953E-05   -0.14319E-04  5732   0.128E-02    0.170E-02
RMM:   8    -0.413212708161E+03    0.11329E-04   -0.22174E-05  4415   0.522E-03    0.109E-02
RMM:   9    -0.413212692233E+03    0.15928E-04   -0.11575E-05  3564   0.444E-03    0.491E-03
RMM:  10    -0.413212683859E+03    0.83743E-05   -0.39085E-06  2817   0.302E-03    0.262E-03
RMM:  11    -0.413212676753E+03    0.71063E-05   -0.24929E-06  2649   0.241E-03    0.177E-03
RMM:  12    -0.413212672257E+03    0.44958E-05   -0.67875E-07  2449   0.154E-03    0.836E-04
RMM:  13    -0.413212667998E+03    0.42591E-05   -0.33583E-07  2228   0.997E-04    0.492E-04
RMM:  14    -0.413212663158E+03    0.48398E-05   -0.21159E-07  1672   0.785E-04    0.246E-04
RMM:  15    -0.413212658381E+03    0.47768E-05   -0.15197E-07  1417   0.712E-04    0.140E-04
RMM:  16    -0.413212656311E+03    0.20701E-05   -0.80356E-08  1134   0.624E-04    0.991E-05
RMM:  17    -0.413212653120E+03    0.31915E-05   -0.79060E-08  1270   0.632E-04    0.464E-05
RMM:  18    -0.413212651886E+03    0.12336E-05   -0.37981E-08   938   0.567E-04    0.305E-05
RMM:  19    -0.413212651183E+03    0.70273E-06   -0.24815E-08   831   0.546E-04
   49 T=    70. E= -.41286683E+03 F= -.41321265E+03 E0= -.41319177E+03  EK= 0.34583E+00 SP= 0.00E+00 SK= 0.00E+00
       N       E                     dE             d eps       ncg     rms          rms(c)
RMM:   1    -0.413257976796E+03   -0.45325E-01   -0.13154E+01  4306   0.217E+00    0.933E-01
RMM:   2    -0.413208827718E+03    0.49149E-01   -0.24175E-01  4520   0.245E-01    0.692E-01
[...]
RMM:   8    -0.413974557970E+03    0.89268E-05   -0.18505E-03  5742   0.489E-02    0.440E-02
RMM:   9    -0.413974540879E+03    0.17091E-04   -0.30943E-04  5614   0.214E-02    0.301E-02
RMM:  10    -0.413974523590E+03    0.17289E-04   -0.11890E-04  5446   0.134E-02    0.112E-02
RMM:  11    -0.413974531932E+03   -0.83427E-05   -0.45825E-05  5563   0.729E-03    0.869E-03
RMM:  12    -0.413974537122E+03   -0.51902E-05   -0.87216E-06  3701   0.426E-03    0.323E-03
RMM:  13    -0.413974541569E+03   -0.44462E-05   -0.26216E-06  2730   0.242E-03    0.147E-03
RMM:  14    -0.413974545285E+03   -0.37162E-05   -0.10431E-06  2530   0.164E-03    0.845E-04
RMM:  15    -0.413974548742E+03   -0.34570E-05   -0.77174E-07  2337   0.131E-03    0.498E-04
RMM:  16    -0.413974552160E+03   -0.34184E-05   -0.68591E-07  2267   0.114E-03    0.277E-04
RMM:  17    -0.413974554042E+03   -0.18818E-05   -0.36760E-07  1642   0.859E-04    0.200E-04
RMM:  18    -0.413974556489E+03   -0.24470E-05   -0.46256E-07  1980   0.930E-04    0.145E-04
RMM:  19    -0.413974557342E+03   -0.85237E-06   -0.16899E-07  1243   0.652E-04
  140 T=   218. E= -.41290285E+03 F= -.41397456E+03 E0= -.41395234E+03  EK= 0.10717E+01 SP= 0.00E+00 SK= 0.00E+00
       N       E                     dE             d eps       ncg     rms          rms(c)
RMM:   1    -0.414020362001E+03   -0.45806E-01   -0.25317E+01  4297   0.940E+00    0.136E+00
RMM:   2    -0.413823397434E+03    0.19696E+00   -0.68945E-01  5334   0.959E-01    0.116E+00
RMM:   3    -0.413879104403E+03   -0.55707E-01   -0.15599E-01  5588   0.425E-01    0.145E+00
RMM:   4    -0.413808392007E+03    0.70712E-01   -0.57932E-02  4977   0.286E-01    0.636E-01
RMM:   5    -0.413810772167E+03   -0.23802E-02   -0.63752E-02  5042   0.310E-01    0.407E-01
RMM:   6    -0.413806224893E+03    0.45473E-02   -0.27132E-02  5107   0.201E-01    0.198E-01
RMM:   7    -0.413804986447E+03    0.12384E-02   -0.40245E-03  5346   0.867E-02    0.114E-01
RMM:   8    -0.413804757907E+03    0.22854E-03   -0.15862E-03  5365   0.481E-02    0.483E-02
RMM:   9    -0.413804771915E+03   -0.14008E-04   -0.59100E-04  5347   0.277E-02    0.226E-02
RMM:  10    -0.413804785597E+03   -0.13682E-04   -0.99689E-05  5530   0.124E-02    0.134E-02
RMM:  11    -0.413804800302E+03   -0.14705E-04   -0.30250E-05  4784   0.719E-03    0.784E-03
RMM:  12    -0.413804817912E+03   -0.17610E-04   -0.12032E-05  3659   0.490E-03    0.407E-03
RMM:  13    -0.413804827223E+03   -0.93109E-05   -0.47090E-06  2920   0.294E-03    0.181E-03
RMM:  14    -0.413804833179E+03   -0.59563E-05   -0.29293E-06  2736   0.220E-03    0.113E-03
RMM:  15    -0.413804837313E+03   -0.41341E-05   -0.21457E-06  2631   0.184E-03    0.763E-04
RMM:  16    -0.413804839365E+03   -0.20521E-05   -0.18003E-06  2500   0.157E-03    0.451E-04
RMM:  17    -0.413804839389E+03   -0.23199E-07   -0.13996E-06  2261   0.134E-03
  141 T=   187. E= -.41288607E+03 F= -.41380484E+03 E0= -.41378263E+03  EK= 0.91876E+00 SP= 0.00E+00 SK= 0.00E+00
       N       E                     dE             d eps       ncg     rms          rms(c)
RMM:   1    -0.413511425386E+03    0.29341E+00   -0.16503E+01  4297   0.779E+00    0.973E-01
RMM:   2    -0.413451955356E+03    0.59470E-01   -0.47886E-01  5346   0.738E-01    0.814E-01
RMM:   3    -0.413490333809E+03   -0.38378E-01   -0.93966E-02  5585   0.316E-01    0.111E+00
RMM:   4    -0.413445119970E+03    0.45214E-01   -0.27900E-02  4887   0.198E-01    0.515E-01
RMM:   5    -0.413448748774E+03   -0.36288E-02   -0.52140E-02  5234   0.260E-01    0.345E-01
RMM:   6    -0.413443695392E+03    0.50534E-02   -0.22599E-02  5219   0.176E-01    0.174E-01
RMM:   7    -0.413443225722E+03    0.46967E-03   -0.32366E-03  5630   0.717E-02    0.120E-01
RMM:   8    -0.413442905199E+03    0.32052E-03   -0.12745E-03  4769   0.419E-02    0.482E-02
RMM:   9    -0.413442972527E+03   -0.67328E-04   -0.74015E-04  5482   0.284E-02    0.185E-02
RMM:  10    -0.413443003913E+03   -0.31386E-04   -0.90159E-05  5555   0.113E-02    0.127E-02
RMM:  11    -0.413443027328E+03   -0.23415E-04   -0.29138E-05  4325   0.717E-03    0.596E-03
RMM:  12    -0.413443047852E+03   -0.20524E-04   -0.11193E-05  3465   0.457E-03    0.365E-03
RMM:  13    -0.413443064077E+03   -0.16225E-04   -0.75965E-06  3120   0.366E-03    0.278E-03
RMM:  14    -0.413443068798E+03   -0.47205E-05   -0.49053E-06  2926   0.252E-03    0.134E-03
RMM:  15    -0.413443070677E+03   -0.18796E-05   -0.35703E-06  2791   0.223E-03    0.913E-04
RMM:  16    -0.413443069284E+03    0.13930E-05   -0.51462E-06  2917   0.254E-03    0.853E-04
RMM:  17    -0.413443065864E+03    0.34202E-05   -0.20276E-06  2366   0.151E-03    0.639E-04
RMM:  18    -0.413443060982E+03    0.48824E-05   -0.10036E-06  2148   0.117E-03    0.330E-04
RMM:  19    -0.413443056188E+03    0.47938E-05   -0.60767E-07  1848   0.945E-04    0.145E-04
RMM:  20    -0.413443052144E+03    0.40442E-05   -0.33772E-07  1581   0.780E-04    0.135E-04
RMM:  21    -0.413443048751E+03    0.33929E-05   -0.21916E-07  1400   0.691E-04    0.896E-05
RMM:  22    -0.413443047442E+03    0.13087E-05   -0.11094E-07  1089   0.598E-04    0.511E-05
RMM:  23    -0.413443046341E+03    0.11013E-05   -0.78109E-08  1104   0.587E-04    0.265E-05
RMM:  24    -0.413443045729E+03    0.61137E-06   -0.49986E-08  1021   0.559E-04
  142 T=   117. E= -.41286880E+03 F= -.41344305E+03 E0= -.41342046E+03  EK= 0.57425E+00 SP= 0.00E+00 SK= 0.00E+00
       N       E                     dE             d eps       ncg     rms          rms(c)
RMM:   1    -0.413143751366E+03    0.29929E+00   -0.74056E+00  4295   0.530E+00    0.607E-01
RMM:   2    -0.413141303808E+03    0.24476E-02   -0.20539E-01  5362   0.452E-01    0.496E-01
RMM:   3    -0.413157521121E+03   -0.16217E-01   -0.34421E-02  5644   0.184E-01    0.681E-01
RMM:   4    -0.413139963035E+03    0.17558E-01   -0.11757E-02  5000   0.120E-01    0.334E-01
RMM:   5    -0.413141704938E+03   -0.17419E-02   -0.25936E-02  5374   0.175E-01    0.220E-01
RMM:   6    -0.413139088878E+03    0.26161E-02   -0.88624E-03  5264   0.109E-01    0.120E-01
RMM:   7    -0.413138863455E+03    0.22542E-03   -0.15694E-03  5701   0.469E-02    0.773E-02
RMM:   8    -0.413138764180E+03    0.99275E-04   -0.63925E-04  5339   0.270E-02    0.323E-02
RMM:   9    -0.413138800159E+03   -0.35979E-04   -0.23468E-04  5380   0.164E-02    0.113E-02
RMM:  10    -0.413138829190E+03   -0.29031E-04   -0.36727E-05  5005   0.771E-03    0.762E-03
RMM:  11    -0.413138848506E+03   -0.19317E-04   -0.11379E-05  3663   0.471E-03    0.427E-03
RMM:  12    -0.413138858787E+03   -0.10280E-04   -0.48046E-06  2956   0.291E-03    0.279E-03
RMM:  13    -0.413138870034E+03   -0.11247E-04   -0.60009E-06  3044   0.306E-03    0.156E-03
RMM:  14    -0.413138874778E+03   -0.47441E-05   -0.50484E-06  2901   0.261E-03    0.827E-04
RMM:  15    -0.413138874874E+03   -0.95577E-07   -0.37502E-06  2725   0.214E-03
  143 T=    57. E= -.41286034E+03 F= -.41313887E+03 E0= -.41311603E+03  EK= 0.27854E+00 SP= 0.00E+00 SK= 0.00E+00
       N       E                     dE             d eps       ncg     rms          rms(c)
RMM:   1    -0.413022595214E+03    0.11628E+00   -0.21355E+00  4295   0.290E+00    0.270E-01
RMM:   2    -0.413026012151E+03   -0.34169E-02   -0.49501E-02  5268   0.228E-01    0.223E-01
RMM:   3    -0.413028777988E+03   -0.27658E-02   -0.72772E-03  5710   0.840E-02    0.290E-01
RMM:   4    -0.413025811976E+03    0.29660E-02   -0.23363E-03  5062   0.533E-02    0.154E-01
RMM:   5    -0.413026209879E+03   -0.39790E-03   -0.56088E-03  5420   0.816E-02    0.108E-01
RMM:   6    -0.413025670764E+03    0.53911E-03   -0.21897E-03  5254   0.537E-02    0.647E-02
RMM:   7    -0.413025604200E+03    0.66564E-04   -0.28781E-04  5672   0.211E-02    0.465E-02
RMM:   8    -0.413025571738E+03    0.32462E-04   -0.24747E-04  4863   0.161E-02    0.156E-02
RMM:   9    -0.413025601583E+03   -0.29845E-04   -0.14054E-04  5358   0.109E-02    0.982E-03
RMM:  10    -0.413025604015E+03   -0.24313E-05   -0.10377E-05  3698   0.434E-03    0.615E-03
RMM:  11    -0.413025608085E+03   -0.40703E-05   -0.69966E-06  3290   0.332E-03    0.277E-03
RMM:  12    -0.413025612138E+03   -0.40531E-05   -0.21323E-06  2650   0.213E-03    0.184E-03
RMM:  13    -0.413025615218E+03   -0.30797E-05   -0.25149E-06  2708   0.201E-03    0.110E-03
RMM:  14    -0.413025615445E+03   -0.22710E-06   -0.21160E-06  2482   0.176E-03
  144 T=    34. E= -.41285984E+03 F= -.41302562E+03 E0= -.41300275E+03  EK= 0.16577E+00 SP= 0.00E+00 SK= 0.00E+00
       N       E                     dE             d eps       ncg     rms          rms(c)
RMM:   1    -0.413110042509E+03   -0.84427E-01   -0.20816E+00  4286   0.260E+00    0.604E-01
RMM:   2    -0.413113100895E+03   -0.30584E-02   -0.60442E-02  5098   0.245E-01    0.438E-01
RMM:   3    -0.413147155499E+03   -0.34055E-01   -0.39944E-02  5339   0.192E-01    0.827E-01
RMM:   4    -0.413112966883E+03    0.34189E-01   -0.21391E-02  4902   0.167E-01    0.122E-01
RMM:   5    -0.413112631990E+03    0.33489E-03   -0.71578E-03  5420   0.968E-02    0.621E-02
RMM:   6    -0.413112405450E+03    0.22654E-03   -0.12192E-03  5507   0.403E-02    0.322E-02
RMM:   7    -0.413112381368E+03    0.24082E-04   -0.20595E-04  5401   0.170E-02    0.141E-02
RMM:   8    -0.413112382146E+03   -0.77839E-06   -0.56181E-05  5613   0.848E-03    0.855E-03
RMM:   9    -0.413112382392E+03   -0.24607E-06   -0.10613E-05  3826   0.407E-03    0.500E-03
RMM:  10    -0.413112382653E+03   -0.26089E-06   -0.44998E-06  2992   0.295E-03
  145 T=    50. E= -.41286526E+03 F= -.41311238E+03 E0= -.41308965E+03  EK= 0.24713E+00 SP= 0.00E+00 SK= 0.00E+00
       N       E                     dE             d eps       ncg     rms          rms(c)
RMM:   1    -0.413325093062E+03   -0.21271E+00   -0.59695E+00  4295   0.459E+00    0.826E-01
RMM:   2    -0.413324215873E+03    0.87719E-03   -0.14550E-01  5220   0.411E-01    0.651E-01
RMM:   3    -0.413351194156E+03   -0.26978E-01   -0.52062E-02  5415   0.234E-01    0.886E-01
RMM:   4    -0.413322191343E+03    0.29003E-01   -0.30638E-02  4997   0.210E-01    0.225E-01
RMM:   5    -0.413320437658E+03    0.17537E-02   -0.13827E-02  5042   0.145E-01    0.942E-02
RMM:   6    -0.413320018794E+03    0.41886E-03   -0.31924E-03  5485   0.680E-02    0.635E-02
RMM:   7    -0.413319854288E+03    0.16451E-03   -0.44063E-04  4637   0.284E-02    0.244E-02
RMM:   8    -0.413319850288E+03    0.40001E-05   -0.24324E-04  5683   0.175E-02    0.148E-02
RMM:   9    -0.413319848142E+03    0.21463E-05   -0.34287E-05  5131   0.694E-03    0.939E-03
RMM:  10    -0.413319851240E+03   -0.30975E-05   -0.26071E-05  4982   0.614E-03    0.578E-03
RMM:  11    -0.413319856224E+03   -0.49845E-05   -0.38460E-06  2898   0.295E-03    0.391E-03
RMM:  12    -0.413319860665E+03   -0.44407E-05   -0.18518E-06  2618   0.219E-03    0.148E-03
RMM:  13    -0.413319865921E+03   -0.52565E-05   -0.11707E-06  2502   0.167E-03    0.769E-04
RMM:  14    -0.413319874206E+03   -0.82846E-05   -0.14505E-06  2584   0.168E-03    0.641E-04
RMM:  15    -0.413319880429E+03   -0.62227E-05   -0.86860E-07  2294   0.124E-03    0.406E-04
RMM:  16    -0.413319886783E+03   -0.63545E-05   -0.86548E-07  2206   0.115E-03    0.284E-04
RMM:  17    -0.413319893150E+03   -0.63671E-05   -0.88796E-07  2105   0.107E-03    0.163E-04
RMM:  18    -0.413319896446E+03   -0.32954E-05   -0.35458E-07  1547   0.764E-04    0.900E-05
RMM:  19    -0.413319899027E+03   -0.25819E-05   -0.19222E-07  1293   0.656E-04    0.625E-05
RMM:  20    -0.413319900966E+03   -0.19383E-05   -0.11356E-07  1150   0.602E-04    0.423E-05
RMM:  21    -0.413319901910E+03   -0.94445E-06   -0.57453E-08   999   0.559E-04
  146 T=    92. E= -.41286987E+03 F= -.41331990E+03 E0= -.41329736E+03  EK= 0.45003E+00 SP= 0.00E+00 SK= 0.00E+00
       N       E                     dE             d eps       ncg     rms          rms(c)
RMM:   1    -0.413595928403E+03   -0.27603E+00   -0.11482E+01  4296   0.651E+00    0.795E-01
RMM:   2    -0.413582636950E+03    0.13291E-01   -0.24821E-01  5193   0.587E-01    0.706E-01
RMM:   3    -0.413588259384E+03   -0.56224E-02   -0.50457E-02  5473   0.246E-01    0.738E-01
RMM:   4    -0.413574219510E+03    0.14040E-01   -0.23768E-02  5083   0.188E-01    0.305E-01
RMM:   5    -0.413573937701E+03    0.28181E-03   -0.16896E-02  4978   0.165E-01    0.162E-01
RMM:   6    -0.413572924278E+03    0.10134E-02   -0.56438E-03  5062   0.935E-02    0.908E-02
RMM:   7    -0.413572562953E+03    0.36133E-03   -0.72262E-04  4538   0.403E-02    0.358E-02
RMM:   8    -0.413572539254E+03    0.23699E-04   -0.46540E-04  5735   0.245E-02    0.205E-02
RMM:   9    -0.413572525717E+03    0.13537E-04   -0.78197E-05  5178   0.111E-02    0.114E-02
RMM:  10    -0.413572529023E+03   -0.33067E-05   -0.39139E-05  5444   0.749E-03    0.784E-03
RMM:  11    -0.413572538057E+03   -0.90334E-05   -0.76418E-06  3414   0.403E-03    0.510E-03
RMM:  12    -0.413572547514E+03   -0.94572E-05   -0.39284E-06  2875   0.301E-03    0.222E-03
RMM:  13    -0.413572558184E+03   -0.10670E-04   -0.21254E-06  2647   0.225E-03    0.122E-03
RMM:  14    -0.413572574830E+03   -0.16647E-04   -0.26600E-06  2728   0.237E-03    0.882E-04
RMM:  15    -0.413572587767E+03   -0.12936E-04   -0.20290E-06  2631   0.180E-03    0.511E-04
RMM:  16    -0.413572597281E+03   -0.95148E-05   -0.16436E-06  2491   0.146E-03    0.376E-04
RMM:  17    -0.413572606251E+03   -0.89691E-05   -0.14831E-06  2343   0.133E-03    0.269E-04
RMM:  18    -0.413572611558E+03   -0.53073E-05   -0.75503E-07  1878   0.971E-04    0.148E-04
RMM:  19    -0.413572615599E+03   -0.40409E-05   -0.35829E-07  1600   0.783E-04    0.104E-04
RMM:  20    -0.413572618738E+03   -0.31397E-05   -0.20591E-07  1360   0.679E-04    0.776E-05
RMM:  21    -0.413572620050E+03   -0.13115E-05   -0.10368E-07  1150   0.594E-04    0.417E-05
RMM:  22    -0.413572621090E+03   -0.10403E-05   -0.63608E-08  1077   0.565E-04    0.262E-05
RMM:  23    -0.413572621686E+03   -0.59570E-06   -0.36435E-08   976   0.538E-04
  147 T=   143. E= -.41287252E+03 F= -.41357262E+03 E0= -.41355034E+03  EK= 0.70010E+00 SP= 0.00E+00 SK= 0.00E+00
       N       E                     dE             d eps       ncg     rms          rms(c)
RMM:   1    -0.413907494245E+03   -0.33487E+00   -0.17848E+01  4297   0.784E+00    0.804E-01
RMM:   2    -0.413826565907E+03    0.80928E-01   -0.39242E-01  5138   0.782E-01    0.736E-01
RMM:   3    -0.413833783156E+03   -0.72172E-02   -0.65091E-02  5512   0.287E-01    0.784E-01
RMM:   4    -0.413816752511E+03    0.17031E-01   -0.20216E-02  5011   0.179E-01    0.402E-01
RMM:   5    -0.413817642437E+03   -0.88993E-03   -0.18644E-02  4892   0.179E-01    0.214E-01
RMM:   6    -0.413816371504E+03    0.12709E-02   -0.88139E-03  4933   0.117E-01    0.109E-01
RMM:   7    -0.413815847694E+03    0.52381E-03   -0.16264E-03  5102   0.545E-02    0.504E-02
RMM:   8    -0.413815751359E+03    0.96336E-04   -0.47064E-04  5514   0.265E-02    0.243E-02
RMM:   9    -0.413815721441E+03    0.29918E-04   -0.19526E-04  4736   0.172E-02    0.125E-02
RMM:  10    -0.413815721574E+03   -0.13316E-06   -0.49267E-05  5453   0.810E-03    0.944E-03
RMM:  11    -0.413815725887E+03   -0.43129E-05   -0.10971E-05  3957   0.471E-03    0.548E-03
RMM:  12    -0.413815734817E+03   -0.89296E-05   -0.49443E-06  3051   0.340E-03    0.274E-03
RMM:  13    -0.413815745011E+03   -0.10195E-04   -0.20889E-06  2664   0.227E-03    0.139E-03
RMM:  14    -0.413815759716E+03   -0.14705E-04   -0.26249E-06  2717   0.246E-03    0.958E-04
RMM:  15    -0.413815771328E+03   -0.11611E-04   -0.19807E-06  2631   0.184E-03    0.575E-04
RMM:  16    -0.413815778374E+03   -0.70462E-05   -0.12415E-06  2439   0.131E-03    0.414E-04
RMM:  17    -0.413815787581E+03   -0.92069E-05   -0.18616E-06  2577   0.154E-03    0.297E-04
RMM:  18    -0.413815791867E+03   -0.42859E-05   -0.89162E-07  1845   0.101E-03    0.160E-04
RMM:  19    -0.413815795047E+03   -0.31804E-05   -0.39320E-07  1536   0.799E-04    0.109E-04
RMM:  20    -0.413815798214E+03   -0.31674E-05   -0.26638E-07  1480   0.731E-04    0.878E-05
RMM:  21    -0.413815799641E+03   -0.14265E-05   -0.12387E-07  1144   0.613E-04    0.487E-05
RMM:  22    -0.413815800888E+03   -0.12477E-05   -0.79925E-08  1089   0.586E-04    0.292E-05
RMM:  23    -0.413815801469E+03   -0.58076E-06   -0.43917E-08   968   0.555E-04
  148 T=   190. E= -.41288212E+03 F= -.41381580E+03 E0= -.41379383E+03  EK= 0.93368E+00 SP= 0.00E+00 SK= 0.00E+00
       N       E                     dE             d eps       ncg     rms          rms(c)
RMM:   1    -0.414143142366E+03   -0.32734E+00   -0.23890E+01  4289   0.854E+00    0.118E+00
RMM:   2    -0.413916520737E+03    0.22662E+00   -0.64832E-01  5078   0.946E-01    0.966E-01
RMM:   3    -0.413981731417E+03   -0.65211E-01   -0.13468E-01  5466   0.401E-01    0.133E+00
RMM:   4    -0.413914787691E+03    0.66944E-01   -0.53006E-02  4936   0.276E-01    0.565E-01
RMM:   5    -0.413914970097E+03   -0.18241E-03   -0.39227E-02  4986   0.258E-01    0.252E-01
RMM:   6    -0.413912415730E+03    0.25544E-02   -0.62751E-03  4699   0.113E-01    0.827E-02
RMM:   7    -0.413912467819E+03   -0.52089E-04   -0.28262E-03  5841   0.585E-02    0.542E-02
RMM:   8    -0.413912331092E+03    0.13673E-03   -0.76163E-04  5491   0.314E-02    0.347E-02
RMM:   9    -0.413912272252E+03    0.58840E-04   -0.20969E-04  4798   0.193E-02    0.146E-02
RMM:  10    -0.413912272746E+03   -0.49412E-06   -0.10872E-04  5904   0.114E-02    0.129E-02
RMM:  11    -0.413912268984E+03    0.37626E-05   -0.18200E-05  4499   0.579E-03    0.622E-03
RMM:  12    -0.413912272648E+03   -0.36641E-05   -0.11915E-05  4139   0.441E-03    0.382E-03
RMM:  13    -0.413912277952E+03   -0.53041E-05   -0.19720E-06  2634   0.257E-03    0.179E-03
RMM:  14    -0.413912283330E+03   -0.53781E-05   -0.15141E-06  2599   0.191E-03    0.116E-03
RMM:  15    -0.413912288921E+03   -0.55911E-05   -0.12663E-06  2578   0.163E-03    0.577E-04
RMM:  16    -0.413912292583E+03   -0.36624E-05   -0.82553E-07  2187   0.117E-03    0.396E-04
RMM:  17    -0.413912296232E+03   -0.36484E-05   -0.89375E-07  2302   0.120E-03    0.246E-04
RMM:  18    -0.413912298994E+03   -0.27624E-05   -0.81280E-07  1960   0.106E-03    0.156E-04
RMM:  19    -0.413912300110E+03   -0.11154E-05   -0.32168E-07  1454   0.733E-04    0.946E-05
RMM:  20    -0.413912301299E+03   -0.11894E-05   -0.21831E-07  1316   0.671E-04    0.634E-05
RMM:  21    -0.413912302192E+03   -0.89260E-06   -0.12453E-07  1134   0.601E-04
  149 T=   207. E= -.41289748E+03 F= -.41391230E+03 E0= -.41389052E+03  EK= 0.10148E+01 SP= 0.00E+00 SK= 0.00E+00
       N       E                     dE             d eps       ncg     rms          rms(c)
RMM:   1    -0.413954522789E+03   -0.42221E-01   -0.23797E+01  4265   0.797E+00    0.179E+00
RMM:   2    -0.413703721845E+03    0.25080E+00   -0.97434E-01  5093   0.973E-01    0.136E+00
RMM:   3    -0.413886093508E+03   -0.18237E+00   -0.28197E-01  5293   0.582E-01    0.190E+00
RMM:   4    -0.413725155453E+03    0.16094E+00   -0.15197E-01  5043   0.423E-01    0.773E-01
RMM:   5    -0.413709640401E+03    0.15515E-01   -0.96477E-02  5264   0.375E-01    0.307E-01
RMM:   6    -0.413706416912E+03    0.32235E-02   -0.12587E-02  5034   0.155E-01    0.142E-01
RMM:   7    -0.413705570311E+03    0.84660E-03   -0.24813E-03  5037   0.667E-02    0.741E-02
RMM:   8    -0.413705490621E+03    0.79689E-04   -0.14408E-03  5669   0.451E-02    0.406E-02
RMM:   9    -0.413705480165E+03    0.10456E-04   -0.30465E-04  5775   0.205E-02    0.311E-02
RMM:  10    -0.413705451078E+03    0.29087E-04   -0.15803E-04  5234   0.156E-02    0.108E-02
RMM:  11    -0.413705449943E+03    0.11352E-05   -0.40821E-05  5426   0.674E-03    0.959E-03
RMM:  12    -0.413705445539E+03    0.44045E-05   -0.94854E-06  3899   0.424E-03    0.426E-03
RMM:  13    -0.413705445578E+03   -0.39472E-07   -0.43739E-06  3021   0.290E-03
  150 T=   167. E= -.41288669E+03 F= -.41370545E+03 E0= -.41368355E+03  EK= 0.81876E+00 SP= 0.00E+00 SK= 0.00E+00
