       N       E                     dE             d eps       ncg     rms          rms(c)
RMM:   1     0.220119972319E+04    0.22012E+04   -0.52446E+04  2132   0.654E+02
RMM:   2     0.705661806950E+03   -0.14955E+04   -0.16262E+04  2132   0.177E+02
RMM:   3     0.137491004754E+03   -0.56817E+03   -0.65747E+03  2132   0.117E+02
RMM:   4    -0.159308992339E+03   -0.29680E+03   -0.27845E+03  2132   0.936E+01
RMM:   5    -0.287500282911E+03   -0.12819E+03   -0.11442E+03  2132   0.595E+01
RMM:   6    -0.349740356591E+03   -0.62240E+02   -0.55129E+02  2132   0.423E+01
RMM:   7    -0.382638333359E+03   -0.32898E+02   -0.30435E+02  2132   0.293E+01
RMM:   8    -0.404198971422E+03   -0.21561E+02   -0.18452E+02  2132   0.234E+01
RMM:   9    -0.435989408157E+03   -0.31790E+02   -0.30711E+02  6099   0.173E+01
RMM:  10    -0.441218556539E+03   -0.52291E+01   -0.62655E+01  6386   0.539E+00
RMM:  11    -0.442518688071E+03   -0.13001E+01   -0.11328E+01  6227   0.174E+00
RMM:  12    -0.442899018313E+03   -0.38033E+00   -0.28781E+00  6373   0.612E-01    0.134E+02
RMM:  13    -0.425651758701E+03    0.17247E+02   -0.81236E+01  4677   0.119E+01    0.712E+01
RMM:  14    -0.500120663116E+03   -0.74469E+02   -0.54424E+02  5415   0.233E+01    0.308E+01
RMM:  15    -0.416897565189E+03    0.83223E+02   -0.20349E+02  5114   0.164E+01    0.763E+00
RMM:  16    -0.414017874698E+03    0.28797E+01   -0.40153E+01  6086   0.617E+00    0.430E+00
RMM:  17    -0.413210267879E+03    0.80761E+00   -0.26687E+00  5429   0.193E+00    0.244E+00
RMM:  18    -0.413181093822E+03    0.29174E-01   -0.73449E-01  5997   0.879E-01    0.172E+00
RMM:  19    -0.413173082615E+03    0.80112E-02   -0.26578E-01  5682   0.563E-01    0.906E-01
RMM:  20    -0.413194167650E+03   -0.21085E-01   -0.31515E-01  5596   0.579E-01    0.668E-01
RMM:  21    -0.413170074861E+03    0.24093E-01   -0.36544E-02  4972   0.253E-01    0.309E-01
RMM:  22    -0.413166080236E+03    0.39946E-02   -0.25219E-02  5874   0.155E-01    0.138E-01
RMM:  23    -0.413165104020E+03    0.97622E-03   -0.56332E-03  6013   0.670E-02    0.859E-02
RMM:  24    -0.413163772472E+03    0.13315E-02   -0.17424E-03  5366   0.420E-02    0.564E-02
RMM:  25    -0.413162964280E+03    0.80819E-03   -0.93132E-04  5080   0.310E-02    0.410E-02
RMM:  26    -0.413163016744E+03   -0.52463E-04   -0.11809E-03  5839   0.347E-02    0.368E-02
RMM:  27    -0.413163377051E+03   -0.36031E-03   -0.21545E-04  4612   0.205E-02    0.214E-02
RMM:  28    -0.413163806552E+03   -0.42950E-03   -0.18038E-04  5165   0.186E-02    0.999E-03
RMM:  29    -0.413164194797E+03   -0.38824E-03   -0.12648E-04  4765   0.163E-02    0.507E-03
RMM:  30    -0.413164429704E+03   -0.23491E-03   -0.83242E-05  4348   0.108E-02    0.483E-03
RMM:  31    -0.413164575864E+03   -0.14616E-03   -0.62698E-05  3297   0.781E-03    0.390E-03
RMM:  32    -0.413164601324E+03   -0.25460E-04   -0.24216E-05  3007   0.335E-03    0.205E-03
RMM:  33    -0.413164611023E+03   -0.96991E-05   -0.95805E-06  2794   0.228E-03    0.778E-04
RMM:  34    -0.413164613270E+03   -0.22470E-05   -0.50930E-06  2672   0.176E-03    0.505E-04
RMM:  35    -0.413164612455E+03    0.81523E-06   -0.24519E-06  2417   0.134E-03
    1 T=    61. E= -.41286681E+03 F= -.41316461E+03 E0= -.41314211E+03  EK= 0.29780E+00 SP= 0.00E+00 SK= 0.00E+00
       N       E                     dE             d eps       ncg     rms          rms(c)
RMM:   1    -0.413169707781E+03   -0.50945E-02   -0.72961E+00  3989   0.542E-01    0.895E-01
RMM:   2    -0.413170522282E+03   -0.81450E-03   -0.91674E-02  4020   0.823E-02    0.659E-01
RMM:   3    -0.413165846096E+03    0.46762E-02   -0.34699E-02  4979   0.658E-02    0.201E-01
RMM:   4    -0.413190378001E+03   -0.24532E-01   -0.29864E-02  5177   0.145E-01    0.669E-01
RMM:   5    -0.413164123164E+03    0.26255E-01   -0.12479E-02  4828   0.113E-01    0.491E-02
RMM:   6    -0.413164312396E+03   -0.18923E-03   -0.23262E-03  5742   0.471E-02    0.348E-02
RMM:   7    -0.413164320569E+03   -0.81731E-05   -0.43241E-04  5679   0.191E-02    0.221E-02
RMM:   8    -0.413164319613E+03    0.95602E-06   -0.52288E-05  5217   0.803E-03    0.924E-03
RMM:   9    -0.413164322061E+03   -0.24478E-05   -0.11024E-05  3549   0.352E-03    0.650E-03
RMM:  10    -0.413164327599E+03   -0.55374E-05   -0.23310E-06  2596   0.227E-03    0.380E-03
RMM:  11    -0.413164331624E+03   -0.40253E-05   -0.12494E-06  2513   0.165E-03    0.205E-03
RMM:  12    -0.413164338027E+03   -0.64035E-05   -0.15437E-06  2543   0.174E-03    0.957E-04
RMM:  13    -0.413164340946E+03   -0.29189E-05   -0.71207E-07  2385   0.124E-03    0.696E-04
RMM:  14    -0.413164341137E+03   -0.19052E-06   -0.35889E-07  1873   0.847E-04
    2 T=    61. E= -.41286666E+03 F= -.41316434E+03 E0= -.41314184E+03  EK= 0.29768E+00 SP= 0.00E+00 SK= 0.00E+00
       N       E                     dE             d eps       ncg     rms          rms(c)
RMM:   1    -0.413170705171E+03   -0.63642E-02   -0.72599E+00  4190   0.544E-01    0.910E-01
RMM:   2    -0.413170783982E+03   -0.78811E-04   -0.91572E-02  4089   0.841E-02    0.657E-01
RMM:   3    -0.413166406794E+03    0.43772E-02   -0.31931E-02  4977   0.652E-02    0.184E-01
RMM:   4    -0.413193871460E+03   -0.27465E-01   -0.32545E-02  5146   0.152E-01    0.705E-01
RMM:   5    -0.413164733315E+03    0.29138E-01   -0.13480E-02  4801   0.118E-01    0.502E-02
RMM:   6    -0.413164931416E+03   -0.19810E-03   -0.25087E-03  5727   0.490E-02    0.365E-02
RMM:   7    -0.413164922830E+03    0.85863E-05   -0.44846E-04  5622   0.200E-02    0.232E-02
RMM:   8    -0.413164913617E+03    0.92130E-05   -0.57953E-05  5227   0.875E-03    0.103E-02
RMM:   9    -0.413164912051E+03    0.15661E-05   -0.11822E-05  3755   0.382E-03    0.713E-03
RMM:  10    -0.413164912351E+03   -0.30051E-06   -0.21910E-06  2590   0.235E-03
    3 T=    61. E= -.41286711E+03 F= -.41316491E+03 E0= -.41314242E+03  EK= 0.29780E+00 SP= 0.00E+00 SK= 0.00E+00
       N       E                     dE             d eps       ncg     rms          rms(c)
RMM:   1    -0.413170199463E+03   -0.52874E-02   -0.72093E+00  4221   0.549E-01    0.896E-01
RMM:   2    -0.413170272543E+03   -0.73079E-04   -0.91099E-02  4252   0.837E-02    0.651E-01
RMM:   3    -0.413173881465E+03   -0.36089E-02   -0.37097E-02  5171   0.101E-01    0.411E-01
RMM:   4    -0.413181233483E+03   -0.73520E-02   -0.34071E-02  5079   0.161E-01    0.538E-01
RMM:   5    -0.413164704549E+03    0.16529E-01   -0.62441E-03  4613   0.897E-02    0.539E-02
RMM:   6    -0.413164702387E+03    0.21619E-05   -0.12539E-03  5333   0.356E-02    0.315E-02
RMM:   7    -0.413164714950E+03   -0.12562E-04   -0.25936E-04  5779   0.153E-02    0.182E-02
RMM:   8    -0.413164710239E+03    0.47109E-05   -0.41617E-05  5024   0.773E-03    0.696E-03
RMM:   9    -0.413164709293E+03    0.94573E-06   -0.47834E-06  2922   0.291E-03
    4 T=    61. E= -.41286694E+03 F= -.41316471E+03 E0= -.41314222E+03  EK= 0.29777E+00 SP= 0.00E+00 SK= 0.00E+00
       N       E                     dE             d eps       ncg     rms          rms(c)
RMM:   1    -0.413170249703E+03   -0.55395E-02   -0.72885E+00  4238   0.558E-01    0.892E-01
RMM:   2    -0.413170614449E+03   -0.36475E-03   -0.91851E-02  4131   0.788E-02    0.658E-01
RMM:   3    -0.413170170984E+03    0.44347E-03   -0.36897E-02  5140   0.835E-02    0.327E-01
RMM:   4    -0.413188881792E+03   -0.18711E-01   -0.36688E-02  5108   0.164E-01    0.648E-01
RMM:   5    -0.413164731076E+03    0.24151E-01   -0.10188E-02  4702   0.107E-01    0.533E-02
RMM:   6    -0.413164825670E+03   -0.94594E-04   -0.18935E-03  5595   0.433E-02    0.319E-02
RMM:   7    -0.413164847858E+03   -0.22188E-04   -0.34575E-04  5814   0.166E-02    0.198E-02
RMM:   8    -0.413164849255E+03   -0.13969E-05   -0.47477E-05  5111   0.785E-03    0.770E-03
RMM:   9    -0.413164850902E+03   -0.16476E-05   -0.67778E-06  3166   0.317E-03    0.448E-03
RMM:  10    -0.413164855567E+03   -0.46645E-05   -0.17464E-06  2552   0.210E-03    0.277E-03
RMM:  11    -0.413164859272E+03   -0.37047E-05   -0.97451E-07  2507   0.156E-03    0.139E-03
RMM:  12    -0.413164863988E+03   -0.47162E-05   -0.98545E-07  2504   0.143E-03    0.665E-04
RMM:  13    -0.413164866447E+03   -0.24593E-05   -0.52854E-07  2178   0.107E-03    0.386E-04
RMM:  14    -0.413164867047E+03   -0.59955E-06   -0.24135E-07  1639   0.797E-04
    5 T=    61. E= -.41286692E+03 F= -.41316487E+03 E0= -.41314239E+03  EK= 0.29795E+00 SP= 0.00E+00 SK= 0.00E+00
       N       E                     dE             d eps       ncg     rms          rms(c)
RMM:   1    -0.413171011563E+03   -0.61451E-02   -0.72750E+00  4246   0.556E-01    0.907E-01
RMM:   2    -0.413170934135E+03    0.77428E-04   -0.91741E-02  4072   0.780E-02    0.658E-01
RMM:   3    -0.413167339390E+03    0.35947E-02   -0.32716E-02  5066   0.642E-02    0.210E-01
RMM:   4    -0.413195536120E+03   -0.28197E-01   -0.35540E-02  5130   0.159E-01    0.720E-01
RMM:   5    -0.413165133230E+03    0.30403E-01   -0.13827E-02  4769   0.120E-01    0.519E-02
RMM:   6    -0.413165323985E+03   -0.19075E-03   -0.25210E-03  5682   0.496E-02    0.358E-02
RMM:   7    -0.413165326481E+03   -0.24958E-05   -0.44537E-04  5659   0.195E-02    0.229E-02
RMM:   8    -0.413165318305E+03    0.81755E-05   -0.59036E-05  5248   0.878E-03    0.985E-03
RMM:   9    -0.413165316724E+03    0.15807E-05   -0.11002E-05  3687   0.377E-03    0.650E-03
RMM:  10    -0.413165317427E+03   -0.70290E-06   -0.20949E-06  2575   0.231E-03
    6 T=    61. E= -.41286704E+03 F= -.41316532E+03 E0= -.41314285E+03  EK= 0.29828E+00 SP= 0.00E+00 SK= 0.00E+00
       N       E                     dE             d eps       ncg     rms          rms(c)
RMM:   1    -0.413170598527E+03   -0.52818E-02   -0.72340E+00  4256   0.560E-01    0.902E-01
RMM:   2    -0.413170765087E+03   -0.16656E-03   -0.91366E-02  4237   0.781E-02    0.653E-01
RMM:   3    -0.413172284142E+03   -0.15191E-02   -0.35392E-02  5140   0.936E-02    0.366E-01
RMM:   4    -0.413184388642E+03   -0.12104E-01   -0.34689E-02  5081   0.161E-01    0.580E-01
RMM:   5    -0.413165017593E+03    0.19371E-01   -0.75325E-03  4657   0.963E-02    0.539E-02
RMM:   6    -0.413165048345E+03   -0.30753E-04   -0.14868E-03  5428   0.387E-02    0.324E-02
RMM:   7    -0.413165066161E+03   -0.17816E-04   -0.29145E-04  5768   0.165E-02    0.193E-02
RMM:   8    -0.413165062103E+03    0.40579E-05   -0.45679E-05  5044   0.811E-03    0.747E-03
RMM:   9    -0.413165060215E+03    0.18884E-05   -0.58701E-06  3033   0.311E-03    0.398E-03
RMM:  10    -0.413165060110E+03    0.10516E-06   -0.15253E-06  2530   0.201E-03
    7 T=    61. E= -.41286667E+03 F= -.41316506E+03 E0= -.41314261E+03  EK= 0.29839E+00 SP= 0.00E+00 SK= 0.00E+00
       N       E                     dE             d eps       ncg     rms          rms(c)
RMM:   1    -0.413170851730E+03   -0.57915E-02   -0.72835E+00  4271   0.567E-01    0.891E-01
RMM:   2    -0.413171729370E+03   -0.87764E-03   -0.91505E-02  4126   0.787E-02    0.656E-01
RMM:   3    -0.413168224203E+03    0.35052E-02   -0.34715E-02  5034   0.720E-02    0.242E-01
RMM:   4    -0.413195206409E+03   -0.26982E-01   -0.35999E-02  5119   0.161E-01    0.714E-01
RMM:   5    -0.413165486563E+03    0.29720E-01   -0.13493E-02  4766   0.119E-01    0.513E-02
RMM:   6    -0.413165668221E+03   -0.18166E-03   -0.24499E-03  5700   0.488E-02    0.345E-02
RMM:   7    -0.413165669042E+03   -0.82102E-06   -0.42918E-04  5671   0.194E-02    0.223E-02
RMM:   8    -0.413165663363E+03    0.56784E-05   -0.57335E-05  5200   0.861E-03    0.950E-03
RMM:   9    -0.413165663351E+03    0.12893E-07   -0.10580E-05  3606   0.369E-03    0.622E-03
RMM:  10    -0.413165666395E+03   -0.30445E-05   -0.19950E-06  2561   0.227E-03    0.370E-03
RMM:  11    -0.413165668509E+03   -0.21142E-05   -0.10280E-06  2515   0.162E-03    0.200E-03
RMM:  12    -0.413165671882E+03   -0.33727E-05   -0.14220E-06  2538   0.174E-03    0.952E-04
RMM:  13    -0.413165673446E+03   -0.15645E-05   -0.68907E-07  2382   0.127E-03    0.756E-04
RMM:  14    -0.413165673239E+03    0.20720E-06   -0.24527E-07  1865   0.842E-04
    8 T=    61. E= -.41286695E+03 F= -.41316567E+03 E0= -.41314324E+03  EK= 0.29872E+00 SP= 0.00E+00 SK= 0.00E+00
       N       E                     dE             d eps       ncg     rms          rms(c)
RMM:   1    -0.413172721822E+03   -0.70484E-02   -0.73144E+00  4281   0.591E-01    0.904E-01
RMM:   2    -0.413171867583E+03    0.85424E-03   -0.93133E-02  4174   0.834E-02    0.660E-01
RMM:   3    -0.413167557353E+03    0.43102E-02   -0.32893E-02  4985   0.661E-02    0.199E-01
RMM:   4    -0.413195601700E+03   -0.28044E-01   -0.33785E-02  5126   0.155E-01    0.715E-01
RMM:   5    -0.413165672163E+03    0.29930E-01   -0.13915E-02  4783   0.119E-01    0.500E-02
RMM:   6    -0.413165865477E+03   -0.19331E-03   -0.24984E-03  5717   0.491E-02    0.358E-02
RMM:   7    -0.413165856287E+03    0.91903E-05   -0.43911E-04  5627   0.198E-02    0.228E-02
RMM:   8    -0.413165849700E+03    0.65866E-05   -0.57971E-05  5170   0.869E-03    0.101E-02
RMM:   9    -0.413165847963E+03    0.17375E-05   -0.11362E-05  3711   0.382E-03    0.691E-03
RMM:  10    -0.413165848758E+03   -0.79506E-06   -0.20613E-06  2569   0.231E-03
    9 T=    61. E= -.41286699E+03 F= -.41316585E+03 E0= -.41314344E+03  EK= 0.29886E+00 SP= 0.00E+00 SK= 0.00E+00
       N       E                     dE             d eps       ncg     rms          rms(c)
RMM:   1    -0.413171638136E+03   -0.57902E-02   -0.72659E+00  4287   0.574E-01    0.908E-01
RMM:   2    -0.413171668819E+03   -0.30684E-04   -0.91872E-02  4301   0.832E-02    0.655E-01
RMM:   3    -0.413174264520E+03   -0.25957E-02   -0.36058E-02  5128   0.997E-02    0.391E-01
RMM:   4    -0.413183590299E+03   -0.93258E-02   -0.34391E-02  5063   0.161E-01    0.554E-01
RMM:   5    -0.413165913465E+03    0.17677E-01   -0.66248E-03  4628   0.915E-02    0.539E-02
RMM:   6    -0.413165928006E+03   -0.14541E-04   -0.13729E-03  5382   0.367E-02    0.324E-02
RMM:   7    -0.413165941442E+03   -0.13436E-04   -0.27213E-04  5744   0.155E-02    0.188E-02
RMM:   8    -0.413165935691E+03    0.57511E-05   -0.43080E-05  5023   0.788E-03    0.718E-03
RMM:   9    -0.413165932599E+03    0.30920E-05   -0.51900E-06  2947   0.299E-03    0.377E-03
RMM:  10    -0.413165931066E+03    0.15331E-05   -0.14604E-06  2522   0.197E-03    0.228E-03
RMM:  11    -0.413165929342E+03    0.17240E-05   -0.93398E-07  2467   0.153E-03    0.113E-03
RMM:  12    -0.413165927189E+03    0.21532E-05   -0.71659E-07  2451   0.128E-03    0.515E-04
RMM:  13    -0.413165925855E+03    0.13331E-05   -0.34980E-07  1952   0.944E-04    0.328E-04
RMM:  14    -0.413165924403E+03    0.14526E-05   -0.21897E-07  1507   0.774E-04    0.200E-04
RMM:  15    -0.413165921635E+03    0.27678E-05   -0.30622E-07  1836   0.816E-04    0.283E-04
RMM:  16    -0.413165918630E+03    0.30047E-05   -0.25261E-07  1417   0.716E-04    0.168E-04
RMM:  17    -0.413165917469E+03    0.11618E-05   -0.10554E-07  1062   0.596E-04    0.832E-05
RMM:  18    -0.413165915984E+03    0.14849E-05   -0.87468E-08  1094   0.595E-04    0.616E-05
RMM:  19    -0.413165915525E+03    0.45908E-06   -0.38706E-08   809   0.532E-04
   10 T=    61. E= -.41286695E+03 F= -.41316592E+03 E0= -.41314353E+03  EK= 0.29896E+00 SP= 0.00E+00 SK= 0.00E+00
       N       E                     dE             d eps       ncg     rms          rms(c)
RMM:   1    -0.413171939292E+03   -0.60233E-02   -0.72765E+00  4292   0.580E-01    0.891E-01
RMM:   2    -0.413172543540E+03   -0.60425E-03   -0.91696E-02  4223   0.835E-02    0.654E-01
RMM:   3    -0.413168859546E+03    0.36840E-02   -0.33705E-02  5025   0.669E-02    0.222E-01
RMM:   4    -0.413196508903E+03   -0.27649E-01   -0.35342E-02  5118   0.158E-01    0.716E-01
RMM:   5    -0.413166505059E+03    0.30004E-01   -0.13859E-02  4770   0.119E-01    0.506E-02
RMM:   6    -0.413166696328E+03   -0.19127E-03   -0.24560E-03  5692   0.487E-02    0.352E-02
RMM:   7    -0.413166694552E+03    0.17758E-05   -0.43289E-04  5598   0.195E-02    0.224E-02
RMM:   8    -0.413166691362E+03    0.31901E-05   -0.57871E-05  5190   0.865E-03    0.967E-03
RMM:   9    -0.413166690732E+03    0.62968E-06   -0.11112E-05  3699   0.377E-03    0.647E-03
RMM:  10    -0.413166692841E+03   -0.21091E-05   -0.19808E-06  2557   0.226E-03    0.386E-03
RMM:  11    -0.413166694152E+03   -0.13106E-05   -0.94878E-07  2494   0.159E-03    0.213E-03
RMM:  12    -0.413166696237E+03   -0.20858E-05   -0.13347E-06  2524   0.173E-03    0.102E-03
RMM:  13    -0.413166697007E+03   -0.76911E-06   -0.58802E-07  2372   0.126E-03
   11 T=    61. E= -.41286730E+03 F= -.41316670E+03 E0= -.41314434E+03  EK= 0.29940E+00 SP= 0.00E+00 SK= 0.00E+00
       N       E                     dE             d eps       ncg     rms          rms(c)
RMM:   1    -0.413172127130E+03   -0.54309E-02   -0.73377E+00  4294   0.586E-01    0.901E-01
RMM:   2    -0.413172489015E+03   -0.36189E-03   -0.92314E-02  4225   0.835E-02    0.661E-01
RMM:   3    -0.413168426184E+03    0.40628E-02   -0.33801E-02  4966   0.654E-02    0.207E-01
RMM:   4    -0.413195777846E+03   -0.27352E-01   -0.33396E-02  5115   0.153E-01    0.708E-01
RMM:   5    -0.413166457326E+03    0.29321E-01   -0.13672E-02  4766   0.118E-01    0.495E-02
RMM:   6    -0.413166656170E+03   -0.19884E-03   -0.24826E-03  5747   0.484E-02    0.349E-02
RMM:   7    -0.413166650406E+03    0.57640E-05   -0.42690E-04  5623   0.197E-02    0.226E-02
RMM:   8    -0.413166644129E+03    0.62769E-05   -0.58531E-05  5081   0.875E-03    0.103E-02
RMM:   9    -0.413166643046E+03    0.10830E-05   -0.11443E-05  3679   0.386E-03    0.707E-03
RMM:  10    -0.413166644455E+03   -0.14083E-05   -0.20568E-06  2566   0.231E-03    0.413E-03
RMM:  11    -0.413166645482E+03   -0.10276E-05   -0.11632E-06  2502   0.174E-03    0.219E-03
RMM:  12    -0.413166646896E+03   -0.14134E-05   -0.15257E-06  2541   0.185E-03    0.106E-03
RMM:  13    -0.413166647030E+03   -0.13475E-06   -0.55402E-07  2365   0.127E-03
   12 T=    61. E= -.41286692E+03 F= -.41316665E+03 E0= -.41314432E+03  EK= 0.29972E+00 SP= 0.00E+00 SK= 0.00E+00
       N       E                     dE             d eps       ncg     rms          rms(c)
RMM:   1    -0.413173042312E+03   -0.63954E-02   -0.73127E+00  4294   0.589E-01    0.912E-01
RMM:   2    -0.413172689783E+03    0.35253E-03   -0.92426E-02  4228   0.815E-02    0.657E-01
RMM:   3    -0.413168812600E+03    0.38772E-02   -0.31248E-02  5020   0.602E-02    0.183E-01
RMM:   4    -0.413197322723E+03   -0.28510E-01   -0.34067E-02  5122   0.155E-01    0.718E-01
RMM:   5    -0.413167087021E+03    0.30236E-01   -0.14026E-02  4779   0.119E-01    0.506E-02
RMM:   6    -0.413167291332E+03   -0.20431E-03   -0.25671E-03  5737   0.495E-02    0.365E-02
RMM:   7    -0.413167278736E+03    0.12597E-04   -0.44650E-04  5617   0.203E-02    0.235E-02
RMM:   8    -0.413167267015E+03    0.11721E-04   -0.61260E-05  5166   0.899E-03    0.108E-02
RMM:   9    -0.413167262152E+03    0.48633E-05   -0.11864E-05  3761   0.395E-03    0.736E-03
RMM:  10    -0.413167259047E+03    0.31042E-05   -0.22057E-06  2575   0.239E-03    0.425E-03
RMM:  11    -0.413167256948E+03    0.20989E-05   -0.11408E-06  2509   0.173E-03    0.237E-03
RMM:  12    -0.413167252996E+03    0.39525E-05   -0.16662E-06  2558   0.193E-03    0.113E-03
RMM:  13    -0.413167250336E+03    0.26602E-05   -0.66042E-07  2406   0.136E-03    0.883E-04
RMM:  14    -0.413167250169E+03    0.16725E-06   -0.25631E-07  1954   0.884E-04
   13 T=    61. E= -.41286696E+03 F= -.41316725E+03 E0= -.41314495E+03  EK= 0.30029E+00 SP= 0.00E+00 SK= 0.00E+00
       N       E                     dE             d eps       ncg     rms          rms(c)
RMM:   1    -0.413173131565E+03   -0.58812E-02   -0.72954E+00  4298   0.592E-01    0.893E-01
RMM:   2    -0.413173525536E+03   -0.39397E-03   -0.91891E-02  4237   0.768E-02    0.654E-01
RMM:   3    -0.413169642902E+03    0.38826E-02   -0.32607E-02  5013   0.620E-02    0.202E-01
RMM:   4    -0.413197468371E+03   -0.27825E-01   -0.34028E-02  5116   0.155E-01    0.713E-01
RMM:   5    -0.413167694969E+03    0.29773E-01   -0.13803E-02  4769   0.119E-01    0.500E-02
RMM:   6    -0.413167892541E+03   -0.19757E-03   -0.24971E-03  5724   0.488E-02    0.354E-02
RMM:   7    -0.413167884435E+03    0.81061E-05   -0.43301E-04  5597   0.200E-02    0.228E-02
RMM:   8    -0.413167876465E+03    0.79705E-05   -0.59070E-05  5133   0.889E-03    0.103E-02
RMM:   9    -0.413167873691E+03    0.27740E-05   -0.11813E-05  3722   0.391E-03    0.700E-03
RMM:  10    -0.413167873245E+03    0.44605E-06   -0.20883E-06  2569   0.234E-03
   14 T=    61. E= -.41286701E+03 F= -.41316787E+03 E0= -.41314560E+03  EK= 0.30086E+00 SP= 0.00E+00 SK= 0.00E+00
       N       E                     dE             d eps       ncg     rms          rms(c)
RMM:   1    -0.413173239801E+03   -0.53661E-02   -0.73886E+00  4301   0.600E-01    0.900E-01
RMM:   2    -0.413173903536E+03   -0.66373E-03   -0.92787E-02  4319   0.792E-02    0.662E-01
RMM:   3    -0.413177742126E+03   -0.38386E-02   -0.39639E-02  5127   0.105E-01    0.428E-01
RMM:   4    -0.413184973296E+03   -0.72312E-02   -0.35336E-02  5051   0.163E-01    0.549E-01
RMM:   5    -0.413167910465E+03    0.17063E-01   -0.66420E-03  4590   0.919E-02    0.526E-02
RMM:   6    -0.413167927691E+03   -0.17227E-04   -0.13176E-03  5363   0.354E-02    0.311E-02
RMM:   7    -0.413167943249E+03   -0.15558E-04   -0.25742E-04  5661   0.154E-02    0.178E-02
RMM:   8    -0.413167941020E+03    0.22289E-05   -0.40458E-05  4985   0.750E-03    0.666E-03
RMM:   9    -0.413167940237E+03    0.78310E-06   -0.44958E-06  2862   0.284E-03
   15 T=    61. E= -.41286672E+03 F= -.41316794E+03 E0= -.41314571E+03  EK= 0.30122E+00 SP= 0.00E+00 SK= 0.00E+00
       N       E                     dE             d eps       ncg     rms          rms(c)
RMM:   1    -0.413174664309E+03   -0.67233E-02   -0.73667E+00  4297   0.601E-01    0.914E-01
RMM:   2    -0.413174829674E+03   -0.16537E-03   -0.92940E-02  4263   0.836E-02    0.660E-01
RMM:   3    -0.413174010120E+03    0.81955E-03   -0.33678E-02  5082   0.857E-02    0.308E-01
RMM:   4    -0.413193494750E+03   -0.19485E-01   -0.36987E-02  5078   0.164E-01    0.650E-01
RMM:   5    -0.413168873836E+03    0.24621E-01   -0.10026E-02  4688   0.107E-01    0.540E-02
RMM:   6    -0.413168985066E+03   -0.11123E-03   -0.20029E-03  5602   0.437E-02    0.341E-02
RMM:   7    -0.413168987832E+03   -0.27664E-05   -0.36032E-04  5726   0.175E-02    0.210E-02
RMM:   8    -0.413168979883E+03    0.79491E-05   -0.50009E-05  5104   0.828E-03    0.835E-03
RMM:   9    -0.413168975261E+03    0.46217E-05   -0.76931E-06  3240   0.336E-03    0.483E-03
RMM:  10    -0.413168972188E+03    0.30728E-05   -0.18306E-06  2542   0.221E-03    0.293E-03
RMM:  11    -0.413168969395E+03    0.27937E-05   -0.95809E-07  2485   0.161E-03    0.149E-03
RMM:  12    -0.413168965002E+03    0.43923E-05   -0.94293E-07  2484   0.149E-03    0.701E-04
RMM:  13    -0.413168961768E+03    0.32344E-05   -0.47966E-07  2241   0.111E-03    0.433E-04
RMM:  14    -0.413168960633E+03    0.11347E-05   -0.21888E-07  1683   0.797E-04    0.293E-04
RMM:  15    -0.413168956414E+03    0.42194E-05   -0.25199E-07  1742   0.815E-04    0.313E-04
RMM:  16    -0.413168952008E+03    0.44057E-05   -0.22229E-07  1484   0.724E-04    0.353E-04
RMM:  17    -0.413168950675E+03    0.13336E-05   -0.76651E-08   943   0.567E-04    0.243E-04
RMM:  18    -0.413168948272E+03    0.24026E-05   -0.84140E-08  1074   0.596E-04    0.101E-04
RMM:  19    -0.413168946873E+03    0.13990E-05   -0.58346E-08  1058   0.588E-04    0.711E-05
RMM:  20    -0.413168946422E+03    0.45141E-06   -0.21919E-08   751   0.538E-04
   16 T=    61. E= -.41286709E+03 F= -.41316895E+03 E0= -.41314675E+03  EK= 0.30185E+00 SP= 0.00E+00 SK= 0.00E+00
       N       E                     dE             d eps       ncg     rms          rms(c)
RMM:   1    -0.413174699321E+03   -0.57524E-02   -0.73338E+00  4294   0.605E-01    0.898E-01
RMM:   2    -0.413175381247E+03   -0.68193E-03   -0.92607E-02  4257   0.848E-02    0.654E-01
RMM:   3    -0.413171598278E+03    0.37830E-02   -0.32166E-02  4989   0.710E-02    0.216E-01
RMM:   4    -0.413200179922E+03   -0.28582E-01   -0.36581E-02  5103   0.161E-01    0.726E-01
RMM:   5    -0.413169256084E+03    0.30924E-01   -0.14148E-02  4763   0.120E-01    0.515E-02
RMM:   6    -0.413169447083E+03   -0.19100E-03   -0.25588E-03  5699   0.494E-02    0.363E-02
RMM:   7    -0.413169440862E+03    0.62216E-05   -0.44401E-04  5585   0.198E-02    0.230E-02
RMM:   8    -0.413169432166E+03    0.86958E-05   -0.60396E-05  5207   0.892E-03    0.100E-02
RMM:   9    -0.413169428925E+03    0.32413E-05   -0.11598E-05  3757   0.390E-03    0.664E-03
RMM:  10    -0.413169427641E+03    0.12835E-05   -0.20804E-06  2563   0.233E-03    0.397E-03
RMM:  11    -0.413169426790E+03    0.85135E-06   -0.96088E-07  2490   0.162E-03
   17 T=    62. E= -.41286707E+03 F= -.41316943E+03 E0= -.41314727E+03  EK= 0.30236E+00 SP= 0.00E+00 SK= 0.00E+00
       N       E                     dE             d eps       ncg     rms          rms(c)
RMM:   1    -0.413177276569E+03   -0.78489E-02   -0.74559E+00  4298   0.628E-01    0.899E-01
RMM:   2    -0.413176009913E+03    0.12667E-02   -0.93630E-02  4270   0.877E-02    0.663E-01
RMM:   3    -0.413171719755E+03    0.42902E-02   -0.34235E-02  4956   0.661E-02    0.208E-01
RMM:   4    -0.413198804287E+03   -0.27085E-01   -0.32686E-02  5109   0.152E-01    0.704E-01
RMM:   5    -0.413169806654E+03    0.28998E-01   -0.13654E-02  4775   0.117E-01    0.491E-02
RMM:   6    -0.413170005808E+03   -0.19915E-03   -0.24586E-03  5744   0.479E-02    0.346E-02
RMM:   7    -0.413169999707E+03    0.61004E-05   -0.42099E-04  5624   0.197E-02    0.224E-02
RMM:   8    -0.413169990611E+03    0.90968E-05   -0.56358E-05  5053   0.865E-03    0.101E-02
RMM:   9    -0.413169988597E+03    0.20140E-05   -0.11432E-05  3669   0.388E-03    0.703E-03
RMM:  10    -0.413169989121E+03   -0.52435E-06   -0.20309E-06  2564   0.233E-03
   18 T=    62. E= -.41286702E+03 F= -.41316999E+03 E0= -.41314787E+03  EK= 0.30297E+00 SP= 0.00E+00 SK= 0.00E+00
       N       E                     dE             d eps       ncg     rms          rms(c)
RMM:   1    -0.413176748370E+03   -0.67598E-02   -0.74300E+00  4301   0.614E-01    0.915E-01
RMM:   2    -0.413176712535E+03    0.35835E-04   -0.93946E-02  4321   0.831E-02    0.662E-01
RMM:   3    -0.413179511124E+03   -0.27986E-02   -0.36226E-02  5133   0.970E-02    0.392E-01
RMM:   4    -0.413189714816E+03   -0.10204E-01   -0.35868E-02  5056   0.163E-01    0.568E-01
RMM:   5    -0.413171133759E+03    0.18581E-01   -0.70304E-03  4628   0.935E-02    0.538E-02
RMM:   6    -0.413171153521E+03   -0.19762E-04   -0.14582E-03  5402   0.370E-02    0.326E-02
RMM:   7    -0.413171158076E+03   -0.45543E-05   -0.28210E-04  5712   0.158E-02    0.190E-02
RMM:   8    -0.413171150877E+03    0.71985E-05   -0.43972E-05  5013   0.786E-03    0.728E-03
RMM:   9    -0.413171146631E+03    0.42457E-05   -0.53181E-06  2951   0.302E-03    0.389E-03
RMM:  10    -0.413171143780E+03    0.28510E-05   -0.14731E-06  2510   0.200E-03    0.234E-03
RMM:  11    -0.413171140790E+03    0.29906E-05   -0.86355E-07  2460   0.151E-03    0.117E-03
RMM:  12    -0.413171136777E+03    0.40123E-05   -0.68075E-07  2437   0.128E-03    0.535E-04
RMM:  13    -0.413171134252E+03    0.25250E-05   -0.32596E-07  1962   0.943E-04    0.330E-04
RMM:  14    -0.413171132146E+03    0.21061E-05   -0.18400E-07  1475   0.746E-04    0.206E-04
RMM:  15    -0.413171127529E+03    0.46174E-05   -0.20811E-07  1601   0.759E-04    0.254E-04
RMM:  16    -0.413171123487E+03    0.40419E-05   -0.14750E-07  1190   0.654E-04    0.184E-04
RMM:  17    -0.413171121461E+03    0.20263E-05   -0.78780E-08  1021   0.592E-04    0.921E-05
RMM:  18    -0.413171118907E+03    0.25537E-05   -0.69956E-08  1050   0.594E-04    0.388E-05
RMM:  19    -0.413171117947E+03    0.96000E-06   -0.33130E-08   820   0.553E-04
   19 T=    62. E= -.41286725E+03 F= -.41317112E+03 E0= -.41314904E+03  EK= 0.30387E+00 SP= 0.00E+00 SK= 0.00E+00
       N       E                     dE             d eps       ncg     rms          rms(c)
RMM:   1    -0.413176881595E+03   -0.57627E-02   -0.74031E+00  4294   0.622E-01    0.905E-01
RMM:   2    -0.413176956129E+03   -0.74534E-04   -0.93702E-02  4261   0.791E-02    0.657E-01
RMM:   3    -0.413173613913E+03    0.33422E-02   -0.31387E-02  5044   0.646E-02    0.208E-01
RMM:   4    -0.413202981156E+03   -0.29367E-01   -0.37379E-02  5111   0.162E-01    0.733E-01
RMM:   5    -0.413171372658E+03    0.31608E-01   -0.14501E-02  4765   0.122E-01    0.520E-02
RMM:   6    -0.413171561162E+03   -0.18850E-03   -0.26360E-03  5704   0.499E-02    0.367E-02
RMM:   7    -0.413171554625E+03    0.65372E-05   -0.45278E-04  5596   0.203E-02    0.235E-02
RMM:   8    -0.413171546905E+03    0.77199E-05   -0.64865E-05  5185   0.924E-03    0.105E-02
RMM:   9    -0.413171542095E+03    0.48099E-05   -0.12312E-05  3809   0.403E-03    0.685E-03
RMM:  10    -0.413171539317E+03    0.27778E-05   -0.22197E-06  2579   0.238E-03    0.404E-03
RMM:  11    -0.413171537488E+03    0.18293E-05   -0.10057E-06  2497   0.164E-03    0.231E-03
RMM:  12    -0.413171533755E+03    0.37333E-05   -0.14775E-06  2533   0.186E-03    0.110E-03
RMM:  13    -0.413171530850E+03    0.29051E-05   -0.64450E-07  2394   0.134E-03    0.894E-04
RMM:  14    -0.413171530699E+03    0.15107E-06   -0.26016E-07  1949   0.890E-04
   20 T=    62. E= -.41286692E+03 F= -.41317153E+03 E0= -.41314950E+03  EK= 0.30461E+00 SP= 0.00E+00 SK= 0.00E+00
       N       E                     dE             d eps       ncg     rms          rms(c)
RMM:   1    -0.413178495006E+03   -0.69642E-02   -0.75000E+00  4298   0.636E-01    0.898E-01
RMM:   2    -0.413178518903E+03   -0.23897E-04   -0.95104E-02  4262   0.813E-02    0.663E-01
RMM:   3    -0.413174274317E+03    0.42446E-02   -0.33489E-02  5000   0.621E-02    0.202E-01
RMM:   4    -0.413201960916E+03   -0.27687E-01   -0.33224E-02  5115   0.153E-01    0.710E-01
RMM:   5    -0.413172438726E+03    0.29522E-01   -0.13879E-02  4778   0.119E-01    0.493E-02
RMM:   6    -0.413172628996E+03   -0.19027E-03   -0.25172E-03  5754   0.481E-02    0.346E-02
RMM:   7    -0.413172625500E+03    0.34964E-05   -0.41164E-04  5600   0.198E-02    0.224E-02
RMM:   8    -0.413172618737E+03    0.67622E-05   -0.61878E-05  5038   0.913E-03    0.106E-02
RMM:   9    -0.413172616115E+03    0.26219E-05   -0.12259E-05  3761   0.411E-03    0.727E-03
RMM:  10    -0.413172616444E+03   -0.32816E-06   -0.21599E-06  2583   0.240E-03
   21 T=    62. E= -.41286700E+03 F= -.41317262E+03 E0= -.41315063E+03  EK= 0.30562E+00 SP= 0.00E+00 SK= 0.00E+00
       N       E                     dE             d eps       ncg     rms          rms(c)
RMM:   1    -0.413179063560E+03   -0.64474E-02   -0.75168E+00  4296   0.627E-01    0.914E-01
RMM:   2    -0.413179604565E+03   -0.54101E-03   -0.94571E-02  4347   0.867E-02    0.665E-01
RMM:   3    -0.413182013465E+03   -0.24089E-02   -0.36378E-02  5116   0.992E-02    0.390E-01
RMM:   4    -0.413193010294E+03   -0.10997E-01   -0.36353E-02  5056   0.164E-01    0.578E-01
RMM:   5    -0.413173726604E+03    0.19284E-01   -0.73321E-03  4627   0.961E-02    0.533E-02
RMM:   6    -0.413173767897E+03   -0.41294E-04   -0.15233E-03  5440   0.377E-02    0.324E-02
RMM:   7    -0.413173774242E+03   -0.63441E-05   -0.28720E-04  5649   0.165E-02    0.191E-02
RMM:   8    -0.413173768847E+03    0.53943E-05   -0.44942E-05  4976   0.832E-03    0.725E-03
RMM:   9    -0.413173765134E+03    0.37135E-05   -0.61390E-06  3006   0.319E-03    0.394E-03
RMM:  10    -0.413173762727E+03    0.24065E-05   -0.15037E-06  2518   0.202E-03    0.238E-03
RMM:  11    -0.413173760149E+03    0.25784E-05   -0.85641E-07  2460   0.151E-03    0.119E-03
RMM:  12    -0.413173756475E+03    0.36742E-05   -0.68631E-07  2432   0.129E-03    0.536E-04
RMM:  13    -0.413173753952E+03    0.25225E-05   -0.33408E-07  1974   0.949E-04    0.323E-04
RMM:  14    -0.413173752097E+03    0.18552E-05   -0.18233E-07  1475   0.741E-04    0.205E-04
RMM:  15    -0.413173747469E+03    0.46281E-05   -0.20210E-07  1549   0.753E-04    0.251E-04
RMM:  16    -0.413173743801E+03    0.36684E-05   -0.12472E-07  1136   0.647E-04    0.198E-04
RMM:  17    -0.413173741765E+03    0.20356E-05   -0.74485E-08   998   0.594E-04    0.105E-04
RMM:  18    -0.413173739167E+03    0.25982E-05   -0.66272E-08  1044   0.597E-04    0.390E-05
RMM:  19    -0.413173737835E+03    0.13322E-05   -0.36317E-08   863   0.561E-04    0.329E-05
RMM:  20    -0.413173737421E+03    0.41344E-06   -0.18654E-08   721   0.539E-04
   22 T=    62. E= -.41286709E+03 F= -.41317374E+03 E0= -.41315179E+03  EK= 0.30665E+00 SP= 0.00E+00 SK= 0.00E+00
       N       E                     dE             d eps       ncg     rms          rms(c)
RMM:   1    -0.413179968507E+03   -0.62307E-02   -0.75018E+00  4295   0.638E-01    0.914E-01
RMM:   2    -0.413180251558E+03   -0.28305E-03   -0.94947E-02  4284   0.856E-02    0.661E-01
RMM:   3    -0.413176195892E+03    0.40557E-02   -0.30742E-02  4975   0.657E-02    0.190E-01
RMM:   4    -0.413206306078E+03   -0.30110E-01   -0.36529E-02  5112   0.160E-01    0.737E-01
RMM:   5    -0.413174292828E+03    0.32013E-01   -0.14885E-02  4777   0.122E-01    0.517E-02
RMM:   6    -0.413174492052E+03   -0.19922E-03   -0.27081E-03  5732   0.505E-02    0.372E-02
RMM:   7    -0.413174487090E+03    0.49628E-05   -0.46047E-04  5580   0.206E-02    0.238E-02
RMM:   8    -0.413174479162E+03    0.79275E-05   -0.65887E-05  5182   0.935E-03    0.109E-02
RMM:   9    -0.413174473887E+03    0.52748E-05   -0.12881E-05  3854   0.414E-03    0.731E-03
RMM:  10    -0.413174470068E+03    0.38195E-05   -0.23298E-06  2594   0.246E-03    0.427E-03
RMM:  11    -0.413174467535E+03    0.25330E-05   -0.10639E-06  2499   0.169E-03    0.246E-03
RMM:  12    -0.413174462358E+03    0.51767E-05   -0.16576E-06  2554   0.197E-03    0.117E-03
RMM:  13    -0.413174458542E+03    0.38157E-05   -0.69263E-07  2409   0.139E-03    0.979E-04
RMM:  14    -0.413174458535E+03    0.69849E-08   -0.27125E-07  2010   0.909E-04
   23 T=    63. E= -.41286691E+03 F= -.41317446E+03 E0= -.41315256E+03  EK= 0.30755E+00 SP= 0.00E+00 SK= 0.00E+00
       N       E                     dE             d eps       ncg     rms          rms(c)
RMM:   1    -0.413181124069E+03   -0.66655E-02   -0.75567E+00  4295   0.639E-01    0.900E-01
RMM:   2    -0.413182149385E+03   -0.10253E-02   -0.95535E-02  4285   0.871E-02    0.663E-01
RMM:   3    -0.413177597680E+03    0.45517E-02   -0.32838E-02  4937   0.666E-02    0.191E-01
RMM:   4    -0.413204987772E+03   -0.27390E-01   -0.32234E-02  5114   0.151E-01    0.705E-01
RMM:   5    -0.413175871369E+03    0.29116E-01   -0.13754E-02  4782   0.117E-01    0.491E-02
RMM:   6    -0.413176059072E+03   -0.18770E-03   -0.25040E-03  5795   0.476E-02    0.339E-02
RMM:   7    -0.413176064260E+03   -0.51875E-05   -0.39560E-04  5602   0.194E-02    0.220E-02
RMM:   8    -0.413176055189E+03    0.90711E-05   -0.64228E-05  5021   0.900E-03    0.108E-02
RMM:   9    -0.413176051343E+03    0.38451E-05   -0.12472E-05  3853   0.409E-03    0.751E-03
RMM:  10    -0.413176050107E+03    0.12360E-05   -0.21217E-06  2565   0.237E-03    0.438E-03
RMM:  11    -0.413176049119E+03    0.98834E-06   -0.12309E-06  2504   0.179E-03
   24 T=    63. E= -.41286726E+03 F= -.41317605E+03 E0= -.41315420E+03  EK= 0.30878E+00 SP= 0.00E+00 SK= 0.00E+00
       N       E                     dE             d eps       ncg     rms          rms(c)
RMM:   1    -0.413182478411E+03   -0.64283E-02   -0.76250E+00  4295   0.643E-01    0.914E-01
RMM:   2    -0.413183156950E+03   -0.67854E-03   -0.96396E-02  4292   0.869E-02    0.669E-01
RMM:   3    -0.413178362119E+03    0.47948E-02   -0.32330E-02  4907   0.646E-02    0.176E-01
RMM:   4    -0.413204581970E+03   -0.26220E-01   -0.29906E-02  5113   0.146E-01    0.687E-01
RMM:   5    -0.413176936067E+03    0.27646E-01   -0.13053E-02  4788   0.114E-01    0.483E-02
RMM:   6    -0.413177107618E+03   -0.17155E-03   -0.24056E-03  5824   0.462E-02    0.325E-02
RMM:   7    -0.413177108680E+03   -0.10618E-05   -0.33826E-04  5661   0.184E-02    0.204E-02
RMM:   8    -0.413177099358E+03    0.93223E-05   -0.64440E-05  4973   0.880E-03    0.109E-02
RMM:   9    -0.413177094575E+03    0.47831E-05   -0.12659E-05  3971   0.416E-03    0.777E-03
RMM:  10    -0.413177092129E+03    0.24463E-05   -0.20781E-06  2566   0.238E-03    0.450E-03
RMM:  11    -0.413177090129E+03    0.19996E-05   -0.13649E-06  2516   0.187E-03    0.248E-03
RMM:  12    -0.413177086451E+03    0.36781E-05   -0.16769E-06  2549   0.197E-03    0.119E-03
RMM:  13    -0.413177083746E+03    0.27050E-05   -0.53071E-07  2346   0.129E-03    0.773E-04
RMM:  14    -0.413177083611E+03    0.13478E-06   -0.23500E-07  1846   0.844E-04
   25 T=    63. E= -.41286712E+03 F= -.41317708E+03 E0= -.41315529E+03  EK= 0.30996E+00 SP= 0.00E+00 SK= 0.00E+00
       N       E                     dE             d eps       ncg     rms          rms(c)
RMM:   1    -0.413184204802E+03   -0.71211E-02   -0.76250E+00  4295   0.660E-01    0.922E-01
RMM:   2    -0.413184192778E+03    0.12024E-04   -0.97339E-02  4292   0.882E-02    0.666E-01
RMM:   3    -0.413179822982E+03    0.43698E-02   -0.30196E-02  4898   0.670E-02    0.171E-01
RMM:   4    -0.413209726846E+03   -0.29904E-01   -0.34731E-02  5106   0.156E-01    0.731E-01
RMM:   5    -0.413178279113E+03    0.31448E-01   -0.14809E-02  4781   0.121E-01    0.513E-02
RMM:   6    -0.413178462085E+03   -0.18297E-03   -0.27368E-03  5780   0.502E-02    0.369E-02
RMM:   7    -0.413178451347E+03    0.10737E-04   -0.45263E-04  5583   0.205E-02    0.237E-02
RMM:   8    -0.413178440041E+03    0.11307E-04   -0.66287E-05  5107   0.933E-03    0.113E-02
RMM:   9    -0.413178433951E+03    0.60891E-05   -0.13119E-05  3878   0.416E-03    0.779E-03
RMM:  10    -0.413178428681E+03    0.52704E-05   -0.23156E-06  2588   0.245E-03    0.457E-03
RMM:  11    -0.413178424918E+03    0.37627E-05   -0.11919E-06  2507   0.177E-03    0.263E-03
RMM:  12    -0.413178417562E+03    0.73561E-05   -0.18142E-06  2569   0.205E-03    0.120E-03
RMM:  13    -0.413178412499E+03    0.50628E-05   -0.68080E-07  2411   0.140E-03    0.983E-04
RMM:  14    -0.413178412590E+03   -0.90935E-07   -0.27493E-07  2007   0.910E-04
   26 T=    63. E= -.41286704E+03 F= -.41317841E+03 E0= -.41315666E+03  EK= 0.31137E+00 SP= 0.00E+00 SK= 0.00E+00
       N       E                     dE             d eps       ncg     rms          rms(c)
RMM:   1    -0.413185305998E+03   -0.68935E-02   -0.76476E+00  4298   0.656E-01    0.905E-01
RMM:   2    -0.413185982769E+03   -0.67677E-03   -0.96949E-02  4294   0.896E-02    0.664E-01
RMM:   3    -0.413181641446E+03    0.43413E-02   -0.31526E-02  4958   0.621E-02    0.179E-01
RMM:   4    -0.413209770155E+03   -0.28129E-01   -0.32570E-02  5115   0.152E-01    0.711E-01
RMM:   5    -0.413180154356E+03    0.29616E-01   -0.13998E-02  4775   0.118E-01    0.495E-02
RMM:   6    -0.413180321691E+03   -0.16733E-03   -0.25680E-03  5801   0.483E-02    0.341E-02
RMM:   7    -0.413180314468E+03    0.72235E-05   -0.39589E-04  5620   0.196E-02    0.220E-02
RMM:   8    -0.413180303020E+03    0.11447E-04   -0.66978E-05  5035   0.922E-03    0.111E-02
RMM:   9    -0.413180297773E+03    0.52472E-05   -0.12902E-05  3901   0.420E-03    0.771E-03
RMM:  10    -0.413180295068E+03    0.27047E-05   -0.21644E-06  2577   0.239E-03    0.447E-03
RMM:  11    -0.413180293073E+03    0.19957E-05   -0.12545E-06  2510   0.181E-03    0.250E-03
RMM:  12    -0.413180289209E+03    0.38639E-05   -0.17016E-06  2543   0.200E-03    0.118E-03
RMM:  13    -0.413180286383E+03    0.28260E-05   -0.58765E-07  2366   0.133E-03    0.850E-04
RMM:  14    -0.413180286260E+03    0.12289E-06   -0.25278E-07  1928   0.875E-04
   27 T=    64. E= -.41286728E+03 F= -.41318029E+03 E0= -.41315859E+03  EK= 0.31300E+00 SP= 0.00E+00 SK= 0.00E+00
       N       E                     dE             d eps       ncg     rms          rms(c)
RMM:   1    -0.413187018448E+03   -0.67321E-02   -0.77646E+00  4298   0.670E-01    0.915E-01
RMM:   2    -0.413187207916E+03   -0.18947E-03   -0.98927E-02  4294   0.902E-02    0.674E-01
RMM:   3    -0.413182731130E+03    0.44768E-02   -0.32706E-02  4951   0.640E-02    0.184E-01
RMM:   4    -0.413210604543E+03   -0.27873E-01   -0.32223E-02  5124   0.151E-01    0.708E-01
RMM:   5    -0.413181184800E+03    0.29420E-01   -0.13930E-02  4776   0.118E-01    0.494E-02
RMM:   6    -0.413181361550E+03   -0.17675E-03   -0.25410E-03  5802   0.483E-02    0.340E-02
RMM:   7    -0.413181362040E+03   -0.49023E-06   -0.39068E-04  5622   0.196E-02    0.218E-02
RMM:   8    -0.413181353852E+03    0.81882E-05   -0.67018E-05  5019   0.926E-03    0.111E-02
RMM:   9    -0.413181349441E+03    0.44111E-05   -0.13057E-05  3891   0.427E-03    0.774E-03
RMM:  10    -0.413181347670E+03    0.17706E-05   -0.22753E-06  2596   0.249E-03    0.447E-03
RMM:  11    -0.413181346129E+03    0.15414E-05   -0.13644E-06  2522   0.188E-03    0.242E-03
RMM:  12    -0.413181343256E+03    0.28729E-05   -0.16896E-06  2533   0.203E-03    0.113E-03
RMM:  13    -0.413181341084E+03    0.21724E-05   -0.55811E-07  2360   0.131E-03    0.790E-04
RMM:  14    -0.413181340918E+03    0.16574E-06   -0.25041E-07  1913   0.866E-04
   28 T=    64. E= -.41286692E+03 F= -.41318134E+03 E0= -.41315969E+03  EK= 0.31442E+00 SP= 0.00E+00 SK= 0.00E+00
       N       E                     dE             d eps       ncg     rms          rms(c)
RMM:   1    -0.413189292382E+03   -0.79513E-02   -0.77713E+00  4292   0.691E-01    0.930E-01
RMM:   2    -0.413189155859E+03    0.13652E-03   -0.99681E-02  4283   0.939E-02    0.672E-01
RMM:   3    -0.413184171808E+03    0.49841E-02   -0.29946E-02  4835   0.609E-02    0.138E-01
RMM:   4    -0.413207646148E+03   -0.23474E-01   -0.25359E-02  5127   0.134E-01    0.647E-01
RMM:   5    -0.413183214977E+03    0.24431E-01   -0.11774E-02  4788   0.107E-01    0.479E-02
RMM:   6    -0.413183365180E+03   -0.15020E-03   -0.21364E-03  5834   0.440E-02    0.324E-02
RMM:   7    -0.413183365501E+03   -0.32071E-06   -0.28374E-04  5608   0.175E-02    0.183E-02
RMM:   8    -0.413183357911E+03    0.75898E-05   -0.56798E-05  4959   0.828E-03    0.109E-02
RMM:   9    -0.413183351442E+03    0.64688E-05   -0.11320E-05  3816   0.402E-03    0.777E-03
RMM:  10    -0.413183346464E+03    0.49780E-05   -0.21728E-06  2587   0.255E-03    0.436E-03
RMM:  11    -0.413183341639E+03    0.48250E-05   -0.15816E-06  2534   0.201E-03    0.224E-03
RMM:  12    -0.413183334910E+03    0.67291E-05   -0.15079E-06  2531   0.194E-03    0.108E-03
RMM:  13    -0.413183331924E+03    0.29861E-05   -0.50672E-07  2329   0.125E-03    0.686E-04
RMM:  14    -0.413183331032E+03    0.89170E-06   -0.23224E-07  1810   0.840E-04
   29 T=    64. E= -.41286714E+03 F= -.41318333E+03 E0= -.41316173E+03  EK= 0.31619E+00 SP= 0.00E+00 SK= 0.00E+00
       N       E                     dE             d eps       ncg     rms          rms(c)
RMM:   1    -0.413190618727E+03   -0.72868E-02   -0.77744E+00  4293   0.698E-01    0.913E-01
RMM:   2    -0.413191323740E+03   -0.70501E-03   -0.99241E-02  4273   0.981E-02    0.668E-01
RMM:   3    -0.413185921158E+03    0.54026E-02   -0.30802E-02  4754   0.635E-02    0.141E-01
RMM:   4    -0.413205467988E+03   -0.19547E-01   -0.20973E-02  5130   0.123E-01    0.594E-01
RMM:   5    -0.413185006451E+03    0.20462E-01   -0.99100E-03  4801   0.978E-02    0.459E-02
RMM:   6    -0.413185139399E+03   -0.13295E-03   -0.17976E-03  5838   0.402E-02    0.306E-02
RMM:   7    -0.413185144003E+03   -0.46045E-05   -0.23168E-04  5580   0.161E-02    0.166E-02
RMM:   8    -0.413185139490E+03    0.45135E-05   -0.45680E-05  4891   0.739E-03    0.101E-02
RMM:   9    -0.413185134613E+03    0.48764E-05   -0.91435E-06  3539   0.361E-03    0.718E-03
RMM:  10    -0.413185131537E+03    0.30767E-05   -0.18652E-06  2540   0.237E-03    0.401E-03
RMM:  11    -0.413185127954E+03    0.35833E-05   -0.16398E-06  2546   0.200E-03    0.199E-03
RMM:  12    -0.413185123554E+03    0.43998E-05   -0.11718E-06  2485   0.175E-03    0.106E-03
RMM:  13    -0.413185121875E+03    0.16790E-05   -0.42544E-07  2254   0.114E-03    0.647E-04
RMM:  14    -0.413185120835E+03    0.10399E-05   -0.20053E-07  1726   0.799E-04    0.467E-04
RMM:  15    -0.413185116536E+03    0.42991E-05   -0.22025E-07  2109   0.840E-04    0.494E-04
RMM:  16    -0.413185113209E+03    0.33269E-05   -0.10632E-07  1328   0.650E-04    0.411E-04
RMM:  17    -0.413185111094E+03    0.21151E-05   -0.48497E-08   891   0.547E-04    0.300E-04
RMM:  18    -0.413185107666E+03    0.34278E-05   -0.66270E-08  1087   0.609E-04    0.785E-05
RMM:  19    -0.413185105404E+03    0.22618E-05   -0.37786E-08   903   0.575E-04    0.115E-04
RMM:  20    -0.413185105022E+03    0.38193E-06   -0.17667E-08   775   0.546E-04
   30 T=    65. E= -.41286715E+03 F= -.41318511E+03 E0= -.41316356E+03  EK= 0.31796E+00 SP= 0.00E+00 SK= 0.00E+00
       N       E                     dE             d eps       ncg     rms          rms(c)
RMM:   1    -0.413193723475E+03   -0.86181E-02   -0.79264E+00  4294   0.710E-01    0.918E-01
RMM:   2    -0.413193422591E+03    0.30088E-03   -0.10281E-01  4274   0.104E-01    0.678E-01
RMM:   3    -0.413187484972E+03    0.59376E-02   -0.32544E-02  4608   0.705E-02    0.146E-01
RMM:   4    -0.413202462057E+03   -0.14977E-01   -0.15998E-02  5130   0.109E-01    0.524E-01
RMM:   5    -0.413186684137E+03    0.15778E-01   -0.76826E-03  4798   0.860E-02    0.437E-02
RMM:   6    -0.413186780363E+03   -0.96226E-04   -0.14143E-03  5835   0.352E-02    0.280E-02
RMM:   7    -0.413186791776E+03   -0.11413E-04   -0.18418E-04  5497   0.147E-02    0.153E-02
RMM:   8    -0.413186782966E+03    0.88106E-05   -0.32634E-05  4710   0.627E-03    0.856E-03
RMM:   9    -0.413186783160E+03   -0.19484E-06   -0.74487E-06  3350   0.334E-03
   31 T=    65. E= -.41286707E+03 F= -.41318678E+03 E0= -.41316529E+03  EK= 0.31972E+00 SP= 0.00E+00 SK= 0.00E+00
       N       E                     dE             d eps       ncg     rms          rms(c)
RMM:   1    -0.413196039520E+03   -0.92566E-02   -0.79368E+00  4294   0.730E-01    0.937E-01
RMM:   2    -0.413195731415E+03    0.30811E-03   -0.10297E-01  4330   0.110E-01    0.678E-01
RMM:   3    -0.413195131838E+03    0.59958E-03   -0.33393E-02  5029   0.101E-01    0.324E-01
RMM:   4    -0.413216003045E+03   -0.20871E-01   -0.40185E-02  5058   0.172E-01    0.674E-01
RMM:   5    -0.413189284621E+03    0.26718E-01   -0.10739E-02  4695   0.111E-01    0.543E-02
RMM:   6    -0.413189411531E+03   -0.12691E-03   -0.22743E-03  5697   0.459E-02    0.361E-02
RMM:   7    -0.413189417131E+03   -0.55999E-05   -0.40518E-04  5574   0.194E-02    0.230E-02
RMM:   8    -0.413189412605E+03    0.45262E-05   -0.66853E-05  5105   0.995E-03    0.100E-02
RMM:   9    -0.413189405688E+03    0.69170E-05   -0.10404E-05  3560   0.415E-03    0.546E-03
RMM:  10    -0.413189400667E+03    0.50216E-05   -0.21648E-06  2594   0.241E-03    0.342E-03
RMM:  11    -0.413189395929E+03    0.47372E-05   -0.10906E-06  2498   0.173E-03    0.181E-03
RMM:  12    -0.413189388456E+03    0.74738E-05   -0.10550E-06  2481   0.162E-03    0.706E-04
RMM:  13    -0.413189384961E+03    0.34947E-05   -0.49223E-07  2302   0.116E-03    0.481E-04
RMM:  14    -0.413189382955E+03    0.20059E-05   -0.24774E-07  1828   0.846E-04    0.356E-04
RMM:  15    -0.413189377946E+03    0.50091E-05   -0.17248E-07  1587   0.754E-04    0.223E-04
RMM:  16    -0.413189372699E+03    0.52474E-05   -0.12044E-07  1277   0.669E-04    0.249E-04
RMM:  17    -0.413189368001E+03    0.46970E-05   -0.87197E-08  1075   0.622E-04    0.181E-04
RMM:  18    -0.413189364746E+03    0.32552E-05   -0.66836E-08  1076   0.606E-04    0.569E-05
RMM:  19    -0.413189362231E+03    0.25152E-05   -0.53622E-08  1090   0.593E-04    0.555E-05
RMM:  20    -0.413189361956E+03    0.27530E-06   -0.20795E-08   750   0.534E-04
   32 T=    66. E= -.41286749E+03 F= -.41318936E+03 E0= -.41316791E+03  EK= 0.32187E+00 SP= 0.00E+00 SK= 0.00E+00
       N       E                     dE             d eps       ncg     rms          rms(c)
RMM:   1    -0.413200795015E+03   -0.11433E-01   -0.79691E+00  4299   0.759E-01    0.925E-01
RMM:   2    -0.413197176361E+03    0.36187E-02   -0.10637E-01  4279   0.112E-01    0.674E-01
RMM:   3    -0.413191773223E+03    0.54031E-02   -0.29388E-02  4562   0.717E-02    0.110E-01
RMM:   4    -0.413204492146E+03   -0.12719E-01   -0.13139E-02  5138   0.974E-02    0.481E-01
RMM:   5    -0.413191243015E+03    0.13249E-01   -0.66255E-03  4816   0.789E-02    0.438E-02
RMM:   6    -0.413191327548E+03   -0.84532E-04   -0.12500E-03  5824   0.334E-02    0.294E-02
RMM:   7    -0.413191333974E+03   -0.64265E-05   -0.23354E-04  5427   0.160E-02    0.183E-02
RMM:   8    -0.413191317108E+03    0.16866E-04   -0.32918E-05  4735   0.679E-03    0.866E-03
RMM:   9    -0.413191315010E+03    0.20973E-05   -0.63395E-06  3111   0.311E-03    0.613E-03
RMM:  10    -0.413191311236E+03    0.37748E-05   -0.17049E-06  2519   0.219E-03    0.330E-03
RMM:  11    -0.413191307668E+03    0.35680E-05   -0.11459E-06  2497   0.175E-03    0.169E-03
RMM:  12    -0.413191303658E+03    0.40094E-05   -0.76574E-07  2444   0.143E-03    0.929E-04
RMM:  13    -0.413191301663E+03    0.19952E-05   -0.32738E-07  2100   0.984E-04    0.422E-04
RMM:  14    -0.413191299878E+03    0.17851E-05   -0.17197E-07  1547   0.746E-04    0.264E-04
RMM:  15    -0.413191296041E+03    0.38368E-05   -0.12418E-07  1403   0.698E-04    0.143E-04
RMM:  16    -0.413191292888E+03    0.31529E-05   -0.71061E-08  1043   0.630E-04    0.116E-04
RMM:  17    -0.413191290123E+03    0.27650E-05   -0.50051E-08   951   0.600E-04    0.800E-05
RMM:  18    -0.413191285544E+03    0.45790E-05   -0.64274E-08  1160   0.626E-04    0.341E-05
RMM:  19    -0.413191284714E+03    0.83017E-06   -0.21265E-08   769   0.549E-04
   33 T=    66. E= -.41286736E+03 F= -.41319128E+03 E0= -.41316988E+03  EK= 0.32392E+00 SP= 0.00E+00 SK= 0.00E+00
       N       E                     dE             d eps       ncg     rms          rms(c)
RMM:   1    -0.413199908143E+03   -0.86226E-02   -0.80755E+00  4307   0.744E-01    0.923E-01
RMM:   2    -0.413199656847E+03    0.25130E-03   -0.10588E-01  4276   0.117E-01    0.683E-01
RMM:   3    -0.413194293930E+03    0.53629E-02   -0.32399E-02  4522   0.780E-02    0.135E-01
RMM:   4    -0.413205207570E+03   -0.10914E-01   -0.11594E-02  5131   0.924E-02    0.451E-01
RMM:   5    -0.413193618519E+03    0.11589E-01   -0.57858E-03  4815   0.740E-02    0.426E-02
RMM:   6    -0.413193695202E+03   -0.76684E-04   -0.11282E-03  5806   0.316E-02    0.284E-02
RMM:   7    -0.413193704163E+03   -0.89610E-05   -0.23465E-04  5391   0.159E-02    0.184E-02
RMM:   8    -0.413193688679E+03    0.15484E-04   -0.29549E-05  4668   0.665E-03    0.826E-03
RMM:   9    -0.413193688344E+03    0.33508E-06   -0.57755E-06  3028   0.298E-03
   34 T=    66. E= -.41286739E+03 F= -.41319369E+03 E0= -.41317233E+03  EK= 0.32630E+00 SP= 0.00E+00 SK= 0.00E+00
       N       E                     dE             d eps       ncg     rms          rms(c)
RMM:   1    -0.413202360089E+03   -0.86714E-02   -0.81223E+00  4304   0.765E-01    0.942E-01
RMM:   2    -0.413202086506E+03    0.27358E-03   -0.10626E-01  4300   0.122E-01    0.686E-01
RMM:   3    -0.413199326061E+03    0.27604E-02   -0.32134E-02  4917   0.983E-02    0.235E-01
RMM:   4    -0.413231854785E+03   -0.32529E-01   -0.43044E-02  5084   0.175E-01    0.775E-01
RMM:   5    -0.413196238418E+03    0.35616E-01   -0.15999E-02  4761   0.129E-01    0.542E-02
RMM:   6    -0.413196434367E+03   -0.19595E-03   -0.30377E-03  5779   0.529E-02    0.369E-02
RMM:   7    -0.413196438130E+03   -0.37626E-05   -0.44280E-04  5627   0.203E-02    0.234E-02
RMM:   8    -0.413196430991E+03    0.71385E-05   -0.88898E-05  5187   0.103E-02    0.126E-02
RMM:   9    -0.413196421606E+03    0.93858E-05   -0.14292E-05  4044   0.464E-03    0.742E-03
RMM:  10    -0.413196416375E+03    0.52309E-05   -0.29358E-06  2682   0.267E-03    0.441E-03
RMM:  11    -0.413196412698E+03    0.36772E-05   -0.12034E-06  2502   0.183E-03    0.257E-03
RMM:  12    -0.413196405038E+03    0.76594E-05   -0.17105E-06  2541   0.205E-03    0.117E-03
RMM:  13    -0.413196400103E+03    0.49352E-05   -0.71432E-07  2415   0.143E-03    0.828E-04
RMM:  14    -0.413196399094E+03    0.10088E-05   -0.30122E-07  2075   0.955E-04    0.534E-04
RMM:  15    -0.413196397156E+03    0.19386E-05   -0.14990E-07  1486   0.726E-04    0.365E-04
RMM:  16    -0.413196389771E+03    0.73847E-05   -0.21842E-07  2149   0.833E-04    0.678E-04
RMM:  17    -0.413196387386E+03    0.23853E-05   -0.73805E-08  1107   0.582E-04    0.549E-04
RMM:  18    -0.413196381283E+03    0.61020E-05   -0.73676E-08  1002   0.590E-04    0.354E-04
RMM:  19    -0.413196380249E+03    0.10347E-05   -0.40873E-08   918   0.560E-04    0.139E-04
RMM:  20    -0.413196377993E+03    0.22555E-05   -0.50625E-08  1203   0.608E-04    0.212E-04
RMM:  21    -0.413196377581E+03    0.41243E-06   -0.22554E-08   840   0.536E-04
   35 T=    67. E= -.41286746E+03 F= -.41319638E+03 E0= -.41317507E+03  EK= 0.32892E+00 SP= 0.00E+00 SK= 0.00E+00
       N       E                     dE             d eps       ncg     rms          rms(c)
RMM:   1    -0.413208156258E+03   -0.11778E-01   -0.81772E+00  4306   0.831E-01    0.939E-01
RMM:   2    -0.413204156048E+03    0.40002E-02   -0.11533E-01  4275   0.135E-01    0.683E-01
RMM:   3    -0.413198698754E+03    0.54573E-02   -0.28337E-02  4321   0.806E-02    0.764E-02
RMM:   4    -0.413198672619E+03    0.26134E-04   -0.37776E-04  5019   0.176E-02    0.647E-02
RMM:   5    -0.413198566029E+03    0.10659E-03   -0.19516E-04  4857   0.135E-02    0.499E-02
RMM:   6    -0.413198587842E+03   -0.21813E-04   -0.49179E-04  5229   0.214E-02    0.346E-02
RMM:   7    -0.413198536658E+03    0.51184E-04   -0.19524E-04  4778   0.157E-02    0.186E-02
RMM:   8    -0.413198531088E+03    0.55698E-05   -0.40187E-05  4707   0.584E-03    0.529E-03
RMM:   9    -0.413198529689E+03    0.13990E-05   -0.54818E-06  2537   0.229E-03    0.234E-03
RMM:  10    -0.413198523542E+03    0.61465E-05   -0.10023E-06  2392   0.163E-03    0.103E-03
RMM:  11    -0.413198520167E+03    0.33753E-05   -0.30904E-07  1839   0.914E-04    0.576E-04
RMM:  12    -0.413198515649E+03    0.45182E-05   -0.15807E-07  1419   0.739E-04    0.450E-04
RMM:  13    -0.413198510940E+03    0.47087E-05   -0.11759E-07  1230   0.676E-04    0.257E-04
RMM:  14    -0.413198503962E+03    0.69779E-05   -0.13971E-07  1312   0.686E-04    0.246E-04
RMM:  15    -0.413198501409E+03    0.25533E-05   -0.36362E-08   789   0.564E-04    0.208E-04
RMM:  16    -0.413198496744E+03    0.46655E-05   -0.44625E-08   989   0.592E-04    0.889E-05
RMM:  17    -0.413198495186E+03    0.15578E-05   -0.15809E-08   696   0.529E-04    0.567E-05
RMM:  18    -0.413198494425E+03    0.76088E-06   -0.91404E-09   588   0.512E-04
   36 T=    67. E= -.41286708E+03 F= -.41319849E+03 E0= -.41317723E+03  EK= 0.33142E+00 SP= 0.00E+00 SK= 0.00E+00
       N       E                     dE             d eps       ncg     rms          rms(c)
RMM:   1    -0.413207323638E+03   -0.88285E-02   -0.82551E+00  4310   0.819E-01    0.931E-01
RMM:   2    -0.413207648799E+03   -0.32516E-03   -0.11124E-01  4251   0.130E-01    0.688E-01
RMM:   3    -0.413201827030E+03    0.58218E-02   -0.31523E-02  4392   0.854E-02    0.112E-01
RMM:   4    -0.413206033611E+03   -0.42066E-02   -0.47475E-03  5155   0.612E-02    0.289E-01
RMM:   5    -0.413201434289E+03    0.45993E-02   -0.23286E-03  4805   0.476E-02    0.416E-02
RMM:   6    -0.413201476893E+03   -0.42604E-04   -0.70711E-04  5561   0.265E-02    0.327E-02
RMM:   7    -0.413201461990E+03    0.14903E-04   -0.25535E-04  5123   0.171E-02    0.190E-02
RMM:   8    -0.413201453509E+03    0.84813E-05   -0.30045E-05  4812   0.633E-03    0.783E-03
RMM:   9    -0.413201452657E+03    0.85222E-06   -0.42804E-06  2746   0.254E-03
   37 T=    68. E= -.41286722E+03 F= -.41320145E+03 E0= -.41318023E+03  EK= 0.33423E+00 SP= 0.00E+00 SK= 0.00E+00
       N       E                     dE             d eps       ncg     rms          rms(c)
RMM:   1    -0.413211335052E+03   -0.98815E-02   -0.83637E+00  4309   0.855E-01    0.948E-01
RMM:   2    -0.413210419009E+03    0.91604E-03   -0.11580E-01  4272   0.125E-01    0.696E-01
RMM:   3    -0.413205737437E+03    0.46816E-02   -0.31132E-02  4868   0.846E-02    0.181E-01
RMM:   4    -0.413242297650E+03   -0.36560E-01   -0.42208E-02  5115   0.173E-01    0.807E-01
RMM:   5    -0.413203959293E+03    0.38338E-01   -0.18125E-02  4775   0.134E-01    0.547E-02
RMM:   6    -0.413204049465E+03   -0.90172E-04   -0.32201E-03  5809   0.537E-02    0.353E-02
RMM:   7    -0.413204065320E+03   -0.15855E-04   -0.38272E-04  5609   0.189E-02    0.189E-02
RMM:   8    -0.413204061065E+03    0.42551E-05   -0.48233E-05  4777   0.719E-03    0.992E-03
RMM:   9    -0.413204056557E+03    0.45084E-05   -0.13574E-05  3920   0.408E-03    0.630E-03
RMM:  10    -0.413204054222E+03    0.23343E-05   -0.39663E-06  2842   0.268E-03    0.409E-03
RMM:  11    -0.413204050370E+03    0.38526E-05   -0.13921E-06  2494   0.201E-03    0.242E-03
RMM:  12    -0.413204042447E+03    0.79225E-05   -0.16096E-06  2511   0.204E-03    0.104E-03
RMM:  13    -0.413204039081E+03    0.33659E-05   -0.58165E-07  2406   0.134E-03    0.768E-04
RMM:  14    -0.413204038305E+03    0.77647E-06   -0.25375E-07  1994   0.891E-04
   38 T=    69. E= -.41286708E+03 F= -.41320404E+03 E0= -.41318286E+03  EK= 0.33696E+00 SP= 0.00E+00 SK= 0.00E+00
       N       E                     dE             d eps       ncg     rms          rms(c)
RMM:   1    -0.413222407459E+03   -0.18368E-01   -0.84739E+00  4311   0.953E-01    0.955E-01
RMM:   2    -0.413213019487E+03    0.93880E-02   -0.12830E-01  4250   0.126E-01    0.693E-01
RMM:   3    -0.413207232044E+03    0.57874E-02   -0.26340E-02  4788   0.677E-02    0.113E-01
RMM:   4    -0.413235560562E+03   -0.28329E-01   -0.29690E-02  5133   0.144E-01    0.706E-01
RMM:   5    -0.413206599466E+03    0.28961E-01   -0.14353E-02  4800   0.117E-01    0.515E-02
RMM:   6    -0.413206658402E+03   -0.58936E-04   -0.24818E-03  5808   0.477E-02    0.348E-02
RMM:   7    -0.413206678053E+03   -0.19651E-04   -0.38430E-04  5595   0.191E-02    0.210E-02
RMM:   8    -0.413206664396E+03    0.13657E-04   -0.67346E-05  5110   0.884E-03    0.114E-02
RMM:   9    -0.413206661133E+03    0.32625E-05   -0.15499E-05  4206   0.464E-03    0.742E-03
RMM:  10    -0.413206654513E+03    0.66200E-05   -0.26607E-06  2663   0.263E-03    0.410E-03
RMM:  11    -0.413206650385E+03    0.41278E-05   -0.11303E-06  2498   0.177E-03    0.246E-03
RMM:  12    -0.413206641119E+03    0.92665E-05   -0.16160E-06  2525   0.202E-03    0.131E-03
RMM:  13    -0.413206635987E+03    0.51322E-05   -0.61430E-07  2381   0.137E-03    0.823E-04
RMM:  14    -0.413206634918E+03    0.10689E-05   -0.26394E-07  2011   0.906E-04    0.503E-04
RMM:  15    -0.413206630813E+03    0.41044E-05   -0.14566E-07  1545   0.736E-04    0.278E-04
RMM:  16    -0.413206624976E+03    0.58369E-05   -0.12895E-07  1636   0.722E-04    0.372E-04
RMM:  17    -0.413206621639E+03    0.33374E-05   -0.63689E-08  1104   0.599E-04    0.331E-04
RMM:  18    -0.413206615136E+03    0.65024E-05   -0.64717E-08  1180   0.610E-04    0.201E-04
RMM:  19    -0.413206613627E+03    0.15099E-05   -0.32157E-08   883   0.548E-04    0.716E-05
RMM:  20    -0.413206612126E+03    0.15007E-05   -0.29997E-08   948   0.560E-04    0.104E-04
RMM:  21    -0.413206612032E+03    0.94304E-07   -0.11540E-08   675   0.514E-04
   39 T=    69. E= -.41286696E+03 F= -.41320661E+03 E0= -.41318547E+03  EK= 0.33965E+00 SP= 0.00E+00 SK= 0.00E+00
       N       E                     dE             d eps       ncg     rms          rms(c)
RMM:   1    -0.413216973873E+03   -0.10362E-01   -0.84613E+00  4311   0.926E-01    0.941E-01
RMM:   2    -0.413216422895E+03    0.55098E-03   -0.11774E-01  4258   0.124E-01    0.694E-01
RMM:   3    -0.413211560249E+03    0.48626E-02   -0.30706E-02  4937   0.794E-02    0.183E-01
RMM:   4    -0.413249146304E+03   -0.37586E-01   -0.43919E-02  5118   0.176E-01    0.817E-01
RMM:   5    -0.413209716023E+03    0.39430E-01   -0.18605E-02  4776   0.136E-01    0.554E-02
RMM:   6    -0.413209824405E+03   -0.10838E-03   -0.32619E-03  5804   0.540E-02    0.351E-02
RMM:   7    -0.413209847510E+03   -0.23106E-04   -0.40220E-04  5663   0.191E-02    0.192E-02
RMM:   8    -0.413209848223E+03   -0.71213E-06   -0.63665E-05  5031   0.804E-03    0.110E-02
RMM:   9    -0.413209843383E+03    0.48396E-05   -0.19642E-05  4423   0.472E-03    0.741E-03
RMM:  10    -0.413209841450E+03    0.19330E-05   -0.38298E-06  2799   0.288E-03    0.428E-03
RMM:  11    -0.413209839693E+03    0.17569E-05   -0.14477E-06  2499   0.200E-03    0.259E-03
RMM:  12    -0.413209835258E+03    0.44348E-05   -0.16170E-06  2527   0.203E-03    0.108E-03
RMM:  13    -0.413209832312E+03    0.29459E-05   -0.64358E-07  2410   0.139E-03    0.757E-04
RMM:  14    -0.413209831653E+03    0.65899E-06   -0.27013E-07  2034   0.918E-04
   40 T=    70. E= -.41286733E+03 F= -.41320983E+03 E0= -.41318873E+03  EK= 0.34251E+00 SP= 0.00E+00 SK= 0.00E+00
       N       E                     dE             d eps       ncg     rms          rms(c)
RMM:   1    -0.413220478942E+03   -0.10647E-01   -0.86056E+00  4308   0.962E-01    0.954E-01
RMM:   2    -0.413218881404E+03    0.15975E-02   -0.12011E-01  4258   0.127E-01    0.704E-01
RMM:   3    -0.413213777042E+03    0.51044E-02   -0.31039E-02  4936   0.772E-02    0.177E-01
RMM:   4    -0.413251776929E+03   -0.38000E-01   -0.43845E-02  5121   0.176E-01    0.820E-01
RMM:   5    -0.413212057939E+03    0.39719E-01   -0.18870E-02  4779   0.136E-01    0.557E-02
RMM:   6    -0.413212161658E+03   -0.10372E-03   -0.32220E-03  5811   0.537E-02    0.344E-02
RMM:   7    -0.413212187038E+03   -0.25380E-04   -0.39232E-04  5664   0.188E-02    0.186E-02
RMM:   8    -0.413212182752E+03    0.42861E-05   -0.46212E-05  4738   0.694E-03    0.886E-03
RMM:   9    -0.413212181369E+03    0.13827E-05   -0.11598E-05  3557   0.369E-03    0.578E-03
RMM:  10    -0.413212178439E+03    0.29305E-05   -0.25039E-06  2632   0.232E-03    0.382E-03
RMM:  11    -0.413212175335E+03    0.31035E-05   -0.13249E-06  2502   0.190E-03    0.219E-03
RMM:  12    -0.413212169320E+03    0.60155E-05   -0.14254E-06  2517   0.186E-03    0.100E-03
RMM:  13    -0.413212167357E+03    0.19630E-05   -0.45366E-07  2353   0.121E-03    0.681E-04
RMM:  14    -0.413212166678E+03    0.67941E-06   -0.20204E-07  1790   0.807E-04
   41 T=    70. E= -.41286715E+03 F= -.41321217E+03 E0= -.41319110E+03  EK= 0.34502E+00 SP= 0.00E+00 SK= 0.00E+00
       N       E                     dE             d eps       ncg     rms          rms(c)
RMM:   1    -0.413233772758E+03   -0.21605E-01   -0.87297E+00  4312   0.109E+00    0.969E-01
RMM:   2    -0.413221354098E+03    0.12419E-01   -0.13345E-01  4289   0.132E-01    0.703E-01
RMM:   3    -0.413216973415E+03    0.43807E-02   -0.27242E-02  5021   0.765E-02    0.200E-01
RMM:   4    -0.413260550308E+03   -0.43577E-01   -0.53050E-02  5122   0.193E-01    0.878E-01
RMM:   5    -0.413214731125E+03    0.45819E-01   -0.21260E-02  4773   0.145E-01    0.601E-02
RMM:   6    -0.413214864686E+03   -0.13356E-03   -0.37333E-03  5788   0.574E-02    0.374E-02
RMM:   7    -0.413214882419E+03   -0.17733E-04   -0.47631E-04  5717   0.206E-02    0.222E-02
RMM:   8    -0.413214883555E+03   -0.11361E-05   -0.10846E-04  5214   0.105E-02    0.141E-02
RMM:   9    -0.413214870810E+03    0.12744E-04   -0.23113E-05  4563   0.563E-03    0.733E-03
RMM:  10    -0.413214865308E+03    0.55019E-05   -0.44126E-06  2869   0.299E-03    0.441E-03
RMM:  11    -0.413214861411E+03    0.38978E-05   -0.13746E-06  2501   0.199E-03    0.264E-03
RMM:  12    -0.413214852666E+03    0.87451E-05   -0.14670E-06  2511   0.199E-03    0.115E-03
RMM:  13    -0.413214846736E+03    0.59293E-05   -0.65165E-07  2418   0.140E-03    0.717E-04
RMM:  14    -0.413214845685E+03    0.10512E-05   -0.29233E-07  2075   0.945E-04    0.454E-04
RMM:  15    -0.413214843301E+03    0.23846E-05   -0.14681E-07  1498   0.728E-04    0.294E-04
RMM:  16    -0.413214835440E+03    0.78606E-05   -0.15261E-07  1801   0.764E-04    0.422E-04
RMM:  17    -0.413214833599E+03    0.18410E-05   -0.55657E-08   968   0.574E-04    0.305E-04
RMM:  18    -0.413214827164E+03    0.64352E-05   -0.66895E-08  1199   0.620E-04    0.201E-04
RMM:  19    -0.413214825803E+03    0.13608E-05   -0.34429E-08   903   0.555E-04    0.645E-05
RMM:  20    -0.413214823619E+03    0.21837E-05   -0.43035E-08  1130   0.595E-04    0.176E-04
RMM:  21    -0.413214823504E+03    0.11510E-06   -0.13727E-08   696   0.524E-04
   42 T=    71. E= -.41286737E+03 F= -.41321482E+03 E0= -.41319378E+03  EK= 0.34745E+00 SP= 0.00E+00 SK= 0.00E+00
       N       E                     dE             d eps       ncg     rms          rms(c)
RMM:   1    -0.413227970859E+03   -0.13147E-01   -0.86695E+00  4315   0.110E+00    0.952E-01
RMM:   2    -0.413223643862E+03    0.43270E-02   -0.12488E-01  4322   0.132E-01    0.700E-01
RMM:   3    -0.413220538521E+03    0.31053E-02   -0.30542E-02  5044   0.862E-02    0.252E-01
RMM:   4    -0.413257817086E+03   -0.37279E-01   -0.51519E-02  5105   0.192E-01    0.830E-01
RMM:   5    -0.413216938079E+03    0.40879E-01   -0.18073E-02  4753   0.137E-01    0.588E-02
RMM:   6    -0.413217035974E+03   -0.97895E-04   -0.32885E-03  5774   0.540E-02    0.359E-02
RMM:   7    -0.413217053006E+03   -0.17032E-04   -0.42603E-04  5686   0.199E-02    0.216E-02
RMM:   8    -0.413217055414E+03   -0.24086E-05   -0.11053E-04  5209   0.108E-02    0.133E-02
RMM:   9    -0.413217044904E+03    0.10510E-04   -0.19876E-05  4434   0.545E-03    0.641E-03
RMM:  10    -0.413217041990E+03    0.29145E-05   -0.40553E-06  2831   0.280E-03    0.389E-03
RMM:  11    -0.413217039586E+03    0.24038E-05   -0.12321E-06  2499   0.188E-03    0.226E-03
RMM:  12    -0.413217034215E+03    0.53708E-05   -0.12223E-06  2498   0.180E-03    0.100E-03
RMM:  13    -0.413217030286E+03    0.39289E-05   -0.56190E-07  2371   0.128E-03    0.581E-04
RMM:  14    -0.413217029333E+03    0.95304E-06   -0.25909E-07  1937   0.883E-04
   43 T=    71. E= -.41286752E+03 F= -.41321703E+03 E0= -.41319602E+03  EK= 0.34951E+00 SP= 0.00E+00 SK= 0.00E+00
       N       E                     dE             d eps       ncg     rms          rms(c)
RMM:   1    -0.413230223793E+03   -0.13194E-01   -0.88117E+00  4316   0.114E+00    0.957E-01
RMM:   2    -0.413225346092E+03    0.48777E-02   -0.12934E-01  4331   0.143E-01    0.710E-01
RMM:   3    -0.413222353213E+03    0.29929E-02   -0.31812E-02  5041   0.914E-02    0.269E-01
RMM:   4    -0.413260088239E+03   -0.37735E-01   -0.53615E-02  5109   0.196E-01    0.839E-01
RMM:   5    -0.413218241783E+03    0.41846E-01   -0.18301E-02  4756   0.138E-01    0.591E-02
RMM:   6    -0.413218340375E+03   -0.98592E-04   -0.33288E-03  5776   0.542E-02    0.351E-02
RMM:   7    -0.413218354381E+03   -0.14005E-04   -0.42082E-04  5708   0.197E-02    0.212E-02
RMM:   8    -0.413218357967E+03   -0.35866E-05   -0.11293E-04  5212   0.108E-02    0.132E-02
RMM:   9    -0.413218347004E+03    0.10963E-04   -0.20846E-05  4466   0.557E-03    0.618E-03
RMM:  10    -0.413218344350E+03    0.26544E-05   -0.42976E-06  2862   0.284E-03    0.378E-03
RMM:  11    -0.413218342008E+03    0.23420E-05   -0.12963E-06  2515   0.190E-03    0.217E-03
RMM:  12    -0.413218336827E+03    0.51813E-05   -0.12310E-06  2506   0.178E-03    0.948E-04
RMM:  13    -0.413218332866E+03    0.39602E-05   -0.57019E-07  2371   0.125E-03    0.543E-04
RMM:  14    -0.413218331692E+03    0.11741E-05   -0.25551E-07  1894   0.865E-04    0.342E-04
RMM:  15    -0.413218328700E+03    0.29927E-05   -0.15012E-07  1395   0.720E-04    0.167E-04
RMM:  16    -0.413218324084E+03    0.46152E-05   -0.12594E-07  1366   0.698E-04    0.193E-04
RMM:  17    -0.413218321473E+03    0.26110E-05   -0.70953E-08  1058   0.620E-04    0.125E-04
RMM:  18    -0.413218317579E+03    0.38942E-05   -0.74643E-08  1292   0.638E-04    0.108E-04
RMM:  19    -0.413218315272E+03    0.23070E-05   -0.42824E-08  1032   0.572E-04    0.411E-05
RMM:  20    -0.413218314356E+03    0.91641E-06   -0.23233E-08   799   0.533E-04
   44 T=    71. E= -.41286732E+03 F= -.41321831E+03 E0= -.41319733E+03  EK= 0.35100E+00 SP= 0.00E+00 SK= 0.00E+00
       N       E                     dE             d eps       ncg     rms          rms(c)
RMM:   1    -0.413236941013E+03   -0.18626E-01   -0.88516E+00  4312   0.126E+00    0.976E-01
RMM:   2    -0.413226425031E+03    0.10516E-01   -0.13372E-01  4343   0.152E-01    0.709E-01
RMM:   3    -0.413226298975E+03    0.12606E-03   -0.31304E-02  5078   0.102E-01    0.342E-01
RMM:   4    -0.413252965503E+03   -0.26667E-01   -0.50090E-02  5069   0.192E-01    0.749E-01
RMM:   5    -0.413219769245E+03    0.33196E-01   -0.13189E-02  4710   0.123E-01    0.594E-02
RMM:   6    -0.413219809585E+03   -0.40340E-04   -0.26059E-03  5712   0.485E-02    0.352E-02
RMM:   7    -0.413219819902E+03   -0.10317E-04   -0.40725E-04  5628   0.196E-02    0.228E-02
RMM:   8    -0.413219817477E+03    0.24250E-05   -0.11673E-04  5158   0.115E-02    0.123E-02
RMM:   9    -0.413219806325E+03    0.11152E-04   -0.15339E-05  4214   0.530E-03    0.529E-03
RMM:  10    -0.413219802050E+03    0.42751E-05   -0.35193E-06  2781   0.256E-03    0.319E-03
RMM:  11    -0.413219798123E+03    0.39270E-05   -0.10994E-06  2491   0.177E-03    0.173E-03
RMM:  12    -0.413219791227E+03    0.68964E-05   -0.85857E-07  2463   0.154E-03    0.757E-04
RMM:  13    -0.413219786996E+03    0.42310E-05   -0.39494E-07  2180   0.109E-03    0.364E-04
RMM:  14    -0.413219784972E+03    0.20231E-05   -0.20580E-07  1690   0.805E-04    0.239E-04
RMM:  15    -0.413219779518E+03    0.54544E-05   -0.13985E-07  1381   0.725E-04    0.157E-04
RMM:  16    -0.413219776566E+03    0.29518E-05   -0.84276E-08  1132   0.652E-04    0.110E-04
RMM:  17    -0.413219773296E+03    0.32700E-05   -0.68449E-08  1172   0.633E-04    0.790E-05
RMM:  18    -0.413219769841E+03    0.34550E-05   -0.57729E-08  1202   0.619E-04    0.456E-05
RMM:  19    -0.413219767330E+03    0.25114E-05   -0.39657E-08  1054   0.578E-04    0.354E-05
RMM:  20    -0.413219766857E+03    0.47317E-06   -0.19301E-08   763   0.530E-04
   45 T=    72. E= -.41286760E+03 F= -.41321977E+03 E0= -.41319880E+03  EK= 0.35217E+00 SP= 0.00E+00 SK= 0.00E+00
       N       E                     dE             d eps       ncg     rms          rms(c)
RMM:   1    -0.413239708451E+03   -0.19941E-01   -0.88345E+00  4312   0.136E+00    0.959E-01
RMM:   2    -0.413226275333E+03    0.13433E-01   -0.13945E-01  4368   0.162E-01    0.704E-01
RMM:   3    -0.413228460462E+03   -0.21851E-02   -0.31454E-02  5082   0.112E-01    0.397E-01
RMM:   4    -0.413248501552E+03   -0.20041E-01   -0.48993E-02  5063   0.192E-01    0.698E-01
RMM:   5    -0.413219723334E+03    0.28778E-01   -0.10711E-02  4678   0.114E-01    0.589E-02
RMM:   6    -0.413219737706E+03   -0.14372E-04   -0.21989E-03  5660   0.449E-02    0.338E-02
RMM:   7    -0.413219748447E+03   -0.10742E-04   -0.36743E-04  5587   0.188E-02    0.224E-02
RMM:   8    -0.413219745091E+03    0.33566E-05   -0.11642E-04  5110   0.116E-02    0.113E-02
RMM:   9    -0.413219734376E+03    0.10714E-04   -0.14042E-05  4153   0.522E-03    0.473E-03
RMM:  10    -0.413219730687E+03    0.36890E-05   -0.31968E-06  2757   0.241E-03    0.282E-03
RMM:  11    -0.413219726637E+03    0.40508E-05   -0.10673E-06  2486   0.171E-03    0.148E-03
RMM:  12    -0.413219720594E+03    0.60427E-05   -0.73324E-07  2433   0.141E-03    0.658E-04
RMM:  13    -0.413219717016E+03    0.35775E-05   -0.34001E-07  2002   0.997E-04    0.312E-04
RMM:  14    -0.413219714417E+03    0.25996E-05   -0.18676E-07  1538   0.772E-04    0.189E-04
RMM:  15    -0.413219708741E+03    0.56754E-05   -0.14714E-07  1353   0.733E-04    0.142E-04
RMM:  16    -0.413219706499E+03    0.22427E-05   -0.87822E-08  1179   0.654E-04    0.883E-05
RMM:  17    -0.413219702468E+03    0.40306E-05   -0.82539E-08  1326   0.658E-04    0.554E-05
RMM:  18    -0.413219699802E+03    0.26663E-05   -0.53602E-08  1110   0.592E-04    0.352E-05
RMM:  19    -0.413219698097E+03    0.17051E-05   -0.33705E-08   942   0.555E-04    0.258E-05
RMM:  20    -0.413219697799E+03    0.29776E-06   -0.18560E-08   744   0.522E-04
   46 T=    72. E= -.41286736E+03 F= -.41321970E+03 E0= -.41319875E+03  EK= 0.35234E+00 SP= 0.00E+00 SK= 0.00E+00
       N       E                     dE             d eps       ncg     rms          rms(c)
RMM:   1    -0.413235859167E+03   -0.16161E-01   -0.88761E+00  4312   0.140E+00    0.951E-01
RMM:   2    -0.413225742943E+03    0.10116E-01   -0.13968E-01  4389   0.171E-01    0.711E-01
RMM:   3    -0.413230190314E+03   -0.44474E-02   -0.34657E-02  5087   0.124E-01    0.447E-01
RMM:   4    -0.413244991551E+03   -0.14801E-01   -0.49121E-02  5043   0.194E-01    0.664E-01
RMM:   5    -0.413218939813E+03    0.26052E-01   -0.91396E-03  4649   0.109E-01    0.580E-02
RMM:   6    -0.413218925072E+03    0.14741E-04   -0.19581E-03  5601   0.422E-02    0.316E-02
RMM:   7    -0.413218934665E+03   -0.95931E-05   -0.32855E-04  5577   0.178E-02    0.213E-02
RMM:   8    -0.413218930710E+03    0.39544E-05   -0.11601E-04  5080   0.115E-02    0.105E-02
RMM:   9    -0.413218921397E+03    0.93136E-05   -0.13168E-05  4081   0.514E-03    0.444E-03
RMM:  10    -0.413218919056E+03    0.23408E-05   -0.28813E-06  2712   0.234E-03    0.261E-03
RMM:  11    -0.413218916172E+03    0.28839E-05   -0.11050E-06  2495   0.171E-03    0.135E-03
RMM:  12    -0.413218912051E+03    0.41211E-05   -0.74329E-07  2420   0.138E-03    0.661E-04
RMM:  13    -0.413218909383E+03    0.26679E-05   -0.34459E-07  1914   0.969E-04    0.302E-04
RMM:  14    -0.413218907072E+03    0.23109E-05   -0.19884E-07  1473   0.764E-04    0.175E-04
RMM:  15    -0.413218902830E+03    0.42423E-05   -0.17748E-07  1405   0.745E-04    0.132E-04
RMM:  16    -0.413218900859E+03    0.19711E-05   -0.10345E-07  1195   0.658E-04    0.890E-05
RMM:  17    -0.413218897077E+03    0.37811E-05   -0.10734E-07  1406   0.673E-04    0.565E-05
RMM:  18    -0.413218895035E+03    0.20420E-05   -0.61558E-08  1088   0.581E-04    0.313E-05
RMM:  19    -0.413218894128E+03    0.90760E-06   -0.33967E-08   853   0.534E-04
   47 T=    72. E= -.41286730E+03 F= -.41321889E+03 E0= -.41319796E+03  EK= 0.35159E+00 SP= 0.00E+00 SK= 0.00E+00
       N       E                     dE             d eps       ncg     rms          rms(c)
RMM:   1    -0.413236952637E+03   -0.18058E-01   -0.88423E+00  4311   0.149E+00    0.968E-01
RMM:   2    -0.413223853445E+03    0.13099E-01   -0.14042E-01  4434   0.181E-01    0.709E-01
RMM:   3    -0.413233889854E+03   -0.10036E-01   -0.37383E-02  5109   0.141E-01    0.544E-01
RMM:   4    -0.413234974638E+03   -0.10848E-02   -0.45096E-02  5014   0.189E-01    0.550E-01
RMM:   5    -0.413217255065E+03    0.17720E-01   -0.54652E-03  4577   0.931E-02    0.566E-02
RMM:   6    -0.413217193588E+03    0.61477E-04   -0.11558E-03  5288   0.342E-02    0.298E-02
RMM:   7    -0.413217202392E+03   -0.88042E-05   -0.20824E-04  5505   0.147E-02    0.173E-02
RMM:   8    -0.413217202913E+03   -0.52053E-06   -0.11215E-04  5167   0.110E-02    0.108E-02
RMM:   9    -0.413217190046E+03    0.12867E-04   -0.14035E-05  4164   0.522E-03    0.428E-03
RMM:  10    -0.413217186922E+03    0.31241E-05   -0.29856E-06  2717   0.235E-03    0.237E-03
RMM:  11    -0.413217181860E+03    0.50624E-05   -0.11327E-06  2475   0.176E-03    0.123E-03
RMM:  12    -0.413217177011E+03    0.48486E-05   -0.57190E-07  2345   0.129E-03    0.670E-04
RMM:  13    -0.413217173102E+03    0.39087E-05   -0.27359E-07  1776   0.907E-04    0.322E-04
RMM:  14    -0.413217169058E+03    0.40438E-05   -0.16028E-07  1397   0.741E-04    0.177E-04
RMM:  15    -0.413217164469E+03    0.45899E-05   -0.12779E-07  1384   0.711E-04    0.137E-04
RMM:  16    -0.413217161875E+03    0.25933E-05   -0.80392E-08  1192   0.628E-04    0.101E-04
RMM:  17    -0.413217156919E+03    0.49568E-05   -0.87930E-08  1360   0.641E-04    0.702E-05
RMM:  18    -0.413217155677E+03    0.12410E-05   -0.34045E-08   835   0.526E-04    0.521E-05
RMM:  19    -0.413217154298E+03    0.13796E-05   -0.25844E-08   774   0.523E-04    0.228E-05
RMM:  20    -0.413217153448E+03    0.85021E-06   -0.18614E-08   708   0.516E-04
   48 T=    71. E= -.41286740E+03 F= -.41321715E+03 E0= -.41319623E+03  EK= 0.34975E+00 SP= 0.00E+00 SK= 0.00E+00
       N       E                     dE             d eps       ncg     rms          rms(c)
RMM:   1    -0.413236853281E+03   -0.19699E-01   -0.87504E+00  4306   0.162E+00    0.958E-01
RMM:   2    -0.413219865350E+03    0.16988E-01   -0.14334E-01  4496   0.194E-01    0.700E-01
RMM:   3    -0.413236689093E+03   -0.16824E-01   -0.40890E-02  5127   0.158E-01    0.643E-01
RMM:   4    -0.413225687994E+03    0.11001E-01   -0.43699E-02  4976   0.189E-01    0.459E-01
RMM:   5    -0.413213476687E+03    0.12211E-01   -0.38182E-03  4546   0.848E-02    0.573E-02
RMM:   6    -0.413213367633E+03    0.10905E-03   -0.62722E-04  4841   0.284E-02    0.299E-02
RMM:   7    -0.413213371037E+03   -0.34040E-05   -0.18684E-04  5836   0.139E-02    0.133E-02
RMM:   8    -0.413213365470E+03    0.55666E-05   -0.68718E-05  5188   0.936E-03    0.105E-02
RMM:   9    -0.413213359108E+03    0.63623E-05   -0.15552E-05  4301   0.484E-03    0.414E-03
RMM:  10    -0.413213355511E+03    0.35972E-05   -0.25307E-06  2635   0.249E-03    0.238E-03
RMM:  11    -0.413213349780E+03    0.57306E-05   -0.14463E-06  2485   0.200E-03    0.141E-03
RMM:  12    -0.413213345883E+03    0.38973E-05   -0.57494E-07  2409   0.135E-03    0.836E-04
RMM:  13    -0.413213341085E+03    0.47974E-05   -0.32543E-07  2134   0.985E-04    0.530E-04
RMM:  14    -0.413213334972E+03    0.61139E-05   -0.21027E-07  1606   0.790E-04    0.353E-04
RMM:  15    -0.413213331660E+03    0.33120E-05   -0.11601E-07  1189   0.645E-04    0.153E-04
RMM:  16    -0.413213328766E+03    0.28940E-05   -0.92960E-08  1239   0.627E-04    0.106E-04
RMM:  17    -0.413213323795E+03    0.49703E-05   -0.97346E-08  1338   0.650E-04    0.166E-04
RMM:  18    -0.413213323123E+03    0.67178E-06   -0.34731E-08   798   0.525E-04
   49 T=    70. E= -.41286704E+03 F= -.41321332E+03 E0= -.41319241E+03  EK= 0.34629E+00 SP= 0.00E+00 SK= 0.00E+00
       N       E                     dE             d eps       ncg     rms          rms(c)
RMM:   1    -0.413235590956E+03   -0.22267E-01   -0.87267E+00  4307   0.177E+00    0.933E-01
RMM:   2    -0.413215405748E+03    0.20185E-01   -0.15083E-01  4545   0.207E-01    0.700E-01
RMM:   3    -0.413236812256E+03   -0.21407E-01   -0.43747E-02  5137   0.170E-01    0.707E-01
RMM:   4    -0.413219538306E+03    0.17274E-01   -0.45826E-02  4967   0.195E-01    0.432E-01
RMM:   5    -0.413208751207E+03    0.10787E-01   -0.37636E-03  4580   0.864E-02    0.604E-02
RMM:   6    -0.413208602571E+03    0.14864E-03   -0.51165E-04  4749   0.282E-02    0.304E-02
RMM:   7    -0.413208619290E+03   -0.16720E-04   -0.26672E-04  5783   0.172E-02    0.199E-02
RMM:   8    -0.413208598025E+03    0.21266E-04   -0.82537E-05  5091   0.103E-02    0.935E-03
RMM:   9    -0.413208593774E+03    0.42502E-05   -0.14412E-05  4402   0.510E-03    0.438E-03
RMM:  10    -0.413208590688E+03    0.30867E-05   -0.19573E-06  2600   0.228E-03    0.242E-03
RMM:  11    -0.413208586194E+03    0.44934E-05   -0.11615E-06  2506   0.176E-03    0.165E-03
RMM:  12    -0.413208583436E+03    0.27582E-05   -0.44327E-07  2327   0.115E-03    0.864E-04
RMM:  13    -0.413208579253E+03    0.41828E-05   -0.42385E-07  2321   0.102E-03    0.527E-04
RMM:  14    -0.413208575954E+03    0.32996E-05   -0.21496E-07  1406   0.755E-04    0.317E-04
RMM:  15    -0.413208572080E+03    0.38739E-05   -0.18947E-07  1363   0.732E-04    0.150E-04
RMM:  16    -0.413208569717E+03    0.23630E-05   -0.11940E-07  1282   0.655E-04    0.106E-04
[...]
       N       E                     dE             d eps       ncg     rms          rms(c)
RMM:   1    -0.413632625504E+03   -0.11662E+00   -0.14679E+01  4298   0.696E+00    0.103E+00
RMM:   2    -0.413562195302E+03    0.70430E-01   -0.34835E-01  5367   0.707E-01    0.871E-01
RMM:   3    -0.413562585357E+03   -0.39005E-03   -0.47095E-02  5388   0.265E-01    0.503E-01
RMM:   4    -0.413578211918E+03   -0.15627E-01   -0.37158E-02  4922   0.228E-01    0.528E-01
RMM:   5    -0.413566701439E+03    0.11510E-01   -0.21148E-02  5172   0.152E-01    0.325E-01
RMM:   6    -0.413561217094E+03    0.54843E-02   -0.61006E-03  5094   0.997E-02    0.712E-02
RMM:   7    -0.413561158834E+03    0.58260E-04   -0.14104E-03  5744   0.437E-02    0.498E-02
RMM:   8    -0.413561101397E+03    0.57437E-04   -0.40723E-04  5103   0.245E-02    0.327E-02
RMM:   9    -0.413561092831E+03    0.85659E-05   -0.13946E-04  4763   0.156E-02    0.126E-02
RMM:  10    -0.413561103470E+03   -0.10638E-04   -0.49528E-05  5636   0.826E-03    0.827E-03
RMM:  11    -0.413561110686E+03   -0.72164E-05   -0.13602E-05  4172   0.471E-03    0.451E-03
RMM:  12    -0.413561118367E+03   -0.76816E-05   -0.38883E-06  2911   0.302E-03    0.261E-03
RMM:  13    -0.413561126218E+03   -0.78509E-05   -0.20809E-06  2644   0.224E-03    0.122E-03
RMM:  14    -0.413561131987E+03   -0.57685E-05   -0.11725E-06  2543   0.158E-03    0.739E-04
RMM:  15    -0.413561136709E+03   -0.47225E-05   -0.84035E-07  2335   0.122E-03    0.440E-04
RMM:  16    -0.413561141113E+03   -0.44038E-05   -0.83938E-07  2217   0.116E-03    0.260E-04
RMM:  17    -0.413561144327E+03   -0.32143E-05   -0.67874E-07  1979   0.101E-03    0.141E-04
RMM:  18    -0.413561145582E+03   -0.12549E-05   -0.27194E-07  1440   0.717E-04    0.771E-05
RMM:  19    -0.413561147051E+03   -0.14688E-05   -0.22685E-07  1448   0.707E-04    0.589E-05
RMM:  20    -0.413561147679E+03   -0.62785E-06   -0.11214E-07  1164   0.594E-04
  139 T=   138. E= -.41288180E+03 F= -.41356115E+03 E0= -.41353835E+03  EK= 0.67935E+00 SP= 0.00E+00 SK= 0.00E+00
       N       E                     dE             d eps       ncg     rms          rms(c)
RMM:   1    -0.413556961194E+03    0.41859E-02   -0.14291E+01  4298   0.703E+00    0.941E-01
RMM:   2    -0.413509031218E+03    0.47930E-01   -0.33544E-01  5381   0.710E-01    0.871E-01
RMM:   3    -0.413531268296E+03   -0.22237E-01   -0.69964E-02  5781   0.278E-01    0.948E-01
RMM:   4    -0.413506585598E+03    0.24683E-01   -0.25040E-02  4959   0.184E-01    0.488E-01
RMM:   5    -0.413506187219E+03    0.39838E-03   -0.24331E-02  4460   0.210E-01    0.174E-01
RMM:   6    -0.413504907874E+03    0.12793E-02   -0.46461E-03  4897   0.918E-02    0.898E-02
RMM:   7    -0.413504688306E+03    0.21957E-03   -0.12329E-03  5549   0.431E-02    0.637E-02
RMM:   8    -0.413504586158E+03    0.10215E-03   -0.33360E-04  4570   0.242E-02    0.370E-02
RMM:   9    -0.413504569130E+03    0.17028E-04   -0.23136E-04  4579   0.197E-02    0.112E-02
RMM:  10    -0.413504582696E+03   -0.13567E-04   -0.70884E-05  5749   0.944E-03    0.924E-03
RMM:  11    -0.413504586280E+03   -0.35834E-05   -0.13030E-05  4108   0.472E-03    0.493E-03
RMM:  12    -0.413504594611E+03   -0.83316E-05   -0.55516E-06  3135   0.353E-03    0.288E-03
RMM:  13    -0.413504602639E+03   -0.80280E-05   -0.18246E-06  2633   0.224E-03    0.122E-03
RMM:  14    -0.413504608368E+03   -0.57285E-05   -0.11894E-06  2557   0.157E-03    0.659E-04
RMM:  15    -0.413504612655E+03   -0.42868E-05   -0.72517E-07  2138   0.115E-03    0.462E-04
RMM:  16    -0.413504617682E+03   -0.50276E-05   -0.90585E-07  2431   0.124E-03    0.254E-04
RMM:  17    -0.413504620296E+03   -0.26141E-05   -0.45777E-07  1638   0.862E-04    0.151E-04
RMM:  18    -0.413504623266E+03   -0.29697E-05   -0.52669E-07  1938   0.943E-04    0.105E-04
RMM:  19    -0.413504624157E+03   -0.89094E-06   -0.17695E-07  1249   0.655E-04
  140 T=   127. E= -.41288321E+03 F= -.41350462E+03 E0= -.41348192E+03  EK= 0.62141E+00 SP= 0.00E+00 SK= 0.00E+00
       N       E                     dE             d eps       ncg     rms          rms(c)
RMM:   1    -0.413365287666E+03    0.13934E+00   -0.11497E+01  4295   0.641E+00    0.118E+00
RMM:   2    -0.413353494598E+03    0.11793E-01   -0.29157E-01  5387   0.662E-01    0.111E+00
RMM:   3    -0.413369887428E+03   -0.16393E-01   -0.80639E-02  5660   0.296E-01    0.113E+00
RMM:   4    -0.413342078779E+03    0.27809E-01   -0.38218E-02  4896   0.246E-01    0.424E-01
RMM:   5    -0.413342506106E+03   -0.42733E-03   -0.29970E-02  4845   0.220E-01    0.211E-01
RMM:   6    -0.413340208733E+03    0.22974E-02   -0.61330E-03  4883   0.103E-01    0.938E-02
RMM:   7    -0.413339917470E+03    0.29126E-03   -0.10084E-03  5200   0.430E-02    0.574E-02
RMM:   8    -0.413339848338E+03    0.69132E-04   -0.38602E-04  4651   0.256E-02    0.301E-02
RMM:   9    -0.413339847541E+03    0.79659E-06   -0.17945E-04  5142   0.163E-02    0.110E-02
RMM:  10    -0.413339856901E+03   -0.93598E-05   -0.50774E-05  5784   0.779E-03    0.809E-03
RMM:  11    -0.413339860278E+03   -0.33771E-05   -0.10283E-05  3873   0.417E-03    0.423E-03
RMM:  12    -0.413339866987E+03   -0.67083E-05   -0.38477E-06  2886   0.313E-03    0.247E-03
RMM:  13    -0.413339873587E+03   -0.66001E-05   -0.17132E-06  2598   0.214E-03    0.134E-03
RMM:  14    -0.413339877980E+03   -0.43934E-05   -0.92655E-07  2533   0.145E-03    0.614E-04
RMM:  15    -0.413339881271E+03   -0.32902E-05   -0.56464E-07  2081   0.106E-03    0.415E-04
RMM:  16    -0.413339885948E+03   -0.46779E-05   -0.85611E-07  2426   0.123E-03    0.290E-04
RMM:  17    -0.413339887503E+03   -0.15551E-05   -0.30308E-07  1444   0.762E-04    0.159E-04
RMM:  18    -0.413339889709E+03   -0.22052E-05   -0.36362E-07  1717   0.842E-04    0.127E-04
RMM:  19    -0.413339890704E+03   -0.99509E-06   -0.16488E-07  1279   0.663E-04
  141 T=    94. E= -.41287829E+03 F= -.41333989E+03 E0= -.41331701E+03  EK= 0.46160E+00 SP= 0.00E+00 SK= 0.00E+00
       N       E                     dE             d eps       ncg     rms          rms(c)
RMM:   1    -0.413181529821E+03    0.15836E+00   -0.65521E+00  4289   0.493E+00    0.828E-01
RMM:   2    -0.413188188255E+03   -0.66584E-02   -0.16500E-01  5411   0.483E-01    0.802E-01
RMM:   3    -0.413190005612E+03   -0.18174E-02   -0.43095E-02  5659   0.216E-01    0.776E-01
RMM:   4    -0.413178863459E+03    0.11142E-01   -0.19626E-02  4902   0.180E-01    0.312E-01
RMM:   5    -0.413179275821E+03   -0.41236E-03   -0.18906E-02  4832   0.172E-01    0.173E-01
RMM:   6    -0.413177614780E+03    0.16610E-02   -0.36933E-03  4838   0.807E-02    0.754E-02
RMM:   7    -0.413177463242E+03    0.15154E-03   -0.55778E-04  5267   0.317E-02    0.465E-02
RMM:   8    -0.413177419591E+03    0.43651E-04   -0.27575E-04  4591   0.215E-02    0.216E-02
RMM:   9    -0.413177423925E+03   -0.43334E-05   -0.11797E-04  5425   0.128E-02    0.888E-03
RMM:  10    -0.413177426995E+03   -0.30707E-05   -0.25088E-05  4964   0.555E-03    0.603E-03
RMM:  11    -0.413177428144E+03   -0.11486E-05   -0.52944E-06  3130   0.327E-03    0.331E-03
RMM:  12    -0.413177430985E+03   -0.28409E-05   -0.21091E-06  2634   0.241E-03    0.185E-03
RMM:  13    -0.413177434240E+03   -0.32558E-05   -0.99678E-07  2525   0.168E-03    0.104E-03
RMM:  14    -0.413177436704E+03   -0.24633E-05   -0.60122E-07  2342   0.122E-03    0.405E-04
RMM:  15    -0.413177438197E+03   -0.14936E-05   -0.35309E-07  1901   0.924E-04    0.262E-04
RMM:  16    -0.413177440325E+03   -0.21278E-05   -0.42869E-07  2013   0.952E-04    0.176E-04
RMM:  17    -0.413177441247E+03   -0.92227E-06   -0.19207E-07  1355   0.715E-04
  142 T=    64. E= -.41286089E+03 F= -.41317744E+03 E0= -.41315442E+03  EK= 0.31655E+00 SP= 0.00E+00 SK= 0.00E+00
       N       E                     dE             d eps       ncg     rms          rms(c)
RMM:   1    -0.413250475041E+03   -0.73035E-01   -0.49800E+00  4264   0.432E+00    0.652E-01
RMM:   2    -0.413246338653E+03    0.41364E-02   -0.12814E-01  5405   0.440E-01    0.589E-01
RMM:   3    -0.413250586699E+03   -0.42480E-02   -0.25491E-02  5518   0.180E-01    0.499E-01
RMM:   4    -0.413253202330E+03   -0.26156E-02   -0.20542E-02  5347   0.142E-01    0.475E-01
RMM:   5    -0.413244088956E+03    0.91134E-02   -0.10819E-02  4421   0.145E-01    0.101E-01
RMM:   6    -0.413243823758E+03    0.26520E-03   -0.17868E-03  5281   0.538E-02    0.475E-02
RMM:   7    -0.413243801287E+03    0.22471E-04   -0.37793E-04  5405   0.221E-02    0.296E-02
RMM:   8    -0.413243799857E+03    0.14298E-05   -0.21697E-04  5136   0.172E-02    0.199E-02
RMM:   9    -0.413243795841E+03    0.40165E-05   -0.83544E-05  5172   0.111E-02    0.897E-03
RMM:  10    -0.413243793636E+03    0.22051E-05   -0.16646E-05  4487   0.518E-03    0.577E-03
RMM:  11    -0.413243794682E+03   -0.10460E-05   -0.45626E-06  3017   0.308E-03    0.279E-03
RMM:  12    -0.413243795876E+03   -0.11945E-05   -0.13411E-06  2541   0.207E-03    0.139E-03
RMM:  13    -0.413243796817E+03   -0.94065E-06   -0.60330E-07  2433   0.133E-03
  143 T=    76. E= -.41287059E+03 F= -.41324380E+03 E0= -.41322082E+03  EK= 0.37320E+00 SP= 0.00E+00 SK= 0.00E+00
       N       E                     dE             d eps       ncg     rms          rms(c)
RMM:   1    -0.413448086630E+03   -0.20429E+00   -0.91885E+00  4293   0.581E+00    0.150E+00
RMM:   2    -0.413440453832E+03    0.76328E-02   -0.32461E-01  5364   0.722E-01    0.137E+00
RMM:   3    -0.413496568260E+03   -0.56114E-01   -0.13786E-01  5404   0.392E-01    0.154E+00
RMM:   4    -0.413423418510E+03    0.73150E-01   -0.10431E-01  5150   0.363E-01    0.666E-01
RMM:   5    -0.413416190387E+03    0.72281E-02   -0.29409E-02  4702   0.243E-01    0.200E-01
RMM:   6    -0.413415048162E+03    0.11422E-02   -0.10463E-02  5155   0.125E-01    0.117E-01
RMM:   7    -0.413414410186E+03    0.63798E-03   -0.21233E-03  5007   0.602E-02    0.569E-02
RMM:   8    -0.413414338093E+03    0.72093E-04   -0.35594E-04  4726   0.261E-02    0.294E-02
RMM:   9    -0.413414339942E+03   -0.18497E-05   -0.17866E-04  5494   0.158E-02    0.151E-02
RMM:  10    -0.413414340083E+03   -0.14112E-06   -0.44871E-05  5521   0.789E-03    0.937E-03
RMM:  11    -0.413414341276E+03   -0.11924E-05   -0.19354E-05  4640   0.532E-03    0.496E-03
RMM:  12    -0.413414342277E+03   -0.10015E-05   -0.38648E-06  2867   0.302E-03    0.252E-03
RMM:  13    -0.413414343363E+03   -0.10861E-05   -0.17107E-06  2570   0.207E-03    0.131E-03
RMM:  14    -0.413414344452E+03   -0.10890E-05   -0.79611E-07  2453   0.150E-03    0.572E-04
RMM:  15    -0.413414345036E+03   -0.58364E-06   -0.42708E-07  2032   0.103E-03
  144 T=   107. E= -.41288728E+03 F= -.41341435E+03 E0= -.41339178E+03  EK= 0.52707E+00 SP= 0.00E+00 SK= 0.00E+00
       N       E                     dE             d eps       ncg     rms          rms(c)
RMM:   1    -0.413501889712E+03   -0.87545E-01   -0.11887E+01  4295   0.652E+00    0.157E+00
RMM:   2    -0.413472285884E+03    0.29604E-01   -0.42185E-01  5363   0.818E-01    0.147E+00
RMM:   3    -0.413528736319E+03   -0.56450E-01   -0.14947E-01  5437   0.417E-01    0.159E+00
RMM:   4    -0.413454678248E+03    0.74058E-01   -0.10687E-01  5167   0.364E-01    0.766E-01
RMM:   5    -0.413445806965E+03    0.88713E-02   -0.28999E-02  4520   0.251E-01    0.207E-01
RMM:   6    -0.413445137058E+03    0.66991E-03   -0.10276E-02  5124   0.126E-01    0.123E-01
RMM:   7    -0.413444441704E+03    0.69535E-03   -0.28728E-03  5021   0.669E-02    0.642E-02
RMM:   8    -0.413444327128E+03    0.11458E-03   -0.39520E-04  4698   0.286E-02    0.359E-02
RMM:   9    -0.413444322931E+03    0.41967E-05   -0.22122E-04  5219   0.189E-02    0.167E-02
RMM:  10    -0.413444324405E+03   -0.14738E-05   -0.57643E-05  5527   0.900E-03    0.937E-03
RMM:  11    -0.413444326930E+03   -0.25249E-05   -0.21563E-05  4771   0.558E-03    0.549E-03
RMM:  12    -0.413444328782E+03   -0.18524E-05   -0.42434E-06  2915   0.307E-03    0.279E-03
RMM:  13    -0.413444330747E+03   -0.19651E-05   -0.22713E-06  2658   0.228E-03    0.146E-03
RMM:  14    -0.413444332557E+03   -0.18096E-05   -0.10522E-06  2492   0.167E-03    0.743E-04
RMM:  15    -0.413444333508E+03   -0.95110E-06   -0.57900E-07  2230   0.115E-03
  145 T=   114. E= -.41288277E+03 F= -.41344433E+03 E0= -.41342271E+03  EK= 0.56156E+00 SP= 0.00E+00 SK= 0.00E+00
       N       E                     dE             d eps       ncg     rms          rms(c)
RMM:   1    -0.413427888096E+03    0.16444E-01   -0.10520E+01  4293   0.603E+00    0.112E+00
RMM:   2    -0.413389428160E+03    0.38460E-01   -0.33847E-01  5370   0.711E-01    0.106E+00
RMM:   3    -0.413420264580E+03   -0.30836E-01   -0.87807E-02  5508   0.328E-01    0.112E+00
RMM:   4    -0.413382788553E+03    0.37476E-01   -0.52413E-02  5207   0.251E-01    0.610E-01
RMM:   5    -0.413376609208E+03    0.61793E-02   -0.17060E-02  4336   0.195E-01    0.170E-01
RMM:   6    -0.413376252189E+03    0.35702E-03   -0.37944E-03  4899   0.833E-02    0.754E-02
RMM:   7    -0.413376240516E+03    0.11672E-04   -0.14602E-03  5485   0.442E-02    0.577E-02
RMM:   8    -0.413376113338E+03    0.12718E-03   -0.39078E-04  4899   0.250E-02    0.335E-02
RMM:   9    -0.413376110994E+03    0.23438E-05   -0.17149E-04  4879   0.176E-02    0.139E-02
RMM:  10    -0.413376114064E+03   -0.30694E-05   -0.41835E-05  5353   0.777E-03    0.794E-03
RMM:  11    -0.413376116548E+03   -0.24842E-05   -0.12379E-05  4231   0.460E-03    0.406E-03
RMM:  12    -0.413376118832E+03   -0.22843E-05   -0.25748E-06  2698   0.248E-03    0.268E-03
RMM:  13    -0.413376120846E+03   -0.20136E-05   -0.13181E-06  2566   0.186E-03    0.123E-03
RMM:  14    -0.413376122329E+03   -0.14828E-05   -0.81131E-07  2414   0.138E-03    0.674E-04
RMM:  15    -0.413376123453E+03   -0.11244E-05   -0.58657E-07  2086   0.108E-03    0.342E-04
RMM:  16    -0.413376123936E+03   -0.48293E-06   -0.36791E-07  1713   0.874E-04
  146 T=   103. E= -.41286913E+03 F= -.41337612E+03 E0= -.41335558E+03  EK= 0.50699E+00 SP= 0.00E+00 SK= 0.00E+00
       N       E                     dE             d eps       ncg     rms          rms(c)
RMM:   1    -0.413441359991E+03   -0.65237E-01   -0.93072E+00  4283   0.549E+00    0.720E-01
RMM:   2    -0.413401275798E+03    0.40084E-01   -0.27645E-01  5411   0.613E-01    0.709E-01
RMM:   3    -0.413412882269E+03   -0.11606E-01   -0.51413E-02  5617   0.246E-01    0.759E-01
RMM:   4    -0.413395421871E+03    0.17460E-01   -0.21433E-02  5222   0.168E-01    0.409E-01
RMM:   5    -0.413393185217E+03    0.22367E-02   -0.10562E-02  4323   0.147E-01    0.146E-01
RMM:   6    -0.413393042987E+03    0.14223E-03   -0.28459E-03  4836   0.709E-02    0.558E-02
RMM:   7    -0.413393073396E+03   -0.30409E-04   -0.92664E-04  5677   0.350E-02    0.482E-02
RMM:   8    -0.413392996771E+03    0.76625E-04   -0.30656E-04  5010   0.210E-02    0.290E-02
RMM:   9    -0.413392992961E+03    0.38099E-05   -0.13941E-04  4488   0.161E-02    0.102E-02
RMM:  10    -0.413392997331E+03   -0.43695E-05   -0.29024E-05  5027   0.659E-03    0.684E-03
RMM:  11    -0.413392999015E+03   -0.16835E-05   -0.68319E-06  3381   0.375E-03    0.345E-03
RMM:  12    -0.413393000396E+03   -0.13810E-05   -0.15236E-06  2568   0.211E-03    0.185E-03
RMM:  13    -0.413393001911E+03   -0.15154E-05   -0.10602E-06  2530   0.164E-03    0.818E-04
RMM:  14    -0.413393002678E+03   -0.76745E-06   -0.60692E-07  2272   0.115E-03
  147 T=   107. E= -.41286875E+03 F= -.41339300E+03 E0= -.41337327E+03  EK= 0.52425E+00 SP= 0.00E+00 SK= 0.00E+00
       N       E                     dE             d eps       ncg     rms          rms(c)
RMM:   1    -0.413561396705E+03   -0.16839E+00   -0.11634E+01  4281   0.621E+00    0.102E+00
RMM:   2    -0.413512614720E+03    0.48782E-01   -0.35194E-01  5413   0.703E-01    0.939E-01
RMM:   3    -0.413536312045E+03   -0.23697E-01   -0.77332E-02  5589   0.300E-01    0.103E+00
RMM:   4    -0.413506094927E+03    0.30217E-01   -0.41168E-02  5131   0.235E-01    0.507E-01
RMM:   5    -0.413502785675E+03    0.33093E-02   -0.20284E-02  4388   0.199E-01    0.147E-01
RMM:   6    -0.413502320746E+03    0.46493E-03   -0.31924E-03  5106   0.766E-02    0.745E-02
RMM:   7    -0.413502242027E+03    0.78718E-04   -0.11291E-03  5393   0.395E-02    0.562E-02
RMM:   8    -0.413502135240E+03    0.10679E-03   -0.39659E-04  4796   0.253E-02    0.313E-02
RMM:   9    -0.413502126315E+03    0.89243E-05   -0.20307E-04  4718   0.184E-02    0.158E-02
RMM:  10    -0.413502128040E+03   -0.17249E-05   -0.53331E-05  5546   0.867E-03    0.947E-03
RMM:  11    -0.413502129497E+03   -0.14562E-05   -0.13775E-05  4224   0.487E-03    0.439E-03
RMM:  12    -0.413502131286E+03   -0.17897E-05   -0.26888E-06  2751   0.256E-03    0.224E-03
RMM:  13    -0.413502132681E+03   -0.13945E-05   -0.12013E-06  2539   0.177E-03    0.117E-03
RMM:  14    -0.413502133664E+03   -0.98300E-06   -0.76399E-07  2417   0.139E-03
  148 T=   126. E= -.41288079E+03 F= -.41350213E+03 E0= -.41348284E+03  EK= 0.62134E+00 SP= 0.00E+00 SK= 0.00E+00
       N       E                     dE             d eps       ncg     rms          rms(c)
RMM:   1    -0.413616378564E+03   -0.11425E+00   -0.14418E+01  4280   0.697E+00    0.135E+00
RMM:   2    -0.413548120300E+03    0.68258E-01   -0.45286E-01  5389   0.808E-01    0.119E+00
RMM:   3    -0.413600423407E+03   -0.52303E-01   -0.11592E-01  5487   0.370E-01    0.130E+00
RMM:   4    -0.413551616007E+03    0.48807E-01   -0.79707E-02  5158   0.307E-01    0.677E-01
RMM:   5    -0.413540464229E+03    0.11152E-01   -0.32079E-02  4490   0.248E-01    0.157E-01
RMM:   6    -0.413539672308E+03    0.79192E-03   -0.32721E-03  5083   0.828E-02    0.803E-02
RMM:   7    -0.413539532251E+03    0.14006E-03   -0.79912E-04  4978   0.360E-02    0.480E-02
RMM:   8    -0.413539492689E+03    0.39561E-04   -0.45402E-04  4926   0.270E-02    0.268E-02
RMM:   9    -0.413539489807E+03    0.28823E-05   -0.13784E-04  5441   0.138E-02    0.148E-02
RMM:  10    -0.413539492458E+03   -0.26512E-05   -0.43532E-05  5393   0.771E-03    0.746E-03
RMM:  11    -0.413539492608E+03   -0.14958E-06   -0.15406E-05  4470   0.449E-03    0.546E-03
RMM:  12    -0.413539494762E+03   -0.21543E-05   -0.30606E-06  2777   0.283E-03    0.259E-03
RMM:  13    -0.413539496747E+03   -0.19845E-05   -0.20869E-06  2623   0.223E-03    0.152E-03
RMM:  14    -0.413539498513E+03   -0.17664E-05   -0.89653E-07  2486   0.163E-03    0.684E-04
RMM:  15    -0.413539499424E+03   -0.91105E-06   -0.42570E-07  2154   0.105E-03
  149 T=   133. E= -.41288608E+03 F= -.41353950E+03 E0= -.41352029E+03  EK= 0.65341E+00 SP= 0.00E+00 SK= 0.00E+00
       N       E                     dE             d eps       ncg     rms          rms(c)
RMM:   1    -0.413502158019E+03    0.37340E-01   -0.13684E+01  4269   0.678E+00    0.143E+00
RMM:   2    -0.413445660543E+03    0.56497E-01   -0.44450E-01  5366   0.778E-01    0.122E+00
RMM:   3    -0.413476937653E+03   -0.31277E-01   -0.97427E-02  5367   0.363E-01    0.101E+00
RMM:   4    -0.413499929780E+03   -0.22992E-01   -0.12196E-01  5222   0.344E-01    0.102E+00
RMM:   5    -0.413444143123E+03    0.55787E-01   -0.52788E-02  4851   0.292E-01    0.197E-01
RMM:   6    -0.413443202488E+03    0.94064E-03   -0.12196E-02  5519   0.131E-01    0.115E-01
RMM:   7    -0.413442590099E+03    0.61239E-03   -0.24287E-03  5147   0.591E-02    0.590E-02
RMM:   8    -0.413442543987E+03    0.46112E-04   -0.72312E-04  5593   0.325E-02    0.344E-02
RMM:   9    -0.413442538462E+03    0.55252E-05   -0.29938E-04  5430   0.207E-02    0.227E-02
RMM:  10    -0.413442532149E+03    0.63123E-05   -0.75193E-05  5583   0.108E-02    0.102E-02
RMM:  11    -0.413442533225E+03   -0.10758E-05   -0.30358E-05  5199   0.616E-03    0.708E-03
RMM:  12    -0.413442533747E+03   -0.52207E-06   -0.47936E-06  2986   0.338E-03
  150 T=   116. E= -.41287369E+03 F= -.41344253E+03 E0= -.41342324E+03  EK= 0.56884E+00 SP= 0.00E+00 SK= 0.00E+00
