       N       E                     dE             d eps       ncg     rms          rms(c)
RMM:   1     0.220075570977E+04    0.22008E+04   -0.52445E+04  2132   0.654E+02
RMM:   2     0.705139340642E+03   -0.14956E+04   -0.16263E+04  2132   0.177E+02
RMM:   3     0.137719102065E+03   -0.56742E+03   -0.65678E+03  2132   0.117E+02
RMM:   4    -0.159091808259E+03   -0.29681E+03   -0.27804E+03  2132   0.935E+01
RMM:   5    -0.287437749463E+03   -0.12835E+03   -0.11447E+03  2132   0.595E+01
RMM:   6    -0.349875418418E+03   -0.62438E+02   -0.55194E+02  2132   0.423E+01
RMM:   7    -0.382732772372E+03   -0.32857E+02   -0.30413E+02  2132   0.293E+01
RMM:   8    -0.404209634095E+03   -0.21477E+02   -0.18398E+02  2132   0.233E+01
RMM:   9    -0.436036016285E+03   -0.31826E+02   -0.30691E+02  6106   0.173E+01
RMM:  10    -0.441351309839E+03   -0.53153E+01   -0.63220E+01  6393   0.540E+00
RMM:  11    -0.442525913810E+03   -0.11746E+01   -0.10939E+01  6212   0.173E+00
RMM:  12    -0.442883624541E+03   -0.35771E+00   -0.25397E+00  6357   0.593E-01    0.134E+02
RMM:  13    -0.425627234594E+03    0.17256E+02   -0.81373E+01  4679   0.119E+01    0.712E+01
RMM:  14    -0.500000754925E+03   -0.74374E+02   -0.54549E+02  5422   0.233E+01    0.307E+01
RMM:  15    -0.414213256640E+03    0.85787E+02   -0.19549E+02  5052   0.163E+01    0.612E+00
RMM:  16    -0.414043138157E+03    0.17012E+00   -0.39354E+01  6078   0.605E+00    0.426E+00
RMM:  17    -0.413228092968E+03    0.81505E+00   -0.23128E+00  5359   0.180E+00    0.247E+00
RMM:  18    -0.413164814943E+03    0.63278E-01   -0.90090E-01  5946   0.977E-01    0.158E+00
RMM:  19    -0.413167373824E+03   -0.25589E-02   -0.30615E-01  5739   0.585E-01    0.848E-01
RMM:  20    -0.413178520351E+03   -0.11147E-01   -0.16625E-01  5311   0.459E-01    0.480E-01
RMM:  21    -0.413166870050E+03    0.11650E-01   -0.30106E-02  5027   0.207E-01    0.241E-01
RMM:  22    -0.413165479553E+03    0.13905E-02   -0.12536E-02  6158   0.931E-02    0.150E-01
RMM:  23    -0.413163990468E+03    0.14891E-02   -0.47528E-03  5799   0.628E-02    0.840E-02
RMM:  24    -0.413162582496E+03    0.14080E-02   -0.22030E-03  5744   0.468E-02    0.375E-02
RMM:  25    -0.413162426436E+03    0.15606E-03   -0.76658E-04  5637   0.239E-02    0.277E-02
RMM:  26    -0.413162658327E+03   -0.23189E-03   -0.55444E-04  5828   0.249E-02    0.300E-02
RMM:  27    -0.413163083226E+03   -0.42490E-03   -0.17653E-04  4551   0.190E-02    0.153E-02
RMM:  28    -0.413163555552E+03   -0.47233E-03   -0.16785E-04  5284   0.188E-02    0.925E-03
RMM:  29    -0.413163941811E+03   -0.38626E-03   -0.96124E-05  4330   0.150E-02    0.414E-03
RMM:  30    -0.413164148571E+03   -0.20676E-03   -0.71200E-05  4175   0.949E-03    0.268E-03
RMM:  31    -0.413164263317E+03   -0.11475E-03   -0.45203E-05  3143   0.627E-03    0.228E-03
RMM:  32    -0.413164289424E+03   -0.26107E-04   -0.19766E-05  2945   0.301E-03    0.122E-03
RMM:  33    -0.413164297162E+03   -0.77382E-05   -0.78926E-06  2753   0.199E-03    0.544E-04
RMM:  34    -0.413164299130E+03   -0.19679E-05   -0.39650E-06  2610   0.145E-03    0.711E-04
RMM:  35    -0.413164298960E+03    0.17054E-06   -0.18744E-06  2075   0.104E-03
    1 T=    61. E= -.41286651E+03 F= -.41316430E+03 E0= -.41314180E+03  EK= 0.29779E+00 SP= 0.00E+00 SK= 0.00E+00
       N       E                     dE             d eps       ncg     rms          rms(c)
RMM:   1    -0.413157405092E+03    0.68940E-02   -0.10419E+01  4002   0.672E-01    0.885E-01
RMM:   2    -0.413166566299E+03   -0.91612E-02   -0.12781E-01  3951   0.947E-02    0.644E-01
RMM:   3    -0.413164326442E+03    0.22399E-02   -0.89419E-03  4853   0.410E-02    0.134E-01
RMM:   4    -0.413191525000E+03   -0.27199E-01   -0.28746E-02  5214   0.141E-01    0.687E-01
RMM:   5    -0.413163836479E+03    0.27689E-01   -0.13591E-02  4839   0.116E-01    0.420E-02
RMM:   6    -0.413164019628E+03   -0.18315E-03   -0.22808E-03  5808   0.464E-02    0.263E-02
RMM:   7    -0.413164035634E+03   -0.16006E-04   -0.34368E-04  5857   0.162E-02    0.172E-02
RMM:   8    -0.413164039859E+03   -0.42249E-05   -0.53970E-05  5024   0.742E-03    0.803E-03
RMM:   9    -0.413164043086E+03   -0.32273E-05   -0.11663E-05  3697   0.371E-03    0.589E-03
RMM:  10    -0.413164048330E+03   -0.52437E-05   -0.19678E-06  2594   0.197E-03    0.388E-03
RMM:  11    -0.413164055246E+03   -0.69167E-05   -0.15719E-06  2549   0.182E-03    0.180E-03
RMM:  12    -0.413164062366E+03   -0.71195E-05   -0.13927E-06  2525   0.165E-03    0.735E-04
RMM:  13    -0.413164063154E+03   -0.78876E-06   -0.47284E-07  2158   0.105E-03
    2 T=    61. E= -.41286625E+03 F= -.41316406E+03 E0= -.41314156E+03  EK= 0.29781E+00 SP= 0.00E+00 SK= 0.00E+00
       N       E                     dE             d eps       ncg     rms          rms(c)
RMM:   1    -0.413158434377E+03    0.56280E-02   -0.10446E+01  4189   0.677E-01    0.908E-01
RMM:   2    -0.413166611832E+03   -0.81775E-02   -0.12574E-01  3940   0.934E-02    0.638E-01
RMM:   3    -0.413164703479E+03    0.19084E-02   -0.89399E-03  4797   0.376E-02    0.139E-01
RMM:   4    -0.413186083472E+03   -0.21380E-01   -0.21789E-02  5187   0.123E-01    0.611E-01
RMM:   5    -0.413164418698E+03    0.21665E-01   -0.10542E-02  4839   0.102E-01    0.400E-02
RMM:   6    -0.413164561121E+03   -0.14242E-03   -0.18050E-03  5822   0.410E-02    0.258E-02
RMM:   7    -0.413164565504E+03   -0.43822E-05   -0.28025E-04  5771   0.155E-02    0.163E-02
RMM:   8    -0.413164561958E+03    0.35452E-05   -0.47614E-05  4925   0.725E-03    0.777E-03
RMM:   9    -0.413164561209E+03    0.74929E-06   -0.96025E-06  3569   0.353E-03
    3 T=    61. E= -.41286642E+03 F= -.41316456E+03 E0= -.41314207E+03  EK= 0.29814E+00 SP= 0.00E+00 SK= 0.00E+00
       N       E                     dE             d eps       ncg     rms          rms(c)
RMM:   1    -0.413157851956E+03    0.67100E-02   -0.10365E+01  4223   0.678E-01    0.892E-01
RMM:   2    -0.413166448440E+03   -0.85965E-02   -0.12501E-01  4327   0.956E-02    0.632E-01
RMM:   3    -0.413172686337E+03   -0.62379E-02   -0.15457E-02  5202   0.903E-02    0.408E-01
RMM:   4    -0.413181437674E+03   -0.87513E-02   -0.34321E-02  5095   0.161E-01    0.546E-01
RMM:   5    -0.413164378234E+03    0.17059E-01   -0.59913E-03  4641   0.916E-02    0.564E-02
RMM:   6    -0.413164304713E+03    0.73521E-04   -0.11675E-03  5305   0.349E-02    0.258E-02
RMM:   7    -0.413164323581E+03   -0.18869E-04   -0.26018E-04  5982   0.158E-02    0.163E-02
RMM:   8    -0.413164322113E+03    0.14684E-05   -0.49518E-05  5216   0.801E-03    0.679E-03
RMM:   9    -0.413164321460E+03    0.65277E-06   -0.10599E-05  3914   0.405E-03    0.366E-03
RMM:  10    -0.413164322574E+03   -0.11145E-05   -0.12137E-06  2525   0.193E-03    0.224E-03
RMM:  11    -0.413164324719E+03   -0.21449E-05   -0.12075E-06  2523   0.175E-03    0.138E-03
RMM:  12    -0.413164325912E+03   -0.11926E-05   -0.56609E-07  2421   0.123E-03    0.481E-04
RMM:  13    -0.413164326704E+03   -0.79201E-06   -0.28197E-07  1630   0.809E-04
    4 T=    61. E= -.41286616E+03 F= -.41316433E+03 E0= -.41314184E+03  EK= 0.29817E+00 SP= 0.00E+00 SK= 0.00E+00
       N       E                     dE             d eps       ncg     rms          rms(c)
RMM:   1    -0.413157761684E+03    0.65642E-02   -0.10412E+01  4235   0.684E-01    0.883E-01
RMM:   2    -0.413166948611E+03   -0.91869E-02   -0.12796E-01  4025   0.944E-02    0.643E-01
RMM:   3    -0.413164792023E+03    0.21566E-02   -0.89193E-03  4895   0.409E-02    0.138E-01
RMM:   4    -0.413194678006E+03   -0.29886E-01   -0.30798E-02  5168   0.146E-01    0.721E-01
RMM:   5    -0.413164286850E+03    0.30391E-01   -0.14695E-02  4818   0.120E-01    0.432E-02
RMM:   6    -0.413164479194E+03   -0.19234E-03   -0.24602E-03  5765   0.480E-02    0.265E-02
RMM:   7    -0.413164493927E+03   -0.14733E-04   -0.34962E-04  5826   0.163E-02    0.172E-02
RMM:   8    -0.413164497171E+03   -0.32435E-05   -0.53428E-05  5019   0.744E-03    0.813E-03
RMM:   9    -0.413164499516E+03   -0.23456E-05   -0.11488E-05  3739   0.378E-03    0.592E-03
RMM:  10    -0.413164503862E+03   -0.43459E-05   -0.17050E-06  2568   0.198E-03    0.390E-03
RMM:  11    -0.413164509668E+03   -0.58062E-05   -0.15598E-06  2563   0.188E-03    0.177E-03
RMM:  12    -0.413164515124E+03   -0.54556E-05   -0.12695E-06  2518   0.166E-03    0.725E-04
RMM:  13    -0.413164515556E+03   -0.43209E-06   -0.36462E-07  2152   0.103E-03
    5 T=    61. E= -.41286623E+03 F= -.41316452E+03 E0= -.41314204E+03  EK= 0.29828E+00 SP= 0.00E+00 SK= 0.00E+00
       N       E                     dE             d eps       ncg     rms          rms(c)
RMM:   1    -0.413158710576E+03    0.58045E-02   -0.10444E+01  4250   0.689E-01    0.903E-01
RMM:   2    -0.413167102597E+03   -0.83920E-02   -0.12599E-01  4094   0.962E-02    0.640E-01
RMM:   3    -0.413165179089E+03    0.19235E-02   -0.89209E-03  4755   0.400E-02    0.137E-01
RMM:   4    -0.413187021966E+03   -0.21843E-01   -0.22175E-02  5162   0.124E-01    0.619E-01
RMM:   5    -0.413164825665E+03    0.22196E-01   -0.10882E-02  4830   0.103E-01    0.398E-02
RMM:   6    -0.413164970370E+03   -0.14470E-03   -0.18322E-03  5796   0.411E-02    0.255E-02
RMM:   7    -0.413164975673E+03   -0.53036E-05   -0.27748E-04  5750   0.153E-02    0.162E-02
RMM:   8    -0.413164972348E+03    0.33257E-05   -0.48227E-05  4915   0.729E-03    0.784E-03
RMM:   9    -0.413164971277E+03    0.10710E-05   -0.96871E-06  3590   0.359E-03    0.608E-03
RMM:  10    -0.413164971997E+03   -0.72059E-06   -0.13621E-06  2541   0.194E-03
    6 T=    61. E= -.41286647E+03 F= -.41316497E+03 E0= -.41314251E+03  EK= 0.29850E+00 SP= 0.00E+00 SK= 0.00E+00
       N       E                     dE             d eps       ncg     rms          rms(c)
RMM:   1    -0.413158486835E+03    0.64844E-02   -0.10388E+01  4256   0.691E-01    0.899E-01
RMM:   2    -0.413166766439E+03   -0.82796E-02   -0.12515E-01  4184   0.938E-02    0.633E-01
RMM:   3    -0.413167020986E+03   -0.25455E-03   -0.10468E-02  5097   0.590E-02    0.238E-01
RMM:   4    -0.413201762222E+03   -0.34741E-01   -0.45084E-02  5134   0.178E-01    0.795E-01
RMM:   5    -0.413164639065E+03    0.37123E-01   -0.16520E-02  4775   0.132E-01    0.561E-02
RMM:   6    -0.413164764831E+03   -0.12577E-03   -0.27430E-03  5625   0.522E-02    0.267E-02
RMM:   7    -0.413164785570E+03   -0.20740E-04   -0.39727E-04  6033   0.168E-02    0.172E-02
RMM:   8    -0.413164785171E+03    0.39920E-06   -0.64640E-05  5272   0.833E-03    0.788E-03
RMM:   9    -0.413164782012E+03    0.31591E-05   -0.10962E-05  3550   0.373E-03    0.387E-03
RMM:  10    -0.413164782258E+03   -0.24632E-06   -0.25716E-06  2622   0.223E-03
    7 T=    61. E= -.41286627E+03 F= -.41316478E+03 E0= -.41314233E+03  EK= 0.29851E+00 SP= 0.00E+00 SK= 0.00E+00
       N       E                     dE             d eps       ncg     rms          rms(c)
RMM:   1    -0.413159492051E+03    0.52900E-02   -0.10396E+01  4264   0.714E-01    0.882E-01
RMM:   2    -0.413167708259E+03   -0.82162E-02   -0.12748E-01  4155   0.945E-02    0.640E-01
RMM:   3    -0.413166600993E+03    0.11073E-02   -0.96374E-03  5065   0.521E-02    0.193E-01
RMM:   4    -0.413209574170E+03   -0.42973E-01   -0.49250E-02  5145   0.185E-01    0.866E-01
RMM:   5    -0.413165065221E+03    0.44509E-01   -0.20679E-02  4805   0.145E-01    0.528E-02
RMM:   6    -0.413165270061E+03   -0.20484E-03   -0.33214E-03  5738   0.572E-02    0.269E-02
RMM:   7    -0.413165294375E+03   -0.24314E-04   -0.45919E-04  6003   0.180E-02    0.186E-02
RMM:   8    -0.413165298579E+03   -0.42042E-05   -0.72695E-05  5235   0.847E-03    0.908E-03
RMM:   9    -0.413165298976E+03   -0.39659E-06   -0.14064E-05  3868   0.409E-03    0.506E-03
RMM:  10    -0.413165302520E+03   -0.35440E-05   -0.27427E-06  2630   0.221E-03    0.343E-03
RMM:  11    -0.413165305954E+03   -0.34338E-05   -0.11981E-06  2521   0.169E-03    0.174E-03
RMM:  12    -0.413165309590E+03   -0.36361E-05   -0.11215E-06  2525   0.155E-03    0.481E-04
RMM:  13    -0.413165310915E+03   -0.13250E-05   -0.48610E-07  2170   0.110E-03    0.404E-04
RMM:  14    -0.413165310973E+03   -0.58102E-07   -0.21670E-07  1641   0.798E-04
    8 T=    61. E= -.41286652E+03 F= -.41316531E+03 E0= -.41314288E+03  EK= 0.29879E+00 SP= 0.00E+00 SK= 0.00E+00
       N       E                     dE             d eps       ncg     rms          rms(c)
RMM:   1    -0.413159094115E+03    0.62168E-02   -0.10441E+01  4280   0.702E-01    0.898E-01
RMM:   2    -0.413167799304E+03   -0.87052E-02   -0.12669E-01  4165   0.956E-02    0.642E-01
RMM:   3    -0.413165819585E+03    0.19797E-02   -0.90442E-03  4861   0.414E-02    0.142E-01
RMM:   4    -0.413194770945E+03   -0.28951E-01   -0.29866E-02  5152   0.144E-01    0.710E-01
RMM:   5    -0.413165285188E+03    0.29486E-01   -0.14369E-02  4809   0.118E-01    0.435E-02
RMM:   6    -0.413165473758E+03   -0.18857E-03   -0.24166E-03  5766   0.473E-02    0.273E-02
RMM:   7    -0.413165480703E+03   -0.69458E-05   -0.34784E-04  5795   0.164E-02    0.175E-02
RMM:   8    -0.413165478869E+03    0.18344E-05   -0.52787E-05  5003   0.747E-03    0.831E-03
RMM:   9    -0.413165477721E+03    0.11480E-05   -0.11184E-05  3704   0.375E-03    0.610E-03
RMM:  10    -0.413165478640E+03   -0.91851E-06   -0.15844E-06  2552   0.197E-03
    9 T=    61. E= -.41286637E+03 F= -.41316548E+03 E0= -.41314307E+03  EK= 0.29911E+00 SP= 0.00E+00 SK= 0.00E+00
       N       E                     dE             d eps       ncg     rms          rms(c)
RMM:   1    -0.413159430131E+03    0.60476E-02   -0.10425E+01  4294   0.705E-01    0.906E-01
RMM:   2    -0.413167525916E+03   -0.80958E-02   -0.12529E-01  4259   0.945E-02    0.635E-01
RMM:   3    -0.413168256434E+03   -0.73052E-03   -0.10990E-02  5084   0.638E-02    0.256E-01
RMM:   4    -0.413199695986E+03   -0.31440E-01   -0.43565E-02  5122   0.175E-01    0.765E-01
RMM:   5    -0.413165435015E+03    0.34261E-01   -0.14943E-02  4751   0.127E-01    0.557E-02
RMM:   6    -0.413165547811E+03   -0.11280E-03   -0.25567E-03  5612   0.500E-02    0.268E-02
RMM:   7    -0.413165564342E+03   -0.16531E-04   -0.37307E-04  6012   0.165E-02    0.171E-02
RMM:   8    -0.413165562042E+03    0.22998E-05   -0.62533E-05  5246   0.831E-03    0.778E-03
RMM:   9    -0.413165557502E+03    0.45401E-05   -0.10258E-05  3474   0.369E-03    0.377E-03
RMM:  10    -0.413165556541E+03    0.96130E-06   -0.23546E-06  2593   0.219E-03
   10 T=    61. E= -.41286611E+03 F= -.41316556E+03 E0= -.41314317E+03  EK= 0.29945E+00 SP= 0.00E+00 SK= 0.00E+00
       N       E                     dE             d eps       ncg     rms          rms(c)
RMM:   1    -0.413159648511E+03    0.59090E-02   -0.10380E+01  4296   0.708E-01    0.883E-01
RMM:   2    -0.413168574200E+03   -0.89257E-02   -0.12667E-01  4228   0.945E-02    0.638E-01
RMM:   3    -0.413167481344E+03    0.10929E-02   -0.94584E-03  5037   0.513E-02    0.187E-01
RMM:   4    -0.413210172526E+03   -0.42691E-01   -0.48326E-02  5139   0.183E-01    0.862E-01
RMM:   5    -0.413166055213E+03    0.44117E-01   -0.20689E-02  4797   0.144E-01    0.522E-02
RMM:   6    -0.413166265044E+03   -0.20983E-03   -0.33493E-03  5730   0.570E-02    0.275E-02
RMM:   7    -0.413166284005E+03   -0.18961E-04   -0.46420E-04  5968   0.182E-02    0.190E-02
RMM:   8    -0.413166284775E+03   -0.76964E-06   -0.72396E-05  5249   0.848E-03    0.929E-03
RMM:   9    -0.413166282754E+03    0.20206E-05   -0.14406E-05  3934   0.415E-03    0.539E-03
RMM:  10    -0.413166284261E+03   -0.15063E-05   -0.27176E-06  2633   0.222E-03    0.361E-03
RMM:  11    -0.413166285746E+03   -0.14850E-05   -0.12037E-06  2515   0.171E-03    0.185E-03
RMM:  12    -0.413166287164E+03   -0.14181E-05   -0.11604E-06  2525   0.161E-03    0.529E-04
RMM:  13    -0.413166287540E+03   -0.37589E-06   -0.47740E-07  2225   0.112E-03
   11 T=    61. E= -.41286638E+03 F= -.41316629E+03 E0= -.41314393E+03  EK= 0.29990E+00 SP= 0.00E+00 SK= 0.00E+00
       N       E                     dE             d eps       ncg     rms          rms(c)
RMM:   1    -0.413159878059E+03    0.64091E-02   -0.10454E+01  4297   0.723E-01    0.894E-01
RMM:   2    -0.413168646436E+03   -0.87684E-02   -0.12785E-01  4229   0.968E-02    0.645E-01
RMM:   3    -0.413166544657E+03    0.21018E-02   -0.90417E-03  4849   0.420E-02    0.139E-01
RMM:   4    -0.413195573229E+03   -0.29029E-01   -0.29995E-02  5147   0.144E-01    0.710E-01
RMM:   5    -0.413166054713E+03    0.29519E-01   -0.14434E-02  4805   0.118E-01    0.426E-02
RMM:   6    -0.413166239152E+03   -0.18444E-03   -0.23742E-03  5779   0.470E-02    0.265E-02
RMM:   7    -0.413166248091E+03   -0.89392E-05   -0.33227E-04  5803   0.163E-02    0.172E-02
RMM:   8    -0.413166246693E+03    0.13980E-05   -0.57625E-05  5016   0.775E-03    0.863E-03
RMM:   9    -0.413166245211E+03    0.14819E-05   -0.11749E-05  3805   0.392E-03    0.628E-03
RMM:  10    -0.413166246358E+03   -0.11468E-05   -0.17156E-06  2565   0.201E-03    0.409E-03
RMM:  11    -0.413166247975E+03   -0.16169E-05   -0.17358E-06  2571   0.202E-03    0.180E-03
RMM:  12    -0.413166249162E+03   -0.11871E-05   -0.11709E-06  2497   0.166E-03    0.744E-04
RMM:  13    -0.413166249212E+03   -0.49986E-07   -0.36420E-07  2150   0.104E-03
   12 T=    61. E= -.41286616E+03 F= -.41316625E+03 E0= -.41314392E+03  EK= 0.30009E+00 SP= 0.00E+00 SK= 0.00E+00
       N       E                     dE             d eps       ncg     rms          rms(c)
RMM:   1    -0.413160828502E+03    0.54207E-02   -0.10453E+01  4298   0.717E-01    0.911E-01
RMM:   2    -0.413168695868E+03   -0.78674E-02   -0.12555E-01  4243   0.943E-02    0.637E-01
RMM:   3    -0.413167107302E+03    0.15886E-02   -0.91379E-03  4854   0.393E-02    0.146E-01
RMM:   4    -0.413193749903E+03   -0.26643E-01   -0.27433E-02  5145   0.137E-01    0.682E-01
RMM:   5    -0.413166648990E+03    0.27101E-01   -0.13315E-02  4810   0.113E-01    0.429E-02
RMM:   6    -0.413166815880E+03   -0.16689E-03   -0.22075E-03  5805   0.451E-02    0.273E-02
RMM:   7    -0.413166817053E+03   -0.11724E-05   -0.31834E-04  5752   0.163E-02    0.174E-02
RMM:   8    -0.413166809773E+03    0.72796E-05   -0.55788E-05  4986   0.774E-03    0.863E-03
RMM:   9    -0.413166805187E+03    0.45862E-05   -0.11135E-05  3759   0.384E-03    0.648E-03
RMM:  10    -0.413166802647E+03    0.25396E-05   -0.15352E-06  2543   0.201E-03    0.416E-03
RMM:  11    -0.413166799281E+03    0.33662E-05   -0.15825E-06  2551   0.195E-03    0.191E-03
RMM:  12    -0.413166795684E+03    0.35972E-05   -0.11939E-06  2505   0.167E-03    0.744E-04
RMM:  13    -0.413166795168E+03    0.51558E-06   -0.36984E-07  2187   0.105E-03
   13 T=    61. E= -.41286628E+03 F= -.41316680E+03 E0= -.41314449E+03  EK= 0.30051E+00 SP= 0.00E+00 SK= 0.00E+00
       N       E                     dE             d eps       ncg     rms          rms(c)
RMM:   1    -0.413160950123E+03    0.58456E-02   -0.10376E+01  4294   0.719E-01    0.887E-01
RMM:   2    -0.413169694421E+03   -0.87443E-02   -0.12643E-01  4249   0.939E-02    0.636E-01
RMM:   3    -0.413167742026E+03    0.19524E-02   -0.88251E-03  4814   0.401E-02    0.138E-01
RMM:   4    -0.413193109814E+03   -0.25368E-01   -0.26116E-02  5144   0.134E-01    0.665E-01
RMM:   5    -0.413167315759E+03    0.25794E-01   -0.12690E-02  4815   0.110E-01    0.412E-02
RMM:   6    -0.413167475781E+03   -0.16002E-03   -0.20827E-03  5810   0.437E-02    0.259E-02
RMM:   7    -0.413167480426E+03   -0.46446E-05   -0.29526E-04  5758   0.157E-02    0.166E-02
RMM:   8    -0.413167476440E+03    0.39852E-05   -0.54399E-05  4970   0.761E-03    0.827E-03
RMM:   9    -0.413167473855E+03    0.25849E-05   -0.11053E-05  3755   0.382E-03    0.624E-03
RMM:  10    -0.413167473557E+03    0.29805E-06   -0.14528E-06  2537   0.196E-03
   14 T=    61. E= -.41286644E+03 F= -.41316747E+03 E0= -.41314520E+03  EK= 0.30103E+00 SP= 0.00E+00 SK= 0.00E+00
       N       E                     dE             d eps       ncg     rms          rms(c)
RMM:   1    -0.413161173070E+03    0.63008E-02   -0.10461E+01  4304   0.733E-01    0.891E-01
RMM:   2    -0.413170131728E+03   -0.89587E-02   -0.12857E-01  4283   0.981E-02    0.647E-01
RMM:   3    -0.413170074137E+03    0.57590E-04   -0.10854E-02  5080   0.616E-02    0.244E-01
RMM:   4    -0.413207563490E+03   -0.37489E-01   -0.49418E-02  5117   0.186E-01    0.824E-01
RMM:   5    -0.413167359155E+03    0.40204E-01   -0.17859E-02  4764   0.137E-01    0.557E-02
RMM:   6    -0.413167498677E+03   -0.13952E-03   -0.29249E-03  5651   0.536E-02    0.258E-02
RMM:   7    -0.413167522982E+03   -0.24305E-04   -0.41343E-04  6011   0.170E-02    0.173E-02
RMM:   8    -0.413167525190E+03   -0.22081E-05   -0.67553E-05  5246   0.842E-03    0.811E-03
RMM:   9    -0.413167523521E+03    0.16693E-05   -0.12148E-05  3632   0.387E-03    0.385E-03
RMM:  10    -0.413167524909E+03   -0.13881E-05   -0.26990E-06  2624   0.222E-03    0.272E-03
RMM:  11    -0.413167526089E+03   -0.11803E-05   -0.11735E-06  2510   0.170E-03    0.140E-03
RMM:  12    -0.413167526828E+03   -0.73914E-06   -0.76834E-07  2452   0.135E-03
   15 T=    61. E= -.41286614E+03 F= -.41316753E+03 E0= -.41314529E+03  EK= 0.30138E+00 SP= 0.00E+00 SK= 0.00E+00
       N       E                     dE             d eps       ncg     rms          rms(c)
RMM:   1    -0.413162604033E+03    0.49221E-02   -0.10480E+01  4301   0.730E-01    0.912E-01
RMM:   2    -0.413170671106E+03   -0.80671E-02   -0.12624E-01  4257   0.967E-02    0.640E-01
RMM:   3    -0.413169026242E+03    0.16449E-02   -0.93526E-03  4921   0.434E-02    0.155E-01
RMM:   4    -0.413203432825E+03   -0.34407E-01   -0.36077E-02  5140   0.157E-01    0.772E-01
RMM:   5    -0.413168346597E+03    0.35086E-01   -0.17146E-02  4804   0.129E-01    0.467E-02
RMM:   6    -0.413168543901E+03   -0.19730E-03   -0.28185E-03  5768   0.516E-02    0.291E-02
RMM:   7    -0.413168546575E+03   -0.26739E-05   -0.39272E-04  5805   0.177E-02    0.189E-02
RMM:   8    -0.413168539542E+03    0.70327E-05   -0.65745E-05  5083   0.826E-03    0.949E-03
RMM:   9    -0.413168533571E+03    0.59707E-05   -0.13595E-05  3976   0.413E-03    0.670E-03
RMM:  10    -0.413168530209E+03    0.33619E-05   -0.19603E-06  2580   0.210E-03    0.433E-03
RMM:  11    -0.413168526552E+03    0.36576E-05   -0.14522E-06  2529   0.189E-03    0.211E-03
RMM:  12    -0.413168521767E+03    0.47848E-05   -0.14064E-06  2532   0.181E-03    0.782E-04
RMM:  13    -0.413168520783E+03    0.98372E-06   -0.41923E-07  2264   0.115E-03
   16 T=    62. E= -.41286638E+03 F= -.41316852E+03 E0= -.41314632E+03  EK= 0.30214E+00 SP= 0.00E+00 SK= 0.00E+00
       N       E                     dE             d eps       ncg     rms          rms(c)
RMM:   1    -0.413162598939E+03    0.59228E-02   -0.10404E+01  4299   0.731E-01    0.893E-01
RMM:   2    -0.413171229608E+03   -0.86307E-02   -0.12657E-01  4268   0.952E-02    0.636E-01
RMM:   3    -0.413169280277E+03    0.19493E-02   -0.89179E-03  4876   0.408E-02    0.146E-01
RMM:   4    -0.413198881003E+03   -0.29601E-01   -0.30708E-02  5139   0.145E-01    0.717E-01
RMM:   5    -0.413168780666E+03    0.30100E-01   -0.14827E-02  4804   0.120E-01    0.434E-02
RMM:   6    -0.413168953014E+03   -0.17235E-03   -0.24018E-03  5794   0.475E-02    0.270E-02
RMM:   7    -0.413168958925E+03   -0.59105E-05   -0.33472E-04  5792   0.166E-02    0.174E-02
RMM:   8    -0.413168953506E+03    0.54182E-05   -0.61847E-05  5025   0.796E-03    0.896E-03
RMM:   9    -0.413168948747E+03    0.47597E-05   -0.12602E-05  3949   0.405E-03    0.654E-03
RMM:  10    -0.413168946664E+03    0.20830E-05   -0.17290E-06  2563   0.203E-03    0.423E-03
RMM:  11    -0.413168943947E+03    0.27163E-05   -0.15995E-06  2541   0.198E-03    0.198E-03
RMM:  12    -0.413168940916E+03    0.30308E-05   -0.11965E-06  2505   0.170E-03    0.718E-04
RMM:  13    -0.413168940361E+03    0.55585E-06   -0.37479E-07  2190   0.106E-03
   17 T=    62. E= -.41286618E+03 F= -.41316894E+03 E0= -.41314678E+03  EK= 0.30276E+00 SP= 0.00E+00 SK= 0.00E+00
       N       E                     dE             d eps       ncg     rms          rms(c)
RMM:   1    -0.413162934628E+03    0.60063E-02   -0.10475E+01  4299   0.741E-01    0.889E-01
RMM:   2    -0.413172016965E+03   -0.90823E-02   -0.12903E-01  4275   0.976E-02    0.648E-01
RMM:   3    -0.413169800335E+03    0.22166E-02   -0.91963E-03  4864   0.424E-02    0.139E-01
RMM:   4    -0.413200248014E+03   -0.30448E-01   -0.31689E-02  5140   0.148E-01    0.727E-01
RMM:   5    -0.413169236970E+03    0.31011E-01   -0.15233E-02  4802   0.121E-01    0.433E-02
RMM:   6    -0.413169418246E+03   -0.18128E-03   -0.24806E-03  5790   0.481E-02    0.267E-02
RMM:   7    -0.413169427411E+03   -0.91658E-05   -0.33710E-04  5794   0.166E-02    0.173E-02
RMM:   8    -0.413169425326E+03    0.20855E-05   -0.61745E-05  5038   0.794E-03    0.889E-03
RMM:   9    -0.413169422641E+03    0.26852E-05   -0.12813E-05  3943   0.407E-03    0.639E-03
RMM:  10    -0.413169422890E+03   -0.24958E-06   -0.18090E-06  2567   0.203E-03
   18 T=    62. E= -.41286608E+03 F= -.41316942E+03 E0= -.41314730E+03  EK= 0.30334E+00 SP= 0.00E+00 SK= 0.00E+00
       N       E                     dE             d eps       ncg     rms          rms(c)
RMM:   1    -0.413164574193E+03    0.48484E-02   -0.10508E+01  4305   0.741E-01    0.911E-01
RMM:   2    -0.413172810445E+03   -0.82363E-02   -0.12745E-01  4310   0.972E-02    0.644E-01
RMM:   3    -0.413174073723E+03   -0.12633E-02   -0.11782E-02  5102   0.681E-02    0.279E-01
RMM:   4    -0.413203312180E+03   -0.29238E-01   -0.44134E-02  5097   0.176E-01    0.747E-01
RMM:   5    -0.413170554563E+03    0.32758E-01   -0.13958E-02  4720   0.124E-01    0.555E-02
RMM:   6    -0.413170647191E+03   -0.92628E-04   -0.24282E-03  5590   0.489E-02    0.269E-02
RMM:   7    -0.413170659820E+03   -0.12629E-04   -0.35845E-04  6002   0.163E-02    0.173E-02
RMM:   8    -0.413170655287E+03    0.45330E-05   -0.63384E-05  5221   0.839E-03    0.787E-03
RMM:   9    -0.413170648600E+03    0.66872E-05   -0.10336E-05  3514   0.376E-03    0.370E-03
RMM:  10    -0.413170646262E+03    0.23380E-05   -0.22301E-06  2575   0.216E-03    0.253E-03
RMM:  11    -0.413170642488E+03    0.37738E-05   -0.11724E-06  2511   0.173E-03    0.138E-03
RMM:  12    -0.413170639085E+03    0.34024E-05   -0.62631E-07  2434   0.132E-03    0.448E-04
RMM:  13    -0.413170637382E+03    0.17033E-05   -0.30789E-07  1967   0.938E-04    0.273E-04
RMM:  14    -0.413170635864E+03    0.15183E-05   -0.18007E-07  1484   0.765E-04    0.188E-04
RMM:  15    -0.413170633131E+03    0.27323E-05   -0.15783E-07  1343   0.726E-04    0.881E-05
RMM:  16    -0.413170631083E+03    0.20483E-05   -0.11757E-07  1322   0.677E-04    0.857E-05
RMM:  17    -0.413170628415E+03    0.26679E-05   -0.11514E-07  1382   0.663E-04    0.522E-05
RMM:  18    -0.413170626725E+03    0.16902E-05   -0.66923E-08  1069   0.581E-04    0.299E-05
RMM:  19    -0.413170626228E+03    0.49710E-06   -0.31654E-08   813   0.534E-04
   19 T=    62. E= -.41286645E+03 F= -.41317063E+03 E0= -.41314855E+03  EK= 0.30418E+00 SP= 0.00E+00 SK= 0.00E+00
       N       E                     dE             d eps       ncg     rms          rms(c)
RMM:   1    -0.413164940830E+03    0.56859E-02   -0.10449E+01  4299   0.742E-01    0.902E-01
RMM:   2    -0.413173174956E+03   -0.82341E-02   -0.12674E-01  4274   0.988E-02    0.638E-01
RMM:   3    -0.413171642217E+03    0.15327E-02   -0.92775E-03  4925   0.448E-02    0.161E-01
RMM:   4    -0.413209023063E+03   -0.37381E-01   -0.39735E-02  5137   0.165E-01    0.804E-01
RMM:   5    -0.413170838393E+03    0.38185E-01   -0.18581E-02  4790   0.135E-01    0.485E-02
RMM:   6    -0.413171047011E+03   -0.20862E-03   -0.30702E-03  5748   0.539E-02    0.296E-02
RMM:   7    -0.413171051026E+03   -0.40144E-05   -0.42808E-04  5784   0.181E-02    0.194E-02
RMM:   8    -0.413171044371E+03    0.66546E-05   -0.69125E-05  5160   0.844E-03    0.967E-03
RMM:   9    -0.413171037961E+03    0.64103E-05   -0.14608E-05  4050   0.424E-03    0.661E-03
RMM:  10    -0.413171034470E+03    0.34909E-05   -0.21061E-06  2590   0.214E-03    0.430E-03
RMM:  11    -0.413171030891E+03    0.35783E-05   -0.13560E-06  2512   0.185E-03    0.214E-03
RMM:  12    -0.413171026364E+03    0.45277E-05   -0.12988E-06  2511   0.180E-03    0.742E-04
RMM:  13    -0.413171025313E+03    0.10512E-05   -0.43182E-07  2277   0.117E-03    0.536E-04
RMM:  14    -0.413171025177E+03    0.13526E-06   -0.20257E-07  1767   0.807E-04
   20 T=    62. E= -.41286618E+03 F= -.41317103E+03 E0= -.41314899E+03  EK= 0.30484E+00 SP= 0.00E+00 SK= 0.00E+00
       N       E                     dE             d eps       ncg     rms          rms(c)
RMM:   1    -0.413165956933E+03    0.50684E-02   -0.10491E+01  4296   0.763E-01    0.889E-01
RMM:   2    -0.413174832126E+03   -0.88752E-02   -0.12997E-01  4284   0.985E-02    0.648E-01
RMM:   3    -0.413172505015E+03    0.23271E-02   -0.92191E-03  4851   0.426E-02    0.138E-01
RMM:   4    -0.413201988091E+03   -0.29483E-01   -0.30651E-02  5136   0.145E-01    0.715E-01
RMM:   5    -0.413171976769E+03    0.30011E-01   -0.14804E-02  4801   0.119E-01    0.433E-02
RMM:   6    -0.413172150338E+03   -0.17357E-03   -0.24061E-03  5782   0.475E-02    0.269E-02
RMM:   7    -0.413172159137E+03   -0.87992E-05   -0.34258E-04  5753   0.166E-02    0.174E-02
RMM:   8    -0.413172155963E+03    0.31747E-05   -0.60110E-05  5026   0.794E-03    0.874E-03
RMM:   9    -0.413172152607E+03    0.33555E-05   -0.12435E-05  3870   0.400E-03    0.630E-03
RMM:  10    -0.413172152014E+03    0.59297E-06   -0.16566E-06  2556   0.200E-03
   21 T=    62. E= -.41286638E+03 F= -.41317215E+03 E0= -.41315016E+03  EK= 0.30577E+00 SP= 0.00E+00 SK= 0.00E+00
       N       E                     dE             d eps       ncg     rms          rms(c)
RMM:   1    -0.413167305481E+03    0.48471E-02   -0.10547E+01  4298   0.759E-01    0.909E-01
RMM:   2    -0.413175606901E+03   -0.83014E-02   -0.12882E-01  4295   0.982E-02    0.649E-01
RMM:   3    -0.413175767931E+03   -0.16103E-03   -0.11150E-02  5071   0.623E-02    0.249E-01
RMM:   4    -0.413211838900E+03   -0.36071E-01   -0.48301E-02  5110   0.183E-01    0.810E-01
RMM:   5    -0.413173033825E+03    0.38805E-01   -0.17286E-02  4751   0.135E-01    0.553E-02
RMM:   6    -0.413173168682E+03   -0.13486E-03   -0.28921E-03  5652   0.533E-02    0.276E-02
RMM:   7    -0.413173181891E+03   -0.13209E-04   -0.40855E-04  5972   0.173E-02    0.182E-02
RMM:   8    -0.413173177936E+03    0.39553E-05   -0.68432E-05  5218   0.857E-03    0.841E-03
RMM:   9    -0.413173171415E+03    0.65203E-05   -0.12362E-05  3705   0.397E-03    0.416E-03
RMM:  10    -0.413173168855E+03    0.25598E-05   -0.26043E-06  2619   0.222E-03    0.292E-03
RMM:  11    -0.413173165437E+03    0.34181E-05   -0.10461E-06  2492   0.166E-03    0.148E-03
RMM:  12    -0.413173161558E+03    0.38795E-05   -0.70176E-07  2447   0.136E-03    0.413E-04
RMM:  13    -0.413173159567E+03    0.19910E-05   -0.33903E-07  2028   0.977E-04    0.277E-04
RMM:  14    -0.413173158348E+03    0.12185E-05   -0.18387E-07  1535   0.766E-04    0.175E-04
RMM:  15    -0.413173155568E+03    0.27798E-05   -0.14807E-07  1329   0.720E-04    0.958E-05
RMM:  16    -0.413173153566E+03    0.20022E-05   -0.10544E-07  1267   0.671E-04    0.105E-04
RMM:  17    -0.413173151791E+03    0.17753E-05   -0.78251E-08  1176   0.631E-04    0.627E-05
RMM:  18    -0.413173149498E+03    0.22933E-05   -0.72559E-08  1175   0.614E-04    0.410E-05
RMM:  19    -0.413173148652E+03    0.84544E-06   -0.33362E-08   858   0.551E-04
   22 T=    62. E= -.41286642E+03 F= -.41317315E+03 E0= -.41315121E+03  EK= 0.30673E+00 SP= 0.00E+00 SK= 0.00E+00
       N       E                     dE             d eps       ncg     rms          rms(c)
RMM:   1    -0.413167842556E+03    0.53069E-02   -0.10520E+01  4295   0.757E-01    0.911E-01
RMM:   2    -0.413176197693E+03   -0.83551E-02   -0.12780E-01  4281   0.101E-01    0.642E-01
RMM:   3    -0.413174335393E+03    0.18623E-02   -0.94638E-03  4861   0.462E-02    0.155E-01
RMM:   4    -0.413208419634E+03   -0.34084E-01   -0.35699E-02  5141   0.157E-01    0.768E-01
RMM:   5    -0.413173680201E+03    0.34739E-01   -0.17084E-02  4797   0.129E-01    0.469E-02
RMM:   6    -0.413173879693E+03   -0.19949E-03   -0.28729E-03  5782   0.515E-02    0.296E-02
RMM:   7    -0.413173882468E+03   -0.27756E-05   -0.38984E-04  5745   0.180E-02    0.189E-02
RMM:   8    -0.413173874233E+03    0.82352E-05   -0.70111E-05  5115   0.852E-03    0.997E-03
RMM:   9    -0.413173866612E+03    0.76216E-05   -0.14361E-05  4095   0.430E-03    0.704E-03
RMM:  10    -0.413173862018E+03    0.45939E-05   -0.20049E-06  2577   0.213E-03    0.458E-03
RMM:  11    -0.413173857007E+03    0.50112E-05   -0.15105E-06  2523   0.194E-03    0.225E-03
RMM:  12    -0.413173850799E+03    0.62076E-05   -0.13429E-06  2507   0.184E-03    0.754E-04
RMM:  13    -0.413173849333E+03    0.14660E-05   -0.43109E-07  2276   0.117E-03    0.512E-04
RMM:  14    -0.413173849146E+03    0.18725E-06   -0.20597E-07  1764   0.811E-04
   23 T=    63. E= -.41286615E+03 F= -.41317385E+03 E0= -.41315195E+03  EK= 0.30770E+00 SP= 0.00E+00 SK= 0.00E+00
       N       E                     dE             d eps       ncg     rms          rms(c)
RMM:   1    -0.413170401262E+03    0.34481E-02   -0.10534E+01  4299   0.790E-01    0.892E-01
RMM:   2    -0.413178182069E+03   -0.77808E-02   -0.13128E-01  4286   0.105E-01    0.648E-01
RMM:   3    -0.413175643449E+03    0.25386E-02   -0.91573E-03  4726   0.440E-02    0.135E-01
RMM:   4    -0.413198662653E+03   -0.23019E-01   -0.23607E-02  5142   0.128E-01    0.634E-01
RMM:   5    -0.413175301001E+03    0.23362E-01   -0.11648E-02  4809   0.106E-01    0.405E-02
RMM:   6    -0.413175431882E+03   -0.13088E-03   -0.19087E-03  5801   0.418E-02    0.253E-02
RMM:   7    -0.413175437135E+03   -0.52532E-05   -0.26402E-04  5727   0.154E-02    0.153E-02
RMM:   8    -0.413175432666E+03    0.44687E-05   -0.56063E-05  4957   0.770E-03    0.853E-03
RMM:   9    -0.413175428092E+03    0.45742E-05   -0.11245E-05  3856   0.390E-03    0.633E-03
RMM:  10    -0.413175426414E+03    0.16781E-05   -0.14142E-06  2538   0.197E-03    0.412E-03
RMM:  11    -0.413175423776E+03    0.26381E-05   -0.17448E-06  2550   0.210E-03    0.181E-03
RMM:  12    -0.413175421325E+03    0.24512E-05   -0.89582E-07  2449   0.154E-03    0.624E-04
RMM:  13    -0.413175420977E+03    0.34781E-06   -0.30675E-07  2038   0.953E-04
   24 T=    63. E= -.41286640E+03 F= -.41317542E+03 E0= -.41315357E+03  EK= 0.30903E+00 SP= 0.00E+00 SK= 0.00E+00
       N       E                     dE             d eps       ncg     rms          rms(c)
RMM:   1    -0.413170933565E+03    0.44878E-02   -0.10612E+01  4295   0.792E-01    0.907E-01
RMM:   2    -0.413179141332E+03   -0.82078E-02   -0.13124E-01  4282   0.105E-01    0.654E-01
RMM:   3    -0.413176575960E+03    0.25654E-02   -0.93422E-03  4645   0.439E-02    0.131E-01
RMM:   4    -0.413193555810E+03   -0.16980E-01   -0.17426E-02  5143   0.110E-01    0.547E-01
RMM:   5    -0.413176315274E+03    0.17241E-01   -0.85761E-03  4819   0.907E-02    0.382E-02
RMM:   6    -0.413176398472E+03   -0.83198E-04   -0.14230E-03  5816   0.353E-02    0.226E-02
RMM:   7    -0.413176401484E+03   -0.30119E-05   -0.16464E-04  5580   0.125E-02    0.104E-02
RMM:   8    -0.413176395441E+03    0.60434E-05   -0.28541E-05  4682   0.550E-03    0.695E-03
RMM:   9    -0.413176394672E+03    0.76896E-06   -0.71672E-06  3311   0.306E-03
   25 T=    63. E= -.41286622E+03 F= -.41317639E+03 E0= -.41315460E+03  EK= 0.31017E+00 SP= 0.00E+00 SK= 0.00E+00
       N       E                     dE             d eps       ncg     rms          rms(c)
RMM:   1    -0.413171942874E+03    0.44526E-02   -0.10615E+01  4298   0.777E-01    0.921E-01
RMM:   2    -0.413179998763E+03   -0.80559E-02   -0.12925E-01  4353   0.104E-01    0.647E-01
RMM:   3    -0.413185276726E+03   -0.52780E-02   -0.15548E-02  5120   0.906E-02    0.390E-01
RMM:   4    -0.413197595030E+03   -0.12318E-01   -0.36724E-02  5055   0.164E-01    0.586E-01
RMM:   5    -0.413177799826E+03    0.19795E-01   -0.71422E-03  4639   0.974E-02    0.536E-02
RMM:   6    -0.413177784813E+03    0.15013E-04   -0.14568E-03  5471   0.368E-02    0.277E-02
RMM:   7    -0.413177786387E+03   -0.15742E-05   -0.25443E-04  5935   0.152E-02    0.171E-02
RMM:   8    -0.413177777260E+03    0.91268E-05   -0.54265E-05  5092   0.827E-03    0.702E-03
RMM:   9    -0.413177767604E+03    0.96560E-05   -0.80883E-06  3425   0.371E-03    0.348E-03
RMM:  10    -0.413177764060E+03    0.35439E-05   -0.13056E-06  2513   0.196E-03    0.216E-03
RMM:  11    -0.413177756307E+03    0.77537E-05   -0.11451E-06  2505   0.172E-03    0.143E-03
RMM:  12    -0.413177751417E+03    0.48892E-05   -0.48075E-07  2403   0.122E-03    0.466E-04
RMM:  13    -0.413177747349E+03    0.40687E-05   -0.23926E-07  1763   0.845E-04    0.246E-04
RMM:  14    -0.413177743542E+03    0.38066E-05   -0.14675E-07  1375   0.718E-04    0.148E-04
RMM:  15    -0.413177739483E+03    0.40595E-05   -0.11715E-07  1275   0.678E-04    0.991E-05
RMM:  16    -0.413177735164E+03    0.43191E-05   -0.10798E-07  1353   0.665E-04    0.964E-05
RMM:  17    -0.413177730659E+03    0.45050E-05   -0.10307E-07  1313   0.640E-04    0.441E-05
RMM:  18    -0.413177729532E+03    0.11265E-05   -0.43271E-08   899   0.538E-04    0.371E-05
RMM:  19    -0.413177728959E+03    0.57271E-06   -0.24856E-08   767   0.511E-04
   26 T=    63. E= -.41286625E+03 F= -.41317773E+03 E0= -.41315598E+03  EK= 0.31148E+00 SP= 0.00E+00 SK= 0.00E+00
       N       E                     dE             d eps       ncg     rms          rms(c)
RMM:   1    -0.413173503999E+03    0.42255E-02   -0.10576E+01  4290   0.795E-01    0.898E-01
RMM:   2    -0.413181931385E+03   -0.84274E-02   -0.13058E-01  4279   0.104E-01    0.649E-01
RMM:   3    -0.413179765687E+03    0.21657E-02   -0.94219E-03  4753   0.457E-02    0.139E-01
RMM:   4    -0.413205190757E+03   -0.25425E-01   -0.26088E-02  5147   0.134E-01    0.665E-01
RMM:   5    -0.413179357187E+03    0.25834E-01   -0.12870E-02  4809   0.111E-01    0.421E-02
RMM:   6    -0.413179492413E+03   -0.13523E-03   -0.21294E-03  5825   0.431E-02    0.263E-02
RMM:   7    -0.413179497234E+03   -0.48213E-05   -0.26608E-04  5729   0.155E-02    0.148E-02
RMM:   8    -0.413179493806E+03    0.34287E-05   -0.58882E-05  5007   0.771E-03    0.924E-03
RMM:   9    -0.413179487936E+03    0.58692E-05   -0.12432E-05  4027   0.409E-03    0.663E-03
RMM:  10    -0.413179485578E+03    0.23589E-05   -0.16167E-06  2550   0.206E-03    0.430E-03
RMM:  11    -0.413179482353E+03    0.32247E-05   -0.16827E-06  2540   0.205E-03    0.201E-03
RMM:  12    -0.413179478767E+03    0.35855E-05   -0.10487E-06  2472   0.167E-03    0.635E-04
RMM:  13    -0.413179478058E+03    0.70933E-06   -0.36119E-07  2163   0.105E-03
   27 T=    64. E= -.41286646E+03 F= -.41317948E+03 E0= -.41315778E+03  EK= 0.31302E+00 SP= 0.00E+00 SK= 0.00E+00
       N       E                     dE             d eps       ncg     rms          rms(c)
RMM:   1    -0.413176433335E+03    0.30454E-02   -0.10703E+01  4291   0.831E-01    0.906E-01
RMM:   2    -0.413183341878E+03   -0.69085E-02   -0.13516E-01  4278   0.109E-01    0.660E-01
RMM:   3    -0.413180757488E+03    0.25844E-02   -0.95563E-03  4538   0.439E-02    0.127E-01
RMM:   4    -0.413192014085E+03   -0.11257E-01   -0.11669E-02  5152   0.910E-02    0.447E-01
RMM:   5    -0.413180630012E+03    0.11384E-01   -0.57021E-03  4824   0.732E-02    0.358E-02
RMM:   6    -0.413180667864E+03   -0.37851E-04   -0.96682E-04  5850   0.286E-02    0.214E-02
RMM:   7    -0.413180674990E+03   -0.71261E-05   -0.18098E-04  5534   0.131E-02    0.141E-02
RMM:   8    -0.413180660881E+03    0.14109E-04   -0.29828E-05  4638   0.624E-03    0.628E-03
RMM:   9    -0.413180659510E+03    0.13708E-05   -0.59942E-06  3150   0.302E-03    0.501E-03
RMM:  10    -0.413180657259E+03    0.22505E-05   -0.11138E-06  2499   0.187E-03    0.295E-03
RMM:  11    -0.413180654481E+03    0.27789E-05   -0.85520E-07  2479   0.155E-03    0.147E-03
RMM:  12    -0.413180651288E+03    0.31922E-05   -0.56767E-07  2335   0.122E-03    0.530E-04
RMM:  13    -0.413180650333E+03    0.95539E-06   -0.22513E-07  1825   0.834E-04
   28 T=    64. E= -.41286617E+03 F= -.41318065E+03 E0= -.41315900E+03  EK= 0.31448E+00 SP= 0.00E+00 SK= 0.00E+00
       N       E                     dE             d eps       ncg     rms          rms(c)
RMM:   1    -0.413177015892E+03    0.36354E-02   -0.10720E+01  4291   0.798E-01    0.928E-01
RMM:   2    -0.413185014981E+03   -0.79991E-02   -0.13150E-01  4274   0.106E-01    0.653E-01
RMM:   3    -0.413182751178E+03    0.22638E-02   -0.98697E-03  4457   0.467E-02    0.135E-01
RMM:   4    -0.413191202231E+03   -0.84511E-02   -0.88845E-03  5154   0.789E-02    0.387E-01
RMM:   5    -0.413182700800E+03    0.85014E-02   -0.43428E-03  4834   0.637E-02    0.364E-02
RMM:   6    -0.413182723406E+03   -0.22606E-04   -0.76405E-04  5833   0.260E-02    0.224E-02
RMM:   7    -0.413182719497E+03    0.39088E-05   -0.19564E-04  5414   0.139E-02    0.146E-02
RMM:   8    -0.413182703635E+03    0.15862E-04   -0.21243E-05  4385   0.577E-03    0.616E-03
RMM:   9    -0.413182700026E+03    0.36096E-05   -0.43143E-06  2933   0.263E-03    0.451E-03
RMM:  10    -0.413182694474E+03    0.55516E-05   -0.12857E-06  2488   0.191E-03    0.248E-03
RMM:  11    -0.413182688010E+03    0.64639E-05   -0.81726E-07  2465   0.155E-03    0.119E-03
RMM:  12    -0.413182682675E+03    0.53349E-05   -0.43144E-07  2244   0.113E-03    0.560E-04
RMM:  13    -0.413182680417E+03    0.22584E-05   -0.20678E-07  1754   0.811E-04    0.263E-04
RMM:  14    -0.413182677276E+03    0.31408E-05   -0.12476E-07  1380   0.698E-04    0.168E-04
RMM:  15    -0.413182672190E+03    0.50862E-05   -0.10354E-07  1329   0.680E-04    0.969E-05
RMM:  16    -0.413182670634E+03    0.15555E-05   -0.49037E-08   963   0.596E-04    0.763E-05
RMM:  17    -0.413182666569E+03    0.40650E-05   -0.67453E-08  1213   0.626E-04    0.433E-05
RMM:  18    -0.413182664313E+03    0.22564E-05   -0.40131E-08   985   0.569E-04    0.233E-05
RMM:  19    -0.413182663990E+03    0.32263E-06   -0.14462E-08   709   0.517E-04
   29 T=    64. E= -.41286637E+03 F= -.41318266E+03 E0= -.41316107E+03  EK= 0.31629E+00 SP= 0.00E+00 SK= 0.00E+00
       N       E                     dE             d eps       ncg     rms          rms(c)
RMM:   1    -0.413178362115E+03    0.43022E-02   -0.10669E+01  4284   0.806E-01    0.908E-01
RMM:   2    -0.413187178344E+03   -0.88162E-02   -0.13272E-01  4273   0.112E-01    0.652E-01
RMM:   3    -0.413184659059E+03    0.25193E-02   -0.96822E-03  4458   0.490E-02    0.131E-01
RMM:   4    -0.413193397417E+03   -0.87384E-02   -0.92180E-03  5156   0.809E-02    0.395E-01
RMM:   5    -0.413184559213E+03    0.88382E-02   -0.45111E-03  4831   0.649E-02    0.359E-02
RMM:   6    -0.413184584388E+03   -0.25175E-04   -0.77525E-04  5828   0.263E-02    0.228E-02
RMM:   7    -0.413184584343E+03    0.45533E-07   -0.20111E-04  5401   0.140E-02    0.146E-02
RMM:   8    -0.413184569682E+03    0.14661E-04   -0.22408E-05  4432   0.588E-03    0.615E-03
RMM:   9    -0.413184567423E+03    0.22588E-05   -0.42780E-06  2929   0.263E-03    0.448E-03
RMM:  10    -0.413184563846E+03    0.35774E-05   -0.12388E-06  2488   0.186E-03    0.249E-03
RMM:  11    -0.413184559878E+03    0.39677E-05   -0.79387E-07  2459   0.150E-03    0.121E-03
RMM:  12    -0.413184556416E+03    0.34620E-05   -0.44716E-07  2250   0.113E-03    0.571E-04
RMM:  13    -0.413184554938E+03    0.14782E-05   -0.20084E-07  1721   0.805E-04    0.254E-04
RMM:  14    -0.413184552930E+03    0.20081E-05   -0.11626E-07  1280   0.685E-04    0.154E-04
RMM:  15    -0.413184549882E+03    0.30479E-05   -0.87236E-08  1171   0.657E-04    0.732E-05
RMM:  16    -0.413184548754E+03    0.11275E-05   -0.46468E-08   930   0.602E-04    0.607E-05
RMM:  17    -0.413184546432E+03    0.23217E-05   -0.50873E-08  1041   0.609E-04    0.383E-05
RMM:  18    -0.413184544377E+03    0.20555E-05   -0.41590E-08  1016   0.587E-04    0.276E-05
RMM:  19    -0.413184543887E+03    0.49018E-06   -0.15661E-08   703   0.534E-04
   30 T=    65. E= -.41286640E+03 F= -.41318454E+03 E0= -.41316300E+03  EK= 0.31814E+00 SP= 0.00E+00 SK= 0.00E+00
       N       E                     dE             d eps       ncg     rms          rms(c)
RMM:   1    -0.413183200997E+03    0.13434E-02   -0.10819E+01  4291   0.870E-01    0.909E-01
RMM:   2    -0.413189455430E+03   -0.62544E-02   -0.14112E-01  4277   0.122E-01    0.666E-01
RMM:   3    -0.413186167142E+03    0.32883E-02   -0.98350E-03  4384   0.506E-02    0.128E-01
RMM:   4    -0.413191458770E+03   -0.52916E-02   -0.58731E-03  5148   0.649E-02    0.306E-01
RMM:   5    -0.413186187711E+03    0.52711E-02   -0.26655E-03  4827   0.503E-02    0.340E-02
RMM:   6    -0.413186203749E+03   -0.16038E-04   -0.52058E-04  5763   0.220E-02    0.228E-02
RMM:   7    -0.413186199977E+03    0.37717E-05   -0.18430E-04  5263   0.134E-02    0.135E-02
RMM:   8    -0.413186190138E+03    0.98391E-05   -0.14647E-05  4035   0.506E-03    0.577E-03
RMM:   9    -0.413186188956E+03    0.11817E-05   -0.24393E-06  2667   0.218E-03    0.374E-03
RMM:  10    -0.413186186732E+03    0.22242E-05   -0.11530E-06  2480   0.171E-03    0.193E-03
RMM:  11    -0.413186184799E+03    0.19335E-05   -0.64657E-07  2402   0.131E-03    0.909E-04
RMM:  12    -0.413186182944E+03    0.18546E-05   -0.34852E-07  2071   0.985E-04    0.405E-04
RMM:  13    -0.413186181739E+03    0.12046E-05   -0.17155E-07  1445   0.746E-04    0.219E-04
RMM:  14    -0.413186180218E+03    0.15211E-05   -0.10779E-07  1149   0.671E-04    0.140E-04
RMM:  15    -0.413186177924E+03    0.22947E-05   -0.92990E-08  1141   0.659E-04    0.681E-05
RMM:  16    -0.413186177131E+03    0.79202E-06   -0.45386E-08   898   0.596E-04
   31 T=    65. E= -.41286616E+03 F= -.41318618E+03 E0= -.41316468E+03  EK= 0.32002E+00 SP= 0.00E+00 SK= 0.00E+00
       N       E                     dE             d eps       ncg     rms          rms(c)
RMM:   1    -0.413183165295E+03    0.30126E-02   -0.10848E+01  4291   0.835E-01    0.934E-01
RMM:   2    -0.413191458364E+03   -0.82931E-02   -0.13556E-01  4283   0.122E-01    0.662E-01
RMM:   3    -0.413188794198E+03    0.26642E-02   -0.10184E-02  4282   0.522E-02    0.132E-01
RMM:   4    -0.413190464974E+03   -0.16708E-02   -0.24641E-03  5109   0.414E-02    0.173E-01
RMM:   5    -0.413188824208E+03    0.16408E-02   -0.85501E-04  4811   0.291E-02    0.352E-02
RMM:   6    -0.413188831966E+03   -0.77581E-05   -0.31402E-04  5518   0.178E-02    0.255E-02
RMM:   7    -0.413188805713E+03    0.26253E-04   -0.16744E-04  4980   0.128E-02    0.133E-02
RMM:   8    -0.413188800615E+03    0.50984E-05   -0.13565E-05  3770   0.447E-03    0.511E-03
RMM:   9    -0.413188798664E+03    0.19507E-05   -0.19089E-06  2507   0.202E-03    0.293E-03
RMM:  10    -0.413188791624E+03    0.70400E-05   -0.85370E-07  2449   0.152E-03    0.139E-03
RMM:  11    -0.413188787397E+03    0.42270E-05   -0.41775E-07  2146   0.104E-03    0.558E-04
RMM:  12    -0.413188782658E+03    0.47387E-05   -0.24551E-07  1851   0.855E-04    0.236E-04
RMM:  13    -0.413188779729E+03    0.29290E-05   -0.12338E-07  1296   0.687E-04    0.161E-04
RMM:  14    -0.413188775322E+03    0.44073E-05   -0.85297E-08  1110   0.649E-04    0.106E-04
RMM:  15    -0.413188771039E+03    0.42827E-05   -0.78436E-08  1200   0.642E-04    0.792E-05
RMM:  16    -0.413188768551E+03    0.24887E-05   -0.47585E-08   998   0.584E-04    0.629E-05
RMM:  17    -0.413188765879E+03    0.26720E-05   -0.39373E-08   933   0.564E-04    0.279E-05
RMM:  18    -0.413188765179E+03    0.70000E-06   -0.15752E-08   660   0.519E-04
   32 T=    66. E= -.41286650E+03 F= -.41318877E+03 E0= -.41316732E+03  EK= 0.32226E+00 SP= 0.00E+00 SK= 0.00E+00
       N       E                     dE             d eps       ncg     rms          rms(c)
RMM:   1    -0.413189671299E+03   -0.90542E-03   -0.10859E+01  4283   0.875E-01    0.922E-01
RMM:   2    -0.413193502382E+03   -0.38311E-02   -0.13522E-01  4283   0.127E-01    0.657E-01
RMM:   3    -0.413190644568E+03    0.28578E-02   -0.10012E-02  4255   0.489E-02    0.131E-01
RMM:   4    -0.413191814922E+03   -0.11704E-02   -0.19449E-03  5097   0.376E-02    0.142E-01
RMM:   5    -0.413190733637E+03    0.10813E-02   -0.56662E-04  4771   0.242E-02    0.348E-02
RMM:   6    -0.413190734391E+03   -0.75367E-06   -0.25773E-04  5479   0.164E-02    0.251E-02
RMM:   7    -0.413190713513E+03    0.20878E-04   -0.16534E-04  4935   0.122E-02    0.142E-02
RMM:   8    -0.413190707998E+03    0.55146E-05   -0.13231E-05  3742   0.441E-03    0.530E-03
RMM:   9    -0.413190706416E+03    0.15817E-05   -0.22092E-06  2457   0.198E-03    0.256E-03
RMM:  10    -0.413190700024E+03    0.63929E-05   -0.82039E-07  2363   0.146E-03    0.121E-03
RMM:  11    -0.413190696400E+03    0.36234E-05   -0.35068E-07  1990   0.971E-04    0.583E-04
RMM:  12    -0.413190691810E+03    0.45899E-05   -0.22105E-07  1640   0.819E-04    0.222E-04
RMM:  13    -0.413190688752E+03    0.30584E-05   -0.10392E-07  1097   0.663E-04    0.144E-04
RMM:  14    -0.413190684634E+03    0.41177E-05   -0.80204E-08  1022   0.637E-04    0.115E-04
RMM:  15    -0.413190680065E+03    0.45690E-05   -0.73520E-08  1079   0.627E-04    0.600E-05
RMM:  16    -0.413190678001E+03    0.20642E-05   -0.39352E-08   803   0.559E-04    0.534E-05
RMM:  17    -0.413190676148E+03    0.18531E-05   -0.25969E-08   683   0.536E-04    0.214E-05
RMM:  18    -0.413190675408E+03    0.73995E-06   -0.16717E-08   584   0.517E-04
   33 T=    66. E= -.41286630E+03 F= -.41319068E+03 E0= -.41316928E+03  EK= 0.32437E+00 SP= 0.00E+00 SK= 0.00E+00
       N       E                     dE             d eps       ncg     rms          rms(c)
RMM:   1    -0.413198663092E+03   -0.79869E-02   -0.11021E+01  4298   0.955E-01    0.913E-01
RMM:   2    -0.413196120791E+03    0.25423E-02   -0.15407E-01  4278   0.136E-01    0.672E-01
RMM:   3    -0.413193174163E+03    0.29466E-02   -0.96403E-03  4251   0.540E-02    0.144E-01
RMM:   4    -0.413194175346E+03   -0.10012E-02   -0.20430E-03  5077   0.375E-02    0.134E-01
RMM:   5    -0.413193221414E+03    0.95393E-03   -0.50460E-04  4750   0.228E-02    0.341E-02
RMM:   6    -0.413193223584E+03   -0.21698E-05   -0.23875E-04  5477   0.158E-02    0.241E-02
RMM:   7    -0.413193208425E+03    0.15159E-04   -0.16426E-04  4911   0.122E-02    0.142E-02
RMM:   8    -0.413193203365E+03    0.50597E-05   -0.12231E-05  3523   0.420E-03    0.506E-03
RMM:   9    -0.413193202575E+03    0.79023E-06   -0.19893E-06  2458   0.193E-03
   34 T=    67. E= -.41286639E+03 F= -.41319320E+03 E0= -.41317185E+03  EK= 0.32682E+00 SP= 0.00E+00 SK= 0.00E+00
       N       E                     dE             d eps       ncg     rms          rms(c)
RMM:   1    -0.413190879482E+03    0.23239E-02   -0.10998E+01  4302   0.890E-01    0.938E-01
RMM:   2    -0.413198625406E+03   -0.77459E-02   -0.14135E-01  4269   0.130E-01    0.671E-01
RMM:   3    -0.413195882362E+03    0.27430E-02   -0.10229E-02  4310   0.534E-02    0.134E-01
RMM:   4    -0.413196293790E+03   -0.41143E-03   -0.14284E-03  5091   0.277E-02    0.855E-02
RMM:   5    -0.413195942735E+03    0.35106E-03   -0.25329E-04  4781   0.162E-02    0.386E-02
RMM:   6    -0.413195923586E+03    0.19148E-04   -0.20184E-04  5290   0.145E-02    0.274E-02
RMM:   7    -0.413195902020E+03    0.21566E-04   -0.17429E-04  4718   0.112E-02    0.156E-02
RMM:   8    -0.413195896712E+03    0.53080E-05   -0.12307E-05  3551   0.414E-03    0.576E-03
RMM:   9    -0.413195895223E+03    0.14884E-05   -0.29334E-06  2341   0.191E-03    0.224E-03
RMM:  10    -0.413195884423E+03    0.10801E-04   -0.11392E-06  2256   0.147E-03    0.625E-04
RMM:  11    -0.413195880220E+03    0.42029E-05   -0.31760E-07  1813   0.925E-04    0.327E-04
RMM:  12    -0.413195877073E+03    0.31470E-05   -0.15866E-07  1416   0.739E-04    0.236E-04
RMM:  13    -0.413195871876E+03    0.51967E-05   -0.93970E-08   976   0.640E-04    0.116E-04
RMM:  14    -0.413195865379E+03    0.64974E-05   -0.87388E-08  1069   0.649E-04    0.143E-04
RMM:  15    -0.413195862016E+03    0.33632E-05   -0.50594E-08   893   0.583E-04    0.127E-04
RMM:  16    -0.413195858185E+03    0.38310E-05   -0.45067E-08   858   0.567E-04    0.450E-05
RMM:  17    -0.413195857084E+03    0.11009E-05   -0.16571E-08   576   0.506E-04    0.379E-05
RMM:  18    -0.413195856053E+03    0.10312E-05   -0.13818E-08   536   0.503E-04    0.176E-05
RMM:  19    -0.413195855874E+03    0.17913E-06   -0.57967E-09   430   0.490E-04
   35 T=    67. E= -.41286653E+03 F= -.41319586E+03 E0= -.41317455E+03  EK= 0.32932E+00 SP= 0.00E+00 SK= 0.00E+00
       N       E                     dE             d eps       ncg     rms          rms(c)
RMM:   1    -0.413192882941E+03    0.29731E-02   -0.10991E+01  4298   0.914E-01    0.938E-01
RMM:   2    -0.413200401647E+03   -0.75187E-02   -0.14156E-01  4261   0.131E-01    0.665E-01
RMM:   3    -0.413198052154E+03    0.23495E-02   -0.10383E-02  4607   0.551E-02    0.150E-01
RMM:   4    -0.413217950933E+03   -0.19899E-01   -0.20151E-02  5163   0.120E-01    0.592E-01
RMM:   5    -0.413197885086E+03    0.20066E-01   -0.10195E-02  4808   0.984E-02    0.428E-02
RMM:   6    -0.413197897448E+03   -0.12362E-04   -0.16601E-03  5833   0.391E-02    0.274E-02
RMM:   7    -0.413197905752E+03   -0.83042E-05   -0.28115E-04  5593   0.160E-02    0.164E-02
RMM:   8    -0.413197891005E+03    0.14747E-04   -0.50647E-05  4970   0.773E-03    0.823E-03
RMM:   9    -0.413197887850E+03    0.31555E-05   -0.10547E-05  3797   0.393E-03    0.581E-03
RMM:  10    -0.413197881906E+03    0.59430E-05   -0.14611E-06  2536   0.209E-03    0.336E-03
RMM:  11    -0.413197876882E+03    0.50245E-05   -0.89578E-07  2489   0.156E-03    0.188E-03
RMM:  12    -0.413197868294E+03    0.85881E-05   -0.10074E-06  2480   0.163E-03    0.915E-04
RMM:  13    -0.413197864767E+03    0.35273E-05   -0.37615E-07  2195   0.108E-03    0.504E-04
RMM:  14    -0.413197863883E+03    0.88310E-06   -0.16861E-07  1573   0.755E-04
   36 T=    68. E= -.41286618E+03 F= -.41319786E+03 E0= -.41317660E+03  EK= 0.33169E+00 SP= 0.00E+00 SK= 0.00E+00
       N       E                     dE             d eps       ncg     rms          rms(c)
RMM:   1    -0.413217505735E+03   -0.19641E-01   -0.11265E+01  4303   0.106E+00    0.920E-01
RMM:   2    -0.413204240123E+03    0.13266E-01   -0.16881E-01  4259   0.139E-01    0.678E-01
RMM:   3    -0.413201118681E+03    0.31214E-02   -0.94022E-03  4614   0.534E-02    0.174E-01
RMM:   4    -0.413222059673E+03   -0.20941E-01   -0.21464E-02  5163   0.124E-01    0.607E-01
RMM:   5    -0.413200917829E+03    0.21142E-01   -0.10693E-02  4806   0.101E-01    0.431E-02
RMM:   6    -0.413200935443E+03   -0.17614E-04   -0.17630E-03  5838   0.398E-02    0.276E-02
RMM:   7    -0.413200946416E+03   -0.10974E-04   -0.28900E-04  5614   0.159E-02    0.162E-02
RMM:   8    -0.413200933071E+03    0.13345E-04   -0.55628E-05  4998   0.802E-03    0.820E-03
RMM:   9    -0.413200930824E+03    0.22474E-05   -0.11578E-05  3912   0.412E-03    0.553E-03
RMM:  10    -0.413200926759E+03    0.40642E-05   -0.15861E-06  2564   0.208E-03    0.334E-03
RMM:  11    -0.413200923078E+03    0.36816E-05   -0.97484E-07  2495   0.159E-03    0.182E-03
RMM:  12    -0.413200916968E+03    0.61095E-05   -0.10412E-06  2483   0.160E-03    0.838E-04
RMM:  13    -0.413200914532E+03    0.24365E-05   -0.38533E-07  2168   0.107E-03    0.493E-04
RMM:  14    -0.413200913878E+03    0.65420E-06   -0.17570E-07  1539   0.755E-04
   37 T=    68. E= -.41286645E+03 F= -.41320091E+03 E0= -.41317970E+03  EK= 0.33447E+00 SP= 0.00E+00 SK= 0.00E+00
       N       E                     dE             d eps       ncg     rms          rms(c)
RMM:   1    -0.413206561479E+03   -0.56469E-02   -0.11241E+01  4308   0.105E+00    0.941E-01
RMM:   2    -0.413206794265E+03   -0.23279E-03   -0.15558E-01  4261   0.132E-01    0.682E-01
RMM:   3    -0.413203518572E+03    0.32757E-02   -0.10376E-02  4726   0.542E-02    0.163E-01
RMM:   4    -0.413232874269E+03   -0.29356E-01   -0.29919E-02  5154   0.145E-01    0.715E-01
RMM:   5    -0.413203176806E+03    0.29697E-01   -0.15144E-02  4807   0.119E-01    0.465E-02
RMM:   6    -0.413203219223E+03   -0.42418E-04   -0.23790E-03  5845   0.463E-02    0.293E-02
RMM:   7    -0.413203229853E+03   -0.10629E-04   -0.33521E-04  5705   0.170E-02    0.166E-02
RMM:   8    -0.413203218447E+03    0.11406E-04   -0.64862E-05  5054   0.839E-03    0.953E-03
RMM:   9    -0.413203215074E+03    0.33734E-05   -0.16228E-05  4319   0.469E-03    0.617E-03
RMM:  10    -0.413203209688E+03    0.53859E-05   -0.21889E-06  2609   0.231E-03    0.374E-03
RMM:  11    -0.413203205761E+03    0.39266E-05   -0.10892E-06  2493   0.170E-03    0.221E-03
RMM:  12    -0.413203197412E+03    0.83494E-05   -0.13395E-06  2508   0.187E-03    0.104E-03
RMM:  13    -0.413203193587E+03    0.38252E-05   -0.49155E-07  2310   0.124E-03    0.671E-04
RMM:  14    -0.413203193380E+03    0.20665E-06   -0.21251E-07  1808   0.823E-04
   38 T=    69. E= -.41286619E+03 F= -.41320319E+03 E0= -.41318202E+03  EK= 0.33700E+00 SP= 0.00E+00 SK= 0.00E+00
       N       E                     dE             d eps       ncg     rms          rms(c)
RMM:   1    -0.413202922013E+03    0.27157E-03   -0.11201E+01  4306   0.102E+00    0.955E-01
RMM:   2    -0.413208966708E+03   -0.60447E-02   -0.14742E-01  4264   0.124E-01    0.675E-01
RMM:   3    -0.413206381901E+03    0.25848E-02   -0.11010E-02  4915   0.540E-02    0.180E-01
RMM:   4    -0.413249875338E+03   -0.43493E-01   -0.45917E-02  5139   0.178E-01    0.866E-01
RMM:   5    -0.413205641794E+03    0.44234E-01   -0.22117E-02  4796   0.145E-01    0.534E-02
RMM:   6    -0.413205754847E+03   -0.11305E-03   -0.35438E-03  5828   0.559E-02    0.323E-02
RMM:   7    -0.413205764981E+03   -0.10134E-04   -0.40733E-04  5705   0.184E-02    0.168E-02
RMM:   8    -0.413205756036E+03    0.89450E-05   -0.50624E-05  4772   0.692E-03    0.854E-03
RMM:   9    -0.413205748208E+03    0.78285E-05   -0.91401E-06  3125   0.321E-03    0.505E-03
RMM:  10    -0.413205743205E+03    0.50029E-05   -0.19300E-06  2527   0.205E-03    0.326E-03
RMM:  11    -0.413205731121E+03    0.12084E-04   -0.21433E-06  2579   0.235E-03    0.142E-03
RMM:  12    -0.413205727032E+03    0.40896E-05   -0.89763E-07  2451   0.163E-03    0.886E-04
RMM:  13    -0.413205724758E+03    0.22737E-05   -0.36271E-07  2239   0.107E-03    0.689E-04
RMM:  14    -0.413205723591E+03    0.11664E-05   -0.17551E-07  1648   0.778E-04    0.439E-04
RMM:  15    -0.413205718697E+03    0.48945E-05   -0.14968E-07  1750   0.762E-04    0.268E-04
RMM:  16    -0.413205715820E+03    0.28768E-05   -0.70969E-08  1126   0.623E-04    0.151E-04
RMM:  17    -0.413205710608E+03    0.52117E-05   -0.71880E-08  1289   0.640E-04    0.192E-04
RMM:  18    -0.413205707920E+03    0.26888E-05   -0.36974E-08   922   0.569E-04    0.852E-05
RMM:  19    -0.413205705273E+03    0.26471E-05   -0.34850E-08  1009   0.584E-04    0.587E-05
RMM:  20    -0.413205705108E+03    0.16490E-06   -0.14601E-08   727   0.539E-04
   39 T=    69. E= -.41286617E+03 F= -.41320571E+03 E0= -.41318457E+03  EK= 0.33953E+00 SP= 0.00E+00 SK= 0.00E+00
       N       E                     dE             d eps       ncg     rms          rms(c)
RMM:   1    -0.413215049037E+03   -0.93438E-02   -0.11293E+01  4310   0.114E+00    0.933E-01
RMM:   2    -0.413212235779E+03    0.28133E-02   -0.15952E-01  4269   0.134E-01    0.681E-01
RMM:   3    -0.413209837578E+03    0.23982E-02   -0.11022E-02  4997   0.601E-02    0.215E-01
RMM:   4    -0.413262648309E+03   -0.52811E-01   -0.59142E-02  5130   0.202E-01    0.954E-01
RMM:   5    -0.413208367982E+03    0.54280E-01   -0.26500E-02  4784   0.161E-01    0.582E-02
RMM:   6    -0.413208526260E+03   -0.15828E-03   -0.43059E-03  5815   0.615E-02    0.335E-02
RMM:   7    -0.413208542231E+03   -0.15971E-04   -0.51294E-04  5826   0.202E-02    0.206E-02
RMM:   8    -0.413208543989E+03   -0.17583E-05   -0.11456E-04  5250   0.104E-02    0.132E-02
RMM:   9    -0.413208531967E+03    0.12022E-04   -0.26291E-05  4681   0.589E-03    0.655E-03
RMM:  10    -0.413208528156E+03    0.38118E-05   -0.49290E-06  2888   0.291E-03    0.406E-03
RMM:  11    -0.413208525020E+03    0.31353E-05   -0.15244E-06  2500   0.203E-03    0.241E-03
RMM:  12    -0.413208518907E+03    0.61135E-05   -0.12817E-06  2494   0.190E-03    0.825E-04
RMM:  13    -0.413208515566E+03    0.33409E-05   -0.56848E-07  2377   0.132E-03    0.566E-04
RMM:  14    -0.413208514926E+03    0.64028E-06   -0.25783E-07  1964   0.897E-04
   40 T=    70. E= -.41286643E+03 F= -.41320851E+03 E0= -.41318741E+03  EK= 0.34209E+00 SP= 0.00E+00 SK= 0.00E+00
       N       E                     dE             d eps       ncg     rms          rms(c)
RMM:   1    -0.413234492420E+03   -0.25977E-01   -0.11588E+01  4311   0.125E+00    0.943E-01
RMM:   2    -0.413214304021E+03    0.20188E-01   -0.18720E-01  4272   0.147E-01    0.695E-01
RMM:   3    -0.413212162241E+03    0.21418E-02   -0.10586E-02  5035   0.612E-02    0.257E-01
RMM:   4    -0.413271155050E+03   -0.58993E-01   -0.67373E-02  5131   0.216E-01    0.101E+00
RMM:   5    -0.413210258716E+03    0.60896E-01   -0.29656E-02  4774   0.171E-01    0.626E-02
RMM:   6    -0.413210446891E+03   -0.18817E-03   -0.48530E-03  5809   0.653E-02    0.345E-02
RMM:   7    -0.413210466236E+03   -0.19346E-04   -0.58355E-04  5858   0.212E-02    0.226E-02
RMM:   8    -0.413210466011E+03    0.22558E-06   -0.12969E-04  5284   0.111E-02    0.139E-02
RMM:   9    -0.413210452370E+03    0.13641E-04   -0.27621E-05  4674   0.613E-03    0.612E-03
RMM:  10    -0.413210448274E+03    0.40952E-05   -0.60151E-06  3018   0.304E-03    0.386E-03
RMM:  11    -0.413210444751E+03    0.35232E-05   -0.15337E-06  2506   0.203E-03    0.227E-03
RMM:  12    -0.413210438521E+03    0.62304E-05   -0.10961E-06  2483   0.177E-03    0.745E-04
RMM:  13    -0.413210435049E+03    0.34718E-05   -0.52187E-07  2358   0.125E-03    0.440E-04
RMM:  14    -0.413210433735E+03    0.13137E-05   -0.25480E-07  1954   0.887E-04    0.313E-04
RMM:  15    -0.413210431259E+03    0.24768E-05   -0.13906E-07  1406   0.713E-04    0.138E-04
RMM:  16    -0.413210427804E+03    0.34547E-05   -0.99200E-08  1184   0.665E-04    0.112E-04
RMM:  17    -0.413210426010E+03    0.17936E-05   -0.61044E-08  1034   0.622E-04    0.677E-05
RMM:  18    -0.413210423151E+03    0.28589E-05   -0.55933E-08  1117   0.629E-04    0.528E-05
RMM:  19    -0.413210421085E+03    0.20663E-05   -0.41642E-08  1044   0.603E-04    0.314E-05
RMM:  20    -0.413210420416E+03    0.66882E-06   -0.22362E-08   831   0.561E-04
   41 T=    70. E= -.41286619E+03 F= -.41321042E+03 E0= -.41318936E+03  EK= 0.34423E+00 SP= 0.00E+00 SK= 0.00E+00
       N       E                     dE             d eps       ncg     rms          rms(c)
RMM:   1    -0.413223505185E+03   -0.13084E-01   -0.11474E+01  4310   0.123E+00    0.968E-01
RMM:   2    -0.413216017551E+03    0.74876E-02   -0.15236E-01  4289   0.137E-01    0.685E-01
RMM:   3    -0.413216524454E+03   -0.50690E-03   -0.13995E-02  5074   0.754E-02    0.296E-01
RMM:   4    -0.413253150390E+03   -0.36626E-01   -0.52457E-02  5092   0.193E-01    0.828E-01
RMM:   5    -0.413212833817E+03    0.40317E-01   -0.17952E-02  4741   0.138E-01    0.585E-02
RMM:   6    -0.413212904791E+03   -0.70974E-04   -0.31420E-03  5758   0.530E-02    0.333E-02
RMM:   7    -0.413212911833E+03   -0.70420E-05   -0.43644E-04  5776   0.190E-02    0.216E-02
RMM:   8    -0.413212908200E+03    0.36329E-05   -0.11600E-04  5203   0.109E-02    0.121E-02
RMM:   9    -0.413212894531E+03    0.13669E-04   -0.19611E-05  4411   0.551E-03    0.498E-03
RMM:  10    -0.413212889399E+03    0.51320E-05   -0.41432E-06  2817   0.262E-03    0.317E-03
RMM:  11    -0.413212883998E+03    0.54011E-05   -0.11901E-06  2494   0.184E-03    0.172E-03
RMM:  12    -0.413212876007E+03    0.79909E-05   -0.75235E-07  2454   0.151E-03    0.639E-04
RMM:  13    -0.413212871651E+03    0.43552E-05   -0.36712E-07  2162   0.106E-03    0.314E-04
RMM:  14    -0.413212869359E+03    0.22929E-05   -0.19422E-07  1666   0.795E-04    0.209E-04
RMM:  15    -0.413212864119E+03    0.52399E-05   -0.12629E-07  1331   0.707E-04    0.124E-04
RMM:  16    -0.413212861350E+03    0.27691E-05   -0.80141E-08  1136   0.648E-04    0.932E-05
RMM:  17    -0.413212858250E+03    0.30997E-05   -0.62500E-08  1104   0.632E-04    0.631E-05
RMM:  18    -0.413212855036E+03    0.32134E-05   -0.56368E-08  1205   0.624E-04    0.414E-05
RMM:  19    -0.413212853095E+03    0.19410E-05   -0.36538E-08   987   0.574E-04    0.308E-05
RMM:  20    -0.413212852473E+03    0.62282E-06   -0.19611E-08   779   0.540E-04
   42 T=    71. E= -.41286648E+03 F= -.41321285E+03 E0= -.41319182E+03  EK= 0.34638E+00 SP= 0.00E+00 SK= 0.00E+00
       N       E                     dE             d eps       ncg     rms          rms(c)
RMM:   1    -0.413233823095E+03   -0.20970E-01   -0.11496E+01  4311   0.135E+00    0.945E-01
RMM:   2    -0.413217928187E+03    0.15895E-01   -0.16467E-01  4294   0.149E-01    0.685E-01
RMM:   3    -0.413219379343E+03   -0.14512E-02   -0.14187E-02  5079   0.820E-02    0.330E-01
RMM:   4    -0.413253515428E+03   -0.34136E-01   -0.53010E-02  5086   0.195E-01    0.813E-01
RMM:   5    -0.413214722985E+03    0.38792E-01   -0.16934E-02  4722   0.136E-01    0.591E-02
RMM:   6    -0.413214774626E+03   -0.51642E-04   -0.29782E-03  5747   0.518E-02    0.328E-02
RMM:   7    -0.413214779265E+03   -0.46387E-05   -0.42419E-04  5794   0.187E-02    0.219E-02
RMM:   8    -0.413214775734E+03    0.35315E-05   -0.11314E-04  5181   0.109E-02    0.115E-02
RMM:   9    -0.413214763636E+03    0.12097E-04   -0.19654E-05  4412   0.553E-03    0.450E-03
RMM:  10    -0.413214760098E+03    0.35378E-05   -0.39309E-06  2782   0.255E-03    0.284E-03
RMM:  11    -0.413214755667E+03    0.44311E-05   -0.12696E-06  2498   0.184E-03    0.153E-03
RMM:  12    -0.413214750191E+03    0.54763E-05   -0.69087E-07  2435   0.143E-03    0.600E-04
RMM:  13    -0.413214747100E+03    0.30911E-05   -0.34197E-07  2036   0.996E-04    0.275E-04
RMM:  14    -0.413214744710E+03    0.23900E-05   -0.18831E-07  1526   0.776E-04    0.168E-04
RMM:  15    -0.413214740382E+03    0.43276E-05   -0.13402E-07  1285   0.709E-04    0.106E-04
RMM:  16    -0.413214738479E+03    0.19036E-05   -0.85861E-08  1139   0.654E-04    0.777E-05
RMM:  17    -0.413214735483E+03    0.29961E-05   -0.70445E-08  1163   0.647E-04    0.504E-05
RMM:  18    -0.413214733058E+03    0.24249E-05   -0.55457E-08  1124   0.618E-04    0.392E-05
RMM:  19    -0.413214731807E+03    0.12502E-05   -0.31575E-08   886   0.571E-04    0.208E-05
RMM:  20    -0.413214731212E+03    0.59533E-06   -0.21528E-08   778   0.550E-04
   43 T=    71. E= -.41286659E+03 F= -.41321473E+03 E0= -.41319373E+03  EK= 0.34814E+00 SP= 0.00E+00 SK= 0.00E+00
       N       E                     dE             d eps       ncg     rms          rms(c)
RMM:   1    -0.413235015595E+03   -0.20284E-01   -0.11592E+01  4312   0.138E+00    0.946E-01
RMM:   2    -0.413219275347E+03    0.15740E-01   -0.17669E-01  4292   0.166E-01    0.700E-01
RMM:   3    -0.413221547068E+03   -0.22717E-02   -0.15095E-02  5067   0.901E-02    0.364E-01
RMM:   4    -0.413254338780E+03   -0.32792E-01   -0.54874E-02  5069   0.199E-01    0.811E-01
RMM:   5    -0.413215800747E+03    0.38538E-01   -0.16534E-02  4716   0.136E-01    0.603E-02
RMM:   6    -0.413215835235E+03   -0.34488E-04   -0.28870E-03  5718   0.513E-02    0.325E-02
RMM:   7    -0.413215836806E+03   -0.15711E-05   -0.40768E-04  5821   0.185E-02    0.221E-02
RMM:   8    -0.413215833264E+03    0.35417E-05   -0.10812E-04  5170   0.107E-02    0.111E-02
RMM:   9    -0.413215822921E+03    0.10343E-04   -0.20315E-05  4423   0.561E-03    0.426E-03
RMM:  10    -0.413215820534E+03    0.23869E-05   -0.38254E-06  2779   0.250E-03    0.262E-03
RMM:  11    -0.413215817116E+03    0.34183E-05   -0.13993E-06  2516   0.186E-03    0.146E-03
RMM:  12    -0.413215813424E+03    0.36915E-05   -0.66790E-07  2440   0.139E-03    0.611E-04
RMM:  13    -0.413215811092E+03    0.23318E-05   -0.33225E-07  1911   0.957E-04    0.272E-04
RMM:  14    -0.413215808919E+03    0.21728E-05   -0.19701E-07  1482   0.774E-04    0.156E-04
RMM:  15    -0.413215805775E+03    0.31441E-05   -0.14672E-07  1333   0.717E-04    0.975E-05
RMM:  16    -0.413215804061E+03    0.17146E-05   -0.91087E-08  1126   0.655E-04    0.741E-05
RMM:  17    -0.413215801350E+03    0.27104E-05   -0.81148E-08  1223   0.652E-04    0.452E-05
RMM:  18    -0.413215799556E+03    0.17943E-05   -0.51644E-08  1015   0.601E-04    0.395E-05
RMM:  19    -0.413215798521E+03    0.10345E-05   -0.34071E-08   888   0.571E-04    0.224E-05
RMM:  20    -0.413215798067E+03    0.45454E-06   -0.20880E-08   767   0.551E-04
   44 T=    71. E= -.41286639E+03 F= -.41321580E+03 E0= -.41319482E+03  EK= 0.34940E+00 SP= 0.00E+00 SK= 0.00E+00
       N       E                     dE             d eps       ncg     rms          rms(c)
RMM:   1    -0.413237650951E+03   -0.21852E-01   -0.11591E+01  4310   0.148E+00    0.973E-01
RMM:   2    -0.413219910698E+03    0.17740E-01   -0.16908E-01  4316   0.171E-01    0.694E-01
RMM:   3    -0.413226918433E+03   -0.70077E-02   -0.19357E-02  5110   0.108E-01    0.454E-01
RMM:   4    -0.413240159157E+03   -0.13241E-01   -0.43899E-02  5038   0.181E-01    0.637E-01
RMM:   5    -0.413217079055E+03    0.23080E-01   -0.88194E-03  4638   0.108E-01    0.561E-02
RMM:   6    -0.413217053673E+03    0.25382E-04   -0.17602E-03  5575   0.406E-02    0.315E-02
RMM:   7    -0.413217047139E+03    0.65341E-05   -0.29364E-04  5636   0.165E-02    0.212E-02
RMM:   8    -0.413217036577E+03    0.10561E-04   -0.10871E-04  5062   0.109E-02    0.984E-03
RMM:   9    -0.413217023395E+03    0.13182E-04   -0.15441E-05  4252   0.532E-03    0.399E-03
RMM:  10    -0.413217019637E+03    0.37584E-05   -0.26020E-06  2688   0.223E-03    0.234E-03
RMM:  11    -0.413217013240E+03    0.63971E-05   -0.11474E-06  2480   0.175E-03    0.129E-03
RMM:  12    -0.413217007369E+03    0.58713E-05   -0.56049E-07  2412   0.130E-03    0.624E-04
RMM:  13    -0.413217003754E+03    0.36147E-05   -0.26464E-07  1816   0.889E-04    0.293E-04
RMM:  14    -0.413217000201E+03    0.35530E-05   -0.14993E-07  1340   0.712E-04    0.155E-04
RMM:  15    -0.413216995276E+03    0.49248E-05   -0.11899E-07  1277   0.688E-04    0.118E-04
RMM:  16    -0.413216992497E+03    0.27794E-05   -0.75820E-08  1085   0.630E-04    0.988E-05
RMM:  17    -0.413216987830E+03    0.46672E-05   -0.75982E-08  1260   0.647E-04    0.667E-05
RMM:  18    -0.413216985486E+03    0.23431E-05   -0.45982E-08  1034   0.581E-04    0.449E-05
RMM:  19    -0.413216984381E+03    0.11053E-05   -0.27490E-08   830   0.541E-04    0.282E-05
RMM:  20    -0.413216983810E+03    0.57115E-06   -0.18004E-08   737   0.528E-04
   45 T=    71. E= -.41286669E+03 F= -.41321698E+03 E0= -.41319603E+03  EK= 0.35029E+00 SP= 0.00E+00 SK= 0.00E+00
       N       E                     dE             d eps       ncg     rms          rms(c)
RMM:   1    -0.413250781765E+03   -0.33797E-01   -0.11600E+01  4310   0.160E+00    0.954E-01
RMM:   2    -0.413219486771E+03    0.31295E-01   -0.17908E-01  4337   0.185E-01    0.690E-01
RMM:   3    -0.413229076112E+03   -0.95893E-02   -0.20942E-02  5112   0.117E-01    0.510E-01
RMM:   4    -0.413235711112E+03   -0.66350E-02   -0.42168E-02  5018   0.179E-01    0.586E-01
RMM:   5    -0.413216646854E+03    0.19064E-01   -0.72008E-03  4602   0.101E-01    0.558E-02
RMM:   6    -0.413216594522E+03    0.52332E-04   -0.13833E-03  5424   0.369E-02    0.306E-02
RMM:   7    -0.413216587310E+03    0.72120E-05   -0.24146E-04  5605   0.153E-02    0.208E-02
RMM:   8    -0.413216575573E+03    0.11737E-04   -0.11793E-04  5079   0.112E-02    0.992E-03
RMM:   9    -0.413216561799E+03    0.13774E-04   -0.15932E-05  4287   0.551E-03    0.395E-03
RMM:  10    -0.413216558736E+03    0.30623E-05   -0.26486E-06  2689   0.220E-03    0.228E-03
RMM:  11    -0.413216552711E+03    0.60254E-05   -0.12450E-06  2491   0.180E-03    0.127E-03
RMM:  12    -0.413216548049E+03    0.46617E-05   -0.55481E-07  2412   0.131E-03    0.667E-04
RMM:  13    -0.413216544566E+03    0.34830E-05   -0.26190E-07  1772   0.889E-04    0.322E-04
RMM:  14    -0.413216541129E+03    0.34377E-05   -0.14349E-07  1329   0.707E-04    0.166E-04
RMM:  15    -0.413216537123E+03    0.40054E-05   -0.10445E-07  1193   0.664E-04    0.110E-04
RMM:  16    -0.413216534514E+03    0.26088E-05   -0.71432E-08  1089   0.622E-04    0.991E-05
RMM:  17    -0.413216531034E+03    0.34806E-05   -0.61169E-08  1140   0.618E-04    0.591E-05
RMM:  18    -0.413216528210E+03    0.28235E-05   -0.45171E-08  1033   0.587E-04    0.479E-05
RMM:  19    -0.413216527468E+03    0.74273E-06   -0.22257E-08   783   0.535E-04
   46 T=    71. E= -.41286646E+03 F= -.41321653E+03 E0= -.41319560E+03  EK= 0.35007E+00 SP= 0.00E+00 SK= 0.00E+00
       N       E                     dE             d eps       ncg     rms          rms(c)
RMM:   1    -0.413236243465E+03   -0.19715E-01   -0.11457E+01  4310   0.163E+00    0.942E-01
RMM:   2    -0.413218674374E+03    0.17569E-01   -0.18321E-01  4343   0.196E-01    0.702E-01
RMM:   3    -0.413229327068E+03   -0.10653E-01   -0.22171E-02  5117   0.125E-01    0.537E-01
RMM:   4    -0.413234987383E+03   -0.56603E-02   -0.44780E-02  5015   0.185E-01    0.592E-01
RMM:   5    -0.413215293401E+03    0.19694E-01   -0.73368E-03  4594   0.103E-01    0.575E-02
RMM:   6    -0.413215231638E+03    0.61764E-04   -0.14040E-03  5387   0.373E-02    0.304E-02
RMM:   7    -0.413215223451E+03    0.81867E-05   -0.23934E-04  5646   0.152E-02    0.211E-02
RMM:   8    -0.413215210983E+03    0.12468E-04   -0.12194E-04  5116   0.114E-02    0.102E-02
RMM:   9    -0.413215197877E+03    0.13106E-04   -0.17337E-05  4344   0.573E-03    0.404E-03
RMM:  10    -0.413215195781E+03    0.20964E-05   -0.28595E-06  2717   0.225E-03    0.233E-03
RMM:  11    -0.413215191677E+03    0.41034E-05   -0.13936E-06  2505   0.187E-03    0.133E-03
RMM:  12    -0.413215188647E+03    0.30299E-05   -0.58896E-07  2432   0.135E-03    0.715E-04
RMM:  13    -0.413215185961E+03    0.26864E-05   -0.28547E-07  1804   0.923E-04    0.341E-04
RMM:  14    -0.413215183455E+03    0.25059E-05   -0.15804E-07  1361   0.730E-04    0.179E-04
RMM:  15    -0.413215180765E+03    0.26897E-05   -0.10894E-07  1192   0.670E-04    0.102E-04
RMM:  16    -0.413215178702E+03    0.20637E-05   -0.76158E-08  1093   0.629E-04    0.912E-05
RMM:  17    -0.413215176491E+03    0.22105E-05   -0.60225E-08  1110   0.613E-04    0.531E-05
RMM:  18    -0.413215174063E+03    0.24285E-05   -0.51514E-08  1062   0.591E-04    0.450E-05
RMM:  19    -0.413215173552E+03    0.51074E-06   -0.21202E-08   728   0.529E-04
   47 T=    71. E= -.41286639E+03 F= -.41321517E+03 E0= -.41319426E+03  EK= 0.34878E+00 SP= 0.00E+00 SK= 0.00E+00
       N       E                     dE             d eps       ncg     rms          rms(c)
RMM:   1    -0.413245256692E+03   -0.30083E-01   -0.11463E+01  4306   0.177E+00    0.963E-01
RMM:   2    -0.413215821570E+03    0.29435E-01   -0.18286E-01  4391   0.204E-01    0.696E-01
RMM:   3    -0.413234147581E+03   -0.18326E-01   -0.28908E-02  5141   0.146E-01    0.649E-01
RMM:   4    -0.413224502031E+03    0.96456E-02   -0.40837E-02  4976   0.181E-01    0.471E-01
RMM:   5    -0.413212808965E+03    0.11693E-01   -0.47229E-03  4530   0.908E-02    0.578E-02
RMM:   6    -0.413212685536E+03    0.12343E-03   -0.63405E-04  4853   0.297E-02    0.298E-02
RMM:   7    -0.413212668253E+03    0.17283E-04   -0.18160E-04  5915   0.135E-02    0.136E-02
RMM:   8    -0.413212660798E+03    0.74544E-05   -0.75622E-05  5214   0.100E-02    0.114E-02
RMM:   9    -0.413212652807E+03    0.79908E-05   -0.19682E-05  4473   0.535E-03    0.429E-03
RMM:  10    -0.413212649297E+03    0.35101E-05   -0.26923E-06  2618   0.260E-03    0.238E-03
RMM:  11    -0.413212643832E+03    0.54651E-05   -0.18310E-06  2491   0.221E-03    0.152E-03
RMM:  12    -0.413212639557E+03    0.42753E-05   -0.70474E-07  2413   0.154E-03    0.912E-04
RMM:  13    -0.413212636057E+03    0.35002E-05   -0.29607E-07  2144   0.982E-04    0.548E-04
RMM:  14    -0.413212630362E+03    0.56942E-05   -0.21523E-07  1852   0.832E-04    0.411E-04
RMM:  15    -0.413212626427E+03    0.39355E-05   -0.98573E-08  1056   0.618E-04    0.165E-04
RMM:  16    -0.413212624751E+03    0.16757E-05   -0.60776E-08   946   0.576E-04    0.900E-05
RMM:  17    -0.413212621128E+03    0.36233E-05   -0.64761E-08  1051   0.604E-04    0.878E-05
RMM:  18    -0.413212619094E+03    0.20341E-05   -0.38369E-08   898   0.573E-04    0.666E-05
RMM:  19    -0.413212618537E+03    0.55727E-06   -0.19992E-08   715   0.534E-04
   48 T=    70. E= -.41286665E+03 F= -.41321262E+03 E0= -.41319172E+03  EK= 0.34597E+00 SP= 0.00E+00 SK= 0.00E+00
       N       E                     dE             d eps       ncg     rms          rms(c)
RMM:   1    -0.413244470276E+03   -0.31851E-01   -0.11253E+01  4305   0.187E+00    0.952E-01
RMM:   2    -0.413210402189E+03    0.34068E-01   -0.18155E-01  4458   0.215E-01    0.685E-01
RMM:   3    -0.413236003970E+03   -0.25602E-01   -0.34991E-02  5155   0.164E-01    0.740E-01
RMM:   4    -0.413215277814E+03    0.20726E-01   -0.39873E-02  4946   0.182E-01    0.398E-01
RMM:   5    -0.413207563670E+03    0.77141E-02   -0.44617E-03  4655   0.897E-02    0.659E-02
RMM:   6    -0.413207363484E+03    0.20019E-03   -0.46824E-04  4649   0.299E-02    0.329E-02
RMM:   7    -0.413207367576E+03   -0.40925E-05   -0.27207E-04  5764   0.175E-02    0.243E-02
RMM:   8    -0.413207333435E+03    0.34142E-04   -0.91571E-05  4979   0.110E-02    0.950E-03
RMM:   9    -0.413207325470E+03    0.79646E-05   -0.19109E-05  4687   0.557E-03    0.457E-03
RMM:  10    -0.413207321007E+03    0.44628E-05   -0.24997E-06  2649   0.243E-03    0.261E-03
RMM:  11    -0.413207314701E+03    0.63062E-05   -0.11557E-06  2490   0.181E-03    0.174E-03
RMM:  12    -0.413207310996E+03    0.37049E-05   -0.38681E-07  2369   0.116E-03    0.887E-04
RMM:  13    -0.413207306102E+03    0.48942E-05   -0.29443E-07  2065   0.905E-04    0.431E-04
RMM:  14    -0.413207301443E+03    0.46589E-05   -0.17910E-07  1558   0.740E-04    0.310E-04
RMM:  15    -0.413207296671E+03    0.47721E-05   -0.11754E-07  1167   0.649E-04    0.134E-04
RMM:  16    -0.413207294132E+03    0.25384E-05   -0.72891E-08  1083   0.607E-04    0.863E-05
RMM:  17    -0.413207290290E+03    0.38429E-05   -0.72539E-08  1198   0.619E-04    0.760E-05
RMM:  18    -0.413207289154E+03    0.11355E-05   -0.36468E-08   926   0.551E-04    0.594E-05
RMM:  19    -0.413207287458E+03    0.16956E-05   -0.33531E-08   961   0.546E-04    0.264E-05
RMM:  20    -0.413207286817E+03    0.64192E-06   -0.20414E-08   790   0.507E-04
   49 T=    69. E= -.41286635E+03 F= -.41320729E+03 E0= -.41318640E+03  EK= 0.34094E+00 SP= 0.00E+00 SK= 0.00E+00
       N       E                     dE             d eps       ncg     rms          rms(c)
RMM:   1    -0.413225358322E+03   -0.18071E-01   -0.10899E+01  4305   0.191E+00    0.922E-01
RMM:   2    -0.413204125587E+03    0.21233E-01   -0.17978E-01  4481   0.222E-01    0.688E-01
RMM:   3    -0.413230704716E+03   -0.26579E-01   -0.35820E-02  5158   0.168E-01    0.759E-01
RMM:   4    -0.413208489734E+03    0.22215E-01   -0.41188E-02  4945   0.186E-01    0.395E-01
RMM:   5    -0.413200780553E+03    0.77092E-02   -0.49086E-03  4722   0.937E-02    0.706E-02
RMM:   6    -0.413200531340E+03    0.24921E-03   -0.49661E-04  4635   0.316E-02    0.336E-02
RMM:   7    -0.413200532615E+03   -0.12751E-05   -0.26306E-04  5743   0.173E-02    0.242E-02
RMM:   8    -0.413200500356E+03    0.32259E-04   -0.87762E-05  5026   0.106E-02    0.101E-02
RMM:   9    -0.413200493310E+03    0.70459E-05   -0.19022E-05  4590   0.558E-03    0.441E-03
RMM:  10    -0.413200489667E+03    0.36431E-05   -0.27111E-06  2669   0.246E-03    0.264E-03
RMM:  11    -0.413200485079E+03    0.45878E-05   -0.95158E-07  2484   0.168E-03    0.159E-03
[...]
RMM:  15    -0.413160343266E+03   -0.17352E-05   -0.32329E-07  1632   0.816E-04    0.156E-04
RMM:  16    -0.413160344405E+03   -0.11387E-05   -0.23464E-07  1514   0.740E-04    0.125E-04
RMM:  17    -0.413160344801E+03   -0.39645E-06   -0.10294E-07  1115   0.609E-04
  138 T=    60. E= -.41286634E+03 F= -.41316034E+03 E0= -.41313964E+03  EK= 0.29400E+00 SP= 0.00E+00 SK= 0.00E+00
       N       E                     dE             d eps       ncg     rms          rms(c)
RMM:   1    -0.413156674491E+03    0.36699E-02   -0.89053E+00  4264   0.787E-01    0.821E-01
RMM:   2    -0.413163021407E+03   -0.63469E-02   -0.10223E-01  4317   0.892E-02    0.589E-01
RMM:   3    -0.413161331946E+03    0.16895E-02   -0.10230E-02  4963   0.444E-02    0.123E-01
RMM:   4    -0.413189362603E+03   -0.28031E-01   -0.30230E-02  5137   0.145E-01    0.699E-01
RMM:   5    -0.413160828105E+03    0.28534E-01   -0.13894E-02  4805   0.117E-01    0.516E-02
RMM:   6    -0.413160860500E+03   -0.32396E-04   -0.24073E-03  5681   0.465E-02    0.286E-02
RMM:   7    -0.413160892244E+03   -0.31744E-04   -0.35653E-04  5927   0.159E-02    0.159E-02
RMM:   8    -0.413160902034E+03   -0.97902E-05   -0.58339E-05  5217   0.792E-03    0.822E-03
RMM:   9    -0.413160905925E+03   -0.38909E-05   -0.84388E-06  3301   0.343E-03    0.426E-03
RMM:  10    -0.413160914931E+03   -0.90059E-05   -0.27121E-06  2611   0.225E-03    0.278E-03
RMM:  11    -0.413160923161E+03   -0.82304E-05   -0.14115E-06  2511   0.175E-03    0.131E-03
RMM:  12    -0.413160930498E+03   -0.73372E-05   -0.11038E-06  2469   0.144E-03    0.566E-04
RMM:  13    -0.413160933895E+03   -0.33965E-05   -0.47193E-07  2054   0.102E-03    0.374E-04
RMM:  14    -0.413160936363E+03   -0.24683E-05   -0.27381E-07  1593   0.825E-04    0.208E-04
RMM:  15    -0.413160940009E+03   -0.36459E-05   -0.35370E-07  1697   0.839E-04    0.165E-04
RMM:  16    -0.413160942185E+03   -0.21757E-05   -0.22917E-07  1555   0.735E-04    0.129E-04
RMM:  17    -0.413160942781E+03   -0.59605E-06   -0.98115E-08  1108   0.592E-04
  139 T=    60. E= -.41286651E+03 F= -.41316094E+03 E0= -.41314025E+03  EK= 0.29443E+00 SP= 0.00E+00 SK= 0.00E+00
       N       E                     dE             d eps       ncg     rms          rms(c)
RMM:   1    -0.413156536055E+03    0.44061E-02   -0.91312E+00  4264   0.794E-01    0.826E-01
RMM:   2    -0.413163488068E+03   -0.69520E-02   -0.10543E-01  4313   0.910E-02    0.598E-01
RMM:   3    -0.413161556289E+03    0.19318E-02   -0.97773E-03  4900   0.426E-02    0.108E-01
RMM:   4    -0.413183879443E+03   -0.22323E-01   -0.23484E-02  5141   0.128E-01    0.625E-01
RMM:   5    -0.413161251483E+03    0.22628E-01   -0.11169E-02  4808   0.104E-01    0.472E-02
RMM:   6    -0.413161271469E+03   -0.19985E-04   -0.19194E-03  5679   0.418E-02    0.270E-02
RMM:   7    -0.413161305792E+03   -0.34324E-04   -0.29428E-04  5849   0.144E-02    0.143E-02
RMM:   8    -0.413161318682E+03   -0.12889E-04   -0.49173E-05  5113   0.725E-03    0.755E-03
RMM:   9    -0.413161324047E+03   -0.53652E-05   -0.66603E-06  3140   0.312E-03    0.396E-03
RMM:  10    -0.413161335439E+03   -0.11392E-04   -0.23932E-06  2578   0.216E-03    0.254E-03
RMM:  11    -0.413161346013E+03   -0.10574E-04   -0.13374E-06  2501   0.167E-03    0.114E-03
RMM:  12    -0.413161354570E+03   -0.85562E-05   -0.93233E-07  2420   0.133E-03    0.534E-04
RMM:  13    -0.413161359314E+03   -0.47442E-05   -0.45851E-07  1977   0.974E-04    0.345E-04
RMM:  14    -0.413161362620E+03   -0.33061E-05   -0.27539E-07  1529   0.807E-04    0.193E-04
RMM:  15    -0.413161367049E+03   -0.44292E-05   -0.35502E-07  1786   0.846E-04    0.165E-04
RMM:  16    -0.413161369767E+03   -0.27180E-05   -0.23197E-07  1533   0.729E-04    0.117E-04
RMM:  17    -0.413161370263E+03   -0.49617E-06   -0.87600E-08  1027   0.571E-04
  140 T=    60. E= -.41286617E+03 F= -.41316137E+03 E0= -.41314069E+03  EK= 0.29520E+00 SP= 0.00E+00 SK= 0.00E+00
       N       E                     dE             d eps       ncg     rms          rms(c)
RMM:   1    -0.413156555442E+03    0.48143E-02   -0.93044E+00  4264   0.804E-01    0.848E-01
RMM:   2    -0.413163047266E+03   -0.64918E-02   -0.10496E-01  4309   0.932E-02    0.590E-01
RMM:   3    -0.413161540653E+03    0.15066E-02   -0.90090E-03  4809   0.411E-02    0.115E-01
RMM:   4    -0.413176304055E+03   -0.14763E-01   -0.15321E-02  5154   0.104E-01    0.510E-01
RMM:   5    -0.413161390821E+03    0.14913E-01   -0.75353E-03  4831   0.852E-02    0.439E-02
RMM:   6    -0.413161393077E+03   -0.22556E-05   -0.13420E-03  5663   0.354E-02    0.275E-02
RMM:   7    -0.413161411638E+03   -0.18562E-04   -0.23118E-04  5733   0.131E-02    0.128E-02
RMM:   8    -0.413161416199E+03   -0.45604E-05   -0.39179E-05  4974   0.668E-03    0.699E-03
RMM:   9    -0.413161418100E+03   -0.19014E-05   -0.43570E-06  2895   0.266E-03    0.379E-03
RMM:  10    -0.413161424054E+03   -0.59536E-05   -0.20636E-06  2552   0.207E-03    0.228E-03
RMM:  11    -0.413161428788E+03   -0.47338E-05   -0.12103E-06  2501   0.157E-03    0.101E-03
RMM:  12    -0.413161432494E+03   -0.37064E-05   -0.80617E-07  2297   0.123E-03    0.504E-04
RMM:  13    -0.413161435401E+03   -0.29072E-05   -0.52398E-07  1983   0.977E-04    0.299E-04
RMM:  14    -0.413161436969E+03   -0.15675E-05   -0.26429E-07  1469   0.779E-04    0.198E-04
RMM:  15    -0.413161439323E+03   -0.23543E-05   -0.36160E-07  1735   0.827E-04    0.145E-04
RMM:  16    -0.413161440909E+03   -0.15856E-05   -0.25618E-07  1522   0.731E-04    0.112E-04
RMM:  17    -0.413161441209E+03   -0.30006E-06   -0.86816E-08  1010   0.561E-04
  141 T=    60. E= -.41286647E+03 F= -.41316144E+03 E0= -.41314077E+03  EK= 0.29497E+00 SP= 0.00E+00 SK= 0.00E+00
       N       E                     dE             d eps       ncg     rms          rms(c)
RMM:   1    -0.413155391432E+03    0.60495E-02   -0.93753E+00  4264   0.809E-01    0.828E-01
RMM:   2    -0.413162839438E+03   -0.74480E-02   -0.10635E-01  4306   0.944E-02    0.584E-01
RMM:   3    -0.413161259780E+03    0.15797E-02   -0.80480E-03  4651   0.403E-02    0.109E-01
RMM:   4    -0.413167093517E+03   -0.58337E-02   -0.63671E-03  5158   0.677E-02    0.323E-01
RMM:   5    -0.413161220555E+03    0.58730E-02   -0.30497E-03  4841   0.544E-02    0.373E-02
RMM:   6    -0.413161209453E+03    0.11103E-04   -0.59321E-04  5553   0.247E-02    0.248E-02
RMM:   7    -0.413161227751E+03   -0.18298E-04   -0.14723E-04  5490   0.106E-02    0.107E-02
RMM:   8    -0.413161231769E+03   -0.40182E-05   -0.26306E-05  4745   0.572E-03    0.585E-03
RMM:   9    -0.413161234687E+03   -0.29179E-05   -0.22853E-06  2646   0.207E-03    0.305E-03
RMM:  10    -0.413161242986E+03   -0.82992E-05   -0.15813E-06  2525   0.176E-03    0.165E-03
RMM:  11    -0.413161248683E+03   -0.56970E-05   -0.86725E-07  2387   0.132E-03    0.726E-04
RMM:  12    -0.413161253478E+03   -0.47950E-05   -0.61300E-07  2083   0.105E-03    0.388E-04
RMM:  13    -0.413161257880E+03   -0.44021E-05   -0.50147E-07  1805   0.911E-04    0.239E-04
RMM:  14    -0.413161260285E+03   -0.24045E-05   -0.27038E-07  1492   0.762E-04    0.210E-04
RMM:  15    -0.413161262934E+03   -0.26494E-05   -0.30076E-07  1568   0.762E-04    0.114E-04
RMM:  16    -0.413161264611E+03   -0.16769E-05   -0.18905E-07  1320   0.682E-04    0.776E-05
RMM:  17    -0.413161264894E+03   -0.28355E-06   -0.70263E-08   938   0.553E-04
  142 T=    60. E= -.41286627E+03 F= -.41316126E+03 E0= -.41314060E+03  EK= 0.29500E+00 SP= 0.00E+00 SK= 0.00E+00
       N       E                     dE             d eps       ncg     rms          rms(c)
RMM:   1    -0.413155658657E+03    0.56060E-02   -0.95933E+00  4264   0.825E-01    0.823E-01
RMM:   2    -0.413163920246E+03   -0.82616E-02   -0.11088E-01  4309   0.957E-02    0.595E-01
RMM:   3    -0.413162106343E+03    0.18139E-02   -0.76413E-03  4631   0.371E-02    0.102E-01
RMM:   4    -0.413163155945E+03   -0.10496E-02   -0.17252E-03  5182   0.353E-02    0.138E-01
RMM:   5    -0.413162127688E+03    0.10283E-02   -0.59863E-04  4860   0.249E-02    0.338E-02
RMM:   6    -0.413162111340E+03    0.16347E-04   -0.20852E-04  5302   0.154E-02    0.217E-02
RMM:   7    -0.413162147287E+03   -0.35947E-04   -0.10653E-04  5295   0.862E-03    0.116E-02
RMM:   8    -0.413162149839E+03   -0.25514E-05   -0.14644E-05  4160   0.476E-03    0.603E-03
RMM:   9    -0.413162153055E+03   -0.32168E-05   -0.24359E-06  2545   0.202E-03    0.271E-03
RMM:  10    -0.413162165482E+03   -0.12427E-04   -0.16897E-06  2499   0.180E-03    0.124E-03
RMM:  11    -0.413162176666E+03   -0.11183E-04   -0.12385E-06  2424   0.147E-03    0.641E-04
RMM:  12    -0.413162182240E+03   -0.55746E-05   -0.50063E-07  2002   0.101E-03    0.462E-04
RMM:  13    -0.413162187825E+03   -0.55846E-05   -0.39266E-07  1781   0.855E-04    0.328E-04
RMM:  14    -0.413162193269E+03   -0.54442E-05   -0.40830E-07  1635   0.820E-04    0.158E-04
RMM:  15    -0.413162195384E+03   -0.21154E-05   -0.16763E-07  1331   0.654E-04    0.105E-04
RMM:  16    -0.413162197158E+03   -0.17741E-05   -0.14056E-07  1264   0.623E-04    0.450E-05
RMM:  17    -0.413162197833E+03   -0.67411E-06   -0.64878E-08   927   0.528E-04
  143 T=    60. E= -.41286619E+03 F= -.41316220E+03 E0= -.41314155E+03  EK= 0.29601E+00 SP= 0.00E+00 SK= 0.00E+00
       N       E                     dE             d eps       ncg     rms          rms(c)
RMM:   1    -0.413155821493E+03    0.63757E-02   -0.97671E+00  4264   0.830E-01    0.846E-01
RMM:   2    -0.413163598261E+03   -0.77768E-02   -0.11052E-01  4306   0.943E-02    0.589E-01
RMM:   3    -0.413162451780E+03    0.11465E-02   -0.72418E-03  4678   0.345E-02    0.120E-01
RMM:   4    -0.413162532382E+03   -0.80601E-04   -0.86638E-04  5099   0.242E-02    0.415E-02
RMM:   5    -0.413162556328E+03   -0.23947E-04   -0.18579E-04  4961   0.144E-02    0.463E-02
RMM:   6    -0.413162473248E+03    0.83080E-04   -0.11387E-04  5208   0.111E-02    0.223E-02
RMM:   7    -0.413162486775E+03   -0.13527E-04   -0.84526E-05  5063   0.815E-03    0.103E-02
RMM:   8    -0.413162487560E+03   -0.78518E-06   -0.99683E-06  3728   0.424E-03
  144 T=    60. E= -.41286645E+03 F= -.41316249E+03 E0= -.41314185E+03  EK= 0.29604E+00 SP= 0.00E+00 SK= 0.00E+00
       N       E                     dE             d eps       ncg     rms          rms(c)
RMM:   1    -0.413154470321E+03    0.80165E-02   -0.98262E+00  4264   0.835E-01    0.837E-01
RMM:   2    -0.413162739751E+03   -0.82694E-02   -0.11118E-01  4313   0.970E-02    0.581E-01
RMM:   3    -0.413161649319E+03    0.10904E-02   -0.67680E-03  4730   0.370E-02    0.127E-01
RMM:   4    -0.413162427003E+03   -0.77768E-03   -0.17819E-03  5181   0.381E-02    0.118E-01
RMM:   5    -0.413161716377E+03    0.71063E-03   -0.53125E-04  4910   0.240E-02    0.435E-02
RMM:   6    -0.413161645819E+03    0.70558E-04   -0.25555E-04  5200   0.172E-02    0.203E-02
RMM:   7    -0.413161675851E+03   -0.30033E-04   -0.96827E-05  5652   0.945E-03    0.113E-02
RMM:   8    -0.413161679061E+03   -0.32095E-05   -0.17776E-05  4441   0.511E-03    0.597E-03
RMM:   9    -0.413161682294E+03   -0.32335E-05   -0.23142E-06  2577   0.230E-03    0.290E-03
RMM:  10    -0.413161689028E+03   -0.67333E-05   -0.19174E-06  2548   0.199E-03    0.153E-03
RMM:  11    -0.413161699431E+03   -0.10403E-04   -0.24656E-06  2545   0.196E-03    0.857E-04
RMM:  12    -0.413161703241E+03   -0.38100E-05   -0.71851E-07  2227   0.125E-03    0.484E-04
RMM:  13    -0.413161706466E+03   -0.32254E-05   -0.52211E-07  2043   0.987E-04    0.483E-04
RMM:  14    -0.413161711246E+03   -0.47795E-05   -0.89859E-07  2138   0.103E-03    0.264E-04
RMM:  15    -0.413161712293E+03   -0.10474E-05   -0.20407E-07  1137   0.625E-04    0.157E-04
RMM:  16    -0.413161713700E+03   -0.14069E-05   -0.22062E-07  1293   0.681E-04    0.624E-05
RMM:  17    -0.413161714300E+03   -0.59960E-06   -0.10105E-07  1119   0.590E-04
  145 T=    60. E= -.41286604E+03 F= -.41316171E+03 E0= -.41314108E+03  EK= 0.29567E+00 SP= 0.00E+00 SK= 0.00E+00
       N       E                     dE             d eps       ncg     rms          rms(c)
RMM:   1    -0.413155027517E+03    0.66862E-02   -0.99461E+00  4264   0.845E-01    0.820E-01
RMM:   2    -0.413164652953E+03   -0.96254E-02   -0.11570E-01  4303   0.992E-02    0.591E-01
RMM:   3    -0.413163190038E+03    0.14629E-02   -0.62980E-03  4860   0.379E-02    0.129E-01
RMM:   4    -0.413177025813E+03   -0.13836E-01   -0.14291E-02  5161   0.101E-01    0.494E-01
RMM:   5    -0.413163058818E+03    0.13967E-01   -0.70614E-03  4832   0.817E-02    0.384E-02
RMM:   6    -0.413163055432E+03    0.33864E-05   -0.12004E-03  5687   0.327E-02    0.168E-02
RMM:   7    -0.413163084198E+03   -0.28767E-04   -0.15845E-04  5605   0.107E-02    0.968E-03
RMM:   8    -0.413163099238E+03   -0.15040E-04   -0.27094E-05  4590   0.536E-03    0.564E-03
RMM:   9    -0.413163106906E+03   -0.76678E-05   -0.40261E-06  2788   0.258E-03    0.264E-03
RMM:  10    -0.413163117482E+03   -0.10576E-04   -0.19742E-06  2551   0.194E-03    0.167E-03
RMM:  11    -0.413163127658E+03   -0.10176E-04   -0.12858E-06  2500   0.151E-03    0.760E-04
RMM:  12    -0.413163133009E+03   -0.53509E-05   -0.61080E-07  2095   0.108E-03    0.379E-04
RMM:  13    -0.413163137208E+03   -0.41989E-05   -0.42424E-07  1773   0.897E-04    0.260E-04
RMM:  14    -0.413163140575E+03   -0.33678E-05   -0.34745E-07  1639   0.821E-04    0.151E-04
RMM:  15    -0.413163142397E+03   -0.18215E-05   -0.20640E-07  1399   0.709E-04    0.888E-05
RMM:  16    -0.413163144164E+03   -0.17673E-05   -0.21719E-07  1434   0.718E-04    0.511E-05
RMM:  17    -0.413163144270E+03   -0.10548E-06   -0.69420E-08   950   0.564E-04
  146 T=    60. E= -.41286631E+03 F= -.41316314E+03 E0= -.41314252E+03  EK= 0.29683E+00 SP= 0.00E+00 SK= 0.00E+00
       N       E                     dE             d eps       ncg     rms          rms(c)
RMM:   1    -0.413155294476E+03    0.78497E-02   -0.10090E+01  4264   0.850E-01    0.840E-01
RMM:   2    -0.413164284650E+03   -0.89902E-02   -0.11589E-01  4311   0.969E-02    0.590E-01
RMM:   3    -0.413163549395E+03    0.73526E-03   -0.62812E-03  4960   0.379E-02    0.144E-01
RMM:   4    -0.413185327348E+03   -0.21778E-01   -0.22415E-02  5158   0.125E-01    0.616E-01
RMM:   5    -0.413163325379E+03    0.22002E-01   -0.11031E-02  4827   0.102E-01    0.441E-02
RMM:   6    -0.413163338125E+03   -0.12746E-04   -0.18194E-03  5701   0.402E-02    0.164E-02
RMM:   7    -0.413163366378E+03   -0.28253E-04   -0.22897E-04  5772   0.124E-02    0.108E-02
RMM:   8    -0.413163376515E+03   -0.10137E-04   -0.30740E-05  4520   0.542E-03    0.615E-03
RMM:   9    -0.413163383022E+03   -0.65070E-05   -0.51992E-06  2842   0.277E-03    0.286E-03
RMM:  10    -0.413163389988E+03   -0.69655E-05   -0.20638E-06  2558   0.192E-03    0.174E-03
RMM:  11    -0.413163396534E+03   -0.65463E-05   -0.12625E-06  2504   0.151E-03    0.868E-04
RMM:  12    -0.413163400584E+03   -0.40499E-05   -0.74172E-07  2210   0.115E-03    0.344E-04
RMM:  13    -0.413163402714E+03   -0.21302E-05   -0.39621E-07  1813   0.904E-04    0.260E-04
RMM:  14    -0.413163404913E+03   -0.21989E-05   -0.40366E-07  1750   0.870E-04    0.153E-04
RMM:  15    -0.413163406088E+03   -0.11748E-05   -0.25739E-07  1505   0.746E-04    0.870E-05
RMM:  16    -0.413163406818E+03   -0.73029E-06   -0.19682E-07  1365   0.701E-04
  147 T=    61. E= -.41286620E+03 F= -.41316341E+03 E0= -.41314279E+03  EK= 0.29721E+00 SP= 0.00E+00 SK= 0.00E+00
       N       E                     dE             d eps       ncg     rms          rms(c)
RMM:   1    -0.413154537430E+03    0.88687E-02   -0.10126E+01  4264   0.853E-01    0.846E-01
RMM:   2    -0.413163418011E+03   -0.88806E-02   -0.11488E-01  4294   0.101E-01    0.582E-01
RMM:   3    -0.413162975020E+03    0.44299E-03   -0.63972E-03  4960   0.426E-02    0.158E-01
RMM:   4    -0.413191572301E+03   -0.28597E-01   -0.29668E-02  5142   0.143E-01    0.704E-01
RMM:   5    -0.413162596922E+03    0.28975E-01   -0.14437E-02  4822   0.117E-01    0.495E-02
RMM:   6    -0.413162633619E+03   -0.36697E-04   -0.23304E-03  5675   0.459E-02    0.170E-02
RMM:   7    -0.413162660046E+03   -0.26428E-04   -0.29036E-04  5872   0.139E-02    0.116E-02
RMM:   8    -0.413162665056E+03   -0.50100E-05   -0.34575E-05  4387   0.544E-03    0.682E-03
RMM:   9    -0.413162668748E+03   -0.36915E-05   -0.58973E-06  2860   0.291E-03    0.317E-03
RMM:  10    -0.413162672814E+03   -0.40659E-05   -0.21541E-06  2559   0.194E-03    0.178E-03
RMM:  11    -0.413162676147E+03   -0.33334E-05   -0.12862E-06  2495   0.152E-03    0.897E-04
RMM:  12    -0.413162678318E+03   -0.21710E-05   -0.85221E-07  2336   0.121E-03    0.338E-04
RMM:  13    -0.413162678991E+03   -0.67255E-06   -0.36162E-07  1759   0.892E-04
  148 T=    60. E= -.41286592E+03 F= -.41316268E+03 E0= -.41314206E+03  EK= 0.29676E+00 SP= 0.00E+00 SK= 0.00E+00
       N       E                     dE             d eps       ncg     rms          rms(c)
RMM:   1    -0.413155291638E+03    0.73867E-02   -0.10111E+01  4264   0.860E-01    0.820E-01
RMM:   2    -0.413164872599E+03   -0.95810E-02   -0.11862E-01  4301   0.102E-01    0.587E-01
RMM:   3    -0.413164379647E+03    0.49295E-03   -0.58755E-03  4984   0.418E-02    0.156E-01
RMM:   4    -0.413195021327E+03   -0.30642E-01   -0.32064E-02  5144   0.149E-01    0.728E-01
RMM:   5    -0.413163895447E+03    0.31126E-01   -0.15448E-02  4825   0.122E-01    0.491E-02
RMM:   6    -0.413163942366E+03   -0.46919E-04   -0.25133E-03  5684   0.475E-02    0.126E-02
RMM:   7    -0.413163979821E+03   -0.37455E-04   -0.30765E-04  5886   0.141E-02    0.104E-02
RMM:   8    -0.413163990285E+03   -0.10464E-04   -0.34308E-05  4185   0.516E-03    0.660E-03
RMM:   9    -0.413164001195E+03   -0.10910E-04   -0.54435E-06  2800   0.285E-03    0.326E-03
RMM:  10    -0.413164010946E+03   -0.97510E-05   -0.22766E-06  2560   0.198E-03    0.172E-03
RMM:  11    -0.413164018841E+03   -0.78950E-05   -0.13913E-06  2509   0.153E-03    0.833E-04
RMM:  12    -0.413164024017E+03   -0.51756E-05   -0.88677E-07  2309   0.119E-03    0.341E-04
RMM:  13    -0.413164025913E+03   -0.18962E-05   -0.37697E-07  1776   0.894E-04    0.269E-04
RMM:  14    -0.413164028798E+03   -0.28849E-05   -0.55337E-07  1802   0.935E-04    0.158E-04
RMM:  15    -0.413164029648E+03   -0.84991E-06   -0.23950E-07  1467   0.745E-04
  149 T=    61. E= -.41286620E+03 F= -.41316403E+03 E0= -.41314342E+03  EK= 0.29783E+00 SP= 0.00E+00 SK= 0.00E+00
       N       E                     dE             d eps       ncg     rms          rms(c)
RMM:   1    -0.413155855477E+03    0.81733E-02   -0.10197E+01  4264   0.871E-01    0.833E-01
RMM:   2    -0.413165419883E+03   -0.95644E-02   -0.11946E-01  4305   0.998E-02    0.594E-01
RMM:   3    -0.413165102815E+03    0.31707E-03   -0.62217E-03  5056   0.444E-02    0.173E-01
RMM:   4    -0.413201941512E+03   -0.36839E-01   -0.39965E-02  5140   0.166E-01    0.798E-01
RMM:   5    -0.413164352970E+03    0.37589E-01   -0.18422E-02  4816   0.134E-01    0.552E-02
RMM:   6    -0.413164410752E+03   -0.57782E-04   -0.30145E-03  5662   0.521E-02    0.130E-02
RMM:   7    -0.413164455343E+03   -0.44591E-04   -0.38223E-04  6015   0.155E-02    0.110E-02
RMM:   8    -0.413164464117E+03   -0.87736E-05   -0.38996E-05  4298   0.542E-03    0.713E-03
RMM:   9    -0.413164473566E+03   -0.94489E-05   -0.62067E-06  2833   0.301E-03    0.352E-03
RMM:  10    -0.413164481697E+03   -0.81313E-05   -0.23612E-06  2556   0.207E-03    0.185E-03
RMM:  11    -0.413164488735E+03   -0.70377E-05   -0.14618E-06  2530   0.157E-03    0.889E-04
RMM:  12    -0.413164492759E+03   -0.40246E-05   -0.83911E-07  2311   0.119E-03    0.382E-04
RMM:  13    -0.413164494295E+03   -0.15358E-05   -0.38610E-07  1867   0.913E-04    0.297E-04
RMM:  14    -0.413164496326E+03   -0.20313E-05   -0.48530E-07  1765   0.912E-04    0.168E-04
RMM:  15    -0.413164497032E+03   -0.70511E-06   -0.27706E-07  1594   0.778E-04
  150 T=    61. E= -.41286608E+03 F= -.41316450E+03 E0= -.41314389E+03  EK= 0.29842E+00 SP= 0.00E+00 SK= 0.00E+00
