       N       E                     dE             d eps       ncg     rms          rms(c)
RMM:   1     0.220164946039E+04    0.22016E+04   -0.52440E+04  2132   0.654E+02
RMM:   2     0.705849890934E+03   -0.14958E+04   -0.16264E+04  2132   0.177E+02
RMM:   3     0.138001034851E+03   -0.56785E+03   -0.65728E+03  2132   0.117E+02
RMM:   4    -0.159335127869E+03   -0.29734E+03   -0.27864E+03  2132   0.936E+01
RMM:   5    -0.287520164578E+03   -0.12819E+03   -0.11454E+03  2132   0.595E+01
RMM:   6    -0.350016257457E+03   -0.62496E+02   -0.55191E+02  2132   0.423E+01
RMM:   7    -0.382891099623E+03   -0.32875E+02   -0.30399E+02  2132   0.293E+01
RMM:   8    -0.404279000812E+03   -0.21388E+02   -0.18360E+02  2132   0.233E+01
RMM:   9    -0.435992161030E+03   -0.31713E+02   -0.30624E+02  6100   0.173E+01
RMM:  10    -0.441298378342E+03   -0.53062E+01   -0.63163E+01  6398   0.539E+00
RMM:  11    -0.442513461149E+03   -0.12151E+01   -0.11263E+01  6211   0.173E+00
RMM:  12    -0.442887478407E+03   -0.37402E+00   -0.27406E+00  6359   0.601E-01    0.134E+02
RMM:  13    -0.425538022538E+03    0.17349E+02   -0.80897E+01  4676   0.119E+01    0.712E+01
RMM:  14    -0.498391099441E+03   -0.72853E+02   -0.53460E+02  5427   0.231E+01    0.305E+01
RMM:  15    -0.416109845305E+03    0.82281E+02   -0.19982E+02  5113   0.163E+01    0.711E+00
RMM:  16    -0.414033823478E+03    0.20760E+01   -0.39330E+01  6089   0.608E+00    0.428E+00
RMM:  17    -0.413216498047E+03    0.81733E+00   -0.24818E+00  5398   0.187E+00    0.245E+00
RMM:  18    -0.413172227344E+03    0.44271E-01   -0.78687E-01  5974   0.914E-01    0.167E+00
RMM:  19    -0.413169122937E+03    0.31044E-02   -0.26806E-01  5711   0.554E-01    0.877E-01
RMM:  20    -0.413188136063E+03   -0.19013E-01   -0.26621E-01  5560   0.538E-01    0.606E-01
RMM:  21    -0.413168363211E+03    0.19773E-01   -0.34257E-02  5005   0.235E-01    0.285E-01
RMM:  22    -0.413165308434E+03    0.30548E-02   -0.21222E-02  5921   0.136E-01    0.133E-01
RMM:  23    -0.413164360850E+03    0.94758E-03   -0.53589E-03  6024   0.643E-02    0.820E-02
RMM:  24    -0.413163091588E+03    0.12693E-02   -0.16461E-03  5274   0.405E-02    0.474E-02
RMM:  25    -0.413162610411E+03    0.48118E-03   -0.85327E-04  5160   0.271E-02    0.375E-02
RMM:  26    -0.413162771146E+03   -0.16073E-03   -0.99177E-04  5809   0.322E-02    0.349E-02
RMM:  27    -0.413163209958E+03   -0.43881E-03   -0.19815E-04  4529   0.205E-02    0.187E-02
RMM:  28    -0.413163662895E+03   -0.45294E-03   -0.17257E-04  5226   0.182E-02    0.826E-03
RMM:  29    -0.413164037060E+03   -0.37417E-03   -0.10335E-04  4532   0.149E-02    0.490E-03
RMM:  30    -0.413164267676E+03   -0.23062E-03   -0.75372E-05  4150   0.103E-02    0.399E-03
RMM:  31    -0.413164400096E+03   -0.13242E-03   -0.55799E-05  3201   0.719E-03    0.318E-03
RMM:  32    -0.413164422246E+03   -0.22150E-04   -0.20442E-05  2990   0.305E-03    0.171E-03
RMM:  33    -0.413164433126E+03   -0.10881E-04   -0.84742E-06  2811   0.231E-03    0.548E-04
RMM:  34    -0.413164434495E+03   -0.13681E-05   -0.46201E-06  2630   0.159E-03    0.632E-04
RMM:  35    -0.413164433719E+03    0.77554E-06   -0.21608E-06  2286   0.121E-03
    1 T=    61. E= -.41286662E+03 F= -.41316443E+03 E0= -.41314194E+03  EK= 0.29781E+00 SP= 0.00E+00 SK= 0.00E+00
       N       E                     dE             d eps       ncg     rms          rms(c)
RMM:   1    -0.413160693692E+03    0.37408E-02   -0.95885E+00  3992   0.638E-01    0.885E-01
RMM:   2    -0.413167688859E+03   -0.69952E-02   -0.11750E-01  4033   0.928E-02    0.648E-01
RMM:   3    -0.413164400582E+03    0.32883E-02   -0.12899E-02  4766   0.456E-02    0.994E-02
RMM:   4    -0.413185647031E+03   -0.21246E-01   -0.22407E-02  5207   0.124E-01    0.609E-01
RMM:   5    -0.413164021384E+03    0.21626E-01   -0.10633E-02  4848   0.102E-01    0.443E-02
RMM:   6    -0.413164172320E+03   -0.15094E-03   -0.19102E-03  5791   0.422E-02    0.308E-02
RMM:   7    -0.413164173058E+03   -0.73779E-06   -0.36111E-04  5661   0.174E-02    0.186E-02
RMM:   8    -0.413164171946E+03    0.11115E-05   -0.44502E-05  4951   0.729E-03    0.811E-03
RMM:   9    -0.413164174807E+03   -0.28610E-05   -0.95085E-06  3406   0.330E-03    0.625E-03
RMM:  10    -0.413164179721E+03   -0.49143E-05   -0.18202E-06  2567   0.205E-03    0.381E-03
RMM:  11    -0.413164184966E+03   -0.52450E-05   -0.13705E-06  2534   0.173E-03    0.190E-03
RMM:  12    -0.413164191713E+03   -0.67465E-05   -0.14301E-06  2540   0.169E-03    0.791E-04
RMM:  13    -0.413164193327E+03   -0.16141E-05   -0.53764E-07  2263   0.112E-03    0.496E-04
RMM:  14    -0.413164193663E+03   -0.33616E-06   -0.30569E-07  1704   0.787E-04
    2 T=    61. E= -.41286642E+03 F= -.41316419E+03 E0= -.41314169E+03  EK= 0.29777E+00 SP= 0.00E+00 SK= 0.00E+00
       N       E                     dE             d eps       ncg     rms          rms(c)
RMM:   1    -0.413161721832E+03    0.24715E-02   -0.95965E+00  4188   0.645E-01    0.905E-01
RMM:   2    -0.413167819251E+03   -0.60974E-02   -0.11590E-01  4057   0.915E-02    0.643E-01
RMM:   3    -0.413165055974E+03    0.27633E-02   -0.12555E-02  4804   0.462E-02    0.118E-01
RMM:   4    -0.413190945142E+03   -0.25889E-01   -0.26798E-02  5172   0.137E-01    0.672E-01
RMM:   5    -0.413164580233E+03    0.26365E-01   -0.12788E-02  4830   0.112E-01    0.470E-02
RMM:   6    -0.413164750012E+03   -0.16978E-03   -0.22248E-03  5762   0.463E-02    0.325E-02
RMM:   7    -0.413164741661E+03    0.83512E-05   -0.39994E-04  5660   0.186E-02    0.198E-02
RMM:   8    -0.413164734243E+03    0.74176E-05   -0.54627E-05  5077   0.814E-03    0.903E-03
RMM:   9    -0.413164732677E+03    0.15664E-05   -0.11100E-05  3678   0.370E-03    0.683E-03
RMM:  10    -0.413164732973E+03   -0.29635E-06   -0.18182E-06  2566   0.215E-03
    3 T=    61. E= -.41286679E+03 F= -.41316473E+03 E0= -.41314224E+03  EK= 0.29794E+00 SP= 0.00E+00 SK= 0.00E+00
       N       E                     dE             d eps       ncg     rms          rms(c)
RMM:   1    -0.413161224468E+03    0.35082E-02   -0.95228E+00  4220   0.647E-01    0.890E-01
RMM:   2    -0.413167456327E+03   -0.62319E-02   -0.11537E-01  4222   0.914E-02    0.637E-01
RMM:   3    -0.413168659063E+03   -0.12027E-02   -0.15301E-02  5148   0.735E-02    0.288E-01
RMM:   4    -0.413193085193E+03   -0.24426E-01   -0.41002E-02  5124   0.172E-01    0.698E-01
RMM:   5    -0.413164449674E+03    0.28636E-01   -0.11573E-02  4726   0.115E-01    0.602E-02
RMM:   6    -0.413164492316E+03   -0.42641E-04   -0.21551E-03  5513   0.464E-02    0.304E-02
RMM:   7    -0.413164514002E+03   -0.21686E-04   -0.38051E-04  6029   0.172E-02    0.187E-02
RMM:   8    -0.413164511116E+03    0.28862E-05   -0.68483E-05  5231   0.921E-03    0.801E-03
RMM:   9    -0.413164508755E+03    0.23604E-05   -0.91537E-06  3507   0.374E-03    0.402E-03
RMM:  10    -0.413164509857E+03   -0.11016E-05   -0.19990E-06  2575   0.218E-03    0.263E-03
RMM:  11    -0.413164511554E+03   -0.16969E-05   -0.14327E-06  2534   0.187E-03    0.154E-03
RMM:  12    -0.413164512520E+03   -0.96619E-06   -0.77533E-07  2493   0.143E-03
    4 T=    61. E= -.41286661E+03 F= -.41316451E+03 E0= -.41314202E+03  EK= 0.29790E+00 SP= 0.00E+00 SK= 0.00E+00
       N       E                     dE             d eps       ncg     rms          rms(c)
RMM:   1    -0.413161177568E+03    0.33340E-02   -0.95789E+00  4237   0.651E-01    0.883E-01
RMM:   2    -0.413167962384E+03   -0.67848E-02   -0.11748E-01  4074   0.893E-02    0.647E-01
RMM:   3    -0.413165120564E+03    0.28418E-02   -0.12962E-02  4932   0.451E-02    0.118E-01
RMM:   4    -0.413195761339E+03   -0.30641E-01   -0.32273E-02  5147   0.150E-01    0.730E-01
RMM:   5    -0.413164468328E+03    0.31293E-01   -0.14957E-02  4813   0.122E-01    0.480E-02
RMM:   6    -0.413164664899E+03   -0.19657E-03   -0.25553E-03  5763   0.495E-02    0.313E-02
RMM:   7    -0.413164671675E+03   -0.67756E-05   -0.41570E-04  5767   0.186E-02    0.200E-02
RMM:   8    -0.413164669341E+03    0.23342E-05   -0.63520E-05  5090   0.846E-03    0.929E-03
RMM:   9    -0.413164670193E+03   -0.85206E-06   -0.12389E-05  3853   0.397E-03    0.683E-03
RMM:  10    -0.413164674191E+03   -0.39980E-05   -0.18519E-06  2572   0.213E-03    0.432E-03
RMM:  11    -0.413164678191E+03   -0.40008E-05   -0.12707E-06  2533   0.176E-03    0.229E-03
RMM:  12    -0.413164683994E+03   -0.58024E-05   -0.18137E-06  2589   0.192E-03    0.996E-04
RMM:  13    -0.413164685354E+03   -0.13604E-05   -0.52035E-07  2342   0.124E-03    0.667E-04
RMM:  14    -0.413164685355E+03   -0.71304E-09   -0.22338E-07  1806   0.824E-04
    5 T=    61. E= -.41286663E+03 F= -.41316469E+03 E0= -.41314221E+03  EK= 0.29806E+00 SP= 0.00E+00 SK= 0.00E+00
       N       E                     dE             d eps       ncg     rms          rms(c)
RMM:   1    -0.413162033388E+03    0.26520E-02   -0.96033E+00  4247   0.658E-01    0.902E-01
RMM:   2    -0.413168025893E+03   -0.59925E-02   -0.11633E-01  4096   0.908E-02    0.645E-01
RMM:   3    -0.413165365865E+03    0.26600E-02   -0.12577E-02  4821   0.426E-02    0.110E-01
RMM:   4    -0.413187791435E+03   -0.22426E-01   -0.23070E-02  5149   0.127E-01    0.627E-01
RMM:   5    -0.413164974328E+03    0.22817E-01   -0.11056E-02  4822   0.104E-01    0.452E-02
RMM:   6    -0.413165128851E+03   -0.15452E-03   -0.19920E-03  5772   0.427E-02    0.310E-02
RMM:   7    -0.413165123639E+03    0.52120E-05   -0.35832E-04  5622   0.178E-02    0.192E-02
RMM:   8    -0.413165115478E+03    0.81604E-05   -0.49558E-05  4939   0.787E-03    0.892E-03
RMM:   9    -0.413165114158E+03    0.13199E-05   -0.99613E-06  3568   0.356E-03    0.687E-03
RMM:  10    -0.413165114523E+03   -0.36528E-06   -0.16518E-06  2547   0.213E-03
    6 T=    61. E= -.41286677E+03 F= -.41316511E+03 E0= -.41314265E+03  EK= 0.29835E+00 SP= 0.00E+00 SK= 0.00E+00
       N       E                     dE             d eps       ncg     rms          rms(c)
RMM:   1    -0.413161677092E+03    0.34371E-02   -0.95553E+00  4255   0.659E-01    0.897E-01
RMM:   2    -0.413167816565E+03   -0.61395E-02   -0.11568E-01  4234   0.899E-02    0.638E-01
RMM:   3    -0.413168535431E+03   -0.71887E-03   -0.14938E-02  5117   0.696E-02    0.272E-01
RMM:   4    -0.413195292269E+03   -0.26757E-01   -0.41903E-02  5117   0.173E-01    0.720E-01
RMM:   5    -0.413164824432E+03    0.30468E-01   -0.12633E-02  4739   0.118E-01    0.599E-02
RMM:   6    -0.413164893845E+03   -0.69413E-04   -0.23225E-03  5544   0.478E-02    0.309E-02
RMM:   7    -0.413164911628E+03   -0.17783E-04   -0.39297E-04  6016   0.173E-02    0.188E-02
RMM:   8    -0.413164907243E+03    0.43847E-05   -0.67834E-05  5212   0.911E-03    0.807E-03
RMM:   9    -0.413164903566E+03    0.36769E-05   -0.92466E-06  3457   0.368E-03    0.418E-03
RMM:  10    -0.413164903384E+03    0.18284E-06   -0.21956E-06  2588   0.222E-03
    7 T=    61. E= -.41286646E+03 F= -.41316490E+03 E0= -.41314246E+03  EK= 0.29845E+00 SP= 0.00E+00 SK= 0.00E+00
       N       E                     dE             d eps       ncg     rms          rms(c)
RMM:   1    -0.413161891996E+03    0.30116E-02   -0.95726E+00  4264   0.664E-01    0.882E-01
RMM:   2    -0.413168837319E+03   -0.69453E-02   -0.11713E-01  4167   0.909E-02    0.645E-01
RMM:   3    -0.413166118669E+03    0.27186E-02   -0.12964E-02  4946   0.496E-02    0.134E-01
RMM:   4    -0.413201711315E+03   -0.35593E-01   -0.38338E-02  5138   0.163E-01    0.786E-01
RMM:   5    -0.413165247425E+03    0.36464E-01   -0.17387E-02  4807   0.131E-01    0.507E-02
RMM:   6    -0.413165447201E+03   -0.19978E-03   -0.28900E-03  5755   0.531E-02    0.322E-02
RMM:   7    -0.413165453042E+03   -0.58405E-05   -0.45333E-04  5815   0.192E-02    0.206E-02
RMM:   8    -0.413165451282E+03    0.17600E-05   -0.68583E-05  5182   0.883E-03    0.948E-03
RMM:   9    -0.413165450943E+03    0.33892E-06   -0.13424E-05  3924   0.411E-03    0.663E-03
RMM:  10    -0.413165453813E+03   -0.28698E-05   -0.20432E-06  2578   0.218E-03    0.424E-03
RMM:  11    -0.413165456566E+03   -0.27531E-05   -0.12154E-06  2524   0.173E-03    0.226E-03
RMM:  12    -0.413165460463E+03   -0.38966E-05   -0.17828E-06  2581   0.191E-03    0.937E-04
RMM:  13    -0.413165461576E+03   -0.11131E-05   -0.57752E-07  2350   0.126E-03    0.687E-04
RMM:  14    -0.413165461393E+03    0.18288E-06   -0.23529E-07  1838   0.840E-04
    8 T=    61. E= -.41286667E+03 F= -.41316546E+03 E0= -.41314303E+03  EK= 0.29879E+00 SP= 0.00E+00 SK= 0.00E+00
       N       E                     dE             d eps       ncg     rms          rms(c)
RMM:   1    -0.413162347180E+03    0.31144E-02   -0.96207E+00  4283   0.673E-01    0.897E-01
RMM:   2    -0.413168961355E+03   -0.66142E-02   -0.11697E-01  4189   0.928E-02    0.647E-01
RMM:   3    -0.413165908840E+03    0.30525E-02   -0.12660E-02  4797   0.442E-02    0.108E-01
RMM:   4    -0.413189012874E+03   -0.23104E-01   -0.23821E-02  5150   0.128E-01    0.636E-01
RMM:   5    -0.413165502642E+03    0.23510E-01   -0.11507E-02  4817   0.105E-01    0.446E-02
RMM:   6    -0.413165647251E+03   -0.14461E-03   -0.19652E-03  5785   0.428E-02    0.297E-02
RMM:   7    -0.413165645425E+03    0.18263E-05   -0.34100E-04  5633   0.176E-02    0.188E-02
RMM:   8    -0.413165637506E+03    0.79191E-05   -0.53510E-05  4950   0.807E-03    0.893E-03
RMM:   9    -0.413165636026E+03    0.14798E-05   -0.10646E-05  3684   0.371E-03    0.686E-03
RMM:  10    -0.413165636649E+03   -0.62317E-06   -0.16357E-06  2543   0.212E-03
    9 T=    61. E= -.41286661E+03 F= -.41316564E+03 E0= -.41314323E+03  EK= 0.29903E+00 SP= 0.00E+00 SK= 0.00E+00
       N       E                     dE             d eps       ncg     rms          rms(c)
RMM:   1    -0.413162685568E+03    0.29505E-02   -0.95981E+00  4296   0.673E-01    0.904E-01
RMM:   2    -0.413168772011E+03   -0.60864E-02   -0.11585E-01  4273   0.938E-02    0.640E-01
RMM:   3    -0.413169290789E+03   -0.51878E-03   -0.14932E-02  5095   0.708E-02    0.270E-01
RMM:   4    -0.413196301884E+03   -0.27011E-01   -0.41905E-02  5111   0.173E-01    0.722E-01
RMM:   5    -0.413165646097E+03    0.30656E-01   -0.12812E-02  4739   0.119E-01    0.592E-02
RMM:   6    -0.413165722696E+03   -0.76599E-04   -0.23393E-03  5557   0.479E-02    0.313E-02
RMM:   7    -0.413165732709E+03   -0.10013E-04   -0.38907E-04  5999   0.171E-02    0.191E-02
RMM:   8    -0.413165726997E+03    0.57127E-05   -0.67236E-05  5201   0.903E-03    0.813E-03
RMM:   9    -0.413165722110E+03    0.48862E-05   -0.93007E-06  3477   0.370E-03    0.419E-03
RMM:  10    -0.413165720842E+03    0.12687E-05   -0.22267E-06  2585   0.224E-03    0.281E-03
RMM:  11    -0.413165719001E+03    0.18408E-05   -0.12813E-06  2521   0.180E-03    0.150E-03
RMM:  12    -0.413165717091E+03    0.19095E-05   -0.77850E-07  2480   0.142E-03    0.546E-04
RMM:  13    -0.413165716094E+03    0.99718E-06   -0.38293E-07  2113   0.102E-03
   10 T=    61. E= -.41286648E+03 F= -.41316572E+03 E0= -.41314333E+03  EK= 0.29923E+00 SP= 0.00E+00 SK= 0.00E+00
       N       E                     dE             d eps       ncg     rms          rms(c)
RMM:   1    -0.413162977357E+03    0.27397E-02   -0.95677E+00  4290   0.679E-01    0.882E-01
RMM:   2    -0.413169674698E+03   -0.66973E-02   -0.11697E-01  4240   0.941E-02    0.642E-01
RMM:   3    -0.413166961283E+03    0.27134E-02   -0.12651E-02  4890   0.482E-02    0.124E-01
RMM:   4    -0.413198868044E+03   -0.31907E-01   -0.33794E-02  5140   0.153E-01    0.745E-01
RMM:   5    -0.413166273970E+03    0.32594E-01   -0.15761E-02  4807   0.124E-01    0.486E-02
RMM:   6    -0.413166467991E+03   -0.19402E-03   -0.26318E-03  5759   0.499E-02    0.320E-02
RMM:   7    -0.413166469304E+03   -0.13128E-05   -0.42598E-04  5734   0.188E-02    0.203E-02
RMM:   8    -0.413166463320E+03    0.59837E-05   -0.63697E-05  5096   0.857E-03    0.943E-03
RMM:   9    -0.413166461447E+03    0.18734E-05   -0.12816E-05  3874   0.403E-03    0.690E-03
RMM:  10    -0.413166462471E+03   -0.10242E-05   -0.18610E-06  2566   0.214E-03    0.435E-03
RMM:  11    -0.413166463613E+03   -0.11426E-05   -0.12578E-06  2521   0.176E-03    0.228E-03
RMM:  12    -0.413166465153E+03   -0.15399E-05   -0.16923E-06  2575   0.189E-03    0.966E-04
RMM:  13    -0.413166465430E+03   -0.27625E-06   -0.49752E-07  2331   0.123E-03
   11 T=    61. E= -.41286680E+03 F= -.41316647E+03 E0= -.41314411E+03  EK= 0.29967E+00 SP= 0.00E+00 SK= 0.00E+00
       N       E                     dE             d eps       ncg     rms          rms(c)
RMM:   1    -0.413163036645E+03    0.34285E-02   -0.96409E+00  4296   0.683E-01    0.893E-01
RMM:   2    -0.413169670378E+03   -0.66337E-02   -0.11772E-01  4234   0.925E-02    0.649E-01
RMM:   3    -0.413166736544E+03    0.29338E-02   -0.12793E-02  4811   0.448E-02    0.109E-01
RMM:   4    -0.413192195054E+03   -0.25459E-01   -0.26463E-02  5135   0.135E-01    0.667E-01
RMM:   5    -0.413166262422E+03    0.25933E-01   -0.12629E-02  4816   0.110E-01    0.453E-02
RMM:   6    -0.413166426145E+03   -0.16372E-03   -0.21456E-03  5791   0.446E-02    0.295E-02
RMM:   7    -0.413166429957E+03   -0.38127E-05   -0.34879E-04  5690   0.177E-02    0.189E-02
RMM:   8    -0.413166422304E+03    0.76537E-05   -0.59536E-05  4980   0.832E-03    0.921E-03
RMM:   9    -0.413166420585E+03    0.17183E-05   -0.11759E-05  3845   0.392E-03    0.703E-03
RMM:  10    -0.413166421344E+03   -0.75863E-06   -0.16752E-06  2548   0.213E-03
   12 T=    61. E= -.41286648E+03 F= -.41316642E+03 E0= -.41314409E+03  EK= 0.29995E+00 SP= 0.00E+00 SK= 0.00E+00
       N       E                     dE             d eps       ncg     rms          rms(c)
RMM:   1    -0.413164038954E+03    0.23816E-02   -0.96414E+00  4302   0.686E-01    0.909E-01
RMM:   2    -0.413169680331E+03   -0.56414E-02   -0.11645E-01  4307   0.891E-02    0.643E-01
RMM:   3    -0.413171307888E+03   -0.16276E-02   -0.15665E-02  5125   0.730E-02    0.294E-01
RMM:   4    -0.413194896681E+03   -0.23589E-01   -0.40898E-02  5107   0.171E-01    0.690E-01
RMM:   5    -0.413166934306E+03    0.27962E-01   -0.11335E-02  4716   0.113E-01    0.591E-02
RMM:   6    -0.413166985138E+03   -0.50832E-04   -0.21343E-03  5528   0.456E-02    0.312E-02
RMM:   7    -0.413166996879E+03   -0.11741E-04   -0.36715E-04  5993   0.170E-02    0.189E-02
RMM:   8    -0.413166990129E+03    0.67497E-05   -0.66008E-05  5176   0.907E-03    0.803E-03
RMM:   9    -0.413166984273E+03    0.58557E-05   -0.87725E-06  3433   0.368E-03    0.408E-03
RMM:  10    -0.413166982372E+03    0.19017E-05   -0.20147E-06  2565   0.219E-03    0.268E-03
RMM:  11    -0.413166979387E+03    0.29850E-05   -0.12951E-06  2511   0.181E-03    0.149E-03
RMM:  12    -0.413166976705E+03    0.26820E-05   -0.72953E-07  2467   0.141E-03    0.553E-04
RMM:  13    -0.413166975199E+03    0.15054E-05   -0.36824E-07  2083   0.100E-03    0.324E-04
RMM:  14    -0.413166973803E+03    0.13966E-05   -0.22130E-07  1632   0.803E-04    0.223E-04
RMM:  15    -0.413166971654E+03    0.21484E-05   -0.19811E-07  1469   0.748E-04    0.126E-04
RMM:  16    -0.413166969548E+03    0.21060E-05   -0.16390E-07  1411   0.707E-04    0.128E-04
RMM:  17    -0.413166967436E+03    0.21122E-05   -0.13713E-07  1323   0.662E-04    0.714E-05
RMM:  18    -0.413166966141E+03    0.12951E-05   -0.78412E-08  1061   0.589E-04    0.341E-05
RMM:  19    -0.413166965398E+03    0.74312E-06   -0.44899E-08   874   0.549E-04
   13 T=    61. E= -.41286651E+03 F= -.41316697E+03 E0= -.41314466E+03  EK= 0.30045E+00 SP= 0.00E+00 SK= 0.00E+00
       N       E                     dE             d eps       ncg     rms          rms(c)
RMM:   1    -0.413164391635E+03    0.25745E-02   -0.95843E+00  4293   0.701E-01    0.886E-01
RMM:   2    -0.413170649921E+03   -0.62583E-02   -0.11721E-01  4246   0.909E-02    0.641E-01
RMM:   3    -0.413168207150E+03    0.24428E-02   -0.12549E-02  4934   0.458E-02    0.131E-01
RMM:   4    -0.413201991517E+03   -0.33784E-01   -0.36185E-02  5139   0.158E-01    0.766E-01
RMM:   5    -0.413167452662E+03    0.34539E-01   -0.16723E-02  4797   0.127E-01    0.498E-02
RMM:   6    -0.413167648229E+03   -0.19557E-03   -0.27845E-03  5752   0.513E-02    0.328E-02
RMM:   7    -0.413167645622E+03    0.26065E-05   -0.44025E-04  5711   0.191E-02    0.207E-02
RMM:   8    -0.413167638801E+03    0.68211E-05   -0.66765E-05  5138   0.877E-03    0.965E-03
RMM:   9    -0.413167635703E+03    0.30981E-05   -0.13506E-05  3969   0.414E-03    0.693E-03
RMM:  10    -0.413167635430E+03    0.27328E-06   -0.19218E-06  2568   0.216E-03
   14 T=    61. E= -.41286662E+03 F= -.41316764E+03 E0= -.41314537E+03  EK= 0.30101E+00 SP= 0.00E+00 SK= 0.00E+00
       N       E                     dE             d eps       ncg     rms          rms(c)
RMM:   1    -0.413164219171E+03    0.34165E-02   -0.96739E+00  4304   0.697E-01    0.891E-01
RMM:   2    -0.413171136833E+03   -0.69177E-02   -0.11855E-01  4317   0.928E-02    0.651E-01
RMM:   3    -0.413173294855E+03   -0.21580E-02   -0.17027E-02  5130   0.803E-02    0.327E-01
RMM:   4    -0.413194970405E+03   -0.21676E-01   -0.42838E-02  5091   0.176E-01    0.681E-01
RMM:   5    -0.413167613893E+03    0.27357E-01   -0.10655E-02  4691   0.111E-01    0.586E-02
RMM:   6    -0.413167653116E+03   -0.39223E-04   -0.20298E-03  5486   0.442E-02    0.293E-02
RMM:   7    -0.413167673185E+03   -0.20069E-04   -0.34909E-04  5985   0.169E-02    0.182E-02
RMM:   8    -0.413167672227E+03    0.95876E-06   -0.66463E-05  5177   0.907E-03    0.773E-03
RMM:   9    -0.413167669962E+03    0.22643E-05   -0.88056E-06  3429   0.373E-03    0.385E-03
RMM:  10    -0.413167670962E+03   -0.99964E-06   -0.18478E-06  2552   0.211E-03
   15 T=    61. E= -.41286627E+03 F= -.41316767E+03 E0= -.41314544E+03  EK= 0.30141E+00 SP= 0.00E+00 SK= 0.00E+00
       N       E                     dE             d eps       ncg     rms          rms(c)
RMM:   1    -0.413165689567E+03    0.19804E-02   -0.96872E+00  4303   0.700E-01    0.910E-01
RMM:   2    -0.413171848613E+03   -0.61590E-02   -0.11725E-01  4247   0.942E-02    0.646E-01
RMM:   3    -0.413169363493E+03    0.24851E-02   -0.12745E-02  4927   0.491E-02    0.142E-01
RMM:   4    -0.413204836174E+03   -0.35473E-01   -0.38111E-02  5131   0.162E-01    0.785E-01
RMM:   5    -0.413168543708E+03    0.36292E-01   -0.17528E-02  4800   0.131E-01    0.513E-02
RMM:   6    -0.413168747425E+03   -0.20372E-03   -0.29465E-03  5765   0.528E-02    0.340E-02
RMM:   7    -0.413168738843E+03    0.85814E-05   -0.46349E-04  5754   0.198E-02    0.215E-02
RMM:   8    -0.413168727560E+03    0.11284E-04   -0.71244E-05  5167   0.904E-03    0.102E-02
RMM:   9    -0.413168721572E+03    0.59875E-05   -0.13816E-05  4001   0.421E-03    0.723E-03
RMM:  10    -0.413168717884E+03    0.36876E-05   -0.20644E-06  2577   0.224E-03    0.453E-03
RMM:  11    -0.413168715016E+03    0.28683E-05   -0.11900E-06  2513   0.175E-03    0.253E-03
RMM:  12    -0.413168709748E+03    0.52686E-05   -0.18420E-06  2585   0.201E-03    0.104E-03
RMM:  13    -0.413168707256E+03    0.24914E-05   -0.59580E-07  2393   0.133E-03    0.810E-04
RMM:  14    -0.413168707463E+03   -0.20667E-06   -0.24545E-07  1912   0.868E-04
   16 T=    62. E= -.41286660E+03 F= -.41316871E+03 E0= -.41314651E+03  EK= 0.30210E+00 SP= 0.00E+00 SK= 0.00E+00
       N       E                     dE             d eps       ncg     rms          rms(c)
RMM:   1    -0.413165835157E+03    0.28721E-02   -0.96216E+00  4299   0.708E-01    0.892E-01
RMM:   2    -0.413172384002E+03   -0.65488E-02   -0.11710E-01  4264   0.946E-02    0.641E-01
RMM:   3    -0.413169570324E+03    0.28137E-02   -0.12335E-02  4801   0.478E-02    0.122E-01
RMM:   4    -0.413198387117E+03   -0.28817E-01   -0.30191E-02  5130   0.144E-01    0.708E-01
RMM:   5    -0.413168989162E+03    0.29398E-01   -0.14361E-02  4803   0.118E-01    0.473E-02
RMM:   6    -0.413169169617E+03   -0.18046E-03   -0.24304E-03  5795   0.473E-02    0.313E-02
RMM:   7    -0.413169166880E+03    0.27367E-05   -0.38495E-04  5671   0.185E-02    0.198E-02
RMM:   8    -0.413169155697E+03    0.11183E-04   -0.64835E-05  5035   0.867E-03    0.970E-03
RMM:   9    -0.413169150928E+03    0.47693E-05   -0.12948E-05  3980   0.410E-03    0.726E-03
RMM:  10    -0.413169148484E+03    0.24439E-05   -0.18070E-06  2563   0.215E-03    0.455E-03
RMM:  11    -0.413169146154E+03    0.23301E-05   -0.13289E-06  2517   0.184E-03    0.233E-03
RMM:  12    -0.413169142845E+03    0.33086E-05   -0.15151E-06  2536   0.188E-03    0.938E-04
RMM:  13    -0.413169141797E+03    0.10480E-05   -0.46615E-07  2300   0.121E-03    0.601E-04
RMM:  14    -0.413169141603E+03    0.19452E-06   -0.21547E-07  1815   0.819E-04
   17 T=    62. E= -.41286649E+03 F= -.41316914E+03 E0= -.41314698E+03  EK= 0.30265E+00 SP= 0.00E+00 SK= 0.00E+00
       N       E                     dE             d eps       ncg     rms          rms(c)
RMM:   1    -0.413166195779E+03    0.29460E-02   -0.97041E+00  4295   0.709E-01    0.889E-01
RMM:   2    -0.413173073931E+03   -0.68782E-02   -0.11940E-01  4269   0.947E-02    0.652E-01
RMM:   3    -0.413170103652E+03    0.29703E-02   -0.13022E-02  4859   0.484E-02    0.118E-01
RMM:   4    -0.413200799307E+03   -0.30696E-01   -0.32426E-02  5125   0.149E-01    0.730E-01
RMM:   5    -0.413169465794E+03    0.31334E-01   -0.15295E-02  4799   0.121E-01    0.479E-02
RMM:   6    -0.413169650086E+03   -0.18429E-03   -0.25332E-03  5778   0.486E-02    0.315E-02
RMM:   7    -0.413169652244E+03   -0.21577E-05   -0.40832E-04  5678   0.185E-02    0.199E-02
RMM:   8    -0.413169645927E+03    0.63170E-05   -0.62924E-05  5092   0.853E-03    0.932E-03
RMM:   9    -0.413169643385E+03    0.25415E-05   -0.12780E-05  3886   0.404E-03    0.681E-03
RMM:  10    -0.413169643661E+03   -0.27558E-06   -0.17911E-06  2557   0.210E-03
   18 T=    62. E= -.41286637E+03 F= -.41316964E+03 E0= -.41314752E+03  EK= 0.30327E+00 SP= 0.00E+00 SK= 0.00E+00
       N       E                     dE             d eps       ncg     rms          rms(c)
RMM:   1    -0.413167751607E+03    0.18918E-02   -0.97329E+00  4302   0.715E-01    0.910E-01
RMM:   2    -0.413173855630E+03   -0.61040E-02   -0.11837E-01  4314   0.933E-02    0.649E-01
RMM:   3    -0.413175527537E+03   -0.16719E-02   -0.15979E-02  5110   0.761E-02    0.303E-01
RMM:   4    -0.413199180307E+03   -0.23653E-01   -0.42042E-02  5087   0.173E-01    0.694E-01
RMM:   5    -0.413170806850E+03    0.28373E-01   -0.11427E-02  4700   0.114E-01    0.586E-02
RMM:   6    -0.413170864305E+03   -0.57455E-04   -0.21438E-03  5518   0.455E-02    0.309E-02
RMM:   7    -0.413170873157E+03   -0.88519E-05   -0.36730E-04  5980   0.170E-02    0.191E-02
RMM:   8    -0.413170865639E+03    0.75185E-05   -0.68039E-05  5168   0.916E-03    0.813E-03
RMM:   9    -0.413170858990E+03    0.66482E-05   -0.91346E-06  3466   0.377E-03    0.406E-03
RMM:  10    -0.413170856653E+03    0.23372E-05   -0.20358E-06  2571   0.219E-03    0.267E-03
RMM:  11    -0.413170852969E+03    0.36846E-05   -0.12456E-06  2503   0.180E-03    0.149E-03
RMM:  12    -0.413170849662E+03    0.33070E-05   -0.68408E-07  2456   0.139E-03    0.534E-04
RMM:  13    -0.413170847836E+03    0.18255E-05   -0.34363E-07  2062   0.988E-04    0.319E-04
RMM:  14    -0.413170846196E+03    0.16397E-05   -0.19906E-07  1592   0.788E-04    0.220E-04
RMM:  15    -0.413170843477E+03    0.27195E-05   -0.16469E-07  1401   0.730E-04    0.119E-04
RMM:  16    -0.413170840922E+03    0.25545E-05   -0.13263E-07  1340   0.685E-04    0.122E-04
RMM:  17    -0.413170838194E+03    0.27279E-05   -0.11192E-07  1285   0.653E-04    0.672E-05
RMM:  18    -0.413170836565E+03    0.16298E-05   -0.65422E-08  1021   0.587E-04    0.325E-05
RMM:  19    -0.413170835602E+03    0.96300E-06   -0.38141E-08   858   0.555E-04
   19 T=    62. E= -.41286667E+03 F= -.41317084E+03 E0= -.41314876E+03  EK= 0.30416E+00 SP= 0.00E+00 SK= 0.00E+00
       N       E                     dE             d eps       ncg     rms          rms(c)
RMM:   1    -0.413167964491E+03    0.28721E-02   -0.96848E+00  4298   0.714E-01    0.900E-01
RMM:   2    -0.413173994258E+03   -0.60298E-02   -0.11793E-01  4259   0.918E-02    0.643E-01
RMM:   3    -0.413171903190E+03    0.20911E-02   -0.12606E-02  4960   0.472E-02    0.144E-01
RMM:   4    -0.413208323656E+03   -0.36420E-01   -0.39602E-02  5132   0.165E-01    0.795E-01
RMM:   5    -0.413171015880E+03    0.37308E-01   -0.18085E-02  4787   0.132E-01    0.517E-02
RMM:   6    -0.413171219779E+03   -0.20390E-03   -0.30163E-03  5759   0.532E-02    0.341E-02
RMM:   7    -0.413171213336E+03    0.64427E-05   -0.46741E-04  5717   0.197E-02    0.216E-02
RMM:   8    -0.413171202634E+03    0.10702E-04   -0.73932E-05  5190   0.920E-03    0.103E-02
RMM:   9    -0.413171196256E+03    0.63780E-05   -0.14680E-05  4101   0.434E-03    0.713E-03
RMM:  10    -0.413171192661E+03    0.35954E-05   -0.20951E-06  2575   0.222E-03    0.451E-03
RMM:  11    -0.413171189939E+03    0.27223E-05   -0.11805E-06  2512   0.173E-03    0.252E-03
RMM:  12    -0.413171185187E+03    0.47512E-05   -0.16576E-06  2547   0.196E-03    0.102E-03
RMM:  13    -0.413171183066E+03    0.21212E-05   -0.56788E-07  2372   0.132E-03    0.793E-04
RMM:  14    -0.413171183226E+03   -0.15996E-06   -0.24735E-07  1921   0.870E-04
   20 T=    62. E= -.41286637E+03 F= -.41317118E+03 E0= -.41314915E+03  EK= 0.30482E+00 SP= 0.00E+00 SK= 0.00E+00
       N       E                     dE             d eps       ncg     rms          rms(c)
RMM:   1    -0.413169226729E+03    0.19563E-02   -0.97428E+00  4293   0.732E-01    0.889E-01
RMM:   2    -0.413175713362E+03   -0.64866E-02   -0.12062E-01  4270   0.928E-02    0.652E-01
RMM:   3    -0.413172706902E+03    0.30065E-02   -0.12870E-02  4867   0.454E-02    0.113E-01
RMM:   4    -0.413200328434E+03   -0.27622E-01   -0.28961E-02  5126   0.141E-01    0.694E-01
RMM:   5    -0.413172176144E+03    0.28152E-01   -0.13833E-02  4799   0.115E-01    0.461E-02
RMM:   6    -0.413172338319E+03   -0.16218E-03   -0.22939E-03  5818   0.458E-02    0.294E-02
RMM:   7    -0.413172342709E+03   -0.43904E-05   -0.34024E-04  5690   0.176E-02    0.182E-02
RMM:   8    -0.413172335605E+03    0.71046E-05   -0.66901E-05  5017   0.860E-03    0.967E-03
RMM:   9    -0.413172331607E+03    0.39976E-05   -0.12971E-05  4024   0.417E-03    0.716E-03
RMM:  10    -0.413172330895E+03    0.71223E-06   -0.17217E-06  2552   0.212E-03
   21 T=    62. E= -.41286656E+03 F= -.41317233E+03 E0= -.41315034E+03  EK= 0.30577E+00 SP= 0.00E+00 SK= 0.00E+00
       N       E                     dE             d eps       ncg     rms          rms(c)
RMM:   1    -0.413174222302E+03   -0.18907E-02   -0.98329E+00  4298   0.767E-01    0.906E-01
RMM:   2    -0.413176675178E+03   -0.24529E-02   -0.12981E-01  4317   0.985E-02    0.654E-01
RMM:   3    -0.413176826941E+03   -0.15176E-03   -0.14464E-02  5083   0.691E-02    0.269E-01
RMM:   4    -0.413209550692E+03   -0.32724E-01   -0.48002E-02  5108   0.184E-01    0.783E-01
RMM:   5    -0.413173264694E+03    0.36286E-01   -0.15603E-02  4741   0.129E-01    0.593E-02
RMM:   6    -0.413173373108E+03   -0.10841E-03   -0.27391E-03  5617   0.516E-02    0.316E-02
RMM:   7    -0.413173381144E+03   -0.80359E-05   -0.42649E-04  5969   0.182E-02    0.200E-02
RMM:   8    -0.413173375016E+03    0.61281E-05   -0.76663E-05  5187   0.962E-03    0.875E-03
RMM:   9    -0.413173368177E+03    0.68390E-05   -0.12299E-05  3777   0.414E-03    0.442E-03
RMM:  10    -0.413173365798E+03    0.23793E-05   -0.25685E-06  2624   0.230E-03    0.307E-03
RMM:  11    -0.413173362599E+03    0.31987E-05   -0.11799E-06  2499   0.177E-03    0.160E-03
RMM:  12    -0.413173358966E+03    0.36327E-05   -0.77679E-07  2469   0.143E-03    0.522E-04
RMM:  13    -0.413173357030E+03    0.19363E-05   -0.37850E-07  2138   0.103E-03    0.320E-04
RMM:  14    -0.413173355839E+03    0.11911E-05   -0.20590E-07  1637   0.796E-04    0.229E-04
RMM:  15    -0.413173353601E+03    0.22377E-05   -0.15047E-07  1363   0.719E-04    0.111E-04
RMM:  16    -0.413173350761E+03    0.28400E-05   -0.13301E-07  1324   0.696E-04    0.138E-04
RMM:  17    -0.413173348951E+03    0.18105E-05   -0.82061E-08  1107   0.628E-04    0.804E-05
RMM:  18    -0.413173346302E+03    0.26488E-05   -0.85583E-08  1214   0.632E-04    0.480E-05
RMM:  19    -0.413173345270E+03    0.10318E-05   -0.39929E-08   887   0.564E-04    0.210E-05
RMM:  20    -0.413173344805E+03    0.46498E-06   -0.22617E-08   785   0.546E-04
   22 T=    62. E= -.41286660E+03 F= -.41317334E+03 E0= -.41315140E+03  EK= 0.30674E+00 SP= 0.00E+00 SK= 0.00E+00
       N       E                     dE             d eps       ncg     rms          rms(c)
RMM:   1    -0.413170887342E+03    0.24579E-02   -0.97735E+00  4292   0.729E-01    0.910E-01
RMM:   2    -0.413177276049E+03   -0.63887E-02   -0.11914E-01  4280   0.963E-02    0.647E-01
RMM:   3    -0.413174639334E+03    0.26367E-02   -0.12628E-02  4883   0.493E-02    0.137E-01
RMM:   4    -0.413208506052E+03   -0.33867E-01   -0.36065E-02  5127   0.158E-01    0.766E-01
RMM:   5    -0.413173913153E+03    0.34593E-01   -0.16903E-02  4790   0.128E-01    0.503E-02
RMM:   6    -0.413174104687E+03   -0.19153E-03   -0.28357E-03  5786   0.514E-02    0.335E-02
RMM:   7    -0.413174098447E+03    0.62396E-05   -0.43326E-04  5685   0.195E-02    0.209E-02
RMM:   8    -0.413174086917E+03    0.11530E-04   -0.75343E-05  5138   0.927E-03    0.106E-02
RMM:   9    -0.413174079623E+03    0.72940E-05   -0.14815E-05  4124   0.439E-03    0.754E-03
RMM:  10    -0.413174074964E+03    0.46590E-05   -0.20409E-06  2575   0.225E-03    0.474E-03
RMM:  11    -0.413174070972E+03    0.39913E-05   -0.13222E-06  2522   0.183E-03    0.254E-03
RMM:  12    -0.413174064744E+03    0.62289E-05   -0.16777E-06  2543   0.201E-03    0.102E-03
RMM:  13    -0.413174062481E+03    0.22623E-05   -0.53595E-07  2350   0.131E-03    0.718E-04
RMM:  14    -0.413174062470E+03    0.11180E-07   -0.24295E-07  1914   0.865E-04
   23 T=    63. E= -.41286640E+03 F= -.41317406E+03 E0= -.41315217E+03  EK= 0.30766E+00 SP= 0.00E+00 SK= 0.00E+00
       N       E                     dE             d eps       ncg     rms          rms(c)
RMM:   1    -0.413176311131E+03   -0.22486E-02   -0.98289E+00  4296   0.773E-01    0.890E-01
RMM:   2    -0.413179341063E+03   -0.30299E-02   -0.13038E-01  4285   0.102E-01    0.653E-01
RMM:   3    -0.413175879213E+03    0.34618E-02   -0.11969E-02  4716   0.447E-02    0.114E-01
RMM:   4    -0.413196458718E+03   -0.20580E-01   -0.21209E-02  5136   0.121E-01    0.601E-01
RMM:   5    -0.413175548418E+03    0.20910E-01   -0.10443E-02  4812   0.995E-02    0.435E-02
RMM:   6    -0.413175654462E+03   -0.10604E-03   -0.17468E-03  5822   0.394E-02    0.265E-02
RMM:   7    -0.413175656360E+03   -0.18975E-05   -0.22757E-04  5632   0.150E-02    0.139E-02
RMM:   8    -0.413175652606E+03    0.37545E-05   -0.49331E-05  4969   0.727E-03    0.909E-03
RMM:   9    -0.413175648287E+03    0.43188E-05   -0.10056E-05  3760   0.370E-03    0.682E-03
RMM:  10    -0.413175646836E+03    0.14508E-05   -0.14847E-06  2531   0.209E-03    0.422E-03
RMM:  11    -0.413175644792E+03    0.20443E-05   -0.16118E-06  2534   0.202E-03    0.203E-03
RMM:  12    -0.413175642391E+03    0.24002E-05   -0.10758E-06  2471   0.166E-03    0.776E-04
RMM:  13    -0.413175641810E+03    0.58109E-06   -0.37644E-07  2165   0.106E-03
   24 T=    63. E= -.41286670E+03 F= -.41317564E+03 E0= -.41315379E+03  EK= 0.30895E+00 SP= 0.00E+00 SK= 0.00E+00
       N       E                     dE             d eps       ncg     rms          rms(c)
RMM:   1    -0.413179514023E+03   -0.38716E-02   -0.99346E+00  4298   0.787E-01    0.904E-01
RMM:   2    -0.413180251815E+03   -0.73779E-03   -0.13465E-01  4280   0.104E-01    0.659E-01
RMM:   3    -0.413176745359E+03    0.35065E-02   -0.11893E-02  4624   0.450E-02    0.116E-01
RMM:   4    -0.413192202312E+03   -0.15457E-01   -0.15952E-02  5141   0.105E-01    0.522E-01
RMM:   5    -0.413176520498E+03    0.15682E-01   -0.78594E-03  4825   0.861E-02    0.417E-02
RMM:   6    -0.413176585193E+03   -0.64694E-04   -0.13421E-03  5830   0.339E-02    0.241E-02
RMM:   7    -0.413176583412E+03    0.17809E-05   -0.15839E-04  5579   0.127E-02    0.116E-02
RMM:   8    -0.413176576150E+03    0.72622E-05   -0.28559E-05  4689   0.562E-03    0.764E-03
RMM:   9    -0.413176575439E+03    0.71049E-06   -0.73109E-06  3403   0.315E-03
   25 T=    63. E= -.41286645E+03 F= -.41317658E+03 E0= -.41315478E+03  EK= 0.31013E+00 SP= 0.00E+00 SK= 0.00E+00
       N       E                     dE             d eps       ncg     rms          rms(c)
RMM:   1    -0.413174999045E+03    0.15771E-02   -0.98853E+00  4295   0.749E-01    0.919E-01
RMM:   2    -0.413181094596E+03   -0.60956E-02   -0.12077E-01  4345   0.996E-02    0.652E-01
RMM:   3    -0.413185512491E+03   -0.44179E-02   -0.18348E-02  5122   0.915E-02    0.380E-01
RMM:   4    -0.413198819617E+03   -0.13307E-01   -0.37918E-02  5058   0.167E-01    0.596E-01
RMM:   5    -0.413178005459E+03    0.20814E-01   -0.73566E-03  4647   0.971E-02    0.557E-02
RMM:   6    -0.413178003970E+03    0.14887E-05   -0.15702E-03  5509   0.384E-02    0.315E-02
RMM:   7    -0.413177998314E+03    0.56557E-05   -0.29834E-04  5851   0.164E-02    0.190E-02
RMM:   8    -0.413177987290E+03    0.11025E-04   -0.61794E-05  5051   0.897E-03    0.775E-03
RMM:   9    -0.413177978236E+03    0.90533E-05   -0.79638E-06  3442   0.374E-03    0.388E-03
RMM:  10    -0.413177974213E+03    0.40231E-05   -0.14721E-06  2520   0.206E-03    0.244E-03
RMM:  11    -0.413177967116E+03    0.70976E-05   -0.10990E-06  2495   0.171E-03    0.137E-03
RMM:  12    -0.413177961574E+03    0.55412E-05   -0.58493E-07  2427   0.129E-03    0.506E-04
RMM:  13    -0.413177957812E+03    0.37627E-05   -0.29871E-07  2026   0.934E-04    0.286E-04
RMM:  14    -0.413177954851E+03    0.29607E-05   -0.16290E-07  1463   0.735E-04    0.194E-04
RMM:  15    -0.413177948852E+03    0.59991E-05   -0.15845E-07  1394   0.723E-04    0.156E-04
RMM:  16    -0.413177945918E+03    0.29342E-05   -0.92567E-08  1190   0.639E-04    0.129E-04
RMM:  17    -0.413177941154E+03    0.47638E-05   -0.10929E-07  1323   0.662E-04    0.711E-05
RMM:  18    -0.413177939689E+03    0.14653E-05   -0.49226E-08   950   0.567E-04    0.438E-05
RMM:  19    -0.413177938557E+03    0.11310E-05   -0.29737E-08   830   0.543E-04    0.263E-05
RMM:  20    -0.413177938297E+03    0.26054E-06   -0.16137E-08   708   0.523E-04
   26 T=    63. E= -.41286641E+03 F= -.41317794E+03 E0= -.41315619E+03  EK= 0.31153E+00 SP= 0.00E+00 SK= 0.00E+00
       N       E                     dE             d eps       ncg     rms          rms(c)
RMM:   1    -0.413182775788E+03   -0.48372E-02   -0.99306E+00  4291   0.816E-01    0.896E-01
RMM:   2    -0.413182943657E+03   -0.16787E-03   -0.13495E-01  4281   0.105E-01    0.655E-01
RMM:   3    -0.413180070835E+03    0.28728E-02   -0.11854E-02  4791   0.479E-02    0.131E-01
RMM:   4    -0.413207896861E+03   -0.27826E-01   -0.28837E-02  5143   0.141E-01    0.696E-01
RMM:   5    -0.413179598514E+03    0.28298E-01   -0.14122E-02  4802   0.116E-01    0.469E-02
RMM:   6    -0.413179746434E+03   -0.14792E-03   -0.23313E-03  5818   0.463E-02    0.303E-02
RMM:   7    -0.413179747547E+03   -0.11128E-05   -0.34194E-04  5690   0.178E-02    0.181E-02
RMM:   8    -0.413179740005E+03    0.75421E-05   -0.69850E-05  5025   0.874E-03    0.997E-03
RMM:   9    -0.413179734264E+03    0.57404E-05   -0.13677E-05  4127   0.429E-03    0.724E-03
RMM:  10    -0.413179731926E+03    0.23388E-05   -0.17794E-06  2560   0.215E-03    0.455E-03
RMM:  11    -0.413179729579E+03    0.23468E-05   -0.13789E-06  2513   0.189E-03    0.234E-03
RMM:  12    -0.413179726295E+03    0.32841E-05   -0.14223E-06  2507   0.186E-03    0.892E-04
RMM:  13    -0.413179725156E+03    0.11387E-05   -0.45776E-07  2291   0.120E-03    0.570E-04
RMM:  14    -0.413179724963E+03    0.19330E-06   -0.21885E-07  1788   0.820E-04
   27 T=    64. E= -.41286659E+03 F= -.41317972E+03 E0= -.41315803E+03  EK= 0.31313E+00 SP= 0.00E+00 SK= 0.00E+00
       N       E                     dE             d eps       ncg     rms          rms(c)
RMM:   1    -0.413178249505E+03    0.14757E-02   -0.99899E+00  4297   0.780E-01    0.907E-01
RMM:   2    -0.413184220968E+03   -0.59715E-02   -0.12481E-01  4277   0.102E-01    0.663E-01
RMM:   3    -0.413181124447E+03    0.30965E-02   -0.13067E-02  4681   0.490E-02    0.102E-01
RMM:   4    -0.413199112453E+03   -0.17988E-01   -0.18396E-02  5144   0.113E-01    0.562E-01
RMM:   5    -0.413180870864E+03    0.18242E-01   -0.91569E-03  4819   0.928E-02    0.429E-02
RMM:   6    -0.413180947337E+03   -0.76473E-04   -0.15257E-03  5841   0.368E-02    0.256E-02
RMM:   7    -0.413180944570E+03    0.27665E-05   -0.19482E-04  5596   0.141E-02    0.125E-02
RMM:   8    -0.413180940932E+03    0.36384E-05   -0.37642E-05  4850   0.643E-03    0.842E-03
RMM:   9    -0.413180937310E+03    0.36215E-05   -0.83233E-06  3508   0.334E-03    0.638E-03
RMM:  10    -0.413180935646E+03    0.16641E-05   -0.13793E-06  2525   0.204E-03    0.388E-03
RMM:  11    -0.413180933037E+03    0.26089E-05   -0.15056E-06  2524   0.196E-03    0.188E-03
RMM:  12    -0.413180929909E+03    0.31279E-05   -0.99211E-07  2452   0.160E-03    0.795E-04
RMM:  13    -0.413180929206E+03    0.70344E-06   -0.32957E-07  2142   0.101E-03
   28 T=    64. E= -.41286633E+03 F= -.41318093E+03 E0= -.41315928E+03  EK= 0.31459E+00 SP= 0.00E+00 SK= 0.00E+00
       N       E                     dE             d eps       ncg     rms          rms(c)
RMM:   1    -0.413179831979E+03    0.10979E-02   -0.10015E+01  4292   0.770E-01    0.927E-01
RMM:   2    -0.413186039865E+03   -0.62079E-02   -0.12321E-01  4277   0.103E-01    0.658E-01
RMM:   3    -0.413182988458E+03    0.30514E-02   -0.12858E-02  4454   0.490E-02    0.105E-01
RMM:   4    -0.413190132788E+03   -0.71443E-02   -0.75092E-03  5150   0.724E-02    0.357E-01
RMM:   5    -0.413182932579E+03    0.72002E-02   -0.37026E-03  4835   0.589E-02    0.402E-02
RMM:   6    -0.413182952387E+03   -0.19807E-04   -0.76455E-04  5773   0.258E-02    0.249E-02
RMM:   7    -0.413182941238E+03    0.11149E-04   -0.22936E-04  5334   0.153E-02    0.165E-02
RMM:   8    -0.413182925321E+03    0.15917E-04   -0.18061E-05  4168   0.569E-03    0.689E-03
RMM:   9    -0.413182921602E+03    0.37187E-05   -0.40483E-06  2857   0.255E-03    0.464E-03
RMM:  10    -0.413182916121E+03    0.54804E-05   -0.14643E-06  2494   0.201E-03    0.251E-03
RMM:  11    -0.413182910074E+03    0.60479E-05   -0.84806E-07  2463   0.157E-03    0.118E-03
RMM:  12    -0.413182905451E+03    0.46230E-05   -0.42881E-07  2189   0.113E-03    0.550E-04
RMM:  13    -0.413182902626E+03    0.28251E-05   -0.25044E-07  1849   0.860E-04    0.274E-04
RMM:  14    -0.413182898806E+03    0.38195E-05   -0.14757E-07  1483   0.730E-04    0.178E-04
RMM:  15    -0.413182893992E+03    0.48143E-05   -0.11015E-07  1328   0.681E-04    0.944E-05
RMM:  16    -0.413182891559E+03    0.24330E-05   -0.60939E-08  1081   0.611E-04    0.741E-05
RMM:  17    -0.413182887043E+03    0.45155E-05   -0.76189E-08  1240   0.632E-04    0.464E-05
RMM:  18    -0.413182885677E+03    0.13667E-05   -0.33390E-08   916   0.553E-04    0.276E-05
RMM:  19    -0.413182885232E+03    0.44472E-06   -0.15271E-08   736   0.522E-04
   29 T=    64. E= -.41286647E+03 F= -.41318289E+03 E0= -.41316129E+03  EK= 0.31642E+00 SP= 0.00E+00 SK= 0.00E+00
       N       E                     dE             d eps       ncg     rms          rms(c)
RMM:   1    -0.413186544055E+03   -0.36584E-02   -0.10038E+01  4287   0.827E-01    0.908E-01
RMM:   2    -0.413188207210E+03   -0.16632E-02   -0.12494E-01  4268   0.113E-01    0.656E-01
RMM:   3    -0.413184802687E+03    0.34045E-02   -0.12816E-02  4510   0.526E-02    0.103E-01
RMM:   4    -0.413195549069E+03   -0.10746E-01   -0.11001E-02  5141   0.881E-02    0.437E-01
RMM:   5    -0.413184698778E+03    0.10850E-01   -0.55212E-03  4823   0.719E-02    0.406E-02
RMM:   6    -0.413184734957E+03   -0.36179E-04   -0.98632E-04  5831   0.295E-02    0.249E-02
RMM:   7    -0.413184736450E+03   -0.14932E-05   -0.22985E-04  5424   0.152E-02    0.165E-02
RMM:   8    -0.413184719648E+03    0.16803E-04   -0.28820E-05  4638   0.652E-03    0.737E-03
RMM:   9    -0.413184717559E+03    0.20890E-05   -0.54413E-06  3025   0.292E-03    0.536E-03
RMM:  10    -0.413184714110E+03    0.34489E-05   -0.14916E-06  2505   0.205E-03    0.294E-03
RMM:  11    -0.413184710682E+03    0.34276E-05   -0.92732E-07  2473   0.164E-03    0.149E-03
RMM:  12    -0.413184707306E+03    0.33763E-05   -0.59012E-07  2372   0.128E-03    0.761E-04
RMM:  13    -0.413184705784E+03    0.15219E-05   -0.26681E-07  1966   0.902E-04    0.330E-04
RMM:  14    -0.413184704161E+03    0.16234E-05   -0.14538E-07  1420   0.717E-04    0.205E-04
RMM:  15    -0.413184701536E+03    0.26247E-05   -0.99860E-08  1253   0.668E-04    0.949E-05
RMM:  16    -0.413184699614E+03    0.19217E-05   -0.62865E-08  1035   0.625E-04    0.751E-05
RMM:  17    -0.413184698040E+03    0.15747E-05   -0.40178E-08   914   0.595E-04    0.510E-05
RMM:  18    -0.413184695051E+03    0.29881E-05   -0.57990E-08  1116   0.617E-04    0.318E-05
RMM:  19    -0.413184694423E+03    0.62890E-06   -0.20709E-08   772   0.548E-04
   30 T=    65. E= -.41286639E+03 F= -.41318469E+03 E0= -.41316315E+03  EK= 0.31831E+00 SP= 0.00E+00 SK= 0.00E+00
       N       E                     dE             d eps       ncg     rms          rms(c)
RMM:   1    -0.413190433821E+03   -0.57388E-02   -0.10188E+01  4293   0.840E-01    0.910E-01
RMM:   2    -0.413190449382E+03   -0.15562E-04   -0.13310E-01  4282   0.119E-01    0.669E-01
RMM:   3    -0.413186372621E+03    0.40768E-02   -0.13097E-02  4366   0.579E-02    0.971E-02
RMM:   4    -0.413191818666E+03   -0.54460E-02   -0.58314E-03  5159   0.642E-02    0.312E-01
RMM:   5    -0.413186349982E+03    0.54687E-02   -0.28036E-03  4823   0.515E-02    0.385E-02
RMM:   6    -0.413186376952E+03   -0.26970E-04   -0.62990E-04  5753   0.240E-02    0.259E-02
RMM:   7    -0.413186367299E+03    0.96535E-05   -0.22632E-04  5246   0.152E-02    0.161E-02
RMM:   8    -0.413186356433E+03    0.10865E-04   -0.18591E-05  4257   0.556E-03    0.675E-03
RMM:   9    -0.413186355386E+03    0.10472E-05   -0.27486E-06  2672   0.226E-03    0.435E-03
RMM:  10    -0.413186353695E+03    0.16915E-05   -0.12571E-06  2483   0.180E-03    0.230E-03
RMM:  11    -0.413186352272E+03    0.14227E-05   -0.75935E-07  2424   0.140E-03    0.109E-03
RMM:  12    -0.413186350734E+03    0.15376E-05   -0.42167E-07  2155   0.107E-03    0.479E-04
RMM:  13    -0.413186349611E+03    0.11235E-05   -0.21939E-07  1690   0.809E-04    0.263E-04
RMM:  14    -0.413186348222E+03    0.13887E-05   -0.12151E-07  1192   0.686E-04    0.174E-04
RMM:  15    -0.413186345963E+03    0.22590E-05   -0.10185E-07  1145   0.664E-04    0.816E-05
RMM:  16    -0.413186344909E+03    0.10544E-05   -0.53885E-08   948   0.603E-04    0.624E-05
RMM:  17    -0.413186342910E+03    0.19984E-05   -0.53059E-08   963   0.601E-04    0.364E-05
RMM:  18    -0.413186341471E+03    0.14390E-05   -0.38343E-08   924   0.578E-04    0.282E-05
RMM:  19    -0.413186340855E+03    0.61653E-06   -0.15320E-08   686   0.538E-04
   31 T=    65. E= -.41286619E+03 F= -.41318634E+03 E0= -.41316484E+03  EK= 0.32015E+00 SP= 0.00E+00 SK= 0.00E+00
       N       E                     dE             d eps       ncg     rms          rms(c)
RMM:   1    -0.413186135568E+03    0.20590E-03   -0.10169E+01  4288   0.812E-01    0.933E-01
RMM:   2    -0.413192604658E+03   -0.64691E-02   -0.12727E-01  4280   0.123E-01    0.666E-01
RMM:   3    -0.413188939834E+03    0.36648E-02   -0.13149E-02  4257   0.558E-02    0.101E-01
RMM:   4    -0.413189141344E+03   -0.20151E-03   -0.87964E-04  4946   0.209E-02    0.613E-02
RMM:   5    -0.413189025065E+03    0.11628E-03   -0.17725E-04  4818   0.131E-02    0.452E-02
RMM:   6    -0.413189014213E+03    0.10852E-04   -0.32971E-04  5258   0.179E-02    0.290E-02
RMM:   7    -0.413188969188E+03    0.45025E-04   -0.18000E-04  4821   0.140E-02    0.147E-02
RMM:   8    -0.413188966094E+03    0.30936E-05   -0.21040E-05  4311   0.500E-03    0.543E-03
RMM:   9    -0.413188964829E+03    0.12649E-05   -0.31287E-06  2465   0.210E-03    0.199E-03
RMM:  10    -0.413188956850E+03    0.79793E-05   -0.92417E-07  2366   0.150E-03    0.810E-04
RMM:  11    -0.413188952979E+03    0.38709E-05   -0.22051E-07  1695   0.826E-04    0.446E-04
RMM:  12    -0.413188949492E+03    0.34867E-05   -0.14886E-07  1468   0.731E-04    0.246E-04
RMM:  13    -0.413188945544E+03    0.39486E-05   -0.12916E-07  1416   0.694E-04    0.155E-04
RMM:  14    -0.413188940504E+03    0.50395E-05   -0.99788E-08  1147   0.654E-04    0.135E-04
RMM:  15    -0.413188937859E+03    0.26453E-05   -0.39879E-08   755   0.570E-04    0.825E-05
RMM:  16    -0.413188934566E+03    0.32934E-05   -0.39720E-08   818   0.577E-04    0.476E-05
RMM:  17    -0.413188933727E+03    0.83845E-06   -0.15648E-08   608   0.531E-04
   32 T=    66. E= -.41286663E+03 F= -.41318893E+03 E0= -.41316748E+03  EK= 0.32231E+00 SP= 0.00E+00 SK= 0.00E+00
       N       E                     dE             d eps       ncg     rms          rms(c)
RMM:   1    -0.413187796023E+03    0.11385E-02   -0.10144E+01  4284   0.822E-01    0.921E-01
RMM:   2    -0.413194411445E+03   -0.66154E-02   -0.12811E-01  4274   0.124E-01    0.662E-01
RMM:   3    -0.413190912125E+03    0.34993E-02   -0.12908E-02  4269   0.570E-02    0.102E-01
RMM:   4    -0.413191479396E+03   -0.56727E-03   -0.11968E-03  5086   0.272E-02    0.101E-01
RMM:   5    -0.413190983302E+03    0.49609E-03   -0.32498E-04  4780   0.182E-02    0.399E-02
RMM:   6    -0.413190991148E+03   -0.78462E-05   -0.33920E-04  5362   0.182E-02    0.287E-02
RMM:   7    -0.413190952304E+03    0.38844E-04   -0.18753E-04  4881   0.137E-02    0.164E-02
RMM:   8    -0.413190947359E+03    0.49447E-05   -0.20880E-05  4355   0.506E-03    0.609E-03
RMM:   9    -0.413190946161E+03    0.11976E-05   -0.32386E-06  2449   0.214E-03    0.247E-03
RMM:  10    -0.413190940118E+03    0.60437E-05   -0.88482E-07  2326   0.147E-03    0.111E-03
RMM:  11    -0.413190936142E+03    0.39754E-05   -0.34478E-07  1950   0.950E-04    0.472E-04
RMM:  12    -0.413190932077E+03    0.40650E-05   -0.21074E-07  1584   0.792E-04    0.214E-04
RMM:  13    -0.413190928630E+03    0.34472E-05   -0.11609E-07  1134   0.676E-04    0.174E-04
RMM:  14    -0.413190924830E+03    0.37999E-05   -0.82457E-08   983   0.636E-04    0.106E-04
RMM:  15    -0.413190920192E+03    0.46378E-05   -0.76273E-08  1016   0.628E-04    0.624E-05
RMM:  16    -0.413190917424E+03    0.27679E-05   -0.42208E-08   798   0.573E-04    0.597E-05
RMM:  17    -0.413190916301E+03    0.11239E-05   -0.21893E-08   616   0.534E-04    0.271E-05
RMM:  18    -0.413190915588E+03    0.71297E-06   -0.15023E-08   571   0.526E-04
   33 T=    66. E= -.41286651E+03 F= -.41319092E+03 E0= -.41316951E+03  EK= 0.32440E+00 SP= 0.00E+00 SK= 0.00E+00
       N       E                     dE             d eps       ncg     rms          rms(c)
RMM:   1    -0.413193513431E+03   -0.25971E-02   -0.10287E+01  4299   0.875E-01    0.915E-01
RMM:   2    -0.413196960435E+03   -0.34470E-02   -0.13540E-01  4277   0.130E-01    0.674E-01
RMM:   3    -0.413193350397E+03    0.36100E-02   -0.13219E-02  4257   0.606E-02    0.942E-02
RMM:   4    -0.413193837696E+03   -0.48730E-03   -0.11386E-03  5079   0.256E-02    0.935E-02
RMM:   5    -0.413193409799E+03    0.42790E-03   -0.27558E-04  4770   0.167E-02    0.391E-02
RMM:   6    -0.413193422996E+03   -0.13196E-04   -0.32206E-04  5351   0.174E-02    0.274E-02
RMM:   7    -0.413193391420E+03    0.31576E-04   -0.18311E-04  4849   0.134E-02    0.175E-02
RMM:   8    -0.413193386631E+03    0.47891E-05   -0.21819E-05  4106   0.478E-03    0.559E-03
RMM:   9    -0.413193386188E+03    0.44338E-06   -0.26532E-06  2446   0.207E-03
   34 T=    67. E= -.41286654E+03 F= -.41319339E+03 E0= -.41317203E+03  EK= 0.32685E+00 SP= 0.00E+00 SK= 0.00E+00
       N       E                     dE             d eps       ncg     rms          rms(c)
RMM:   1    -0.413195964978E+03   -0.25783E-02   -0.10368E+01  4304   0.905E-01    0.937E-01
RMM:   2    -0.413199393060E+03   -0.34281E-02   -0.13574E-01  4273   0.131E-01    0.675E-01
RMM:   3    -0.413196150322E+03    0.32427E-02   -0.13148E-02  4478   0.621E-02    0.113E-01
RMM:   4    -0.413206697198E+03   -0.10547E-01   -0.10834E-02  5172   0.884E-02    0.434E-01
RMM:   5    -0.413196128160E+03    0.10569E-01   -0.54256E-03  4823   0.721E-02    0.429E-02
RMM:   6    -0.413196120897E+03    0.72624E-05   -0.99902E-04  5764   0.316E-02    0.312E-02
RMM:   7    -0.413196110178E+03    0.10720E-04   -0.29516E-04  5373   0.167E-02    0.168E-02
RMM:   8    -0.413196097108E+03    0.13070E-04   -0.29207E-05  4719   0.644E-03    0.720E-03
RMM:   9    -0.413196094230E+03    0.28777E-05   -0.50252E-06  2947   0.272E-03    0.438E-03
RMM:  10    -0.413196088373E+03    0.58574E-05   -0.12355E-06  2506   0.189E-03    0.231E-03
RMM:  11    -0.413196082251E+03    0.61216E-05   -0.83953E-07  2473   0.148E-03    0.117E-03
RMM:  12    -0.413196076548E+03    0.57030E-05   -0.48689E-07  2262   0.115E-03    0.552E-04
RMM:  13    -0.413196073747E+03    0.28013E-05   -0.23572E-07  1803   0.841E-04    0.291E-04
RMM:  14    -0.413196070449E+03    0.32983E-05   -0.13048E-07  1278   0.697E-04    0.175E-04
RMM:  15    -0.413196064748E+03    0.57001E-05   -0.10863E-07  1254   0.681E-04    0.101E-04
RMM:  16    -0.413196061729E+03    0.30191E-05   -0.65568E-08  1057   0.621E-04    0.844E-05
RMM:  17    -0.413196057856E+03    0.38732E-05   -0.61431E-08  1157   0.619E-04    0.540E-05
RMM:  18    -0.413196054958E+03    0.28985E-05   -0.42561E-08  1033   0.582E-04    0.244E-05
RMM:  19    -0.413196054384E+03    0.57389E-06   -0.19397E-08   737   0.526E-04
   35 T=    67. E= -.41286662E+03 F= -.41319605E+03 E0= -.41317475E+03  EK= 0.32944E+00 SP= 0.00E+00 SK= 0.00E+00
       N       E                     dE             d eps       ncg     rms          rms(c)
RMM:   1    -0.413195569675E+03    0.48528E-03   -0.10351E+01  4301   0.885E-01    0.937E-01
RMM:   2    -0.413201292723E+03   -0.57230E-02   -0.13319E-01  4251   0.131E-01    0.670E-01
RMM:   3    -0.413198205017E+03    0.30877E-02   -0.13119E-02  4401   0.615E-02    0.113E-01
RMM:   4    -0.413203158770E+03   -0.49538E-02   -0.54166E-03  5170   0.622E-02    0.299E-01
RMM:   5    -0.413198224938E+03    0.49338E-02   -0.25623E-03  4821   0.497E-02    0.408E-02
RMM:   6    -0.413198232506E+03   -0.75676E-05   -0.61822E-04  5675   0.251E-02    0.298E-02
RMM:   7    -0.413198210944E+03    0.21562E-04   -0.25423E-04  5162   0.160E-02    0.166E-02
RMM:   8    -0.413198200430E+03    0.10513E-04   -0.23576E-05  4599   0.587E-03    0.708E-03
RMM:   9    -0.413198198027E+03    0.24033E-05   -0.34538E-06  2698   0.235E-03    0.393E-03
RMM:  10    -0.413198192146E+03    0.58810E-05   -0.11432E-06  2485   0.179E-03    0.205E-03
RMM:  11    -0.413198186889E+03    0.52570E-05   -0.63529E-07  2403   0.129E-03    0.101E-03
RMM:  12    -0.413198181824E+03    0.50653E-05   -0.36832E-07  2100   0.102E-03    0.419E-04
RMM:  13    -0.413198178305E+03    0.35184E-05   -0.19336E-07  1608   0.786E-04    0.236E-04
RMM:  14    -0.413198174757E+03    0.35488E-05   -0.10429E-07  1132   0.675E-04    0.171E-04
RMM:  15    -0.413198169508E+03    0.52490E-05   -0.85575E-08  1163   0.658E-04    0.774E-05
RMM:  16    -0.413198166942E+03    0.25651E-05   -0.54854E-08  1024   0.608E-04    0.653E-05
RMM:  17    -0.413198163924E+03    0.30184E-05   -0.47892E-08  1078   0.595E-04    0.382E-05
RMM:  18    -0.413198161146E+03    0.27784E-05   -0.37492E-08  1003   0.573E-04    0.262E-05
RMM:  19    -0.413198160768E+03    0.37772E-06   -0.13894E-08   671   0.518E-04
   36 T=    68. E= -.41286631E+03 F= -.41319816E+03 E0= -.41317690E+03  EK= 0.33185E+00 SP= 0.00E+00 SK= 0.00E+00
       N       E                     dE             d eps       ncg     rms          rms(c)
RMM:   1    -0.413209368868E+03   -0.11208E-01   -0.10535E+01  4304   0.992E-01    0.921E-01
RMM:   2    -0.413205041979E+03    0.43269E-02   -0.15567E-01  4254   0.139E-01    0.681E-01
RMM:   3    -0.413201231946E+03    0.38100E-02   -0.12126E-02  4585   0.586E-02    0.140E-01
RMM:   4    -0.413220048411E+03   -0.18816E-01   -0.19159E-02  5155   0.117E-01    0.575E-01
RMM:   5    -0.413201094168E+03    0.18954E-01   -0.95820E-03  4807   0.957E-02    0.451E-02
RMM:   6    -0.413201109162E+03   -0.14994E-04   -0.16469E-03  5833   0.387E-02    0.290E-02
RMM:   7    -0.413201121717E+03   -0.12556E-04   -0.30724E-04  5532   0.169E-02    0.179E-02
RMM:   8    -0.413201106257E+03    0.15461E-04   -0.53510E-05  4974   0.808E-03    0.865E-03
RMM:   9    -0.413201105106E+03    0.11507E-05   -0.10533E-05  3787   0.396E-03    0.603E-03
RMM:  10    -0.413201102068E+03    0.30377E-05   -0.16046E-06  2548   0.217E-03    0.345E-03
RMM:  11    -0.413201099560E+03    0.25081E-05   -0.94199E-07  2495   0.159E-03    0.194E-03
RMM:  12    -0.413201095180E+03    0.43798E-05   -0.11274E-06  2495   0.166E-03    0.986E-04
RMM:  13    -0.413201093109E+03    0.20712E-05   -0.41175E-07  2215   0.111E-03    0.517E-04
RMM:  14    -0.413201092455E+03    0.65414E-06   -0.18733E-07  1620   0.774E-04
   37 T=    68. E= -.41286660E+03 F= -.41320109E+03 E0= -.41317987E+03  EK= 0.33449E+00 SP= 0.00E+00 SK= 0.00E+00
       N       E                     dE             d eps       ncg     rms          rms(c)
RMM:   1    -0.413218908542E+03   -0.17815E-01   -0.10716E+01  4307   0.107E+00    0.940E-01
RMM:   2    -0.413207647427E+03    0.11261E-01   -0.15986E-01  4257   0.138E-01    0.687E-01
RMM:   3    -0.413203777919E+03    0.38695E-02   -0.12340E-02  4733   0.566E-02    0.157E-01
RMM:   4    -0.413235978007E+03   -0.32200E-01   -0.32962E-02  5151   0.152E-01    0.748E-01
RMM:   5    -0.413203377663E+03    0.32600E-01   -0.16438E-02  4796   0.125E-01    0.506E-02
RMM:   6    -0.413203445496E+03   -0.67833E-04   -0.27757E-03  5844   0.494E-02    0.322E-02
RMM:   7    -0.413203455657E+03   -0.10161E-04   -0.35775E-04  5666   0.178E-02    0.169E-02
RMM:   8    -0.413203446787E+03    0.88703E-05   -0.58951E-05  4995   0.802E-03    0.995E-03
RMM:   9    -0.413203445205E+03    0.15814E-05   -0.19916E-05  4514   0.486E-03    0.756E-03
RMM:  10    -0.413203439358E+03    0.58470E-05   -0.26196E-06  2648   0.260E-03    0.435E-03
RMM:  11    -0.413203436271E+03    0.30875E-05   -0.12915E-06  2497   0.185E-03    0.272E-03
RMM:  12    -0.413203428329E+03    0.79418E-05   -0.18667E-06  2542   0.221E-03    0.130E-03
RMM:  13    -0.413203424728E+03    0.36009E-05   -0.67672E-07  2392   0.145E-03    0.850E-04
RMM:  14    -0.413203424491E+03    0.23737E-06   -0.26330E-07  2013   0.923E-04
   38 T=    69. E= -.41286646E+03 F= -.41320342E+03 E0= -.41318225E+03  EK= 0.33696E+00 SP= 0.00E+00 SK= 0.00E+00
       N       E                     dE             d eps       ncg     rms          rms(c)
RMM:   1    -0.413208782125E+03   -0.53574E-02   -0.10618E+01  4305   0.101E+00    0.954E-01
RMM:   2    -0.413209899202E+03   -0.11171E-02   -0.13854E-01  4261   0.125E-01    0.679E-01
RMM:   3    -0.413206626139E+03    0.32731E-02   -0.13703E-02  4913   0.580E-02    0.161E-01
RMM:   4    -0.413248198482E+03   -0.41572E-01   -0.44209E-02  5133   0.175E-01    0.847E-01
RMM:   5    -0.413205849521E+03    0.42349E-01   -0.20904E-02  4788   0.142E-01    0.555E-02
RMM:   6    -0.413205966985E+03   -0.11746E-03   -0.35983E-03  5833   0.557E-02    0.345E-02
RMM:   7    -0.413205975887E+03   -0.89025E-05   -0.42482E-04  5684   0.190E-02    0.179E-02
RMM:   8    -0.413205965646E+03    0.10241E-04   -0.51348E-05  4798   0.727E-03    0.927E-03
RMM:   9    -0.413205961608E+03    0.40382E-05   -0.16209E-05  4107   0.416E-03    0.699E-03
RMM:  10    -0.413205955884E+03    0.57238E-05   -0.32662E-06  2734   0.253E-03    0.440E-03
RMM:  11    -0.413205950101E+03    0.57829E-05   -0.14936E-06  2501   0.202E-03    0.257E-03
RMM:  12    -0.413205938434E+03    0.11667E-04   -0.17946E-06  2532   0.218E-03    0.116E-03
RMM:  13    -0.413205935171E+03    0.32631E-05   -0.52843E-07  2409   0.136E-03    0.744E-04
RMM:  14    -0.413205935071E+03    0.10034E-06   -0.22930E-07  1960   0.866E-04
   39 T=    69. E= -.41286642E+03 F= -.41320594E+03 E0= -.41318480E+03  EK= 0.33951E+00 SP= 0.00E+00 SK= 0.00E+00
       N       E                     dE             d eps       ncg     rms          rms(c)
RMM:   1    -0.413232313464E+03   -0.26378E-01   -0.10846E+01  4310   0.119E+00    0.932E-01
RMM:   2    -0.413213276562E+03    0.19037E-01   -0.16595E-01  4265   0.136E-01    0.686E-01
RMM:   3    -0.413210021799E+03    0.32548E-02   -0.12469E-02  4989   0.600E-02    0.205E-01
RMM:   4    -0.413263475617E+03   -0.53454E-01   -0.58934E-02  5130   0.202E-01    0.958E-01
RMM:   5    -0.413208688759E+03    0.54787E-01   -0.26870E-02  4780   0.161E-01    0.603E-02
RMM:   6    -0.413208855908E+03   -0.16715E-03   -0.44046E-03  5815   0.626E-02    0.361E-02
RMM:   7    -0.413208870572E+03   -0.14663E-04   -0.54508E-04  5791   0.210E-02    0.216E-02
RMM:   8    -0.413208872020E+03   -0.14481E-05   -0.12347E-04  5245   0.109E-02    0.138E-02
RMM:   9    -0.413208858630E+03    0.13390E-04   -0.28127E-05  4717   0.610E-03    0.705E-03
RMM:  10    -0.413208854199E+03    0.44312E-05   -0.51728E-06  2928   0.299E-03    0.439E-03
RMM:  11    -0.413208850710E+03    0.34892E-05   -0.15495E-06  2506   0.206E-03    0.264E-03
RMM:  12    -0.413208843483E+03    0.72270E-05   -0.15062E-06  2511   0.204E-03    0.972E-04
RMM:  13    -0.413208839236E+03    0.42466E-05   -0.67533E-07  2422   0.143E-03    0.700E-04
RMM:  14    -0.413208838759E+03    0.47678E-06   -0.29215E-07  2075   0.952E-04
   40 T=    70. E= -.41286665E+03 F= -.41320884E+03 E0= -.41318774E+03  EK= 0.34219E+00 SP= 0.00E+00 SK= 0.00E+00
       N       E                     dE             d eps       ncg     rms          rms(c)
RMM:   1    -0.413223299659E+03   -0.14460E-01   -0.10870E+01  4312   0.115E+00    0.945E-01
RMM:   2    -0.413215475780E+03    0.78239E-02   -0.16049E-01  4270   0.140E-01    0.695E-01
RMM:   3    -0.413212703952E+03    0.27718E-02   -0.13851E-02  5023   0.651E-02    0.222E-01
RMM:   4    -0.413266135232E+03   -0.53431E-01   -0.62029E-02  5123   0.208E-01    0.962E-01
RMM:   5    -0.413210781314E+03    0.55354E-01   -0.26482E-02  4773   0.162E-01    0.614E-02
RMM:   6    -0.413210948009E+03   -0.16669E-03   -0.44478E-03  5808   0.626E-02    0.360E-02
RMM:   7    -0.413210963439E+03   -0.15430E-04   -0.54571E-04  5797   0.210E-02    0.220E-02
RMM:   8    -0.413210964521E+03   -0.10827E-05   -0.12709E-04  5260   0.111E-02    0.141E-02
RMM:   9    -0.413210950667E+03    0.13855E-04   -0.27401E-05  4690   0.612E-03    0.685E-03
RMM:  10    -0.413210946649E+03    0.40177E-05   -0.54203E-06  2974   0.305E-03    0.426E-03
RMM:  11    -0.413210943418E+03    0.32308E-05   -0.15413E-06  2507   0.207E-03    0.253E-03
RMM:  12    -0.413210937045E+03    0.63734E-05   -0.13612E-06  2495   0.195E-03    0.913E-04
RMM:  13    -0.413210933171E+03    0.38742E-05   -0.63678E-07  2414   0.138E-03    0.602E-04
RMM:  14    -0.413210932389E+03    0.78150E-06   -0.28710E-07  2047   0.938E-04
   41 T=    70. E= -.41286639E+03 F= -.41321093E+03 E0= -.41318987E+03  EK= 0.34454E+00 SP= 0.00E+00 SK= 0.00E+00
       N       E                     dE             d eps       ncg     rms          rms(c)
RMM:   1    -0.413218565782E+03   -0.76326E-02   -0.10827E+01  4311   0.117E+00    0.967E-01
RMM:   2    -0.413217445692E+03    0.11201E-02   -0.14612E-01  4297   0.134E-01    0.689E-01
RMM:   3    -0.413216623533E+03    0.82216E-03   -0.15851E-02  5070   0.741E-02    0.268E-01
RMM:   4    -0.413256996140E+03   -0.40373E-01   -0.54568E-02  5095   0.196E-01    0.858E-01
RMM:   5    -0.413213411341E+03    0.43585E-01   -0.19623E-02  4751   0.143E-01    0.605E-02
RMM:   6    -0.413213507722E+03   -0.96381E-04   -0.34486E-03  5780   0.554E-02    0.356E-02
RMM:   7    -0.413213516646E+03   -0.89236E-05   -0.47024E-04  5751   0.199E-02    0.219E-02
RMM:   8    -0.413213513806E+03    0.28399E-05   -0.12920E-04  5217   0.115E-02    0.133E-02
RMM:   9    -0.413213498171E+03    0.15635E-04   -0.22221E-05  4521   0.584E-03    0.576E-03
RMM:  10    -0.413213492214E+03    0.59568E-05   -0.49185E-06  2945   0.283E-03    0.364E-03
RMM:  11    -0.413213486772E+03    0.54424E-05   -0.12419E-06  2494   0.191E-03    0.204E-03
RMM:  12    -0.413213477429E+03    0.93426E-05   -0.92580E-07  2469   0.166E-03    0.780E-04
RMM:  13    -0.413213471860E+03    0.55687E-05   -0.44243E-07  2319   0.117E-03    0.418E-04
RMM:  14    -0.413213470136E+03    0.17239E-05   -0.22273E-07  1857   0.838E-04    0.288E-04
RMM:  15    -0.413213465940E+03    0.41965E-05   -0.12819E-07  1394   0.705E-04    0.135E-04
RMM:  16    -0.413213460691E+03    0.52486E-05   -0.91985E-08  1241   0.667E-04    0.143E-04
RMM:  17    -0.413213457423E+03    0.32680E-05   -0.60149E-08  1084   0.622E-04    0.939E-05
RMM:  18    -0.413213453727E+03    0.36958E-05   -0.55028E-08  1203   0.621E-04    0.662E-05
RMM:  19    -0.413213450847E+03    0.28799E-05   -0.40829E-08  1110   0.594E-04    0.387E-05
RMM:  20    -0.413213450278E+03    0.56961E-06   -0.18923E-08   781   0.537E-04
   42 T=    71. E= -.41286657E+03 F= -.41321345E+03 E0= -.41319242E+03  EK= 0.34688E+00 SP= 0.00E+00 SK= 0.00E+00
       N       E                     dE             d eps       ncg     rms          rms(c)
RMM:   1    -0.413243025262E+03   -0.29574E-01   -0.11018E+01  4312   0.135E+00    0.945E-01
RMM:   2    -0.413219504632E+03    0.23521E-01   -0.17041E-01  4304   0.147E-01    0.690E-01
RMM:   3    -0.413219749252E+03   -0.24462E-03   -0.15274E-02  5078   0.803E-02    0.321E-01
RMM:   4    -0.413257676540E+03   -0.37927E-01   -0.56339E-02  5096   0.200E-01    0.847E-01
RMM:   5    -0.413215355450E+03    0.42321E-01   -0.18686E-02  4735   0.142E-01    0.622E-02
RMM:   6    -0.413215430236E+03   -0.74786E-04   -0.32938E-03  5743   0.545E-02    0.355E-02
RMM:   7    -0.413215438366E+03   -0.81296E-05   -0.48477E-04  5781   0.199E-02    0.234E-02
RMM:   8    -0.413215435400E+03    0.29658E-05   -0.12847E-04  5195   0.116E-02    0.124E-02
RMM:   9    -0.413215422943E+03    0.12457E-04   -0.21393E-05  4504   0.579E-03    0.491E-03
RMM:  10    -0.413215419496E+03    0.34466E-05   -0.45319E-06  2863   0.268E-03    0.314E-03
RMM:  11    -0.413215415567E+03    0.39290E-05   -0.12990E-06  2498   0.188E-03    0.171E-03
RMM:  12    -0.413215410108E+03    0.54592E-05   -0.76627E-07  2450   0.149E-03    0.643E-04
RMM:  13    -0.413215406861E+03    0.32470E-05   -0.38154E-07  2135   0.106E-03    0.302E-04
RMM:  14    -0.413215404863E+03    0.19983E-05   -0.20532E-07  1664   0.809E-04    0.201E-04
RMM:  15    -0.413215400981E+03    0.38815E-05   -0.13800E-07  1344   0.721E-04    0.111E-04
RMM:  16    -0.413215398622E+03    0.23587E-05   -0.86620E-08  1154   0.663E-04    0.821E-05
RMM:  17    -0.413215396078E+03    0.25448E-05   -0.69039E-08  1163   0.642E-04    0.517E-05
RMM:  18    -0.413215393508E+03    0.25699E-05   -0.52473E-08  1104   0.616E-04    0.341E-05
RMM:  19    -0.413215391517E+03    0.19905E-05   -0.38278E-08  1013   0.585E-04    0.272E-05
RMM:  20    -0.413215391152E+03    0.36459E-06   -0.17546E-08   745   0.545E-04
   43 T=    71. E= -.41286662E+03 F= -.41321539E+03 E0= -.41319439E+03  EK= 0.34877E+00 SP= 0.00E+00 SK= 0.00E+00
       N       E                     dE             d eps       ncg     rms          rms(c)
RMM:   1    -0.413228602427E+03   -0.13211E-01   -0.10974E+01  4312   0.133E+00    0.949E-01
RMM:   2    -0.413220919981E+03    0.76824E-02   -0.16048E-01  4298   0.160E-01    0.702E-01
RMM:   3    -0.413221980510E+03   -0.10605E-02   -0.17616E-02  5071   0.900E-02    0.339E-01
RMM:   4    -0.413256176656E+03   -0.34196E-01   -0.55646E-02  5078   0.200E-01    0.819E-01
RMM:   5    -0.413216512586E+03    0.39664E-01   -0.16788E-02  4715   0.136E-01    0.608E-02
RMM:   6    -0.413216568654E+03   -0.56068E-04   -0.30356E-03  5731   0.523E-02    0.345E-02
RMM:   7    -0.413216571294E+03   -0.26398E-05   -0.43989E-04  5757   0.194E-02    0.227E-02
RMM:   8    -0.413216568627E+03    0.26670E-05   -0.11866E-04  5178   0.113E-02    0.118E-02
RMM:   9    -0.413216558158E+03    0.10469E-04   -0.19490E-05  4416   0.561E-03    0.468E-03
RMM:  10    -0.413216555744E+03    0.24138E-05   -0.40006E-06  2803   0.258E-03    0.294E-03
RMM:  11    -0.413216552791E+03    0.29530E-05   -0.12763E-06  2498   0.185E-03    0.158E-03
RMM:  12    -0.413216548717E+03    0.40745E-05   -0.77442E-07  2444   0.147E-03    0.610E-04
RMM:  13    -0.413216546254E+03    0.24622E-05   -0.38541E-07  2088   0.104E-03    0.287E-04
RMM:  14    -0.413216544533E+03    0.17217E-05   -0.21327E-07  1608   0.802E-04    0.186E-04
RMM:  15    -0.413216541070E+03    0.34626E-05   -0.15669E-07  1333   0.729E-04    0.113E-04
RMM:  16    -0.413216539370E+03    0.16996E-05   -0.93162E-08  1127   0.660E-04    0.778E-05
RMM:  17    -0.413216537181E+03    0.21890E-05   -0.73777E-08  1118   0.646E-04    0.460E-05
RMM:  18    -0.413216534960E+03    0.22215E-05   -0.58428E-08  1103   0.623E-04    0.339E-05
RMM:  19    -0.413216533511E+03    0.14488E-05   -0.37754E-08   951   0.586E-04    0.202E-05
RMM:  20    -0.413216532875E+03    0.63652E-06   -0.23038E-08   803   0.557E-04
   44 T=    71. E= -.41286644E+03 F= -.41321653E+03 E0= -.41319555E+03  EK= 0.35009E+00 SP= 0.00E+00 SK= 0.00E+00
       N       E                     dE             d eps       ncg     rms          rms(c)
RMM:   1    -0.413251147750E+03   -0.34614E-01   -0.11181E+01  4311   0.150E+00    0.973E-01
RMM:   2    -0.413221623605E+03    0.29524E-01   -0.17160E-01  4325   0.170E-01    0.699E-01
RMM:   3    -0.413226560969E+03   -0.49374E-02   -0.19885E-02  5119   0.104E-01    0.430E-01
RMM:   4    -0.413244459564E+03   -0.17899E-01   -0.46950E-02  5055   0.187E-01    0.681E-01
RMM:   5    -0.413217810398E+03    0.26649E-01   -0.10391E-02  4665   0.114E-01    0.593E-02
RMM:   6    -0.413217798056E+03    0.12342E-04   -0.20685E-03  5626   0.438E-02    0.342E-02
RMM:   7    -0.413217793966E+03    0.40905E-05   -0.34957E-04  5636   0.180E-02    0.226E-02
RMM:   8    -0.413217785057E+03    0.89089E-05   -0.11804E-04  5076   0.115E-02    0.107E-02
RMM:   9    -0.413217771950E+03    0.13106E-04   -0.16409E-05  4340   0.554E-03    0.432E-03
RMM:  10    -0.413217768095E+03    0.38556E-05   -0.31710E-06  2748   0.235E-03    0.256E-03
RMM:  11    -0.413217762173E+03    0.59223E-05   -0.11721E-06  2483   0.179E-03    0.139E-03
RMM:  12    -0.413217756049E+03    0.61232E-05   -0.60994E-07  2430   0.135E-03    0.624E-04
RMM:  13    -0.413217752482E+03    0.35669E-05   -0.28988E-07  1900   0.930E-04    0.294E-04
RMM:  14    -0.413217749141E+03    0.33411E-05   -0.16508E-07  1457   0.741E-04    0.167E-04
RMM:  15    -0.413217744169E+03    0.49726E-05   -0.12391E-07  1296   0.699E-04    0.119E-04
RMM:  16    -0.413217741417E+03    0.27519E-05   -0.78227E-08  1125   0.642E-04    0.913E-05
RMM:  17    -0.413217736803E+03    0.46137E-05   -0.78267E-08  1314   0.654E-04    0.645E-05
RMM:  18    -0.413217734729E+03    0.20739E-05   -0.43834E-08  1029   0.580E-04    0.439E-05
RMM:  19    -0.413217733242E+03    0.14875E-05   -0.29894E-08   895   0.551E-04    0.239E-05
RMM:  20    -0.413217732892E+03    0.35015E-06   -0.16181E-08   717   0.523E-04
   45 T=    71. E= -.41286679E+03 F= -.41321773E+03 E0= -.41319678E+03  EK= 0.35094E+00 SP= 0.00E+00 SK= 0.00E+00
       N       E                     dE             d eps       ncg     rms          rms(c)
RMM:   1    -0.413261612813E+03   -0.43880E-01   -0.11184E+01  4310   0.163E+00    0.955E-01
RMM:   2    -0.413221331017E+03    0.40282E-01   -0.18575E-01  4351   0.187E-01    0.694E-01
RMM:   3    -0.413228586257E+03   -0.72552E-02   -0.20701E-02  5116   0.113E-01    0.486E-01
RMM:   4    -0.413239740509E+03   -0.11154E-01   -0.44724E-02  5039   0.184E-01    0.629E-01
RMM:   5    -0.413217536622E+03    0.22204E-01   -0.85687E-03  4621   0.107E-01    0.591E-02
RMM:   6    -0.413217494941E+03    0.41681E-04   -0.16932E-03  5494   0.403E-02    0.333E-02
RMM:   7    -0.413217488058E+03    0.68835E-05   -0.30361E-04  5629   0.170E-02    0.227E-02
RMM:   8    -0.413217476898E+03    0.11160E-04   -0.12527E-04  5076   0.117E-02    0.105E-02
RMM:   9    -0.413217463474E+03    0.13423E-04   -0.17088E-05  4360   0.569E-03    0.420E-03
RMM:  10    -0.413217460234E+03    0.32403E-05   -0.29052E-06  2725   0.228E-03    0.243E-03
RMM:  11    -0.413217454446E+03    0.57880E-05   -0.12995E-06  2495   0.183E-03    0.135E-03
RMM:  12    -0.413217449655E+03    0.47905E-05   -0.58867E-07  2437   0.135E-03    0.684E-04
RMM:  13    -0.413217446199E+03    0.34565E-05   -0.28103E-07  1836   0.916E-04    0.322E-04
RMM:  14    -0.413217442757E+03    0.34419E-05   -0.15968E-07  1387   0.730E-04    0.173E-04
RMM:  15    -0.413217438828E+03    0.39292E-05   -0.11575E-07  1256   0.680E-04    0.118E-04
RMM:  16    -0.413217436131E+03    0.26972E-05   -0.77740E-08  1118   0.635E-04    0.995E-05
RMM:  17    -0.413217432132E+03    0.39988E-05   -0.75804E-08  1307   0.646E-04    0.642E-05
RMM:  18    -0.413217429962E+03    0.21696E-05   -0.44688E-08  1016   0.574E-04    0.486E-05
RMM:  19    -0.413217428979E+03    0.98297E-06   -0.27120E-08   841   0.536E-04
   46 T=    71. E= -.41286672E+03 F= -.41321743E+03 E0= -.41319649E+03  EK= 0.35071E+00 SP= 0.00E+00 SK= 0.00E+00
       N       E                     dE             d eps       ncg     rms          rms(c)
RMM:   1    -0.413244041017E+03   -0.26611E-01   -0.11031E+01  4310   0.162E+00    0.941E-01
RMM:   2    -0.413220740813E+03    0.23300E-01   -0.18817E-01  4362   0.195E-01    0.706E-01
RMM:   3    -0.413229231055E+03   -0.84902E-02   -0.22007E-02  5120   0.121E-01    0.515E-01
RMM:   4    -0.413238841406E+03   -0.96104E-02   -0.47041E-02  5032   0.189E-01    0.629E-01
RMM:   5    -0.413216467769E+03    0.22374E-01   -0.84503E-03  4612   0.108E-01    0.600E-02
RMM:   6    -0.413216410348E+03    0.57421E-04   -0.16489E-03  5462   0.399E-02    0.326E-02
RMM:   7    -0.413216404877E+03    0.54713E-05   -0.28786E-04  5665   0.166E-02    0.227E-02
RMM:   8    -0.413216393994E+03    0.10883E-04   -0.12982E-04  5106   0.118E-02    0.105E-02
RMM:   9    -0.413216381850E+03    0.12144E-04   -0.18245E-05  4404   0.586E-03    0.420E-03
RMM:  10    -0.413216379658E+03    0.21923E-05   -0.31283E-06  2728   0.231E-03    0.243E-03
RMM:  11    -0.413216375627E+03    0.40307E-05   -0.14853E-06  2523   0.191E-03    0.138E-03
RMM:  12    -0.413216372529E+03    0.30988E-05   -0.62145E-07  2443   0.138E-03    0.724E-04
RMM:  13    -0.413216369883E+03    0.26455E-05   -0.31366E-07  1871   0.945E-04    0.345E-04
RMM:  14    -0.413216367303E+03    0.25807E-05   -0.17940E-07  1406   0.750E-04    0.180E-04
RMM:  15    -0.413216364591E+03    0.27116E-05   -0.13377E-07  1281   0.696E-04    0.114E-04
RMM:  16    -0.413216362532E+03    0.20588E-05   -0.90567E-08  1186   0.650E-04    0.981E-05
RMM:  17    -0.413216359852E+03    0.26798E-05   -0.79494E-08  1225   0.636E-04    0.537E-05
RMM:  18    -0.413216357850E+03    0.20022E-05   -0.51409E-08  1015   0.587E-04    0.468E-05
RMM:  19    -0.413216357232E+03    0.61856E-06   -0.27708E-08   807   0.539E-04
   47 T=    71. E= -.41286681E+03 F= -.41321636E+03 E0= -.41319544E+03  EK= 0.34955E+00 SP= 0.00E+00 SK= 0.00E+00
       N       E                     dE             d eps       ncg     rms          rms(c)
RMM:   1    -0.413241953539E+03   -0.25596E-01   -0.10946E+01  4305   0.174E+00    0.964E-01
RMM:   2    -0.413218172936E+03    0.23781E-01   -0.17611E-01  4415   0.203E-01    0.700E-01
RMM:   3    -0.413234515275E+03   -0.16342E-01   -0.29388E-02  5141   0.144E-01    0.626E-01
RMM:   4    -0.413227376692E+03    0.71386E-02   -0.42197E-02  4984   0.183E-01    0.489E-01
RMM:   5    -0.413214295700E+03    0.13081E-01   -0.47997E-03  4530   0.910E-02    0.581E-02
RMM:   6    -0.413214185471E+03    0.11023E-03   -0.74969E-04  4934   0.306E-02    0.306E-02
RMM:   7    -0.413214171877E+03    0.13593E-04   -0.17280E-04  5813   0.129E-02    0.125E-02
RMM:   8    -0.413214166743E+03    0.51343E-05   -0.51471E-05  5205   0.794E-03    0.792E-03
RMM:   9    -0.413214159345E+03    0.73979E-05   -0.11915E-05  4006   0.416E-03    0.438E-03
RMM:  10    -0.413214157264E+03    0.20808E-05   -0.19660E-06  2558   0.229E-03    0.233E-03
RMM:  11    -0.413214151307E+03    0.59566E-05   -0.14976E-06  2478   0.199E-03    0.149E-03
RMM:  12    -0.413214147540E+03    0.37676E-05   -0.54006E-07  2376   0.135E-03    0.879E-04
RMM:  13    -0.413214143466E+03    0.40740E-05   -0.25386E-07  1885   0.925E-04    0.466E-04
RMM:  14    -0.413214138724E+03    0.47419E-05   -0.17569E-07  1654   0.778E-04    0.365E-04
RMM:  15    -0.413214134559E+03    0.41654E-05   -0.96433E-08  1053   0.618E-04    0.161E-04
RMM:  16    -0.413214132062E+03    0.24968E-05   -0.63335E-08  1017   0.585E-04    0.109E-04
RMM:  17    -0.413214129665E+03    0.23972E-05   -0.49419E-08   989   0.569E-04    0.946E-05
RMM:  18    -0.413214126984E+03    0.26805E-05   -0.41846E-08   974   0.567E-04    0.733E-05
RMM:  19    -0.413214126231E+03    0.75273E-06   -0.19543E-08   717   0.509E-04
   48 T=    71. E= -.41286706E+03 F= -.41321413E+03 E0= -.41319322E+03  EK= 0.34707E+00 SP= 0.00E+00 SK= 0.00E+00
       N       E                     dE             d eps       ncg     rms          rms(c)
RMM:   1    -0.413242733486E+03   -0.28607E-01   -0.10790E+01  4305   0.186E+00    0.954E-01
RMM:   2    -0.413213387158E+03    0.29346E-01   -0.17711E-01  4461   0.214E-01    0.689E-01
RMM:   3    -0.413237065414E+03   -0.23678E-01   -0.35172E-02  5155   0.162E-01    0.721E-01
RMM:   4    -0.413218387442E+03    0.18678E-01   -0.40968E-02  4957   0.184E-01    0.410E-01
RMM:   5    -0.413209758027E+03    0.86294E-02   -0.42592E-03  4600   0.885E-02    0.638E-02
RMM:   6    -0.413209577943E+03    0.18008E-03   -0.46365E-04  4679   0.291E-02    0.332E-02
RMM:   7    -0.413209587285E+03   -0.93427E-05   -0.30640E-04  5759   0.184E-02    0.246E-02
RMM:   8    -0.413209550996E+03    0.36290E-04   -0.10325E-04  5012   0.117E-02    0.935E-03
RMM:   9    -0.413209544246E+03    0.67491E-05   -0.20579E-05  4967   0.577E-03    0.483E-03
RMM:  10    -0.413209540009E+03    0.42377E-05   -0.24376E-06  2642   0.245E-03    0.261E-03
RMM:  11    -0.413209533922E+03    0.60869E-05   -0.14808E-06  2505   0.199E-03    0.186E-03
RMM:  12    -0.413209530101E+03    0.38204E-05   -0.44860E-07  2401   0.126E-03    0.966E-04
RMM:  13    -0.413209525590E+03    0.45112E-05   -0.26290E-07  1982   0.883E-04    0.473E-04
RMM:  14    -0.413209520076E+03    0.55145E-05   -0.22739E-07  1816   0.807E-04    0.390E-04
RMM:  15    -0.413209515390E+03    0.46857E-05   -0.11872E-07  1177   0.647E-04    0.155E-04
RMM:  16    -0.413209512945E+03    0.24452E-05   -0.69193E-08  1055   0.599E-04    0.931E-05
RMM:  17    -0.413209509505E+03    0.34401E-05   -0.69414E-08  1181   0.615E-04    0.714E-05
RMM:  18    -0.413209508147E+03    0.13578E-05   -0.37514E-08   953   0.552E-04    0.646E-05
RMM:  19    -0.413209506595E+03    0.15517E-05   -0.30325E-08   909   0.538E-04    0.348E-05
RMM:  20    -0.413209505642E+03    0.95357E-06   -0.24766E-08   854   0.519E-04
   49 T=    70. E= -.41286683E+03 F= -.41320951E+03 E0= -.41318861E+03  EK= 0.34267E+00 SP= 0.00E+00 SK= 0.00E+00
       N       E                     dE             d eps       ncg     rms          rms(c)
RMM:   1    -0.413233766785E+03   -0.24260E-01   -0.10585E+01  4305   0.194E+00    0.927E-01
RMM:   2    -0.413207832960E+03    0.25934E-01   -0.17544E-01  4494   0.222E-01    0.691E-01
RMM:   3    -0.413233483673E+03   -0.25651E-01   -0.36911E-02  5157   0.169E-01    0.750E-01
RMM:   4    -0.413212091756E+03    0.21392E-01   -0.42366E-02  4952   0.188E-01    0.400E-01
RMM:   5    -0.413203781336E+03    0.83104E-02   -0.45587E-03  4689   0.917E-02    0.683E-02
[...]
RMM:   6    -0.412987934680E+03   -0.14015E-03   -0.21139E-03  5649   0.460E-02    0.386E-02
RMM:   7    -0.412988041368E+03   -0.10669E-03   -0.34561E-04  5733   0.180E-02    0.255E-02
RMM:   8    -0.412988170938E+03   -0.12957E-03   -0.86465E-05  5145   0.105E-02    0.144E-02
RMM:   9    -0.412988272996E+03   -0.10206E-03   -0.31010E-05  4662   0.666E-03    0.680E-03
RMM:  10    -0.412988343720E+03   -0.70724E-04   -0.94459E-06  3046   0.377E-03    0.331E-03
RMM:  11    -0.412988411676E+03   -0.67956E-04   -0.48398E-06  2735   0.302E-03    0.210E-03
RMM:  12    -0.412988482885E+03   -0.71210E-04   -0.66273E-06  2756   0.297E-03    0.154E-03
RMM:  13    -0.412988507819E+03   -0.24933E-04   -0.26389E-06  2643   0.161E-03    0.906E-04
RMM:  14    -0.412988523532E+03   -0.15713E-04   -0.98526E-07  2279   0.116E-03    0.590E-04
RMM:  15    -0.412988542043E+03   -0.18510E-04   -0.12064E-06  2023   0.113E-03    0.306E-04
RMM:  16    -0.412988548349E+03   -0.63062E-05   -0.41057E-07  1488   0.785E-04    0.154E-04
RMM:  17    -0.412988551240E+03   -0.28913E-05   -0.16106E-07  1292   0.666E-04    0.805E-05
RMM:  18    -0.412988553588E+03   -0.23482E-05   -0.10902E-07  1305   0.631E-04    0.715E-05
RMM:  19    -0.412988554174E+03   -0.58615E-06   -0.49074E-08  1005   0.540E-04
  139 T=    51. E= -.41273712E+03 F= -.41298855E+03 E0= -.41296781E+03  EK= 0.25144E+00 SP= 0.00E+00 SK= 0.00E+00
       N       E                     dE             d eps       ncg     rms          rms(c)
RMM:   1    -0.413040926847E+03   -0.52373E-01   -0.14714E+01  4276   0.145E+00    0.177E+00
RMM:   2    -0.412997323803E+03    0.43603E-01   -0.18732E-01  4454   0.164E-01    0.946E-01
RMM:   3    -0.412985244701E+03    0.12079E-01   -0.63229E-02  4833   0.838E-02    0.130E-01
RMM:   4    -0.412985889071E+03   -0.64437E-03   -0.34997E-03  5199   0.462E-02    0.732E-02
RMM:   5    -0.412986084472E+03   -0.19540E-03   -0.64072E-04  5071   0.288E-02    0.794E-02
RMM:   6    -0.412985888081E+03    0.19639E-03   -0.30590E-04  5304   0.180E-02    0.502E-02
RMM:   7    -0.412985836262E+03    0.51819E-04   -0.39645E-04  4473   0.181E-02    0.200E-02
RMM:   8    -0.412985817650E+03    0.18612E-04   -0.33556E-05  4482   0.593E-03    0.850E-03
RMM:   9    -0.412985804537E+03    0.13112E-04   -0.99059E-06  2887   0.285E-03    0.367E-03
RMM:  10    -0.412985783590E+03    0.20948E-04   -0.48756E-06  2694   0.251E-03    0.274E-03
RMM:  11    -0.412985728517E+03    0.55073E-04   -0.12596E-05  2784   0.333E-03    0.167E-03
RMM:  12    -0.412985708864E+03    0.19653E-04   -0.42794E-06  2679   0.172E-03    0.114E-03
RMM:  13    -0.412985692326E+03    0.16538E-04   -0.21562E-06  2350   0.142E-03    0.602E-04
RMM:  14    -0.412985681821E+03    0.10505E-04   -0.13210E-06  1941   0.110E-03    0.309E-04
RMM:  15    -0.412985676916E+03    0.49049E-05   -0.58397E-07  1607   0.841E-04    0.232E-04
RMM:  16    -0.412985675958E+03    0.95818E-06   -0.19756E-07  1266   0.641E-04
  140 T=    57. E= -.41270761E+03 F= -.41298568E+03 E0= -.41296500E+03  EK= 0.27807E+00 SP= 0.00E+00 SK= 0.00E+00
       N       E                     dE             d eps       ncg     rms          rms(c)
RMM:   1    -0.412981300586E+03    0.43763E-02   -0.32018E+00  4264   0.924E-01    0.452E-01
RMM:   2    -0.412982918146E+03   -0.16176E-02   -0.37821E-02  4498   0.954E-02    0.341E-01
RMM:   3    -0.412981546244E+03    0.13719E-02   -0.10568E-02  5086   0.662E-02    0.119E-01
RMM:   4    -0.412990823821E+03   -0.92776E-02   -0.11638E-02  5126   0.948E-02    0.418E-01
RMM:   5    -0.412980890848E+03    0.99330E-02   -0.49081E-03  4856   0.725E-02    0.492E-02
RMM:   6    -0.412980834921E+03    0.55927E-04   -0.81982E-04  5563   0.293E-02    0.207E-02
RMM:   7    -0.412980858652E+03   -0.23732E-04   -0.19617E-04  5812   0.134E-02    0.161E-02
RMM:   8    -0.412980869599E+03   -0.10947E-04   -0.59293E-05  5070   0.819E-03    0.663E-03
RMM:   9    -0.412980874967E+03   -0.53681E-05   -0.11183E-05  3773   0.413E-03    0.316E-03
RMM:  10    -0.412980880114E+03   -0.51461E-05   -0.21793E-06  2573   0.231E-03    0.195E-03
RMM:  11    -0.412980884765E+03   -0.46517E-05   -0.10167E-06  2501   0.162E-03    0.130E-03
RMM:  12    -0.412980891840E+03   -0.70746E-05   -0.10913E-06  2481   0.143E-03    0.875E-04
RMM:  13    -0.412980894570E+03   -0.27306E-05   -0.37156E-07  1770   0.898E-04    0.377E-04
RMM:  14    -0.412980897079E+03   -0.25085E-05   -0.26149E-07  1650   0.811E-04    0.196E-04
RMM:  15    -0.412980899456E+03   -0.23773E-05   -0.22441E-07  1664   0.751E-04    0.171E-04
RMM:  16    -0.412980900686E+03   -0.12301E-05   -0.10814E-07  1224   0.615E-04    0.116E-04
RMM:  17    -0.412980902516E+03   -0.18296E-05   -0.10926E-07  1253   0.624E-04    0.556E-05
RMM:  18    -0.412980903223E+03   -0.70749E-06   -0.48105E-08   992   0.545E-04
  141 T=    56. E= -.41270716E+03 F= -.41298090E+03 E0= -.41296029E+03  EK= 0.27375E+00 SP= 0.00E+00 SK= 0.00E+00
       N       E                     dE             d eps       ncg     rms          rms(c)
RMM:   1    -0.413012308706E+03   -0.31406E-01   -0.14318E+01  4281   0.134E+00    0.136E+00
RMM:   2    -0.413011542928E+03    0.76578E-03   -0.27428E-01  4435   0.167E-01    0.110E+00
RMM:   3    -0.412997491982E+03    0.14051E-01   -0.21607E-01  4995   0.155E-01    0.835E-01
RMM:   4    -0.413020897171E+03   -0.23405E-01   -0.63762E-02  5117   0.207E-01    0.820E-01
RMM:   5    -0.412982905203E+03    0.37992E-01   -0.18776E-02  4776   0.141E-01    0.794E-02
RMM:   6    -0.412983102626E+03   -0.19742E-03   -0.30334E-03  5727   0.547E-02    0.387E-02
RMM:   7    -0.412983274008E+03   -0.17138E-03   -0.45866E-04  5910   0.205E-02    0.261E-02
RMM:   8    -0.412983421127E+03   -0.14712E-03   -0.11303E-04  5099   0.121E-02    0.130E-02
RMM:   9    -0.412983561333E+03   -0.14021E-03   -0.35008E-05  4653   0.764E-03    0.679E-03
RMM:  10    -0.412983641648E+03   -0.80315E-04   -0.97743E-06  3024   0.405E-03    0.431E-03
RMM:  11    -0.412983782935E+03   -0.14129E-03   -0.14234E-05  3274   0.573E-03    0.307E-03
RMM:  12    -0.412983846284E+03   -0.63349E-04   -0.68924E-06  2803   0.312E-03    0.198E-03
RMM:  13    -0.412983871290E+03   -0.25006E-04   -0.23719E-06  2657   0.173E-03    0.126E-03
RMM:  14    -0.412983903140E+03   -0.31850E-04   -0.22014E-06  2633   0.166E-03    0.719E-04
RMM:  15    -0.412983924551E+03   -0.21411E-04   -0.17805E-06  2236   0.132E-03    0.366E-04
RMM:  16    -0.412983933410E+03   -0.88591E-05   -0.72427E-07  1748   0.945E-04    0.242E-04
RMM:  17    -0.412983937564E+03   -0.41538E-05   -0.31506E-07  1519   0.773E-04    0.158E-04
RMM:  18    -0.412983939751E+03   -0.21874E-05   -0.15136E-07  1363   0.659E-04    0.757E-05
RMM:  19    -0.412983940536E+03   -0.78449E-06   -0.72985E-08  1108   0.561E-04
  142 T=    49. E= -.41274141E+03 F= -.41298394E+03 E0= -.41296339E+03  EK= 0.24253E+00 SP= 0.00E+00 SK= 0.00E+00
       N       E                     dE             d eps       ncg     rms          rms(c)
RMM:   1    -0.413126560355E+03   -0.14262E+00   -0.95878E+00  4269   0.125E+00    0.142E+00
RMM:   2    -0.413098636856E+03    0.27923E-01   -0.11298E-01  4463   0.128E-01    0.787E-01
RMM:   3    -0.413088893521E+03    0.97433E-02   -0.48384E-02  4881   0.744E-02    0.849E-02
RMM:   4    -0.413091929055E+03   -0.30355E-02   -0.42832E-03  5217   0.591E-02    0.230E-01
RMM:   5    -0.413089104940E+03    0.28241E-02   -0.16832E-03  4919   0.424E-02    0.599E-02
RMM:   6    -0.413089062004E+03    0.42937E-04   -0.49780E-04  5400   0.261E-02    0.335E-02
RMM:   7    -0.413089090309E+03   -0.28306E-04   -0.25379E-04  5429   0.166E-02    0.188E-02
RMM:   8    -0.413089072278E+03    0.18031E-04   -0.58106E-05  4943   0.860E-03    0.104E-02
RMM:   9    -0.413089062532E+03    0.97466E-05   -0.11214E-05  3671   0.400E-03    0.522E-03
RMM:  10    -0.413089052433E+03    0.10098E-04   -0.43497E-06  2728   0.274E-03    0.292E-03
RMM:  11    -0.413089022147E+03    0.30286E-04   -0.68554E-06  2763   0.301E-03    0.185E-03
RMM:  12    -0.413089002604E+03    0.19543E-04   -0.31715E-06  2644   0.198E-03    0.124E-03
RMM:  13    -0.413088993416E+03    0.91877E-05   -0.10624E-06  2349   0.122E-03    0.916E-04
RMM:  14    -0.413088977576E+03    0.15841E-04   -0.14532E-06  2518   0.133E-03    0.664E-04
RMM:  15    -0.413088971794E+03    0.57814E-05   -0.43396E-07  1436   0.783E-04    0.409E-04
RMM:  16    -0.413088966303E+03    0.54915E-05   -0.33406E-07  1556   0.793E-04    0.165E-04
RMM:  17    -0.413088965098E+03    0.12048E-05   -0.12082E-07  1307   0.635E-04    0.158E-04
RMM:  18    -0.413088964962E+03    0.13637E-06   -0.59283E-08  1098   0.554E-04
  143 T=    52. E= -.41283128E+03 F= -.41308896E+03 E0= -.41306847E+03  EK= 0.25769E+00 SP= 0.00E+00 SK= 0.00E+00
       N       E                     dE             d eps       ncg     rms          rms(c)
RMM:   1    -0.413040636860E+03    0.48328E-01   -0.33979E+00  4264   0.914E-01    0.529E-01
RMM:   2    -0.413040058812E+03    0.57805E-03   -0.38206E-02  4470   0.927E-02    0.372E-01
RMM:   3    -0.413038002539E+03    0.20563E-02   -0.11653E-02  5052   0.590E-02    0.931E-02
RMM:   4    -0.413046664110E+03   -0.86616E-02   -0.10012E-02  5150   0.874E-02    0.398E-01
RMM:   5    -0.413037618628E+03    0.90455E-02   -0.44505E-03  4856   0.678E-02    0.430E-02
RMM:   6    -0.413037597055E+03    0.21572E-04   -0.76882E-04  5627   0.283E-02    0.208E-02
RMM:   7    -0.413037627992E+03   -0.30937E-04   -0.19127E-04  5837   0.135E-02    0.168E-02
RMM:   8    -0.413037633206E+03   -0.52139E-05   -0.56294E-05  5003   0.833E-03    0.632E-03
RMM:   9    -0.413037636159E+03   -0.29528E-05   -0.10945E-05  3759   0.405E-03    0.338E-03
RMM:  10    -0.413037639027E+03   -0.28687E-05   -0.17651E-06  2538   0.218E-03    0.211E-03
RMM:  11    -0.413037641746E+03   -0.27185E-05   -0.10304E-06  2515   0.158E-03    0.123E-03
RMM:  12    -0.413037644296E+03   -0.25506E-05   -0.11036E-06  2470   0.138E-03    0.868E-04
RMM:  13    -0.413037644952E+03   -0.65587E-06   -0.32524E-07  1727   0.870E-04
  144 T=    46. E= -.41281261E+03 F= -.41303764E+03 E0= -.41301720E+03  EK= 0.22503E+00 SP= 0.00E+00 SK= 0.00E+00
       N       E                     dE             d eps       ncg     rms          rms(c)
RMM:   1    -0.413098471837E+03   -0.60828E-01   -0.86682E+00  4264   0.111E+00    0.103E+00
RMM:   2    -0.413095113708E+03    0.33581E-02   -0.12375E-01  4441   0.127E-01    0.786E-01
RMM:   3    -0.413087799103E+03    0.73146E-02   -0.10081E-01  4870   0.112E-01    0.520E-01
RMM:   4    -0.413093029188E+03   -0.52301E-02   -0.20560E-02  5117   0.117E-01    0.458E-01
RMM:   5    -0.413081719008E+03    0.11310E-01   -0.55023E-03  4777   0.785E-02    0.590E-02
RMM:   6    -0.413081757088E+03   -0.38079E-04   -0.93897E-04  5682   0.308E-02    0.313E-02
RMM:   7    -0.413081879445E+03   -0.12236E-03   -0.21006E-04  5673   0.147E-02    0.198E-02
RMM:   8    -0.413081978663E+03   -0.99217E-04   -0.72908E-05  4953   0.980E-03    0.733E-03
RMM:   9    -0.413082045951E+03   -0.67288E-04   -0.16673E-05  3973   0.498E-03    0.486E-03
RMM:  10    -0.413082090649E+03   -0.44698E-04   -0.33847E-06  2686   0.265E-03    0.336E-03
RMM:  11    -0.413082189086E+03   -0.98437E-04   -0.83390E-06  2810   0.411E-03    0.222E-03
RMM:  12    -0.413082229139E+03   -0.40053E-04   -0.40570E-06  2712   0.221E-03    0.138E-03
RMM:  13    -0.413082246040E+03   -0.16901E-04   -0.13047E-06  2519   0.129E-03    0.901E-04
RMM:  14    -0.413082270723E+03   -0.24683E-04   -0.17320E-06  2522   0.142E-03    0.458E-04
RMM:  15    -0.413082281657E+03   -0.10934E-04   -0.76735E-07  1562   0.909E-04    0.221E-04
RMM:  16    -0.413082289028E+03   -0.73710E-05   -0.46249E-07  1643   0.849E-04    0.134E-04
RMM:  17    -0.413082291647E+03   -0.26187E-05   -0.18398E-07  1325   0.678E-04    0.106E-04
RMM:  18    -0.413082292927E+03   -0.12808E-05   -0.89174E-08  1146   0.594E-04    0.628E-05
RMM:  19    -0.413082293951E+03   -0.10238E-05   -0.53806E-08  1029   0.559E-04    0.477E-05
RMM:  20    -0.413082294163E+03   -0.21132E-06   -0.23320E-08   823   0.511E-04
  145 T=    48. E= -.41284798E+03 F= -.41308229E+03 E0= -.41306189E+03  EK= 0.23432E+00 SP= 0.00E+00 SK= 0.00E+00
       N       E                     dE             d eps       ncg     rms          rms(c)
RMM:   1    -0.413137865482E+03   -0.55572E-01   -0.45369E+00  4264   0.929E-01    0.759E-01
RMM:   2    -0.413134672481E+03    0.31930E-02   -0.45856E-02  4470   0.972E-02    0.482E-01
RMM:   3    -0.413131665464E+03    0.30070E-02   -0.16063E-02  4950   0.591E-02    0.697E-02
RMM:   4    -0.413137304000E+03   -0.56385E-02   -0.61820E-03  5173   0.698E-02    0.319E-01
RMM:   5    -0.413131554227E+03    0.57498E-02   -0.29191E-03  4865   0.543E-02    0.433E-02
RMM:   6    -0.413131543200E+03    0.11027E-04   -0.59641E-04  5585   0.259E-02    0.244E-02
RMM:   7    -0.413131571629E+03   -0.28429E-04   -0.18708E-04  5681   0.141E-02    0.176E-02
RMM:   8    -0.413131566706E+03    0.49229E-05   -0.53628E-05  4942   0.851E-03    0.637E-03
RMM:   9    -0.413131567521E+03   -0.81501E-06   -0.10546E-05  3764   0.387E-03    0.358E-03
RMM:  10    -0.413131568384E+03   -0.86288E-06   -0.18889E-06  2521   0.224E-03
  146 T=    48. E= -.41289795E+03 F= -.41313157E+03 E0= -.41311121E+03  EK= 0.23361E+00 SP= 0.00E+00 SK= 0.00E+00
       N       E                     dE             d eps       ncg     rms          rms(c)
RMM:   1    -0.413072653210E+03    0.58914E-01   -0.49558E+00  4264   0.947E-01    0.768E-01
RMM:   2    -0.413069280552E+03    0.33727E-02   -0.50873E-02  4475   0.970E-02    0.473E-01
RMM:   3    -0.413066247228E+03    0.30333E-02   -0.16230E-02  4996   0.546E-02    0.683E-02
RMM:   4    -0.413071839208E+03   -0.55920E-02   -0.60066E-03  5181   0.683E-02    0.316E-01
RMM:   5    -0.413066206320E+03    0.56329E-02   -0.28616E-03  4856   0.538E-02    0.430E-02
RMM:   6    -0.413066206501E+03   -0.18063E-06   -0.60423E-04  5628   0.258E-02    0.263E-02
RMM:   7    -0.413066231917E+03   -0.25416E-04   -0.19959E-04  5559   0.146E-02    0.177E-02
RMM:   8    -0.413066223958E+03    0.79594E-05   -0.54899E-05  4949   0.865E-03    0.672E-03
RMM:   9    -0.413066223644E+03    0.31392E-06   -0.10189E-05  3689   0.377E-03    0.390E-03
RMM:  10    -0.413066223378E+03    0.26601E-06   -0.19663E-06  2529   0.222E-03
  147 T=    41. E= -.41286568E+03 F= -.41306622E+03 E0= -.41304590E+03  EK= 0.20055E+00 SP= 0.00E+00 SK= 0.00E+00
       N       E                     dE             d eps       ncg     rms          rms(c)
RMM:   1    -0.413130265100E+03   -0.64041E-01   -0.49323E+00  4264   0.925E-01    0.640E-01
RMM:   2    -0.413131183643E+03   -0.91854E-03   -0.52433E-02  4473   0.951E-02    0.483E-01
RMM:   3    -0.413128204366E+03    0.29793E-02   -0.26851E-02  4755   0.794E-02    0.238E-01
RMM:   4    -0.413133206150E+03   -0.50018E-02   -0.76012E-03  5116   0.795E-02    0.331E-01
RMM:   5    -0.413127176791E+03    0.60294E-02   -0.28121E-03  4800   0.559E-02    0.423E-02
RMM:   6    -0.413127194391E+03   -0.17600E-04   -0.52387E-04  5708   0.230E-02    0.240E-02
RMM:   7    -0.413127255967E+03   -0.61576E-04   -0.14630E-04  5544   0.118E-02    0.143E-02
RMM:   8    -0.413127300676E+03   -0.44709E-04   -0.43611E-05  4902   0.727E-03    0.459E-03
RMM:   9    -0.413127324318E+03   -0.23643E-04   -0.72518E-06  3246   0.334E-03    0.332E-03
RMM:  10    -0.413127344570E+03   -0.20252E-04   -0.15342E-06  2543   0.201E-03    0.241E-03
RMM:  11    -0.413127384612E+03   -0.40042E-04   -0.27457E-06  2618   0.217E-03    0.131E-03
RMM:  12    -0.413127406587E+03   -0.21975E-04   -0.16744E-06  2557   0.150E-03    0.697E-04
RMM:  13    -0.413127416340E+03   -0.97531E-05   -0.63734E-07  1833   0.966E-04    0.439E-04
RMM:  14    -0.413127428634E+03   -0.12294E-04   -0.77154E-07  2277   0.106E-03    0.270E-04
RMM:  15    -0.413127436207E+03   -0.75731E-05   -0.46418E-07  1518   0.792E-04    0.168E-04
RMM:  16    -0.413127440662E+03   -0.44547E-05   -0.26285E-07  1375   0.703E-04    0.868E-05
RMM:  17    -0.413127442616E+03   -0.19547E-05   -0.12672E-07  1182   0.611E-04    0.664E-05
RMM:  18    -0.413127443526E+03   -0.90992E-06   -0.64038E-08   994   0.548E-04
  148 T=    47. E= -.41289737E+03 F= -.41312744E+03 E0= -.41310715E+03  EK= 0.23008E+00 SP= 0.00E+00 SK= 0.00E+00
       N       E                     dE             d eps       ncg     rms          rms(c)
RMM:   1    -0.413069116278E+03    0.58326E-01   -0.52690E+00  4264   0.932E-01    0.694E-01
RMM:   2    -0.413069868920E+03   -0.75264E-03   -0.53028E-02  4462   0.960E-02    0.521E-01
RMM:   3    -0.413066312253E+03    0.35567E-02   -0.28057E-02  4532   0.801E-02    0.255E-01
RMM:   4    -0.413066850437E+03   -0.53818E-03   -0.33844E-03  5042   0.504E-02    0.160E-01
RMM:   5    -0.413065532800E+03    0.13176E-02   -0.64412E-04  4866   0.276E-02    0.405E-02
RMM:   6    -0.413065547157E+03   -0.14357E-04   -0.17225E-04  5458   0.142E-02    0.243E-02
RMM:   7    -0.413065616496E+03   -0.69340E-04   -0.10788E-04  5298   0.104E-02    0.128E-02
RMM:   8    -0.413065655306E+03   -0.38809E-04   -0.31161E-05  4638   0.649E-03    0.425E-03
RMM:   9    -0.413065671529E+03   -0.16223E-04   -0.54368E-06  3051   0.291E-03    0.265E-03
RMM:  10    -0.413065689098E+03   -0.17569E-04   -0.15696E-06  2519   0.199E-03    0.206E-03
RMM:  11    -0.413065726129E+03   -0.37030E-04   -0.23458E-06  2587   0.201E-03    0.107E-03
RMM:  12    -0.413065745960E+03   -0.19831E-04   -0.13124E-06  2505   0.131E-03    0.608E-04
RMM:  13    -0.413065755637E+03   -0.96773E-05   -0.55116E-07  1688   0.894E-04    0.381E-04
RMM:  14    -0.413065766844E+03   -0.11207E-04   -0.62507E-07  2145   0.981E-04    0.234E-04
RMM:  15    -0.413065772660E+03   -0.58162E-05   -0.29204E-07  1397   0.693E-04    0.136E-04
RMM:  16    -0.413065775877E+03   -0.32172E-05   -0.14870E-07  1215   0.623E-04    0.707E-05
RMM:  17    -0.413065777556E+03   -0.16784E-05   -0.83125E-08  1139   0.583E-04    0.507E-05
RMM:  18    -0.413065778376E+03   -0.81981E-06   -0.44572E-08   983   0.534E-04
  149 T=    46. E= -.41283970E+03 F= -.41306578E+03 E0= -.41304551E+03  EK= 0.22608E+00 SP= 0.00E+00 SK= 0.00E+00
       N       E                     dE             d eps       ncg     rms          rms(c)
RMM:   1    -0.413048888334E+03    0.16889E-01   -0.10102E+01  4264   0.121E+00    0.131E+00
RMM:   2    -0.413023655562E+03    0.25233E-01   -0.10538E-01  4429   0.117E-01    0.712E-01
RMM:   3    -0.413018265525E+03    0.53900E-02   -0.36367E-02  4853   0.635E-02    0.993E-02
RMM:   4    -0.413021517048E+03   -0.32515E-02   -0.38927E-03  5220   0.548E-02    0.235E-01
RMM:   5    -0.413018573567E+03    0.29435E-02   -0.15919E-03  4835   0.409E-02    0.505E-02
RMM:   6    -0.413018599575E+03   -0.26008E-04   -0.56216E-04  5584   0.260E-02    0.333E-02
RMM:   7    -0.413018578700E+03    0.20875E-04   -0.24085E-04  5086   0.175E-02    0.164E-02
RMM:   8    -0.413018565521E+03    0.13179E-04   -0.41365E-05  5126   0.794E-03    0.773E-03
RMM:   9    -0.413018560420E+03    0.51014E-05   -0.70812E-06  3125   0.313E-03    0.432E-03
RMM:  10    -0.413018552669E+03    0.77510E-05   -0.28430E-06  2589   0.234E-03    0.264E-03
RMM:  11    -0.413018528486E+03    0.24183E-04   -0.62588E-06  2692   0.262E-03    0.169E-03
RMM:  12    -0.413018514436E+03    0.14050E-04   -0.24404E-06  2610   0.172E-03    0.918E-04
RMM:  13    -0.413018501895E+03    0.12541E-04   -0.14779E-06  2442   0.136E-03    0.827E-04
RMM:  14    -0.413018491051E+03    0.10843E-04   -0.10491E-06  2357   0.119E-03    0.570E-04
RMM:  15    -0.413018480988E+03    0.10063E-04   -0.94677E-07  2277   0.114E-03    0.267E-04
RMM:  16    -0.413018479327E+03    0.16613E-05   -0.24921E-07  1358   0.662E-04    0.154E-04
RMM:  17    -0.413018479140E+03    0.18710E-06   -0.14762E-07  1312   0.644E-04
  150 T=    44. E= -.41280321E+03 F= -.41301848E+03 E0= -.41299823E+03  EK= 0.21527E+00 SP= 0.00E+00 SK= 0.00E+00
