       N       E                     dE             d eps       ncg     rms          rms(c)
RMM:   1     0.220156833422E+04    0.22016E+04   -0.52440E+04  2132   0.654E+02
RMM:   2     0.705386215379E+03   -0.14962E+04   -0.16264E+04  2132   0.177E+02
RMM:   3     0.137712958059E+03   -0.56767E+03   -0.65714E+03  2132   0.117E+02
RMM:   4    -0.159556102571E+03   -0.29727E+03   -0.27840E+03  2132   0.936E+01
RMM:   5    -0.287666688299E+03   -0.12811E+03   -0.11430E+03  2132   0.595E+01
RMM:   6    -0.349858775237E+03   -0.62192E+02   -0.55046E+02  2132   0.423E+01
RMM:   7    -0.382719279115E+03   -0.32861E+02   -0.30392E+02  2132   0.293E+01
RMM:   8    -0.404267770787E+03   -0.21548E+02   -0.18447E+02  2132   0.233E+01
RMM:   9    -0.435971829013E+03   -0.31704E+02   -0.30578E+02  6097   0.173E+01
RMM:  10    -0.441263522462E+03   -0.52917E+01   -0.63043E+01  6404   0.539E+00
RMM:  11    -0.442515519812E+03   -0.12520E+01   -0.11398E+01  6220   0.173E+00
RMM:  12    -0.442890234619E+03   -0.37471E+00   -0.27016E+00  6370   0.602E-01    0.134E+02
RMM:  13    -0.425631841205E+03    0.17258E+02   -0.81137E+01  4677   0.119E+01    0.712E+01
RMM:  14    -0.499431237640E+03   -0.73799E+02   -0.54010E+02  5420   0.232E+01    0.307E+01
RMM:  15    -0.414981654655E+03    0.84450E+02   -0.19752E+02  5068   0.163E+01    0.645E+00
RMM:  16    -0.414055901014E+03    0.92575E+00   -0.39252E+01  6079   0.606E+00    0.429E+00
RMM:  17    -0.413220534417E+03    0.83537E+00   -0.23842E+00  5361   0.184E+00    0.246E+00
RMM:  18    -0.413168819755E+03    0.51715E-01   -0.84521E-01  5970   0.945E-01    0.162E+00
RMM:  19    -0.413167772098E+03    0.10477E-02   -0.28634E-01  5722   0.569E-01    0.850E-01
RMM:  20    -0.413183821765E+03   -0.16050E-01   -0.21919E-01  5423   0.507E-01    0.549E-01
RMM:  21    -0.413167383703E+03    0.16438E-01   -0.34148E-02  5010   0.231E-01    0.250E-01
RMM:  22    -0.413165771137E+03    0.16126E-02   -0.14590E-02  6073   0.102E-01    0.144E-01
RMM:  23    -0.413164268331E+03    0.15028E-02   -0.57884E-03  5850   0.703E-02    0.820E-02
RMM:  24    -0.413162965384E+03    0.13029E-02   -0.15843E-03  5346   0.393E-02    0.386E-02
RMM:  25    -0.413162677536E+03    0.28785E-03   -0.82092E-04  5689   0.248E-02    0.314E-02
RMM:  26    -0.413162863481E+03   -0.18594E-03   -0.70243E-04  5777   0.274E-02    0.313E-02
RMM:  27    -0.413163294471E+03   -0.43099E-03   -0.19153E-04  4561   0.196E-02    0.176E-02
RMM:  28    -0.413163778767E+03   -0.48430E-03   -0.19368E-04  5226   0.199E-02    0.891E-03
RMM:  29    -0.413164140340E+03   -0.36157E-03   -0.10237E-04  4376   0.146E-02    0.419E-03
RMM:  30    -0.413164350643E+03   -0.21030E-03   -0.76621E-05  4196   0.979E-03    0.343E-03
RMM:  31    -0.413164454387E+03   -0.10374E-03   -0.46791E-05  3127   0.602E-03    0.288E-03
RMM:  32    -0.413164474707E+03   -0.20320E-04   -0.19296E-05  2942   0.282E-03    0.137E-03
RMM:  33    -0.413164484118E+03   -0.94107E-05   -0.82536E-06  2772   0.208E-03    0.502E-04
RMM:  34    -0.413164486864E+03   -0.27462E-05   -0.44076E-06  2650   0.164E-03    0.816E-04
RMM:  35    -0.413164486824E+03    0.40469E-07   -0.45570E-06  2189   0.113E-03
    1 T=    61. E= -.41286671E+03 F= -.41316449E+03 E0= -.41314199E+03  EK= 0.29778E+00 SP= 0.00E+00 SK= 0.00E+00
       N       E                     dE             d eps       ncg     rms          rms(c)
RMM:   1    -0.413160038531E+03    0.44483E-02   -0.97638E+00  3996   0.645E-01    0.885E-01
RMM:   2    -0.413167609051E+03   -0.75705E-02   -0.11960E-01  4005   0.935E-02    0.647E-01
RMM:   3    -0.413164419021E+03    0.31900E-02   -0.11926E-02  4749   0.449E-02    0.104E-01
RMM:   4    -0.413185329241E+03   -0.20910E-01   -0.22110E-02  5201   0.123E-01    0.604E-01
RMM:   5    -0.413164057801E+03    0.21271E-01   -0.10529E-02  4855   0.101E-01    0.431E-02
RMM:   6    -0.413164207901E+03   -0.15010E-03   -0.18538E-03  5800   0.414E-02    0.295E-02
RMM:   7    -0.413164213078E+03   -0.51774E-05   -0.34667E-04  5659   0.171E-02    0.183E-02
RMM:   8    -0.413164211837E+03    0.12413E-05   -0.45415E-05  4928   0.735E-03    0.807E-03
RMM:   9    -0.413164214679E+03   -0.28423E-05   -0.96620E-06  3436   0.335E-03    0.624E-03
RMM:  10    -0.413164219451E+03   -0.47721E-05   -0.17976E-06  2572   0.204E-03    0.385E-03
RMM:  11    -0.413164224733E+03   -0.52812E-05   -0.13481E-06  2532   0.175E-03    0.191E-03
RMM:  12    -0.413164231435E+03   -0.67025E-05   -0.14299E-06  2537   0.170E-03    0.800E-04
RMM:  13    -0.413164233015E+03   -0.15804E-05   -0.51289E-07  2253   0.111E-03    0.460E-04
RMM:  14    -0.413164233288E+03   -0.27231E-06   -0.28965E-07  1677   0.776E-04
    2 T=    61. E= -.41286651E+03 F= -.41316423E+03 E0= -.41314173E+03  EK= 0.29772E+00 SP= 0.00E+00 SK= 0.00E+00
       N       E                     dE             d eps       ncg     rms          rms(c)
RMM:   1    -0.413161101055E+03    0.31320E-02   -0.97729E+00  4189   0.651E-01    0.906E-01
RMM:   2    -0.413167686441E+03   -0.65854E-02   -0.11784E-01  4079   0.936E-02    0.642E-01
RMM:   3    -0.413165038537E+03    0.26479E-02   -0.11688E-02  4792   0.452E-02    0.121E-01
RMM:   4    -0.413189762998E+03   -0.24724E-01   -0.25534E-02  5174   0.133E-01    0.657E-01
RMM:   5    -0.413164610690E+03    0.25152E-01   -0.12275E-02  4829   0.110E-01    0.458E-02
RMM:   6    -0.413164775402E+03   -0.16471E-03   -0.21292E-03  5780   0.449E-02    0.315E-02
RMM:   7    -0.413164770260E+03    0.51413E-05   -0.37739E-04  5646   0.180E-02    0.192E-02
RMM:   8    -0.413164763139E+03    0.71211E-05   -0.52309E-05  5029   0.793E-03    0.877E-03
RMM:   9    -0.413164761691E+03    0.14479E-05   -0.10616E-05  3629   0.362E-03    0.666E-03
RMM:  10    -0.413164761824E+03   -0.13226E-06   -0.16825E-06  2551   0.211E-03
    3 T=    61. E= -.41286680E+03 F= -.41316476E+03 E0= -.41314227E+03  EK= 0.29796E+00 SP= 0.00E+00 SK= 0.00E+00
       N       E                     dE             d eps       ncg     rms          rms(c)
RMM:   1    -0.413160576804E+03    0.41849E-02   -0.96960E+00  4222   0.652E-01    0.890E-01
RMM:   2    -0.413167353152E+03   -0.67763E-02   -0.11729E-01  4208   0.921E-02    0.636E-01
RMM:   3    -0.413168211329E+03   -0.85818E-03   -0.14100E-02  5149   0.701E-02    0.275E-01
RMM:   4    -0.413194986045E+03   -0.26775E-01   -0.41993E-02  5131   0.174E-01    0.721E-01
RMM:   5    -0.413164469531E+03    0.30517E-01   -0.12569E-02  4733   0.119E-01    0.599E-02
RMM:   6    -0.413164526929E+03   -0.57398E-04   -0.23039E-03  5559   0.477E-02    0.298E-02
RMM:   7    -0.413164550692E+03   -0.23763E-04   -0.38902E-04  6045   0.172E-02    0.186E-02
RMM:   8    -0.413164548612E+03    0.20798E-05   -0.69628E-05  5249   0.915E-03    0.807E-03
RMM:   9    -0.413164546139E+03    0.24732E-05   -0.96225E-06  3514   0.376E-03    0.402E-03
RMM:  10    -0.413164547212E+03   -0.10736E-05   -0.21770E-06  2598   0.220E-03    0.267E-03
RMM:  11    -0.413164548769E+03   -0.15562E-05   -0.14326E-06  2533   0.187E-03    0.154E-03
RMM:  12    -0.413164549662E+03   -0.89326E-06   -0.77864E-07  2495   0.144E-03
    4 T=    61. E= -.41286659E+03 F= -.41316455E+03 E0= -.41314206E+03  EK= 0.29796E+00 SP= 0.00E+00 SK= 0.00E+00
       N       E                     dE             d eps       ncg     rms          rms(c)
RMM:   1    -0.413160577687E+03    0.39711E-02   -0.97503E+00  4235   0.658E-01    0.883E-01
RMM:   2    -0.413167818048E+03   -0.72404E-02   -0.11959E-01  4065   0.901E-02    0.646E-01
RMM:   3    -0.413165114281E+03    0.27038E-02   -0.11992E-02  4943   0.436E-02    0.119E-01
RMM:   4    -0.413195080419E+03   -0.29966E-01   -0.31384E-02  5151   0.148E-01    0.722E-01
RMM:   5    -0.413164521030E+03    0.30559E-01   -0.14672E-02  4812   0.120E-01    0.468E-02
RMM:   6    -0.413164706619E+03   -0.18559E-03   -0.24786E-03  5772   0.485E-02    0.304E-02
RMM:   7    -0.413164714340E+03   -0.77214E-05   -0.39872E-04  5781   0.181E-02    0.194E-02
RMM:   8    -0.413164712725E+03    0.16151E-05   -0.62065E-05  5063   0.831E-03    0.905E-03
RMM:   9    -0.413164713715E+03   -0.98987E-06   -0.12126E-05  3842   0.394E-03    0.668E-03
RMM:  10    -0.413164717574E+03   -0.38595E-05   -0.17917E-06  2570   0.210E-03    0.424E-03
RMM:  11    -0.413164721729E+03   -0.41545E-05   -0.13107E-06  2537   0.178E-03    0.220E-03
RMM:  12    -0.413164727417E+03   -0.56883E-05   -0.17418E-06  2586   0.188E-03    0.953E-04
RMM:  13    -0.413164728639E+03   -0.12216E-05   -0.48260E-07  2318   0.119E-03    0.613E-04
RMM:  14    -0.413164728648E+03   -0.89130E-08   -0.21077E-07  1740   0.805E-04
    5 T=    61. E= -.41286664E+03 F= -.41316473E+03 E0= -.41314225E+03  EK= 0.29809E+00 SP= 0.00E+00 SK= 0.00E+00
       N       E                     dE             d eps       ncg     rms          rms(c)
RMM:   1    -0.413161435949E+03    0.32927E-02   -0.97734E+00  4245   0.665E-01    0.902E-01
RMM:   2    -0.413167932706E+03   -0.64968E-02   -0.11823E-01  4107   0.932E-02    0.644E-01
RMM:   3    -0.413165373072E+03    0.25596E-02   -0.11713E-02  4758   0.436E-02    0.114E-01
RMM:   4    -0.413186464852E+03   -0.21092E-01   -0.21505E-02  5157   0.122E-01    0.608E-01
RMM:   5    -0.413165022891E+03    0.21442E-01   -0.10470E-02  4825   0.101E-01    0.438E-02
RMM:   6    -0.413165166420E+03   -0.14353E-03   -0.18630E-03  5790   0.412E-02    0.300E-02
RMM:   7    -0.413165161516E+03    0.49039E-05   -0.33722E-04  5609   0.173E-02    0.185E-02
RMM:   8    -0.413165153954E+03    0.75616E-05   -0.46910E-05  4916   0.763E-03    0.855E-03
RMM:   9    -0.413165152784E+03    0.11701E-05   -0.93494E-06  3492   0.348E-03    0.659E-03
RMM:  10    -0.413165153190E+03   -0.40535E-06   -0.15690E-06  2539   0.210E-03
    6 T=    61. E= -.41286679E+03 F= -.41316515E+03 E0= -.41314269E+03  EK= 0.29837E+00 SP= 0.00E+00 SK= 0.00E+00
       N       E                     dE             d eps       ncg     rms          rms(c)
RMM:   1    -0.413161090661E+03    0.40621E-02   -0.97212E+00  4255   0.666E-01    0.897E-01
RMM:   2    -0.413167752585E+03   -0.66619E-02   -0.11752E-01  4239   0.921E-02    0.637E-01
RMM:   3    -0.413168095701E+03   -0.34312E-03   -0.13764E-02  5113   0.666E-02    0.258E-01
RMM:   4    -0.413197420971E+03   -0.29325E-01   -0.42830E-02  5123   0.175E-01    0.744E-01
RMM:   5    -0.413164853086E+03    0.32568E-01   -0.13775E-02  4752   0.123E-01    0.596E-02
RMM:   6    -0.413164934879E+03   -0.81793E-04   -0.24742E-03  5578   0.493E-02    0.304E-02
RMM:   7    -0.413164955442E+03   -0.20562E-04   -0.40153E-04  6018   0.173E-02    0.187E-02
RMM:   8    -0.413164952134E+03    0.33081E-05   -0.68702E-05  5228   0.907E-03    0.810E-03
RMM:   9    -0.413164948496E+03    0.36380E-05   -0.98096E-06  3493   0.372E-03    0.417E-03
RMM:  10    -0.413164948282E+03    0.21338E-06   -0.23444E-06  2608   0.225E-03
    7 T=    61. E= -.41286651E+03 F= -.41316495E+03 E0= -.41314250E+03  EK= 0.29844E+00 SP= 0.00E+00 SK= 0.00E+00
       N       E                     dE             d eps       ncg     rms          rms(c)
RMM:   1    -0.413161317812E+03    0.36307E-02   -0.97325E+00  4266   0.671E-01    0.881E-01
RMM:   2    -0.413168705842E+03   -0.73880E-02   -0.11904E-01  4142   0.912E-02    0.644E-01
RMM:   3    -0.413166256001E+03    0.24498E-02   -0.12166E-02  4991   0.498E-02    0.144E-01
RMM:   4    -0.413204120518E+03   -0.37865E-01   -0.41092E-02  5140   0.169E-01    0.811E-01
RMM:   5    -0.413165278448E+03    0.38842E-01   -0.18390E-02  4807   0.135E-01    0.515E-02
RMM:   6    -0.413165483939E+03   -0.20549E-03   -0.30608E-03  5761   0.543E-02    0.316E-02
RMM:   7    -0.413165496986E+03   -0.13047E-04   -0.46533E-04  5869   0.190E-02    0.205E-02
RMM:   8    -0.413165496496E+03    0.49035E-06   -0.71281E-05  5209   0.887E-03    0.950E-03
RMM:   9    -0.413165496170E+03    0.32560E-06   -0.13874E-05  3974   0.418E-03    0.643E-03
RMM:  10    -0.413165499201E+03   -0.30307E-05   -0.22139E-06  2596   0.219E-03    0.417E-03
RMM:  11    -0.413165501945E+03   -0.27436E-05   -0.12063E-06  2530   0.172E-03    0.223E-03
RMM:  12    -0.413165505772E+03   -0.38278E-05   -0.16890E-06  2574   0.188E-03    0.871E-04
RMM:  13    -0.413165506939E+03   -0.11664E-05   -0.58189E-07  2345   0.125E-03    0.670E-04
RMM:  14    -0.413165506746E+03    0.19292E-06   -0.23523E-07  1833   0.839E-04
    8 T=    61. E= -.41286673E+03 F= -.41316551E+03 E0= -.41314308E+03  EK= 0.29877E+00 SP= 0.00E+00 SK= 0.00E+00
       N       E                     dE             d eps       ncg     rms          rms(c)
RMM:   1    -0.413161784304E+03    0.37226E-02   -0.97798E+00  4281   0.679E-01    0.898E-01
RMM:   2    -0.413168857953E+03   -0.70736E-02   -0.11880E-01  4193   0.941E-02    0.646E-01
RMM:   3    -0.413165958900E+03    0.28991E-02   -0.11839E-02  4799   0.438E-02    0.113E-01
RMM:   4    -0.413189089909E+03   -0.23131E-01   -0.23718E-02  5149   0.128E-01    0.637E-01
RMM:   5    -0.413165562856E+03    0.23527E-01   -0.11493E-02  4818   0.106E-01    0.440E-02
RMM:   6    -0.413165704046E+03   -0.14119E-03   -0.19622E-03  5795   0.426E-02    0.291E-02
RMM:   7    -0.413165704362E+03   -0.31540E-06   -0.33461E-04  5643   0.173E-02    0.184E-02
RMM:   8    -0.413165696865E+03    0.74964E-05   -0.53448E-05  4954   0.798E-03    0.876E-03
RMM:   9    -0.413165695205E+03    0.16609E-05   -0.10634E-05  3698   0.372E-03    0.673E-03
RMM:  10    -0.413165695725E+03   -0.52038E-06   -0.15759E-06  2544   0.209E-03
    9 T=    61. E= -.41286664E+03 F= -.41316570E+03 E0= -.41314329E+03  EK= 0.29906E+00 SP= 0.00E+00 SK= 0.00E+00
       N       E                     dE             d eps       ncg     rms          rms(c)
RMM:   1    -0.413162137436E+03    0.35578E-02   -0.97549E+00  4292   0.680E-01    0.904E-01
RMM:   2    -0.413168646178E+03   -0.65087E-02   -0.11762E-01  4285   0.944E-02    0.639E-01
RMM:   3    -0.413169360886E+03   -0.71471E-03   -0.14245E-02  5102   0.707E-02    0.274E-01
RMM:   4    -0.413196058789E+03   -0.26698E-01   -0.41605E-02  5105   0.172E-01    0.719E-01
RMM:   5    -0.413165680358E+03    0.30378E-01   -0.12623E-02  4728   0.118E-01    0.589E-02
RMM:   6    -0.413165748267E+03   -0.67910E-04   -0.23076E-03  5563   0.474E-02    0.307E-02
RMM:   7    -0.413165760520E+03   -0.12252E-04   -0.38047E-04  5999   0.169E-02    0.187E-02
RMM:   8    -0.413165755047E+03    0.54730E-05   -0.67124E-05  5201   0.900E-03    0.805E-03
RMM:   9    -0.413165750058E+03    0.49887E-05   -0.93064E-06  3464   0.370E-03    0.408E-03
RMM:  10    -0.413165748833E+03    0.12252E-05   -0.21924E-06  2588   0.221E-03    0.271E-03
RMM:  11    -0.413165746876E+03    0.19570E-05   -0.13209E-06  2524   0.182E-03    0.148E-03
RMM:  12    -0.413165745030E+03    0.18460E-05   -0.75301E-07  2479   0.141E-03    0.535E-04
RMM:  13    -0.413165744040E+03    0.98973E-06   -0.36628E-07  2081   0.998E-04
   10 T=    61. E= -.41286644E+03 F= -.41316574E+03 E0= -.41314336E+03  EK= 0.29930E+00 SP= 0.00E+00 SK= 0.00E+00
       N       E                     dE             d eps       ncg     rms          rms(c)
RMM:   1    -0.413162443251E+03    0.33018E-02   -0.97206E+00  4290   0.687E-01    0.882E-01
RMM:   2    -0.413169607294E+03   -0.71640E-02   -0.11881E-01  4231   0.943E-02    0.642E-01
RMM:   3    -0.413166951527E+03    0.26558E-02   -0.11834E-02  4904   0.465E-02    0.126E-01
RMM:   4    -0.413198490482E+03   -0.31539E-01   -0.33184E-02  5136   0.151E-01    0.740E-01
RMM:   5    -0.413166305536E+03    0.32185E-01   -0.15540E-02  4801   0.123E-01    0.478E-02
RMM:   6    -0.413166498819E+03   -0.19328E-03   -0.26094E-03  5772   0.495E-02    0.313E-02
RMM:   7    -0.413166501117E+03   -0.22973E-05   -0.41321E-04  5738   0.184E-02    0.198E-02
RMM:   8    -0.413166496233E+03    0.48836E-05   -0.63307E-05  5083   0.846E-03    0.933E-03
RMM:   9    -0.413166494497E+03    0.17364E-05   -0.12874E-05  3890   0.403E-03    0.682E-03
RMM:  10    -0.413166495503E+03   -0.10062E-05   -0.18228E-06  2568   0.211E-03    0.433E-03
RMM:  11    -0.413166496726E+03   -0.12230E-05   -0.13136E-06  2526   0.179E-03    0.221E-03
RMM:  12    -0.413166498238E+03   -0.15119E-05   -0.16535E-06  2573   0.187E-03    0.928E-04
RMM:  13    -0.413166498480E+03   -0.24206E-06   -0.47001E-07  2315   0.120E-03
   11 T=    61. E= -.41286674E+03 F= -.41316650E+03 E0= -.41314414E+03  EK= 0.29976E+00 SP= 0.00E+00 SK= 0.00E+00
       N       E                     dE             d eps       ncg     rms          rms(c)
RMM:   1    -0.413162519021E+03    0.39792E-02   -0.97920E+00  4294   0.689E-01    0.893E-01
RMM:   2    -0.413169548746E+03   -0.70297E-02   -0.11951E-01  4223   0.938E-02    0.649E-01
RMM:   3    -0.413166725207E+03    0.28235E-02   -0.11961E-02  4800   0.435E-02    0.111E-01
RMM:   4    -0.413190789999E+03   -0.24065E-01   -0.24857E-02  5136   0.131E-01    0.649E-01
RMM:   5    -0.413166303530E+03    0.24486E-01   -0.11894E-02  4813   0.107E-01    0.442E-02
RMM:   6    -0.413166458727E+03   -0.15520E-03   -0.20681E-03  5809   0.431E-02    0.286E-02
RMM:   7    -0.413166463539E+03   -0.48122E-05   -0.32385E-04  5686   0.170E-02    0.182E-02
RMM:   8    -0.413166456872E+03    0.66678E-05   -0.58295E-05  4954   0.816E-03    0.904E-03
RMM:   9    -0.413166455188E+03    0.16839E-05   -0.11371E-05  3820   0.389E-03    0.693E-03
RMM:  10    -0.413166455957E+03   -0.76900E-06   -0.16144E-06  2548   0.210E-03
   12 T=    61. E= -.41286643E+03 F= -.41316646E+03 E0= -.41314412E+03  EK= 0.30003E+00 SP= 0.00E+00 SK= 0.00E+00
       N       E                     dE             d eps       ncg     rms          rms(c)
RMM:   1    -0.413163521588E+03    0.29336E-02   -0.97888E+00  4303   0.693E-01    0.909E-01
RMM:   2    -0.413169577196E+03   -0.60556E-02   -0.11805E-01  4302   0.900E-02    0.642E-01
RMM:   3    -0.413170918028E+03   -0.13408E-02   -0.14642E-02  5120   0.706E-02    0.283E-01
RMM:   4    -0.413196443282E+03   -0.25525E-01   -0.41502E-02  5102   0.172E-01    0.709E-01
RMM:   5    -0.413166943644E+03    0.29500E-01   -0.12079E-02  4719   0.116E-01    0.588E-02
RMM:   6    -0.413167008345E+03   -0.64701E-04   -0.22631E-03  5556   0.466E-02    0.308E-02
RMM:   7    -0.413167020404E+03   -0.12059E-04   -0.37458E-04  5990   0.170E-02    0.188E-02
RMM:   8    -0.413167013670E+03    0.67335E-05   -0.66268E-05  5196   0.900E-03    0.805E-03
RMM:   9    -0.413167007899E+03    0.57717E-05   -0.92403E-06  3460   0.371E-03    0.409E-03
RMM:  10    -0.413167005925E+03    0.19736E-05   -0.21315E-06  2585   0.220E-03    0.272E-03
RMM:  11    -0.413167002890E+03    0.30347E-05   -0.12910E-06  2517   0.181E-03    0.149E-03
RMM:  12    -0.413167000115E+03    0.27756E-05   -0.72113E-07  2465   0.140E-03    0.536E-04
RMM:  13    -0.413166998679E+03    0.14357E-05   -0.36000E-07  2085   0.997E-04    0.321E-04
RMM:  14    -0.413166997352E+03    0.13274E-05   -0.21503E-07  1629   0.797E-04    0.221E-04
RMM:  15    -0.413166995246E+03    0.21052E-05   -0.18857E-07  1429   0.736E-04    0.118E-04
RMM:  16    -0.413166993242E+03    0.20041E-05   -0.14981E-07  1334   0.692E-04    0.117E-04
RMM:  17    -0.413166991140E+03    0.21021E-05   -0.13776E-07  1328   0.666E-04    0.661E-05
RMM:  18    -0.413166989816E+03    0.13243E-05   -0.76004E-08  1042   0.595E-04    0.328E-05
RMM:  19    -0.413166989055E+03    0.76099E-06   -0.46044E-08   905   0.558E-04
   13 T=    61. E= -.41286651E+03 F= -.41316699E+03 E0= -.41314469E+03  EK= 0.30048E+00 SP= 0.00E+00 SK= 0.00E+00
       N       E                     dE             d eps       ncg     rms          rms(c)
RMM:   1    -0.413163582724E+03    0.34071E-02   -0.97214E+00  4291   0.696E-01    0.886E-01
RMM:   2    -0.413170590211E+03   -0.70075E-02   -0.11864E-01  4241   0.908E-02    0.640E-01
RMM:   3    -0.413168245789E+03    0.23444E-02   -0.11827E-02  4942   0.449E-02    0.133E-01
RMM:   4    -0.413201836621E+03   -0.33591E-01   -0.35782E-02  5131   0.157E-01    0.764E-01
RMM:   5    -0.413167520581E+03    0.34316E-01   -0.16619E-02  4798   0.127E-01    0.490E-02
RMM:   6    -0.413167715283E+03   -0.19470E-03   -0.27548E-03  5750   0.509E-02    0.320E-02
RMM:   7    -0.413167714719E+03    0.56464E-06   -0.42769E-04  5716   0.187E-02    0.202E-02
RMM:   8    -0.413167707909E+03    0.68099E-05   -0.66233E-05  5146   0.865E-03    0.950E-03
RMM:   9    -0.413167704762E+03    0.31472E-05   -0.13526E-05  3979   0.414E-03    0.680E-03
RMM:  10    -0.413167704536E+03    0.22532E-06   -0.18875E-06  2568   0.213E-03
   14 T=    61. E= -.41286671E+03 F= -.41316770E+03 E0= -.41314544E+03  EK= 0.30099E+00 SP= 0.00E+00 SK= 0.00E+00
       N       E                     dE             d eps       ncg     rms          rms(c)
RMM:   1    -0.413163940021E+03    0.37647E-02   -0.98105E+00  4304   0.708E-01    0.891E-01
RMM:   2    -0.413171079315E+03   -0.71393E-02   -0.12035E-01  4309   0.944E-02    0.651E-01
RMM:   3    -0.413172862725E+03   -0.17834E-02   -0.15916E-02  5131   0.777E-02    0.316E-01
RMM:   4    -0.413196494845E+03   -0.23632E-01   -0.43559E-02  5093   0.177E-01    0.699E-01
RMM:   5    -0.413167642601E+03    0.28852E-01   -0.11371E-02  4701   0.114E-01    0.585E-02
RMM:   6    -0.413167695132E+03   -0.52531E-04   -0.21537E-03  5518   0.453E-02    0.288E-02
RMM:   7    -0.413167713978E+03   -0.18846E-04   -0.35066E-04  5995   0.168E-02    0.180E-02
RMM:   8    -0.413167713645E+03    0.33286E-06   -0.66928E-05  5181   0.903E-03    0.776E-03
RMM:   9    -0.413167711464E+03    0.21819E-05   -0.92321E-06  3442   0.378E-03    0.383E-03
RMM:  10    -0.413167712489E+03   -0.10258E-05   -0.19640E-06  2572   0.213E-03    0.250E-03
RMM:  11    -0.413167713975E+03   -0.14855E-05   -0.14549E-06  2533   0.186E-03    0.151E-03
RMM:  12    -0.413167714473E+03   -0.49834E-06   -0.70738E-07  2464   0.140E-03
   15 T=    61. E= -.41286636E+03 F= -.41316771E+03 E0= -.41314548E+03  EK= 0.30136E+00 SP= 0.00E+00 SK= 0.00E+00
       N       E                     dE             d eps       ncg     rms          rms(c)
RMM:   1    -0.413165194448E+03    0.25195E-02   -0.98189E+00  4298   0.704E-01    0.911E-01
RMM:   2    -0.413171797803E+03   -0.66034E-02   -0.11876E-01  4254   0.956E-02    0.645E-01
RMM:   3    -0.413169322106E+03    0.24757E-02   -0.12094E-02  4928   0.483E-02    0.142E-01
RMM:   4    -0.413204204192E+03   -0.34882E-01   -0.37200E-02  5133   0.160E-01    0.778E-01
RMM:   5    -0.413168552899E+03    0.35651E-01   -0.17252E-02  4794   0.129E-01    0.503E-02
RMM:   6    -0.413168765470E+03   -0.21257E-03   -0.29229E-03  5775   0.522E-02    0.333E-02
RMM:   7    -0.413168760699E+03    0.47713E-05   -0.44605E-04  5742   0.194E-02    0.211E-02
RMM:   8    -0.413168749883E+03    0.10816E-04   -0.71559E-05  5140   0.901E-03    0.103E-02
RMM:   9    -0.413168743613E+03    0.62703E-05   -0.14091E-05  4050   0.425E-03    0.729E-03
RMM:  10    -0.413168739836E+03    0.37767E-05   -0.20530E-06  2584   0.221E-03    0.458E-03
RMM:  11    -0.413168736703E+03    0.31335E-05   -0.12582E-06  2512   0.179E-03    0.250E-03
RMM:  12    -0.413168731409E+03    0.52940E-05   -0.18160E-06  2580   0.201E-03    0.102E-03
RMM:  13    -0.413168729394E+03    0.20153E-05   -0.54660E-07  2372   0.130E-03    0.744E-04
RMM:  14    -0.413168729496E+03   -0.10213E-06   -0.23590E-07  1906   0.855E-04
   16 T=    62. E= -.41286665E+03 F= -.41316873E+03 E0= -.41314653E+03  EK= 0.30208E+00 SP= 0.00E+00 SK= 0.00E+00
       N       E                     dE             d eps       ncg     rms          rms(c)
RMM:   1    -0.413165335358E+03    0.33940E-02   -0.97464E+00  4299   0.709E-01    0.892E-01
RMM:   2    -0.413172334088E+03   -0.69987E-02   -0.11860E-01  4260   0.963E-02    0.640E-01
RMM:   3    -0.413169561696E+03    0.27724E-02   -0.11689E-02  4814   0.472E-02    0.124E-01
RMM:   4    -0.413197952645E+03   -0.28391E-01   -0.29647E-02  5128   0.143E-01    0.703E-01
RMM:   5    -0.413169005832E+03    0.28947E-01   -0.14117E-02  4802   0.117E-01    0.468E-02
RMM:   6    -0.413169189578E+03   -0.18375E-03   -0.24398E-03  5803   0.468E-02    0.310E-02
RMM:   7    -0.413169189025E+03    0.55315E-06   -0.37696E-04  5657   0.181E-02    0.195E-02
RMM:   8    -0.413169178683E+03    0.10341E-04   -0.63486E-05  5020   0.855E-03    0.959E-03
RMM:   9    -0.413169173965E+03    0.47179E-05   -0.12735E-05  3958   0.406E-03    0.719E-03
RMM:  10    -0.413169171531E+03    0.24339E-05   -0.17326E-06  2551   0.212E-03    0.452E-03
RMM:  11    -0.413169169119E+03    0.24121E-05   -0.13562E-06  2521   0.186E-03    0.229E-03
RMM:  12    -0.413169165882E+03    0.32372E-05   -0.14856E-06  2534   0.187E-03    0.903E-04
RMM:  13    -0.413169164938E+03    0.94402E-06   -0.45681E-07  2295   0.120E-03
   17 T=    62. E= -.41286649E+03 F= -.41316916E+03 E0= -.41314701E+03  EK= 0.30267E+00 SP= 0.00E+00 SK= 0.00E+00
       N       E                     dE             d eps       ncg     rms          rms(c)
RMM:   1    -0.413165754877E+03    0.34110E-02   -0.98274E+00  4298   0.716E-01    0.889E-01
RMM:   2    -0.413173010513E+03   -0.72556E-02   -0.12091E-01  4273   0.949E-02    0.651E-01
RMM:   3    -0.413170036052E+03    0.29745E-02   -0.12303E-02  4827   0.473E-02    0.117E-01
RMM:   4    -0.413198864099E+03   -0.28828E-01   -0.30190E-02  5126   0.144E-01    0.708E-01
RMM:   5    -0.413169476630E+03    0.29387E-01   -0.14397E-02  4806   0.117E-01    0.461E-02
RMM:   6    -0.413169652038E+03   -0.17541E-03   -0.23858E-03  5809   0.467E-02    0.297E-02
RMM:   7    -0.413169657218E+03   -0.51795E-05   -0.36327E-04  5700   0.178E-02    0.188E-02
RMM:   8    -0.413169650566E+03    0.66511E-05   -0.65041E-05  5016   0.852E-03    0.938E-03
RMM:   9    -0.413169647714E+03    0.28529E-05   -0.13114E-05  4012   0.412E-03    0.699E-03
RMM:  10    -0.413169647792E+03   -0.78282E-07   -0.17281E-06  2553   0.209E-03
   18 T=    62. E= -.41286634E+03 F= -.41316965E+03 E0= -.41314753E+03  EK= 0.30331E+00 SP= 0.00E+00 SK= 0.00E+00
       N       E                     dE             d eps       ncg     rms          rms(c)
RMM:   1    -0.413167382424E+03    0.22653E-02   -0.98536E+00  4305   0.719E-01    0.910E-01
RMM:   2    -0.413173757635E+03   -0.63752E-02   -0.11979E-01  4317   0.929E-02    0.648E-01
RMM:   3    -0.413175448936E+03   -0.16913E-02   -0.15327E-02  5113   0.745E-02    0.302E-01
RMM:   4    -0.413199472941E+03   -0.24024E-01   -0.42217E-02  5087   0.174E-01    0.698E-01
RMM:   5    -0.413170833056E+03    0.28640E-01   -0.11534E-02  4695   0.114E-01    0.582E-02
RMM:   6    -0.413170890039E+03   -0.56984E-04   -0.21666E-03  5523   0.454E-02    0.305E-02
RMM:   7    -0.413170900499E+03   -0.10459E-04   -0.36303E-04  5973   0.169E-02    0.188E-02
RMM:   8    -0.413170893270E+03    0.72284E-05   -0.66758E-05  5174   0.902E-03    0.804E-03
RMM:   9    -0.413170886387E+03    0.68838E-05   -0.92141E-06  3461   0.374E-03    0.400E-03
RMM:  10    -0.413170883954E+03    0.24329E-05   -0.20697E-06  2577   0.218E-03    0.265E-03
RMM:  11    -0.413170879942E+03    0.40122E-05   -0.12446E-06  2507   0.180E-03    0.148E-03
RMM:  12    -0.413170876578E+03    0.33641E-05   -0.67011E-07  2450   0.138E-03    0.521E-04
RMM:  13    -0.413170874710E+03    0.18673E-05   -0.33613E-07  2061   0.983E-04    0.315E-04
RMM:  14    -0.413170873065E+03    0.16454E-05   -0.19342E-07  1578   0.783E-04    0.219E-04
RMM:  15    -0.413170870263E+03    0.28019E-05   -0.16174E-07  1383   0.722E-04    0.114E-04
RMM:  16    -0.413170867811E+03    0.24515E-05   -0.12541E-07  1293   0.676E-04    0.115E-04
RMM:  17    -0.413170865054E+03    0.27570E-05   -0.11393E-07  1307   0.659E-04    0.663E-05
RMM:  18    -0.413170863405E+03    0.16499E-05   -0.65721E-08  1031   0.587E-04    0.345E-05
RMM:  19    -0.413170862509E+03    0.89567E-06   -0.36709E-08   846   0.552E-04
   19 T=    62. E= -.41286668E+03 F= -.41317086E+03 E0= -.41314879E+03  EK= 0.30418E+00 SP= 0.00E+00 SK= 0.00E+00
       N       E                     dE             d eps       ncg     rms          rms(c)
RMM:   1    -0.413167549463E+03    0.33139E-02   -0.97965E+00  4296   0.718E-01    0.900E-01
RMM:   2    -0.413173926679E+03   -0.63772E-02   -0.11923E-01  4264   0.926E-02    0.642E-01
RMM:   3    -0.413171899649E+03    0.20270E-02   -0.12028E-02  4964   0.471E-02    0.146E-01
RMM:   4    -0.413208522827E+03   -0.36623E-01   -0.39709E-02  5134   0.165E-01    0.797E-01
RMM:   5    -0.413171035557E+03    0.37487E-01   -0.18191E-02  4792   0.133E-01    0.513E-02
RMM:   6    -0.413171242667E+03   -0.20711E-03   -0.30508E-03  5769   0.532E-02    0.337E-02
RMM:   7    -0.413171237433E+03    0.52337E-05   -0.46081E-04  5721   0.195E-02    0.213E-02
RMM:   8    -0.413171227323E+03    0.10110E-04   -0.73250E-05  5184   0.908E-03    0.102E-02
RMM:   9    -0.413171220845E+03    0.64778E-05   -0.14920E-05  4111   0.435E-03    0.708E-03
RMM:  10    -0.413171217223E+03    0.36224E-05   -0.21249E-06  2584   0.220E-03    0.450E-03
RMM:  11    -0.413171214389E+03    0.28345E-05   -0.11851E-06  2512   0.173E-03    0.248E-03
RMM:  12    -0.413171209616E+03    0.47725E-05   -0.16270E-06  2548   0.196E-03    0.975E-04
RMM:  13    -0.413171207552E+03    0.20643E-05   -0.55261E-07  2368   0.130E-03    0.772E-04
RMM:  14    -0.413171207738E+03   -0.18581E-06   -0.24150E-07  1911   0.863E-04
   20 T=    62. E= -.41286641E+03 F= -.41317121E+03 E0= -.41314917E+03  EK= 0.30480E+00 SP= 0.00E+00 SK= 0.00E+00
       N       E                     dE             d eps       ncg     rms          rms(c)
RMM:   1    -0.413168370500E+03    0.28371E-02   -0.98468E+00  4294   0.729E-01    0.889E-01
RMM:   2    -0.413175688503E+03   -0.73180E-02   -0.12168E-01  4271   0.938E-02    0.652E-01
RMM:   3    -0.413172697539E+03    0.29910E-02   -0.12287E-02  4863   0.450E-02    0.115E-01
RMM:   4    -0.413200044699E+03   -0.27347E-01   -0.28666E-02  5131   0.140E-01    0.690E-01
RMM:   5    -0.413172183052E+03    0.27862E-01   -0.13698E-02  4799   0.114E-01    0.457E-02
RMM:   6    -0.413172341895E+03   -0.15884E-03   -0.23124E-03  5821   0.455E-02    0.290E-02
RMM:   7    -0.413172346100E+03   -0.42041E-05   -0.33206E-04  5678   0.174E-02    0.178E-02
RMM:   8    -0.413172340091E+03    0.60086E-05   -0.66706E-05  5009   0.851E-03    0.970E-03
RMM:   9    -0.413172335886E+03    0.42052E-05   -0.13035E-05  4045   0.418E-03    0.716E-03
RMM:  10    -0.413172335137E+03    0.74874E-06   -0.17030E-06  2549   0.211E-03
   21 T=    62. E= -.41286664E+03 F= -.41317234E+03 E0= -.41315035E+03  EK= 0.30569E+00 SP= 0.00E+00 SK= 0.00E+00
       N       E                     dE             d eps       ncg     rms          rms(c)
RMM:   1    -0.413171495161E+03    0.84073E-03   -0.99101E+00  4296   0.758E-01    0.908E-01
RMM:   2    -0.413176576679E+03   -0.50815E-02   -0.12229E-01  4322   0.979E-02    0.653E-01
RMM:   3    -0.413177567942E+03   -0.99126E-03   -0.15075E-02  5108   0.734E-02    0.289E-01
RMM:   4    -0.413204996626E+03   -0.27429E-01   -0.44786E-02  5099   0.178E-01    0.732E-01
RMM:   5    -0.413173319005E+03    0.31678E-01   -0.13124E-02  4713   0.120E-01    0.579E-02
RMM:   6    -0.413173403750E+03   -0.84745E-04   -0.23882E-03  5598   0.477E-02    0.307E-02
RMM:   7    -0.413173412824E+03   -0.90749E-05   -0.38077E-04  5953   0.175E-02    0.191E-02
RMM:   8    -0.413173406688E+03    0.61364E-05   -0.70351E-05  5180   0.924E-03    0.829E-03
RMM:   9    -0.413173400019E+03    0.66693E-05   -0.10564E-05  3596   0.394E-03    0.415E-03
RMM:  10    -0.413173397646E+03    0.23731E-05   -0.22193E-06  2594   0.222E-03    0.279E-03
RMM:  11    -0.413173394020E+03    0.36260E-05   -0.11992E-06  2503   0.177E-03    0.148E-03
RMM:  12    -0.413173390379E+03    0.36409E-05   -0.71553E-07  2463   0.140E-03    0.482E-04
RMM:  13    -0.413173388445E+03    0.19334E-05   -0.34578E-07  2053   0.987E-04    0.290E-04
RMM:  14    -0.413173386808E+03    0.16378E-05   -0.19772E-07  1566   0.779E-04    0.193E-04
RMM:  15    -0.413173384270E+03    0.25374E-05   -0.15095E-07  1353   0.713E-04    0.107E-04
RMM:  16    -0.413173381751E+03    0.25191E-05   -0.11907E-07  1268   0.679E-04    0.119E-04
RMM:  17    -0.413173379327E+03    0.24238E-05   -0.94808E-08  1224   0.643E-04    0.701E-05
RMM:  18    -0.413173377133E+03    0.21943E-05   -0.71493E-08  1083   0.602E-04    0.275E-05
RMM:  19    -0.413173376237E+03    0.89592E-06   -0.37536E-08   866   0.556E-04
   22 T=    62. E= -.41286672E+03 F= -.41317338E+03 E0= -.41315143E+03  EK= 0.30666E+00 SP= 0.00E+00 SK= 0.00E+00
       N       E                     dE             d eps       ncg     rms          rms(c)
RMM:   1    -0.413170539147E+03    0.28380E-02   -0.98682E+00  4295   0.736E-01    0.910E-01
RMM:   2    -0.413177209595E+03   -0.66704E-02   -0.12027E-01  4282   0.971E-02    0.646E-01
RMM:   3    -0.413174632574E+03    0.25770E-02   -0.12168E-02  4883   0.498E-02    0.141E-01
RMM:   4    -0.413209270319E+03   -0.34638E-01   -0.36970E-02  5133   0.159E-01    0.774E-01
RMM:   5    -0.413173903218E+03    0.35367E-01   -0.17339E-02  4794   0.129E-01    0.502E-02
RMM:   6    -0.413174097515E+03   -0.19430E-03   -0.29049E-03  5794   0.518E-02    0.335E-02
RMM:   7    -0.413174092082E+03    0.54335E-05   -0.43365E-04  5691   0.195E-02    0.208E-02
RMM:   8    -0.413174080868E+03    0.11214E-04   -0.74902E-05  5145   0.920E-03    0.105E-02
RMM:   9    -0.413174073301E+03    0.75661E-05   -0.15141E-05  4154   0.441E-03    0.741E-03
RMM:  10    -0.413174068555E+03    0.47465E-05   -0.20674E-06  2581   0.221E-03    0.469E-03
RMM:  11    -0.413174064494E+03    0.40611E-05   -0.12531E-06  2509   0.180E-03    0.255E-03
RMM:  12    -0.413174058035E+03    0.64591E-05   -0.17240E-06  2553   0.201E-03    0.102E-03
RMM:  13    -0.413174055486E+03    0.25487E-05   -0.53487E-07  2353   0.131E-03    0.746E-04
RMM:  14    -0.413174055688E+03   -0.20156E-06   -0.24161E-07  1915   0.865E-04
   23 T=    63. E= -.41286644E+03 F= -.41317406E+03 E0= -.41315216E+03  EK= 0.30762E+00 SP= 0.00E+00 SK= 0.00E+00
       N       E                     dE             d eps       ncg     rms          rms(c)
RMM:   1    -0.413172588411E+03    0.14671E-02   -0.98889E+00  4296   0.760E-01    0.891E-01
RMM:   2    -0.413179248444E+03   -0.66600E-02   -0.12433E-01  4282   0.101E-01    0.652E-01
RMM:   3    -0.413175882666E+03    0.33658E-02   -0.12043E-02  4732   0.467E-02    0.112E-01
RMM:   4    -0.413198533940E+03   -0.22651E-01   -0.23390E-02  5137   0.127E-01    0.629E-01
RMM:   5    -0.413175507418E+03    0.23027E-01   -0.11436E-02  4801   0.104E-01    0.440E-02
RMM:   6    -0.413175636843E+03   -0.12942E-03   -0.19675E-03  5829   0.412E-02    0.273E-02
RMM:   7    -0.413175638866E+03   -0.20237E-05   -0.24571E-04  5646   0.154E-02    0.144E-02
RMM:   8    -0.413175635327E+03    0.35394E-05   -0.52534E-05  4977   0.747E-03    0.942E-03
RMM:   9    -0.413175630669E+03    0.46576E-05   -0.11320E-05  3931   0.388E-03    0.704E-03
RMM:  10    -0.413175629082E+03    0.15872E-05   -0.15831E-06  2545   0.212E-03    0.440E-03
RMM:  11    -0.413175627084E+03    0.19978E-05   -0.15599E-06  2533   0.199E-03    0.220E-03
RMM:  12    -0.413175624373E+03    0.27115E-05   -0.13020E-06  2504   0.179E-03    0.806E-04
RMM:  13    -0.413175623640E+03    0.73323E-06   -0.41151E-07  2221   0.113E-03
   24 T=    63. E= -.41286670E+03 F= -.41317562E+03 E0= -.41315378E+03  EK= 0.30893E+00 SP= 0.00E+00 SK= 0.00E+00
       N       E                     dE             d eps       ncg     rms          rms(c)
RMM:   1    -0.413173318808E+03    0.23056E-02   -0.99637E+00  4297   0.764E-01    0.907E-01
RMM:   2    -0.413180169247E+03   -0.68504E-02   -0.12345E-01  4282   0.101E-01    0.657E-01
RMM:   3    -0.413176803285E+03    0.33660E-02   -0.12286E-02  4706   0.467E-02    0.110E-01
RMM:   4    -0.413197095187E+03   -0.20292E-01   -0.20851E-02  5145   0.120E-01    0.596E-01
RMM:   5    -0.413176490815E+03    0.20604E-01   -0.10256E-02  4814   0.984E-02    0.432E-02
RMM:   6    -0.413176597906E+03   -0.10709E-03   -0.17448E-03  5831   0.388E-02    0.261E-02
RMM:   7    -0.413176595900E+03    0.20056E-05   -0.20197E-04  5625   0.141E-02    0.126E-02
RMM:   8    -0.413176591462E+03    0.44386E-05   -0.38478E-05  4846   0.641E-03    0.864E-03
RMM:   9    -0.413176587619E+03    0.38426E-05   -0.87924E-06  3574   0.338E-03    0.662E-03
RMM:  10    -0.413176585550E+03    0.20689E-05   -0.14791E-06  2534   0.208E-03    0.419E-03
RMM:  11    -0.413176582421E+03    0.31296E-05   -0.16290E-06  2534   0.202E-03    0.208E-03
RMM:  12    -0.413176578378E+03    0.40428E-05   -0.11823E-06  2487   0.175E-03    0.923E-04
RMM:  13    -0.413176577541E+03    0.83684E-06   -0.37617E-07  2221   0.110E-03
   25 T=    63. E= -.41286647E+03 F= -.41317658E+03 E0= -.41315478E+03  EK= 0.31010E+00 SP= 0.00E+00 SK= 0.00E+00
       N       E                     dE             d eps       ncg     rms          rms(c)
RMM:   1    -0.413174606291E+03    0.19721E-02   -0.99674E+00  4295   0.751E-01    0.919E-01
RMM:   2    -0.413180945502E+03   -0.63392E-02   -0.12170E-01  4280   0.988E-02    0.651E-01
RMM:   3    -0.413178187990E+03    0.27575E-02   -0.12145E-02  4682   0.468E-02    0.119E-01
RMM:   4    -0.413198033291E+03   -0.19845E-01   -0.20391E-02  5142   0.119E-01    0.590E-01
RMM:   5    -0.413177884103E+03    0.20149E-01   -0.10102E-02  4812   0.975E-02    0.443E-02
RMM:   6    -0.413177981335E+03   -0.97232E-04   -0.17411E-03  5827   0.387E-02    0.270E-02
RMM:   7    -0.413177973134E+03    0.82006E-05   -0.21310E-04  5630   0.147E-02    0.139E-02
RMM:   8    -0.413177966163E+03    0.69710E-05   -0.46284E-05  4956   0.708E-03    0.930E-03
RMM:   9    -0.413177959809E+03    0.63540E-05   -0.93528E-06  3681   0.360E-03    0.701E-03
RMM:  10    -0.413177954844E+03    0.49650E-05   -0.14415E-06  2522   0.210E-03    0.428E-03
RMM:  11    -0.413177948295E+03    0.65493E-05   -0.15902E-06  2539   0.201E-03    0.212E-03
RMM:  12    -0.413177940734E+03    0.75608E-05   -0.10704E-06  2472   0.168E-03    0.743E-04
RMM:  13    -0.413177938850E+03    0.18840E-05   -0.37637E-07  2181   0.107E-03    0.526E-04
RMM:  14    -0.413177938019E+03    0.83079E-06   -0.18075E-07  1654   0.776E-04
   26 T=    63. E= -.41286650E+03 F= -.41317794E+03 E0= -.41315619E+03  EK= 0.31144E+00 SP= 0.00E+00 SK= 0.00E+00
       N       E                     dE             d eps       ncg     rms          rms(c)
RMM:   1    -0.413183327255E+03   -0.53884E-02   -0.10014E+01  4294   0.823E-01    0.895E-01
RMM:   2    -0.413182857262E+03    0.46999E-03   -0.13628E-01  4282   0.105E-01    0.654E-01
RMM:   3    -0.413179970825E+03    0.28864E-02   -0.11424E-02  4701   0.463E-02    0.127E-01
RMM:   4    -0.413201121644E+03   -0.21151E-01   -0.21842E-02  5145   0.123E-01    0.609E-01
RMM:   5    -0.413179651898E+03    0.21470E-01   -0.10808E-02  4817   0.101E-01    0.440E-02
RMM:   6    -0.413179756475E+03   -0.10458E-03   -0.17932E-03  5825   0.400E-02    0.282E-02
RMM:   7    -0.413179752855E+03    0.36194E-05   -0.28058E-04  5640   0.164E-02    0.165E-02
RMM:   8    -0.413179744625E+03    0.82299E-05   -0.55869E-05  4957   0.802E-03    0.901E-03
RMM:   9    -0.413179739473E+03    0.51524E-05   -0.10631E-05  3800   0.388E-03    0.666E-03
RMM:  10    -0.413179736594E+03    0.28795E-05   -0.14827E-06  2530   0.207E-03    0.410E-03
RMM:  11    -0.413179733308E+03    0.32851E-05   -0.12255E-06  2508   0.182E-03    0.201E-03
RMM:  12    -0.413179729427E+03    0.38819E-05   -0.11201E-06  2488   0.166E-03    0.799E-04
RMM:  13    -0.413179728138E+03    0.12889E-05   -0.38146E-07  2194   0.109E-03    0.495E-04
RMM:  14    -0.413179727630E+03    0.50708E-06   -0.18230E-07  1652   0.773E-04
   27 T=    64. E= -.41286675E+03 F= -.41317973E+03 E0= -.41315803E+03  EK= 0.31298E+00 SP= 0.00E+00 SK= 0.00E+00
       N       E                     dE             d eps       ncg     rms          rms(c)
RMM:   1    -0.413177507223E+03    0.22209E-02   -0.10054E+01  4294   0.779E-01    0.907E-01
RMM:   2    -0.413184131232E+03   -0.66240E-02   -0.12532E-01  4278   0.102E-01    0.663E-01
RMM:   3    -0.413181179324E+03    0.29519E-02   -0.12727E-02  4755   0.489E-02    0.110E-01
RMM:   4    -0.413203704705E+03   -0.22525E-01   -0.23199E-02  5142   0.127E-01    0.627E-01
RMM:   5    -0.413180827180E+03    0.22878E-01   -0.11457E-02  4812   0.104E-01    0.444E-02
RMM:   6    -0.413180935864E+03   -0.10868E-03   -0.19097E-03  5834   0.414E-02    0.283E-02
RMM:   7    -0.413180933180E+03    0.26843E-05   -0.28568E-04  5651   0.165E-02    0.166E-02
RMM:   8    -0.413180926054E+03    0.71255E-05   -0.58575E-05  4970   0.811E-03    0.926E-03
RMM:   9    -0.413180920939E+03    0.51155E-05   -0.11330E-05  3894   0.397E-03    0.682E-03
RMM:  10    -0.413180918571E+03    0.23675E-05   -0.15307E-06  2536   0.209E-03    0.417E-03
RMM:  11    -0.413180916033E+03    0.25382E-05   -0.12566E-06  2509   0.183E-03    0.211E-03
RMM:  12    -0.413180912677E+03    0.33563E-05   -0.12328E-06  2501   0.172E-03    0.815E-04
RMM:  13    -0.413180911388E+03    0.12893E-05   -0.39568E-07  2211   0.111E-03    0.508E-04
RMM:  14    -0.413180911053E+03    0.33439E-06   -0.18906E-07  1688   0.780E-04
   28 T=    64. E= -.41286654E+03 F= -.41318091E+03 E0= -.41315926E+03  EK= 0.31437E+00 SP= 0.00E+00 SK= 0.00E+00
       N       E                     dE             d eps       ncg     rms          rms(c)
RMM:   1    -0.413179568226E+03    0.13432E-02   -0.10077E+01  4292   0.775E-01    0.927E-01
RMM:   2    -0.413185910153E+03   -0.63419E-02   -0.12392E-01  4274   0.103E-01    0.657E-01
RMM:   3    -0.413183013650E+03    0.28965E-02   -0.12557E-02  4568   0.497E-02    0.113E-01
RMM:   4    -0.413196051728E+03   -0.13038E-01   -0.13352E-02  5145   0.966E-02    0.480E-01
RMM:   5    -0.413182862482E+03    0.13189E-01   -0.67108E-03  4825   0.791E-02    0.418E-02
RMM:   6    -0.413182906996E+03   -0.44514E-04   -0.11720E-03  5849   0.317E-02    0.245E-02
RMM:   7    -0.413182901804E+03    0.51928E-05   -0.16089E-04  5508   0.133E-02    0.126E-02
RMM:   8    -0.413182891513E+03    0.10291E-04   -0.27309E-05  4653   0.572E-03    0.763E-03
RMM:   9    -0.413182888808E+03    0.27055E-05   -0.62570E-06  3223   0.307E-03    0.603E-03
RMM:  10    -0.413182883067E+03    0.57407E-05   -0.12692E-06  2508   0.203E-03    0.328E-03
RMM:  11    -0.413182877043E+03    0.60239E-05   -0.10603E-06  2491   0.171E-03    0.167E-03
RMM:  12    -0.413182870511E+03    0.65318E-05   -0.76726E-07  2433   0.143E-03    0.755E-04
RMM:  13    -0.413182868343E+03    0.21683E-05   -0.30267E-07  2089   0.965E-04    0.451E-04
RMM:  14    -0.413182867032E+03    0.13109E-05   -0.14041E-07  1452   0.713E-04    0.350E-04
RMM:  15    -0.413182862376E+03    0.46556E-05   -0.14629E-07  1714   0.747E-04    0.238E-04
RMM:  16    -0.413182859734E+03    0.26425E-05   -0.63680E-08  1101   0.611E-04    0.205E-04
RMM:  17    -0.413182856594E+03    0.31394E-05   -0.51231E-08   999   0.585E-04    0.164E-04
RMM:  18    -0.413182853683E+03    0.29117E-05   -0.42048E-08   917   0.571E-04    0.339E-05
RMM:  19    -0.413182852461E+03    0.12219E-05   -0.23802E-08   821   0.555E-04    0.312E-05
RMM:  20    -0.413182852120E+03    0.34030E-06   -0.10854E-08   684   0.533E-04
   29 T=    64. E= -.41286674E+03 F= -.41318285E+03 E0= -.41316125E+03  EK= 0.31611E+00 SP= 0.00E+00 SK= 0.00E+00
       N       E                     dE             d eps       ncg     rms          rms(c)
RMM:   1    -0.413188848955E+03   -0.59965E-02   -0.10116E+01  4288   0.835E-01    0.907E-01
RMM:   2    -0.413188194062E+03    0.65489E-03   -0.12586E-01  4264   0.112E-01    0.655E-01
RMM:   3    -0.413184815890E+03    0.33782E-02   -0.12462E-02  4508   0.516E-02    0.106E-01
RMM:   4    -0.413195918045E+03   -0.11102E-01   -0.11384E-02  5139   0.895E-02    0.443E-01
RMM:   5    -0.413184707108E+03    0.11211E-01   -0.56881E-03  4820   0.729E-02    0.405E-02
RMM:   6    -0.413184752346E+03   -0.45238E-04   -0.10191E-03  5831   0.297E-02    0.246E-02
RMM:   7    -0.413184755321E+03   -0.29747E-05   -0.22214E-04  5432   0.150E-02    0.163E-02
RMM:   8    -0.413184738865E+03    0.16456E-04   -0.29782E-05  4639   0.651E-03    0.739E-03
RMM:   9    -0.413184736803E+03    0.20615E-05   -0.56872E-06  3073   0.299E-03    0.545E-03
RMM:  10    -0.413184733294E+03    0.35087E-05   -0.14838E-06  2505   0.207E-03    0.296E-03
RMM:  11    -0.413184729941E+03    0.33531E-05   -0.92320E-07  2480   0.163E-03    0.152E-03
RMM:  12    -0.413184726476E+03    0.34649E-05   -0.60736E-07  2387   0.130E-03    0.777E-04
RMM:  13    -0.413184724940E+03    0.15362E-05   -0.26778E-07  1979   0.909E-04    0.341E-04
RMM:  14    -0.413184723393E+03    0.15469E-05   -0.14453E-07  1425   0.716E-04    0.213E-04
RMM:  15    -0.413184720806E+03    0.25875E-05   -0.99473E-08  1250   0.669E-04    0.932E-05
RMM:  16    -0.413184719003E+03    0.18032E-05   -0.59981E-08  1006   0.619E-04    0.754E-05
RMM:  17    -0.413184717435E+03    0.15675E-05   -0.40939E-08   907   0.595E-04    0.531E-05
RMM:  18    -0.413184714462E+03    0.29734E-05   -0.56915E-08  1106   0.616E-04    0.350E-05
RMM:  19    -0.413184713931E+03    0.53079E-06   -0.19737E-08   748   0.549E-04
   30 T=    65. E= -.41286674E+03 F= -.41318471E+03 E0= -.41316317E+03  EK= 0.31797E+00 SP= 0.00E+00 SK= 0.00E+00
       N       E                     dE             d eps       ncg     rms          rms(c)
RMM:   1    -0.413189126213E+03   -0.44118E-02   -0.10227E+01  4292   0.840E-01    0.909E-01
RMM:   2    -0.413190454397E+03   -0.13282E-02   -0.13298E-01  4280   0.120E-01    0.669E-01
RMM:   3    -0.413186354244E+03    0.41002E-02   -0.12797E-02  4390   0.570E-02    0.994E-02
RMM:   4    -0.413192560345E+03   -0.62061E-02   -0.65955E-03  5160   0.681E-02    0.333E-01
RMM:   5    -0.413186322879E+03    0.62375E-02   -0.32081E-03  4824   0.548E-02    0.384E-02
RMM:   6    -0.413186352639E+03   -0.29761E-04   -0.67514E-04  5771   0.246E-02    0.256E-02
RMM:   7    -0.413186346473E+03    0.61660E-05   -0.23028E-04  5290   0.152E-02    0.161E-02
RMM:   8    -0.413186334702E+03    0.11771E-04   -0.19189E-05  4291   0.568E-03    0.682E-03
RMM:   9    -0.413186333578E+03    0.11242E-05   -0.30288E-06  2717   0.234E-03    0.446E-03
RMM:  10    -0.413186331692E+03    0.18859E-05   -0.13304E-06  2495   0.185E-03    0.236E-03
RMM:  11    -0.413186330019E+03    0.16727E-05   -0.80427E-07  2438   0.147E-03    0.112E-03
RMM:  12    -0.413186328389E+03    0.16302E-05   -0.43089E-07  2207   0.109E-03    0.524E-04
RMM:  13    -0.413186327273E+03    0.11159E-05   -0.22126E-07  1716   0.819E-04    0.270E-04
RMM:  14    -0.413186325894E+03    0.13790E-05   -0.12359E-07  1230   0.689E-04    0.168E-04
RMM:  15    -0.413186323776E+03    0.21182E-05   -0.96077E-08  1107   0.658E-04    0.836E-05
RMM:  16    -0.413186322704E+03    0.10719E-05   -0.53761E-08   958   0.608E-04    0.619E-05
RMM:  17    -0.413186320841E+03    0.18633E-05   -0.52797E-08   986   0.602E-04    0.381E-05
RMM:  18    -0.413186319283E+03    0.15574E-05   -0.38453E-08   913   0.579E-04    0.268E-05
RMM:  19    -0.413186318733E+03    0.55040E-06   -0.15245E-08   701   0.542E-04
   31 T=    65. E= -.41286648E+03 F= -.41318632E+03 E0= -.41316482E+03  EK= 0.31984E+00 SP= 0.00E+00 SK= 0.00E+00
       N       E                     dE             d eps       ncg     rms          rms(c)
RMM:   1    -0.413185815988E+03    0.50330E-03   -0.10215E+01  4288   0.811E-01    0.933E-01
RMM:   2    -0.413192577211E+03   -0.67612E-02   -0.12777E-01  4279   0.125E-01    0.665E-01
RMM:   3    -0.413188923888E+03    0.36533E-02   -0.12860E-02  4284   0.553E-02    0.105E-01
RMM:   4    -0.413189613324E+03   -0.68944E-03   -0.13540E-03  5066   0.294E-02    0.110E-01
RMM:   5    -0.413188993677E+03    0.61965E-03   -0.38298E-04  4814   0.196E-02    0.398E-02
RMM:   6    -0.413189005772E+03   -0.12095E-04   -0.34299E-04  5361   0.184E-02    0.289E-02
RMM:   7    -0.413188966568E+03    0.39204E-04   -0.18778E-04  4859   0.141E-02    0.159E-02
RMM:   8    -0.413188961925E+03    0.46433E-05   -0.21379E-05  4376   0.511E-03    0.581E-03
RMM:   9    -0.413188960403E+03    0.15221E-05   -0.29603E-06  2507   0.212E-03    0.258E-03
RMM:  10    -0.413188953071E+03    0.73314E-05   -0.93843E-07  2413   0.154E-03    0.107E-03
RMM:  11    -0.413188948251E+03    0.48200E-05   -0.35885E-07  2041   0.960E-04    0.447E-04
RMM:  12    -0.413188944754E+03    0.34973E-05   -0.19041E-07  1639   0.776E-04    0.274E-04
RMM:  13    -0.413188941396E+03    0.33576E-05   -0.12193E-07  1316   0.688E-04    0.164E-04
RMM:  14    -0.413188937242E+03    0.41545E-05   -0.87312E-08  1125   0.644E-04    0.897E-05
RMM:  15    -0.413188933506E+03    0.37360E-05   -0.58054E-08   967   0.604E-04    0.776E-05
RMM:  16    -0.413188929705E+03    0.38006E-05   -0.53076E-08   983   0.596E-04    0.555E-05
RMM:  17    -0.413188928627E+03    0.10782E-05   -0.24032E-08   711   0.538E-04    0.410E-05
RMM:  18    -0.413188927848E+03    0.77865E-06   -0.15773E-08   654   0.529E-04
   32 T=    66. E= -.41286686E+03 F= -.41318893E+03 E0= -.41316748E+03  EK= 0.32207E+00 SP= 0.00E+00 SK= 0.00E+00
       N       E                     dE             d eps       ncg     rms          rms(c)
RMM:   1    -0.413187599702E+03    0.13289E-02   -0.10185E+01  4286   0.823E-01    0.920E-01
RMM:   2    -0.413194341534E+03   -0.67418E-02   -0.12870E-01  4273   0.124E-01    0.661E-01
RMM:   3    -0.413190899130E+03    0.34424E-02   -0.12624E-02  4252   0.558E-02    0.104E-01
RMM:   4    -0.413191051367E+03   -0.15224E-03   -0.84419E-04  4908   0.192E-02    0.505E-02
RMM:   5    -0.413191031421E+03    0.19946E-04   -0.15627E-04  4891   0.121E-02    0.482E-02
RMM:   6    -0.413190992178E+03    0.39243E-04   -0.30854E-04  5247   0.171E-02    0.282E-02
RMM:   7    -0.413190950742E+03    0.41436E-04   -0.17648E-04  4859   0.134E-02    0.140E-02
RMM:   8    -0.413190947510E+03    0.32311E-05   -0.19463E-05  4245   0.485E-03    0.520E-03
RMM:   9    -0.413190946256E+03    0.12542E-05   -0.30269E-06  2408   0.205E-03    0.186E-03
RMM:  10    -0.413190938978E+03    0.72782E-05   -0.83170E-07  2322   0.137E-03    0.790E-04
RMM:  11    -0.413190935265E+03    0.37127E-05   -0.20522E-07  1558   0.786E-04    0.423E-04
RMM:  12    -0.413190931760E+03    0.35055E-05   -0.13974E-07  1345   0.709E-04    0.222E-04
RMM:  13    -0.413190928224E+03    0.35359E-05   -0.11125E-07  1238   0.671E-04    0.150E-04
RMM:  14    -0.413190923535E+03    0.46889E-05   -0.89852E-08  1072   0.641E-04    0.125E-04
RMM:  15    -0.413190921297E+03    0.22385E-05   -0.34486E-08   660   0.563E-04    0.709E-05
RMM:  16    -0.413190917822E+03    0.34743E-05   -0.44719E-08   817   0.581E-04    0.412E-05
RMM:  17    -0.413190916916E+03    0.90605E-06   -0.15381E-08   555   0.529E-04
   33 T=    66. E= -.41286670E+03 F= -.41319092E+03 E0= -.41316952E+03  EK= 0.32422E+00 SP= 0.00E+00 SK= 0.00E+00
       N       E                     dE             d eps       ncg     rms          rms(c)
RMM:   1    -0.413193728769E+03   -0.28109E-02   -0.10335E+01  4301   0.879E-01    0.914E-01
RMM:   2    -0.413196820496E+03   -0.30917E-02   -0.13632E-01  4277   0.132E-01    0.674E-01
RMM:   3    -0.413193331290E+03    0.34892E-02   -0.13004E-02  4272   0.620E-02    0.970E-02
RMM:   4    -0.413194083108E+03   -0.75182E-03   -0.14058E-03  5108   0.297E-02    0.116E-01
RMM:   5    -0.413193379771E+03    0.70334E-03   -0.40083E-04  4788   0.201E-02    0.382E-02
RMM:   6    -0.413193395608E+03   -0.15837E-04   -0.33172E-04  5412   0.177E-02    0.271E-02
RMM:   7    -0.413193365252E+03    0.30356E-04   -0.18585E-04  4883   0.134E-02    0.172E-02
RMM:   8    -0.413193360290E+03    0.49627E-05   -0.21291E-05  4058   0.475E-03    0.547E-03
RMM:   9    -0.413193359792E+03    0.49719E-06   -0.24082E-06  2470   0.208E-03
   34 T=    67. E= -.41286669E+03 F= -.41319336E+03 E0= -.41317201E+03  EK= 0.32667E+00 SP= 0.00E+00 SK= 0.00E+00
       N       E                     dE             d eps       ncg     rms          rms(c)
RMM:   1    -0.413195259212E+03   -0.18989E-02   -0.10400E+01  4303   0.905E-01    0.938E-01
RMM:   2    -0.413199414335E+03   -0.41551E-02   -0.13512E-01  4281   0.131E-01    0.675E-01
RMM:   3    -0.413196149042E+03    0.32653E-02   -0.12963E-02  4447   0.612E-02    0.113E-01
RMM:   4    -0.413204402530E+03   -0.82535E-02   -0.86345E-03  5169   0.792E-02    0.384E-01
RMM:   5    -0.413196147613E+03    0.82549E-02   -0.42520E-03  4824   0.639E-02    0.420E-02
RMM:   6    -0.413196141045E+03    0.65683E-05   -0.83105E-04  5750   0.290E-02    0.309E-02
RMM:   7    -0.413196127611E+03    0.13434E-04   -0.27484E-04  5285   0.161E-02    0.162E-02
RMM:   8    -0.413196116183E+03    0.11429E-04   -0.25530E-05  4556   0.596E-03    0.688E-03
RMM:   9    -0.413196113328E+03    0.28544E-05   -0.41422E-06  2847   0.250E-03    0.402E-03
RMM:  10    -0.413196107111E+03    0.62170E-05   -0.11671E-06  2497   0.182E-03    0.210E-03
RMM:  11    -0.413196100900E+03    0.62110E-05   -0.71990E-07  2437   0.138E-03    0.107E-03
RMM:  12    -0.413196095346E+03    0.55540E-05   -0.41462E-07  2201   0.107E-03    0.468E-04
RMM:  13    -0.413196092329E+03    0.30171E-05   -0.20914E-07  1679   0.799E-04    0.255E-04
RMM:  14    -0.413196088491E+03    0.38379E-05   -0.12080E-07  1188   0.685E-04    0.173E-04
RMM:  15    -0.413196082445E+03    0.60464E-05   -0.10682E-07  1231   0.678E-04    0.933E-05
RMM:  16    -0.413196079877E+03    0.25676E-05   -0.62592E-08  1045   0.611E-04    0.767E-05
RMM:  17    -0.413196075821E+03    0.40560E-05   -0.61152E-08  1154   0.612E-04    0.431E-05
RMM:  18    -0.413196073321E+03    0.25003E-05   -0.38541E-08   957   0.567E-04    0.233E-05
RMM:  19    -0.413196072910E+03    0.41093E-06   -0.17686E-08   704   0.522E-04
   35 T=    67. E= -.41286683E+03 F= -.41319607E+03 E0= -.41317477E+03  EK= 0.32924E+00 SP= 0.00E+00 SK= 0.00E+00
       N       E                     dE             d eps       ncg     rms          rms(c)
RMM:   1    -0.413195584386E+03    0.48893E-03   -0.10382E+01  4302   0.889E-01    0.936E-01
RMM:   2    -0.413201263231E+03   -0.56788E-02   -0.13353E-01  4253   0.132E-01    0.669E-01
RMM:   3    -0.413198184600E+03    0.30786E-02   -0.12948E-02  4428   0.617E-02    0.116E-01
RMM:   4    -0.413204696065E+03   -0.65115E-02   -0.69344E-03  5169   0.702E-02    0.342E-01
RMM:   5    -0.413198190993E+03    0.65051E-02   -0.33745E-03  4821   0.568E-02    0.411E-02
RMM:   6    -0.413198199870E+03   -0.88768E-05   -0.73246E-04  5724   0.270E-02    0.296E-02
RMM:   7    -0.413198183753E+03    0.16117E-04   -0.26755E-04  5224   0.162E-02    0.167E-02
RMM:   8    -0.413198171575E+03    0.12178E-04   -0.23925E-05  4556   0.599E-03    0.715E-03
RMM:   9    -0.413198168877E+03    0.26977E-05   -0.36918E-06  2753   0.246E-03    0.421E-03
RMM:  10    -0.413198163099E+03    0.57782E-05   -0.12246E-06  2496   0.185E-03    0.220E-03
RMM:  11    -0.413198157568E+03    0.55305E-05   -0.72191E-07  2432   0.140E-03    0.110E-03
RMM:  12    -0.413198152476E+03    0.50924E-05   -0.40849E-07  2193   0.108E-03    0.500E-04
RMM:  13    -0.413198149346E+03    0.31305E-05   -0.21707E-07  1736   0.816E-04    0.254E-04
RMM:  14    -0.413198145884E+03    0.34619E-05   -0.11273E-07  1225   0.679E-04    0.163E-04
RMM:  15    -0.413198141026E+03    0.48576E-05   -0.83467E-08  1128   0.653E-04    0.812E-05
RMM:  16    -0.413198138464E+03    0.25619E-05   -0.53037E-08   991   0.609E-04    0.616E-05
RMM:  17    -0.413198135244E+03    0.32196E-05   -0.49236E-08  1074   0.607E-04    0.349E-05
RMM:  18    -0.413198132243E+03    0.30018E-05   -0.40365E-08  1031   0.585E-04    0.250E-05
RMM:  19    -0.413198131783E+03    0.45964E-06   -0.15511E-08   705   0.525E-04
   36 T=    68. E= -.41286654E+03 F= -.41319813E+03 E0= -.41317687E+03  EK= 0.33159E+00 SP= 0.00E+00 SK= 0.00E+00
       N       E                     dE             d eps       ncg     rms          rms(c)
RMM:   1    -0.413208952681E+03   -0.10820E-01   -0.10561E+01  4304   0.991E-01    0.920E-01
RMM:   2    -0.413205077510E+03    0.38752E-02   -0.15583E-01  4250   0.140E-01    0.680E-01
RMM:   3    -0.413201254532E+03    0.38230E-02   -0.12007E-02  4587   0.590E-02    0.142E-01
RMM:   4    -0.413222103438E+03   -0.20849E-01   -0.21246E-02  5152   0.123E-01    0.605E-01
RMM:   5    -0.413201089908E+03    0.21014E-01   -0.10640E-02  4809   0.101E-01    0.456E-02
RMM:   6    -0.413201115616E+03   -0.25708E-04   -0.18265E-03  5839   0.404E-02    0.292E-02
RMM:   7    -0.413201127611E+03   -0.11995E-04   -0.30494E-04  5559   0.168E-02    0.175E-02
RMM:   8    -0.413201113501E+03    0.14111E-04   -0.55653E-05  4980   0.814E-03    0.888E-03
RMM:   9    -0.413201112301E+03    0.11995E-05   -0.12063E-05  3992   0.417E-03    0.638E-03
RMM:  10    -0.413201108991E+03    0.33101E-05   -0.16553E-06  2563   0.220E-03    0.368E-03
RMM:  11    -0.413201106627E+03    0.23642E-05   -0.94161E-07  2493   0.160E-03    0.217E-03
RMM:  12    -0.413201101894E+03    0.47331E-05   -0.13225E-06  2510   0.180E-03    0.107E-03
RMM:  13    -0.413201099717E+03    0.21770E-05   -0.46218E-07  2254   0.118E-03    0.574E-04
RMM:  14    -0.413201099219E+03    0.49813E-06   -0.20304E-07  1741   0.804E-04
   37 T=    68. E= -.41286689E+03 F= -.41320110E+03 E0= -.41317988E+03  EK= 0.33421E+00 SP= 0.00E+00 SK= 0.00E+00
       N       E                     dE             d eps       ncg     rms          rms(c)
RMM:   1    -0.413218995020E+03   -0.17895E-01   -0.10741E+01  4307   0.108E+00    0.940E-01
RMM:   2    -0.413207704332E+03    0.11291E-01   -0.15912E-01  4251   0.137E-01    0.686E-01
RMM:   3    -0.413203819317E+03    0.38850E-02   -0.12243E-02  4737   0.565E-02    0.157E-01
RMM:   4    -0.413235895670E+03   -0.32076E-01   -0.32954E-02  5147   0.152E-01    0.746E-01
RMM:   5    -0.413203438756E+03    0.32457E-01   -0.16430E-02  4799   0.125E-01    0.504E-02
RMM:   6    -0.413203499655E+03   -0.60900E-04   -0.27482E-03  5840   0.491E-02    0.321E-02
RMM:   7    -0.413203509640E+03   -0.99853E-05   -0.35461E-04  5667   0.177E-02    0.169E-02
RMM:   8    -0.413203500437E+03    0.92038E-05   -0.58808E-05  4995   0.800E-03    0.990E-03
RMM:   9    -0.413203498636E+03    0.18009E-05   -0.19716E-05  4499   0.484E-03    0.749E-03
RMM:  10    -0.413203492707E+03    0.59287E-05   -0.25589E-06  2646   0.258E-03    0.432E-03
RMM:  11    -0.413203489410E+03    0.32970E-05   -0.12732E-06  2496   0.184E-03    0.268E-03
RMM:  12    -0.413203481171E+03    0.82389E-05   -0.18164E-06  2538   0.220E-03    0.127E-03
RMM:  13    -0.413203477559E+03    0.36125E-05   -0.65965E-07  2388   0.144E-03    0.838E-04
RMM:  14    -0.413203477359E+03    0.19984E-06   -0.25839E-07  2003   0.915E-04
   38 T=    69. E= -.41286677E+03 F= -.41320348E+03 E0= -.41318230E+03  EK= 0.33671E+00 SP= 0.00E+00 SK= 0.00E+00
       N       E                     dE             d eps       ncg     rms          rms(c)
RMM:   1    -0.413208031063E+03   -0.45535E-02   -0.10631E+01  4309   0.101E+00    0.954E-01
RMM:   2    -0.413209917224E+03   -0.18862E-02   -0.13890E-01  4258   0.125E-01    0.678E-01
RMM:   3    -0.413206697741E+03    0.32195E-02   -0.13534E-02  4921   0.579E-02    0.164E-01
RMM:   4    -0.413249119964E+03   -0.42422E-01   -0.45418E-02  5130   0.177E-01    0.856E-01
RMM:   5    -0.413205915691E+03    0.43204E-01   -0.21463E-02  4796   0.143E-01    0.554E-02
RMM:   6    -0.413206016709E+03   -0.10102E-03   -0.35610E-03  5827   0.561E-02    0.344E-02
RMM:   7    -0.413206026900E+03   -0.10191E-04   -0.42501E-04  5685   0.190E-02    0.177E-02
RMM:   8    -0.413206017427E+03    0.94725E-05   -0.51232E-05  4779   0.719E-03    0.892E-03
RMM:   9    -0.413206012216E+03    0.52113E-05   -0.13557E-05  3791   0.386E-03    0.627E-03
RMM:  10    -0.413206007328E+03    0.48885E-05   -0.27181E-06  2670   0.236E-03    0.416E-03
RMM:  11    -0.413206000875E+03    0.64530E-05   -0.13943E-06  2500   0.197E-03    0.233E-03
RMM:  12    -0.413205989445E+03    0.11430E-04   -0.15538E-06  2511   0.204E-03    0.107E-03
RMM:  13    -0.413205986792E+03    0.26530E-05   -0.47609E-07  2370   0.129E-03    0.705E-04
RMM:  14    -0.413205986520E+03    0.27259E-06   -0.21044E-07  1902   0.835E-04
   39 T=    69. E= -.41286667E+03 F= -.41320599E+03 E0= -.41318485E+03  EK= 0.33931E+00 SP= 0.00E+00 SK= 0.00E+00
       N       E                     dE             d eps       ncg     rms          rms(c)
RMM:   1    -0.413230558812E+03   -0.24572E-01   -0.10851E+01  4310   0.118E+00    0.931E-01
RMM:   2    -0.413213349086E+03    0.17210E-01   -0.16757E-01  4262   0.136E-01    0.686E-01
RMM:   3    -0.413210092503E+03    0.32566E-02   -0.12218E-02  4999   0.592E-02    0.207E-01
RMM:   4    -0.413263886696E+03   -0.53794E-01   -0.59375E-02  5131   0.203E-01    0.961E-01
RMM:   5    -0.413208777837E+03    0.55109E-01   -0.27072E-02  4786   0.162E-01    0.607E-02
RMM:   6    -0.413208947507E+03   -0.16967E-03   -0.45571E-03  5815   0.630E-02    0.361E-02
RMM:   7    -0.413208964592E+03   -0.17085E-04   -0.55467E-04  5801   0.209E-02    0.217E-02
RMM:   8    -0.413208965410E+03   -0.81811E-06   -0.12349E-04  5247   0.109E-02    0.139E-02
RMM:   9    -0.413208951892E+03    0.13518E-04   -0.28208E-05  4724   0.611E-03    0.713E-03
RMM:  10    -0.413208947370E+03    0.45226E-05   -0.52176E-06  2932   0.301E-03    0.448E-03
RMM:  11    -0.413208943774E+03    0.35961E-05   -0.15847E-06  2506   0.208E-03    0.269E-03
RMM:  12    -0.413208936555E+03    0.72188E-05   -0.15258E-06  2509   0.205E-03    0.956E-04
RMM:  13    -0.413208932486E+03    0.40689E-05   -0.67540E-07  2423   0.143E-03    0.694E-04
RMM:  14    -0.413208931966E+03    0.51946E-06   -0.29311E-07  2080   0.954E-04
   40 T=    70. E= -.41286688E+03 F= -.41320893E+03 E0= -.41318783E+03  EK= 0.34206E+00 SP= 0.00E+00 SK= 0.00E+00
       N       E                     dE             d eps       ncg     rms          rms(c)
RMM:   1    -0.413223573534E+03   -0.14641E-01   -0.10893E+01  4311   0.116E+00    0.945E-01
RMM:   2    -0.413215537074E+03    0.80365E-02   -0.16125E-01  4266   0.140E-01    0.695E-01
RMM:   3    -0.413212739013E+03    0.27981E-02   -0.13630E-02  5030   0.646E-02    0.220E-01
RMM:   4    -0.413266570459E+03   -0.53831E-01   -0.62267E-02  5125   0.208E-01    0.965E-01
RMM:   5    -0.413210903020E+03    0.55667E-01   -0.26817E-02  4777   0.162E-01    0.613E-02
RMM:   6    -0.413211061555E+03   -0.15854E-03   -0.44843E-03  5812   0.628E-02    0.358E-02
RMM:   7    -0.413211078115E+03   -0.16559E-04   -0.55115E-04  5795   0.210E-02    0.217E-02
RMM:   8    -0.413211079732E+03   -0.16173E-05   -0.12575E-04  5258   0.110E-02    0.141E-02
RMM:   9    -0.413211065727E+03    0.14005E-04   -0.27715E-05  4708   0.611E-03    0.688E-03
RMM:  10    -0.413211061563E+03    0.41646E-05   -0.54125E-06  2966   0.306E-03    0.431E-03
RMM:  11    -0.413211058131E+03    0.34312E-05   -0.15502E-06  2508   0.208E-03    0.255E-03
RMM:  12    -0.413211051485E+03    0.66466E-05   -0.13441E-06  2498   0.194E-03    0.897E-04
RMM:  13    -0.413211047666E+03    0.38185E-05   -0.61109E-07  2410   0.136E-03    0.590E-04
RMM:  14    -0.413211046841E+03    0.82510E-06   -0.27656E-07  2031   0.924E-04
   41 T=    70. E= -.41286656E+03 F= -.41321105E+03 E0= -.41318998E+03  EK= 0.34448E+00 SP= 0.00E+00 SK= 0.00E+00
       N       E                     dE             d eps       ncg     rms          rms(c)
RMM:   1    -0.413216716398E+03   -0.56687E-02   -0.10830E+01  4312   0.116E+00    0.967E-01
RMM:   2    -0.413217622126E+03   -0.90573E-03   -0.14739E-01  4291   0.133E-01    0.689E-01
RMM:   3    -0.413216638296E+03    0.98383E-03   -0.15493E-02  5067   0.730E-02    0.265E-01
RMM:   4    -0.413258131323E+03   -0.41493E-01   -0.55322E-02  5097   0.197E-01    0.867E-01
RMM:   5    -0.413213583444E+03    0.44548E-01   -0.20281E-02  4758   0.144E-01    0.606E-02
RMM:   6    -0.413213678144E+03   -0.94700E-04   -0.35107E-03  5781   0.561E-02    0.356E-02
RMM:   7    -0.413213687344E+03   -0.92004E-05   -0.47376E-04  5744   0.200E-02    0.218E-02
RMM:   8    -0.413213685363E+03    0.19815E-05   -0.12985E-04  5232   0.115E-02    0.134E-02
RMM:   9    -0.413213669326E+03    0.16037E-04   -0.22847E-05  4539   0.588E-03    0.582E-03
RMM:  10    -0.413213663238E+03    0.60877E-05   -0.49716E-06  2952   0.285E-03    0.373E-03
RMM:  11    -0.413213657642E+03    0.55962E-05   -0.12560E-06  2496   0.193E-03    0.209E-03
RMM:  12    -0.413213648158E+03    0.94839E-05   -0.92481E-07  2468   0.166E-03    0.766E-04
RMM:  13    -0.413213642728E+03    0.54298E-05   -0.43978E-07  2325   0.117E-03    0.422E-04
RMM:  14    -0.413213640974E+03    0.17541E-05   -0.22137E-07  1851   0.838E-04    0.288E-04
RMM:  15    -0.413213636821E+03    0.41534E-05   -0.12717E-07  1391   0.707E-04    0.134E-04
RMM:  16    -0.413213631584E+03    0.52366E-05   -0.91611E-08  1240   0.668E-04    0.136E-04
RMM:  17    -0.413213628429E+03    0.31553E-05   -0.60500E-08  1095   0.623E-04    0.921E-05
RMM:  18    -0.413213624653E+03    0.37762E-05   -0.55604E-08  1202   0.621E-04    0.646E-05
RMM:  19    -0.413213621758E+03    0.28947E-05   -0.40073E-08  1103   0.591E-04    0.374E-05
RMM:  20    -0.413213621107E+03    0.65065E-06   -0.19116E-08   792   0.538E-04
   42 T=    71. E= -.41286673E+03 F= -.41321362E+03 E0= -.41319259E+03  EK= 0.34689E+00 SP= 0.00E+00 SK= 0.00E+00
       N       E                     dE             d eps       ncg     rms          rms(c)
RMM:   1    -0.413245087926E+03   -0.31466E-01   -0.11061E+01  4312   0.136E+00    0.944E-01
RMM:   2    -0.413219792372E+03    0.25296E-01   -0.17162E-01  4298   0.147E-01    0.690E-01
RMM:   3    -0.413219905595E+03   -0.11322E-03   -0.15044E-02  5080   0.792E-02    0.318E-01
RMM:   4    -0.413258691570E+03   -0.38786E-01   -0.57019E-02  5096   0.201E-01    0.855E-01
RMM:   5    -0.413215633608E+03    0.43058E-01   -0.19137E-02  4737   0.143E-01    0.623E-02
RMM:   6    -0.413215707727E+03   -0.74119E-04   -0.33684E-03  5754   0.550E-02    0.355E-02
RMM:   7    -0.413215714161E+03   -0.64337E-05   -0.48709E-04  5775   0.199E-02    0.234E-02
RMM:   8    -0.413215710828E+03    0.33325E-05   -0.12866E-04  5200   0.117E-02    0.125E-02
RMM:   9    -0.413215698153E+03    0.12675E-04   -0.21740E-05  4511   0.582E-03    0.496E-03
RMM:  10    -0.413215694650E+03    0.35027E-05   -0.46590E-06  2882   0.271E-03    0.320E-03
RMM:  11    -0.413215690640E+03    0.40100E-05   -0.13033E-06  2497   0.189E-03    0.174E-03
RMM:  12    -0.413215685084E+03    0.55565E-05   -0.78277E-07  2461   0.150E-03    0.643E-04
RMM:  13    -0.413215681900E+03    0.31835E-05   -0.37845E-07  2140   0.106E-03    0.308E-04
RMM:  14    -0.413215679932E+03    0.19679E-05   -0.20261E-07  1665   0.807E-04    0.203E-04
RMM:  15    -0.413215676061E+03    0.38710E-05   -0.13674E-07  1341   0.716E-04    0.112E-04
RMM:  16    -0.413215673814E+03    0.22477E-05   -0.83240E-08  1129   0.656E-04    0.813E-05
RMM:  17    -0.413215671377E+03    0.24367E-05   -0.66487E-08  1130   0.639E-04    0.514E-05
RMM:  18    -0.413215668673E+03    0.27042E-05   -0.54240E-08  1126   0.625E-04    0.348E-05
RMM:  19    -0.413215666948E+03    0.17251E-05   -0.34646E-08   961   0.583E-04    0.254E-05
RMM:  20    -0.413215666395E+03    0.55280E-06   -0.18763E-08   773   0.551E-04
   43 T=    71. E= -.41286678E+03 F= -.41321567E+03 E0= -.41319466E+03  EK= 0.34889E+00 SP= 0.00E+00 SK= 0.00E+00
       N       E                     dE             d eps       ncg     rms          rms(c)
RMM:   1    -0.413228818108E+03   -0.13151E-01   -0.11003E+01  4312   0.133E+00    0.949E-01
RMM:   2    -0.413221275740E+03    0.75424E-02   -0.16091E-01  4292   0.160E-01    0.702E-01
RMM:   3    -0.413222313050E+03   -0.10373E-02   -0.17517E-02  5069   0.900E-02    0.339E-01
RMM:   4    -0.413256634855E+03   -0.34322E-01   -0.55888E-02  5079   0.201E-01    0.820E-01
RMM:   5    -0.413216876921E+03    0.39758E-01   -0.16870E-02  4714   0.136E-01    0.607E-02
RMM:   6    -0.413216927331E+03   -0.50410E-04   -0.30581E-03  5740   0.525E-02    0.346E-02
RMM:   7    -0.413216928451E+03   -0.11199E-05   -0.44169E-04  5756   0.194E-02    0.227E-02
RMM:   8    -0.413216925787E+03    0.26648E-05   -0.11808E-04  5183   0.113E-02    0.118E-02
RMM:   9    -0.413216915082E+03    0.10705E-04   -0.19800E-05  4430   0.563E-03    0.470E-03
RMM:  10    -0.413216912521E+03    0.25604E-05   -0.40635E-06  2813   0.259E-03    0.296E-03
RMM:  11    -0.413216909471E+03    0.30508E-05   -0.12617E-06  2494   0.185E-03    0.159E-03
RMM:  12    -0.413216905251E+03    0.42199E-05   -0.76664E-07  2442   0.146E-03    0.601E-04
RMM:  13    -0.413216902756E+03    0.24949E-05   -0.38118E-07  2086   0.103E-03    0.289E-04
RMM:  14    -0.413216901048E+03    0.17079E-05   -0.21014E-07  1606   0.799E-04    0.187E-04
RMM:  15    -0.413216897610E+03    0.34384E-05   -0.15242E-07  1327   0.726E-04    0.111E-04
RMM:  16    -0.413216895955E+03    0.16546E-05   -0.91457E-08  1127   0.660E-04    0.768E-05
RMM:  17    -0.413216893824E+03    0.21312E-05   -0.73957E-08  1146   0.647E-04    0.484E-05
RMM:  18    -0.413216891659E+03    0.21652E-05   -0.56273E-08  1075   0.618E-04    0.334E-05
RMM:  19    -0.413216890120E+03    0.15388E-05   -0.37401E-08   947   0.584E-04    0.188E-05
RMM:  20    -0.413216889516E+03    0.60384E-06   -0.22551E-08   794   0.557E-04
   44 T=    71. E= -.41286655E+03 F= -.41321689E+03 E0= -.41319591E+03  EK= 0.35034E+00 SP= 0.00E+00 SK= 0.00E+00
       N       E                     dE             d eps       ncg     rms          rms(c)
RMM:   1    -0.413250930506E+03   -0.34040E-01   -0.11208E+01  4311   0.150E+00    0.974E-01
RMM:   2    -0.413222139813E+03    0.28791E-01   -0.17142E-01  4322   0.171E-01    0.699E-01
RMM:   3    -0.413227130827E+03   -0.49910E-02   -0.19877E-02  5115   0.104E-01    0.430E-01
RMM:   4    -0.413244937019E+03   -0.17806E-01   -0.46837E-02  5053   0.186E-01    0.680E-01
RMM:   5    -0.413218383830E+03    0.26553E-01   -0.10349E-02  4665   0.114E-01    0.590E-02
RMM:   6    -0.413218370342E+03    0.13488E-04   -0.20645E-03  5625   0.438E-02    0.342E-02
RMM:   7    -0.413218364953E+03    0.53886E-05   -0.34835E-04  5635   0.179E-02    0.225E-02
RMM:   8    -0.413218356039E+03    0.89138E-05   -0.11711E-04  5086   0.114E-02    0.107E-02
RMM:   9    -0.413218342600E+03    0.13439E-04   -0.16530E-05  4335   0.553E-03    0.435E-03
RMM:  10    -0.413218338571E+03    0.40297E-05   -0.31885E-06  2744   0.236E-03    0.256E-03
RMM:  11    -0.413218332521E+03    0.60500E-05   -0.11634E-06  2483   0.179E-03    0.139E-03
RMM:  12    -0.413218326172E+03    0.63486E-05   -0.61130E-07  2424   0.136E-03    0.618E-04
RMM:  13    -0.413218322528E+03    0.36441E-05   -0.29038E-07  1902   0.932E-04    0.292E-04
RMM:  14    -0.413218319228E+03    0.33002E-05   -0.16496E-07  1468   0.743E-04    0.167E-04
RMM:  15    -0.413218314136E+03    0.50920E-05   -0.12427E-07  1297   0.698E-04    0.120E-04
RMM:  16    -0.413218311493E+03    0.26423E-05   -0.76928E-08  1109   0.640E-04    0.890E-05
RMM:  17    -0.413218306943E+03    0.45503E-05   -0.77318E-08  1307   0.653E-04    0.624E-05
RMM:  18    -0.413218304850E+03    0.20934E-05   -0.43982E-08  1028   0.578E-04    0.424E-05
RMM:  19    -0.413218303392E+03    0.14576E-05   -0.27674E-08   842   0.546E-04    0.215E-05
RMM:  20    -0.413218303009E+03    0.38277E-06   -0.16981E-08   726   0.528E-04
   45 T=    72. E= -.41286691E+03 F= -.41321830E+03 E0= -.41319735E+03  EK= 0.35140E+00 SP= 0.00E+00 SK= 0.00E+00
       N       E                     dE             d eps       ncg     rms          rms(c)
RMM:   1    -0.413265115524E+03   -0.46812E-01   -0.11252E+01  4310   0.164E+00    0.955E-01
RMM:   2    -0.413222140849E+03    0.42975E-01   -0.18959E-01  4346   0.188E-01    0.695E-01
RMM:   3    -0.413229128785E+03   -0.69879E-02   -0.20158E-02  5114   0.111E-01    0.481E-01
RMM:   4    -0.413241389471E+03   -0.12261E-01   -0.45234E-02  5040   0.184E-01    0.640E-01
RMM:   5    -0.413218425975E+03    0.22963E-01   -0.89917E-03  4623   0.109E-01    0.594E-02
RMM:   6    -0.413218387504E+03    0.38471E-04   -0.17748E-03  5522   0.410E-02    0.336E-02
RMM:   7    -0.413218378027E+03    0.94769E-05   -0.31006E-04  5645   0.170E-02    0.229E-02
RMM:   8    -0.413218366364E+03    0.11663E-04   -0.12431E-04  5073   0.116E-02    0.105E-02
RMM:   9    -0.413218352733E+03    0.13630E-04   -0.17808E-05  4385   0.575E-03    0.423E-03
RMM:  10    -0.413218349478E+03    0.32552E-05   -0.30176E-06  2726   0.230E-03    0.244E-03
RMM:  11    -0.413218343645E+03    0.58336E-05   -0.13385E-06  2505   0.185E-03    0.137E-03
RMM:  12    -0.413218338898E+03    0.47468E-05   -0.59046E-07  2441   0.135E-03    0.694E-04
RMM:  13    -0.413218335382E+03    0.35154E-05   -0.28581E-07  1849   0.922E-04    0.324E-04
RMM:  14    -0.413218331980E+03    0.34025E-05   -0.16428E-07  1415   0.737E-04    0.175E-04
RMM:  15    -0.413218328196E+03    0.37835E-05   -0.11505E-07  1240   0.681E-04    0.116E-04
RMM:  16    -0.413218325494E+03    0.27022E-05   -0.79033E-08  1126   0.637E-04    0.982E-05
RMM:  17    -0.413218321600E+03    0.38943E-05   -0.76169E-08  1289   0.644E-04    0.625E-05
RMM:  18    -0.413218319504E+03    0.20960E-05   -0.44546E-08  1002   0.573E-04    0.482E-05
RMM:  19    -0.413218318499E+03    0.10051E-05   -0.25525E-08   801   0.536E-04    0.291E-05
RMM:  20    -0.413218317871E+03    0.62772E-06   -0.18517E-08   748   0.526E-04
   46 T=    72. E= -.41286686E+03 F= -.41321832E+03 E0= -.41319738E+03  EK= 0.35146E+00 SP= 0.00E+00 SK= 0.00E+00
       N       E                     dE             d eps       ncg     rms          rms(c)
RMM:   1    -0.413244111084E+03   -0.25793E-01   -0.11078E+01  4310   0.162E+00    0.943E-01
RMM:   2    -0.413221873687E+03    0.22237E-01   -0.18755E-01  4344   0.197E-01    0.707E-01
RMM:   3    -0.413230028917E+03   -0.81552E-02   -0.21689E-02  5109   0.120E-01    0.506E-01
RMM:   4    -0.413241008173E+03   -0.10979E-01   -0.47579E-02  5034   0.190E-01    0.640E-01
RMM:   5    -0.413217718597E+03    0.23290E-01   -0.88047E-03  4612   0.110E-01    0.599E-02
RMM:   6    -0.413217670852E+03    0.47745E-04   -0.17422E-03  5485   0.406E-02    0.328E-02
RMM:   7    -0.413217663784E+03    0.70677E-05   -0.29814E-04  5666   0.168E-02    0.228E-02
RMM:   8    -0.413217652345E+03    0.11439E-04   -0.12737E-04  5097   0.117E-02    0.105E-02
RMM:   9    -0.413217640078E+03    0.12267E-04   -0.18539E-05  4407   0.587E-03    0.417E-03
RMM:  10    -0.413217637840E+03    0.22381E-05   -0.31667E-06  2729   0.232E-03    0.241E-03
RMM:  11    -0.413217633851E+03    0.39891E-05   -0.14644E-06  2523   0.189E-03    0.137E-03
RMM:  12    -0.413217630716E+03    0.31354E-05   -0.61690E-07  2444   0.137E-03    0.720E-04
RMM:  13    -0.413217628037E+03    0.26783E-05   -0.31299E-07  1863   0.943E-04    0.336E-04
RMM:  14    -0.413217625523E+03    0.25139E-05   -0.17871E-07  1399   0.750E-04    0.177E-04
RMM:  15    -0.413217622872E+03    0.26513E-05   -0.13275E-07  1280   0.695E-04    0.113E-04
RMM:  16    -0.413217620904E+03    0.19684E-05   -0.88443E-08  1156   0.645E-04    0.962E-05
RMM:  17    -0.413217618225E+03    0.26789E-05   -0.81823E-08  1265   0.644E-04    0.536E-05
RMM:  18    -0.413217616418E+03    0.18067E-05   -0.50935E-08  1025   0.583E-04    0.452E-05
RMM:  19    -0.413217615806E+03    0.61227E-06   -0.26177E-08   770   0.533E-04
   47 T=    71. E= -.41286691E+03 F= -.41321762E+03 E0= -.41319670E+03  EK= 0.35070E+00 SP= 0.00E+00 SK= 0.00E+00
       N       E                     dE             d eps       ncg     rms          rms(c)
RMM:   1    -0.413244617856E+03   -0.27001E-01   -0.11031E+01  4305   0.174E+00    0.967E-01
RMM:   2    -0.413220002426E+03    0.24615E-01   -0.17824E-01  4387   0.204E-01    0.701E-01
RMM:   3    -0.413235252666E+03   -0.15250E-01   -0.28306E-02  5133   0.142E-01    0.611E-01
RMM:   4    -0.413230115831E+03    0.51368E-02   -0.42297E-02  4989   0.183E-01    0.504E-01
RMM:   5    -0.413216162709E+03    0.13953E-01   -0.50437E-03  4543   0.924E-02    0.577E-02
RMM:   6    -0.413216064712E+03    0.97997E-04   -0.83502E-04  5018   0.313E-02    0.307E-02
RMM:   7    -0.413216049869E+03    0.14843E-04   -0.17193E-04  5709   0.128E-02    0.137E-02
RMM:   8    -0.413216050782E+03   -0.91386E-06   -0.92911E-05  5273   0.988E-03    0.114E-02
RMM:   9    -0.413216035904E+03    0.14878E-04   -0.22736E-05  4583   0.581E-03    0.456E-03
RMM:  10    -0.413216033347E+03    0.25569E-05   -0.29654E-06  2695   0.247E-03    0.240E-03
RMM:  11    -0.413216027352E+03    0.59955E-05   -0.17062E-06  2493   0.208E-03    0.140E-03
RMM:  12    -0.413216023043E+03    0.43089E-05   -0.68753E-07  2381   0.148E-03    0.848E-04
RMM:  13    -0.413216018985E+03    0.40580E-05   -0.30926E-07  1912   0.100E-03    0.462E-04
RMM:  14    -0.413216014615E+03    0.43704E-05   -0.16776E-07  1602   0.765E-04    0.278E-04
RMM:  15    -0.413216010567E+03    0.40473E-05   -0.10063E-07  1118   0.637E-04    0.154E-04
RMM:  16    -0.413216008313E+03    0.22541E-05   -0.66578E-08  1027   0.588E-04    0.122E-04
RMM:  17    -0.413216005076E+03    0.32376E-05   -0.60840E-08  1066   0.596E-04    0.812E-05
RMM:  18    -0.413216002880E+03    0.21955E-05   -0.39809E-08   940   0.566E-04    0.601E-05
RMM:  19    -0.413216002030E+03    0.84964E-06   -0.19492E-08   685   0.516E-04
   48 T=    71. E= -.41286717E+03 F= -.41321600E+03 E0= -.41319510E+03  EK= 0.34883E+00 SP= 0.00E+00 SK= 0.00E+00
       N       E                     dE             d eps       ncg     rms          rms(c)
RMM:   1    -0.413246170770E+03   -0.30168E-01   -0.10898E+01  4304   0.186E+00    0.957E-01
RMM:   2    -0.413215959062E+03    0.30212E-01   -0.18032E-01  4444   0.216E-01    0.691E-01
RMM:   3    -0.413237505221E+03   -0.21546E-01   -0.33225E-02  5147   0.158E-01    0.696E-01
RMM:   4    -0.413221920657E+03    0.15585E-01   -0.40817E-02  4967   0.182E-01    0.430E-01
RMM:   5    -0.413212314382E+03    0.96063E-02   -0.43539E-03  4566   0.887E-02    0.619E-02
RMM:   6    -0.413212157731E+03    0.15665E-03   -0.51069E-04  4744   0.289E-02    0.326E-02
RMM:   7    -0.413212162012E+03   -0.42808E-05   -0.29400E-04  5791   0.177E-02    0.226E-02
RMM:   8    -0.413212129960E+03    0.32052E-04   -0.10585E-04  5067   0.117E-02    0.924E-03
RMM:   9    -0.413212122595E+03    0.73650E-05   -0.16413E-05  4585   0.547E-03    0.476E-03
RMM:  10    -0.413212118332E+03    0.42629E-05   -0.21512E-06  2604   0.235E-03    0.249E-03
RMM:  11    -0.413212112153E+03    0.61793E-05   -0.14069E-06  2493   0.192E-03    0.175E-03
RMM:  12    -0.413212108453E+03    0.37001E-05   -0.44407E-07  2393   0.124E-03    0.908E-04
RMM:  13    -0.413212103555E+03    0.48979E-05   -0.28101E-07  1934   0.905E-04    0.456E-04
RMM:  14    -0.413212098008E+03    0.55466E-05   -0.23975E-07  1885   0.827E-04    0.431E-04
RMM:  15    -0.413212093818E+03    0.41902E-05   -0.11684E-07  1133   0.640E-04    0.167E-04
RMM:  16    -0.413212091519E+03    0.22991E-05   -0.72967E-08  1070   0.604E-04    0.101E-04
RMM:  17    -0.413212088580E+03    0.29389E-05   -0.64557E-08  1083   0.601E-04    0.778E-05
RMM:  18    -0.413212087171E+03    0.14088E-05   -0.41265E-08   952   0.561E-04    0.744E-05
RMM:  19    -0.413212085584E+03    0.15872E-05   -0.34531E-08   967   0.553E-04    0.506E-05
RMM:  20    -0.413212084670E+03    0.91451E-06   -0.24520E-08   804   0.518E-04
   49 T=    70. E= -.41286690E+03 F= -.41321208E+03 E0= -.41319119E+03  EK= 0.34519E+00 SP= 0.00E+00 SK= 0.00E+00
       N       E                     dE             d eps       ncg     rms          rms(c)
RMM:   1    -0.413238786008E+03   -0.26700E-01   -0.10737E+01  4304   0.195E+00    0.931E-01
RMM:   2    -0.413211380576E+03    0.27405E-01   -0.17848E-01  4473   0.224E-01    0.694E-01
RMM:   3    -0.413234246686E+03   -0.22866E-01   -0.34512E-02  5155   0.163E-01    0.718E-01
RMM:   4    -0.413216852334E+03    0.17394E-01   -0.42297E-02  4962   0.187E-01    0.426E-01
[...]
RMM:  17    -0.413591509966E+03   -0.35643E-05   -0.57049E-07  1786   0.936E-04    0.139E-04
RMM:  18    -0.413591513803E+03   -0.38376E-05   -0.60896E-07  1884   0.938E-04    0.943E-05
RMM:  19    -0.413591515265E+03   -0.14614E-05   -0.23164E-07  1311   0.696E-04    0.624E-05
RMM:  20    -0.413591516929E+03   -0.16645E-05   -0.16079E-07  1225   0.645E-04    0.355E-05
RMM:  21    -0.413591517749E+03   -0.81977E-06   -0.91472E-08  1070   0.593E-04
  137 T=   146. E= -.41287443E+03 F= -.41359152E+03 E0= -.41356999E+03  EK= 0.71708E+00 SP= 0.00E+00 SK= 0.00E+00
       N       E                     dE             d eps       ncg     rms          rms(c)
RMM:   1    -0.413699023249E+03   -0.10751E+00   -0.16808E+01  4264   0.776E+00    0.132E+00
RMM:   2    -0.413645681081E+03    0.53342E-01   -0.52933E-01  5343   0.871E-01    0.125E+00
RMM:   3    -0.413675768278E+03   -0.30087E-01   -0.10634E-01  5633   0.348E-01    0.129E+00
RMM:   4    -0.413637200256E+03    0.38568E-01   -0.52174E-02  5044   0.278E-01    0.604E-01
RMM:   5    -0.413636977579E+03    0.22268E-03   -0.36205E-02  4717   0.253E-01    0.239E-01
RMM:   6    -0.413634207046E+03    0.27705E-02   -0.10555E-02  4905   0.130E-01    0.111E-01
RMM:   7    -0.413633588028E+03    0.61902E-03   -0.14481E-03  4768   0.561E-02    0.551E-02
RMM:   8    -0.413633533773E+03    0.54255E-04   -0.44080E-04  4798   0.277E-02    0.270E-02
RMM:   9    -0.413633532447E+03    0.13256E-05   -0.19157E-04  5484   0.164E-02    0.133E-02
RMM:  10    -0.413633532790E+03   -0.34242E-06   -0.41397E-05  5382   0.712E-03    0.883E-03
RMM:  11    -0.413633533541E+03   -0.75114E-06   -0.11129E-05  3958   0.453E-03    0.428E-03
RMM:  12    -0.413633537106E+03   -0.35649E-05   -0.30833E-06  2792   0.282E-03    0.209E-03
RMM:  13    -0.413633541822E+03   -0.47161E-05   -0.13828E-06  2586   0.185E-03    0.104E-03
RMM:  14    -0.413633545906E+03   -0.40841E-05   -0.90139E-07  2497   0.138E-03    0.572E-04
RMM:  15    -0.413633549773E+03   -0.38670E-05   -0.73448E-07  2237   0.115E-03    0.385E-04
RMM:  16    -0.413633555160E+03   -0.53865E-05   -0.11045E-06  2481   0.127E-03    0.251E-04
RMM:  17    -0.413633559328E+03   -0.41685E-05   -0.78048E-07  1834   0.102E-03    0.147E-04
RMM:  18    -0.413633562996E+03   -0.36680E-05   -0.65583E-07  1984   0.976E-04    0.122E-04
RMM:  19    -0.413633564733E+03   -0.17369E-05   -0.28888E-07  1420   0.728E-04    0.770E-05
RMM:  20    -0.413633566415E+03   -0.16815E-05   -0.18650E-07  1251   0.650E-04    0.423E-05
RMM:  21    -0.413633567412E+03   -0.99713E-06   -0.10419E-07  1072   0.592E-04
  138 T=   154. E= -.41287611E+03 F= -.41363357E+03 E0= -.41361250E+03  EK= 0.75746E+00 SP= 0.00E+00 SK= 0.00E+00
       N       E                     dE             d eps       ncg     rms          rms(c)
RMM:   1    -0.413681065229E+03   -0.47499E-01   -0.17049E+01  4264   0.771E+00    0.121E+00
RMM:   2    -0.413618533771E+03    0.62531E-01   -0.55609E-01  5325   0.851E-01    0.110E+00
RMM:   3    -0.413653997439E+03   -0.35464E-01   -0.10253E-01  5666   0.343E-01    0.120E+00
RMM:   4    -0.413615849545E+03    0.38148E-01   -0.45631E-02  5025   0.258E-01    0.539E-01
RMM:   5    -0.413615769067E+03    0.80479E-04   -0.31152E-02  4813   0.233E-01    0.211E-01
RMM:   6    -0.413613461928E+03    0.23071E-02   -0.98939E-03  4947   0.124E-01    0.101E-01
RMM:   7    -0.413612907289E+03    0.55464E-03   -0.14782E-03  4912   0.552E-02    0.485E-02
RMM:   8    -0.413612885015E+03    0.22274E-04   -0.36945E-04  5089   0.251E-02    0.260E-02
RMM:   9    -0.413612880558E+03    0.44571E-05   -0.12755E-04  5056   0.142E-02    0.115E-02
RMM:  10    -0.413612881156E+03   -0.59867E-06   -0.35568E-05  5233   0.670E-03    0.771E-03
RMM:  11    -0.413612881311E+03   -0.15480E-06   -0.81247E-06  3453   0.381E-03
  139 T=   152. E= -.41286656E+03 F= -.41361288E+03 E0= -.41359215E+03  EK= 0.74632E+00 SP= 0.00E+00 SK= 0.00E+00
       N       E                     dE             d eps       ncg     rms          rms(c)
RMM:   1    -0.413725746495E+03   -0.11287E+00   -0.17298E+01  4264   0.766E+00    0.104E+00
RMM:   2    -0.413649989390E+03    0.75757E-01   -0.56557E-01  5349   0.792E-01    0.806E-01
RMM:   3    -0.413670050766E+03   -0.20061E-01   -0.71594E-02  5444   0.314E-01    0.656E-01
RMM:   4    -0.413677658950E+03   -0.76082E-02   -0.57370E-02  5237   0.242E-01    0.672E-01
RMM:   5    -0.413654905012E+03    0.22754E-01   -0.31020E-02  5120   0.216E-01    0.214E-01
RMM:   6    -0.413653183402E+03    0.17216E-02   -0.54077E-03  4933   0.991E-02    0.861E-02
RMM:   7    -0.413653084158E+03    0.99244E-04   -0.18832E-03  5526   0.500E-02    0.486E-02
RMM:   8    -0.413653088790E+03   -0.46321E-05   -0.60769E-04  5837   0.277E-02    0.310E-02
RMM:   9    -0.413653067238E+03    0.21552E-04   -0.11640E-04  5204   0.139E-02    0.151E-02
RMM:  10    -0.413653063896E+03    0.33419E-05   -0.59713E-05  5674   0.877E-03    0.728E-03
RMM:  11    -0.413653064217E+03   -0.32049E-06   -0.80002E-06  3391   0.372E-03
  140 T=   159. E= -.41287400E+03 F= -.41365306E+03 E0= -.41363248E+03  EK= 0.77906E+00 SP= 0.00E+00 SK= 0.00E+00
       N       E                     dE             d eps       ncg     rms          rms(c)
RMM:   1    -0.413753262019E+03   -0.10020E+00   -0.19280E+01  4272   0.816E+00    0.144E+00
RMM:   2    -0.413681209584E+03    0.72052E-01   -0.66597E-01  5436   0.856E-01    0.110E+00
RMM:   3    -0.413787835079E+03   -0.10663E+00   -0.21248E-01  5511   0.468E-01    0.166E+00
RMM:   4    -0.413673697785E+03    0.11414E+00   -0.94837E-02  4929   0.372E-01    0.492E-01
RMM:   5    -0.413671761777E+03    0.19360E-02   -0.50165E-02  5079   0.278E-01    0.232E-01
RMM:   6    -0.413669980808E+03    0.17810E-02   -0.12807E-02  5342   0.137E-01    0.147E-01
RMM:   7    -0.413669266510E+03    0.71430E-03   -0.21938E-03  4841   0.616E-02    0.707E-02
RMM:   8    -0.413669269736E+03   -0.32261E-05   -0.10852E-03  5629   0.384E-02    0.379E-02
RMM:   9    -0.413669258518E+03    0.11218E-04   -0.28312E-04  5503   0.207E-02    0.232E-02
RMM:  10    -0.413669248536E+03    0.99813E-05   -0.10423E-04  5541   0.122E-02    0.105E-02
RMM:  11    -0.413669252093E+03   -0.35564E-05   -0.30598E-05  5100   0.599E-03    0.808E-03
RMM:  12    -0.413669253348E+03   -0.12552E-05   -0.10352E-05  3979   0.431E-03    0.312E-03
RMM:  13    -0.413669253982E+03   -0.63433E-06   -0.19188E-06  2638   0.218E-03
  141 T=   158. E= -.41289240E+03 F= -.41366925E+03 E0= -.41364853E+03  EK= 0.77685E+00 SP= 0.00E+00 SK= 0.00E+00
       N       E                     dE             d eps       ncg     rms          rms(c)
RMM:   1    -0.413541072005E+03    0.12818E+00   -0.16865E+01  4273   0.779E+00    0.159E+00
RMM:   2    -0.413509766278E+03    0.31306E-01   -0.57156E-01  5459   0.819E-01    0.124E+00
RMM:   3    -0.413606306048E+03   -0.96540E-01   -0.22458E-01  5505   0.477E-01    0.172E+00
RMM:   4    -0.413494619949E+03    0.11169E+00   -0.11502E-01  5027   0.401E-01    0.627E-01
RMM:   5    -0.413490729486E+03    0.38905E-02   -0.66634E-02  5053   0.316E-01    0.258E-01
RMM:   6    -0.413488058824E+03    0.26707E-02   -0.20537E-02  5238   0.174E-01    0.173E-01
RMM:   7    -0.413486824010E+03    0.12348E-02   -0.26673E-03  4536   0.744E-02    0.729E-02
RMM:   8    -0.413486848576E+03   -0.24566E-04   -0.13956E-03  5641   0.429E-02    0.441E-02
RMM:   9    -0.413486837052E+03    0.11523E-04   -0.33364E-04  5472   0.223E-02    0.293E-02
RMM:  10    -0.413486820014E+03    0.17038E-04   -0.14415E-04  5450   0.145E-02    0.112E-02
RMM:  11    -0.413486826077E+03   -0.60627E-05   -0.52537E-05  5689   0.765E-03    0.980E-03
RMM:  12    -0.413486826168E+03   -0.90986E-07   -0.13226E-05  4184   0.477E-03    0.355E-03
RMM:  13    -0.413486827137E+03   -0.96910E-06   -0.40501E-06  2922   0.273E-03
  142 T=   126. E= -.41287025E+03 F= -.41348683E+03 E0= -.41346574E+03  EK= 0.61657E+00 SP= 0.00E+00 SK= 0.00E+00
       N       E                     dE             d eps       ncg     rms          rms(c)
RMM:   1    -0.413456359567E+03    0.30467E-01   -0.11316E+01  4278   0.655E+00    0.946E-01
RMM:   2    -0.413456864305E+03   -0.50474E-03   -0.35749E-01  5414   0.676E-01    0.928E-01
RMM:   3    -0.413453510062E+03    0.33542E-02   -0.85765E-02  5560   0.312E-01    0.889E-01
RMM:   4    -0.413431649309E+03    0.21861E-01   -0.38041E-02  5188   0.231E-01    0.455E-01
RMM:   5    -0.413431101733E+03    0.54758E-03   -0.24221E-02  4969   0.195E-01    0.247E-01
RMM:   6    -0.413429855844E+03    0.12459E-02   -0.13813E-02  5009   0.145E-01    0.138E-01
RMM:   7    -0.413429013994E+03    0.84185E-03   -0.17053E-03  4509   0.628E-02    0.564E-02
RMM:   8    -0.413429006682E+03    0.73113E-05   -0.58645E-04  5730   0.283E-02    0.349E-02
RMM:   9    -0.413428999284E+03    0.73985E-05   -0.20682E-04  4804   0.183E-02    0.173E-02
RMM:  10    -0.413428998829E+03    0.45449E-06   -0.48143E-05  5436   0.854E-03    0.101E-02
RMM:  11    -0.413428998246E+03    0.58303E-06   -0.17055E-05  4458   0.513E-03    0.496E-03
RMM:  12    -0.413428999348E+03   -0.11020E-05   -0.46213E-06  3025   0.318E-03    0.304E-03
RMM:  13    -0.413428999761E+03   -0.41225E-06   -0.12530E-06  2544   0.192E-03
  143 T=   117. E= -.41285443E+03 F= -.41342900E+03 E0= -.41340754E+03  EK= 0.57457E+00 SP= 0.00E+00 SK= 0.00E+00
       N       E                     dE             d eps       ncg     rms          rms(c)
RMM:   1    -0.413738765191E+03   -0.30977E+00   -0.14971E+01  4291   0.726E+00    0.163E+00
RMM:   2    -0.413736491099E+03    0.22741E-02   -0.51948E-01  5323   0.863E-01    0.158E+00
RMM:   3    -0.413731059544E+03    0.54316E-02   -0.16164E-01  5388   0.445E-01    0.148E+00
RMM:   4    -0.413682808289E+03    0.48251E-01   -0.10897E-01  5139   0.386E-01    0.635E-01
RMM:   5    -0.413679562621E+03    0.32457E-02   -0.53942E-02  4939   0.296E-01    0.303E-01
RMM:   6    -0.413675589270E+03    0.39734E-02   -0.20795E-02  5002   0.178E-01    0.151E-01
RMM:   7    -0.413674724063E+03    0.86521E-03   -0.19030E-03  4547   0.688E-02    0.570E-02
RMM:   8    -0.413674699532E+03    0.24531E-04   -0.47298E-04  5244   0.276E-02    0.330E-02
RMM:   9    -0.413674706495E+03   -0.69631E-05   -0.22186E-04  5285   0.181E-02    0.189E-02
RMM:  10    -0.413674706431E+03    0.63541E-07   -0.56217E-05  5539   0.898E-03    0.113E-02
RMM:  11    -0.413674705990E+03    0.44152E-06   -0.26017E-05  5003   0.612E-03    0.548E-03
RMM:  12    -0.413674707170E+03   -0.11807E-05   -0.67332E-06  3324   0.357E-03    0.381E-03
RMM:  13    -0.413674707594E+03   -0.42391E-06   -0.15325E-06  2546   0.219E-03
  144 T=   161. E= -.41288595E+03 F= -.41367471E+03 E0= -.41365288E+03  EK= 0.78876E+00 SP= 0.00E+00 SK= 0.00E+00
       N       E                     dE             d eps       ncg     rms          rms(c)
RMM:   1    -0.413971461128E+03   -0.29675E+00   -0.21031E+01  4299   0.845E+00    0.177E+00
RMM:   2    -0.413901884707E+03    0.69576E-01   -0.68152E-01  5374   0.102E+00    0.180E+00
RMM:   3    -0.413879256721E+03    0.22628E-01   -0.18849E-01  5433   0.490E-01    0.161E+00
RMM:   4    -0.413830276846E+03    0.48980E-01   -0.11492E-01  5173   0.401E-01    0.761E-01
RMM:   5    -0.413828661158E+03    0.16157E-02   -0.59828E-02  4906   0.316E-01    0.344E-01
RMM:   6    -0.413824164360E+03    0.44968E-02   -0.29095E-02  4994   0.207E-01    0.172E-01
RMM:   7    -0.413822638800E+03    0.15256E-02   -0.29691E-03  4556   0.847E-02    0.650E-02
RMM:   8    -0.413822599212E+03    0.39589E-04   -0.66485E-04  5285   0.330E-02    0.408E-02
RMM:   9    -0.413822594928E+03    0.42835E-05   -0.27340E-04  4879   0.208E-02    0.205E-02
RMM:  10    -0.413822597792E+03   -0.28642E-05   -0.81916E-05  5598   0.108E-02    0.123E-02
RMM:  11    -0.413822598734E+03   -0.94163E-06   -0.30695E-05  5231   0.676E-03    0.656E-03
RMM:  12    -0.413822601320E+03   -0.25856E-05   -0.86874E-06  3571   0.399E-03    0.447E-03
RMM:  13    -0.413822602793E+03   -0.14731E-05   -0.23356E-06  2655   0.254E-03    0.194E-03
RMM:  14    -0.413822604134E+03   -0.13409E-05   -0.11942E-06  2504   0.177E-03    0.936E-04
RMM:  15    -0.413822605401E+03   -0.12675E-05   -0.71711E-07  2422   0.139E-03    0.460E-04
RMM:  16    -0.413822606253E+03   -0.85220E-06   -0.38432E-07  1996   0.993E-04
  145 T=   191. E= -.41288551E+03 F= -.41382261E+03 E0= -.41380043E+03  EK= 0.93709E+00 SP= 0.00E+00 SK= 0.00E+00
       N       E                     dE             d eps       ncg     rms          rms(c)
RMM:   1    -0.413922268601E+03   -0.99663E-01   -0.21515E+01  4299   0.865E+00    0.114E+00
RMM:   2    -0.413845942329E+03    0.76326E-01   -0.63404E-01  5402   0.984E-01    0.133E+00
RMM:   3    -0.413819686420E+03    0.26256E-01   -0.11904E-01  5600   0.398E-01    0.113E+00
RMM:   4    -0.413795473364E+03    0.24213E-01   -0.40544E-02  5197   0.249E-01    0.645E-01
RMM:   5    -0.413796169579E+03   -0.69622E-03   -0.31398E-02  4764   0.234E-01    0.318E-01
RMM:   6    -0.413794833362E+03    0.13362E-02   -0.25279E-02  5031   0.187E-01    0.173E-01
RMM:   7    -0.413793132893E+03    0.17005E-02   -0.40260E-03  4939   0.889E-02    0.796E-02
RMM:   8    -0.413793045425E+03    0.87467E-04   -0.78125E-04  5565   0.349E-02    0.540E-02
RMM:   9    -0.413792986182E+03    0.59243E-04   -0.42212E-04  4486   0.265E-02    0.171E-02
RMM:  10    -0.413793000423E+03   -0.14241E-04   -0.13666E-04  5841   0.137E-02    0.136E-02
RMM:  11    -0.413792999905E+03    0.51769E-06   -0.24497E-05  4506   0.649E-03    0.590E-03
RMM:  12    -0.413793004177E+03   -0.42720E-05   -0.84744E-06  3474   0.397E-03    0.328E-03
RMM:  13    -0.413793007953E+03   -0.37758E-05   -0.22045E-06  2678   0.241E-03    0.152E-03
RMM:  14    -0.413793010859E+03   -0.29058E-05   -0.11380E-06  2537   0.169E-03    0.806E-04
RMM:  15    -0.413793012743E+03   -0.18839E-05   -0.76337E-07  2327   0.127E-03    0.433E-04
RMM:  16    -0.413793013755E+03   -0.10122E-05   -0.50966E-07  1930   0.101E-03    0.268E-04
RMM:  17    -0.413793014644E+03   -0.88899E-06   -0.54497E-07  2090   0.102E-03
  146 T=   186. E= -.41287945E+03 F= -.41379301E+03 E0= -.41377054E+03  EK= 0.91357E+00 SP= 0.00E+00 SK= 0.00E+00
       N       E                     dE             d eps       ncg     rms          rms(c)
RMM:   1    -0.413750866293E+03    0.42147E-01   -0.19565E+01  4295   0.820E+00    0.115E+00
RMM:   2    -0.413666652488E+03    0.84214E-01   -0.58095E-01  5396   0.928E-01    0.115E+00
RMM:   3    -0.413682993283E+03   -0.16341E-01   -0.10348E-01  5655   0.358E-01    0.118E+00
RMM:   4    -0.413651057572E+03    0.31936E-01   -0.37784E-02  5096   0.237E-01    0.681E-01
RMM:   5    -0.413648782179E+03    0.22754E-02   -0.28630E-02  4366   0.235E-01    0.205E-01
RMM:   6    -0.413648310669E+03    0.47151E-03   -0.99960E-03  5341   0.124E-01    0.118E-01
RMM:   7    -0.413647734152E+03    0.57652E-03   -0.24542E-03  5347   0.614E-02    0.783E-02
RMM:   8    -0.413647566172E+03    0.16798E-03   -0.44515E-04  4625   0.292E-02    0.477E-02
RMM:   9    -0.413647531444E+03    0.34728E-04   -0.47747E-04  4509   0.279E-02    0.155E-02
RMM:  10    -0.413647545510E+03   -0.14066E-04   -0.11508E-04  5866   0.124E-02    0.129E-02
RMM:  11    -0.413647545491E+03    0.19194E-07   -0.26103E-05  4609   0.670E-03    0.538E-03
RMM:  12    -0.413647549399E+03   -0.39084E-05   -0.59019E-06  3134   0.339E-03    0.300E-03
RMM:  13    -0.413647553579E+03   -0.41797E-05   -0.20285E-06  2673   0.230E-03    0.192E-03
RMM:  14    -0.413647556513E+03   -0.29342E-05   -0.16643E-06  2601   0.196E-03    0.805E-04
RMM:  15    -0.413647558016E+03   -0.15031E-05   -0.86343E-07  2255   0.130E-03    0.530E-04
RMM:  16    -0.413647558649E+03   -0.63285E-06   -0.68906E-07  2204   0.115E-03
  147 T=   155. E= -.41288701E+03 F= -.41364756E+03 E0= -.41362480E+03  EK= 0.76055E+00 SP= 0.00E+00 SK= 0.00E+00
       N       E                     dE             d eps       ncg     rms          rms(c)
RMM:   1    -0.413386527584E+03    0.26103E+00   -0.14623E+01  4285   0.688E+00    0.172E+00
RMM:   2    -0.413331024771E+03    0.55503E-01   -0.53224E-01  5375   0.825E-01    0.147E+00
RMM:   3    -0.413338796321E+03   -0.77715E-02   -0.94116E-02  5152   0.379E-01    0.845E-01
RMM:   4    -0.413585617550E+03   -0.24682E+00   -0.29978E-01  5226   0.503E-01    0.198E+00
RMM:   5    -0.413329526012E+03    0.25609E+00   -0.14650E-01  4932   0.418E-01    0.270E-01
RMM:   6    -0.413328834701E+03    0.69131E-03   -0.33887E-02  5762   0.198E-01    0.131E-01
RMM:   7    -0.413328216160E+03    0.61854E-03   -0.57441E-03  5552   0.808E-02    0.660E-02
RMM:   8    -0.413328196580E+03    0.19580E-04   -0.10821E-03  5706   0.368E-02    0.412E-02
RMM:   9    -0.413328179807E+03    0.16773E-04   -0.26030E-04  5045   0.200E-02    0.185E-02
RMM:  10    -0.413328185580E+03   -0.57728E-05   -0.87999E-05  5841   0.107E-02    0.111E-02
RMM:  11    -0.413328187531E+03   -0.19514E-05   -0.22748E-05  4729   0.528E-03    0.686E-03
RMM:  12    -0.413328190441E+03   -0.29104E-05   -0.60132E-06  3192   0.369E-03    0.327E-03
RMM:  13    -0.413328192933E+03   -0.24913E-05   -0.21381E-06  2639   0.243E-03    0.160E-03
RMM:  14    -0.413328194819E+03   -0.18860E-05   -0.12290E-06  2565   0.172E-03    0.761E-04
RMM:  15    -0.413328195753E+03   -0.93391E-06   -0.77219E-07  2414   0.127E-03
  148 T=    91. E= -.41288208E+03 F= -.41332820E+03 E0= -.41330515E+03  EK= 0.44612E+00 SP= 0.00E+00 SK= 0.00E+00
       N       E                     dE             d eps       ncg     rms          rms(c)
RMM:   1    -0.413025345422E+03    0.30285E+00   -0.49856E+00  4278   0.398E+00    0.106E+00
RMM:   2    -0.413033412245E+03   -0.80668E-02   -0.19948E-01  5342   0.457E-01    0.886E-01
RMM:   3    -0.413090865397E+03   -0.57453E-01   -0.85042E-02  5417   0.291E-01    0.114E+00
RMM:   4    -0.413036998440E+03    0.53867E-01   -0.58330E-02  5045   0.267E-01    0.361E-01
RMM:   5    -0.413033237865E+03    0.37606E-02   -0.26276E-02  5204   0.200E-01    0.177E-01
RMM:   6    -0.413031748362E+03    0.14895E-02   -0.44803E-03  5206   0.881E-02    0.806E-02
RMM:   7    -0.413031541124E+03    0.20724E-03   -0.69347E-04  4939   0.373E-02    0.391E-02
RMM:   8    -0.413031526149E+03    0.14975E-04   -0.42604E-04  5492   0.256E-02    0.235E-02
RMM:   9    -0.413031520024E+03    0.61254E-05   -0.88774E-05  5693   0.113E-02    0.143E-02
RMM:  10    -0.413031515971E+03    0.40532E-05   -0.39418E-05  5381   0.759E-03    0.647E-03
RMM:  11    -0.413031515454E+03    0.51663E-06   -0.83379E-06  3441   0.357E-03
  149 T=    39. E= -.41284010E+03 F= -.41303152E+03 E0= -.41300823E+03  EK= 0.19142E+00 SP= 0.00E+00 SK= 0.00E+00
       N       E                     dE             d eps       ncg     rms          rms(c)
RMM:   1    -0.413273484719E+03   -0.24197E+00   -0.37811E+00  4265   0.346E+00    0.876E-01
RMM:   2    -0.413273065578E+03    0.41914E-03   -0.14773E-01  5421   0.437E-01    0.754E-01
RMM:   3    -0.413298360834E+03   -0.25295E-01   -0.49967E-02  5413   0.237E-01    0.846E-01
RMM:   4    -0.413276806353E+03    0.21554E-01   -0.37264E-02  5210   0.207E-01    0.453E-01
RMM:   5    -0.413270078599E+03    0.67278E-02   -0.11233E-02  4444   0.155E-01    0.952E-02
RMM:   6    -0.413269894323E+03    0.18428E-03   -0.16995E-03  5468   0.523E-02    0.503E-02
RMM:   7    -0.413269829414E+03    0.64909E-04   -0.24867E-04  4685   0.219E-02    0.228E-02
RMM:   8    -0.413269827336E+03    0.20776E-05   -0.15613E-04  5477   0.157E-02    0.152E-02
RMM:   9    -0.413269826795E+03    0.54107E-06   -0.36568E-05  5379   0.718E-03    0.864E-03
RMM:  10    -0.413269824007E+03    0.27874E-05   -0.16175E-05  4574   0.465E-03    0.401E-03
RMM:  11    -0.413269824931E+03   -0.92325E-06   -0.40235E-06  2921   0.278E-03
  150 T=    81. E= -.41287323E+03 F= -.41326982E+03 E0= -.41324660E+03  EK= 0.39660E+00 SP= 0.00E+00 SK= 0.00E+00
