       N       E                     dE             d eps       ncg     rms          rms(c)
RMM:   1     0.220129011368E+04    0.22013E+04   -0.52441E+04  2132   0.654E+02
RMM:   2     0.705317566860E+03   -0.14960E+04   -0.16262E+04  2132   0.177E+02
RMM:   3     0.137595988608E+03   -0.56772E+03   -0.65724E+03  2132   0.117E+02
RMM:   4    -0.159501731373E+03   -0.29710E+03   -0.27835E+03  2132   0.936E+01
RMM:   5    -0.287538384141E+03   -0.12804E+03   -0.11453E+03  2132   0.595E+01
RMM:   6    -0.349745430914E+03   -0.62207E+02   -0.55050E+02  2132   0.423E+01
RMM:   7    -0.382619598564E+03   -0.32874E+02   -0.30404E+02  2132   0.293E+01
RMM:   8    -0.404137789524E+03   -0.21518E+02   -0.18473E+02  2132   0.233E+01
RMM:   9    -0.435955985101E+03   -0.31818E+02   -0.30700E+02  6104   0.173E+01
RMM:  10    -0.441295015143E+03   -0.53390E+01   -0.63567E+01  6388   0.540E+00
RMM:  11    -0.442498894153E+03   -0.12039E+01   -0.11184E+01  6214   0.174E+00
RMM:  12    -0.442872289734E+03   -0.37340E+00   -0.25936E+00  6364   0.601E-01    0.134E+02
RMM:  13    -0.425599807015E+03    0.17272E+02   -0.81250E+01  4674   0.119E+01    0.712E+01
RMM:  14    -0.499326190409E+03   -0.73726E+02   -0.53958E+02  5423   0.232E+01    0.307E+01
RMM:  15    -0.415664663766E+03    0.83662E+02   -0.19938E+02  5087   0.163E+01    0.679E+00
RMM:  16    -0.414035042896E+03    0.16296E+01   -0.39205E+01  6082   0.608E+00    0.428E+00
RMM:  17    -0.413215548578E+03    0.81949E+00   -0.24836E+00  5379   0.186E+00    0.245E+00
RMM:  18    -0.413173825535E+03    0.41723E-01   -0.80805E-01  5970   0.920E-01    0.166E+00
RMM:  19    -0.413168183047E+03    0.56425E-02   -0.29033E-01  5714   0.575E-01    0.861E-01
RMM:  20    -0.413184217899E+03   -0.16035E-01   -0.22728E-01  5527   0.504E-01    0.554E-01
RMM:  21    -0.413167391979E+03    0.16826E-01   -0.32778E-02  5009   0.227E-01    0.252E-01
RMM:  22    -0.413165482464E+03    0.19095E-02   -0.15443E-02  6025   0.109E-01    0.136E-01
RMM:  23    -0.413164240255E+03    0.12422E-02   -0.54097E-03  5933   0.674E-02    0.828E-02
RMM:  24    -0.413163025882E+03    0.12144E-02   -0.15031E-03  5248   0.388E-02    0.419E-02
RMM:  25    -0.413162698718E+03    0.32716E-03   -0.82121E-04  5520   0.260E-02    0.320E-02
RMM:  26    -0.413162910614E+03   -0.21190E-03   -0.77015E-04  5841   0.281E-02    0.332E-02
RMM:  27    -0.413163343501E+03   -0.43289E-03   -0.18571E-04  4564   0.195E-02    0.180E-02
RMM:  28    -0.413163838225E+03   -0.49472E-03   -0.18964E-04  5246   0.194E-02    0.856E-03
RMM:  29    -0.413164209528E+03   -0.37130E-03   -0.10013E-04  4394   0.145E-02    0.450E-03
RMM:  30    -0.413164434228E+03   -0.22470E-03   -0.75374E-05  4136   0.101E-02    0.344E-03
RMM:  31    -0.413164548838E+03   -0.11461E-03   -0.49113E-05  3166   0.638E-03    0.297E-03
RMM:  32    -0.413164571312E+03   -0.22474E-04   -0.19137E-05  2949   0.290E-03    0.163E-03
RMM:  33    -0.413164580737E+03   -0.94256E-05   -0.79125E-06  2791   0.216E-03    0.501E-04
RMM:  34    -0.413164582867E+03   -0.21294E-05   -0.43175E-06  2640   0.163E-03    0.761E-04
RMM:  35    -0.413164582385E+03    0.48196E-06   -0.21275E-06  2246   0.116E-03
    1 T=    61. E= -.41286679E+03 F= -.41316458E+03 E0= -.41314208E+03  EK= 0.29779E+00 SP= 0.00E+00 SK= 0.00E+00
       N       E                     dE             d eps       ncg     rms          rms(c)
RMM:   1    -0.413158816945E+03    0.57659E-02   -0.10119E+01  3992   0.659E-01    0.885E-01
RMM:   2    -0.413167147773E+03   -0.83308E-02   -0.12385E-01  3870   0.917E-02    0.646E-01
RMM:   3    -0.413164460262E+03    0.26875E-02   -0.10162E-02  4696   0.393E-02    0.110E-01
RMM:   4    -0.413179935680E+03   -0.15475E-01   -0.16303E-02  5208   0.106E-01    0.522E-01
RMM:   5    -0.413164214908E+03    0.15721E-01   -0.78406E-03  4861   0.874E-02    0.387E-02
RMM:   6    -0.413164322032E+03   -0.10712E-03   -0.13746E-03  5796   0.358E-02    0.268E-02
RMM:   7    -0.413164326118E+03   -0.40860E-05   -0.27216E-04  5651   0.152E-02    0.157E-02
RMM:   8    -0.413164326777E+03   -0.65925E-06   -0.31538E-05  4596   0.620E-03    0.676E-03
RMM:   9    -0.413164330498E+03   -0.37212E-05   -0.67144E-06  3133   0.284E-03    0.530E-03
RMM:  10    -0.413164335580E+03   -0.50820E-05   -0.14670E-06  2536   0.187E-03    0.323E-03
RMM:  11    -0.413164341682E+03   -0.61017E-05   -0.12536E-06  2521   0.165E-03    0.148E-03
RMM:  12    -0.413164347942E+03   -0.62606E-05   -0.10739E-06  2481   0.145E-03    0.627E-04
RMM:  13    -0.413164348945E+03   -0.10029E-05   -0.42282E-07  2046   0.963E-04    0.311E-04
RMM:  14    -0.413164349726E+03   -0.78105E-06   -0.25791E-07  1461   0.727E-04
    2 T=    61. E= -.41286666E+03 F= -.41316435E+03 E0= -.41314185E+03  EK= 0.29769E+00 SP= 0.00E+00 SK= 0.00E+00
       N       E                     dE             d eps       ncg     rms          rms(c)
RMM:   1    -0.413159897282E+03    0.44517E-02   -0.10131E+01  4190   0.664E-01    0.906E-01
RMM:   2    -0.413167195970E+03   -0.72987E-02   -0.12176E-01  3934   0.916E-02    0.640E-01
RMM:   3    -0.413165147988E+03    0.20480E-02   -0.10203E-02  4879   0.407E-02    0.134E-01
RMM:   4    -0.413191685254E+03   -0.26537E-01   -0.27435E-02  5178   0.138E-01    0.680E-01
RMM:   5    -0.413164712075E+03    0.26973E-01   -0.13035E-02  4826   0.114E-01    0.452E-02
RMM:   6    -0.413164891980E+03   -0.17991E-03   -0.22874E-03  5789   0.463E-02    0.299E-02
RMM:   7    -0.413164892614E+03   -0.63327E-06   -0.36803E-04  5756   0.173E-02    0.186E-02
RMM:   8    -0.413164887502E+03    0.51116E-05   -0.53058E-05  5032   0.772E-03    0.849E-03
RMM:   9    -0.413164886303E+03    0.11995E-05   -0.10864E-05  3686   0.366E-03    0.646E-03
RMM:  10    -0.413164886658E+03   -0.35589E-06   -0.16310E-06  2560   0.204E-03
    3 T=    61. E= -.41286701E+03 F= -.41316489E+03 E0= -.41314239E+03  EK= 0.29788E+00 SP= 0.00E+00 SK= 0.00E+00
       N       E                     dE             d eps       ncg     rms          rms(c)
RMM:   1    -0.413159375912E+03    0.55104E-02   -0.10052E+01  4222   0.665E-01    0.891E-01
RMM:   2    -0.413167029410E+03   -0.76535E-02   -0.12117E-01  4170   0.944E-02    0.634E-01
RMM:   3    -0.413168210168E+03   -0.11808E-02   -0.12551E-02  5143   0.687E-02    0.276E-01
RMM:   4    -0.413195369680E+03   -0.27160E-01   -0.41905E-02  5137   0.173E-01    0.725E-01
RMM:   5    -0.413164577772E+03    0.30792E-01   -0.12807E-02  4742   0.120E-01    0.583E-02
RMM:   6    -0.413164647516E+03   -0.69745E-04   -0.22835E-03  5553   0.479E-02    0.280E-02
RMM:   7    -0.413164669637E+03   -0.22120E-04   -0.37386E-04  6053   0.168E-02    0.175E-02
RMM:   8    -0.413164669276E+03    0.36004E-06   -0.66101E-05  5250   0.883E-03    0.776E-03
RMM:   9    -0.413164667511E+03    0.17653E-05   -0.96503E-06  3478   0.371E-03    0.382E-03
RMM:  10    -0.413164668854E+03   -0.13431E-05   -0.21403E-06  2595   0.217E-03    0.256E-03
RMM:  11    -0.413164670736E+03   -0.18814E-05   -0.14412E-06  2534   0.186E-03    0.151E-03
RMM:  12    -0.413164671726E+03   -0.99044E-06   -0.74104E-07  2487   0.140E-03
    4 T=    61. E= -.41286673E+03 F= -.41316467E+03 E0= -.41314218E+03  EK= 0.29794E+00 SP= 0.00E+00 SK= 0.00E+00
       N       E                     dE             d eps       ncg     rms          rms(c)
RMM:   1    -0.413159302749E+03    0.53680E-02   -0.10103E+01  4237   0.671E-01    0.883E-01
RMM:   2    -0.413167588135E+03   -0.82854E-02   -0.12378E-01  4047   0.937E-02    0.644E-01
RMM:   3    -0.413165160474E+03    0.24277E-02   -0.10251E-02  4901   0.428E-02    0.127E-01
RMM:   4    -0.413194788308E+03   -0.29628E-01   -0.30665E-02  5156   0.146E-01    0.718E-01
RMM:   5    -0.413164616751E+03    0.30172E-01   -0.14492E-02  4809   0.120E-01    0.449E-02
RMM:   6    -0.413164812252E+03   -0.19550E-03   -0.24872E-03  5780   0.482E-02    0.284E-02
RMM:   7    -0.413164822749E+03   -0.10497E-04   -0.37214E-04  5808   0.172E-02    0.183E-02
RMM:   8    -0.413164823414E+03   -0.66429E-06   -0.59817E-05  5035   0.802E-03    0.873E-03
RMM:   9    -0.413164824934E+03   -0.15207E-05   -0.12080E-05  3829   0.393E-03    0.646E-03
RMM:  10    -0.413164829135E+03   -0.42011E-05   -0.17218E-06  2567   0.205E-03    0.419E-03
RMM:  11    -0.413164834233E+03   -0.50977E-05   -0.14763E-06  2551   0.186E-03    0.203E-03
RMM:  12    -0.413164840125E+03   -0.58920E-05   -0.15700E-06  2565   0.180E-03    0.854E-04
RMM:  13    -0.413164840829E+03   -0.70421E-06   -0.41572E-07  2244   0.112E-03
    5 T=    61. E= -.41286670E+03 F= -.41316484E+03 E0= -.41314236E+03  EK= 0.29814E+00 SP= 0.00E+00 SK= 0.00E+00
       N       E                     dE             d eps       ncg     rms          rms(c)
RMM:   1    -0.413160221993E+03    0.46181E-02   -0.10133E+01  4250   0.678E-01    0.903E-01
RMM:   2    -0.413167605587E+03   -0.73836E-02   -0.12212E-01  4072   0.941E-02    0.642E-01
RMM:   3    -0.413165442112E+03    0.21635E-02   -0.10169E-02  4731   0.407E-02    0.124E-01
RMM:   4    -0.413185306621E+03   -0.19865E-01   -0.20144E-02  5160   0.119E-01    0.591E-01
RMM:   5    -0.413165130554E+03    0.20176E-01   -0.98795E-03  4829   0.980E-02    0.409E-02
RMM:   6    -0.413165259598E+03   -0.12904E-03   -0.16741E-03  5807   0.394E-02    0.263E-02
RMM:   7    -0.413165261602E+03   -0.20039E-05   -0.28052E-04  5691   0.159E-02    0.168E-02
RMM:   8    -0.413165255466E+03    0.61361E-05   -0.47880E-05  4889   0.747E-03    0.800E-03
RMM:   9    -0.413165254578E+03    0.88749E-06   -0.94770E-06  3588   0.353E-03
    6 T=    61. E= -.41286683E+03 F= -.41316525E+03 E0= -.41314279E+03  EK= 0.29843E+00 SP= 0.00E+00 SK= 0.00E+00
       N       E                     dE             d eps       ncg     rms          rms(c)
RMM:   1    -0.413160186218E+03    0.50692E-02   -0.10081E+01  4270   0.690E-01    0.898E-01
RMM:   2    -0.413167293862E+03   -0.71076E-02   -0.12135E-01  4359   0.935E-02    0.635E-01
RMM:   3    -0.413173451015E+03   -0.61572E-02   -0.16769E-02  5170   0.914E-02    0.406E-01
RMM:   4    -0.413182096336E+03   -0.86453E-02   -0.34328E-02  5072   0.161E-01    0.544E-01
RMM:   5    -0.413165115314E+03    0.16981E-01   -0.58969E-03  4636   0.906E-02    0.579E-02
RMM:   6    -0.413165041828E+03    0.73485E-04   -0.12011E-03  5291   0.351E-02    0.281E-02
RMM:   7    -0.413165054969E+03   -0.13140E-04   -0.27648E-04  5969   0.163E-02    0.174E-02
RMM:   8    -0.413165050055E+03    0.49138E-05   -0.54349E-05  5176   0.855E-03    0.699E-03
RMM:   9    -0.413165047036E+03    0.30189E-05   -0.10302E-05  3908   0.404E-03    0.366E-03
RMM:  10    -0.413165047228E+03   -0.19179E-06   -0.12404E-06  2518   0.197E-03
    7 T=    61. E= -.41286652E+03 F= -.41316505E+03 E0= -.41314260E+03  EK= 0.29853E+00 SP= 0.00E+00 SK= 0.00E+00
       N       E                     dE             d eps       ncg     rms          rms(c)
RMM:   1    -0.413160119037E+03    0.49280E-02   -0.10086E+01  4269   0.686E-01    0.882E-01
RMM:   2    -0.413168299167E+03   -0.81801E-02   -0.12330E-01  4088   0.925E-02    0.642E-01
RMM:   3    -0.413165921693E+03    0.23775E-02   -0.10194E-02  4872   0.431E-02    0.126E-01
RMM:   4    -0.413193816577E+03   -0.27895E-01   -0.28736E-02  5151   0.141E-01    0.697E-01
RMM:   5    -0.413165416856E+03    0.28400E-01   -0.13719E-02  4820   0.116E-01    0.447E-02
RMM:   6    -0.413165595493E+03   -0.17864E-03   -0.22981E-03  5757   0.467E-02    0.287E-02
RMM:   7    -0.413165601486E+03   -0.59931E-05   -0.36449E-04  5814   0.169E-02    0.178E-02
RMM:   8    -0.413165601170E+03    0.31603E-06   -0.49510E-05  4965   0.738E-03    0.783E-03
RMM:   9    -0.413165602502E+03   -0.13316E-05   -0.10504E-05  3599   0.358E-03    0.598E-03
RMM:  10    -0.413165605344E+03   -0.28419E-05   -0.15735E-06  2555   0.197E-03    0.383E-03
RMM:  11    -0.413165608830E+03   -0.34864E-05   -0.13332E-06  2533   0.178E-03    0.179E-03
RMM:  12    -0.413165612436E+03   -0.36054E-05   -0.14437E-06  2552   0.169E-03    0.825E-04
RMM:  13    -0.413165612673E+03   -0.23741E-06   -0.36868E-07  2179   0.105E-03
    8 T=    61. E= -.41286677E+03 F= -.41316561E+03 E0= -.41314318E+03  EK= 0.29884E+00 SP= 0.00E+00 SK= 0.00E+00
       N       E                     dE             d eps       ncg     rms          rms(c)
RMM:   1    -0.413160600211E+03    0.50122E-02   -0.10133E+01  4286   0.691E-01    0.898E-01
RMM:   2    -0.413168449069E+03   -0.78489E-02   -0.12278E-01  4180   0.937E-02    0.644E-01
RMM:   3    -0.413166062833E+03    0.23862E-02   -0.10251E-02  4776   0.412E-02    0.123E-01
RMM:   4    -0.413188265393E+03   -0.22203E-01   -0.22658E-02  5151   0.125E-01    0.624E-01
RMM:   5    -0.413165681402E+03    0.22584E-01   -0.11025E-02  4815   0.104E-01    0.418E-02
RMM:   6    -0.413165827674E+03   -0.14627E-03   -0.18963E-03  5805   0.415E-02    0.269E-02
RMM:   7    -0.413165832071E+03   -0.43969E-05   -0.29515E-04  5697   0.161E-02    0.171E-02
RMM:   8    -0.413165826809E+03    0.52614E-05   -0.52780E-05  4933   0.771E-03    0.840E-03
RMM:   9    -0.413165825412E+03    0.13973E-05   -0.10313E-05  3695   0.370E-03    0.655E-03
RMM:  10    -0.413165826197E+03   -0.78474E-06   -0.14542E-06  2539   0.202E-03
    9 T=    61. E= -.41286683E+03 F= -.41316583E+03 E0= -.41314342E+03  EK= 0.29899E+00 SP= 0.00E+00 SK= 0.00E+00
       N       E                     dE             d eps       ncg     rms          rms(c)
RMM:   1    -0.413160950612E+03    0.48748E-02   -0.10106E+01  4294   0.692E-01    0.905E-01
RMM:   2    -0.413168151532E+03   -0.72009E-02   -0.12132E-01  4267   0.930E-02    0.637E-01
RMM:   3    -0.413168957589E+03   -0.80606E-03   -0.12428E-02  5093   0.668E-02    0.263E-01
RMM:   4    -0.413198240831E+03   -0.29283E-01   -0.42420E-02  5114   0.174E-01    0.744E-01
RMM:   5    -0.413165788961E+03    0.32452E-01   -0.13803E-02  4745   0.123E-01    0.575E-02
RMM:   6    -0.413165880915E+03   -0.91954E-04   -0.24160E-03  5582   0.490E-02    0.289E-02
RMM:   7    -0.413165893328E+03   -0.12413E-04   -0.37822E-04  6009   0.169E-02    0.179E-02
RMM:   8    -0.413165889523E+03    0.38057E-05   -0.66277E-05  5223   0.876E-03    0.790E-03
RMM:   9    -0.413165884766E+03    0.47564E-05   -0.99429E-06  3489   0.371E-03    0.394E-03
RMM:  10    -0.413165883707E+03    0.10594E-05   -0.22994E-06  2599   0.221E-03    0.270E-03
RMM:  11    -0.413165881999E+03    0.17081E-05   -0.12865E-06  2522   0.178E-03    0.144E-03
RMM:  12    -0.413165880198E+03    0.18005E-05   -0.75764E-07  2477   0.139E-03    0.483E-04
RMM:  13    -0.413165879314E+03    0.88422E-06   -0.36602E-07  2037   0.981E-04
   10 T=    61. E= -.41286670E+03 F= -.41316588E+03 E0= -.41314349E+03  EK= 0.29918E+00 SP= 0.00E+00 SK= 0.00E+00
       N       E                     dE             d eps       ncg     rms          rms(c)
RMM:   1    -0.413161302823E+03    0.45774E-02   -0.10068E+01  4292   0.705E-01    0.882E-01
RMM:   2    -0.413169182408E+03   -0.78796E-02   -0.12283E-01  4215   0.942E-02    0.640E-01
RMM:   3    -0.413167011584E+03    0.21708E-02   -0.10183E-02  4896   0.445E-02    0.134E-01
RMM:   4    -0.413198477234E+03   -0.31466E-01   -0.32751E-02  5140   0.151E-01    0.739E-01
RMM:   5    -0.413166397367E+03    0.32080E-01   -0.15433E-02  4802   0.123E-01    0.463E-02
RMM:   6    -0.413166597762E+03   -0.20039E-03   -0.26461E-03  5762   0.495E-02    0.294E-02
RMM:   7    -0.413166603989E+03   -0.62272E-05   -0.39023E-04  5758   0.177E-02    0.189E-02
RMM:   8    -0.413166600481E+03    0.35081E-05   -0.61507E-05  5046   0.814E-03    0.902E-03
RMM:   9    -0.413166599049E+03    0.14324E-05   -0.12747E-05  3877   0.401E-03    0.664E-03
RMM:  10    -0.413166600238E+03   -0.11895E-05   -0.17726E-06  2568   0.207E-03    0.430E-03
RMM:  11    -0.413166601813E+03   -0.15745E-05   -0.15167E-06  2546   0.190E-03    0.205E-03
RMM:  12    -0.413166603349E+03   -0.15366E-05   -0.14927E-06  2542   0.180E-03    0.830E-04
RMM:  13    -0.413166603466E+03   -0.11609E-06   -0.41333E-07  2242   0.113E-03
   11 T=    61. E= -.41286691E+03 F= -.41316660E+03 E0= -.41314424E+03  EK= 0.29970E+00 SP= 0.00E+00 SK= 0.00E+00
       N       E                     dE             d eps       ncg     rms          rms(c)
RMM:   1    -0.413161342784E+03    0.52606E-02   -0.10142E+01  4297   0.708E-01    0.894E-01
RMM:   2    -0.413169238955E+03   -0.78962E-02   -0.12374E-01  4230   0.955E-02    0.647E-01
RMM:   3    -0.413166838540E+03    0.24004E-02   -0.10313E-02  4812   0.425E-02    0.124E-01
RMM:   4    -0.413192401517E+03   -0.25563E-01   -0.26283E-02  5140   0.135E-01    0.668E-01
RMM:   5    -0.413166406699E+03    0.25995E-01   -0.12622E-02  4812   0.111E-01    0.431E-02
RMM:   6    -0.413166573254E+03   -0.16655E-03   -0.21694E-03  5806   0.443E-02    0.276E-02
RMM:   7    -0.413166578548E+03   -0.52945E-05   -0.32208E-04  5724   0.166E-02    0.176E-02
RMM:   8    -0.413166574095E+03    0.44528E-05   -0.57681E-05  4979   0.797E-03    0.873E-03
RMM:   9    -0.413166572497E+03    0.15979E-05   -0.11489E-05  3814   0.390E-03    0.666E-03
RMM:  10    -0.413166573451E+03   -0.95387E-06   -0.15453E-06  2553   0.203E-03
   12 T=    61. E= -.41286654E+03 F= -.41316657E+03 E0= -.41314424E+03  EK= 0.30003E+00 SP= 0.00E+00 SK= 0.00E+00
       N       E                     dE             d eps       ncg     rms          rms(c)
RMM:   1    -0.413162302810E+03    0.42697E-02   -0.10143E+01  4308   0.706E-01    0.910E-01
RMM:   2    -0.413169255146E+03   -0.69523E-02   -0.12181E-01  4272   0.931E-02    0.639E-01
RMM:   3    -0.413170389539E+03   -0.11344E-02   -0.12715E-02  5120   0.660E-02    0.268E-01
RMM:   4    -0.413199033527E+03   -0.28644E-01   -0.42596E-02  5106   0.174E-01    0.738E-01
RMM:   5    -0.413167027599E+03    0.32006E-01   -0.13483E-02  4734   0.122E-01    0.573E-02
RMM:   6    -0.413167120387E+03   -0.92789E-04   -0.24047E-03  5585   0.485E-02    0.292E-02
RMM:   7    -0.413167130171E+03   -0.97834E-05   -0.37460E-04  5993   0.168E-02    0.181E-02
RMM:   8    -0.413167124821E+03    0.53495E-05   -0.65754E-05  5234   0.873E-03    0.795E-03
RMM:   9    -0.413167118976E+03    0.58455E-05   -0.98990E-06  3500   0.372E-03    0.396E-03
RMM:  10    -0.413167117039E+03    0.19371E-05   -0.22660E-06  2591   0.220E-03    0.270E-03
RMM:  11    -0.413167114138E+03    0.29003E-05   -0.12585E-06  2522   0.178E-03    0.144E-03
RMM:  12    -0.413167111282E+03    0.28561E-05   -0.72949E-07  2466   0.138E-03    0.484E-04
RMM:  13    -0.413167109885E+03    0.13975E-05   -0.35484E-07  2053   0.980E-04    0.301E-04
RMM:  14    -0.413167108616E+03    0.12684E-05   -0.21392E-07  1584   0.791E-04    0.209E-04
RMM:  15    -0.413167106678E+03    0.19388E-05   -0.18949E-07  1418   0.739E-04    0.106E-04
RMM:  16    -0.413167104767E+03    0.19105E-05   -0.16001E-07  1436   0.706E-04    0.116E-04
RMM:  17    -0.413167102764E+03    0.20027E-05   -0.13950E-07  1335   0.661E-04    0.643E-05
RMM:  18    -0.413167101598E+03    0.11659E-05   -0.78624E-08  1061   0.588E-04    0.306E-05
RMM:  19    -0.413167100942E+03    0.65681E-06   -0.43810E-08   880   0.549E-04
   13 T=    61. E= -.41286657E+03 F= -.41316710E+03 E0= -.41314480E+03  EK= 0.30053E+00 SP= 0.00E+00 SK= 0.00E+00
       N       E                     dE             d eps       ncg     rms          rms(c)
RMM:   1    -0.413162388038E+03    0.47136E-02   -0.10071E+01  4295   0.710E-01    0.886E-01
RMM:   2    -0.413170287328E+03   -0.78993E-02   -0.12260E-01  4241   0.940E-02    0.638E-01
RMM:   3    -0.413168296759E+03    0.19906E-02   -0.10269E-02  4907   0.454E-02    0.142E-01
RMM:   4    -0.413202791527E+03   -0.34495E-01   -0.36346E-02  5139   0.158E-01    0.773E-01
RMM:   5    -0.413167588266E+03    0.35203E-01   -0.16941E-02  4796   0.129E-01    0.482E-02
RMM:   6    -0.413167802082E+03   -0.21382E-03   -0.29119E-03  5749   0.517E-02    0.304E-02
RMM:   7    -0.413167806318E+03   -0.42364E-05   -0.41783E-04  5749   0.181E-02    0.195E-02
RMM:   8    -0.413167802037E+03    0.42817E-05   -0.65099E-05  5110   0.840E-03    0.931E-03
RMM:   9    -0.413167799168E+03    0.28684E-05   -0.13855E-05  4011   0.415E-03    0.667E-03
RMM:  10    -0.413167799073E+03    0.94882E-07   -0.19064E-06  2572   0.211E-03
   14 T=    61. E= -.41286670E+03 F= -.41316780E+03 E0= -.41314553E+03  EK= 0.30110E+00 SP= 0.00E+00 SK= 0.00E+00
       N       E                     dE             d eps       ncg     rms          rms(c)
RMM:   1    -0.413162580275E+03    0.52189E-02   -0.10160E+01  4305   0.716E-01    0.891E-01
RMM:   2    -0.413170696090E+03   -0.81158E-02   -0.12446E-01  4299   0.949E-02    0.649E-01
RMM:   3    -0.413172871394E+03   -0.21753E-02   -0.14209E-02  5130   0.767E-02    0.318E-01
RMM:   4    -0.413196779397E+03   -0.23908E-01   -0.43326E-02  5092   0.177E-01    0.702E-01
RMM:   5    -0.413167759890E+03    0.29020E-01   -0.11481E-02  4696   0.115E-01    0.571E-02
RMM:   6    -0.413167814858E+03   -0.54968E-04   -0.21296E-03  5524   0.454E-02    0.272E-02
RMM:   7    -0.413167832890E+03   -0.18032E-04   -0.33726E-04  5996   0.163E-02    0.171E-02
RMM:   8    -0.413167833828E+03   -0.93847E-06   -0.64960E-05  5213   0.869E-03    0.759E-03
RMM:   9    -0.413167832012E+03    0.18165E-05   -0.94549E-06  3443   0.374E-03    0.364E-03
RMM:  10    -0.413167833151E+03   -0.11391E-05   -0.19239E-06  2561   0.210E-03    0.237E-03
RMM:  11    -0.413167834692E+03   -0.15411E-05   -0.14713E-06  2538   0.185E-03    0.149E-03
RMM:  12    -0.413167835132E+03   -0.44028E-06   -0.68169E-07  2460   0.137E-03
   15 T=    61. E= -.41286640E+03 F= -.41316784E+03 E0= -.41314560E+03  EK= 0.30143E+00 SP= 0.00E+00 SK= 0.00E+00
       N       E                     dE             d eps       ncg     rms          rms(c)
RMM:   1    -0.413163999245E+03    0.38354E-02   -0.10171E+01  4299   0.718E-01    0.912E-01
RMM:   2    -0.413171253853E+03   -0.72546E-02   -0.12253E-01  4251   0.943E-02    0.643E-01
RMM:   3    -0.413169412530E+03    0.18413E-02   -0.10637E-02  4939   0.450E-02    0.150E-01
RMM:   4    -0.413204911166E+03   -0.35499E-01   -0.37587E-02  5141   0.161E-01    0.784E-01
RMM:   5    -0.413168659566E+03    0.36252E-01   -0.17516E-02  4794   0.131E-01    0.492E-02
RMM:   6    -0.413168869803E+03   -0.21024E-03   -0.29761E-03  5765   0.528E-02    0.315E-02
RMM:   7    -0.413168868444E+03    0.13583E-05   -0.43114E-04  5776   0.187E-02    0.203E-02
RMM:   8    -0.413168859112E+03    0.93327E-05   -0.71247E-05  5133   0.876E-03    0.101E-02
RMM:   9    -0.413168852613E+03    0.64985E-05   -0.14234E-05  4066   0.427E-03    0.710E-03
RMM:  10    -0.413168848908E+03    0.37051E-05   -0.20561E-06  2586   0.217E-03    0.454E-03
RMM:  11    -0.413168845537E+03    0.33707E-05   -0.13715E-06  2529   0.183E-03    0.239E-03
RMM:  12    -0.413168840180E+03    0.53577E-05   -0.16635E-06  2559   0.195E-03    0.905E-04
RMM:  13    -0.413168838479E+03    0.17001E-05   -0.50325E-07  2337   0.125E-03    0.644E-04
RMM:  14    -0.413168838564E+03   -0.84703E-07   -0.22706E-07  1841   0.838E-04
   16 T=    61. E= -.41286682E+03 F= -.41316884E+03 E0= -.41314664E+03  EK= 0.30202E+00 SP= 0.00E+00 SK= 0.00E+00
       N       E                     dE             d eps       ncg     rms          rms(c)
RMM:   1    -0.413164110624E+03    0.47279E-02   -0.10092E+01  4298   0.719E-01    0.892E-01
RMM:   2    -0.413171861896E+03   -0.77513E-02   -0.12251E-01  4256   0.938E-02    0.638E-01
RMM:   3    -0.413169651285E+03    0.22106E-02   -0.10139E-02  4871   0.420E-02    0.133E-01
RMM:   4    -0.413197686670E+03   -0.28035E-01   -0.29082E-02  5133   0.142E-01    0.699E-01
RMM:   5    -0.413169146888E+03    0.28540E-01   -0.13918E-02  4796   0.116E-01    0.450E-02
RMM:   6    -0.413169320456E+03   -0.17357E-03   -0.23724E-03  5797   0.466E-02    0.290E-02
RMM:   7    -0.413169320629E+03   -0.17368E-06   -0.35459E-04  5713   0.173E-02    0.185E-02
RMM:   8    -0.413169312715E+03    0.79147E-05   -0.61969E-05  5020   0.824E-03    0.916E-03
RMM:   9    -0.413169308072E+03    0.46430E-05   -0.12459E-05  3909   0.402E-03    0.685E-03
RMM:  10    -0.413169305881E+03    0.21907E-05   -0.16400E-06  2553   0.206E-03    0.437E-03
RMM:  11    -0.413169303298E+03    0.25828E-05   -0.15225E-06  2535   0.194E-03    0.206E-03
RMM:  12    -0.413169300134E+03    0.31647E-05   -0.13170E-06  2521   0.176E-03    0.792E-04
RMM:  13    -0.413169299537E+03    0.59605E-06   -0.39344E-07  2219   0.111E-03
   17 T=    62. E= -.41286674E+03 F= -.41316930E+03 E0= -.41314714E+03  EK= 0.30256E+00 SP= 0.00E+00 SK= 0.00E+00
       N       E                     dE             d eps       ncg     rms          rms(c)
RMM:   1    -0.413164498754E+03    0.48014E-02   -0.10171E+01  4298   0.728E-01    0.889E-01
RMM:   2    -0.413172652786E+03   -0.81540E-02   -0.12500E-01  4259   0.963E-02    0.650E-01
RMM:   3    -0.413170137899E+03    0.25149E-02   -0.10559E-02  4863   0.437E-02    0.126E-01
RMM:   4    -0.413199149539E+03   -0.29012E-01   -0.30165E-02  5132   0.144E-01    0.710E-01
RMM:   5    -0.413169607866E+03    0.29542E-01   -0.14398E-02  4796   0.118E-01    0.447E-02
RMM:   6    -0.413169783800E+03   -0.17593E-03   -0.24313E-03  5797   0.473E-02    0.281E-02
RMM:   7    -0.413169790863E+03   -0.70632E-05   -0.35067E-04  5747   0.171E-02    0.181E-02
RMM:   8    -0.413169786099E+03    0.47632E-05   -0.64726E-05  5027   0.830E-03    0.921E-03
RMM:   9    -0.413169783280E+03    0.28190E-05   -0.13057E-05  3990   0.411E-03    0.684E-03
RMM:  10    -0.413169783413E+03   -0.13211E-06   -0.17009E-06  2553   0.206E-03
   18 T=    62. E= -.41286653E+03 F= -.41316978E+03 E0= -.41314766E+03  EK= 0.30325E+00 SP= 0.00E+00 SK= 0.00E+00
       N       E                     dE             d eps       ncg     rms          rms(c)
RMM:   1    -0.413166131636E+03    0.36516E-02   -0.10205E+01  4305   0.730E-01    0.911E-01
RMM:   2    -0.413173438269E+03   -0.73066E-02   -0.12361E-01  4307   0.972E-02    0.646E-01
RMM:   3    -0.413174874513E+03   -0.14362E-02   -0.13295E-02  5104   0.711E-02    0.287E-01
RMM:   4    -0.413201967739E+03   -0.27093E-01   -0.43091E-02  5086   0.175E-01    0.727E-01
RMM:   5    -0.413170952216E+03    0.31016E-01   -0.12859E-02  4711   0.120E-01    0.567E-02
RMM:   6    -0.413171027946E+03   -0.75730E-04   -0.23173E-03  5556   0.478E-02    0.290E-02
RMM:   7    -0.413171035609E+03   -0.76631E-05   -0.36405E-04  5998   0.167E-02    0.182E-02
RMM:   8    -0.413171028813E+03    0.67955E-05   -0.65857E-05  5198   0.879E-03    0.799E-03
RMM:   9    -0.413171021739E+03    0.70742E-05   -0.97881E-06  3500   0.377E-03    0.391E-03
RMM:  10    -0.413171019236E+03    0.25028E-05   -0.21839E-06  2586   0.218E-03    0.265E-03
RMM:  11    -0.413171015326E+03    0.39105E-05   -0.12074E-06  2513   0.176E-03    0.145E-03
RMM:  12    -0.413171011685E+03    0.36411E-05   -0.66924E-07  2449   0.136E-03    0.469E-04
RMM:  13    -0.413171009820E+03    0.18647E-05   -0.33096E-07  2033   0.964E-04    0.290E-04
RMM:  14    -0.413171008231E+03    0.15892E-05   -0.19029E-07  1532   0.773E-04    0.204E-04
RMM:  15    -0.413171005467E+03    0.27643E-05   -0.16025E-07  1357   0.725E-04    0.102E-04
RMM:  16    -0.413171003161E+03    0.23051E-05   -0.12809E-07  1362   0.685E-04    0.109E-04
RMM:  17    -0.413171000514E+03    0.26479E-05   -0.11694E-07  1375   0.660E-04    0.611E-05
RMM:  18    -0.413170998851E+03    0.16622E-05   -0.68430E-08  1056   0.582E-04    0.289E-05
RMM:  19    -0.413170998094E+03    0.75689E-06   -0.36220E-08   854   0.541E-04
   19 T=    62. E= -.41286682E+03 F= -.41317100E+03 E0= -.41314892E+03  EK= 0.30418E+00 SP= 0.00E+00 SK= 0.00E+00
       N       E                     dE             d eps       ncg     rms          rms(c)
RMM:   1    -0.413166384949E+03    0.46139E-02   -0.10148E+01  4296   0.731E-01    0.901E-01
RMM:   2    -0.413173646123E+03   -0.72612E-02   -0.12299E-01  4265   0.991E-02    0.640E-01
RMM:   3    -0.413171952606E+03    0.16935E-02   -0.10508E-02  4926   0.466E-02    0.152E-01
RMM:   4    -0.413208733723E+03   -0.36781E-01   -0.39276E-02  5137   0.164E-01    0.798E-01
RMM:   5    -0.413171133070E+03    0.37601E-01   -0.18227E-02  4789   0.134E-01    0.499E-02
RMM:   6    -0.413171338299E+03   -0.20523E-03   -0.30827E-03  5754   0.539E-02    0.317E-02
RMM:   7    -0.413171338752E+03   -0.45371E-06   -0.44955E-04  5761   0.189E-02    0.205E-02
RMM:   8    -0.413171330205E+03    0.85477E-05   -0.72336E-05  5172   0.886E-03    0.100E-02
RMM:   9    -0.413171323796E+03    0.64089E-05   -0.14903E-05  4132   0.434E-03    0.697E-03
RMM:  10    -0.413171320225E+03    0.35705E-05   -0.21097E-06  2585   0.217E-03    0.450E-03
RMM:  11    -0.413171317025E+03    0.32001E-05   -0.12829E-06  2513   0.179E-03    0.239E-03
RMM:  12    -0.413171312111E+03    0.49143E-05   -0.14976E-06  2531   0.191E-03    0.864E-04
RMM:  13    -0.413171310515E+03    0.15965E-05   -0.48903E-07  2321   0.124E-03    0.642E-04
RMM:  14    -0.413171310594E+03   -0.79552E-07   -0.22534E-07  1852   0.837E-04
   20 T=    62. E= -.41286648E+03 F= -.41317131E+03 E0= -.41314928E+03  EK= 0.30483E+00 SP= 0.00E+00 SK= 0.00E+00
       N       E                     dE             d eps       ncg     rms          rms(c)
RMM:   1    -0.413169584111E+03    0.17264E-02   -0.10219E+01  4294   0.766E-01    0.888E-01
RMM:   2    -0.413175348640E+03   -0.57645E-02   -0.13197E-01  4274   0.101E-01    0.651E-01
RMM:   3    -0.413172728604E+03    0.26200E-02   -0.10256E-02  4827   0.444E-02    0.131E-01
RMM:   4    -0.413199915357E+03   -0.27187E-01   -0.28097E-02  5137   0.139E-01    0.688E-01
RMM:   5    -0.413172266748E+03    0.27649E-01   -0.13635E-02  4806   0.115E-01    0.440E-02
RMM:   6    -0.413172423567E+03   -0.15682E-03   -0.22816E-03  5803   0.459E-02    0.278E-02
RMM:   7    -0.413172429629E+03   -0.60618E-05   -0.32977E-04  5725   0.168E-02    0.175E-02
RMM:   8    -0.413172424188E+03    0.54406E-05   -0.63924E-05  5003   0.829E-03    0.909E-03
RMM:   9    -0.413172420505E+03    0.36835E-05   -0.12964E-05  4026   0.412E-03    0.679E-03
RMM:  10    -0.413172419880E+03    0.62427E-06   -0.16300E-06  2553   0.204E-03
   21 T=    62. E= -.41286662E+03 F= -.41317242E+03 E0= -.41315043E+03  EK= 0.30580E+00 SP= 0.00E+00 SK= 0.00E+00
       N       E                     dE             d eps       ncg     rms          rms(c)
RMM:   1    -0.413168639071E+03    0.37814E-02   -0.10251E+01  4295   0.751E-01    0.909E-01
RMM:   2    -0.413176171623E+03   -0.75326E-02   -0.12497E-01  4311   0.972E-02    0.651E-01
RMM:   3    -0.413177165422E+03   -0.99380E-03   -0.13221E-02  5093   0.702E-02    0.279E-01
RMM:   4    -0.413206851064E+03   -0.29686E-01   -0.45234E-02  5101   0.179E-01    0.753E-01
RMM:   5    -0.413173437815E+03    0.33413E-01   -0.14132E-02  4724   0.124E-01    0.567E-02
RMM:   6    -0.413173527679E+03   -0.89864E-04   -0.24951E-03  5595   0.498E-02    0.291E-02
RMM:   7    -0.413173535363E+03   -0.76837E-05   -0.37916E-04  5973   0.170E-02    0.184E-02
RMM:   8    -0.413173529883E+03    0.54796E-05   -0.68837E-05  5196   0.891E-03    0.815E-03
RMM:   9    -0.413173523160E+03    0.67235E-05   -0.10918E-05  3601   0.390E-03    0.398E-03
RMM:  10    -0.413173520681E+03    0.24783E-05   -0.23198E-06  2599   0.221E-03    0.274E-03
RMM:  11    -0.413173516959E+03    0.37221E-05   -0.11555E-06  2507   0.174E-03    0.144E-03
RMM:  12    -0.413173513178E+03    0.37808E-05   -0.67574E-07  2450   0.136E-03    0.445E-04
RMM:  13    -0.413173511182E+03    0.19964E-05   -0.33220E-07  2040   0.967E-04    0.275E-04
RMM:  14    -0.413173509424E+03    0.17581E-05   -0.19106E-07  1530   0.772E-04    0.179E-04
RMM:  15    -0.413173506850E+03    0.25740E-05   -0.14850E-07  1351   0.714E-04    0.987E-05
RMM:  16    -0.413173504399E+03    0.24510E-05   -0.11770E-07  1320   0.682E-04    0.110E-04
RMM:  17    -0.413173501786E+03    0.26124E-05   -0.10502E-07  1351   0.655E-04    0.622E-05
RMM:  18    -0.413173499840E+03    0.19464E-05   -0.66640E-08  1081   0.589E-04    0.240E-05
RMM:  19    -0.413173499119E+03    0.72077E-06   -0.33974E-08   854   0.541E-04
   22 T=    62. E= -.41286668E+03 F= -.41317350E+03 E0= -.41315156E+03  EK= 0.30682E+00 SP= 0.00E+00 SK= 0.00E+00
       N       E                     dE             d eps       ncg     rms          rms(c)
RMM:   1    -0.413169317974E+03    0.41819E-02   -0.10225E+01  4295   0.746E-01    0.910E-01
RMM:   2    -0.413176819009E+03   -0.75010E-02   -0.12417E-01  4285   0.981E-02    0.644E-01
RMM:   3    -0.413174774440E+03    0.20446E-02   -0.10691E-02  4889   0.478E-02    0.149E-01
RMM:   4    -0.413209851264E+03   -0.35077E-01   -0.37094E-02  5142   0.160E-01    0.779E-01
RMM:   5    -0.413174058882E+03    0.35792E-01   -0.17476E-02  4791   0.131E-01    0.492E-02
RMM:   6    -0.413174257681E+03   -0.19880E-03   -0.29900E-03  5762   0.530E-02    0.317E-02
RMM:   7    -0.413174257905E+03   -0.22402E-06   -0.43191E-04  5741   0.189E-02    0.203E-02
RMM:   8    -0.413174247770E+03    0.10135E-04   -0.75172E-05  5138   0.901E-03    0.104E-02
RMM:   9    -0.413174239965E+03    0.78056E-05   -0.15133E-05  4168   0.442E-03    0.740E-03
RMM:  10    -0.413174235085E+03    0.48791E-05   -0.20493E-06  2577   0.220E-03    0.475E-03
RMM:  11    -0.413174230728E+03    0.43574E-05   -0.13640E-06  2523   0.185E-03    0.255E-03
RMM:  12    -0.413174224007E+03    0.67213E-05   -0.15864E-06  2529   0.198E-03    0.903E-04
RMM:  13    -0.413174221752E+03    0.22543E-05   -0.51339E-07  2339   0.128E-03    0.654E-04
RMM:  14    -0.413174221849E+03   -0.96585E-07   -0.23848E-07  1884   0.857E-04
   23 T=    63. E= -.41286653E+03 F= -.41317422E+03 E0= -.41315233E+03  EK= 0.30769E+00 SP= 0.00E+00 SK= 0.00E+00
       N       E                     dE             d eps       ncg     rms          rms(c)
RMM:   1    -0.413171008268E+03    0.32135E-02   -0.10233E+01  4296   0.773E-01    0.892E-01
RMM:   2    -0.413178886226E+03   -0.78780E-02   -0.12652E-01  4284   0.102E-01    0.650E-01
RMM:   3    -0.413176022756E+03    0.28635E-02   -0.10484E-02  4715   0.457E-02    0.120E-01
RMM:   4    -0.413197771257E+03   -0.21749E-01   -0.22294E-02  5140   0.124E-01    0.617E-01
RMM:   5    -0.413175667900E+03    0.22103E-01   -0.10978E-02  4807   0.103E-01    0.418E-02
RMM:   6    -0.413175788073E+03   -0.12017E-03   -0.18353E-03  5808   0.408E-02    0.254E-02
RMM:   7    -0.413175790701E+03   -0.26285E-05   -0.22853E-04  5691   0.147E-02    0.133E-02
RMM:   8    -0.413175787855E+03    0.28466E-05   -0.49824E-05  4970   0.719E-03    0.890E-03
RMM:   9    -0.413175783357E+03    0.44977E-05   -0.10629E-05  3853   0.376E-03    0.669E-03
RMM:  10    -0.413175781865E+03    0.14913E-05   -0.14589E-06  2537   0.205E-03    0.428E-03
RMM:  11    -0.413175779625E+03    0.22407E-05   -0.17337E-06  2551   0.207E-03    0.203E-03
RMM:  12    -0.413175776858E+03    0.27671E-05   -0.10859E-06  2475   0.167E-03    0.721E-04
RMM:  13    -0.413175776327E+03    0.53067E-06   -0.35611E-07  2134   0.104E-03
   24 T=    63. E= -.41286690E+03 F= -.41317578E+03 E0= -.41315393E+03  EK= 0.30887E+00 SP= 0.00E+00 SK= 0.00E+00
       N       E                     dE             d eps       ncg     rms          rms(c)
RMM:   1    -0.413174089140E+03    0.16877E-02   -0.10334E+01  4296   0.807E-01    0.907E-01
RMM:   2    -0.413179714564E+03   -0.56254E-02   -0.12919E-01  4281   0.105E-01    0.656E-01
RMM:   3    -0.413176867941E+03    0.28466E-02   -0.10560E-02  4628   0.447E-02    0.119E-01
RMM:   4    -0.413192348503E+03   -0.15481E-01   -0.15854E-02  5145   0.105E-01    0.522E-01
RMM:   5    -0.413176651352E+03    0.15697E-01   -0.78411E-03  4818   0.867E-02    0.395E-02
RMM:   6    -0.413176721795E+03   -0.70443E-04   -0.13385E-03  5815   0.342E-02    0.230E-02
RMM:   7    -0.413176722343E+03   -0.54867E-06   -0.16327E-04  5586   0.126E-02    0.112E-02
RMM:   8    -0.413176714968E+03    0.73752E-05   -0.29625E-05  4716   0.568E-03    0.745E-03
RMM:   9    -0.413176713984E+03    0.98460E-06   -0.74111E-06  3411   0.317E-03
   25 T=    63. E= -.41286667E+03 F= -.41317671E+03 E0= -.41315492E+03  EK= 0.31004E+00 SP= 0.00E+00 SK= 0.00E+00
       N       E                     dE             d eps       ncg     rms          rms(c)
RMM:   1    -0.413173294176E+03    0.34208E-02   -0.10322E+01  4300   0.763E-01    0.920E-01
RMM:   2    -0.413180475450E+03   -0.71813E-02   -0.12556E-01  4341   0.102E-01    0.649E-01
RMM:   3    -0.413185054817E+03   -0.45794E-02   -0.16179E-02  5114   0.891E-02    0.373E-01
RMM:   4    -0.413199378064E+03   -0.14323E-01   -0.37724E-02  5059   0.166E-01    0.605E-01
RMM:   5    -0.413178079271E+03    0.21299E-01   -0.77854E-03  4653   0.100E-01    0.543E-02
RMM:   6    -0.413178084550E+03   -0.52791E-05   -0.15843E-03  5524   0.387E-02    0.297E-02
RMM:   7    -0.413178079127E+03    0.54230E-05   -0.28364E-04  5889   0.160E-02    0.181E-02
RMM:   8    -0.413178068899E+03    0.10228E-04   -0.59796E-05  5067   0.869E-03    0.750E-03
RMM:   9    -0.413178059028E+03    0.98718E-05   -0.83207E-06  3446   0.376E-03    0.369E-03
RMM:  10    -0.413178054938E+03    0.40896E-05   -0.14846E-06  2528   0.202E-03    0.235E-03
RMM:  11    -0.413178047070E+03    0.78681E-05   -0.11474E-06  2502   0.172E-03    0.142E-03
RMM:  12    -0.413178041641E+03    0.54287E-05   -0.54953E-07  2415   0.127E-03    0.487E-04
RMM:  13    -0.413178037765E+03    0.38758E-05   -0.28166E-07  1949   0.907E-04    0.276E-04
RMM:  14    -0.413178034725E+03    0.30403E-05   -0.15826E-07  1418   0.734E-04    0.183E-04
RMM:  15    -0.413178029067E+03    0.56578E-05   -0.15077E-07  1415   0.723E-04    0.130E-04
RMM:  16    -0.413178025535E+03    0.35318E-05   -0.10525E-07  1298   0.652E-04    0.119E-04
RMM:  17    -0.413178020951E+03    0.45847E-05   -0.11047E-07  1353   0.656E-04    0.582E-05
RMM:  18    -0.413178019454E+03    0.14966E-05   -0.51244E-08   946   0.558E-04    0.481E-05
RMM:  19    -0.413178018681E+03    0.77276E-06   -0.28498E-08   798   0.529E-04
   26 T=    63. E= -.41286658E+03 F= -.41317802E+03 E0= -.41315627E+03  EK= 0.31144E+00 SP= 0.00E+00 SK= 0.00E+00
       N       E                     dE             d eps       ncg     rms          rms(c)
RMM:   1    -0.413174667146E+03    0.33523E-02   -0.10294E+01  4287   0.782E-01    0.897E-01
RMM:   2    -0.413182482977E+03   -0.78158E-02   -0.12728E-01  4279   0.103E-01    0.651E-01
RMM:   3    -0.413179996037E+03    0.24869E-02   -0.10629E-02  4654   0.478E-02    0.122E-01
RMM:   4    -0.413199532022E+03   -0.19536E-01   -0.19932E-02  5149   0.118E-01    0.585E-01
RMM:   5    -0.413179729572E+03    0.19802E-01   -0.99397E-03  4818   0.971E-02    0.412E-02
RMM:   6    -0.413179823611E+03   -0.94039E-04   -0.16242E-03  5824   0.378E-02    0.249E-02
RMM:   7    -0.413179823999E+03   -0.38758E-06   -0.19392E-04  5555   0.138E-02    0.115E-02
RMM:   8    -0.413179819214E+03    0.47848E-05   -0.31321E-05  4708   0.578E-03    0.756E-03
RMM:   9    -0.413179816296E+03    0.29176E-05   -0.65521E-06  3188   0.293E-03    0.567E-03
RMM:  10    -0.413179815086E+03    0.12108E-05   -0.13626E-06  2523   0.192E-03    0.391E-03
RMM:  11    -0.413179811437E+03    0.36482E-05   -0.18816E-06  2563   0.218E-03    0.183E-03
RMM:  12    -0.413179808500E+03    0.29376E-05   -0.98970E-07  2465   0.164E-03    0.109E-03
RMM:  13    -0.413179808063E+03    0.43687E-06   -0.28449E-07  2167   0.993E-04
   27 T=    64. E= -.41286677E+03 F= -.41317981E+03 E0= -.41315811E+03  EK= 0.31304E+00 SP= 0.00E+00 SK= 0.00E+00
       N       E                     dE             d eps       ncg     rms          rms(c)
RMM:   1    -0.413177206531E+03    0.26020E-02   -0.10421E+01  4293   0.811E-01    0.907E-01
RMM:   2    -0.413183829940E+03   -0.66234E-02   -0.13216E-01  4278   0.108E-01    0.662E-01
RMM:   3    -0.413181017882E+03    0.28121E-02   -0.10757E-02  4357   0.450E-02    0.110E-01
RMM:   4    -0.413185100711E+03   -0.40828E-02   -0.45951E-03  5143   0.574E-02    0.271E-01
RMM:   5    -0.413180999666E+03    0.41010E-02   -0.20844E-03  4823   0.447E-02    0.351E-02
RMM:   6    -0.413181006695E+03   -0.70293E-05   -0.47285E-04  5735   0.206E-02    0.209E-02
RMM:   7    -0.413180999068E+03    0.76272E-05   -0.17338E-04  5221   0.133E-02    0.144E-02
RMM:   8    -0.413180988091E+03    0.10977E-04   -0.11627E-05  3770   0.476E-03    0.573E-03
RMM:   9    -0.413180986367E+03    0.17238E-05   -0.25998E-06  2649   0.220E-03    0.364E-03
RMM:  10    -0.413180983863E+03    0.25045E-05   -0.12980E-06  2481   0.181E-03    0.195E-03
RMM:  11    -0.413180981560E+03    0.23021E-05   -0.59190E-07  2365   0.131E-03    0.930E-04
RMM:  12    -0.413180979457E+03    0.21034E-05   -0.33542E-07  2020   0.956E-04    0.371E-04
RMM:  13    -0.413180977652E+03    0.18049E-05   -0.20079E-07  1602   0.779E-04    0.251E-04
RMM:  14    -0.413180975534E+03    0.21180E-05   -0.12182E-07  1242   0.685E-04    0.149E-04
RMM:  15    -0.413180972927E+03    0.26077E-05   -0.97401E-08  1211   0.660E-04    0.722E-05
RMM:  16    -0.413180971160E+03    0.17666E-05   -0.59762E-08  1037   0.605E-04    0.512E-05
RMM:  17    -0.413180968911E+03    0.22489E-05   -0.59261E-08  1117   0.597E-04    0.412E-05
RMM:  18    -0.413180968352E+03    0.55920E-06   -0.21769E-08   758   0.528E-04
   28 T=    64. E= -.41286644E+03 F= -.41318097E+03 E0= -.41315932E+03  EK= 0.31453E+00 SP= 0.00E+00 SK= 0.00E+00
       N       E                     dE             d eps       ncg     rms          rms(c)
RMM:   1    -0.413178314025E+03    0.26549E-02   -0.10444E+01  4291   0.788E-01    0.928E-01
RMM:   2    -0.413185470742E+03   -0.71567E-02   -0.12798E-01  4276   0.106E-01    0.655E-01
RMM:   3    -0.413183104428E+03    0.23663E-02   -0.11028E-02  4601   0.482E-02    0.129E-01
RMM:   4    -0.413198820693E+03   -0.15716E-01   -0.16011E-02  5154   0.106E-01    0.526E-01
RMM:   5    -0.413182923777E+03    0.15897E-01   -0.80266E-03  4823   0.870E-02    0.411E-02
RMM:   6    -0.413182984651E+03   -0.60874E-04   -0.13368E-03  5847   0.342E-02    0.248E-02
RMM:   7    -0.413182983857E+03    0.79337E-06   -0.19814E-04  5567   0.142E-02    0.138E-02
RMM:   8    -0.413182970840E+03    0.13017E-04   -0.36385E-05  4805   0.652E-03    0.773E-03
RMM:   9    -0.413182967949E+03    0.28909E-05   -0.79541E-06  3494   0.340E-03    0.611E-03
RMM:  10    -0.413182962534E+03    0.54154E-05   -0.12224E-06  2510   0.201E-03    0.357E-03
RMM:  11    -0.413182956819E+03    0.57144E-05   -0.10312E-06  2495   0.169E-03    0.182E-03
RMM:  12    -0.413182950292E+03    0.65269E-05   -0.86132E-07  2454   0.149E-03    0.825E-04
RMM:  13    -0.413182948358E+03    0.19344E-05   -0.31035E-07  2113   0.985E-04    0.434E-04
RMM:  14    -0.413182947084E+03    0.12741E-05   -0.14485E-07  1468   0.721E-04    0.337E-04
RMM:  15    -0.413182943225E+03    0.38591E-05   -0.12063E-07  1496   0.713E-04    0.150E-04
RMM:  16    -0.413182941000E+03    0.22243E-05   -0.63554E-08  1111   0.619E-04    0.150E-04
RMM:  17    -0.413182938636E+03    0.23646E-05   -0.46720E-08   975   0.585E-04    0.117E-04
RMM:  18    -0.413182935278E+03    0.33581E-05   -0.55750E-08  1091   0.597E-04    0.605E-05
RMM:  19    -0.413182934427E+03    0.85049E-06   -0.21023E-08   745   0.533E-04
   29 T=    64. E= -.41286660E+03 F= -.41318293E+03 E0= -.41316134E+03  EK= 0.31634E+00 SP= 0.00E+00 SK= 0.00E+00
       N       E                     dE             d eps       ncg     rms          rms(c)
RMM:   1    -0.413179868100E+03    0.30672E-02   -0.10400E+01  4287   0.797E-01    0.907E-01
RMM:   2    -0.413187798825E+03   -0.79307E-02   -0.12930E-01  4272   0.112E-01    0.654E-01
RMM:   3    -0.413185016085E+03    0.27827E-02   -0.10825E-02  4522   0.495E-02    0.120E-01
RMM:   4    -0.413196473681E+03   -0.11458E-01   -0.11831E-02  5156   0.915E-02    0.451E-01
RMM:   5    -0.413184880087E+03    0.11594E-01   -0.59064E-03  4831   0.743E-02    0.388E-02
RMM:   6    -0.413184916532E+03   -0.36445E-04   -0.10016E-03  5842   0.296E-02    0.237E-02
RMM:   7    -0.413184918506E+03   -0.19740E-05   -0.21417E-04  5464   0.146E-02    0.155E-02
RMM:   8    -0.413184902283E+03    0.16223E-04   -0.30629E-05  4662   0.651E-03    0.695E-03
RMM:   9    -0.413184900175E+03    0.21080E-05   -0.57821E-06  3105   0.299E-03    0.524E-03
RMM:  10    -0.413184896548E+03    0.36270E-05   -0.13124E-06  2500   0.196E-03    0.298E-03
RMM:  11    -0.413184892719E+03    0.38286E-05   -0.86433E-07  2474   0.158E-03    0.151E-03
RMM:  12    -0.413184888791E+03    0.39286E-05   -0.60796E-07  2379   0.128E-03    0.754E-04
RMM:  13    -0.413184887256E+03    0.15344E-05   -0.25159E-07  1946   0.888E-04    0.324E-04
RMM:  14    -0.413184885725E+03    0.15311E-05   -0.13135E-07  1338   0.699E-04    0.207E-04
RMM:  15    -0.413184882968E+03    0.27578E-05   -0.99266E-08  1281   0.669E-04    0.892E-05
RMM:  16    -0.413184881208E+03    0.17599E-05   -0.56526E-08   989   0.616E-04    0.793E-05
RMM:  17    -0.413184879593E+03    0.16144E-05   -0.45134E-08   974   0.598E-04    0.605E-05
RMM:  18    -0.413184876810E+03    0.27835E-05   -0.55551E-08  1114   0.609E-04    0.326E-05
RMM:  19    -0.413184876151E+03    0.65848E-06   -0.22062E-08   776   0.541E-04
   30 T=    65. E= -.41286672E+03 F= -.41318488E+03 E0= -.41316333E+03  EK= 0.31816E+00 SP= 0.00E+00 SK= 0.00E+00
       N       E                     dE             d eps       ncg     rms          rms(c)
RMM:   1    -0.413184072799E+03    0.80401E-03   -0.10550E+01  4292   0.843E-01    0.909E-01
RMM:   2    -0.413190091194E+03   -0.60184E-02   -0.13827E-01  4276   0.119E-01    0.668E-01
RMM:   3    -0.413186622947E+03    0.34682E-02   -0.11034E-02  4504   0.543E-02    0.121E-01
RMM:   4    -0.413198977861E+03   -0.12355E-01   -0.12671E-02  5154   0.947E-02    0.467E-01
RMM:   5    -0.413186531645E+03    0.12446E-01   -0.63229E-03  4830   0.767E-02    0.384E-02
RMM:   6    -0.413186571807E+03   -0.40162E-04   -0.10434E-03  5859   0.302E-02    0.232E-02
RMM:   7    -0.413186577996E+03   -0.61885E-05   -0.19920E-04  5506   0.141E-02    0.146E-02
RMM:   8    -0.413186564203E+03    0.13793E-04   -0.32411E-05  4716   0.651E-03    0.691E-03
RMM:   9    -0.413186563158E+03    0.10447E-05   -0.62160E-06  3174   0.311E-03    0.527E-03
RMM:  10    -0.413186561077E+03    0.20805E-05   -0.12478E-06  2501   0.194E-03    0.303E-03
RMM:  11    -0.413186558918E+03    0.21593E-05   -0.81894E-07  2474   0.153E-03    0.155E-03
RMM:  12    -0.413186556430E+03    0.24878E-05   -0.67138E-07  2411   0.131E-03    0.799E-04
RMM:  13    -0.413186555390E+03    0.10404E-05   -0.25533E-07  1968   0.896E-04    0.357E-04
RMM:  14    -0.413186554446E+03    0.94384E-06   -0.12446E-07  1301   0.686E-04
   31 T=    65. E= -.41286652E+03 F= -.41318655E+03 E0= -.41316506E+03  EK= 0.32004E+00 SP= 0.00E+00 SK= 0.00E+00
       N       E                     dE             d eps       ncg     rms          rms(c)
RMM:   1    -0.413184672842E+03    0.18825E-02   -0.10586E+01  4292   0.822E-01    0.934E-01
RMM:   2    -0.413192105402E+03   -0.74326E-02   -0.13195E-01  4276   0.121E-01    0.663E-01
RMM:   3    -0.413189267404E+03    0.28380E-02   -0.11308E-02  4396   0.548E-02    0.123E-01
RMM:   4    -0.413195564939E+03   -0.62975E-02   -0.67945E-03  5167   0.697E-02    0.335E-01
RMM:   5    -0.413189261086E+03    0.63039E-02   -0.32170E-03  4831   0.551E-02    0.383E-02
RMM:   6    -0.413189279585E+03   -0.18499E-04   -0.68327E-04  5775   0.248E-02    0.268E-02
RMM:   7    -0.413189261528E+03    0.18057E-04   -0.23222E-04  5277   0.151E-02    0.152E-02
RMM:   8    -0.413189249033E+03    0.12495E-04   -0.17972E-05  4196   0.547E-03    0.647E-03
RMM:   9    -0.413189245692E+03    0.33413E-05   -0.27777E-06  2690   0.228E-03    0.423E-03
RMM:  10    -0.413189239380E+03    0.63115E-05   -0.12021E-06  2486   0.179E-03    0.219E-03
RMM:  11    -0.413189233686E+03    0.56944E-05   -0.72102E-07  2426   0.140E-03    0.106E-03
RMM:  12    -0.413189228652E+03    0.50332E-05   -0.40003E-07  2171   0.107E-03    0.475E-04
RMM:  13    -0.413189225799E+03    0.28532E-05   -0.21051E-07  1704   0.807E-04    0.245E-04
RMM:  14    -0.413189222303E+03    0.34959E-05   -0.11462E-07  1250   0.684E-04    0.148E-04
RMM:  15    -0.413189217313E+03    0.49902E-05   -0.96692E-08  1268   0.669E-04    0.845E-05
RMM:  16    -0.413189215141E+03    0.21719E-05   -0.54475E-08  1039   0.601E-04    0.712E-05
RMM:  17    -0.413189211191E+03    0.39499E-05   -0.63081E-08  1196   0.616E-04    0.369E-05
RMM:  18    -0.413189209234E+03    0.19571E-05   -0.37391E-08   980   0.561E-04    0.215E-05
RMM:  19    -0.413189208783E+03    0.45145E-06   -0.15888E-08   719   0.515E-04
   32 T=    66. E= -.41286689E+03 F= -.41318921E+03 E0= -.41316776E+03  EK= 0.32232E+00 SP= 0.00E+00 SK= 0.00E+00
       N       E                     dE             d eps       ncg     rms          rms(c)
RMM:   1    -0.413186371452E+03    0.28378E-02   -0.10555E+01  4291   0.836E-01    0.921E-01
RMM:   2    -0.413194077129E+03   -0.77057E-02   -0.13295E-01  4283   0.126E-01    0.659E-01
RMM:   3    -0.413191072430E+03    0.30047E-02   -0.11005E-02  4254   0.517E-02    0.121E-01
RMM:   4    -0.413191920734E+03   -0.84830E-03   -0.16143E-03  5072   0.327E-02    0.119E-01
RMM:   5    -0.413191175037E+03    0.74570E-03   -0.41856E-04  4774   0.207E-02    0.371E-02
RMM:   6    -0.413191179703E+03   -0.46654E-05   -0.28370E-04  5417   0.168E-02    0.267E-02
RMM:   7    -0.413191149943E+03    0.29760E-04   -0.17663E-04  4878   0.127E-02    0.151E-02
RMM:   8    -0.413191144931E+03    0.50121E-05   -0.16343E-05  3889   0.451E-03    0.512E-03
RMM:   9    -0.413191143376E+03    0.15551E-05   -0.22719E-06  2470   0.203E-03    0.262E-03
RMM:  10    -0.413191136503E+03    0.68729E-05   -0.86701E-07  2404   0.144E-03    0.106E-03
RMM:  11    -0.413191132300E+03    0.42028E-05   -0.35653E-07  2021   0.940E-04    0.390E-04
RMM:  12    -0.413191128579E+03    0.37208E-05   -0.19065E-07  1632   0.775E-04    0.231E-04
RMM:  13    -0.413191125613E+03    0.29662E-05   -0.10457E-07  1238   0.671E-04    0.145E-04
RMM:  14    -0.413191120953E+03    0.46598E-05   -0.81153E-08  1121   0.645E-04    0.881E-05
RMM:  15    -0.413191117169E+03    0.37838E-05   -0.59042E-08  1055   0.610E-04    0.738E-05
RMM:  16    -0.413191113925E+03    0.32446E-05   -0.47094E-08  1000   0.584E-04    0.435E-05
RMM:  17    -0.413191112779E+03    0.11457E-05   -0.21707E-08   722   0.530E-04    0.289E-05
RMM:  18    -0.413191112036E+03    0.74273E-06   -0.13788E-08   653   0.519E-04
   33 T=    66. E= -.41286673E+03 F= -.41319111E+03 E0= -.41316971E+03  EK= 0.32438E+00 SP= 0.00E+00 SK= 0.00E+00
       N       E                     dE             d eps       ncg     rms          rms(c)
RMM:   1    -0.413197525431E+03   -0.64127E-02   -0.10753E+01  4299   0.920E-01    0.912E-01
RMM:   2    -0.413196647462E+03    0.87797E-03   -0.15397E-01  4275   0.134E-01    0.674E-01
RMM:   3    -0.413193418903E+03    0.32286E-02   -0.10471E-02  4221   0.549E-02    0.137E-01
RMM:   4    -0.413193812842E+03   -0.39394E-03   -0.14784E-03  4986   0.290E-02    0.838E-02
RMM:   5    -0.413193484221E+03    0.32862E-03   -0.22707E-04  4719   0.153E-02    0.368E-02
RMM:   6    -0.413193485703E+03   -0.14816E-05   -0.23831E-04  5346   0.154E-02    0.252E-02
RMM:   7    -0.413193462295E+03    0.23408E-04   -0.16803E-04  4820   0.125E-02    0.151E-02
RMM:   8    -0.413193457762E+03    0.45327E-05   -0.15118E-05  3659   0.434E-03    0.484E-03
RMM:   9    -0.413193457190E+03    0.57198E-06   -0.23242E-06  2369   0.200E-03
   34 T=    67. E= -.41286671E+03 F= -.41319346E+03 E0= -.41317210E+03  EK= 0.32674E+00 SP= 0.00E+00 SK= 0.00E+00
       N       E                     dE             d eps       ncg     rms          rms(c)
RMM:   1    -0.413192745859E+03    0.71190E-03   -0.10762E+01  4303   0.886E-01    0.938E-01
RMM:   2    -0.413198983252E+03   -0.62374E-02   -0.13817E-01  4269   0.129E-01    0.672E-01
RMM:   3    -0.413196105247E+03    0.28780E-02   -0.11322E-02  4300   0.562E-02    0.122E-01
RMM:   4    -0.413196200701E+03   -0.95453E-04   -0.10332E-03  4838   0.212E-02    0.399E-02
RMM:   5    -0.413196289924E+03   -0.89224E-04   -0.21141E-04  5047   0.143E-02    0.575E-02
RMM:   6    -0.413196182558E+03    0.10737E-03   -0.20335E-04  5256   0.140E-02    0.314E-02
RMM:   7    -0.413196140104E+03    0.42454E-04   -0.19609E-04  4916   0.132E-02    0.134E-02
RMM:   8    -0.413196135596E+03    0.45079E-05   -0.15103E-05  4105   0.474E-03    0.543E-03
RMM:   9    -0.413196133893E+03    0.17031E-05   -0.30499E-06  2390   0.197E-03    0.187E-03
RMM:  10    -0.413196124793E+03    0.90996E-05   -0.74012E-07  2305   0.137E-03    0.842E-04
RMM:  11    -0.413196119329E+03    0.54636E-05   -0.22414E-07  1589   0.796E-04    0.448E-04
RMM:  12    -0.413196114818E+03    0.45115E-05   -0.12224E-07  1210   0.676E-04    0.226E-04
RMM:  13    -0.413196109681E+03    0.51372E-05   -0.10052E-07  1103   0.653E-04    0.170E-04
RMM:  14    -0.413196103446E+03    0.62344E-05   -0.89495E-08  1123   0.637E-04    0.134E-04
RMM:  15    -0.413196100013E+03    0.34331E-05   -0.42291E-08   751   0.557E-04    0.577E-05
RMM:  16    -0.413196095371E+03    0.46422E-05   -0.53441E-08   943   0.586E-04    0.533E-05
RMM:  17    -0.413196094585E+03    0.78568E-06   -0.15388E-08   557   0.503E-04
   35 T=    67. E= -.41286680E+03 F= -.41319609E+03 E0= -.41317479E+03  EK= 0.32930E+00 SP= 0.00E+00 SK= 0.00E+00
       N       E                     dE             d eps       ncg     rms          rms(c)
RMM:   1    -0.413194166534E+03    0.19288E-02   -0.10755E+01  4298   0.909E-01    0.937E-01
RMM:   2    -0.413200775695E+03   -0.66092E-02   -0.13804E-01  4259   0.131E-01    0.667E-01
RMM:   3    -0.413198353678E+03    0.24220E-02   -0.11460E-02  4630   0.590E-02    0.143E-01
RMM:   4    -0.413222516295E+03   -0.24163E-01   -0.24412E-02  5160   0.131E-01    0.650E-01
RMM:   5    -0.413198118146E+03    0.24398E-01   -0.12389E-02  4806   0.108E-01    0.455E-02
RMM:   6    -0.413198148172E+03   -0.30026E-04   -0.20083E-03  5839   0.428E-02    0.290E-02
RMM:   7    -0.413198155813E+03   -0.76416E-05   -0.30354E-04  5632   0.167E-02    0.167E-02
RMM:   8    -0.413198142195E+03    0.13619E-04   -0.56785E-05  5002   0.799E-03    0.924E-03
RMM:   9    -0.413198138858E+03    0.33363E-05   -0.13429E-05  4126   0.433E-03    0.656E-03
RMM:  10    -0.413198132424E+03    0.64340E-05   -0.18832E-06  2584   0.228E-03    0.374E-03
RMM:  11    -0.413198128307E+03    0.41172E-05   -0.97222E-07  2475   0.162E-03    0.228E-03
RMM:  12    -0.413198118797E+03    0.95102E-05   -0.13769E-06  2501   0.192E-03    0.118E-03
RMM:  13    -0.413198114644E+03    0.41531E-05   -0.50742E-07  2325   0.126E-03    0.661E-04
RMM:  14    -0.413198114104E+03    0.53970E-06   -0.21533E-07  1817   0.831E-04
   36 T=    68. E= -.41286641E+03 F= -.41319811E+03 E0= -.41317685E+03  EK= 0.33171E+00 SP= 0.00E+00 SK= 0.00E+00
       N       E                     dE             d eps       ncg     rms          rms(c)
RMM:   1    -0.413211603033E+03   -0.13488E-01   -0.10975E+01  4304   0.104E+00    0.921E-01
RMM:   2    -0.413204682230E+03    0.69208E-02   -0.15941E-01  4258   0.142E-01    0.679E-01
RMM:   3    -0.413201379697E+03    0.33025E-02   -0.10636E-02  4605   0.574E-02    0.153E-01
RMM:   4    -0.413221889787E+03   -0.20510E-01   -0.20923E-02  5161   0.122E-01    0.600E-01
RMM:   5    -0.413201205384E+03    0.20684E-01   -0.10491E-02  4804   0.997E-02    0.440E-02
RMM:   6    -0.413201222650E+03   -0.17266E-04   -0.17438E-03  5841   0.396E-02    0.283E-02
RMM:   7    -0.413201232769E+03   -0.10119E-04   -0.29504E-04  5601   0.163E-02    0.167E-02
RMM:   8    -0.413201218553E+03    0.14215E-04   -0.55830E-05  4992   0.805E-03    0.852E-03
RMM:   9    -0.413201216533E+03    0.20200E-05   -0.11353E-05  3902   0.408E-03    0.583E-03
RMM:  10    -0.413201212376E+03    0.41574E-05   -0.15997E-06  2564   0.212E-03    0.341E-03
RMM:  11    -0.413201209001E+03    0.33752E-05   -0.94470E-07  2493   0.158E-03    0.192E-03
RMM:  12    -0.413201202901E+03    0.60997E-05   -0.11084E-06  2491   0.166E-03    0.930E-04
RMM:  13    -0.413201200230E+03    0.26712E-05   -0.41671E-07  2205   0.111E-03    0.526E-04
RMM:  14    -0.413201199569E+03    0.66112E-06   -0.18753E-07  1593   0.773E-04
   37 T=    68. E= -.41286673E+03 F= -.41320120E+03 E0= -.41317998E+03  EK= 0.33447E+00 SP= 0.00E+00 SK= 0.00E+00
       N       E                     dE             d eps       ncg     rms          rms(c)
RMM:   1    -0.413212948329E+03   -0.11748E-01   -0.11074E+01  4304   0.106E+00    0.942E-01
RMM:   2    -0.413207325681E+03    0.56226E-02   -0.15816E-01  4258   0.134E-01    0.684E-01
RMM:   3    -0.413204038495E+03    0.32872E-02   -0.11080E-02  4782   0.561E-02    0.168E-01
RMM:   4    -0.413239812122E+03   -0.35774E-01   -0.36738E-02  5149   0.160E-01    0.787E-01
RMM:   5    -0.413203556194E+03    0.36256E-01   -0.18345E-02  4806   0.132E-01    0.500E-02
RMM:   6    -0.413203633226E+03   -0.77032E-04   -0.29018E-03  5848   0.507E-02    0.312E-02
RMM:   7    -0.413203641358E+03   -0.81326E-05   -0.36141E-04  5720   0.176E-02    0.165E-02
RMM:   8    -0.413203632391E+03    0.89675E-05   -0.60002E-05  5019   0.794E-03    0.973E-03
RMM:   9    -0.413203630356E+03    0.20342E-05   -0.21332E-05  4562   0.496E-03    0.721E-03
RMM:  10    -0.413203624096E+03    0.62608E-05   -0.27773E-06  2655   0.260E-03    0.417E-03
RMM:  11    -0.413203620530E+03    0.35659E-05   -0.13292E-06  2496   0.187E-03    0.258E-03
RMM:  12    -0.413203611681E+03    0.88491E-05   -0.17212E-06  2529   0.215E-03    0.122E-03
RMM:  13    -0.413203607910E+03    0.37706E-05   -0.63198E-07  2387   0.141E-03    0.815E-04
RMM:  14    -0.413203607713E+03    0.19687E-06   -0.25008E-07  1984   0.902E-04
   38 T=    69. E= -.41286658E+03 F= -.41320361E+03 E0= -.41318243E+03  EK= 0.33703E+00 SP= 0.00E+00 SK= 0.00E+00
       N       E                     dE             d eps       ncg     rms          rms(c)
RMM:   1    -0.413203489283E+03    0.11863E-03   -0.10981E+01  4305   0.101E+00    0.954E-01
RMM:   2    -0.413209491734E+03   -0.60025E-02   -0.14386E-01  4264   0.124E-01    0.677E-01
RMM:   3    -0.413206762691E+03    0.27290E-02   -0.11849E-02  4914   0.552E-02    0.172E-01
RMM:   4    -0.413248754879E+03   -0.41992E-01   -0.44312E-02  5138   0.175E-01    0.851E-01
RMM:   5    -0.413206050910E+03    0.42704E-01   -0.21321E-02  4800   0.142E-01    0.536E-02
RMM:   6    -0.413206159201E+03   -0.10829E-03   -0.34286E-03  5826   0.548E-02    0.329E-02
RMM:   7    -0.413206167599E+03   -0.83987E-05   -0.40817E-04  5705   0.185E-02    0.172E-02
RMM:   8    -0.413206156795E+03    0.10804E-04   -0.52985E-05  4862   0.733E-03    0.912E-03
RMM:   9    -0.413206154182E+03    0.26130E-05   -0.21141E-05  4482   0.468E-03    0.767E-03
RMM:  10    -0.413206146393E+03    0.77890E-05   -0.38773E-06  2846   0.281E-03    0.432E-03
RMM:  11    -0.413206140736E+03    0.56579E-05   -0.17838E-06  2537   0.210E-03    0.258E-03
RMM:  12    -0.413206128389E+03    0.12347E-04   -0.18346E-06  2535   0.222E-03    0.116E-03
RMM:  13    -0.413206124546E+03    0.38433E-05   -0.55783E-07  2414   0.140E-03    0.746E-04
RMM:  14    -0.413206124507E+03    0.38774E-07   -0.23658E-07  1981   0.883E-04
   39 T=    69. E= -.41286654E+03 F= -.41320612E+03 E0= -.41318498E+03  EK= 0.33959E+00 SP= 0.00E+00 SK= 0.00E+00
       N       E                     dE             d eps       ncg     rms          rms(c)
RMM:   1    -0.413224750335E+03   -0.18626E-01   -0.11184E+01  4309   0.116E+00    0.932E-01
RMM:   2    -0.413212945581E+03    0.11805E-01   -0.16561E-01  4265   0.135E-01    0.684E-01
RMM:   3    -0.413210038537E+03    0.29070E-02   -0.11098E-02  4977   0.572E-02    0.205E-01
RMM:   4    -0.413262852720E+03   -0.52814E-01   -0.57530E-02  5136   0.200E-01    0.952E-01
RMM:   5    -0.413208824165E+03    0.54029E-01   -0.26511E-02  4786   0.160E-01    0.587E-02
RMM:   6    -0.413209005313E+03   -0.18115E-03   -0.44885E-03  5826   0.616E-02    0.344E-02
RMM:   7    -0.413209019857E+03   -0.14544E-04   -0.50692E-04  5810   0.200E-02    0.198E-02
RMM:   8    -0.413209020611E+03   -0.75320E-06   -0.10413E-04  5220   0.985E-03    0.130E-02
RMM:   9    -0.413209008704E+03    0.11906E-04   -0.28909E-05  4735   0.591E-03    0.725E-03
RMM:  10    -0.413209004131E+03    0.45733E-05   -0.47212E-06  2848   0.300E-03    0.445E-03
RMM:  11    -0.413209000333E+03    0.37982E-05   -0.17229E-06  2506   0.215E-03    0.269E-03
RMM:  12    -0.413208992485E+03    0.78477E-05   -0.15741E-06  2515   0.209E-03    0.933E-04
RMM:  13    -0.413208988569E+03    0.39159E-05   -0.65592E-07  2410   0.143E-03    0.685E-04
RMM:  14    -0.413208987818E+03    0.75111E-06   -0.28181E-07  2069   0.947E-04
   40 T=    70. E= -.41286677E+03 F= -.41320899E+03 E0= -.41318788E+03  EK= 0.34222E+00 SP= 0.00E+00 SK= 0.00E+00
       N       E                     dE             d eps       ncg     rms          rms(c)
RMM:   1    -0.413230062205E+03   -0.21074E-01   -0.11349E+01  4310   0.121E+00    0.944E-01
RMM:   2    -0.413214999343E+03    0.15063E-01   -0.17774E-01  4274   0.143E-01    0.695E-01
RMM:   3    -0.413212615080E+03    0.23843E-02   -0.11457E-02  5030   0.613E-02    0.241E-01
RMM:   4    -0.413270066918E+03   -0.57452E-01   -0.65498E-02  5129   0.213E-01    0.995E-01
RMM:   5    -0.413210809310E+03    0.59258E-01   -0.28748E-02  4779   0.168E-01    0.619E-02
RMM:   6    -0.413210999613E+03   -0.19030E-03   -0.47305E-03  5815   0.643E-02    0.352E-02
RMM:   7    -0.413211015858E+03   -0.16245E-04   -0.57029E-04  5829   0.211E-02    0.224E-02
RMM:   8    -0.413211016474E+03   -0.61643E-06   -0.12984E-04  5286   0.111E-02    0.141E-02
RMM:   9    -0.413211002228E+03    0.14247E-04   -0.28333E-05  4703   0.618E-03    0.651E-03
RMM:  10    -0.413210997940E+03    0.42881E-05   -0.58530E-06  3015   0.305E-03    0.406E-03
RMM:  11    -0.413210994404E+03    0.35360E-05   -0.15520E-06  2505   0.206E-03    0.241E-03
RMM:  12    -0.413210987680E+03    0.67242E-05   -0.12385E-06  2494   0.188E-03    0.807E-04
RMM:  13    -0.413210983904E+03    0.37751E-05   -0.57821E-07  2393   0.132E-03    0.526E-04
RMM:  14    -0.413210982842E+03    0.10627E-05   -0.26860E-07  2011   0.914E-04    0.362E-04
RMM:  15    -0.413210980697E+03    0.21450E-05   -0.14075E-07  1452   0.719E-04    0.184E-04
RMM:  16    -0.413210976316E+03    0.43805E-05   -0.10991E-07  1275   0.686E-04    0.158E-04
RMM:  17    -0.413210974864E+03    0.14520E-05   -0.57282E-08   983   0.613E-04    0.868E-05
RMM:  18    -0.413210971192E+03    0.36722E-05   -0.66629E-08  1218   0.642E-04    0.101E-04
RMM:  19    -0.413210969310E+03    0.18819E-05   -0.38509E-08  1001   0.586E-04    0.490E-05
RMM:  20    -0.413210968374E+03    0.93587E-06   -0.24813E-08   872   0.558E-04
   41 T=    70. E= -.41286656E+03 F= -.41321097E+03 E0= -.41318990E+03  EK= 0.34441E+00 SP= 0.00E+00 SK= 0.00E+00
       N       E                     dE             d eps       ncg     rms          rms(c)
RMM:   1    -0.413219879597E+03   -0.89103E-02   -0.11251E+01  4310   0.120E+00    0.968E-01
RMM:   2    -0.413216655850E+03    0.32237E-02   -0.14977E-01  4297   0.137E-01    0.686E-01
RMM:   3    -0.413217153442E+03   -0.49759E-03   -0.14794E-02  5077   0.765E-02    0.296E-01
RMM:   4    -0.413253112539E+03   -0.35959E-01   -0.52276E-02  5093   0.193E-01    0.822E-01
RMM:   5    -0.413213350303E+03    0.39762E-01   -0.17569E-02  4740   0.137E-01    0.590E-02
RMM:   6    -0.413213422732E+03   -0.72430E-04   -0.31174E-03  5762   0.528E-02    0.341E-02
RMM:   7    -0.413213428408E+03   -0.56759E-05   -0.44519E-04  5749   0.192E-02    0.219E-02
RMM:   8    -0.413213424338E+03    0.40702E-05   -0.11831E-04  5195   0.111E-02    0.123E-02
RMM:   9    -0.413213410419E+03    0.13919E-04   -0.19575E-05  4420   0.552E-03    0.513E-03
RMM:  10    -0.413213405184E+03    0.52353E-05   -0.41540E-06  2820   0.264E-03    0.323E-03
RMM:  11    -0.413213399887E+03    0.52971E-05   -0.12038E-06  2488   0.186E-03    0.176E-03
RMM:  12    -0.413213391761E+03    0.81256E-05   -0.80397E-07  2464   0.154E-03    0.675E-04
RMM:  13    -0.413213387299E+03    0.44625E-05   -0.38026E-07  2189   0.108E-03    0.330E-04
RMM:  14    -0.413213385078E+03    0.22208E-05   -0.20087E-07  1720   0.806E-04    0.224E-04
RMM:  15    -0.413213379859E+03    0.52189E-05   -0.12817E-07  1354   0.715E-04    0.133E-04
RMM:  16    -0.413213376966E+03    0.28935E-05   -0.81790E-08  1165   0.653E-04    0.103E-04
RMM:  17    -0.413213373769E+03    0.31967E-05   -0.64129E-08  1158   0.636E-04    0.748E-05
RMM:  18    -0.413213370790E+03    0.29785E-05   -0.53385E-08  1155   0.614E-04    0.462E-05
RMM:  19    -0.413213368265E+03    0.25253E-05   -0.39283E-08  1043   0.587E-04    0.371E-05
RMM:  20    -0.413213367875E+03    0.38974E-06   -0.17738E-08   750   0.537E-04
   42 T=    71. E= -.41286683E+03 F= -.41321337E+03 E0= -.41319233E+03  EK= 0.34654E+00 SP= 0.00E+00 SK= 0.00E+00
       N       E                     dE             d eps       ncg     rms          rms(c)
RMM:   1    -0.413235895180E+03   -0.22527E-01   -0.11345E+01  4310   0.134E+00    0.944E-01
RMM:   2    -0.413218725489E+03    0.17170E-01   -0.16467E-01  4300   0.149E-01    0.687E-01
RMM:   3    -0.413220230349E+03   -0.15049E-02   -0.14972E-02  5090   0.837E-02    0.336E-01
RMM:   4    -0.413253312544E+03   -0.33082E-01   -0.52975E-02  5083   0.195E-01    0.805E-01
RMM:   5    -0.413215282842E+03    0.38030E-01   -0.16396E-02  4715   0.134E-01    0.596E-02
RMM:   6    -0.413215333334E+03   -0.50493E-04   -0.29314E-03  5740   0.514E-02    0.335E-02
RMM:   7    -0.413215336984E+03   -0.36501E-05   -0.42202E-04  5775   0.188E-02    0.222E-02
RMM:   8    -0.413215333328E+03    0.36565E-05   -0.11485E-04  5173   0.110E-02    0.116E-02
RMM:   9    -0.413215321151E+03    0.12177E-04   -0.19746E-05  4434   0.555E-03    0.456E-03
RMM:  10    -0.413215317771E+03    0.33805E-05   -0.39305E-06  2784   0.254E-03    0.285E-03
RMM:  11    -0.413215313461E+03    0.43093E-05   -0.12595E-06  2493   0.185E-03    0.154E-03
RMM:  12    -0.413215308034E+03    0.54276E-05   -0.71251E-07  2433   0.144E-03    0.609E-04
RMM:  13    -0.413215304926E+03    0.31072E-05   -0.35087E-07  2048   0.101E-03    0.284E-04
RMM:  14    -0.413215302618E+03    0.23084E-05   -0.19438E-07  1557   0.782E-04    0.177E-04
RMM:  15    -0.413215298229E+03    0.43895E-05   -0.14031E-07  1295   0.715E-04    0.113E-04
RMM:  16    -0.413215296311E+03    0.19173E-05   -0.87490E-08  1122   0.656E-04    0.817E-05
RMM:  17    -0.413215293382E+03    0.29294E-05   -0.75485E-08  1200   0.653E-04    0.504E-05
RMM:  18    -0.413215291021E+03    0.23610E-05   -0.56467E-08  1115   0.617E-04    0.390E-05
RMM:  19    -0.413215289633E+03    0.13877E-05   -0.35721E-08   929   0.574E-04    0.202E-05
RMM:  20    -0.413215289003E+03    0.62978E-06   -0.22889E-08   799   0.549E-04
   43 T=    71. E= -.41286698E+03 F= -.41321529E+03 E0= -.41319427E+03  EK= 0.34831E+00 SP= 0.00E+00 SK= 0.00E+00
       N       E                     dE             d eps       ncg     rms          rms(c)
RMM:   1    -0.413234554479E+03   -0.19265E-01   -0.11429E+01  4310   0.137E+00    0.947E-01
RMM:   2    -0.413220088061E+03    0.14466E-01   -0.17174E-01  4308   0.164E-01    0.700E-01
RMM:   3    -0.413222648347E+03   -0.25603E-02   -0.16281E-02  5087   0.923E-02    0.372E-01
RMM:   4    -0.413252771685E+03   -0.30123E-01   -0.53787E-02  5059   0.197E-01    0.788E-01
RMM:   5    -0.413216373533E+03    0.36398E-01   -0.15305E-02  4707   0.131E-01    0.598E-02
RMM:   6    -0.413216402278E+03   -0.28745E-04   -0.27260E-03  5711   0.498E-02    0.329E-02
RMM:   7    -0.413216403315E+03   -0.10370E-05   -0.39324E-04  5776   0.184E-02    0.221E-02
RMM:   8    -0.413216399310E+03    0.40045E-05   -0.10838E-04  5155   0.108E-02    0.110E-02
RMM:   9    -0.413216388754E+03    0.10556E-04   -0.19240E-05  4404   0.552E-03    0.427E-03
RMM:  10    -0.413216386296E+03    0.24581E-05   -0.36801E-06  2768   0.245E-03    0.260E-03
RMM:  11    -0.413216382838E+03    0.34581E-05   -0.13142E-06  2504   0.183E-03    0.143E-03
RMM:  12    -0.413216378958E+03    0.38798E-05   -0.66208E-07  2431   0.138E-03    0.598E-04
RMM:  13    -0.413216376570E+03    0.23883E-05   -0.32917E-07  1924   0.955E-04    0.274E-04
RMM:  14    -0.413216374411E+03    0.21588E-05   -0.19412E-07  1496   0.767E-04    0.160E-04
RMM:  15    -0.413216371062E+03    0.33487E-05   -0.14500E-07  1279   0.711E-04    0.100E-04
RMM:  16    -0.413216369253E+03    0.18096E-05   -0.91864E-08  1115   0.655E-04    0.754E-05
RMM:  17    -0.413216366491E+03    0.27617E-05   -0.80371E-08  1196   0.653E-04    0.459E-05
RMM:  18    -0.413216364645E+03    0.18462E-05   -0.55341E-08  1063   0.611E-04    0.403E-05
RMM:  19    -0.413216363593E+03    0.10522E-05   -0.36601E-08   929   0.572E-04    0.220E-05
RMM:  20    -0.413216363099E+03    0.49399E-06   -0.21548E-08   774   0.543E-04
   44 T=    71. E= -.41286675E+03 F= -.41321636E+03 E0= -.41319537E+03  EK= 0.34961E+00 SP= 0.00E+00 SK= 0.00E+00
       N       E                     dE             d eps       ncg     rms          rms(c)
RMM:   1    -0.413238665899E+03   -0.22302E-01   -0.11452E+01  4309   0.148E+00    0.973E-01
RMM:   2    -0.413220792064E+03    0.17874E-01   -0.16648E-01  4332   0.168E-01    0.695E-01
RMM:   3    -0.413228427159E+03   -0.76351E-02   -0.20622E-02  5129   0.111E-01    0.468E-01
RMM:   4    -0.413239404644E+03   -0.10977E-01   -0.43471E-02  5034   0.181E-01    0.617E-01
RMM:   5    -0.413217752199E+03    0.21652E-01   -0.80022E-03  4618   0.104E-01    0.560E-02
RMM:   6    -0.413217721858E+03    0.30341E-04   -0.16550E-03  5530   0.393E-02    0.316E-02
RMM:   7    -0.413217718967E+03    0.28904E-05   -0.28288E-04  5598   0.163E-02    0.210E-02
RMM:   8    -0.413217709441E+03    0.95260E-05   -0.11251E-04  5068   0.110E-02    0.992E-03
RMM:   9    -0.413217696063E+03    0.13379E-04   -0.14912E-05  4226   0.530E-03    0.404E-03
RMM:  10    -0.413217692183E+03    0.38793E-05   -0.25976E-06  2683   0.221E-03    0.234E-03
RMM:  11    -0.413217685656E+03    0.65275E-05   -0.11112E-06  2477   0.174E-03    0.127E-03
RMM:  12    -0.413217679501E+03    0.61550E-05   -0.55133E-07  2385   0.129E-03    0.609E-04
RMM:  13    -0.413217675814E+03    0.36870E-05   -0.25678E-07  1810   0.885E-04    0.298E-04
RMM:  14    -0.413217672172E+03    0.36414E-05   -0.14289E-07  1335   0.708E-04    0.157E-04
RMM:  15    -0.413217666917E+03    0.52558E-05   -0.11430E-07  1267   0.682E-04    0.123E-04
RMM:  16    -0.413217664200E+03    0.27171E-05   -0.69336E-08  1055   0.624E-04    0.991E-05
RMM:  17    -0.413217659298E+03    0.49015E-05   -0.76954E-08  1327   0.649E-04    0.703E-05
RMM:  18    -0.413217657028E+03    0.22699E-05   -0.43994E-08  1044   0.573E-04    0.448E-05
RMM:  19    -0.413217655990E+03    0.10377E-05   -0.26420E-08   850   0.530E-04    0.286E-05
RMM:  20    -0.413217655378E+03    0.61272E-06   -0.15928E-08   723   0.515E-04
   45 T=    71. E= -.41286700E+03 F= -.41321766E+03 E0= -.41319669E+03  EK= 0.35065E+00 SP= 0.00E+00 SK= 0.00E+00
       N       E                     dE             d eps       ncg     rms          rms(c)
RMM:   1    -0.413251681281E+03   -0.34025E-01   -0.11476E+01  4309   0.160E+00    0.954E-01
RMM:   2    -0.413220609221E+03    0.31072E-01   -0.17717E-01  4350   0.183E-01    0.691E-01
RMM:   3    -0.413230715496E+03   -0.10106E-01   -0.22052E-02  5131   0.120E-01    0.522E-01
RMM:   4    -0.413235700605E+03   -0.49851E-02   -0.42350E-02  5019   0.180E-01    0.573E-01
RMM:   5    -0.413217478296E+03    0.18222E-01   -0.67111E-03  4586   0.988E-02    0.558E-02
RMM:   6    -0.413217427843E+03    0.50453E-04   -0.13432E-03  5388   0.361E-02    0.305E-02
RMM:   7    -0.413217425066E+03    0.27761E-05   -0.23253E-04  5574   0.150E-02    0.203E-02
RMM:   8    -0.413217416720E+03    0.83464E-05   -0.12190E-04  5087   0.113E-02    0.102E-02
RMM:   9    -0.413217402687E+03    0.14033E-04   -0.16131E-05  4326   0.554E-03    0.405E-03
RMM:  10    -0.413217399675E+03    0.30125E-05   -0.27337E-06  2692   0.222E-03    0.231E-03
RMM:  11    -0.413217393702E+03    0.59730E-05   -0.12412E-06  2484   0.180E-03    0.126E-03
RMM:  12    -0.413217389087E+03    0.46150E-05   -0.55766E-07  2408   0.131E-03    0.688E-04
RMM:  13    -0.413217385463E+03    0.36240E-05   -0.25899E-07  1773   0.889E-04    0.333E-04
RMM:  14    -0.413217381920E+03    0.35435E-05   -0.13989E-07  1321   0.701E-04    0.172E-04
RMM:  15    -0.413217377841E+03    0.40788E-05   -0.10216E-07  1170   0.660E-04    0.116E-04
RMM:  16    -0.413217375146E+03    0.26944E-05   -0.69171E-08  1050   0.619E-04    0.105E-04
RMM:  17    -0.413217371422E+03    0.37243E-05   -0.67685E-08  1194   0.627E-04    0.640E-05
RMM:  18    -0.413217368635E+03    0.27876E-05   -0.45354E-08  1018   0.582E-04    0.488E-05
RMM:  19    -0.413217367853E+03    0.78159E-06   -0.22295E-08   748   0.527E-04
   46 T=    71. E= -.41286676E+03 F= -.41321737E+03 E0= -.41319641E+03  EK= 0.35061E+00 SP= 0.00E+00 SK= 0.00E+00
       N       E                     dE             d eps       ncg     rms          rms(c)
RMM:   1    -0.413237322277E+03   -0.19954E-01   -0.11356E+01  4309   0.163E+00    0.942E-01
RMM:   2    -0.413219840499E+03    0.17482E-01   -0.18115E-01  4369   0.193E-01    0.703E-01
RMM:   3    -0.413231141445E+03   -0.11301E-01   -0.23417E-02  5128   0.128E-01    0.551E-01
RMM:   4    -0.413234867701E+03   -0.37263E-02   -0.44844E-02  5012   0.186E-01    0.578E-01
RMM:   5    -0.413216159272E+03    0.18708E-01   -0.68152E-03  4586   0.101E-01    0.571E-02
RMM:   6    -0.413216092885E+03    0.66387E-04   -0.13112E-03  5336   0.362E-02    0.302E-02
RMM:   7    -0.413216089624E+03    0.32612E-05   -0.22791E-04  5615   0.148E-02    0.204E-02
RMM:   8    -0.413216082769E+03    0.68547E-05   -0.12622E-04  5128   0.115E-02    0.105E-02
RMM:   9    -0.413216069570E+03    0.13199E-04   -0.17325E-05  4366   0.572E-03    0.407E-03
RMM:  10    -0.413216067531E+03    0.20390E-05   -0.29798E-06  2728   0.226E-03    0.235E-03
RMM:  11    -0.413216063345E+03    0.41864E-05   -0.13478E-06  2493   0.186E-03    0.129E-03
RMM:  12    -0.413216060281E+03    0.30639E-05   -0.58528E-07  2416   0.134E-03    0.721E-04
RMM:  13    -0.413216057464E+03    0.28163E-05   -0.28560E-07  1799   0.925E-04    0.348E-04
RMM:  14    -0.413216054815E+03    0.26494E-05   -0.15765E-07  1402   0.729E-04    0.181E-04
RMM:  15    -0.413216051922E+03    0.28932E-05   -0.11018E-07  1168   0.666E-04    0.110E-04
RMM:  16    -0.413216049783E+03    0.21388E-05   -0.77246E-08  1103   0.627E-04    0.997E-05
RMM:  17    -0.413216047196E+03    0.25872E-05   -0.67134E-08  1130   0.616E-04    0.556E-05
RMM:  18    -0.413216044821E+03    0.23747E-05   -0.51661E-08  1010   0.585E-04    0.451E-05
RMM:  19    -0.413216044258E+03    0.56270E-06   -0.20101E-08   687   0.522E-04
   47 T=    71. E= -.41286661E+03 F= -.41321604E+03 E0= -.41319510E+03  EK= 0.34944E+00 SP= 0.00E+00 SK= 0.00E+00
       N       E                     dE             d eps       ncg     rms          rms(c)
RMM:   1    -0.413247756547E+03   -0.31712E-01   -0.11387E+01  4304   0.177E+00    0.964E-01
RMM:   2    -0.413216946624E+03    0.30810E-01   -0.18140E-01  4426   0.203E-01    0.697E-01
RMM:   3    -0.413236726677E+03   -0.19780E-01   -0.30662E-02  5151   0.150E-01    0.669E-01
RMM:   4    -0.413224621121E+03    0.12106E-01   -0.41130E-02  4966   0.182E-01    0.455E-01
RMM:   5    -0.413213789434E+03    0.10832E-01   -0.44448E-03  4524   0.889E-02    0.582E-02
RMM:   6    -0.413213658347E+03    0.13109E-03   -0.56894E-04  4808   0.289E-02    0.302E-02
RMM:   7    -0.413213652438E+03    0.59094E-05   -0.20877E-04  5901   0.146E-02    0.163E-02
RMM:   8    -0.413213641626E+03    0.10812E-04   -0.10155E-04  5168   0.111E-02    0.114E-02
RMM:   9    -0.413213631658E+03    0.99674E-05   -0.16886E-05  4373   0.533E-03    0.454E-03
RMM:  10    -0.413213628019E+03    0.36390E-05   -0.26983E-06  2646   0.254E-03    0.231E-03
RMM:  11    -0.413213622291E+03    0.57284E-05   -0.18577E-06  2523   0.213E-03    0.155E-03
RMM:  12    -0.413213618271E+03    0.40201E-05   -0.66046E-07  2397   0.147E-03    0.901E-04
RMM:  13    -0.413213614313E+03    0.39575E-05   -0.30973E-07  1992   0.979E-04    0.511E-04
RMM:  14    -0.413213608299E+03    0.60138E-05   -0.23598E-07  1956   0.860E-04    0.481E-04
RMM:  15    -0.413213604730E+03    0.35689E-05   -0.10143E-07  1071   0.613E-04    0.193E-04
RMM:  16    -0.413213602071E+03    0.26593E-05   -0.72285E-08  1033   0.594E-04    0.991E-05
RMM:  17    -0.413213598734E+03    0.33367E-05   -0.64725E-08  1072   0.603E-04    0.743E-05
RMM:  18    -0.413213596891E+03    0.18437E-05   -0.38352E-08   890   0.563E-04    0.768E-05
RMM:  19    -0.413213595196E+03    0.16944E-05   -0.28916E-08   887   0.552E-04    0.527E-05
RMM:  20    -0.413213593698E+03    0.14980E-05   -0.25901E-08   873   0.536E-04    0.290E-05
RMM:  21    -0.413213593373E+03    0.32518E-06   -0.10293E-08   604   0.485E-04
   48 T=    71. E= -.41286681E+03 F= -.41321359E+03 E0= -.41319266E+03  EK= 0.34678E+00 SP= 0.00E+00 SK= 0.00E+00
       N       E                     dE             d eps       ncg     rms          rms(c)
RMM:   1    -0.413246218191E+03   -0.32624E-01   -0.11183E+01  4304   0.188E+00    0.952E-01
RMM:   2    -0.413211705739E+03    0.34512E-01   -0.17948E-01  4494   0.213E-01    0.686E-01
RMM:   3    -0.413239094303E+03   -0.27389E-01   -0.36888E-02  5154   0.167E-01    0.761E-01
RMM:   4    -0.413215977448E+03    0.23117E-01   -0.40648E-02  4944   0.184E-01    0.386E-01
RMM:   5    -0.413208798202E+03    0.71792E-02   -0.44281E-03  4696   0.892E-02    0.669E-02
RMM:   6    -0.413208583763E+03    0.21444E-03   -0.46308E-04  4646   0.301E-02    0.334E-02
RMM:   7    -0.413208591555E+03   -0.77921E-05   -0.26192E-04  5739   0.172E-02    0.245E-02
RMM:   8    -0.413208559278E+03    0.32277E-04   -0.88036E-05  4966   0.107E-02    0.928E-03
RMM:   9    -0.413208551853E+03    0.74248E-05   -0.17852E-05  4494   0.530E-03    0.440E-03
RMM:  10    -0.413208547409E+03    0.44438E-05   -0.23107E-06  2637   0.237E-03    0.259E-03
RMM:  11    -0.413208540936E+03    0.64732E-05   -0.98290E-07  2485   0.170E-03    0.156E-03
RMM:  12    -0.413208537167E+03    0.37688E-05   -0.36629E-07  2288   0.109E-03    0.795E-04
RMM:  13    -0.413208531761E+03    0.54062E-05   -0.33553E-07  2163   0.948E-04    0.451E-04
RMM:  14    -0.413208527778E+03    0.39830E-05   -0.16205E-07  1354   0.721E-04    0.280E-04
RMM:  15    -0.413208522915E+03    0.48633E-05   -0.12902E-07  1216   0.679E-04    0.132E-04
RMM:  16    -0.413208519959E+03    0.29562E-05   -0.82443E-08  1119   0.630E-04    0.843E-05
RMM:  17    -0.413208515440E+03    0.45188E-05   -0.93221E-08  1368   0.655E-04    0.915E-05
RMM:  18    -0.413208514425E+03    0.10146E-05   -0.38535E-08   910   0.539E-04    0.725E-05
RMM:  19    -0.413208512948E+03    0.14778E-05   -0.32624E-08   929   0.535E-04    0.290E-05
RMM:  20    -0.413208511991E+03    0.95634E-06   -0.23476E-08   832   0.511E-04
   49 T=    70. E= -.41286652E+03 F= -.41320851E+03 E0= -.41318759E+03  EK= 0.34199E+00 SP= 0.00E+00 SK= 0.00E+00
       N       E                     dE             d eps       ncg     rms          rms(c)
RMM:   1    -0.413225644462E+03   -0.17132E-01   -0.10839E+01  4303   0.191E+00    0.922E-01
RMM:   2    -0.413205870731E+03    0.19774E-01   -0.17749E-01  4527   0.221E-01    0.689E-01
RMM:   3    -0.413234198006E+03   -0.28327E-01   -0.37746E-02  5159   0.172E-01    0.779E-01
RMM:   4    -0.413209640686E+03    0.24557E-01   -0.42031E-02  4941   0.188E-01    0.383E-01
RMM:   5    -0.413202433918E+03    0.72068E-02   -0.48800E-03  4779   0.931E-02    0.714E-02
RMM:   6    -0.413202170934E+03    0.26298E-03   -0.49913E-04  4625   0.318E-02    0.340E-02
RMM:   7    -0.413202173905E+03   -0.29714E-05   -0.24986E-04  5724   0.171E-02    0.242E-02
[...]
RMM:   9    -0.413159744491E+03   -0.94689E-06   -0.11924E-05  3616   0.401E-03    0.399E-03
RMM:  10    -0.413159748561E+03   -0.40699E-05   -0.30462E-06  2673   0.228E-03    0.272E-03
RMM:  11    -0.413159753981E+03   -0.54200E-05   -0.13600E-06  2516   0.182E-03    0.144E-03
RMM:  12    -0.413159758310E+03   -0.43298E-05   -0.75902E-07  2472   0.139E-03    0.475E-04
RMM:  13    -0.413159760187E+03   -0.18766E-05   -0.37103E-07  2012   0.989E-04    0.300E-04
RMM:  14    -0.413159761812E+03   -0.16250E-05   -0.22660E-07  1571   0.804E-04    0.199E-04
RMM:  15    -0.413159764444E+03   -0.26321E-05   -0.22421E-07  1391   0.765E-04    0.983E-05
RMM:  16    -0.413159765333E+03   -0.88901E-06   -0.13208E-07  1281   0.683E-04
  136 T=    60. E= -.41286622E+03 F= -.41315977E+03 E0= -.41313901E+03  EK= 0.29355E+00 SP= 0.00E+00 SK= 0.00E+00
       N       E                     dE             d eps       ncg     rms          rms(c)
RMM:   1    -0.413153570582E+03    0.61939E-02   -0.99802E+00  4265   0.814E-01    0.871E-01
RMM:   2    -0.413161749928E+03   -0.81793E-02   -0.11948E-01  4309   0.971E-02    0.632E-01
RMM:   3    -0.413160545783E+03    0.12041E-02   -0.99910E-03  5056   0.507E-02    0.174E-01
RMM:   4    -0.413200417348E+03   -0.39872E-01   -0.45820E-02  5136   0.178E-01    0.834E-01
RMM:   5    -0.413159362978E+03    0.41054E-01   -0.19522E-02  4790   0.140E-01    0.577E-02
RMM:   6    -0.413159399894E+03   -0.36916E-04   -0.32327E-03  5681   0.545E-02    0.257E-02
RMM:   7    -0.413159437686E+03   -0.37791E-04   -0.43622E-04  6055   0.174E-02    0.167E-02
RMM:   8    -0.413159447522E+03   -0.98361E-05   -0.75943E-05  5333   0.875E-03    0.898E-03
RMM:   9    -0.413159450206E+03   -0.26838E-05   -0.12069E-05  3589   0.397E-03    0.393E-03
RMM:  10    -0.413159455768E+03   -0.55623E-05   -0.31923E-06  2686   0.229E-03    0.270E-03
RMM:  11    -0.413159462589E+03   -0.68213E-05   -0.13141E-06  2512   0.179E-03    0.141E-03
RMM:  12    -0.413159468317E+03   -0.57282E-05   -0.74476E-07  2464   0.137E-03    0.457E-04
RMM:  13    -0.413159470725E+03   -0.24081E-05   -0.36371E-07  2001   0.979E-04    0.299E-04
RMM:  14    -0.413159472776E+03   -0.20505E-05   -0.22329E-07  1537   0.797E-04    0.192E-04
RMM:  15    -0.413159475870E+03   -0.30938E-05   -0.21657E-07  1405   0.766E-04    0.950E-05
RMM:  16    -0.413159477016E+03   -0.11467E-05   -0.13427E-07  1309   0.687E-04    0.759E-05
RMM:  17    -0.413159478309E+03   -0.12926E-05   -0.12239E-07  1277   0.664E-04    0.488E-05
RMM:  18    -0.413159478892E+03   -0.58296E-06   -0.79103E-08  1071   0.602E-04
  137 T=    60. E= -.41286585E+03 F= -.41315948E+03 E0= -.41313873E+03  EK= 0.29363E+00 SP= 0.00E+00 SK= 0.00E+00
       N       E                     dE             d eps       ncg     rms          rms(c)
RMM:   1    -0.413154594565E+03    0.48837E-02   -0.10051E+01  4264   0.823E-01    0.894E-01
RMM:   2    -0.413161943324E+03   -0.73488E-02   -0.11794E-01  4302   0.976E-02    0.624E-01
RMM:   3    -0.413160994452E+03    0.94887E-03   -0.96004E-03  5025   0.483E-02    0.167E-01
RMM:   4    -0.413198247767E+03   -0.37253E-01   -0.41262E-02  5143   0.169E-01    0.805E-01
RMM:   5    -0.413160139392E+03    0.38108E-01   -0.18352E-02  4796   0.135E-01    0.570E-02
RMM:   6    -0.413160180365E+03   -0.40973E-04   -0.31538E-03  5682   0.531E-02    0.273E-02
RMM:   7    -0.413160208679E+03   -0.28313E-04   -0.42360E-04  6023   0.171E-02    0.169E-02
RMM:   8    -0.413160210628E+03   -0.19494E-05   -0.71789E-05  5308   0.857E-03    0.889E-03
RMM:   9    -0.413160208460E+03    0.21678E-05   -0.11119E-05  3514   0.384E-03    0.410E-03
RMM:  10    -0.413160209829E+03   -0.13687E-05   -0.30557E-06  2670   0.230E-03    0.281E-03
RMM:  11    -0.413160211205E+03   -0.13762E-05   -0.12466E-06  2505   0.177E-03    0.141E-03
RMM:  12    -0.413160212437E+03   -0.12319E-05   -0.73555E-07  2457   0.137E-03    0.459E-04
RMM:  13    -0.413160213096E+03   -0.65901E-06   -0.35938E-07  2023   0.983E-04
  138 T=    60. E= -.41286613E+03 F= -.41316021E+03 E0= -.41313947E+03  EK= 0.29409E+00 SP= 0.00E+00 SK= 0.00E+00
       N       E                     dE             d eps       ncg     rms          rms(c)
RMM:   1    -0.413153996830E+03    0.62156E-02   -0.10017E+01  4264   0.822E-01    0.873E-01
RMM:   2    -0.413162110361E+03   -0.81135E-02   -0.11839E-01  4303   0.978E-02    0.619E-01
RMM:   3    -0.413160642813E+03    0.14675E-02   -0.87568E-03  4980   0.430E-02    0.145E-01
RMM:   4    -0.413192280829E+03   -0.31638E-01   -0.33528E-02  5147   0.153E-01    0.741E-01
RMM:   5    -0.413160157129E+03    0.32124E-01   -0.15744E-02  4808   0.124E-01    0.512E-02
RMM:   6    -0.413160195724E+03   -0.38595E-04   -0.26797E-03  5716   0.489E-02    0.260E-02
RMM:   7    -0.413160220115E+03   -0.24392E-04   -0.35695E-04  5972   0.159E-02    0.154E-02
RMM:   8    -0.413160224657E+03   -0.45417E-05   -0.59767E-05  5211   0.783E-03    0.810E-03
RMM:   9    -0.413160224714E+03   -0.57313E-07   -0.93383E-06  3374   0.352E-03
  139 T=    60. E= -.41286589E+03 F= -.41316022E+03 E0= -.41313950E+03  EK= 0.29434E+00 SP= 0.00E+00 SK= 0.00E+00
       N       E                     dE             d eps       ncg     rms          rms(c)
RMM:   1    -0.413153733367E+03    0.64913E-02   -0.10134E+01  4268   0.829E-01    0.868E-01
RMM:   2    -0.413162676064E+03   -0.89427E-02   -0.12160E-01  4312   0.986E-02    0.631E-01
RMM:   3    -0.413163231943E+03   -0.55588E-03   -0.10813E-02  5133   0.654E-02    0.254E-01
RMM:   4    -0.413195027813E+03   -0.31796E-01   -0.45326E-02  5112   0.179E-01    0.769E-01
RMM:   5    -0.413160370988E+03    0.34657E-01   -0.15531E-02  4768   0.130E-01    0.652E-02
RMM:   6    -0.413160270021E+03    0.10097E-03   -0.26473E-03  5512   0.504E-02    0.241E-02
RMM:   7    -0.413160312682E+03   -0.42661E-04   -0.42545E-04  6080   0.182E-02    0.165E-02
RMM:   8    -0.413160322054E+03   -0.93718E-05   -0.75914E-05  5433   0.887E-03    0.878E-03
RMM:   9    -0.413160327174E+03   -0.51198E-05   -0.14622E-05  4109   0.450E-03    0.397E-03
RMM:  10    -0.413160331308E+03   -0.41339E-05   -0.21600E-06  2599   0.207E-03    0.258E-03
RMM:  11    -0.413160339458E+03   -0.81506E-05   -0.16451E-06  2545   0.198E-03    0.155E-03
RMM:  12    -0.413160345425E+03   -0.59671E-05   -0.78620E-07  2505   0.144E-03    0.694E-04
RMM:  13    -0.413160348410E+03   -0.29850E-05   -0.35849E-07  1844   0.937E-04    0.379E-04
RMM:  14    -0.413160351424E+03   -0.30132E-05   -0.25293E-07  1430   0.792E-04    0.190E-04
RMM:  15    -0.413160354337E+03   -0.29135E-05   -0.24603E-07  1471   0.772E-04    0.133E-04
RMM:  16    -0.413160356046E+03   -0.17093E-05   -0.17335E-07  1394   0.702E-04    0.105E-04
RMM:  17    -0.413160356921E+03   -0.87436E-06   -0.12076E-07  1210   0.627E-04
  140 T=    60. E= -.41286584E+03 F= -.41316036E+03 E0= -.41313964E+03  EK= 0.29452E+00 SP= 0.00E+00 SK= 0.00E+00
       N       E                     dE             d eps       ncg     rms          rms(c)
RMM:   1    -0.413154750015E+03    0.56060E-02   -0.10209E+01  4264   0.835E-01    0.891E-01
RMM:   2    -0.413162776566E+03   -0.80266E-02   -0.12005E-01  4304   0.984E-02    0.625E-01
RMM:   3    -0.413161196690E+03    0.15799E-02   -0.85186E-03  4914   0.410E-02    0.136E-01
RMM:   4    -0.413183034266E+03   -0.21838E-01   -0.22649E-02  5156   0.126E-01    0.617E-01
RMM:   5    -0.413160991686E+03    0.22043E-01   -0.11000E-02  4816   0.103E-01    0.458E-02
RMM:   6    -0.413161002335E+03   -0.10649E-04   -0.18867E-03  5689   0.413E-02    0.251E-02
RMM:   7    -0.413161016949E+03   -0.14614E-04   -0.26265E-04  5864   0.138E-02    0.134E-02
RMM:   8    -0.413161018719E+03   -0.17699E-05   -0.46387E-05  5050   0.700E-03    0.716E-03
RMM:   9    -0.413161017876E+03    0.84253E-06   -0.63153E-06  3110   0.304E-03
  141 T=    60. E= -.41286619E+03 F= -.41316102E+03 E0= -.41314031E+03  EK= 0.29482E+00 SP= 0.00E+00 SK= 0.00E+00
       N       E                     dE             d eps       ncg     rms          rms(c)
RMM:   1    -0.413154236657E+03    0.67821E-02   -0.10181E+01  4268   0.837E-01    0.880E-01
RMM:   2    -0.413162420225E+03   -0.81836E-02   -0.11965E-01  4307   0.988E-02    0.618E-01
RMM:   3    -0.413162044966E+03    0.37526E-03   -0.90089E-03  5103   0.515E-02    0.195E-01
RMM:   4    -0.413199790076E+03   -0.37745E-01   -0.44225E-02  5138   0.175E-01    0.814E-01
RMM:   5    -0.413160820108E+03    0.38970E-01   -0.18600E-02  4800   0.137E-01    0.626E-02
RMM:   6    -0.413160779928E+03    0.40179E-04   -0.30644E-03  5625   0.537E-02    0.244E-02
RMM:   7    -0.413160816688E+03   -0.36759E-04   -0.44887E-04  6099   0.178E-02    0.162E-02
RMM:   8    -0.413160820042E+03   -0.33542E-05   -0.74628E-05  5396   0.865E-03    0.895E-03
RMM:   9    -0.413160818467E+03    0.15754E-05   -0.12006E-05  3671   0.403E-03    0.373E-03
RMM:  10    -0.413160820090E+03   -0.16236E-05   -0.26322E-06  2618   0.219E-03    0.248E-03
RMM:  11    -0.413160822499E+03   -0.24085E-05   -0.14805E-06  2528   0.186E-03    0.146E-03
RMM:  12    -0.413160823944E+03   -0.14454E-05   -0.74053E-07  2489   0.138E-03    0.582E-04
RMM:  13    -0.413160824706E+03   -0.76215E-06   -0.35022E-07  1932   0.954E-04
  142 T=    60. E= -.41286592E+03 F= -.41316082E+03 E0= -.41314012E+03  EK= 0.29491E+00 SP= 0.00E+00 SK= 0.00E+00
       N       E                     dE             d eps       ncg     rms          rms(c)
RMM:   1    -0.413154459385E+03    0.63646E-02   -0.10255E+01  4264   0.851E-01    0.866E-01
RMM:   2    -0.413163462806E+03   -0.90034E-02   -0.12383E-01  4303   0.101E-01    0.628E-01
RMM:   3    -0.413161413597E+03    0.20492E-02   -0.78769E-03  4690   0.376E-02    0.116E-01
RMM:   4    -0.413164066618E+03   -0.26530E-02   -0.33680E-03  5172   0.493E-02    0.218E-01
RMM:   5    -0.413161418115E+03    0.26485E-02   -0.14019E-03  4843   0.375E-02    0.329E-02
RMM:   6    -0.413161400153E+03    0.17963E-04   -0.31435E-04  5470   0.186E-02    0.211E-02
RMM:   7    -0.413161416905E+03   -0.16752E-04   -0.10315E-04  5386   0.913E-03    0.102E-02
RMM:   8    -0.413161419242E+03   -0.23379E-05   -0.20890E-05  4538   0.530E-03    0.537E-03
RMM:   9    -0.413161421047E+03   -0.18042E-05   -0.18489E-06  2586   0.190E-03    0.265E-03
RMM:  10    -0.413161427404E+03   -0.63574E-05   -0.10437E-06  2503   0.151E-03    0.127E-03
RMM:  11    -0.413161432984E+03   -0.55802E-05   -0.69241E-07  2287   0.122E-03    0.564E-04
RMM:  12    -0.413161436371E+03   -0.33872E-05   -0.34387E-07  1925   0.914E-04    0.296E-04
RMM:  13    -0.413161439196E+03   -0.28244E-05   -0.22137E-07  1352   0.748E-04    0.167E-04
RMM:  14    -0.413161441956E+03   -0.27606E-05   -0.21875E-07  1357   0.734E-04    0.124E-04
RMM:  15    -0.413161443008E+03   -0.10515E-05   -0.12906E-07  1203   0.651E-04    0.812E-05
RMM:  16    -0.413161444131E+03   -0.11228E-05   -0.13266E-07  1233   0.646E-04    0.367E-05
RMM:  17    -0.413161444323E+03   -0.19238E-06   -0.71318E-08   952   0.569E-04
  143 T=    60. E= -.41286612E+03 F= -.41316144E+03 E0= -.41314075E+03  EK= 0.29532E+00 SP= 0.00E+00 SK= 0.00E+00
       N       E                     dE             d eps       ncg     rms          rms(c)
RMM:   1    -0.413154902085E+03    0.65420E-02   -0.10347E+01  4264   0.849E-01    0.886E-01
RMM:   2    -0.413163570416E+03   -0.86683E-02   -0.12229E-01  4297   0.102E-01    0.627E-01
RMM:   3    -0.413161826195E+03    0.17442E-02   -0.78448E-03  4664   0.371E-02    0.125E-01
RMM:   4    -0.413162232704E+03   -0.40651E-03   -0.12658E-03  5136   0.302E-02    0.872E-02
RMM:   5    -0.413161861970E+03    0.37073E-03   -0.29504E-04  4917   0.179E-02    0.373E-02
RMM:   6    -0.413161824192E+03    0.37778E-04   -0.16504E-04  5183   0.138E-02    0.215E-02
RMM:   7    -0.413161830482E+03   -0.62890E-05   -0.92689E-05  5255   0.866E-03    0.114E-02
RMM:   8    -0.413161827848E+03    0.26334E-05   -0.13050E-05  4046   0.471E-03    0.591E-03
RMM:   9    -0.413161828718E+03   -0.87032E-06   -0.22106E-06  2521   0.210E-03
  144 T=    60. E= -.41286614E+03 F= -.41316183E+03 E0= -.41314114E+03  EK= 0.29569E+00 SP= 0.00E+00 SK= 0.00E+00
       N       E                     dE             d eps       ncg     rms          rms(c)
RMM:   1    -0.413154844660E+03    0.69832E-02   -0.10351E+01  4264   0.857E-01    0.888E-01
RMM:   2    -0.413163276808E+03   -0.84321E-02   -0.12112E-01  4299   0.103E-01    0.618E-01
RMM:   3    -0.413161755164E+03    0.15216E-02   -0.78028E-03  4640   0.389E-02    0.131E-01
RMM:   4    -0.413161792000E+03   -0.36836E-04   -0.10191E-03  5064   0.270E-02    0.426E-02
RMM:   5    -0.413161808770E+03   -0.16770E-04   -0.21085E-04  4942   0.156E-02    0.466E-02
RMM:   6    -0.413161722317E+03    0.86453E-04   -0.11000E-04  5265   0.110E-02    0.232E-02
RMM:   7    -0.413161716445E+03    0.58715E-05   -0.86392E-05  5099   0.847E-03    0.105E-02
RMM:   8    -0.413161713326E+03    0.31188E-05   -0.11064E-05  3873   0.447E-03    0.525E-03
RMM:   9    -0.413161714635E+03   -0.13083E-05   -0.20909E-06  2519   0.202E-03    0.214E-03
RMM:  10    -0.413161715528E+03   -0.89275E-06   -0.12379E-06  2472   0.163E-03
  145 T=    60. E= -.41286582E+03 F= -.41316172E+03 E0= -.41314103E+03  EK= 0.29590E+00 SP= 0.00E+00 SK= 0.00E+00
       N       E                     dE             d eps       ncg     rms          rms(c)
RMM:   1    -0.413155000647E+03    0.67140E-02   -0.10362E+01  4264   0.861E-01    0.866E-01
RMM:   2    -0.413164347538E+03   -0.93469E-02   -0.12436E-01  4306   0.102E-01    0.624E-01
RMM:   3    -0.413162570875E+03    0.17767E-02   -0.73643E-03  4781   0.363E-02    0.126E-01
RMM:   4    -0.413168764522E+03   -0.61936E-02   -0.67071E-03  5180   0.697E-02    0.332E-01
RMM:   5    -0.413162548130E+03    0.62164E-02   -0.31635E-03  4837   0.554E-02    0.329E-02
RMM:   6    -0.413162535358E+03    0.12773E-04   -0.58708E-04  5660   0.236E-02    0.199E-02
RMM:   7    -0.413162548434E+03   -0.13077E-04   -0.11204E-04  5440   0.948E-03    0.935E-03
RMM:   8    -0.413162553128E+03   -0.46940E-05   -0.24513E-05  4677   0.543E-03    0.521E-03
RMM:   9    -0.413162554813E+03   -0.16849E-05   -0.20923E-06  2650   0.212E-03    0.263E-03
RMM:  10    -0.413162559862E+03   -0.50483E-05   -0.12562E-06  2527   0.169E-03    0.143E-03
RMM:  11    -0.413162564015E+03   -0.41534E-05   -0.68405E-07  2401   0.125E-03    0.615E-04
RMM:  12    -0.413162566291E+03   -0.22760E-05   -0.36296E-07  1938   0.922E-04    0.319E-04
RMM:  13    -0.413162568176E+03   -0.18848E-05   -0.24294E-07  1422   0.776E-04    0.186E-04
RMM:  14    -0.413162569662E+03   -0.14857E-05   -0.20221E-07  1333   0.736E-04    0.127E-04
RMM:  15    -0.413162570707E+03   -0.10453E-05   -0.17412E-07  1327   0.702E-04    0.601E-05
RMM:  16    -0.413162571213E+03   -0.50632E-06   -0.13385E-07  1240   0.651E-04
  146 T=    60. E= -.41286611E+03 F= -.41316257E+03 E0= -.41314190E+03  EK= 0.29646E+00 SP= 0.00E+00 SK= 0.00E+00
       N       E                     dE             d eps       ncg     rms          rms(c)
RMM:   1    -0.413162780142E+03   -0.20944E-03   -0.10549E+01  4264   0.906E-01    0.880E-01
RMM:   2    -0.413164333472E+03   -0.15533E-02   -0.12951E-01  4301   0.103E-01    0.629E-01
RMM:   3    -0.413162803557E+03    0.15299E-02   -0.74748E-03  4888   0.409E-02    0.144E-01
RMM:   4    -0.413181264131E+03   -0.18461E-01   -0.19032E-02  5159   0.116E-01    0.568E-01
RMM:   5    -0.413162599230E+03    0.18665E-01   -0.93958E-03  4834   0.944E-02    0.437E-02
RMM:   6    -0.413162605972E+03   -0.67415E-05   -0.15889E-03  5708   0.374E-02    0.205E-02
RMM:   7    -0.413162621492E+03   -0.15520E-04   -0.20945E-04  5751   0.122E-02    0.113E-02
RMM:   8    -0.413162626201E+03   -0.47087E-05   -0.36523E-05  4931   0.618E-03    0.649E-03
RMM:   9    -0.413162626714E+03   -0.51312E-06   -0.54075E-06  3005   0.291E-03
  147 T=    60. E= -.41286585E+03 F= -.41316263E+03 E0= -.41314196E+03  EK= 0.29678E+00 SP= 0.00E+00 SK= 0.00E+00
       N       E                     dE             d eps       ncg     rms          rms(c)
RMM:   1    -0.413155721359E+03    0.69048E-02   -0.10509E+01  4270   0.867E-01    0.895E-01
RMM:   2    -0.413164209154E+03   -0.84878E-02   -0.12306E-01  4303   0.102E-01    0.619E-01
RMM:   3    -0.413164027674E+03    0.18148E-03   -0.84894E-03  5109   0.498E-02    0.192E-01
RMM:   4    -0.413202616599E+03   -0.38589E-01   -0.43764E-02  5135   0.174E-01    0.820E-01
RMM:   5    -0.413162975033E+03    0.39642E-01   -0.19274E-02  4814   0.138E-01    0.640E-02
RMM:   6    -0.413162988730E+03   -0.13697E-04   -0.31050E-03  5636   0.543E-02    0.225E-02
RMM:   7    -0.413163020115E+03   -0.31384E-04   -0.44727E-04  6105   0.176E-02    0.153E-02
RMM:   8    -0.413163020120E+03   -0.55952E-08   -0.67551E-05  5445   0.806E-03    0.861E-03
RMM:   9    -0.413163016479E+03    0.36412E-05   -0.11217E-05  3531   0.386E-03    0.362E-03
RMM:  10    -0.413163016361E+03    0.11848E-06   -0.25278E-06  2591   0.218E-03
  148 T=    61. E= -.41286584E+03 F= -.41316302E+03 E0= -.41314235E+03  EK= 0.29717E+00 SP= 0.00E+00 SK= 0.00E+00
       N       E                     dE             d eps       ncg     rms          rms(c)
RMM:   1    -0.413155826234E+03    0.71902E-02   -0.10469E+01  4279   0.868E-01    0.868E-01
RMM:   2    -0.413165305390E+03   -0.94792E-02   -0.12485E-01  4310   0.101E-01    0.621E-01
RMM:   3    -0.413164510304E+03    0.79509E-03   -0.76949E-03  5079   0.479E-02    0.175E-01
RMM:   4    -0.413204073152E+03   -0.39563E-01   -0.43286E-02  5144   0.173E-01    0.826E-01
RMM:   5    -0.413163683946E+03    0.40389E-01   -0.19824E-02  4819   0.139E-01    0.607E-02
RMM:   6    -0.413163727472E+03   -0.43526E-04   -0.31889E-03  5664   0.548E-02    0.199E-02
RMM:   7    -0.413163762810E+03   -0.35338E-04   -0.43695E-04  6086   0.170E-02    0.142E-02
RMM:   8    -0.413163766789E+03   -0.39792E-05   -0.61450E-05  5398   0.766E-03    0.814E-03
RMM:   9    -0.413163767151E+03   -0.36159E-06   -0.10517E-05  3393   0.365E-03    0.350E-03
RMM:  10    -0.413163769392E+03   -0.22410E-05   -0.26370E-06  2598   0.218E-03    0.215E-03
RMM:  11    -0.413163771903E+03   -0.25116E-05   -0.12972E-06  2523   0.170E-03    0.130E-03
RMM:  12    -0.413163773558E+03   -0.16547E-05   -0.70632E-07  2441   0.128E-03    0.473E-04
RMM:  13    -0.413163774209E+03   -0.65139E-06   -0.33891E-07  1867   0.914E-04
  149 T=    61. E= -.41286606E+03 F= -.41316377E+03 E0= -.41314311E+03  EK= 0.29772E+00 SP= 0.00E+00 SK= 0.00E+00
       N       E                     dE             d eps       ncg     rms          rms(c)
RMM:   1    -0.413155627525E+03    0.81460E-02   -0.10587E+01  4264   0.876E-01    0.876E-01
RMM:   2    -0.413165442274E+03   -0.98147E-02   -0.12681E-01  4305   0.103E-01    0.630E-01
RMM:   3    -0.413164165351E+03    0.12769E-02   -0.74741E-03  4991   0.450E-02    0.158E-01
RMM:   4    -0.413199075176E+03   -0.34910E-01   -0.36923E-02  5150   0.160E-01    0.776E-01
RMM:   5    -0.413163557577E+03    0.35518E-01   -0.17609E-02  4823   0.130E-01    0.542E-02
RMM:   6    -0.413163617884E+03   -0.60308E-04   -0.28428E-03  5682   0.510E-02    0.190E-02
RMM:   7    -0.413163648603E+03   -0.30719E-04   -0.36494E-04  5985   0.154E-02    0.129E-02
RMM:   8    -0.413163654334E+03   -0.57301E-05   -0.49460E-05  5198   0.687E-03    0.733E-03
RMM:   9    -0.413163655881E+03   -0.15478E-05   -0.90007E-06  3266   0.335E-03    0.327E-03
RMM:  10    -0.413163658860E+03   -0.29785E-05   -0.25421E-06  2588   0.213E-03    0.212E-03
RMM:  11    -0.413163661806E+03   -0.29462E-05   -0.11246E-06  2504   0.161E-03    0.120E-03
RMM:  12    -0.413163664003E+03   -0.21974E-05   -0.63141E-07  2352   0.121E-03    0.404E-04
RMM:  13    -0.413163664882E+03   -0.87837E-06   -0.31107E-07  1823   0.887E-04
  150 T=    61. E= -.41286566E+03 F= -.41316366E+03 E0= -.41314301E+03  EK= 0.29801E+00 SP= 0.00E+00 SK= 0.00E+00
