       N       E                     dE             d eps       ncg     rms          rms(c)
RMM:   1     0.220195933344E+04    0.22020E+04   -0.52441E+04  2132   0.654E+02
RMM:   2     0.705617159289E+03   -0.14963E+04   -0.16266E+04  2132   0.177E+02
RMM:   3     0.137763638814E+03   -0.56785E+03   -0.65684E+03  2132   0.117E+02
RMM:   4    -0.159420037102E+03   -0.29718E+03   -0.27860E+03  2132   0.936E+01
RMM:   5    -0.287505878188E+03   -0.12809E+03   -0.11450E+03  2132   0.595E+01
RMM:   6    -0.349839322673E+03   -0.62333E+02   -0.55118E+02  2132   0.423E+01
RMM:   7    -0.382658809124E+03   -0.32819E+02   -0.30382E+02  2132   0.293E+01
RMM:   8    -0.404214088968E+03   -0.21555E+02   -0.18458E+02  2132   0.233E+01
RMM:   9    -0.436046218087E+03   -0.31832E+02   -0.30643E+02  6110   0.173E+01
RMM:  10    -0.441339575900E+03   -0.52934E+01   -0.63103E+01  6401   0.538E+00
RMM:  11    -0.442531953641E+03   -0.11924E+01   -0.10961E+01  6212   0.171E+00
RMM:  12    -0.442894432614E+03   -0.36248E+00   -0.26718E+00  6365   0.594E-01    0.134E+02
RMM:  13    -0.425553038520E+03    0.17341E+02   -0.80798E+01  4676   0.119E+01    0.712E+01
RMM:  14    -0.498504362772E+03   -0.72951E+02   -0.53460E+02  5413   0.231E+01    0.305E+01
RMM:  15    -0.415778083183E+03    0.82726E+02   -0.19758E+02  5090   0.163E+01    0.691E+00
RMM:  16    -0.414033283197E+03    0.17448E+01   -0.39496E+01  6082   0.608E+00    0.427E+00
RMM:  17    -0.413214382644E+03    0.81890E+00   -0.25061E+00  5391   0.186E+00    0.245E+00
RMM:  18    -0.413168937550E+03    0.45445E-01   -0.82096E-01  5975   0.924E-01    0.165E+00
RMM:  19    -0.413170142191E+03   -0.12046E-02   -0.26212E-01  5708   0.547E-01    0.877E-01
RMM:  20    -0.413193026134E+03   -0.22884E-01   -0.29564E-01  5548   0.564E-01    0.665E-01
RMM:  21    -0.413169248967E+03    0.23777E-01   -0.36175E-02  4967   0.245E-01    0.311E-01
RMM:  22    -0.413165525762E+03    0.37232E-02   -0.25135E-02  5896   0.149E-01    0.134E-01
RMM:  23    -0.413164550136E+03    0.97563E-03   -0.67360E-03  6104   0.734E-02    0.861E-02
RMM:  24    -0.413163415336E+03    0.11348E-02   -0.17788E-03  5225   0.435E-02    0.534E-02
RMM:  25    -0.413162788716E+03    0.62662E-03   -0.86629E-04  5187   0.299E-02    0.328E-02
RMM:  26    -0.413162941412E+03   -0.15270E-03   -0.89210E-04  5862   0.301E-02    0.333E-02
RMM:  27    -0.413163368271E+03   -0.42686E-03   -0.19280E-04  4587   0.200E-02    0.187E-02
RMM:  28    -0.413163834837E+03   -0.46657E-03   -0.17221E-04  5217   0.185E-02    0.878E-03
RMM:  29    -0.413164227797E+03   -0.39296E-03   -0.11079E-04  4455   0.154E-02    0.423E-03
RMM:  30    -0.413164459813E+03   -0.23202E-03   -0.80825E-05  4277   0.105E-02    0.381E-03
RMM:  31    -0.413164579208E+03   -0.11940E-03   -0.52827E-05  3208   0.683E-03    0.319E-03
RMM:  32    -0.413164601150E+03   -0.21942E-04   -0.20316E-05  2979   0.304E-03    0.181E-03
RMM:  33    -0.413164609965E+03   -0.88145E-05   -0.84792E-06  2783   0.219E-03    0.572E-04
RMM:  34    -0.413164610209E+03   -0.24468E-06   -0.44699E-06  2603   0.152E-03
    1 T=    61. E= -.41286677E+03 F= -.41316461E+03 E0= -.41314211E+03  EK= 0.29784E+00 SP= 0.00E+00 SK= 0.00E+00
       N       E                     dE             d eps       ncg     rms          rms(c)
RMM:   1    -0.413164206387E+03    0.40358E-03   -0.87319E+00  4019   0.604E-01    0.887E-01
RMM:   2    -0.413168798396E+03   -0.45920E-02   -0.10738E-01  3930   0.869E-02    0.653E-01
RMM:   3    -0.413164542745E+03    0.42557E-02   -0.18791E-02  4753   0.485E-02    0.849E-02
RMM:   4    -0.413180014723E+03   -0.15472E-01   -0.16485E-02  5205   0.107E-01    0.523E-01
RMM:   5    -0.413164176989E+03    0.15838E-01   -0.78271E-03  4861   0.874E-02    0.452E-02
RMM:   6    -0.413164296146E+03   -0.11916E-03   -0.15413E-03  5741   0.381E-02    0.334E-02
RMM:   7    -0.413164287114E+03    0.90317E-05   -0.34462E-04  5578   0.172E-02    0.185E-02
RMM:   8    -0.413164284699E+03    0.24148E-05   -0.32981E-05  4621   0.632E-03    0.762E-03
RMM:   9    -0.413164288136E+03   -0.34371E-05   -0.60166E-06  3015   0.271E-03    0.544E-03
RMM:  10    -0.413164293522E+03   -0.53855E-05   -0.18726E-06  2555   0.206E-03    0.303E-03
RMM:  11    -0.413164298648E+03   -0.51262E-05   -0.12803E-06  2509   0.166E-03    0.143E-03
RMM:  12    -0.413164303763E+03   -0.51145E-05   -0.10005E-06  2481   0.143E-03    0.546E-04
RMM:  13    -0.413164305527E+03   -0.17648E-05   -0.50804E-07  2114   0.102E-03    0.385E-04
RMM:  14    -0.413164306502E+03   -0.97461E-06   -0.31268E-07  1669   0.780E-04
    2 T=    61. E= -.41286648E+03 F= -.41316431E+03 E0= -.41314181E+03  EK= 0.29783E+00 SP= 0.00E+00 SK= 0.00E+00
       N       E                     dE             d eps       ncg     rms          rms(c)
RMM:   1    -0.413165123706E+03   -0.81818E-03   -0.87258E+00  4188   0.611E-01    0.905E-01
RMM:   2    -0.413168981600E+03   -0.38579E-02   -0.10651E-01  3994   0.865E-02    0.649E-01
RMM:   3    -0.413165489963E+03    0.34916E-02   -0.17901E-02  4922   0.507E-02    0.120E-01
RMM:   4    -0.413195638742E+03   -0.30149E-01   -0.32557E-02  5160   0.151E-01    0.726E-01
RMM:   5    -0.413164677937E+03    0.30961E-01   -0.14648E-02  4815   0.121E-01    0.517E-02
RMM:   6    -0.413164886806E+03   -0.20887E-03   -0.26945E-03  5743   0.508E-02    0.363E-02
RMM:   7    -0.413164873183E+03    0.13623E-04   -0.48048E-04  5659   0.203E-02    0.224E-02
RMM:   8    -0.413164863107E+03    0.10076E-04   -0.63218E-05  5233   0.886E-03    0.102E-02
RMM:   9    -0.413164861316E+03    0.17909E-05   -0.12747E-05  3845   0.391E-03    0.745E-03
RMM:  10    -0.413164861475E+03   -0.15870E-06   -0.22344E-06  2598   0.236E-03
    3 T=    61. E= -.41286678E+03 F= -.41316486E+03 E0= -.41314237E+03  EK= 0.29808E+00 SP= 0.00E+00 SK= 0.00E+00
       N       E                     dE             d eps       ncg     rms          rms(c)
RMM:   1    -0.413164554773E+03    0.30654E-03   -0.86638E+00  4221   0.615E-01    0.890E-01
RMM:   2    -0.413168541268E+03   -0.39865E-02   -0.10620E-01  4242   0.866E-02    0.643E-01
RMM:   3    -0.413171666366E+03   -0.31251E-02   -0.22528E-02  5172   0.893E-02    0.359E-01
RMM:   4    -0.413185612215E+03   -0.13946E-01   -0.37450E-02  5099   0.167E-01    0.598E-01
RMM:   5    -0.413164630679E+03    0.20982E-01   -0.75858E-03  4671   0.980E-02    0.595E-02
RMM:   6    -0.413164617580E+03    0.13100E-04   -0.15601E-03  5385   0.402E-02    0.319E-02
RMM:   7    -0.413164632921E+03   -0.15341E-04   -0.32834E-04  5954   0.169E-02    0.191E-02
RMM:   8    -0.413164628556E+03    0.43645E-05   -0.59012E-05  5116   0.903E-03    0.775E-03
RMM:   9    -0.413164626748E+03    0.18077E-05   -0.77389E-06  3409   0.360E-03    0.393E-03
RMM:  10    -0.413164627856E+03   -0.11073E-05   -0.15195E-06  2532   0.210E-03    0.248E-03
RMM:  11    -0.413164629527E+03   -0.16716E-05   -0.12728E-06  2536   0.177E-03    0.144E-03
RMM:  12    -0.413164630425E+03   -0.89722E-06   -0.73971E-07  2483   0.137E-03
    4 T=    61. E= -.41286659E+03 F= -.41316463E+03 E0= -.41314214E+03  EK= 0.29804E+00 SP= 0.00E+00 SK= 0.00E+00
       N       E                     dE             d eps       ncg     rms          rms(c)
RMM:   1    -0.413164534922E+03    0.94606E-04   -0.87279E+00  4235   0.616E-01    0.885E-01
RMM:   2    -0.413169056461E+03   -0.45215E-02   -0.10758E-01  4038   0.861E-02    0.651E-01
RMM:   3    -0.413165528209E+03    0.35283E-02   -0.19011E-02  4947   0.526E-02    0.125E-01
RMM:   4    -0.413196299065E+03   -0.30771E-01   -0.33534E-02  5146   0.153E-01    0.735E-01
RMM:   5    -0.413164595346E+03    0.31704E-01   -0.15000E-02  4814   0.122E-01    0.504E-02
RMM:   6    -0.413164796624E+03   -0.20128E-03   -0.26316E-03  5749   0.506E-02    0.342E-02
RMM:   7    -0.413164795800E+03    0.82450E-06   -0.45828E-04  5737   0.199E-02    0.217E-02
RMM:   8    -0.413164791137E+03    0.46624E-05   -0.63878E-05  5139   0.888E-03    0.999E-03
RMM:   9    -0.413164791894E+03   -0.75623E-06   -0.12655E-05  3824   0.398E-03    0.725E-03
RMM:  10    -0.413164795923E+03   -0.40295E-05   -0.20742E-06  2582   0.228E-03    0.443E-03
RMM:  11    -0.413164799429E+03   -0.35063E-05   -0.12027E-06  2529   0.174E-03    0.246E-03
RMM:  12    -0.413164805143E+03   -0.57134E-05   -0.19188E-06  2603   0.199E-03    0.110E-03
RMM:  13    -0.413164807311E+03   -0.21682E-05   -0.64451E-07  2418   0.133E-03    0.817E-04
RMM:  14    -0.413164807119E+03    0.19234E-06   -0.24974E-07  1911   0.863E-04
    5 T=    61. E= -.41286667E+03 F= -.41316481E+03 E0= -.41314233E+03  EK= 0.29814E+00 SP= 0.00E+00 SK= 0.00E+00
       N       E                     dE             d eps       ncg     rms          rms(c)
RMM:   1    -0.413165446979E+03   -0.63967E-03   -0.87385E+00  4247   0.625E-01    0.902E-01
RMM:   2    -0.413169214986E+03   -0.37680E-02   -0.10707E-01  4062   0.859E-02    0.650E-01
RMM:   3    -0.413165705660E+03    0.35093E-02   -0.17902E-02  4854   0.477E-02    0.102E-01
RMM:   4    -0.413189996953E+03   -0.24291E-01   -0.25479E-02  5140   0.133E-01    0.653E-01
RMM:   5    -0.413165133994E+03    0.24863E-01   -0.11899E-02  4812   0.108E-01    0.481E-02
RMM:   6    -0.413165309095E+03   -0.17510E-03   -0.22242E-03  5759   0.454E-02    0.338E-02
RMM:   7    -0.413165298334E+03    0.10761E-04   -0.40599E-04  5602   0.194E-02    0.213E-02
RMM:   8    -0.413165286484E+03    0.11850E-04   -0.55046E-05  4975   0.843E-03    0.100E-02
RMM:   9    -0.413165284887E+03    0.15968E-05   -0.11097E-05  3659   0.372E-03    0.755E-03
RMM:  10    -0.413165285206E+03   -0.31941E-06   -0.19927E-06  2559   0.231E-03
    6 T=    61. E= -.41286690E+03 F= -.41316529E+03 E0= -.41314282E+03  EK= 0.29839E+00 SP= 0.00E+00 SK= 0.00E+00
       N       E                     dE             d eps       ncg     rms          rms(c)
RMM:   1    -0.413165118974E+03    0.16591E-03   -0.86927E+00  4256   0.626E-01    0.897E-01
RMM:   2    -0.413168929326E+03   -0.38104E-02   -0.10644E-01  4278   0.861E-02    0.644E-01
RMM:   3    -0.413170858146E+03   -0.19288E-02   -0.21519E-02  5143   0.832E-02    0.328E-01
RMM:   4    -0.413188553565E+03   -0.17695E-01   -0.38488E-02  5087   0.168E-01    0.633E-01
RMM:   5    -0.413165010479E+03    0.23543E-01   -0.88912E-03  4693   0.103E-01    0.597E-02
RMM:   6    -0.413165031842E+03   -0.21363E-04   -0.17960E-03  5438   0.425E-02    0.324E-02
RMM:   7    -0.413165044379E+03   -0.12537E-04   -0.34973E-04  5960   0.169E-02    0.194E-02
RMM:   8    -0.413165038580E+03    0.57987E-05   -0.60361E-05  5124   0.899E-03    0.795E-03
RMM:   9    -0.413165035335E+03    0.32452E-05   -0.73499E-06  3311   0.351E-03    0.409E-03
RMM:  10    -0.413165035210E+03    0.12544E-06   -0.17428E-06  2553   0.214E-03
    7 T=    61. E= -.41286659E+03 F= -.41316504E+03 E0= -.41314259E+03  EK= 0.29845E+00 SP= 0.00E+00 SK= 0.00E+00
       N       E                     dE             d eps       ncg     rms          rms(c)
RMM:   1    -0.413165359761E+03   -0.32443E-03   -0.87235E+00  4270   0.630E-01    0.883E-01
RMM:   2    -0.413169979273E+03   -0.46195E-02   -0.10727E-01  4119   0.869E-02    0.649E-01
RMM:   3    -0.413166471423E+03    0.35078E-02   -0.18764E-02  4952   0.541E-02    0.133E-01
RMM:   4    -0.413199070479E+03   -0.32599E-01   -0.35938E-02  5131   0.158E-01    0.756E-01
RMM:   5    -0.413165423843E+03    0.33647E-01   -0.15860E-02  4805   0.125E-01    0.518E-02
RMM:   6    -0.413165632249E+03   -0.20841E-03   -0.27744E-03  5728   0.520E-02    0.347E-02
RMM:   7    -0.413165630696E+03    0.15532E-05   -0.47640E-04  5745   0.200E-02    0.220E-02
RMM:   8    -0.413165625877E+03    0.48183E-05   -0.65879E-05  5185   0.889E-03    0.100E-02
RMM:   9    -0.413165625483E+03    0.39416E-06   -0.12795E-05  3868   0.399E-03    0.715E-03
RMM:  10    -0.413165628239E+03   -0.27559E-05   -0.20922E-06  2581   0.227E-03    0.435E-03
RMM:  11    -0.413165630503E+03   -0.22643E-05   -0.11498E-06  2525   0.170E-03    0.246E-03
RMM:  12    -0.413165634299E+03   -0.37956E-05   -0.18930E-06  2593   0.198E-03    0.109E-03
RMM:  13    -0.413165635830E+03   -0.15311E-05   -0.71049E-07  2427   0.136E-03    0.886E-04
RMM:  14    -0.413165635563E+03    0.26669E-06   -0.25509E-07  1926   0.874E-04
    8 T=    61. E= -.41286681E+03 F= -.41316564E+03 E0= -.41314321E+03  EK= 0.29882E+00 SP= 0.00E+00 SK= 0.00E+00
       N       E                     dE             d eps       ncg     rms          rms(c)
RMM:   1    -0.413165813874E+03   -0.17804E-03   -0.87635E+00  4280   0.635E-01    0.898E-01
RMM:   2    -0.413170108971E+03   -0.42951E-02   -0.10720E-01  4148   0.875E-02    0.652E-01
RMM:   3    -0.413166260686E+03    0.38483E-02   -0.18202E-02  4849   0.504E-02    0.106E-01
RMM:   4    -0.413192006524E+03   -0.25746E-01   -0.27155E-02  5128   0.137E-01    0.672E-01
RMM:   5    -0.413165613279E+03    0.26393E-01   -0.12612E-02  4805   0.111E-01    0.484E-02
RMM:   6    -0.413165799107E+03   -0.18583E-03   -0.23484E-03  5773   0.464E-02    0.333E-02
RMM:   7    -0.413165795118E+03    0.39886E-05   -0.40615E-04  5627   0.193E-02    0.213E-02
RMM:   8    -0.413165783312E+03    0.11806E-04   -0.59780E-05  4992   0.862E-03    0.103E-02
RMM:   9    -0.413165781377E+03    0.19345E-05   -0.11722E-05  3786   0.388E-03    0.772E-03
RMM:  10    -0.413165781743E+03   -0.36622E-06   -0.19923E-06  2559   0.232E-03
    9 T=    61. E= -.41286667E+03 F= -.41316578E+03 E0= -.41314337E+03  EK= 0.29911E+00 SP= 0.00E+00 SK= 0.00E+00
       N       E                     dE             d eps       ncg     rms          rms(c)
RMM:   1    -0.413165995787E+03   -0.21441E-03   -0.87393E+00  4292   0.641E-01    0.903E-01
RMM:   2    -0.413169958467E+03   -0.39627E-02   -0.10669E-01  4328   0.884E-02    0.646E-01
RMM:   3    -0.413172638123E+03   -0.26797E-02   -0.22249E-02  5135   0.880E-02    0.353E-01
RMM:   4    -0.413187081205E+03   -0.14443E-01   -0.37382E-02  5075   0.166E-01    0.602E-01
RMM:   5    -0.413165851986E+03    0.21229E-01   -0.77376E-03  4672   0.978E-02    0.589E-02
RMM:   6    -0.413165860766E+03   -0.87793E-05   -0.16115E-03  5402   0.402E-02    0.326E-02
RMM:   7    -0.413165865759E+03   -0.49934E-05   -0.32188E-04  5909   0.168E-02    0.190E-02
RMM:   8    -0.413165857282E+03    0.84770E-05   -0.57074E-05  5099   0.884E-03    0.766E-03
RMM:   9    -0.413165852952E+03    0.43295E-05   -0.70539E-06  3251   0.344E-03    0.397E-03
RMM:  10    -0.413165851798E+03    0.11547E-05   -0.15778E-06  2530   0.210E-03    0.249E-03
RMM:  11    -0.413165849849E+03    0.19486E-05   -0.12138E-06  2518   0.173E-03    0.138E-03
RMM:  12    -0.413165847985E+03    0.18641E-05   -0.73512E-07  2468   0.137E-03    0.577E-04
RMM:  13    -0.413165846823E+03    0.11619E-05   -0.37392E-07  2090   0.991E-04    0.312E-04
RMM:  14    -0.413165845537E+03    0.12857E-05   -0.24181E-07  1598   0.795E-04    0.202E-04
RMM:  15    -0.413165843742E+03    0.17956E-05   -0.23258E-07  1548   0.758E-04    0.168E-04
RMM:  16    -0.413165841933E+03    0.18090E-05   -0.18262E-07  1353   0.692E-04    0.146E-04
RMM:  17    -0.413165840111E+03    0.18213E-05   -0.15373E-07  1307   0.658E-04    0.777E-05
RMM:  18    -0.413165839008E+03    0.11031E-05   -0.80538E-08  1023   0.584E-04    0.417E-05
RMM:  19    -0.413165838389E+03    0.61915E-06   -0.42382E-08   819   0.542E-04
   10 T=    61. E= -.41286649E+03 F= -.41316584E+03 E0= -.41314345E+03  EK= 0.29935E+00 SP= 0.00E+00 SK= 0.00E+00
       N       E                     dE             d eps       ncg     rms          rms(c)
RMM:   1    -0.413166260378E+03   -0.42137E-03   -0.87267E+00  4287   0.643E-01    0.884E-01
RMM:   2    -0.413170726425E+03   -0.44660E-02   -0.10732E-01  4214   0.868E-02    0.647E-01
RMM:   3    -0.413167448426E+03    0.32780E-02   -0.18355E-02  4935   0.535E-02    0.132E-01
RMM:   4    -0.413200273118E+03   -0.32825E-01   -0.36184E-02  5126   0.158E-01    0.758E-01
RMM:   5    -0.413166417769E+03    0.33855E-01   -0.16017E-02  4796   0.126E-01    0.518E-02
RMM:   6    -0.413166629734E+03   -0.21196E-03   -0.28072E-03  5728   0.520E-02    0.351E-02
RMM:   7    -0.413166624492E+03    0.52418E-05   -0.47645E-04  5644   0.201E-02    0.221E-02
RMM:   8    -0.413166616633E+03    0.78598E-05   -0.66722E-05  5178   0.905E-03    0.101E-02
RMM:   9    -0.413166614911E+03    0.17215E-05   -0.13262E-05  3909   0.408E-03    0.721E-03
RMM:  10    -0.413166616435E+03   -0.15237E-05   -0.20873E-06  2577   0.229E-03    0.442E-03
RMM:  11    -0.413166617686E+03   -0.12513E-05   -0.10841E-06  2506   0.167E-03    0.254E-03
RMM:  12    -0.413166619802E+03   -0.21154E-05   -0.16577E-06  2553   0.195E-03    0.109E-03
RMM:  13    -0.413166620621E+03   -0.81957E-06   -0.66509E-07  2411   0.136E-03
   11 T=    61. E= -.41286686E+03 F= -.41316662E+03 E0= -.41314426E+03  EK= 0.29976E+00 SP= 0.00E+00 SK= 0.00E+00
       N       E                     dE             d eps       ncg     rms          rms(c)
RMM:   1    -0.413166406467E+03    0.21333E-03   -0.87962E+00  4293   0.648E-01    0.894E-01
RMM:   2    -0.413170710731E+03   -0.43043E-02   -0.10808E-01  4235   0.869E-02    0.654E-01
RMM:   3    -0.413167118871E+03    0.35919E-02   -0.18472E-02  4871   0.504E-02    0.111E-01
RMM:   4    -0.413194585713E+03   -0.27467E-01   -0.29310E-02  5125   0.143E-01    0.694E-01
RMM:   5    -0.413166391873E+03    0.28194E-01   -0.13475E-02  4796   0.115E-01    0.488E-02
RMM:   6    -0.413166581227E+03   -0.18935E-03   -0.24559E-03  5775   0.476E-02    0.329E-02
RMM:   7    -0.413166580518E+03    0.70935E-06   -0.40660E-04  5656   0.193E-02    0.212E-02
RMM:   8    -0.413166569946E+03    0.10571E-04   -0.64513E-05  5015   0.881E-03    0.103E-02
RMM:   9    -0.413166567913E+03    0.20334E-05   -0.12695E-05  3901   0.403E-03    0.774E-03
RMM:  10    -0.413166568622E+03   -0.70881E-06   -0.19953E-06  2563   0.230E-03
   12 T=    61. E= -.41286659E+03 F= -.41316657E+03 E0= -.41314424E+03  EK= 0.29997E+00 SP= 0.00E+00 SK= 0.00E+00
       N       E                     dE             d eps       ncg     rms          rms(c)
RMM:   1    -0.413167404539E+03   -0.83663E-03   -0.87878E+00  4305   0.657E-01    0.908E-01
RMM:   2    -0.413170932409E+03   -0.35279E-02   -0.10747E-01  4324   0.868E-02    0.649E-01
RMM:   3    -0.413174359652E+03   -0.34272E-02   -0.22573E-02  5137   0.889E-02    0.363E-01
RMM:   4    -0.413187844972E+03   -0.13485E-01   -0.37507E-02  5069   0.166E-01    0.593E-01
RMM:   5    -0.413167188556E+03    0.20656E-01   -0.74297E-03  4653   0.964E-02    0.588E-02
RMM:   6    -0.413167190322E+03   -0.17654E-05   -0.15685E-03  5390   0.395E-02    0.327E-02
RMM:   7    -0.413167194936E+03   -0.46143E-05   -0.31140E-04  5902   0.166E-02    0.190E-02
RMM:   8    -0.413167186850E+03    0.80858E-05   -0.56504E-05  5110   0.878E-03    0.760E-03
RMM:   9    -0.413167181754E+03    0.50961E-05   -0.68033E-06  3233   0.342E-03    0.391E-03
RMM:  10    -0.413167179953E+03    0.18008E-05   -0.15060E-06  2511   0.208E-03    0.245E-03
RMM:  11    -0.413167177004E+03    0.29487E-05   -0.11756E-06  2514   0.171E-03    0.137E-03
RMM:  12    -0.413167174418E+03    0.25862E-05   -0.67262E-07  2449   0.134E-03    0.568E-04
RMM:  13    -0.413167172720E+03    0.16984E-05   -0.34954E-07  2071   0.976E-04    0.326E-04
RMM:  14    -0.413167171120E+03    0.15996E-05   -0.20673E-07  1562   0.773E-04    0.217E-04
RMM:  15    -0.413167168388E+03    0.27318E-05   -0.21945E-07  1527   0.754E-04    0.171E-04
RMM:  16    -0.413167166071E+03    0.23173E-05   -0.15657E-07  1312   0.678E-04    0.143E-04
RMM:  17    -0.413167163735E+03    0.23357E-05   -0.13309E-07  1283   0.652E-04    0.759E-05
RMM:  18    -0.413167162413E+03    0.13218E-05   -0.71726E-08  1006   0.576E-04    0.405E-05
RMM:  19    -0.413167161641E+03    0.77269E-06   -0.37685E-08   805   0.540E-04
   13 T=    61. E= -.41286668E+03 F= -.41316716E+03 E0= -.41314486E+03  EK= 0.30048E+00 SP= 0.00E+00 SK= 0.00E+00
       N       E                     dE             d eps       ncg     rms          rms(c)
RMM:   1    -0.413167539547E+03   -0.37713E-03   -0.87470E+00  4295   0.657E-01    0.886E-01
RMM:   2    -0.413171824295E+03   -0.42847E-02   -0.10752E-01  4244   0.863E-02    0.646E-01
RMM:   3    -0.413168666956E+03    0.31573E-02   -0.17994E-02  4949   0.525E-02    0.135E-01
RMM:   4    -0.413202223026E+03   -0.33556E-01   -0.37187E-02  5123   0.161E-01    0.766E-01
RMM:   5    -0.413167615333E+03    0.34608E-01   -0.16387E-02  4790   0.127E-01    0.523E-02
RMM:   6    -0.413167823071E+03   -0.20774E-03   -0.28520E-03  5732   0.525E-02    0.355E-02
RMM:   7    -0.413167816939E+03    0.61315E-05   -0.48355E-04  5650   0.203E-02    0.224E-02
RMM:   8    -0.413167807754E+03    0.91852E-05   -0.68672E-05  5191   0.912E-03    0.103E-02
RMM:   9    -0.413167804621E+03    0.31327E-05   -0.13417E-05  3942   0.411E-03    0.732E-03
RMM:  10    -0.413167804314E+03    0.30748E-06   -0.21031E-06  2570   0.229E-03
   14 T=    61. E= -.41286676E+03 F= -.41316780E+03 E0= -.41314554E+03  EK= 0.30104E+00 SP= 0.00E+00 SK= 0.00E+00
       N       E                     dE             d eps       ncg     rms          rms(c)
RMM:   1    -0.413167635930E+03    0.16869E-03   -0.88410E+00  4301   0.661E-01    0.892E-01
RMM:   2    -0.413172243937E+03   -0.46080E-02   -0.10872E-01  4332   0.877E-02    0.656E-01
RMM:   3    -0.413175533609E+03   -0.32897E-02   -0.23967E-02  5135   0.923E-02    0.373E-01
RMM:   4    -0.413190028654E+03   -0.14495E-01   -0.40114E-02  5069   0.172E-01    0.614E-01
RMM:   5    -0.413167839779E+03    0.22189E-01   -0.80320E-03  4648   0.100E-01    0.582E-02
RMM:   6    -0.413167850164E+03   -0.10385E-04   -0.16575E-03  5380   0.404E-02    0.312E-02
RMM:   7    -0.413167865623E+03   -0.15460E-04   -0.32330E-04  5934   0.166E-02    0.188E-02
RMM:   8    -0.413167862908E+03    0.27155E-05   -0.59026E-05  5115   0.887E-03    0.760E-03
RMM:   9    -0.413167860979E+03    0.19284E-05   -0.70064E-06  3246   0.351E-03    0.388E-03
RMM:  10    -0.413167862034E+03   -0.10547E-05   -0.14974E-06  2516   0.206E-03    0.244E-03
RMM:  11    -0.413167863441E+03   -0.14067E-05   -0.12178E-06  2512   0.172E-03    0.140E-03
RMM:  12    -0.413167863928E+03   -0.48687E-06   -0.66857E-07  2449   0.134E-03
   15 T=    61. E= -.41286642E+03 F= -.41316786E+03 E0= -.41314563E+03  EK= 0.30145E+00 SP= 0.00E+00 SK= 0.00E+00
       N       E                     dE             d eps       ncg     rms          rms(c)
RMM:   1    -0.413169100737E+03   -0.12373E-02   -0.88453E+00  4297   0.669E-01    0.910E-01
RMM:   2    -0.413173006794E+03   -0.39061E-02   -0.10807E-01  4263   0.885E-02    0.651E-01
RMM:   3    -0.413169774962E+03    0.32318E-02   -0.17759E-02  4953   0.532E-02    0.139E-01
RMM:   4    -0.413204329330E+03   -0.34554E-01   -0.38281E-02  5121   0.163E-01    0.777E-01
RMM:   5    -0.413168717019E+03    0.35612E-01   -0.16910E-02  4787   0.129E-01    0.531E-02
RMM:   6    -0.413168924413E+03   -0.20739E-03   -0.29441E-03  5737   0.535E-02    0.366E-02
RMM:   7    -0.413168911156E+03    0.13257E-04   -0.49770E-04  5688   0.209E-02    0.232E-02
RMM:   8    -0.413168897359E+03    0.13797E-04   -0.73067E-05  5184   0.951E-03    0.109E-02
RMM:   9    -0.413168891363E+03    0.59954E-05   -0.14052E-05  4001   0.425E-03    0.769E-03
RMM:  10    -0.413168887468E+03    0.38953E-05   -0.22728E-06  2594   0.237E-03    0.464E-03
RMM:  11    -0.413168884921E+03    0.25473E-05   -0.11675E-06  2506   0.174E-03    0.269E-03
RMM:  12    -0.413168879830E+03    0.50906E-05   -0.18888E-06  2585   0.206E-03    0.117E-03
RMM:  13    -0.413168876794E+03    0.30365E-05   -0.69126E-07  2412   0.141E-03    0.963E-04
RMM:  14    -0.413168876999E+03   -0.20524E-06   -0.27044E-07  1988   0.913E-04
   16 T=    62. E= -.41286668E+03 F= -.41316888E+03 E0= -.41314668E+03  EK= 0.30220E+00 SP= 0.00E+00 SK= 0.00E+00
       N       E                     dE             d eps       ncg     rms          rms(c)
RMM:   1    -0.413169080708E+03   -0.20391E-03   -0.87947E+00  4295   0.676E-01    0.892E-01
RMM:   2    -0.413173496796E+03   -0.44161E-02   -0.10791E-01  4268   0.894E-02    0.646E-01
RMM:   3    -0.413169945555E+03    0.35512E-02   -0.17487E-02  4881   0.514E-02    0.118E-01
RMM:   4    -0.413199815815E+03   -0.29870E-01   -0.32088E-02  5122   0.149E-01    0.722E-01
RMM:   5    -0.413169165080E+03    0.30651E-01   -0.14672E-02  4790   0.120E-01    0.503E-02
RMM:   6    -0.413169357382E+03   -0.19230E-03   -0.26666E-03  5768   0.496E-02    0.344E-02
RMM:   7    -0.413169348149E+03    0.92328E-05   -0.43374E-04  5635   0.199E-02    0.218E-02
RMM:   8    -0.413169333578E+03    0.14571E-04   -0.68764E-05  5068   0.914E-03    0.107E-02
RMM:   9    -0.413169328616E+03    0.49618E-05   -0.13516E-05  3984   0.417E-03    0.793E-03
RMM:  10    -0.413169326011E+03    0.26055E-05   -0.21000E-06  2570   0.234E-03    0.478E-03
RMM:  11    -0.413169324170E+03    0.18411E-05   -0.12327E-06  2506   0.180E-03    0.272E-03
RMM:  12    -0.413169320842E+03    0.33271E-05   -0.18297E-06  2573   0.206E-03    0.115E-03
RMM:  13    -0.413169318901E+03    0.19418E-05   -0.60129E-07  2390   0.136E-03    0.866E-04
RMM:  14    -0.413169318999E+03   -0.98771E-07   -0.25432E-07  1954   0.881E-04
   17 T=    62. E= -.41286658E+03 F= -.41316932E+03 E0= -.41314716E+03  EK= 0.30274E+00 SP= 0.00E+00 SK= 0.00E+00
       N       E                     dE             d eps       ncg     rms          rms(c)
RMM:   1    -0.413169454055E+03   -0.13515E-03   -0.88864E+00  4297   0.673E-01    0.891E-01
RMM:   2    -0.413174126775E+03   -0.46727E-02   -0.10974E-01  4268   0.893E-02    0.656E-01
RMM:   3    -0.413170522392E+03    0.36044E-02   -0.18674E-02  4882   0.526E-02    0.119E-01
RMM:   4    -0.413200547795E+03   -0.30025E-01   -0.32437E-02  5116   0.150E-01    0.725E-01
RMM:   5    -0.413169680743E+03    0.30867E-01   -0.14799E-02  4788   0.120E-01    0.497E-02
RMM:   6    -0.413169872796E+03   -0.19205E-03   -0.26105E-03  5765   0.496E-02    0.333E-02
RMM:   7    -0.413169870448E+03    0.23475E-05   -0.43073E-04  5641   0.197E-02    0.214E-02
RMM:   8    -0.413169860559E+03    0.98899E-05   -0.67442E-05  5065   0.912E-03    0.103E-02
RMM:   9    -0.413169857676E+03    0.28822E-05   -0.13528E-05  3968   0.418E-03    0.759E-03
RMM:  10    -0.413169857809E+03   -0.13256E-06   -0.20346E-06  2570   0.229E-03
   18 T=    62. E= -.41286655E+03 F= -.41316986E+03 E0= -.41314774E+03  EK= 0.30331E+00 SP= 0.00E+00 SK= 0.00E+00
       N       E                     dE             d eps       ncg     rms          rms(c)
RMM:   1    -0.413171096566E+03   -0.12389E-02   -0.89046E+00  4303   0.686E-01    0.910E-01
RMM:   2    -0.413174972057E+03   -0.38755E-02   -0.10931E-01  4339   0.899E-02    0.654E-01
RMM:   3    -0.413178388073E+03   -0.34160E-02   -0.22778E-02  5131   0.904E-02    0.367E-01
RMM:   4    -0.413192466595E+03   -0.14079E-01   -0.38773E-02  5062   0.169E-01    0.604E-01
RMM:   5    -0.413171046211E+03    0.21420E-01   -0.77465E-03  4655   0.979E-02    0.582E-02
RMM:   6    -0.413171050675E+03   -0.44645E-05   -0.16227E-03  5391   0.400E-02    0.324E-02
RMM:   7    -0.413171052229E+03   -0.15531E-05   -0.31772E-04  5873   0.169E-02    0.191E-02
RMM:   8    -0.413171043786E+03    0.84427E-05   -0.57444E-05  5099   0.892E-03    0.767E-03
RMM:   9    -0.413171037704E+03    0.60824E-05   -0.70887E-06  3242   0.351E-03    0.395E-03
RMM:  10    -0.413171035359E+03    0.23445E-05   -0.15436E-06  2521   0.209E-03    0.247E-03
RMM:  11    -0.413171031704E+03    0.36550E-05   -0.11148E-06  2498   0.171E-03    0.137E-03
RMM:  12    -0.413171028315E+03    0.33887E-05   -0.64840E-07  2448   0.133E-03    0.547E-04
RMM:  13    -0.413171026175E+03    0.21402E-05   -0.32794E-07  2057   0.965E-04    0.311E-04
RMM:  14    -0.413171024156E+03    0.20188E-05   -0.18751E-07  1541   0.762E-04    0.206E-04
RMM:  15    -0.413171020783E+03    0.33728E-05   -0.17377E-07  1399   0.726E-04    0.158E-04
RMM:  16    -0.413171018174E+03    0.26092E-05   -0.11792E-07  1244   0.660E-04    0.144E-04
RMM:  17    -0.413171015093E+03    0.30812E-05   -0.11122E-07  1239   0.647E-04    0.760E-05
RMM:  18    -0.413171013251E+03    0.18419E-05   -0.63076E-08   988   0.583E-04    0.418E-05
RMM:  19    -0.413171012320E+03    0.93137E-06   -0.32961E-08   806   0.549E-04
   19 T=    62. E= -.41286687E+03 F= -.41317101E+03 E0= -.41314894E+03  EK= 0.30414E+00 SP= 0.00E+00 SK= 0.00E+00
       N       E                     dE             d eps       ncg     rms          rms(c)
RMM:   1    -0.413171266063E+03   -0.25281E-03   -0.88643E+00  4296   0.686E-01    0.900E-01
RMM:   2    -0.413175187695E+03   -0.39216E-02   -0.10902E-01  4267   0.885E-02    0.648E-01
RMM:   3    -0.413172392752E+03    0.27949E-02   -0.17504E-02  4974   0.529E-02    0.143E-01
RMM:   4    -0.413207720355E+03   -0.35328E-01   -0.39653E-02  5126   0.166E-01    0.785E-01
RMM:   5    -0.413171269891E+03    0.36450E-01   -0.17346E-02  4786   0.131E-01    0.537E-02
RMM:   6    -0.413171472321E+03   -0.20243E-03   -0.30131E-03  5730   0.542E-02    0.365E-02
RMM:   7    -0.413171458852E+03    0.13469E-04   -0.50530E-04  5663   0.209E-02    0.231E-02
RMM:   8    -0.413171446569E+03    0.12284E-04   -0.75390E-05  5221   0.961E-03    0.108E-02
RMM:   9    -0.413171440308E+03    0.62605E-05   -0.14623E-05  4066   0.431E-03    0.754E-03
RMM:  10    -0.413171436633E+03    0.36754E-05   -0.22430E-06  2584   0.234E-03    0.463E-03
RMM:  11    -0.413171434424E+03    0.22090E-05   -0.10815E-06  2502   0.168E-03    0.274E-03
RMM:  12    -0.413171429952E+03    0.44716E-05   -0.16990E-06  2549   0.202E-03    0.117E-03
RMM:  13    -0.413171427370E+03    0.25823E-05   -0.69918E-07  2411   0.142E-03    0.955E-04
RMM:  14    -0.413171427395E+03   -0.24775E-07   -0.27743E-07  2021   0.927E-04
   20 T=    62. E= -.41286660E+03 F= -.41317143E+03 E0= -.41314939E+03  EK= 0.30482E+00 SP= 0.00E+00 SK= 0.00E+00
       N       E                     dE             d eps       ncg     rms          rms(c)
RMM:   1    -0.413172076068E+03   -0.64870E-03   -0.89363E+00  4292   0.687E-01    0.891E-01
RMM:   2    -0.413176767911E+03   -0.46918E-02   -0.11062E-01  4278   0.897E-02    0.656E-01
RMM:   3    -0.413173112518E+03    0.36554E-02   -0.18404E-02  4884   0.506E-02    0.113E-01
RMM:   4    -0.413201644513E+03   -0.28532E-01   -0.30612E-02  5122   0.145E-01    0.707E-01
RMM:   5    -0.413172360689E+03    0.29284E-01   -0.14112E-02  4791   0.117E-01    0.491E-02
RMM:   6    -0.413172541399E+03   -0.18071E-03   -0.25405E-03  5798   0.483E-02    0.323E-02
RMM:   7    -0.413172544068E+03   -0.26686E-05   -0.39382E-04  5650   0.191E-02    0.206E-02
RMM:   8    -0.413172534315E+03    0.97528E-05   -0.70256E-05  5035   0.905E-03    0.106E-02
RMM:   9    -0.413172530604E+03    0.37114E-05   -0.13475E-05  4019   0.421E-03    0.785E-03
RMM:  10    -0.413172530010E+03    0.59341E-06   -0.19854E-06  2566   0.228E-03
   21 T=    62. E= -.41286670E+03 F= -.41317253E+03 E0= -.41315054E+03  EK= 0.30583E+00 SP= 0.00E+00 SK= 0.00E+00
       N       E                     dE             d eps       ncg     rms          rms(c)
RMM:   1    -0.413173541753E+03   -0.10111E-02   -0.89834E+00  4301   0.698E-01    0.908E-01
RMM:   2    -0.413177819918E+03   -0.42782E-02   -0.11053E-01  4344   0.898E-02    0.658E-01
RMM:   3    -0.413180557758E+03   -0.27378E-02   -0.22589E-02  5130   0.888E-02    0.356E-01
RMM:   4    -0.413196891663E+03   -0.16334E-01   -0.40383E-02  5075   0.172E-01    0.628E-01
RMM:   5    -0.413173609372E+03    0.23282E-01   -0.85611E-03  4660   0.102E-01    0.578E-02
RMM:   6    -0.413173637406E+03   -0.28034E-04   -0.17832E-03  5445   0.417E-02    0.324E-02
RMM:   7    -0.413173639940E+03   -0.25341E-05   -0.33074E-04  5874   0.169E-02    0.193E-02
RMM:   8    -0.413173632511E+03    0.74289E-05   -0.59241E-05  5106   0.890E-03    0.783E-03
RMM:   9    -0.413173626866E+03    0.56455E-05   -0.74738E-06  3283   0.351E-03    0.409E-03
RMM:  10    -0.413173624674E+03    0.21919E-05   -0.16335E-06  2531   0.209E-03    0.260E-03
RMM:  11    -0.413173621345E+03    0.33293E-05   -0.10696E-06  2490   0.168E-03    0.141E-03
RMM:  12    -0.413173617996E+03    0.33486E-05   -0.65929E-07  2449   0.134E-03    0.534E-04
RMM:  13    -0.413173616018E+03    0.19775E-05   -0.32792E-07  2056   0.968E-04    0.318E-04
RMM:  14    -0.413173614318E+03    0.17006E-05   -0.18316E-07  1585   0.761E-04    0.217E-04
RMM:  15    -0.413173610994E+03    0.33242E-05   -0.15869E-07  1364   0.717E-04    0.153E-04
RMM:  16    -0.413173608335E+03    0.26584E-05   -0.11077E-07  1221   0.658E-04    0.146E-04
RMM:  17    -0.413173605420E+03    0.29149E-05   -0.95680E-08  1196   0.636E-04    0.749E-05
RMM:  18    -0.413173603114E+03    0.23065E-05   -0.63032E-08  1016   0.593E-04    0.369E-05
RMM:  19    -0.413173602178E+03    0.93568E-06   -0.30936E-08   824   0.553E-04
   22 T=    62. E= -.41286674E+03 F= -.41317360E+03 E0= -.41315166E+03  EK= 0.30686E+00 SP= 0.00E+00 SK= 0.00E+00
       N       E                     dE             d eps       ncg     rms          rms(c)
RMM:   1    -0.413175635115E+03   -0.20320E-02   -0.89830E+00  4294   0.720E-01    0.909E-01
RMM:   2    -0.413178443573E+03   -0.28085E-02   -0.11038E-01  4281   0.926E-02    0.652E-01
RMM:   3    -0.413175109150E+03    0.33344E-02   -0.17370E-02  4916   0.539E-02    0.135E-01
RMM:   4    -0.413209583703E+03   -0.34475E-01   -0.37895E-02  5123   0.162E-01    0.775E-01
RMM:   5    -0.413174124443E+03    0.35459E-01   -0.16978E-02  4783   0.129E-01    0.531E-02
RMM:   6    -0.413174330316E+03   -0.20587E-03   -0.30276E-03  5748   0.534E-02    0.366E-02
RMM:   7    -0.413174317222E+03    0.13094E-04   -0.49399E-04  5641   0.211E-02    0.232E-02
RMM:   8    -0.413174302758E+03    0.14465E-04   -0.77217E-05  5176   0.973E-03    0.113E-02
RMM:   9    -0.413174295794E+03    0.69641E-05   -0.14717E-05  4085   0.438E-03    0.800E-03
RMM:  10    -0.413174290958E+03    0.48351E-05   -0.22857E-06  2592   0.239E-03    0.490E-03
RMM:  11    -0.413174287767E+03    0.31916E-05   -0.12027E-06  2510   0.176E-03    0.287E-03
RMM:  12    -0.413174281551E+03    0.62153E-05   -0.19107E-06  2576   0.212E-03    0.121E-03
RMM:  13    -0.413174278279E+03    0.32720E-05   -0.68603E-07  2408   0.143E-03    0.956E-04
RMM:  14    -0.413174278358E+03   -0.78406E-07   -0.28219E-07  2024   0.929E-04
   23 T=    63. E= -.41286647E+03 F= -.41317428E+03 E0= -.41315238E+03  EK= 0.30781E+00 SP= 0.00E+00 SK= 0.00E+00
       N       E                     dE             d eps       ncg     rms          rms(c)
RMM:   1    -0.413175400552E+03   -0.11223E-02   -0.90022E+00  4296   0.709E-01    0.893E-01
RMM:   2    -0.413180442132E+03   -0.50416E-02   -0.11146E-01  4288   0.926E-02    0.656E-01
RMM:   3    -0.413176273965E+03    0.41682E-02   -0.17908E-02  4794   0.515E-02    0.992E-02
RMM:   4    -0.413199912363E+03   -0.23638E-01   -0.24664E-02  5124   0.131E-01    0.644E-01
RMM:   5    -0.413175739954E+03    0.24172E-01   -0.11830E-02  4800   0.107E-01    0.469E-02
RMM:   6    -0.413175872773E+03   -0.13282E-03   -0.20838E-03  5804   0.437E-02    0.294E-02
RMM:   7    -0.413175869733E+03    0.30396E-05   -0.27074E-04  5633   0.167E-02    0.160E-02
RMM:   8    -0.413175864491E+03    0.52429E-05   -0.56570E-05  4991   0.783E-03    0.103E-02
RMM:   9    -0.413175859651E+03    0.48391E-05   -0.11270E-05  3875   0.389E-03    0.764E-03
RMM:  10    -0.413175857941E+03    0.17107E-05   -0.18255E-06  2557   0.224E-03    0.462E-03
RMM:  11    -0.413175856241E+03    0.16999E-05   -0.16292E-06  2533   0.202E-03    0.237E-03
RMM:  12    -0.413175853813E+03    0.24281E-05   -0.13910E-06  2506   0.186E-03    0.973E-04
RMM:  13    -0.413175852955E+03    0.85728E-06   -0.45876E-07  2277   0.120E-03
   24 T=    63. E= -.41286680E+03 F= -.41317585E+03 E0= -.41315401E+03  EK= 0.30906E+00 SP= 0.00E+00 SK= 0.00E+00
       N       E                     dE             d eps       ncg     rms          rms(c)
RMM:   1    -0.413176621827E+03   -0.76801E-03   -0.90836E+00  4299   0.716E-01    0.907E-01
RMM:   2    -0.413181257718E+03   -0.46359E-02   -0.11238E-01  4285   0.944E-02    0.662E-01
RMM:   3    -0.413177164225E+03    0.40935E-02   -0.17855E-02  4739   0.509E-02    0.930E-02
RMM:   4    -0.413197977474E+03   -0.20813E-01   -0.21499E-02  5132   0.122E-01    0.605E-01
RMM:   5    -0.413176727062E+03    0.21250E-01   -0.10431E-02  4801   0.100E-01    0.460E-02
RMM:   6    -0.413176842776E+03   -0.11571E-03   -0.18693E-03  5827   0.409E-02    0.285E-02
RMM:   7    -0.413176838546E+03    0.42298E-05   -0.22475E-04  5605   0.155E-02    0.144E-02
RMM:   8    -0.413176833634E+03    0.49122E-05   -0.44812E-05  4932   0.699E-03    0.979E-03
RMM:   9    -0.413176829141E+03    0.44925E-05   -0.94732E-06  3657   0.355E-03    0.735E-03
RMM:  10    -0.413176826931E+03    0.22101E-05   -0.16397E-06  2536   0.220E-03    0.445E-03
RMM:  11    -0.413176824079E+03    0.28520E-05   -0.17416E-06  2545   0.207E-03    0.224E-03
RMM:  12    -0.413176820409E+03    0.36708E-05   -0.12681E-06  2496   0.180E-03    0.946E-04
RMM:  13    -0.413176819391E+03    0.10179E-05   -0.41851E-07  2248   0.115E-03    0.641E-04
RMM:  14    -0.413176818878E+03    0.51259E-06   -0.19424E-07  1730   0.798E-04
   25 T=    63. E= -.41286663E+03 F= -.41317682E+03 E0= -.41315502E+03  EK= 0.31019E+00 SP= 0.00E+00 SK= 0.00E+00
       N       E                     dE             d eps       ncg     rms          rms(c)
RMM:   1    -0.413178350994E+03   -0.15316E-02   -0.90945E+00  4294   0.722E-01    0.919E-01
RMM:   2    -0.413182137905E+03   -0.37869E-02   -0.11229E-01  4284   0.964E-02    0.657E-01
RMM:   3    -0.413178618446E+03    0.35195E-02   -0.17134E-02  4817   0.524E-02    0.110E-01
RMM:   4    -0.413205674141E+03   -0.27056E-01   -0.28339E-02  5129   0.140E-01    0.687E-01
RMM:   5    -0.413178043139E+03    0.27631E-01   -0.13567E-02  4797   0.114E-01    0.497E-02
RMM:   6    -0.413178195402E+03   -0.15226E-03   -0.24195E-03  5811   0.470E-02    0.344E-02
RMM:   7    -0.413178182577E+03    0.12825E-04   -0.39516E-04  5594   0.197E-02    0.209E-02
RMM:   8    -0.413178168976E+03    0.13600E-04   -0.67612E-05  5045   0.923E-03    0.109E-02
RMM:   9    -0.413178161684E+03    0.72923E-05   -0.13028E-05  3931   0.417E-03    0.793E-03
RMM:  10    -0.413178156041E+03    0.56431E-05   -0.20877E-06  2571   0.239E-03    0.475E-03
RMM:  11    -0.413178151155E+03    0.48859E-05   -0.13819E-06  2528   0.189E-03    0.254E-03
RMM:  12    -0.413178143798E+03    0.73568E-05   -0.16512E-06  2541   0.202E-03    0.107E-03
RMM:  13    -0.413178140477E+03    0.33215E-05   -0.55187E-07  2356   0.132E-03    0.716E-04
RMM:  14    -0.413178140140E+03    0.33633E-06   -0.25589E-07  1942   0.880E-04
   26 T=    63. E= -.41286664E+03 F= -.41317814E+03 E0= -.41315639E+03  EK= 0.31150E+00 SP= 0.00E+00 SK= 0.00E+00
       N       E                     dE             d eps       ncg     rms          rms(c)
RMM:   1    -0.413179633067E+03   -0.14926E-02   -0.90901E+00  4291   0.733E-01    0.898E-01
RMM:   2    -0.413184086896E+03   -0.44538E-02   -0.11341E-01  4278   0.994E-02    0.657E-01
RMM:   3    -0.413180259114E+03    0.38278E-02   -0.17457E-02  4687   0.525E-02    0.883E-02
RMM:   4    -0.413198520428E+03   -0.18261E-01   -0.18711E-02  5137   0.114E-01    0.568E-01
RMM:   5    -0.413179913021E+03    0.18607E-01   -0.92596E-03  4807   0.935E-02    0.451E-02
RMM:   6    -0.413180002439E+03   -0.89419E-04   -0.16475E-03  5834   0.378E-02    0.278E-02
RMM:   7    -0.413179998734E+03    0.37059E-05   -0.19511E-04  5530   0.146E-02    0.133E-02
RMM:   8    -0.413179993767E+03    0.49665E-05   -0.32375E-05  4722   0.605E-03    0.887E-03
RMM:   9    -0.413179990272E+03    0.34948E-05   -0.75876E-06  3374   0.316E-03    0.663E-03
RMM:  10    -0.413179988255E+03    0.20173E-05   -0.15528E-06  2531   0.213E-03    0.406E-03
RMM:  11    -0.413179984848E+03    0.34068E-05   -0.18500E-06  2558   0.212E-03    0.200E-03
RMM:  12    -0.413179981072E+03    0.37766E-05   -0.11275E-06  2473   0.174E-03    0.106E-03
RMM:  13    -0.413179980186E+03    0.88539E-06   -0.36868E-07  2229   0.110E-03
   27 T=    64. E= -.41286694E+03 F= -.41317998E+03 E0= -.41315828E+03  EK= 0.31304E+00 SP= 0.00E+00 SK= 0.00E+00
       N       E                     dE             d eps       ncg     rms          rms(c)
RMM:   1    -0.413180694434E+03   -0.71336E-03   -0.92064E+00  4294   0.735E-01    0.908E-01
RMM:   2    -0.413185341082E+03   -0.46466E-02   -0.11476E-01  4280   0.100E-01    0.667E-01
RMM:   3    -0.413181232050E+03    0.41090E-02   -0.18169E-02  4556   0.519E-02    0.745E-02
RMM:   4    -0.413192151534E+03   -0.10919E-01   -0.11030E-02  5141   0.882E-02    0.442E-01
RMM:   5    -0.413181037611E+03    0.11114E-01   -0.55963E-03  4828   0.723E-02    0.421E-02
RMM:   6    -0.413181080145E+03   -0.42535E-04   -0.10621E-03  5844   0.297E-02    0.244E-02
RMM:   7    -0.413181082006E+03   -0.18603E-05   -0.15686E-04  5482   0.132E-02    0.144E-02
RMM:   8    -0.413181070358E+03    0.11647E-04   -0.26351E-05  4559   0.579E-03    0.777E-03
RMM:   9    -0.413181069245E+03    0.11137E-05   -0.52566E-06  3023   0.289E-03    0.581E-03
RMM:  10    -0.413181067079E+03    0.21657E-05   -0.13576E-06  2494   0.201E-03    0.313E-03
RMM:  11    -0.413181064777E+03    0.23026E-05   -0.10893E-06  2494   0.169E-03    0.167E-03
RMM:  12    -0.413181062169E+03    0.26079E-05   -0.66677E-07  2396   0.133E-03    0.836E-04
RMM:  13    -0.413181061114E+03    0.10549E-05   -0.28662E-07  2008   0.922E-04    0.422E-04
RMM:  14    -0.413181059880E+03    0.12336E-05   -0.15250E-07  1468   0.728E-04    0.279E-04
RMM:  15    -0.413181056811E+03    0.30688E-05   -0.15288E-07  1626   0.735E-04    0.192E-04
RMM:  16    -0.413181055033E+03    0.17785E-05   -0.66457E-08  1025   0.614E-04    0.163E-04
RMM:  17    -0.413181052818E+03    0.22150E-05   -0.52489E-08   920   0.585E-04    0.933E-05
RMM:  18    -0.413181049983E+03    0.28349E-05   -0.51178E-08   958   0.591E-04    0.327E-05
RMM:  19    -0.413181049119E+03    0.86422E-06   -0.20206E-08   759   0.550E-04
   28 T=    64. E= -.41286662E+03 F= -.41318105E+03 E0= -.41315940E+03  EK= 0.31443E+00 SP= 0.00E+00 SK= 0.00E+00
       N       E                     dE             d eps       ncg     rms          rms(c)
RMM:   1    -0.413183524773E+03   -0.24748E-02   -0.92380E+00  4286   0.759E-01    0.926E-01
RMM:   2    -0.413187218857E+03   -0.36941E-02   -0.11474E-01  4274   0.102E-01    0.663E-01
RMM:   3    -0.413183349461E+03    0.38694E-02   -0.17200E-02  4681   0.506E-02    0.930E-02
RMM:   4    -0.413200940026E+03   -0.17591E-01   -0.17972E-02  5139   0.112E-01    0.557E-01
RMM:   5    -0.413183061746E+03    0.17878E-01   -0.89704E-03  4814   0.917E-02    0.459E-02
RMM:   6    -0.413183145626E+03   -0.83880E-04   -0.15935E-03  5837   0.372E-02    0.285E-02
RMM:   7    -0.413183140021E+03    0.56049E-05   -0.19948E-04  5519   0.148E-02    0.140E-02
RMM:   8    -0.413183130106E+03    0.99152E-05   -0.28850E-05  4622   0.582E-03    0.851E-03
RMM:   9    -0.413183128213E+03    0.18929E-05   -0.87466E-06  3600   0.331E-03    0.693E-03
RMM:  10    -0.413183123129E+03    0.50842E-05   -0.15370E-06  2533   0.216E-03    0.397E-03
RMM:  11    -0.413183118461E+03    0.46682E-05   -0.13595E-06  2519   0.186E-03    0.212E-03
RMM:  12    -0.413183112459E+03    0.60021E-05   -0.12028E-06  2496   0.175E-03    0.107E-03
RMM:  13    -0.413183110602E+03    0.18570E-05   -0.40024E-07  2254   0.113E-03    0.579E-04
RMM:  14    -0.413183109710E+03    0.89208E-06   -0.18413E-07  1703   0.778E-04
   29 T=    64. E= -.41286685E+03 F= -.41318311E+03 E0= -.41316151E+03  EK= 0.31626E+00 SP= 0.00E+00 SK= 0.00E+00
       N       E                     dE             d eps       ncg     rms          rms(c)
RMM:   1    -0.413186765970E+03   -0.36554E-02   -0.92393E+00  4292   0.800E-01    0.907E-01
RMM:   2    -0.413189447577E+03   -0.26816E-02   -0.11748E-01  4276   0.112E-01    0.660E-01
RMM:   3    -0.413185091407E+03    0.43562E-02   -0.17114E-02  4520   0.546E-02    0.777E-02
RMM:   4    -0.413194463301E+03   -0.93719E-02   -0.95324E-03  5142   0.818E-02    0.409E-01
RMM:   5    -0.413184962930E+03    0.95004E-02   -0.48642E-03  4832   0.672E-02    0.423E-02
RMM:   6    -0.413184998701E+03   -0.35771E-04   -0.97638E-04  5815   0.289E-02    0.271E-02
RMM:   7    -0.413184995058E+03    0.36427E-05   -0.23665E-04  5368   0.158E-02    0.176E-02
RMM:   8    -0.413184978864E+03    0.16195E-04   -0.27127E-05  4636   0.643E-03    0.808E-03
RMM:   9    -0.413184976691E+03    0.21726E-05   -0.47794E-06  2907   0.275E-03    0.563E-03
RMM:  10    -0.413184972794E+03    0.38974E-05   -0.16301E-06  2516   0.205E-03    0.303E-03
RMM:  11    -0.413184968928E+03    0.38659E-05   -0.10185E-06  2471   0.169E-03    0.152E-03
RMM:  12    -0.413184965282E+03    0.36453E-05   -0.61663E-07  2372   0.130E-03    0.799E-04
RMM:  13    -0.413184963258E+03    0.20241E-05   -0.29864E-07  1989   0.935E-04    0.353E-04
RMM:  14    -0.413184961301E+03    0.19575E-05   -0.16119E-07  1504   0.737E-04    0.219E-04
RMM:  15    -0.413184957955E+03    0.33458E-05   -0.11317E-07  1306   0.684E-04    0.126E-04
RMM:  16    -0.413184955126E+03    0.28284E-05   -0.71666E-08  1054   0.630E-04    0.943E-05
RMM:  17    -0.413184953006E+03    0.21205E-05   -0.46745E-08   940   0.596E-04    0.587E-05
RMM:  18    -0.413184949503E+03    0.35031E-05   -0.64396E-08  1169   0.624E-04    0.400E-05
RMM:  19    -0.413184948644E+03    0.85905E-06   -0.21433E-08   770   0.543E-04
   30 T=    65. E= -.41286676E+03 F= -.41318495E+03 E0= -.41316340E+03  EK= 0.31819E+00 SP= 0.00E+00 SK= 0.00E+00
       N       E                     dE             d eps       ncg     rms          rms(c)
RMM:   1    -0.413186133741E+03   -0.11842E-02   -0.93553E+00  4292   0.763E-01    0.911E-01
RMM:   2    -0.413191587720E+03   -0.54540E-02   -0.11776E-01  4276   0.111E-01    0.672E-01
RMM:   3    -0.413186875236E+03    0.47125E-02   -0.18519E-02  4592   0.612E-02    0.822E-02
RMM:   4    -0.413202294437E+03   -0.15419E-01   -0.15592E-02  5136   0.105E-01    0.523E-01
RMM:   5    -0.413186588491E+03    0.15706E-01   -0.78877E-03  4822   0.859E-02    0.440E-02
RMM:   6    -0.413186659062E+03   -0.70571E-04   -0.14076E-03  5842   0.348E-02    0.270E-02
RMM:   7    -0.413186665515E+03   -0.64527E-05   -0.21211E-04  5500   0.151E-02    0.154E-02
RMM:   8    -0.413186654308E+03    0.11207E-04   -0.35596E-05  4790   0.656E-03    0.853E-03
RMM:   9    -0.413186653709E+03    0.59835E-06   -0.78034E-06  3426   0.335E-03
   31 T=    65. E= -.41286646E+03 F= -.41318665E+03 E0= -.41316516E+03  EK= 0.32019E+00 SP= 0.00E+00 SK= 0.00E+00
       N       E                     dE             d eps       ncg     rms          rms(c)
RMM:   1    -0.413191736061E+03   -0.50818E-02   -0.94334E+00  4295   0.817E-01    0.933E-01
RMM:   2    -0.413193768895E+03   -0.20328E-02   -0.12122E-01  4313   0.119E-01    0.671E-01
RMM:   3    -0.413193241054E+03    0.52784E-03   -0.19940E-02  5026   0.878E-02    0.278E-01
RMM:   4    -0.413223429146E+03   -0.30188E-01   -0.45971E-02  5082   0.182E-01    0.760E-01
RMM:   5    -0.413189114527E+03    0.34315E-01   -0.14366E-02  4734   0.124E-01    0.581E-02
RMM:   6    -0.413189239499E+03   -0.12497E-03   -0.28298E-03  5733   0.507E-02    0.359E-02
RMM:   7    -0.413189238267E+03    0.12319E-05   -0.45792E-04  5752   0.197E-02    0.231E-02
RMM:   8    -0.413189228956E+03    0.93110E-05   -0.84662E-05  5150   0.103E-02    0.105E-02
RMM:   9    -0.413189219499E+03    0.94565E-05   -0.12546E-05  3907   0.443E-03    0.544E-03
RMM:  10    -0.413189214198E+03    0.53010E-05   -0.26876E-06  2651   0.244E-03    0.353E-03
RMM:  11    -0.413189208991E+03    0.52076E-05   -0.11835E-06  2498   0.180E-03    0.185E-03
RMM:  12    -0.413189201346E+03    0.76442E-05   -0.97682E-07  2474   0.160E-03    0.658E-04
RMM:  13    -0.413189197700E+03    0.36466E-05   -0.48503E-07  2298   0.117E-03    0.418E-04
RMM:  14    -0.413189195785E+03    0.19151E-05   -0.25313E-07  1879   0.862E-04    0.321E-04
RMM:  15    -0.413189191347E+03    0.44377E-05   -0.16307E-07  1509   0.745E-04    0.172E-04
RMM:  16    -0.413189186764E+03    0.45830E-05   -0.11696E-07  1303   0.681E-04    0.206E-04
RMM:  17    -0.413189182747E+03    0.40174E-05   -0.85749E-08  1144   0.634E-04    0.144E-04
RMM:  18    -0.413189180106E+03    0.26410E-05   -0.59802E-08  1040   0.604E-04    0.639E-05
RMM:  19    -0.413189177119E+03    0.29863E-05   -0.56462E-08  1143   0.609E-04    0.360E-05
RMM:  20    -0.413189176775E+03    0.34420E-06   -0.23035E-08   783   0.540E-04
   32 T=    66. E= -.41286664E+03 F= -.41318918E+03 E0= -.41316773E+03  EK= 0.32254E+00 SP= 0.00E+00 SK= 0.00E+00
       N       E                     dE             d eps       ncg     rms          rms(c)
RMM:   1    -0.413192215551E+03   -0.30384E-02   -0.94132E+00  4298   0.824E-01    0.921E-01
RMM:   2    -0.413195380424E+03   -0.31649E-02   -0.12092E-01  4283   0.120E-01    0.666E-01
RMM:   3    -0.413191173196E+03    0.42072E-02   -0.17174E-02  4383   0.640E-02    0.757E-02
RMM:   4    -0.413195287207E+03   -0.41140E-02   -0.43691E-03  5161   0.556E-02    0.273E-01
RMM:   5    -0.413191142060E+03    0.41451E-02   -0.21810E-03  4831   0.453E-02    0.418E-02
RMM:   6    -0.413191173602E+03   -0.31542E-04   -0.66231E-04  5648   0.246E-02    0.308E-02
RMM:   7    -0.413191139921E+03    0.33682E-04   -0.25174E-04  5147   0.163E-02    0.176E-02
RMM:   8    -0.413191129997E+03    0.99235E-05   -0.24142E-05  4500   0.579E-03    0.701E-03
RMM:   9    -0.413191127910E+03    0.20871E-05   -0.28660E-06  2651   0.228E-03    0.443E-03
RMM:  10    -0.413191123329E+03    0.45813E-05   -0.10758E-06  2481   0.171E-03    0.239E-03
RMM:  11    -0.413191119072E+03    0.42566E-05   -0.73326E-07  2411   0.135E-03    0.104E-03
RMM:  12    -0.413191115290E+03    0.37819E-05   -0.39291E-07  2164   0.103E-03    0.457E-04
RMM:  13    -0.413191112428E+03    0.28624E-05   -0.21444E-07  1679   0.803E-04    0.250E-04
RMM:  14    -0.413191109518E+03    0.29097E-05   -0.10968E-07  1167   0.671E-04    0.176E-04
RMM:  15    -0.413191105410E+03    0.41083E-05   -0.84732E-08  1116   0.646E-04    0.815E-05
RMM:  16    -0.413191102794E+03    0.26154E-05   -0.55525E-08  1002   0.613E-04    0.720E-05
RMM:  17    -0.413191099567E+03    0.32277E-05   -0.56498E-08  1118   0.608E-04    0.488E-05
RMM:  18    -0.413191097490E+03    0.20764E-05   -0.34688E-08   926   0.565E-04    0.345E-05
RMM:  19    -0.413191096917E+03    0.57335E-06   -0.14873E-08   684   0.524E-04
   33 T=    66. E= -.41286643E+03 F= -.41319110E+03 E0= -.41316970E+03  EK= 0.32467E+00 SP= 0.00E+00 SK= 0.00E+00
       N       E                     dE             d eps       ncg     rms          rms(c)
RMM:   1    -0.413194214575E+03   -0.31171E-02   -0.95363E+00  4301   0.822E-01    0.917E-01
RMM:   2    -0.413197964231E+03   -0.37497E-02   -0.12248E-01  4278   0.124E-01    0.677E-01
RMM:   3    -0.413193553060E+03    0.44112E-02   -0.18436E-02  4360   0.688E-02    0.639E-02
RMM:   4    -0.413197062420E+03   -0.35094E-02   -0.37041E-03  5157   0.515E-02    0.253E-01
RMM:   5    -0.413193508966E+03    0.35535E-02   -0.18633E-03  4834   0.420E-02    0.408E-02
RMM:   6    -0.413193541903E+03   -0.32937E-04   -0.61904E-04  5626   0.234E-02    0.295E-02
RMM:   7    -0.413193517839E+03    0.24064E-04   -0.24100E-04  5123   0.159E-02    0.186E-02
RMM:   8    -0.413193507781E+03    0.10059E-04   -0.22877E-05  4293   0.556E-03    0.698E-03
RMM:   9    -0.413193506725E+03    0.10555E-05   -0.26195E-06  2587   0.224E-03    0.442E-03
RMM:  10    -0.413193504869E+03    0.18565E-05   -0.11897E-06  2481   0.176E-03    0.230E-03
RMM:  11    -0.413193503312E+03    0.15563E-05   -0.74066E-07  2404   0.134E-03    0.104E-03
RMM:  12    -0.413193501424E+03    0.18878E-05   -0.42007E-07  2136   0.104E-03    0.432E-04
RMM:  13    -0.413193499836E+03    0.15887E-05   -0.22478E-07  1681   0.806E-04    0.262E-04
RMM:  14    -0.413193497919E+03    0.19163E-05   -0.11942E-07  1152   0.677E-04    0.200E-04
RMM:  15    -0.413193495066E+03    0.28533E-05   -0.99347E-08  1096   0.656E-04    0.800E-05
RMM:  16    -0.413193493467E+03    0.15993E-05   -0.59906E-08   985   0.616E-04    0.714E-05
RMM:  17    -0.413193491061E+03    0.24063E-05   -0.52885E-08   981   0.600E-04    0.393E-05
RMM:  18    -0.413193489557E+03    0.15034E-05   -0.32665E-08   844   0.565E-04    0.282E-05
RMM:  19    -0.413193488900E+03    0.65762E-06   -0.16166E-08   668   0.534E-04
   34 T=    67. E= -.41286659E+03 F= -.41319349E+03 E0= -.41317214E+03  EK= 0.32690E+00 SP= 0.00E+00 SK= 0.00E+00
       N       E                     dE             d eps       ncg     rms          rms(c)
RMM:   1    -0.413207023986E+03   -0.13534E-01   -0.97056E+00  4300   0.923E-01    0.937E-01
RMM:   2    -0.413200256865E+03    0.67671E-02   -0.13699E-01  4271   0.133E-01    0.680E-01
RMM:   3    -0.413196161695E+03    0.40952E-02   -0.16481E-02  4272   0.677E-02    0.876E-02
RMM:   4    -0.413197049722E+03   -0.88803E-03   -0.14221E-03  5172   0.303E-02    0.128E-01
RMM:   5    -0.413196214557E+03    0.83517E-03   -0.50827E-04  4801   0.226E-02    0.423E-02
RMM:   6    -0.413196240492E+03   -0.25935E-04   -0.45194E-04  5405   0.210E-02    0.316E-02
RMM:   7    -0.413196195046E+03    0.45446E-04   -0.21252E-04  4877   0.155E-02    0.180E-02
RMM:   8    -0.413196189039E+03    0.60073E-05   -0.28041E-05  4631   0.561E-03    0.656E-03
RMM:   9    -0.413196187794E+03    0.12444E-05   -0.36070E-06  2521   0.224E-03    0.287E-03
RMM:  10    -0.413196182987E+03    0.48073E-05   -0.90585E-07  2349   0.158E-03    0.147E-03
RMM:  11    -0.413196179167E+03    0.38196E-05   -0.42337E-07  2125   0.103E-03    0.592E-04
RMM:  12    -0.413196175163E+03    0.40049E-05   -0.24086E-07  1629   0.826E-04    0.248E-04
RMM:  13    -0.413196171474E+03    0.36882E-05   -0.13444E-07  1201   0.699E-04    0.217E-04
RMM:  14    -0.413196168282E+03    0.31924E-05   -0.76337E-08   885   0.632E-04    0.140E-04
RMM:  15    -0.413196162821E+03    0.54608E-05   -0.92807E-08  1133   0.657E-04    0.852E-05
RMM:  16    -0.413196159693E+03    0.31286E-05   -0.48668E-08   865   0.586E-04    0.814E-05
RMM:  17    -0.413196157947E+03    0.17456E-05   -0.24438E-08   677   0.543E-04    0.406E-05
RMM:  18    -0.413196157137E+03    0.81007E-06   -0.14885E-08   575   0.524E-04
   35 T=    67. E= -.41286689E+03 F= -.41319616E+03 E0= -.41317485E+03  EK= 0.32927E+00 SP= 0.00E+00 SK= 0.00E+00
       N       E                     dE             d eps       ncg     rms          rms(c)
RMM:   1    -0.413200752455E+03   -0.45945E-02   -0.96301E+00  4300   0.877E-01    0.937E-01
RMM:   2    -0.413202210210E+03   -0.14578E-02   -0.12561E-01  4263   0.132E-01    0.674E-01
RMM:   3    -0.413198364708E+03    0.38455E-02   -0.17159E-02  4403   0.693E-02    0.837E-02
RMM:   4    -0.413203573470E+03   -0.52088E-02   -0.54541E-03  5173   0.627E-02    0.307E-01
RMM:   5    -0.413198350939E+03    0.52225E-02   -0.27272E-03  4826   0.512E-02    0.432E-02
RMM:   6    -0.413198372199E+03   -0.21260E-04   -0.75191E-04  5661   0.272E-02    0.320E-02
RMM:   7    -0.413198347219E+03    0.24980E-04   -0.28480E-04  5161   0.173E-02    0.187E-02
RMM:   8    -0.413198335148E+03    0.12071E-04   -0.28754E-05  4821   0.634E-03    0.825E-03
RMM:   9    -0.413198332705E+03    0.24425E-05   -0.41116E-06  2752   0.250E-03    0.466E-03
RMM:  10    -0.413198327356E+03    0.53491E-05   -0.13288E-06  2496   0.193E-03    0.250E-03
RMM:  11    -0.413198322338E+03    0.50184E-05   -0.79856E-07  2447   0.144E-03    0.117E-03
RMM:  12    -0.413198317610E+03    0.47275E-05   -0.44678E-07  2239   0.111E-03    0.528E-04
RMM:  13    -0.413198314028E+03    0.35825E-05   -0.24173E-07  1803   0.847E-04    0.282E-04
RMM:  14    -0.413198310714E+03    0.33141E-05   -0.11899E-07  1245   0.686E-04    0.193E-04
RMM:  15    -0.413198306141E+03    0.45723E-05   -0.76759E-08  1048   0.641E-04    0.100E-04
RMM:  16    -0.413198302789E+03    0.33521E-05   -0.57750E-08  1037   0.620E-04    0.665E-05
RMM:  17    -0.413198300002E+03    0.27873E-05   -0.44261E-08  1018   0.599E-04    0.484E-05
RMM:  18    -0.413198296341E+03    0.36604E-05   -0.42894E-08  1081   0.593E-04    0.299E-05
RMM:  19    -0.413198295698E+03    0.64331E-06   -0.14793E-08   689   0.524E-04
   36 T=    68. E= -.41286672E+03 F= -.41319830E+03 E0= -.41317703E+03  EK= 0.33158E+00 SP= 0.00E+00 SK= 0.00E+00
       N       E                     dE             d eps       ncg     rms          rms(c)
RMM:   1    -0.413205483241E+03   -0.71869E-02   -0.97376E+00  4305   0.919E-01    0.924E-01
RMM:   2    -0.413205882232E+03   -0.39899E-03   -0.12984E-01  4263   0.131E-01    0.682E-01
RMM:   3    -0.413201326872E+03    0.45554E-02   -0.17713E-02  4511   0.658E-02    0.813E-02
RMM:   4    -0.413212593500E+03   -0.11267E-01   -0.11422E-02  5160   0.900E-02    0.449E-01
RMM:   5    -0.413201208577E+03    0.11385E-01   -0.57933E-03  4827   0.745E-02    0.445E-02
RMM:   6    -0.413201226383E+03   -0.17805E-04   -0.11960E-03  5762   0.330E-02    0.307E-02
RMM:   7    -0.413201230743E+03   -0.43605E-05   -0.32941E-04  5360   0.178E-02    0.201E-02
RMM:   8    -0.413201213976E+03    0.16767E-04   -0.36794E-05  4879   0.730E-03    0.908E-03
RMM:   9    -0.413201212776E+03    0.12004E-05   -0.64343E-06  3064   0.309E-03    0.567E-03
RMM:  10    -0.413201210474E+03    0.23021E-05   -0.16493E-06  2523   0.219E-03    0.301E-03
RMM:  11    -0.413201207804E+03    0.26693E-05   -0.11730E-06  2496   0.175E-03    0.151E-03
RMM:  12    -0.413201204918E+03    0.28862E-05   -0.70910E-07  2412   0.138E-03    0.773E-04
RMM:  13    -0.413201203271E+03    0.16471E-05   -0.33491E-07  2044   0.974E-04    0.382E-04
RMM:  14    -0.413201201663E+03    0.16077E-05   -0.17224E-07  1526   0.747E-04    0.234E-04
RMM:  15    -0.413201198771E+03    0.28920E-05   -0.10941E-07  1244   0.675E-04    0.116E-04
RMM:  16    -0.413201196455E+03    0.23165E-05   -0.68896E-08  1016   0.629E-04    0.806E-05
RMM:  17    -0.413201194526E+03    0.19290E-05   -0.46755E-08   945   0.603E-04    0.511E-05
RMM:  18    -0.413201191394E+03    0.31317E-05   -0.48916E-08  1030   0.608E-04    0.278E-05
RMM:  19    -0.413201190420E+03    0.97437E-06   -0.21333E-08   776   0.557E-04
   37 T=    68. E= -.41286699E+03 F= -.41320119E+03 E0= -.41317997E+03  EK= 0.33420E+00 SP= 0.00E+00 SK= 0.00E+00
       N       E                     dE             d eps       ncg     rms          rms(c)
RMM:   1    -0.413212012226E+03   -0.10821E-01   -0.98872E+00  4308   0.967E-01    0.942E-01
RMM:   2    -0.413208577181E+03    0.34350E-02   -0.13716E-01  4260   0.129E-01    0.689E-01
RMM:   3    -0.413204147974E+03    0.44292E-02   -0.17162E-02  4750   0.621E-02    0.120E-01
RMM:   4    -0.413235104169E+03   -0.30956E-01   -0.31996E-02  5130   0.150E-01    0.734E-01
RMM:   5    -0.413203662736E+03    0.31441E-01   -0.15768E-02  4802   0.122E-01    0.515E-02
RMM:   6    -0.413203723584E+03   -0.60847E-04   -0.26156E-03  5841   0.485E-02    0.330E-02
RMM:   7    -0.413203733745E+03   -0.10161E-04   -0.35923E-04  5634   0.182E-02    0.180E-02
RMM:   8    -0.413203724625E+03    0.91192E-05   -0.59063E-05  5001   0.811E-03    0.104E-02
RMM:   9    -0.413203723436E+03    0.11892E-05   -0.18547E-05  4444   0.476E-03    0.774E-03
RMM:  10    -0.413203718433E+03    0.50036E-05   -0.24681E-06  2633   0.260E-03    0.431E-03
RMM:  11    -0.413203715927E+03    0.25055E-05   -0.12532E-06  2504   0.182E-03    0.269E-03
RMM:  12    -0.413203709477E+03    0.64501E-05   -0.19039E-06  2548   0.219E-03    0.138E-03
RMM:  13    -0.413203706458E+03    0.30190E-05   -0.68204E-07  2399   0.145E-03    0.864E-04
RMM:  14    -0.413203706032E+03    0.42616E-06   -0.26749E-07  2036   0.923E-04
   38 T=    69. E= -.41286691E+03 F= -.41320371E+03 E0= -.41318253E+03  EK= 0.33680E+00 SP= 0.00E+00 SK= 0.00E+00
       N       E                     dE             d eps       ncg     rms          rms(c)
RMM:   1    -0.413209633517E+03   -0.59271E-02   -0.98708E+00  4307   0.971E-01    0.953E-01
RMM:   2    -0.413210992291E+03   -0.13588E-02   -0.13147E-01  4263   0.124E-01    0.683E-01
RMM:   3    -0.413206782798E+03    0.42095E-02   -0.17183E-02  4857   0.588E-02    0.133E-01
RMM:   4    -0.413241787457E+03   -0.35005E-01   -0.36837E-02  5131   0.160E-01    0.780E-01
RMM:   5    -0.413206156032E+03    0.35631E-01   -0.17747E-02  4798   0.130E-01    0.539E-02
RMM:   6    -0.413206232014E+03   -0.75983E-04   -0.29585E-03  5831   0.514E-02    0.347E-02
RMM:   7    -0.413206244222E+03   -0.12207E-04   -0.41206E-04  5668   0.192E-02    0.194E-02
RMM:   8    -0.413206231956E+03    0.12266E-04   -0.70071E-05  5077   0.874E-03    0.111E-02
RMM:   9    -0.413206228563E+03    0.33926E-05   -0.20518E-05  4534   0.503E-03    0.782E-03
RMM:  10    -0.413206221032E+03    0.75312E-05   -0.28022E-06  2673   0.266E-03    0.443E-03
RMM:  11    -0.413206216753E+03    0.42794E-05   -0.12385E-06  2495   0.184E-03    0.274E-03
RMM:  12    -0.413206206149E+03    0.10604E-04   -0.17941E-06  2534   0.217E-03    0.138E-03
RMM:  13    -0.413206200997E+03    0.51518E-05   -0.69923E-07  2408   0.147E-03    0.896E-04
RMM:  14    -0.413206200332E+03    0.66510E-06   -0.27821E-07  2087   0.945E-04
   39 T=    69. E= -.41286673E+03 F= -.41320620E+03 E0= -.41318506E+03  EK= 0.33947E+00 SP= 0.00E+00 SK= 0.00E+00
       N       E                     dE             d eps       ncg     rms          rms(c)
RMM:   1    -0.413220326189E+03   -0.14125E-01   -0.99931E+00  4309   0.106E+00    0.933E-01
RMM:   2    -0.413214455339E+03    0.58709E-02   -0.14622E-01  4263   0.130E-01    0.688E-01
RMM:   3    -0.413210189161E+03    0.42662E-02   -0.16566E-02  4936   0.632E-02    0.161E-01
RMM:   4    -0.413256146733E+03   -0.45958E-01   -0.50192E-02  5132   0.187E-01    0.890E-01
RMM:   5    -0.413209096603E+03    0.47050E-01   -0.23091E-02  4788   0.149E-01    0.578E-02
RMM:   6    -0.413209229786E+03   -0.13318E-03   -0.38510E-03  5830   0.581E-02    0.360E-02
RMM:   7    -0.413209240172E+03   -0.10386E-04   -0.46095E-04  5697   0.200E-02    0.193E-02
RMM:   8    -0.413209238627E+03    0.15447E-05   -0.74680E-05  5080   0.860E-03    0.114E-02
RMM:   9    -0.413209231759E+03    0.68678E-05   -0.23646E-05  4588   0.513E-03    0.785E-03
RMM:  10    -0.413209227738E+03    0.40210E-05   -0.44752E-06  2882   0.301E-03    0.462E-03
RMM:  11    -0.413209224457E+03    0.32810E-05   -0.17290E-06  2512   0.215E-03    0.284E-03
RMM:  12    -0.413209216662E+03    0.77950E-05   -0.19333E-06  2533   0.225E-03    0.112E-03
RMM:  13    -0.413209212451E+03    0.42110E-05   -0.75317E-07  2442   0.152E-03    0.908E-04
RMM:  14    -0.413209212315E+03    0.13598E-06   -0.30738E-07  2140   0.981E-04
   40 T=    70. E= -.41286691E+03 F= -.41320921E+03 E0= -.41318811E+03  EK= 0.34231E+00 SP= 0.00E+00 SK= 0.00E+00
       N       E                     dE             d eps       ncg     rms          rms(c)
RMM:   1    -0.413220114583E+03   -0.10902E-01   -0.10114E+01  4310   0.109E+00    0.948E-01
RMM:   2    -0.413216605245E+03    0.35093E-02   -0.13876E-01  4265   0.137E-01    0.697E-01
RMM:   3    -0.413212795314E+03    0.38099E-02   -0.18575E-02  4975   0.686E-02    0.181E-01
RMM:   4    -0.413260349763E+03   -0.47554E-01   -0.54495E-02  5129   0.195E-01    0.908E-01
RMM:   5    -0.413211145697E+03    0.49204E-01   -0.23545E-02  4787   0.151E-01    0.591E-02
RMM:   6    -0.413211292827E+03   -0.14713E-03   -0.40010E-03  5824   0.592E-02    0.363E-02
RMM:   7    -0.413211305865E+03   -0.13039E-04   -0.49124E-04  5739   0.205E-02    0.207E-02
RMM:   8    -0.413211307462E+03   -0.15971E-05   -0.10309E-04  5201   0.101E-02    0.133E-02
RMM:   9    -0.413211296689E+03    0.10773E-04   -0.25386E-05  4664   0.568E-03    0.756E-03
RMM:  10    -0.413211292912E+03    0.37768E-05   -0.42386E-06  2813   0.296E-03    0.453E-03
RMM:  11    -0.413211289992E+03    0.29209E-05   -0.14972E-06  2503   0.205E-03    0.276E-03
RMM:  12    -0.413211283272E+03    0.67200E-05   -0.17211E-06  2536   0.211E-03    0.111E-03
RMM:  13    -0.413211278914E+03    0.43579E-05   -0.73477E-07  2442   0.148E-03    0.782E-04
RMM:  14    -0.413211278379E+03    0.53503E-06   -0.30557E-07  2123   0.974E-04
   41 T=    70. E= -.41286647E+03 F= -.41321128E+03 E0= -.41319021E+03  EK= 0.34481E+00 SP= 0.00E+00 SK= 0.00E+00
       N       E                     dE             d eps       ncg     rms          rms(c)
RMM:   1    -0.413229734832E+03   -0.18456E-01   -0.10217E+01  4312   0.120E+00    0.967E-01
RMM:   2    -0.413218581220E+03    0.11154E-01   -0.14357E-01  4294   0.135E-01    0.694E-01
RMM:   3    -0.413216676710E+03    0.19045E-02   -0.18772E-02  5064   0.752E-02    0.248E-01
RMM:   4    -0.413259154657E+03   -0.42478E-01   -0.55692E-02  5099   0.198E-01    0.874E-01
RMM:   5    -0.413213722430E+03    0.45432E-01   -0.20588E-02  4760   0.145E-01    0.617E-02
RMM:   6    -0.413213832841E+03   -0.11041E-03   -0.36447E-03  5785   0.569E-02    0.374E-02
RMM:   7    -0.413213837123E+03   -0.42823E-05   -0.50121E-04  5727   0.208E-02    0.227E-02
RMM:   8    -0.413213834363E+03    0.27597E-05   -0.13133E-04  5237   0.116E-02    0.141E-02
RMM:   9    -0.413213818839E+03    0.15524E-04   -0.22999E-05  4549   0.591E-03    0.644E-03
RMM:  10    -0.413213812709E+03    0.61296E-05   -0.50826E-06  2980   0.294E-03    0.397E-03
RMM:  11    -0.413213807773E+03    0.49357E-05   -0.12915E-06  2495   0.196E-03    0.229E-03
RMM:  12    -0.413213798212E+03    0.95611E-05   -0.11283E-06  2483   0.180E-03    0.908E-04
RMM:  13    -0.413213792150E+03    0.60622E-05   -0.52696E-07  2369   0.127E-03    0.529E-04
RMM:  14    -0.413213790873E+03    0.12773E-05   -0.25699E-07  1978   0.891E-04    0.365E-04
RMM:  15    -0.413213787874E+03    0.29987E-05   -0.13491E-07  1456   0.713E-04    0.200E-04
RMM:  16    -0.413213780691E+03    0.71833E-05   -0.11655E-07  1458   0.709E-04    0.238E-04
RMM:  17    -0.413213778291E+03    0.23999E-05   -0.54743E-08   982   0.599E-04    0.146E-04
RMM:  18    -0.413213772794E+03    0.54965E-05   -0.67563E-08  1336   0.643E-04    0.125E-04
RMM:  19    -0.413213770739E+03    0.20558E-05   -0.35469E-08   990   0.563E-04    0.567E-05
RMM:  20    -0.413213769477E+03    0.12613E-05   -0.25813E-08   909   0.550E-04    0.399E-05
RMM:  21    -0.413213769300E+03    0.17755E-06   -0.12378E-08   706   0.518E-04
   42 T=    71. E= -.41286655E+03 F= -.41321377E+03 E0= -.41319273E+03  EK= 0.34722E+00 SP= 0.00E+00 SK= 0.00E+00
       N       E                     dE             d eps       ncg     rms          rms(c)
RMM:   1    -0.413240128977E+03   -0.26359E-01   -0.10286E+01  4312   0.128E+00    0.944E-01
RMM:   2    -0.413220631656E+03    0.19497E-01   -0.16433E-01  4309   0.147E-01    0.695E-01
RMM:   3    -0.413220138496E+03    0.49316E-03   -0.17998E-02  5065   0.830E-02    0.310E-01
RMM:   4    -0.413258961573E+03   -0.38823E-01   -0.57562E-02  5092   0.203E-01    0.854E-01
RMM:   5    -0.413215690922E+03    0.43271E-01   -0.18879E-02  4736   0.142E-01    0.635E-02
RMM:   6    -0.413215769145E+03   -0.78222E-04   -0.34241E-03  5744   0.553E-02    0.372E-02
RMM:   7    -0.413215773692E+03   -0.45480E-05   -0.52483E-04  5760   0.208E-02    0.245E-02
RMM:   8    -0.413215770423E+03    0.32693E-05   -0.13224E-04  5193   0.120E-02    0.130E-02
RMM:   9    -0.413215758350E+03    0.12073E-04   -0.21222E-05  4492   0.584E-03    0.534E-03
RMM:  10    -0.413215755011E+03    0.33394E-05   -0.46840E-06  2895   0.275E-03    0.340E-03
RMM:  11    -0.413215751527E+03    0.34839E-05   -0.13189E-06  2498   0.190E-03    0.186E-03
RMM:  12    -0.413215746100E+03    0.54273E-05   -0.88115E-07  2463   0.157E-03    0.716E-04
RMM:  13    -0.413215742697E+03    0.34029E-05   -0.43037E-07  2239   0.112E-03    0.347E-04
RMM:  14    -0.413215740917E+03    0.17794E-05   -0.22570E-07  1801   0.836E-04    0.242E-04
RMM:  15    -0.413215737456E+03    0.34613E-05   -0.13841E-07  1385   0.715E-04    0.121E-04
RMM:  16    -0.413215734528E+03    0.29275E-05   -0.88674E-08  1153   0.657E-04    0.980E-05
RMM:  17    -0.413215732144E+03    0.23843E-05   -0.64864E-08  1101   0.632E-04    0.644E-05
RMM:  18    -0.413215729252E+03    0.28919E-05   -0.54326E-08  1151   0.625E-04    0.406E-05
RMM:  19    -0.413215727336E+03    0.19168E-05   -0.37841E-08  1038   0.588E-04    0.290E-05
RMM:  20    -0.413215726506E+03    0.82985E-06   -0.20459E-08   820   0.551E-04
   43 T=    71. E= -.41286660E+03 F= -.41321573E+03 E0= -.41319472E+03  EK= 0.34913E+00 SP= 0.00E+00 SK= 0.00E+00
       N       E                     dE             d eps       ncg     rms          rms(c)
RMM:   1    -0.413227090891E+03   -0.11364E-01   -0.10265E+01  4313   0.126E+00    0.949E-01
RMM:   2    -0.413222025224E+03    0.50657E-02   -0.15303E-01  4316   0.154E-01    0.706E-01
RMM:   3    -0.413222571142E+03   -0.54592E-03   -0.21218E-02  5068   0.932E-02    0.334E-01
RMM:   4    -0.413256263683E+03   -0.33693E-01   -0.55934E-02  5074   0.201E-01    0.814E-01
RMM:   5    -0.413216843839E+03    0.39420E-01   -0.16367E-02  4713   0.134E-01    0.616E-02
RMM:   6    -0.413216891643E+03   -0.47804E-04   -0.30442E-03  5724   0.523E-02    0.356E-02
RMM:   7    -0.413216889600E+03    0.20430E-05   -0.45605E-04  5744   0.201E-02    0.234E-02
RMM:   8    -0.413216885084E+03    0.45156E-05   -0.12249E-04  5169   0.117E-02    0.121E-02
RMM:   9    -0.413216874781E+03    0.10303E-04   -0.18457E-05  4363   0.557E-03    0.496E-03
RMM:  10    -0.413216872479E+03    0.23021E-05   -0.40343E-06  2820   0.260E-03    0.311E-03
RMM:  11    -0.413216869901E+03    0.25780E-05   -0.12530E-06  2494   0.185E-03    0.167E-03
RMM:  12    -0.413216865887E+03    0.40149E-05   -0.84771E-07  2458   0.151E-03    0.679E-04
RMM:  13    -0.413216863336E+03    0.25502E-05   -0.41722E-07  2149   0.108E-03    0.317E-04
RMM:  14    -0.413216861637E+03    0.16990E-05   -0.22165E-07  1674   0.817E-04    0.203E-04
RMM:  15    -0.413216857994E+03    0.36433E-05   -0.16303E-07  1378   0.733E-04    0.130E-04
RMM:  16    -0.413216856133E+03    0.18610E-05   -0.93352E-08  1133   0.657E-04    0.888E-05
RMM:  17    -0.413216853906E+03    0.22270E-05   -0.72375E-08  1125   0.640E-04    0.522E-05
RMM:  18    -0.413216851399E+03    0.25076E-05   -0.59797E-08  1137   0.624E-04    0.342E-05
RMM:  19    -0.413216849632E+03    0.17661E-05   -0.38777E-08   998   0.586E-04    0.255E-05
RMM:  20    -0.413216849019E+03    0.61324E-06   -0.20538E-08   780   0.550E-04
   44 T=    71. E= -.41286647E+03 F= -.41321685E+03 E0= -.41319587E+03  EK= 0.35038E+00 SP= 0.00E+00 SK= 0.00E+00
       N       E                     dE             d eps       ncg     rms          rms(c)
RMM:   1    -0.413260738194E+03   -0.43889E-01   -0.10574E+01  4312   0.149E+00    0.971E-01
RMM:   2    -0.413222779472E+03    0.37959E-01   -0.18075E-01  4321   0.169E-01    0.704E-01
RMM:   3    -0.413226188230E+03   -0.34088E-02   -0.20455E-02  5107   0.101E-01    0.415E-01
RMM:   4    -0.413248617566E+03   -0.22429E-01   -0.50496E-02  5057   0.193E-01    0.725E-01
RMM:   5    -0.413218129716E+03    0.30488E-01   -0.12232E-02  4679   0.121E-01    0.629E-02
RMM:   6    -0.413218119829E+03    0.98869E-05   -0.23777E-03  5635   0.470E-02    0.363E-02
RMM:   7    -0.413218115517E+03    0.43121E-05   -0.40411E-04  5690   0.193E-02    0.242E-02
RMM:   8    -0.413218106034E+03    0.94834E-05   -0.12624E-04  5095   0.120E-02    0.115E-02
RMM:   9    -0.413218092477E+03    0.13557E-04   -0.18153E-05  4414   0.580E-03    0.458E-03
RMM:  10    -0.413218088726E+03    0.37508E-05   -0.35411E-06  2774   0.246E-03    0.273E-03
RMM:  11    -0.413218083200E+03    0.55265E-05   -0.13228E-06  2497   0.188E-03    0.151E-03
RMM:  12    -0.413218077450E+03    0.57493E-05   -0.67079E-07  2445   0.141E-03    0.708E-04
RMM:  13    -0.413218073699E+03    0.37518E-05   -0.32993E-07  1983   0.979E-04    0.322E-04
RMM:  14    -0.413218070153E+03    0.35455E-05   -0.18741E-07  1521   0.771E-04    0.182E-04
RMM:  15    -0.413218065618E+03    0.45352E-05   -0.13242E-07  1326   0.708E-04    0.120E-04
RMM:  16    -0.413218062265E+03    0.33526E-05   -0.89056E-08  1173   0.664E-04    0.925E-05
RMM:  17    -0.413218057615E+03    0.46500E-05   -0.86443E-08  1384   0.669E-04    0.630E-05
RMM:  18    -0.413218055522E+03    0.20932E-05   -0.48004E-08  1036   0.581E-04    0.498E-05
RMM:  19    -0.413218053531E+03    0.19908E-05   -0.35364E-08   972   0.563E-04    0.257E-05
RMM:  20    -0.413218053247E+03    0.28470E-06   -0.17979E-08   736   0.526E-04
   45 T=    71. E= -.41286694E+03 F= -.41321805E+03 E0= -.41319709E+03  EK= 0.35112E+00 SP= 0.00E+00 SK= 0.00E+00
       N       E                     dE             d eps       ncg     rms          rms(c)
RMM:   1    -0.413247956279E+03   -0.29903E-01   -0.10354E+01  4310   0.151E+00    0.954E-01
RMM:   2    -0.413222323657E+03    0.25633E-01   -0.16539E-01  4334   0.177E-01    0.697E-01
RMM:   3    -0.413228795426E+03   -0.64718E-02   -0.23753E-02  5107   0.115E-01    0.469E-01
RMM:   4    -0.413240754628E+03   -0.11959E-01   -0.45976E-02  5038   0.186E-01    0.632E-01
RMM:   5    -0.413217661435E+03    0.23093E-01   -0.83291E-03  4624   0.106E-01    0.593E-02
RMM:   6    -0.413217622321E+03    0.39114E-04   -0.17706E-03  5513   0.409E-02    0.340E-02
RMM:   7    -0.413217613938E+03    0.83830E-05   -0.32892E-04  5583   0.178E-02    0.226E-02
RMM:   8    -0.413217602520E+03    0.11419E-04   -0.12624E-04  5076   0.119E-02    0.106E-02
RMM:   9    -0.413217589928E+03    0.12592E-04   -0.15154E-05  4277   0.548E-03    0.433E-03
RMM:  10    -0.413217586568E+03    0.33599E-05   -0.28861E-06  2710   0.229E-03    0.251E-03
RMM:  11    -0.413217581315E+03    0.52530E-05   -0.11653E-06  2479   0.177E-03    0.133E-03
RMM:  12    -0.413217576101E+03    0.52140E-05   -0.60879E-07  2404   0.133E-03    0.663E-04
RMM:  13    -0.413217572621E+03    0.34798E-05   -0.29478E-07  1889   0.933E-04    0.312E-04
RMM:  14    -0.413217569226E+03    0.33951E-05   -0.16687E-07  1422   0.740E-04    0.170E-04
RMM:  15    -0.413217564828E+03    0.43977E-05   -0.12249E-07  1270   0.694E-04    0.119E-04
RMM:  16    -0.413217562023E+03    0.28055E-05   -0.80575E-08  1141   0.645E-04    0.910E-05
RMM:  17    -0.413217557133E+03    0.48902E-05   -0.84559E-08  1387   0.664E-04    0.705E-05
RMM:  18    -0.413217555548E+03    0.15842E-05   -0.40732E-08   958   0.558E-04    0.436E-05
RMM:  19    -0.413217553942E+03    0.16065E-05   -0.31776E-08   919   0.547E-04    0.231E-05
RMM:  20    -0.413217553414E+03    0.52817E-06   -0.16894E-08   735   0.518E-04
   46 T=    71. E= -.41286689E+03 F= -.41321755E+03 E0= -.41319661E+03  EK= 0.35067E+00 SP= 0.00E+00 SK= 0.00E+00
       N       E                     dE             d eps       ncg     rms          rms(c)
RMM:   1    -0.413232256701E+03   -0.14703E-01   -0.10230E+01  4312   0.150E+00    0.943E-01
RMM:   2    -0.413221338384E+03    0.10918E-01   -0.15944E-01  4353   0.182E-01    0.705E-01
RMM:   3    -0.413230131937E+03   -0.87936E-02   -0.27168E-02  5097   0.128E-01    0.511E-01
RMM:   4    -0.413237755533E+03   -0.76236E-02   -0.47196E-02  5025   0.191E-01    0.606E-01
RMM:   5    -0.413216313299E+03    0.21442E-01   -0.72550E-03  4605   0.103E-01    0.583E-02
RMM:   6    -0.413216251920E+03    0.61379E-04   -0.15319E-03  5429   0.386E-02    0.318E-02
RMM:   7    -0.413216245575E+03    0.63453E-05   -0.28632E-04  5580   0.168E-02    0.213E-02
RMM:   8    -0.413216234983E+03    0.10592E-04   -0.12916E-04  5081   0.120E-02    0.104E-02
RMM:   9    -0.413216223347E+03    0.11636E-04   -0.14640E-05  4204   0.545E-03    0.422E-03
RMM:  10    -0.413216221199E+03    0.21479E-05   -0.29162E-06  2711   0.228E-03    0.242E-03
RMM:  11    -0.413216217470E+03    0.37292E-05   -0.12441E-06  2491   0.180E-03    0.126E-03
RMM:  12    -0.413216214154E+03    0.33161E-05   -0.61528E-07  2388   0.133E-03    0.674E-04
RMM:  13    -0.413216211479E+03    0.26747E-05   -0.30904E-07  1840   0.939E-04    0.316E-04
RMM:  14    -0.413216208815E+03    0.26638E-05   -0.17945E-07  1420   0.750E-04    0.167E-04
RMM:  15    -0.413216205699E+03    0.31159E-05   -0.13388E-07  1283   0.698E-04    0.114E-04
RMM:  16    -0.413216203579E+03    0.21196E-05   -0.87905E-08  1177   0.646E-04    0.890E-05
RMM:  17    -0.413216199815E+03    0.37641E-05   -0.88327E-08  1288   0.653E-04    0.575E-05
RMM:  18    -0.413216198391E+03    0.14241E-05   -0.44410E-08   971   0.565E-04    0.426E-05
RMM:  19    -0.413216197314E+03    0.10775E-05   -0.27263E-08   827   0.538E-04    0.232E-05
RMM:  20    -0.413216196502E+03    0.81181E-06   -0.20712E-08   775   0.528E-04
   47 T=    71. E= -.41286709E+03 F= -.41321620E+03 E0= -.41319527E+03  EK= 0.34911E+00 SP= 0.00E+00 SK= 0.00E+00
       N       E                     dE             d eps       ncg     rms          rms(c)
RMM:   1    -0.413241695091E+03   -0.25498E-01   -0.10245E+01  4306   0.166E+00    0.960E-01
RMM:   2    -0.413218461944E+03    0.23233E-01   -0.16991E-01  4405   0.197E-01    0.702E-01
RMM:   3    -0.413234018221E+03   -0.15556E-01   -0.31257E-02  5134   0.144E-01    0.620E-01
RMM:   4    -0.413227509407E+03    0.65088E-02   -0.43536E-02  4982   0.186E-01    0.496E-01
RMM:   5    -0.413213723651E+03    0.13786E-01   -0.47582E-03  4547   0.911E-02    0.589E-02
RMM:   6    -0.413213611171E+03    0.11248E-03   -0.80845E-04  4955   0.314E-02    0.311E-02
RMM:   7    -0.413213591322E+03    0.19849E-04   -0.18116E-04  5688   0.135E-02    0.142E-02
RMM:   8    -0.413213593942E+03   -0.26202E-05   -0.98629E-05  5256   0.102E-02    0.119E-02
RMM:   9    -0.413213578579E+03    0.15363E-04   -0.23128E-05  4609   0.592E-03    0.460E-03
RMM:  10    -0.413213576135E+03    0.24443E-05   -0.32422E-06  2746   0.250E-03    0.245E-03
RMM:  11    -0.413213570384E+03    0.57507E-05   -0.16395E-06  2472   0.206E-03    0.143E-03
RMM:  12    -0.413213566542E+03    0.38425E-05   -0.67117E-07  2382   0.144E-03    0.850E-04
RMM:  13    -0.413213562423E+03    0.41183E-05   -0.31729E-07  1947   0.100E-03    0.454E-04
RMM:  14    -0.413213557967E+03    0.44566E-05   -0.16763E-07  1578   0.752E-04    0.269E-04
RMM:  15    -0.413213554104E+03    0.38630E-05   -0.91948E-08  1057   0.618E-04    0.143E-04
RMM:  16    -0.413213551213E+03    0.28908E-05   -0.68743E-08  1034   0.598E-04    0.114E-04
RMM:  17    -0.413213547396E+03    0.38171E-05   -0.64837E-08  1119   0.609E-04    0.829E-05
RMM:  18    -0.413213544967E+03    0.24289E-05   -0.38784E-08   929   0.564E-04    0.640E-05
RMM:  19    -0.413213543858E+03    0.11083E-05   -0.20614E-08   713   0.517E-04    0.403E-05
RMM:  20    -0.413213542715E+03    0.11436E-05   -0.19378E-08   747   0.516E-04    0.209E-05
RMM:  21    -0.413213542169E+03    0.54626E-06   -0.11889E-08   627   0.494E-04
   48 T=    70. E= -.41286740E+03 F= -.41321354E+03 E0= -.41319263E+03  EK= 0.34614E+00 SP= 0.00E+00 SK= 0.00E+00
       N       E                     dE             d eps       ncg     rms          rms(c)
RMM:   1    -0.413239447537E+03   -0.25905E-01   -0.10058E+01  4305   0.178E+00    0.949E-01
RMM:   2    -0.413213081247E+03    0.26366E-01   -0.16704E-01  4471   0.207E-01    0.691E-01
RMM:   3    -0.413236690080E+03   -0.23609E-01   -0.37437E-02  5148   0.164E-01    0.722E-01
RMM:   4    -0.413217498438E+03    0.19192E-01   -0.42168E-02  4957   0.187E-01    0.406E-01
RMM:   5    -0.413208681664E+03    0.88168E-02   -0.39719E-03  4604   0.873E-02    0.636E-02
RMM:   6    -0.413208504284E+03    0.17738E-03   -0.44897E-04  4666   0.288E-02    0.330E-02
RMM:   7    -0.413208512547E+03   -0.82633E-05   -0.31784E-04  5751   0.188E-02    0.246E-02
RMM:   8    -0.413208476607E+03    0.35940E-04   -0.10236E-04  5004   0.117E-02    0.985E-03
RMM:   9    -0.413208470924E+03    0.56824E-05   -0.22126E-05  5170   0.596E-03    0.492E-03
[...]
RMM:  19    -0.413159612600E+03   -0.54760E-06   -0.58971E-08   941   0.556E-04
  139 T=    60. E= -.41286670E+03 F= -.41315961E+03 E0= -.41313888E+03  EK= 0.29292E+00 SP= 0.00E+00 SK= 0.00E+00
       N       E                     dE             d eps       ncg     rms          rms(c)
RMM:   1    -0.413163045628E+03   -0.34336E-02   -0.72031E+00  4264   0.733E-01    0.822E-01
RMM:   2    -0.413165095222E+03   -0.20496E-02   -0.84235E-02  4325   0.820E-02    0.603E-01
RMM:   3    -0.413162335559E+03    0.27597E-02   -0.23665E-02  5061   0.588E-02    0.179E-01
RMM:   4    -0.413187798958E+03   -0.25463E-01   -0.31692E-02  5114   0.150E-01    0.681E-01
RMM:   5    -0.413160822505E+03    0.26976E-01   -0.12621E-02  4770   0.114E-01    0.541E-02
RMM:   6    -0.413160837176E+03   -0.14671E-04   -0.22197E-03  5636   0.457E-02    0.311E-02
RMM:   7    -0.413160874035E+03   -0.36859E-04   -0.37371E-04  5839   0.169E-02    0.188E-02
RMM:   8    -0.413160884228E+03   -0.10193E-04   -0.62521E-05  5231   0.861E-03    0.902E-03
RMM:   9    -0.413160890679E+03   -0.64505E-05   -0.83696E-06  3270   0.351E-03    0.450E-03
RMM:  10    -0.413160902762E+03   -0.12083E-04   -0.25377E-06  2615   0.225E-03    0.281E-03
RMM:  11    -0.413160914397E+03   -0.11635E-04   -0.14959E-06  2523   0.177E-03    0.136E-03
RMM:  12    -0.413160925376E+03   -0.10980E-04   -0.12009E-06  2481   0.148E-03    0.599E-04
RMM:  13    -0.413160930219E+03   -0.48429E-05   -0.51056E-07  2118   0.106E-03    0.397E-04
RMM:  14    -0.413160934223E+03   -0.40033E-05   -0.31910E-07  1726   0.861E-04    0.251E-04
RMM:  15    -0.413160940475E+03   -0.62527E-05   -0.43779E-07  1901   0.895E-04    0.237E-04
RMM:  16    -0.413160944359E+03   -0.38835E-05   -0.27669E-07  1544   0.752E-04    0.146E-04
RMM:  17    -0.413160946091E+03   -0.17322E-05   -0.13100E-07  1183   0.632E-04    0.822E-05
RMM:  18    -0.413160947562E+03   -0.14707E-05   -0.10372E-07  1243   0.617E-04    0.417E-05
RMM:  19    -0.413160948102E+03   -0.54072E-06   -0.50475E-08   919   0.539E-04
  140 T=    60. E= -.41286708E+03 F= -.41316095E+03 E0= -.41314022E+03  EK= 0.29386E+00 SP= 0.00E+00 SK= 0.00E+00
       N       E                     dE             d eps       ncg     rms          rms(c)
RMM:   1    -0.413162294572E+03   -0.13470E-02   -0.75684E+00  4264   0.750E-01    0.834E-01
RMM:   2    -0.413164796879E+03   -0.25023E-02   -0.87201E-02  4322   0.835E-02    0.605E-01
RMM:   3    -0.413161800731E+03    0.29961E-02   -0.19851E-02  5007   0.524E-02    0.134E-01
RMM:   4    -0.413186780366E+03   -0.24980E-01   -0.28465E-02  5130   0.141E-01    0.667E-01
RMM:   5    -0.413160949974E+03    0.25830E-01   -0.12360E-02  4795   0.111E-01    0.531E-02
RMM:   6    -0.413160970232E+03   -0.20258E-04   -0.21847E-03  5668   0.452E-02    0.319E-02
RMM:   7    -0.413160996782E+03   -0.26550E-04   -0.37300E-04  5822   0.169E-02    0.185E-02
RMM:   8    -0.413161004868E+03   -0.80858E-05   -0.60008E-05  5220   0.839E-03    0.902E-03
RMM:   9    -0.413161009703E+03   -0.48348E-05   -0.79663E-06  3223   0.340E-03    0.469E-03
RMM:  10    -0.413161020677E+03   -0.10974E-04   -0.25748E-06  2605   0.226E-03    0.287E-03
RMM:  11    -0.413161030473E+03   -0.97963E-05   -0.14493E-06  2524   0.175E-03    0.136E-03
RMM:  12    -0.413161039931E+03   -0.94576E-05   -0.11896E-06  2476   0.148E-03    0.636E-04
RMM:  13    -0.413161044669E+03   -0.47384E-05   -0.54409E-07  2145   0.108E-03    0.402E-04
RMM:  14    -0.413161048022E+03   -0.33530E-05   -0.31436E-07  1742   0.862E-04    0.254E-04
RMM:  15    -0.413161053758E+03   -0.57359E-05   -0.45273E-07  1960   0.910E-04    0.244E-04
RMM:  16    -0.413161057343E+03   -0.35842E-05   -0.28009E-07  1496   0.747E-04    0.166E-04
RMM:  17    -0.413161058765E+03   -0.14225E-05   -0.13049E-07  1171   0.631E-04    0.924E-05
RMM:  18    -0.413161060277E+03   -0.15115E-05   -0.11391E-07  1331   0.636E-04    0.514E-05
RMM:  19    -0.413161060748E+03   -0.47187E-06   -0.52742E-08   912   0.535E-04
  141 T=    60. E= -.41286684E+03 F= -.41316106E+03 E0= -.41314034E+03  EK= 0.29422E+00 SP= 0.00E+00 SK= 0.00E+00
       N       E                     dE             d eps       ncg     rms          rms(c)
RMM:   1    -0.413160615722E+03    0.44455E-03   -0.78974E+00  4264   0.770E-01    0.844E-01
RMM:   2    -0.413163529378E+03   -0.29137E-02   -0.89707E-02  4315   0.858E-02    0.597E-01
RMM:   3    -0.413160710818E+03    0.28186E-02   -0.16089E-02  4961   0.453E-02    0.961E-02
RMM:   4    -0.413180053769E+03   -0.19343E-01   -0.20676E-02  5137   0.120E-01    0.585E-01
RMM:   5    -0.413160362456E+03    0.19691E-01   -0.97170E-03  4817   0.971E-02    0.504E-02
RMM:   6    -0.413160376132E+03   -0.13677E-04   -0.17663E-03  5663   0.409E-02    0.332E-02
RMM:   7    -0.413160386486E+03   -0.10353E-04   -0.33445E-04  5667   0.165E-02    0.176E-02
RMM:   8    -0.413160387911E+03   -0.14254E-05   -0.53563E-05  5197   0.803E-03    0.879E-03
RMM:   9    -0.413160389618E+03   -0.17074E-05   -0.65744E-06  3073   0.309E-03    0.475E-03
RMM:  10    -0.413160396209E+03   -0.65910E-05   -0.24078E-06  2589   0.223E-03    0.275E-03
RMM:  11    -0.413160401768E+03   -0.55588E-05   -0.13135E-06  2513   0.169E-03    0.130E-03
RMM:  12    -0.413160406888E+03   -0.51195E-05   -0.11015E-06  2449   0.142E-03    0.643E-04
RMM:  13    -0.413160410326E+03   -0.34379E-05   -0.59592E-07  2124   0.108E-03    0.381E-04
RMM:  14    -0.413160412371E+03   -0.20454E-05   -0.30859E-07  1703   0.845E-04    0.255E-04
RMM:  15    -0.413160416390E+03   -0.40186E-05   -0.51174E-07  2004   0.927E-04    0.242E-04
RMM:  16    -0.413160418646E+03   -0.22566E-05   -0.28749E-07  1467   0.737E-04    0.178E-04
RMM:  17    -0.413160419444E+03   -0.79755E-06   -0.11315E-07  1081   0.606E-04
  142 T=    60. E= -.41286676E+03 F= -.41316042E+03 E0= -.41313971E+03  EK= 0.29366E+00 SP= 0.00E+00 SK= 0.00E+00
       N       E                     dE             d eps       ncg     rms          rms(c)
RMM:   1    -0.413159770668E+03    0.64798E-03   -0.81966E+00  4264   0.783E-01    0.821E-01
RMM:   2    -0.413164268641E+03   -0.44980E-02   -0.93029E-02  4313   0.876E-02    0.593E-01
RMM:   3    -0.413161359439E+03    0.29092E-02   -0.14174E-02  4831   0.430E-02    0.720E-02
RMM:   4    -0.413170965887E+03   -0.96064E-02   -0.10043E-02  5156   0.847E-02    0.414E-01
RMM:   5    -0.413161251268E+03    0.97146E-02   -0.49295E-03  4835   0.691E-02    0.442E-02
RMM:   6    -0.413161252193E+03   -0.92521E-06   -0.97979E-04  5604   0.312E-02    0.307E-02
RMM:   7    -0.413161264443E+03   -0.12250E-04   -0.24573E-04  5512   0.140E-02    0.154E-02
RMM:   8    -0.413161268944E+03   -0.45008E-05   -0.38254E-05  5035   0.695E-03    0.780E-03
RMM:   9    -0.413161273397E+03   -0.44530E-05   -0.43923E-06  2832   0.251E-03    0.399E-03
RMM:  10    -0.413161285638E+03   -0.12241E-04   -0.18165E-06  2541   0.196E-03    0.215E-03
RMM:  11    -0.413161295225E+03   -0.95865E-05   -0.10422E-06  2482   0.148E-03    0.108E-03
RMM:  12    -0.413161304063E+03   -0.88387E-05   -0.83772E-07  2277   0.123E-03    0.519E-04
RMM:  13    -0.413161311488E+03   -0.74252E-05   -0.62060E-07  2085   0.102E-03    0.328E-04
RMM:  14    -0.413161315388E+03   -0.38997E-05   -0.30671E-07  1552   0.803E-04    0.266E-04
RMM:  15    -0.413161321617E+03   -0.62287E-05   -0.47312E-07  1918   0.896E-04    0.187E-04
RMM:  16    -0.413161324757E+03   -0.31401E-05   -0.24454E-07  1418   0.704E-04    0.129E-04
RMM:  17    -0.413161325648E+03   -0.89057E-06   -0.97860E-08  1028   0.575E-04
  143 T=    60. E= -.41286707E+03 F= -.41316133E+03 E0= -.41314063E+03  EK= 0.29426E+00 SP= 0.00E+00 SK= 0.00E+00
       N       E                     dE             d eps       ncg     rms          rms(c)
RMM:   1    -0.413158619362E+03    0.27054E-02   -0.86142E+00  4264   0.802E-01    0.830E-01
RMM:   2    -0.413163999078E+03   -0.53797E-02   -0.97820E-02  4309   0.899E-02    0.600E-01
RMM:   3    -0.413161322154E+03    0.26769E-02   -0.12537E-02  4701   0.410E-02    0.635E-02
RMM:   4    -0.413164386138E+03   -0.30640E-02   -0.34431E-03  5165   0.505E-02    0.235E-01
RMM:   5    -0.413161323633E+03    0.30625E-02   -0.16412E-03  4849   0.403E-02    0.405E-02
RMM:   6    -0.413161318853E+03    0.47798E-05   -0.45242E-04  5439   0.220E-02    0.287E-02
RMM:   7    -0.413161336326E+03   -0.17473E-04   -0.18480E-04  5296   0.117E-02    0.152E-02
RMM:   8    -0.413161337359E+03   -0.10331E-05   -0.24171E-05  4673   0.582E-03    0.736E-03
RMM:   9    -0.413161342285E+03   -0.49259E-05   -0.45101E-06  2684   0.226E-03    0.304E-03
RMM:  10    -0.413161356254E+03   -0.13969E-04   -0.16028E-06  2521   0.179E-03    0.152E-03
RMM:  11    -0.413161368035E+03   -0.11782E-04   -0.10803E-06  2464   0.141E-03    0.706E-04
RMM:  12    -0.413161376563E+03   -0.85278E-05   -0.65774E-07  2043   0.109E-03    0.391E-04
RMM:  13    -0.413161384709E+03   -0.81454E-05   -0.57439E-07  1958   0.958E-04    0.312E-04
RMM:  14    -0.413161390596E+03   -0.58869E-05   -0.39607E-07  1650   0.831E-04    0.214E-04
RMM:  15    -0.413161396028E+03   -0.54324E-05   -0.39951E-07  1809   0.841E-04    0.954E-05
RMM:  16    -0.413161398749E+03   -0.27210E-05   -0.19076E-07  1323   0.659E-04    0.766E-05
RMM:  17    -0.413161399690E+03   -0.94155E-06   -0.90091E-08  1007   0.559E-04
  144 T=    60. E= -.41286662E+03 F= -.41316140E+03 E0= -.41314071E+03  EK= 0.29478E+00 SP= 0.00E+00 SK= 0.00E+00
       N       E                     dE             d eps       ncg     rms          rms(c)
RMM:   1    -0.413157900772E+03    0.34980E-02   -0.89529E+00  4264   0.819E-01    0.850E-01
RMM:   2    -0.413163170827E+03   -0.52701E-02   -0.99730E-02  4308   0.911E-02    0.590E-01
RMM:   3    -0.413161336130E+03    0.18347E-02   -0.10536E-02  4677   0.379E-02    0.889E-02
RMM:   4    -0.413161406114E+03   -0.69985E-04   -0.72620E-04  5106   0.228E-02    0.467E-02
RMM:   5    -0.413161480254E+03   -0.74140E-04   -0.25623E-04  5018   0.164E-02    0.583E-02
RMM:   6    -0.413161365017E+03    0.11524E-03   -0.20960E-04  5255   0.147E-02    0.308E-02
RMM:   7    -0.413161357445E+03    0.75726E-05   -0.15792E-04  4977   0.113E-02    0.134E-02
RMM:   8    -0.413161355922E+03    0.15229E-05   -0.13828E-05  4153   0.497E-03    0.627E-03
RMM:   9    -0.413161360005E+03   -0.40831E-05   -0.47056E-06  2634   0.241E-03    0.192E-03
RMM:  10    -0.413161368812E+03   -0.88072E-05   -0.18976E-06  2497   0.187E-03    0.853E-04
RMM:  11    -0.413161375514E+03   -0.67016E-05   -0.12026E-06  2459   0.139E-03    0.510E-04
RMM:  12    -0.413161378300E+03   -0.27864E-05   -0.41222E-07  1894   0.922E-04    0.423E-04
RMM:  13    -0.413161384912E+03   -0.66121E-05   -0.93161E-07  2038   0.103E-03    0.355E-04
RMM:  14    -0.413161387314E+03   -0.24013E-05   -0.34726E-07  1361   0.713E-04    0.218E-04
RMM:  15    -0.413161389061E+03   -0.17477E-05   -0.19035E-07  1289   0.672E-04    0.106E-04
RMM:  16    -0.413161391328E+03   -0.22667E-05   -0.21385E-07  1437   0.698E-04    0.154E-04
RMM:  17    -0.413161391372E+03   -0.43565E-07   -0.48926E-08   768   0.497E-04
  145 T=    60. E= -.41286693E+03 F= -.41316139E+03 E0= -.41314071E+03  EK= 0.29446E+00 SP= 0.00E+00 SK= 0.00E+00
       N       E                     dE             d eps       ncg     rms          rms(c)
RMM:   1    -0.413156450237E+03    0.49411E-02   -0.91667E+00  4264   0.831E-01    0.826E-01
RMM:   2    -0.413163272022E+03   -0.68218E-02   -0.10317E-01  4310   0.938E-02    0.585E-01
RMM:   3    -0.413161540068E+03    0.17320E-02   -0.89849E-03  4745   0.388E-02    0.966E-02
RMM:   4    -0.413165555145E+03   -0.40151E-02   -0.45308E-03  5178   0.578E-02    0.269E-01
RMM:   5    -0.413161534514E+03    0.40206E-02   -0.21256E-03  4845   0.456E-02    0.394E-02
RMM:   6    -0.413161516082E+03    0.18432E-04   -0.48902E-04  5495   0.226E-02    0.264E-02
RMM:   7    -0.413161535273E+03   -0.19192E-04   -0.16170E-04  5515   0.110E-02    0.131E-02
RMM:   8    -0.413161536927E+03   -0.16530E-05   -0.26364E-05  4781   0.589E-03    0.655E-03
RMM:   9    -0.413161540320E+03   -0.33934E-05   -0.32440E-06  2650   0.225E-03    0.286E-03
RMM:  10    -0.413161549127E+03   -0.88074E-05   -0.15154E-06  2533   0.178E-03    0.142E-03
RMM:  11    -0.413161558476E+03   -0.93488E-05   -0.11562E-06  2447   0.143E-03    0.715E-04
RMM:  12    -0.413161563501E+03   -0.50250E-05   -0.54901E-07  2068   0.104E-03    0.383E-04
RMM:  13    -0.413161569095E+03   -0.55937E-05   -0.52233E-07  1873   0.932E-04    0.292E-04
RMM:  14    -0.413161574102E+03   -0.50076E-05   -0.48393E-07  1864   0.893E-04    0.262E-04
RMM:  15    -0.413161577490E+03   -0.33876E-05   -0.30080E-07  1552   0.759E-04    0.830E-05
RMM:  16    -0.413161579491E+03   -0.20006E-05   -0.17594E-07  1263   0.652E-04    0.104E-04
RMM:  17    -0.413161580138E+03   -0.64791E-06   -0.79616E-08  1025   0.563E-04
  146 T=    60. E= -.41286694E+03 F= -.41316158E+03 E0= -.41314090E+03  EK= 0.29464E+00 SP= 0.00E+00 SK= 0.00E+00
       N       E                     dE             d eps       ncg     rms          rms(c)
RMM:   1    -0.413155832724E+03    0.57468E-02   -0.95101E+00  4264   0.844E-01    0.825E-01
RMM:   2    -0.413163878771E+03   -0.80460E-02   -0.10894E-01  4309   0.958E-02    0.595E-01
RMM:   3    -0.413162076749E+03    0.18020E-02   -0.81815E-03  4902   0.390E-02    0.106E-01
RMM:   4    -0.413174769463E+03   -0.12693E-01   -0.13175E-02  5164   0.967E-02    0.473E-01
RMM:   5    -0.413161970730E+03    0.12799E-01   -0.64503E-03  4831   0.784E-02    0.418E-02
RMM:   6    -0.413161972209E+03   -0.14795E-05   -0.11555E-03  5675   0.321E-02    0.236E-02
RMM:   7    -0.413162004476E+03   -0.32267E-04   -0.18986E-04  5743   0.118E-02    0.116E-02
RMM:   8    -0.413162016728E+03   -0.12252E-04   -0.37509E-05  4989   0.649E-03    0.659E-03
RMM:   9    -0.413162022042E+03   -0.53133E-05   -0.39925E-06  2831   0.265E-03    0.323E-03
RMM:  10    -0.413162033145E+03   -0.11103E-04   -0.20138E-06  2555   0.205E-03    0.193E-03
RMM:  11    -0.413162044610E+03   -0.11465E-04   -0.12520E-06  2497   0.158E-03    0.887E-04
RMM:  12    -0.413162052044E+03   -0.74338E-05   -0.67930E-07  2229   0.116E-03    0.464E-04
RMM:  13    -0.413162058089E+03   -0.60454E-05   -0.46199E-07  1862   0.939E-04    0.281E-04
RMM:  14    -0.413162062580E+03   -0.44904E-05   -0.32286E-07  1605   0.821E-04    0.202E-04
RMM:  15    -0.413162066864E+03   -0.42848E-05   -0.30887E-07  1567   0.784E-04    0.106E-04
RMM:  16    -0.413162069970E+03   -0.31055E-05   -0.23200E-07  1528   0.735E-04    0.802E-05
RMM:  17    -0.413162070433E+03   -0.46345E-06   -0.82471E-08  1034   0.565E-04
  147 T=    60. E= -.41286670E+03 F= -.41316207E+03 E0= -.41314140E+03  EK= 0.29537E+00 SP= 0.00E+00 SK= 0.00E+00
       N       E                     dE             d eps       ncg     rms          rms(c)
RMM:   1    -0.413155752602E+03    0.63174E-02   -0.97655E+00  4264   0.856E-01    0.850E-01
RMM:   2    -0.413163526047E+03   -0.77734E-02   -0.10924E-01  4311   0.968E-02    0.587E-01
RMM:   3    -0.413162542348E+03    0.98370E-03   -0.75655E-03  4972   0.398E-02    0.134E-01
RMM:   4    -0.413183190649E+03   -0.20648E-01   -0.21331E-02  5160   0.122E-01    0.600E-01
RMM:   5    -0.413162324008E+03    0.20867E-01   -0.10440E-02  4828   0.996E-02    0.472E-02
RMM:   6    -0.413162344136E+03   -0.20129E-04   -0.17863E-03  5703   0.398E-02    0.229E-02
RMM:   7    -0.413162367115E+03   -0.22978E-04   -0.24512E-04  5853   0.132E-02    0.125E-02
RMM:   8    -0.413162374235E+03   -0.71206E-05   -0.42517E-05  5058   0.664E-03    0.697E-03
RMM:   9    -0.413162376678E+03   -0.24430E-05   -0.58793E-06  3017   0.297E-03    0.327E-03
RMM:  10    -0.413162381784E+03   -0.51063E-05   -0.23743E-06  2575   0.214E-03    0.209E-03
RMM:  11    -0.413162387043E+03   -0.52586E-05   -0.13590E-06  2512   0.167E-03    0.101E-03
RMM:  12    -0.413162390763E+03   -0.37201E-05   -0.77249E-07  2326   0.124E-03    0.458E-04
RMM:  13    -0.413162393326E+03   -0.25625E-05   -0.44125E-07  1866   0.940E-04    0.303E-04
RMM:  14    -0.413162395811E+03   -0.24853E-05   -0.35350E-07  1566   0.835E-04    0.176E-04
RMM:  15    -0.413162398119E+03   -0.23079E-05   -0.32515E-07  1608   0.804E-04    0.105E-04
RMM:  16    -0.413162400067E+03   -0.19481E-05   -0.29420E-07  1674   0.773E-04    0.803E-05
RMM:  17    -0.413162400617E+03   -0.55003E-06   -0.10412E-07  1112   0.590E-04
  148 T=    60. E= -.41286720E+03 F= -.41316240E+03 E0= -.41314173E+03  EK= 0.29520E+00 SP= 0.00E+00 SK= 0.00E+00
       N       E                     dE             d eps       ncg     rms          rms(c)
RMM:   1    -0.413154163923E+03    0.82361E-02   -0.98505E+00  4264   0.861E-01    0.834E-01
RMM:   2    -0.413162548245E+03   -0.83843E-02   -0.11152E-01  4311   0.975E-02    0.580E-01
RMM:   3    -0.413162066443E+03    0.48180E-03   -0.68965E-03  5028   0.415E-02    0.151E-01
RMM:   4    -0.413191196130E+03   -0.29130E-01   -0.30589E-02  5144   0.146E-01    0.710E-01
RMM:   5    -0.413161655967E+03    0.29540E-01   -0.14614E-02  4820   0.118E-01    0.515E-02
RMM:   6    -0.413161701663E+03   -0.45696E-04   -0.24206E-03  5684   0.466E-02    0.197E-02
RMM:   7    -0.413161733018E+03   -0.31355E-04   -0.31668E-04  5957   0.145E-02    0.129E-02
RMM:   8    -0.413161740443E+03   -0.74252E-05   -0.44815E-05  5073   0.654E-03    0.722E-03
RMM:   9    -0.413161744181E+03   -0.37373E-05   -0.72723E-06  3058   0.313E-03    0.328E-03
RMM:  10    -0.413161749311E+03   -0.51308E-05   -0.24077E-06  2572   0.209E-03    0.207E-03
RMM:  11    -0.413161754742E+03   -0.54308E-05   -0.13673E-06  2505   0.164E-03    0.111E-03
RMM:  12    -0.413161758873E+03   -0.41310E-05   -0.83288E-07  2396   0.127E-03    0.406E-04
RMM:  13    -0.413161760800E+03   -0.19267E-05   -0.38193E-07  1861   0.913E-04    0.287E-04
RMM:  14    -0.413161763404E+03   -0.26038E-05   -0.35804E-07  1562   0.850E-04    0.172E-04
RMM:  15    -0.413161765354E+03   -0.19502E-05   -0.29892E-07  1569   0.790E-04    0.102E-04
RMM:  16    -0.413161766795E+03   -0.14409E-05   -0.21396E-07  1472   0.730E-04    0.650E-05
RMM:  17    -0.413161767690E+03   -0.89552E-06   -0.14146E-07  1306   0.651E-04
  149 T=    60. E= -.41286688E+03 F= -.41316177E+03 E0= -.41314110E+03  EK= 0.29488E+00 SP= 0.00E+00 SK= 0.00E+00
       N       E                     dE             d eps       ncg     rms          rms(c)
RMM:   1    -0.413154430982E+03    0.73358E-02   -0.10003E+01  4264   0.868E-01    0.820E-01
RMM:   2    -0.413164153839E+03   -0.97229E-02   -0.11692E-01  4315   0.990E-02    0.592E-01
RMM:   3    -0.413163379779E+03    0.77406E-03   -0.64785E-03  5086   0.433E-02    0.162E-01
RMM:   4    -0.413198846822E+03   -0.35467E-01   -0.38377E-02  5148   0.162E-01    0.782E-01
RMM:   5    -0.413162720848E+03    0.36126E-01   -0.17775E-02  4815   0.131E-01    0.539E-02
RMM:   6    -0.413162779498E+03   -0.58650E-04   -0.28151E-03  5676   0.512E-02    0.151E-02
RMM:   7    -0.413162823658E+03   -0.44160E-04   -0.36407E-04  6006   0.154E-02    0.119E-02
RMM:   8    -0.413162836222E+03   -0.12565E-04   -0.45814E-05  4922   0.621E-03    0.721E-03
RMM:   9    -0.413162847912E+03   -0.11689E-04   -0.74645E-06  3001   0.315E-03    0.336E-03
RMM:  10    -0.413162857098E+03   -0.91859E-05   -0.23298E-06  2571   0.202E-03    0.193E-03
RMM:  11    -0.413162866953E+03   -0.98552E-05   -0.13608E-06  2512   0.155E-03    0.109E-03
RMM:  12    -0.413162874107E+03   -0.71541E-05   -0.84573E-07  2275   0.121E-03    0.402E-04
RMM:  13    -0.413162877290E+03   -0.31836E-05   -0.39281E-07  1900   0.923E-04    0.258E-04
RMM:  14    -0.413162881115E+03   -0.38245E-05   -0.36533E-07  1574   0.849E-04    0.176E-04
RMM:  15    -0.413162884281E+03   -0.31665E-05   -0.33233E-07  1663   0.821E-04    0.114E-04
RMM:  16    -0.413162885102E+03   -0.82059E-06   -0.12943E-07  1216   0.656E-04
  150 T=    60. E= -.41286704E+03 F= -.41316289E+03 E0= -.41314222E+03  EK= 0.29585E+00 SP= 0.00E+00 SK= 0.00E+00
