       N       E                     dE             d eps       ncg     rms          rms(c)
RMM:   1     0.220107506447E+04    0.22011E+04   -0.52444E+04  2132   0.654E+02
RMM:   2     0.705646060329E+03   -0.14954E+04   -0.16263E+04  2132   0.177E+02
RMM:   3     0.137703670826E+03   -0.56794E+03   -0.65718E+03  2132   0.117E+02
RMM:   4    -0.159024769833E+03   -0.29673E+03   -0.27827E+03  2132   0.936E+01
RMM:   5    -0.287465538598E+03   -0.12844E+03   -0.11453E+03  2132   0.595E+01
RMM:   6    -0.349829045948E+03   -0.62364E+02   -0.55143E+02  2132   0.423E+01
RMM:   7    -0.382627964417E+03   -0.32799E+02   -0.30380E+02  2132   0.293E+01
RMM:   8    -0.404143396167E+03   -0.21515E+02   -0.18428E+02  2132   0.233E+01
RMM:   9    -0.436020005447E+03   -0.31877E+02   -0.30806E+02  6108   0.173E+01
RMM:  10    -0.441288660461E+03   -0.52687E+01   -0.63069E+01  6394   0.540E+00
RMM:  11    -0.442503152301E+03   -0.12145E+01   -0.11078E+01  6225   0.173E+00
RMM:  12    -0.442884966677E+03   -0.38181E+00   -0.26968E+00  6371   0.599E-01    0.134E+02
RMM:  13    -0.425611689802E+03    0.17273E+02   -0.81023E+01  4675   0.119E+01    0.712E+01
RMM:  14    -0.499312739391E+03   -0.73701E+02   -0.54071E+02  5419   0.232E+01    0.306E+01
RMM:  15    -0.414566170591E+03    0.84747E+02   -0.19563E+02  5056   0.163E+01    0.629E+00
RMM:  16    -0.414035655229E+03    0.53052E+00   -0.39556E+01  6078   0.606E+00    0.426E+00
RMM:  17    -0.413216755900E+03    0.81890E+00   -0.23395E+00  5348   0.182E+00    0.244E+00
RMM:  18    -0.413165699668E+03    0.51056E-01   -0.86789E-01  5967   0.956E-01    0.159E+00
RMM:  19    -0.413167556741E+03   -0.18571E-02   -0.27882E-01  5698   0.563E-01    0.849E-01
RMM:  20    -0.413182865040E+03   -0.15308E-01   -0.21642E-01  5378   0.508E-01    0.550E-01
RMM:  21    -0.413166637505E+03    0.16228E-01   -0.33873E-02  4992   0.230E-01    0.255E-01
RMM:  22    -0.413165001953E+03    0.16356E-02   -0.15380E-02  6089   0.106E-01    0.143E-01
RMM:  23    -0.413163766370E+03    0.12356E-02   -0.53872E-03  5886   0.661E-02    0.824E-02
RMM:  24    -0.413162576768E+03    0.11896E-02   -0.16464E-03  5427   0.403E-02    0.414E-02
RMM:  25    -0.413162373074E+03    0.20369E-03   -0.85468E-04  5643   0.258E-02    0.331E-02
RMM:  26    -0.413162604105E+03   -0.23103E-03   -0.81757E-04  5819   0.291E-02    0.335E-02
RMM:  27    -0.413163048704E+03   -0.44460E-03   -0.19419E-04  4572   0.198E-02    0.191E-02
RMM:  28    -0.413163523820E+03   -0.47512E-03   -0.19637E-04  5302   0.192E-02    0.912E-03
RMM:  29    -0.413163912026E+03   -0.38821E-03   -0.10504E-04  4404   0.150E-02    0.420E-03
RMM:  30    -0.413164126999E+03   -0.21497E-03   -0.75164E-05  4249   0.980E-03    0.337E-03
RMM:  31    -0.413164248900E+03   -0.12190E-03   -0.50058E-05  3169   0.655E-03    0.308E-03
RMM:  32    -0.413164272601E+03   -0.23701E-04   -0.20226E-05  2967   0.297E-03    0.144E-03
RMM:  33    -0.413164283401E+03   -0.10800E-04   -0.81225E-06  2767   0.217E-03    0.520E-04
RMM:  34    -0.413164286601E+03   -0.32000E-05   -0.44789E-06  2655   0.166E-03    0.865E-04
RMM:  35    -0.413164286700E+03   -0.98829E-07   -0.22326E-06  2260   0.116E-03
    1 T=    61. E= -.41286650E+03 F= -.41316429E+03 E0= -.41314179E+03  EK= 0.29778E+00 SP= 0.00E+00 SK= 0.00E+00
       N       E                     dE             d eps       ncg     rms          rms(c)
RMM:   1    -0.413154317927E+03    0.99687E-02   -0.11178E+01  3997   0.701E-01    0.886E-01
RMM:   2    -0.413165330079E+03   -0.11012E-01   -0.13806E-01  3974   0.100E-01    0.640E-01
RMM:   3    -0.413163925733E+03    0.14043E-02   -0.62794E-03  4741   0.362E-02    0.157E-01
RMM:   4    -0.413183887996E+03   -0.19962E-01   -0.20755E-02  5216   0.120E-01    0.591E-01
RMM:   5    -0.413163580300E+03    0.20308E-01   -0.10058E-02  4854   0.989E-02    0.294E-02
RMM:   6    -0.413163708920E+03   -0.12862E-03   -0.15784E-03  5823   0.386E-02    0.152E-02
RMM:   7    -0.413163725268E+03   -0.16348E-04   -0.20032E-04  5765   0.117E-02    0.117E-02
RMM:   8    -0.413163731832E+03   -0.65638E-05   -0.24460E-05  3991   0.449E-03    0.693E-03
RMM:   9    -0.413163738559E+03   -0.67272E-05   -0.45076E-06  2793   0.253E-03    0.452E-03
RMM:  10    -0.413163747034E+03   -0.84750E-05   -0.19732E-06  2564   0.195E-03    0.229E-03
RMM:  11    -0.413163754335E+03   -0.73005E-05   -0.13367E-06  2528   0.160E-03    0.108E-03
RMM:  12    -0.413163758204E+03   -0.38690E-05   -0.70249E-07  2369   0.118E-03    0.412E-04
RMM:  13    -0.413163759937E+03   -0.17334E-05   -0.39102E-07  1797   0.858E-04    0.246E-04
RMM:  14    -0.413163762401E+03   -0.24637E-05   -0.31186E-07  1489   0.768E-04    0.158E-04
RMM:  15    -0.413163764361E+03   -0.19599E-05   -0.24038E-07  1298   0.703E-04    0.903E-05
RMM:  16    -0.413163765148E+03   -0.78755E-06   -0.17261E-07  1145   0.643E-04
    2 T=    61. E= -.41286608E+03 F= -.41316377E+03 E0= -.41314126E+03  EK= 0.29768E+00 SP= 0.00E+00 SK= 0.00E+00
       N       E                     dE             d eps       ncg     rms          rms(c)
RMM:   1    -0.413155550657E+03    0.82137E-02   -0.11215E+01  4194   0.706E-01    0.911E-01
RMM:   2    -0.413165445826E+03   -0.98952E-02   -0.13526E-01  4048   0.975E-02    0.633E-01
RMM:   3    -0.413164725456E+03    0.72037E-03   -0.67648E-03  4877   0.386E-02    0.171E-01
RMM:   4    -0.413194487884E+03   -0.29762E-01   -0.30151E-02  5187   0.145E-01    0.718E-01
RMM:   5    -0.413164326912E+03    0.30161E-01   -0.14654E-02  4831   0.120E-01    0.370E-02
RMM:   6    -0.413164504172E+03   -0.17726E-03   -0.23280E-03  5797   0.468E-02    0.185E-02
RMM:   7    -0.413164517508E+03   -0.13336E-04   -0.27740E-04  5887   0.138E-02    0.136E-02
RMM:   8    -0.413164518527E+03   -0.10193E-05   -0.35933E-05  4389   0.522E-03    0.854E-03
RMM:   9    -0.413164518018E+03    0.50876E-06   -0.57046E-06  2958   0.271E-03
    3 T=    61. E= -.41286654E+03 F= -.41316452E+03 E0= -.41314202E+03  EK= 0.29798E+00 SP= 0.00E+00 SK= 0.00E+00
       N       E                     dE             d eps       ncg     rms          rms(c)
RMM:   1    -0.413154947449E+03    0.95711E-02   -0.11128E+01  4227   0.705E-01    0.894E-01
RMM:   2    -0.413165563338E+03   -0.10616E-01   -0.13417E-01  4208   0.992E-02    0.627E-01
RMM:   3    -0.413167628606E+03   -0.20653E-02   -0.89887E-03  5172   0.650E-02    0.292E-01
RMM:   4    -0.413194546071E+03   -0.26917E-01   -0.40951E-02  5138   0.171E-01    0.725E-01
RMM:   5    -0.413164121083E+03    0.30425E-01   -0.12857E-02  4735   0.121E-01    0.537E-02
RMM:   6    -0.413164176136E+03   -0.55053E-04   -0.21744E-03  5584   0.465E-02    0.161E-02
RMM:   7    -0.413164201327E+03   -0.25191E-04   -0.30685E-04  6044   0.150E-02    0.119E-02
RMM:   8    -0.413164204484E+03   -0.31568E-05   -0.38171E-05  4702   0.551E-03    0.741E-03
RMM:   9    -0.413164206559E+03   -0.20747E-05   -0.68617E-06  3087   0.357E-03    0.360E-03
RMM:  10    -0.413164208470E+03   -0.19111E-05   -0.19156E-06  2556   0.218E-03    0.216E-03
RMM:  11    -0.413164210584E+03   -0.21145E-05   -0.10121E-06  2539   0.156E-03    0.101E-03
RMM:  12    -0.413164211671E+03   -0.10872E-05   -0.47323E-07  2134   0.105E-03    0.457E-04
RMM:  13    -0.413164212867E+03   -0.11958E-05   -0.37542E-07  1780   0.890E-04    0.219E-04
RMM:  14    -0.413164213410E+03   -0.54279E-06   -0.20731E-07  1361   0.726E-04
    4 T=    61. E= -.41286621E+03 F= -.41316421E+03 E0= -.41314173E+03  EK= 0.29800E+00 SP= 0.00E+00 SK= 0.00E+00
       N       E                     dE             d eps       ncg     rms          rms(c)
RMM:   1    -0.413154726037E+03    0.94868E-02   -0.11170E+01  4236   0.711E-01    0.884E-01
RMM:   2    -0.413165699359E+03   -0.10973E-01   -0.13836E-01  4002   0.963E-02    0.639E-01
RMM:   3    -0.413164636358E+03    0.10630E-02   -0.63311E-03  4944   0.364E-02    0.166E-01
RMM:   4    -0.413195915487E+03   -0.31279E-01   -0.31948E-02  5158   0.149E-01    0.737E-01
RMM:   5    -0.413164080716E+03    0.31835E-01   -0.15392E-02  4811   0.123E-01    0.366E-02
RMM:   6    -0.413164270021E+03   -0.18930E-03   -0.24763E-03  5780   0.479E-02    0.166E-02
RMM:   7    -0.413164290574E+03   -0.20554E-04   -0.29052E-04  5867   0.139E-02    0.130E-02
RMM:   8    -0.413164295720E+03   -0.51455E-05   -0.35813E-05  4355   0.519E-03    0.822E-03
RMM:   9    -0.413164300080E+03   -0.43603E-05   -0.56845E-06  2919   0.272E-03    0.561E-03
RMM:  10    -0.413164306942E+03   -0.68615E-05   -0.21906E-06  2568   0.215E-03    0.276E-03
RMM:  11    -0.413164312742E+03   -0.58004E-05   -0.14859E-06  2547   0.179E-03    0.138E-03
RMM:  12    -0.413164316194E+03   -0.34515E-05   -0.74357E-07  2437   0.134E-03    0.499E-04
RMM:  13    -0.413164317527E+03   -0.13332E-05   -0.32827E-07  2007   0.934E-04    0.308E-04
RMM:  14    -0.413164319121E+03   -0.15944E-05   -0.22663E-07  1536   0.785E-04    0.176E-04
RMM:  15    -0.413164320871E+03   -0.17501E-05   -0.21633E-07  1488   0.751E-04    0.138E-04
RMM:  16    -0.413164321205E+03   -0.33364E-06   -0.96583E-08  1078   0.634E-04
    5 T=    61. E= -.41286613E+03 F= -.41316432E+03 E0= -.41314184E+03  EK= 0.29819E+00 SP= 0.00E+00 SK= 0.00E+00
       N       E                     dE             d eps       ncg     rms          rms(c)
RMM:   1    -0.413155695702E+03    0.86252E-02   -0.11226E+01  4248   0.716E-01    0.907E-01
RMM:   2    -0.413166070792E+03   -0.10375E-01   -0.13538E-01  4063   0.969E-02    0.635E-01
RMM:   3    -0.413165167250E+03    0.90354E-03   -0.65596E-03  4860   0.371E-02    0.169E-01
RMM:   4    -0.413193186606E+03   -0.28019E-01   -0.28295E-02  5161   0.140E-01    0.698E-01
RMM:   5    -0.413164750128E+03    0.28436E-01   -0.13850E-02  4816   0.116E-01    0.355E-02
RMM:   6    -0.413164920475E+03   -0.17035E-03   -0.22066E-03  5781   0.453E-02    0.179E-02
RMM:   7    -0.413164932414E+03   -0.11939E-04   -0.25826E-04  5859   0.133E-02    0.133E-02
RMM:   8    -0.413164933562E+03   -0.11484E-05   -0.32598E-05  4321   0.507E-03    0.834E-03
RMM:   9    -0.413164933241E+03    0.32161E-06   -0.53671E-06  2895   0.268E-03
    6 T=    61. E= -.41286642E+03 F= -.41316493E+03 E0= -.41314247E+03  EK= 0.29851E+00 SP= 0.00E+00 SK= 0.00E+00
       N       E                     dE             d eps       ncg     rms          rms(c)
RMM:   1    -0.413156776566E+03    0.81570E-02   -0.11180E+01  4265   0.734E-01    0.902E-01
RMM:   2    -0.413165377037E+03   -0.86005E-02   -0.13498E-01  4257   0.100E-01    0.628E-01
RMM:   3    -0.413167718107E+03   -0.23411E-02   -0.90772E-03  5136   0.637E-02    0.288E-01
RMM:   4    -0.413195243839E+03   -0.27526E-01   -0.40886E-02  5121   0.170E-01    0.730E-01
RMM:   5    -0.413164391086E+03    0.30853E-01   -0.13094E-02  4741   0.121E-01    0.532E-02
RMM:   6    -0.413164455639E+03   -0.64554E-04   -0.22087E-03  5604   0.466E-02    0.162E-02
RMM:   7    -0.413164479352E+03   -0.23713E-04   -0.30708E-04  6038   0.150E-02    0.120E-02
RMM:   8    -0.413164480787E+03   -0.14346E-05   -0.37742E-05  4654   0.550E-03    0.746E-03
RMM:   9    -0.413164479362E+03    0.14248E-05   -0.65677E-06  3000   0.352E-03    0.355E-03
RMM:  10    -0.413164479401E+03   -0.39698E-07   -0.19641E-06  2554   0.217E-03
    7 T=    61. E= -.41286602E+03 F= -.41316448E+03 E0= -.41314203E+03  EK= 0.29846E+00 SP= 0.00E+00 SK= 0.00E+00
       N       E                     dE             d eps       ncg     rms          rms(c)
RMM:   1    -0.413155518714E+03    0.89606E-02   -0.11160E+01  4272   0.730E-01    0.883E-01
RMM:   2    -0.413166602836E+03   -0.11084E-01   -0.13754E-01  4145   0.959E-02    0.636E-01
RMM:   3    -0.413165783904E+03    0.81893E-03   -0.65066E-03  5011   0.411E-02    0.181E-01
RMM:   4    -0.413206981996E+03   -0.41198E-01   -0.43095E-02  5150   0.172E-01    0.843E-01
RMM:   5    -0.413165007126E+03    0.41975E-01   -0.20298E-02  4808   0.141E-01    0.433E-02
RMM:   6    -0.413165215784E+03   -0.20866E-03   -0.31125E-03  5768   0.547E-02    0.167E-02
RMM:   7    -0.413165244341E+03   -0.28556E-04   -0.38145E-04  5945   0.157E-02    0.136E-02
RMM:   8    -0.413165249101E+03   -0.47607E-05   -0.44606E-05  4442   0.560E-03    0.849E-03
RMM:   9    -0.413165252546E+03   -0.34444E-05   -0.69078E-06  2976   0.280E-03    0.570E-03
RMM:  10    -0.413165258092E+03   -0.55463E-05   -0.26351E-06  2591   0.228E-03    0.270E-03
RMM:  11    -0.413165262376E+03   -0.42843E-05   -0.14922E-06  2539   0.179E-03    0.127E-03
RMM:  12    -0.413165264940E+03   -0.25635E-05   -0.81435E-07  2454   0.136E-03    0.422E-04
RMM:  13    -0.413165266305E+03   -0.13651E-05   -0.38477E-07  2015   0.967E-04    0.284E-04
RMM:  14    -0.413165267645E+03   -0.13399E-05   -0.30790E-07  1682   0.831E-04    0.200E-04
RMM:  15    -0.413165268335E+03   -0.68996E-06   -0.19225E-07  1348   0.722E-04
    8 T=    61. E= -.41286655E+03 F= -.41316527E+03 E0= -.41314284E+03  EK= 0.29872E+00 SP= 0.00E+00 SK= 0.00E+00
       N       E                     dE             d eps       ncg     rms          rms(c)
RMM:   1    -0.413155993043E+03    0.92746E-02   -0.11225E+01  4285   0.729E-01    0.901E-01
RMM:   2    -0.413166476078E+03   -0.10483E-01   -0.13667E-01  4200   0.102E-01    0.638E-01
RMM:   3    -0.413165585015E+03    0.89106E-03   -0.65235E-03  4842   0.388E-02    0.168E-01
RMM:   4    -0.413195052272E+03   -0.29467E-01   -0.29910E-02  5156   0.144E-01    0.716E-01
RMM:   5    -0.413165067063E+03    0.29985E-01   -0.14720E-02  4808   0.119E-01    0.350E-02
RMM:   6    -0.413165241520E+03   -0.17446E-03   -0.22432E-03  5793   0.463E-02    0.175E-02
RMM:   7    -0.413165254815E+03   -0.13295E-04   -0.26918E-04  5857   0.136E-02    0.131E-02
RMM:   8    -0.413165256392E+03   -0.15771E-05   -0.34601E-05  4352   0.519E-03    0.842E-03
RMM:   9    -0.413165256332E+03    0.60259E-07   -0.55831E-06  2913   0.273E-03
    9 T=    61. E= -.41286633E+03 F= -.41316526E+03 E0= -.41314285E+03  EK= 0.29893E+00 SP= 0.00E+00 SK= 0.00E+00
       N       E                     dE             d eps       ncg     rms          rms(c)
RMM:   1    -0.413156476411E+03    0.87800E-02   -0.11212E+01  4292   0.734E-01    0.909E-01
RMM:   2    -0.413166178528E+03   -0.97021E-02   -0.13474E-01  4285   0.992E-02    0.629E-01
RMM:   3    -0.413168867305E+03   -0.26888E-02   -0.94300E-03  5129   0.659E-02    0.296E-01
RMM:   4    -0.413194545579E+03   -0.25678E-01   -0.39676E-02  5107   0.168E-01    0.711E-01
RMM:   5    -0.413165390738E+03    0.29155E-01   -0.12339E-02  4733   0.118E-01    0.522E-02
RMM:   6    -0.413165442128E+03   -0.51390E-04   -0.20531E-03  5603   0.448E-02    0.167E-02
RMM:   7    -0.413165461344E+03   -0.19216E-04   -0.28304E-04  6030   0.145E-02    0.121E-02
RMM:   8    -0.413165461495E+03   -0.15096E-06   -0.35637E-05  4631   0.540E-03    0.744E-03
RMM:   9    -0.413165457484E+03    0.40104E-05   -0.66658E-06  3010   0.354E-03    0.354E-03
RMM:  10    -0.413165456137E+03    0.13476E-05   -0.18775E-06  2550   0.214E-03    0.206E-03
RMM:  11    -0.413165454602E+03    0.15349E-05   -0.94775E-07  2526   0.153E-03    0.969E-04
RMM:  12    -0.413165453616E+03    0.98600E-06   -0.44746E-07  2078   0.103E-03
   10 T=    61. E= -.41286621E+03 F= -.41316545E+03 E0= -.41314307E+03  EK= 0.29925E+00 SP= 0.00E+00 SK= 0.00E+00
       N       E                     dE             d eps       ncg     rms          rms(c)
RMM:   1    -0.413156569971E+03    0.88846E-02   -0.11165E+01  4289   0.737E-01    0.884E-01
RMM:   2    -0.413167636442E+03   -0.11066E-01   -0.13648E-01  4222   0.967E-02    0.633E-01
RMM:   3    -0.413166515182E+03    0.11213E-02   -0.62008E-03  4874   0.386E-02    0.168E-01
RMM:   4    -0.413196353180E+03   -0.29838E-01   -0.30398E-02  5152   0.145E-01    0.721E-01
RMM:   5    -0.413165960591E+03    0.30393E-01   -0.14964E-02  4810   0.120E-01    0.348E-02
RMM:   6    -0.413166136952E+03   -0.17636E-03   -0.22762E-03  5798   0.465E-02    0.172E-02
RMM:   7    -0.413166151810E+03   -0.14859E-04   -0.27164E-04  5840   0.136E-02    0.131E-02
RMM:   8    -0.413166154020E+03   -0.22101E-05   -0.35556E-05  4426   0.525E-03    0.856E-03
RMM:   9    -0.413166154382E+03   -0.36165E-06   -0.56610E-06  2925   0.275E-03
   11 T=    61. E= -.41286640E+03 F= -.41316615E+03 E0= -.41314379E+03  EK= 0.29976E+00 SP= 0.00E+00 SK= 0.00E+00
       N       E                     dE             d eps       ncg     rms          rms(c)
RMM:   1    -0.413156575312E+03    0.95787E-02   -0.11249E+01  4296   0.744E-01    0.896E-01
RMM:   2    -0.413167250406E+03   -0.10675E-01   -0.13827E-01  4281   0.996E-02    0.641E-01
RMM:   3    -0.413169664205E+03   -0.24138E-02   -0.92667E-03  5140   0.664E-02    0.301E-01
RMM:   4    -0.413198538154E+03   -0.28874E-01   -0.44340E-02  5110   0.177E-01    0.749E-01
RMM:   5    -0.413165864348E+03    0.32674E-01   -0.13778E-02  4720   0.124E-01    0.534E-02
RMM:   6    -0.413165938598E+03   -0.74250E-04   -0.23445E-03  5608   0.474E-02    0.148E-02
RMM:   7    -0.413165964972E+03   -0.26374E-04   -0.31706E-04  6026   0.151E-02    0.116E-02
RMM:   8    -0.413165968032E+03   -0.30599E-05   -0.39146E-05  4677   0.553E-03    0.724E-03
RMM:   9    -0.413165969882E+03   -0.18503E-05   -0.67945E-06  3037   0.355E-03    0.369E-03
RMM:  10    -0.413165971650E+03   -0.17683E-05   -0.20797E-06  2553   0.220E-03    0.218E-03
RMM:  11    -0.413165973281E+03   -0.16304E-05   -0.11317E-06  2545   0.158E-03    0.100E-03
RMM:  12    -0.413165973989E+03   -0.70822E-06   -0.47954E-07  2149   0.106E-03
   12 T=    61. E= -.41286591E+03 F= -.41316597E+03 E0= -.41314364E+03  EK= 0.30006E+00 SP= 0.00E+00 SK= 0.00E+00
       N       E                     dE             d eps       ncg     rms          rms(c)
RMM:   1    -0.413157628414E+03    0.83449E-02   -0.11276E+01  4296   0.748E-01    0.915E-01
RMM:   2    -0.413167581544E+03   -0.99531E-02   -0.13507E-01  4228   0.939E-02    0.632E-01
RMM:   3    -0.413167009801E+03    0.57174E-03   -0.67706E-03  4943   0.366E-02    0.175E-01
RMM:   4    -0.413198876993E+03   -0.31867E-01   -0.32479E-02  5150   0.150E-01    0.743E-01
RMM:   5    -0.413166529653E+03    0.32347E-01   -0.15913E-02  4806   0.124E-01    0.377E-02
RMM:   6    -0.413166708630E+03   -0.17898E-03   -0.24349E-03  5808   0.479E-02    0.193E-02
RMM:   7    -0.413166718257E+03   -0.96278E-05   -0.28643E-04  5871   0.141E-02    0.140E-02
RMM:   8    -0.413166716595E+03    0.16625E-05   -0.37763E-05  4472   0.540E-03    0.911E-03
RMM:   9    -0.413166712253E+03    0.43415E-05   -0.60952E-06  2964   0.279E-03    0.619E-03
RMM:  10    -0.413166707969E+03    0.42840E-05   -0.21386E-06  2554   0.214E-03    0.303E-03
RMM:  11    -0.413166704677E+03    0.32925E-05   -0.15248E-06  2530   0.186E-03    0.147E-03
RMM:  12    -0.413166702152E+03    0.25253E-05   -0.76507E-07  2439   0.139E-03    0.494E-04
RMM:  13    -0.413166701310E+03    0.84125E-06   -0.32530E-07  2069   0.955E-04
   13 T=    61. E= -.41286610E+03 F= -.41316670E+03 E0= -.41314440E+03  EK= 0.30061E+00 SP= 0.00E+00 SK= 0.00E+00
       N       E                     dE             d eps       ncg     rms          rms(c)
RMM:   1    -0.413157638082E+03    0.90641E-02   -0.11189E+01  4299   0.749E-01    0.889E-01
RMM:   2    -0.413168348924E+03   -0.10711E-01   -0.13706E-01  4245   0.972E-02    0.632E-01
RMM:   3    -0.413167512415E+03    0.83651E-03   -0.63023E-03  4882   0.367E-02    0.169E-01
RMM:   4    -0.413196449871E+03   -0.28937E-01   -0.29515E-02  5147   0.143E-01    0.710E-01
RMM:   5    -0.413166987327E+03    0.29463E-01   -0.14517E-02  4806   0.118E-01    0.344E-02
RMM:   6    -0.413167151791E+03   -0.16446E-03   -0.21974E-03  5801   0.457E-02    0.172E-02
RMM:   7    -0.413167162540E+03   -0.10749E-04   -0.26037E-04  5838   0.135E-02    0.129E-02
RMM:   8    -0.413167162664E+03   -0.12456E-06   -0.34084E-05  4355   0.517E-03    0.845E-03
RMM:   9    -0.413167160786E+03    0.18784E-05   -0.54033E-06  2903   0.271E-03    0.580E-03
RMM:  10    -0.413167159876E+03    0.90943E-06   -0.20346E-06  2551   0.212E-03
   14 T=    61. E= -.41286615E+03 F= -.41316716E+03 E0= -.41314489E+03  EK= 0.30101E+00 SP= 0.00E+00 SK= 0.00E+00
       N       E                     dE             d eps       ncg     rms          rms(c)
RMM:   1    -0.413157664648E+03    0.94961E-02   -0.11277E+01  4307   0.757E-01    0.892E-01
RMM:   2    -0.413169084017E+03   -0.11419E-01   -0.13943E-01  4291   0.100E-01    0.643E-01
RMM:   3    -0.413170678928E+03   -0.15949E-02   -0.88148E-03  5121   0.642E-02    0.288E-01
RMM:   4    -0.413203277440E+03   -0.32599E-01   -0.46744E-02  5112   0.181E-01    0.784E-01
RMM:   5    -0.413167301369E+03    0.35976E-01   -0.15521E-02  4738   0.130E-01    0.510E-02
RMM:   6    -0.413167400190E+03   -0.98821E-04   -0.25093E-03  5644   0.493E-02    0.141E-02
RMM:   7    -0.413167427367E+03   -0.27177E-04   -0.32382E-04  6010   0.151E-02    0.115E-02
RMM:   8    -0.413167430729E+03   -0.33621E-05   -0.39607E-05  4604   0.551E-03    0.703E-03
RMM:   9    -0.413167432237E+03   -0.15078E-05   -0.60173E-06  2882   0.316E-03    0.344E-03
RMM:  10    -0.413167433921E+03   -0.16844E-05   -0.22698E-06  2559   0.214E-03    0.200E-03
RMM:  11    -0.413167435106E+03   -0.11843E-05   -0.10079E-06  2532   0.148E-03    0.858E-04
RMM:  12    -0.413167435748E+03   -0.64280E-06   -0.48136E-07  1948   0.103E-03
   15 T=    61. E= -.41286613E+03 F= -.41316744E+03 E0= -.41314520E+03  EK= 0.30131E+00 SP= 0.00E+00 SK= 0.00E+00
       N       E                     dE             d eps       ncg     rms          rms(c)
RMM:   1    -0.413159347928E+03    0.80872E-02   -0.11320E+01  4306   0.765E-01    0.916E-01
RMM:   2    -0.413169370126E+03   -0.10022E-01   -0.13639E-01  4251   0.100E-01    0.635E-01
RMM:   3    -0.413168742858E+03    0.62727E-03   -0.67971E-03  4916   0.396E-02    0.177E-01
RMM:   4    -0.413202170599E+03   -0.33428E-01   -0.34254E-02  5153   0.154E-01    0.761E-01
RMM:   5    -0.413168147646E+03    0.34023E-01   -0.16698E-02  4804   0.127E-01    0.382E-02
RMM:   6    -0.413168329068E+03   -0.18142E-03   -0.25650E-03  5801   0.493E-02    0.192E-02
RMM:   7    -0.413168338584E+03   -0.95158E-05   -0.29865E-04  5877   0.145E-02    0.142E-02
RMM:   8    -0.413168336311E+03    0.22734E-05   -0.39332E-05  4510   0.554E-03    0.934E-03
RMM:   9    -0.413168330938E+03    0.53732E-05   -0.61548E-06  2959   0.288E-03    0.635E-03
RMM:  10    -0.413168325558E+03    0.53799E-05   -0.22367E-06  2554   0.224E-03    0.311E-03
RMM:  11    -0.413168321471E+03    0.40869E-05   -0.16051E-06  2531   0.191E-03    0.150E-03
RMM:  12    -0.413168318536E+03    0.29350E-05   -0.76232E-07  2441   0.141E-03    0.511E-04
RMM:  13    -0.413168317475E+03    0.10612E-05   -0.32889E-07  2097   0.966E-04    0.328E-04
RMM:  14    -0.413168316034E+03    0.14410E-05   -0.19526E-07  1619   0.775E-04    0.185E-04
RMM:  15    -0.413168313517E+03    0.25170E-05   -0.18738E-07  1517   0.746E-04    0.150E-04
RMM:  16    -0.413168312887E+03    0.62965E-06   -0.75757E-08  1034   0.616E-04
   16 T=    61. E= -.41286635E+03 F= -.41316831E+03 E0= -.41314612E+03  EK= 0.30196E+00 SP= 0.00E+00 SK= 0.00E+00
       N       E                     dE             d eps       ncg     rms          rms(c)
RMM:   1    -0.413159407508E+03    0.89060E-02   -0.11236E+01  4296   0.761E-01    0.896E-01
RMM:   2    -0.413169996856E+03   -0.10589E-01   -0.13715E-01  4261   0.994E-02    0.631E-01
RMM:   3    -0.413169096312E+03    0.90054E-03   -0.64528E-03  4907   0.415E-02    0.178E-01
RMM:   4    -0.413204552127E+03   -0.35456E-01   -0.36432E-02  5146   0.158E-01    0.782E-01
RMM:   5    -0.413168559183E+03    0.35993E-01   -0.17719E-02  4796   0.131E-01    0.387E-02
RMM:   6    -0.413168755993E+03   -0.19681E-03   -0.27466E-03  5793   0.505E-02    0.187E-02
RMM:   7    -0.413168768067E+03   -0.12074E-04   -0.31797E-04  5884   0.147E-02    0.141E-02
RMM:   8    -0.413168766651E+03    0.14157E-05   -0.40617E-05  4493   0.550E-03    0.920E-03
RMM:   9    -0.413168762789E+03    0.38618E-05   -0.63861E-06  2985   0.280E-03    0.631E-03
RMM:  10    -0.413168759264E+03    0.35251E-05   -0.22014E-06  2549   0.221E-03    0.306E-03
RMM:  11    -0.413168756891E+03    0.23728E-05   -0.15464E-06  2526   0.188E-03    0.150E-03
RMM:  12    -0.413168755130E+03    0.17611E-05   -0.74419E-07  2441   0.141E-03    0.508E-04
RMM:  13    -0.413168754488E+03    0.64250E-06   -0.33296E-07  2107   0.971E-04
   17 T=    62. E= -.41286617E+03 F= -.41316875E+03 E0= -.41314660E+03  EK= 0.30259E+00 SP= 0.00E+00 SK= 0.00E+00
       N       E                     dE             d eps       ncg     rms          rms(c)
RMM:   1    -0.413159520281E+03    0.92348E-02   -0.11319E+01  4298   0.768E-01    0.890E-01
RMM:   2    -0.413171050905E+03   -0.11531E-01   -0.13988E-01  4267   0.101E-01    0.644E-01
RMM:   3    -0.413169707391E+03    0.13435E-02   -0.62805E-03  4885   0.397E-02    0.172E-01
RMM:   4    -0.413203594621E+03   -0.33887E-01   -0.34909E-02  5154   0.155E-01    0.766E-01
RMM:   5    -0.413169081215E+03    0.34513E-01   -0.17044E-02  4802   0.128E-01    0.370E-02
RMM:   6    -0.413169272915E+03   -0.19170E-03   -0.26103E-03  5790   0.497E-02    0.175E-02
RMM:   7    -0.413169286890E+03   -0.13975E-04   -0.30095E-04  5871   0.144E-02    0.134E-02
RMM:   8    -0.413169287980E+03   -0.10909E-05   -0.39457E-05  4476   0.543E-03    0.885E-03
RMM:   9    -0.413169286937E+03    0.10432E-05   -0.62160E-06  2974   0.281E-03    0.608E-03
RMM:  10    -0.413169287366E+03   -0.42894E-06   -0.22992E-06  2564   0.222E-03
   18 T=    62. E= -.41286596E+03 F= -.41316929E+03 E0= -.41314717E+03  EK= 0.30333E+00 SP= 0.00E+00 SK= 0.00E+00
       N       E                     dE             d eps       ncg     rms          rms(c)
RMM:   1    -0.413161260794E+03    0.80261E-02   -0.11384E+01  4301   0.774E-01    0.915E-01
RMM:   2    -0.413171372401E+03   -0.10112E-01   -0.13850E-01  4309   0.100E-01    0.639E-01
RMM:   3    -0.413174201713E+03   -0.28293E-02   -0.96168E-03  5133   0.672E-02    0.308E-01
RMM:   4    -0.413199865235E+03   -0.25664E-01   -0.41495E-02  5096   0.171E-01    0.715E-01
RMM:   5    -0.413170242021E+03    0.29623E-01   -0.12402E-02  4711   0.118E-01    0.500E-02
RMM:   6    -0.413170305411E+03   -0.63390E-04   -0.20809E-03  5616   0.443E-02    0.160E-02
RMM:   7    -0.413170320397E+03   -0.14987E-04   -0.26964E-04  6001   0.140E-02    0.116E-02
RMM:   8    -0.413170318420E+03    0.19774E-05   -0.33599E-05  4509   0.523E-03    0.698E-03
RMM:   9    -0.413170311055E+03    0.73651E-05   -0.55099E-06  2819   0.322E-03    0.330E-03
RMM:  10    -0.413170307345E+03    0.37094E-05   -0.18200E-06  2535   0.202E-03    0.186E-03
RMM:  11    -0.413170303637E+03    0.37088E-05   -0.83693E-07  2509   0.143E-03    0.870E-04
RMM:  12    -0.413170301490E+03    0.21469E-05   -0.41549E-07  1936   0.101E-03    0.450E-04
RMM:  13    -0.413170298817E+03    0.26727E-05   -0.31207E-07  1853   0.899E-04    0.238E-04
RMM:  14    -0.413170297437E+03    0.13799E-05   -0.17251E-07  1379   0.717E-04    0.143E-04
RMM:  15    -0.413170294556E+03    0.28809E-05   -0.19358E-07  1565   0.743E-04    0.101E-04
RMM:  16    -0.413170292909E+03    0.16472E-05   -0.11396E-07  1223   0.636E-04    0.829E-05
RMM:  17    -0.413170290841E+03    0.20683E-05   -0.10141E-07  1249   0.629E-04    0.458E-05
RMM:  18    -0.413170289089E+03    0.17516E-05   -0.67625E-08  1020   0.573E-04    0.266E-05
RMM:  19    -0.413170288702E+03    0.38703E-06   -0.32585E-08   804   0.530E-04
   19 T=    62. E= -.41286598E+03 F= -.41317029E+03 E0= -.41314821E+03  EK= 0.30431E+00 SP= 0.00E+00 SK= 0.00E+00
       N       E                     dE             d eps       ncg     rms          rms(c)
RMM:   1    -0.413161767792E+03    0.85213E-02   -0.11341E+01  4299   0.788E-01    0.905E-01
RMM:   2    -0.413172023746E+03   -0.10256E-01   -0.13760E-01  4267   0.101E-01    0.632E-01
RMM:   3    -0.413171422582E+03    0.60116E-03   -0.66391E-03  4975   0.410E-02    0.188E-01
RMM:   4    -0.413211488343E+03   -0.40066E-01   -0.42028E-02  5149   0.170E-01    0.831E-01
RMM:   5    -0.413170677274E+03    0.40811E-01   -0.19914E-02  4791   0.139E-01    0.427E-02
RMM:   6    -0.413170897272E+03   -0.22000E-03   -0.31834E-03  5786   0.539E-02    0.193E-02
RMM:   7    -0.413170911417E+03   -0.14145E-04   -0.36816E-04  5874   0.157E-02    0.148E-02
RMM:   8    -0.413170908838E+03    0.25784E-05   -0.46009E-05  4613   0.582E-03    0.968E-03
RMM:   9    -0.413170903157E+03    0.56810E-05   -0.70762E-06  3038   0.289E-03    0.658E-03
RMM:  10    -0.413170897319E+03    0.58384E-05   -0.23986E-06  2559   0.230E-03    0.315E-03
RMM:  11    -0.413170893296E+03    0.40227E-05   -0.15256E-06  2520   0.190E-03    0.153E-03
RMM:  12    -0.413170890471E+03    0.28253E-05   -0.75631E-07  2444   0.144E-03    0.501E-04
RMM:  13    -0.413170889476E+03    0.99513E-06   -0.33782E-07  2141   0.994E-04
   20 T=    62. E= -.41286579E+03 F= -.41317089E+03 E0= -.41314886E+03  EK= 0.30510E+00 SP= 0.00E+00 SK= 0.00E+00
       N       E                     dE             d eps       ncg     rms          rms(c)
RMM:   1    -0.413162106521E+03    0.87839E-02   -0.11380E+01  4299   0.786E-01    0.891E-01
RMM:   2    -0.413173325220E+03   -0.11219E-01   -0.14170E-01  4282   0.103E-01    0.644E-01
RMM:   3    -0.413172212222E+03    0.11130E-02   -0.63527E-03  4926   0.390E-02    0.175E-01
RMM:   4    -0.413207414979E+03   -0.35203E-01   -0.36407E-02  5148   0.158E-01    0.780E-01
RMM:   5    -0.413171517139E+03    0.35898E-01   -0.17634E-02  4798   0.130E-01    0.380E-02
RMM:   6    -0.413171726310E+03   -0.20917E-03   -0.28430E-03  5810   0.507E-02    0.178E-02
RMM:   7    -0.413171742421E+03   -0.16111E-04   -0.31822E-04  5876   0.148E-02    0.138E-02
RMM:   8    -0.413171742432E+03   -0.11383E-07   -0.41792E-05  4542   0.559E-03    0.928E-03
RMM:   9    -0.413171739686E+03    0.27460E-05   -0.64587E-06  2994   0.284E-03    0.644E-03
RMM:  10    -0.413171737994E+03    0.16928E-05   -0.23023E-06  2563   0.227E-03    0.320E-03
RMM:  11    -0.413171737003E+03    0.99032E-06   -0.17032E-06  2536   0.196E-03
   21 T=    62. E= -.41286586E+03 F= -.41317174E+03 E0= -.41314975E+03  EK= 0.30588E+00 SP= 0.00E+00 SK= 0.00E+00
       N       E                     dE             d eps       ncg     rms          rms(c)
RMM:   1    -0.413163291806E+03    0.84462E-02   -0.11454E+01  4298   0.787E-01    0.912E-01
RMM:   2    -0.413174165833E+03   -0.10874E-01   -0.14048E-01  4287   0.999E-02    0.643E-01
RMM:   3    -0.413174124981E+03    0.40852E-04   -0.71771E-03  5036   0.486E-02    0.214E-01
RMM:   4    -0.413219706943E+03   -0.45582E-01   -0.50965E-02  5134   0.187E-01    0.889E-01
RMM:   5    -0.413172770309E+03    0.46937E-01   -0.22371E-02  4782   0.149E-01    0.468E-02
RMM:   6    -0.413172988872E+03   -0.21856E-03   -0.35156E-03  5768   0.575E-02    0.187E-02
RMM:   7    -0.413173009365E+03   -0.20493E-04   -0.41443E-04  5950   0.168E-02    0.150E-02
RMM:   8    -0.413173007671E+03    0.16941E-05   -0.52417E-05  4776   0.612E-03    0.976E-03
RMM:   9    -0.413173002056E+03    0.56157E-05   -0.75097E-06  3045   0.295E-03    0.622E-03
RMM:  10    -0.413172996403E+03    0.56522E-05   -0.26808E-06  2573   0.238E-03    0.289E-03
RMM:  11    -0.413172992260E+03    0.41438E-05   -0.14369E-06  2516   0.185E-03    0.137E-03
RMM:  12    -0.413172989088E+03    0.31715E-05   -0.73477E-07  2449   0.140E-03    0.456E-04
RMM:  13    -0.413172987469E+03    0.16192E-05   -0.33438E-07  2097   0.976E-04    0.306E-04
RMM:  14    -0.413172985156E+03    0.23127E-05   -0.21227E-07  1659   0.796E-04    0.198E-04
RMM:  15    -0.413172982860E+03    0.22958E-05   -0.14399E-07  1390   0.709E-04    0.109E-04
RMM:  16    -0.413172982016E+03    0.84497E-06   -0.78290E-08  1105   0.627E-04
   22 T=    62. E= -.41286628E+03 F= -.41317298E+03 E0= -.41315104E+03  EK= 0.30670E+00 SP= 0.00E+00 SK= 0.00E+00
       N       E                     dE             d eps       ncg     rms          rms(c)
RMM:   1    -0.413164353934E+03    0.86289E-02   -0.11444E+01  4294   0.792E-01    0.915E-01
RMM:   2    -0.413174673863E+03   -0.10320E-01   -0.13893E-01  4280   0.108E-01    0.635E-01
RMM:   3    -0.413174062428E+03    0.61143E-03   -0.67484E-03  4891   0.433E-02    0.184E-01
RMM:   4    -0.413210974791E+03   -0.36912E-01   -0.38083E-02  5148   0.162E-01    0.798E-01
RMM:   5    -0.413173399598E+03    0.37575E-01   -0.18431E-02  4798   0.134E-01    0.401E-02
RMM:   6    -0.413173595895E+03   -0.19630E-03   -0.29475E-03  5801   0.520E-02    0.199E-02
RMM:   7    -0.413173605445E+03   -0.95498E-05   -0.32630E-04  5885   0.153E-02    0.147E-02
RMM:   8    -0.413173601400E+03    0.40449E-05   -0.43457E-05  4620   0.581E-03    0.989E-03
RMM:   9    -0.413173593895E+03    0.75046E-05   -0.69697E-06  3035   0.299E-03    0.677E-03
RMM:  10    -0.413173585923E+03    0.79725E-05   -0.23415E-06  2559   0.235E-03    0.337E-03
RMM:  11    -0.413173579397E+03    0.65256E-05   -0.16757E-06  2527   0.201E-03    0.165E-03
RMM:  12    -0.413173574971E+03    0.44266E-05   -0.76906E-07  2446   0.148E-03    0.547E-04
RMM:  13    -0.413173573436E+03    0.15350E-05   -0.34621E-07  2137   0.100E-03    0.347E-04
RMM:  14    -0.413173571491E+03    0.19446E-05   -0.18999E-07  1649   0.784E-04    0.197E-04
RMM:  15    -0.413173567621E+03    0.38700E-05   -0.16858E-07  1610   0.755E-04    0.167E-04
RMM:  16    -0.413173566954E+03    0.66668E-06   -0.69989E-08  1033   0.610E-04
   23 T=    63. E= -.41286606E+03 F= -.41317357E+03 E0= -.41315167E+03  EK= 0.30750E+00 SP= 0.00E+00 SK= 0.00E+00
       N       E                     dE             d eps       ncg     rms          rms(c)
RMM:   1    -0.413165142591E+03    0.84250E-02   -0.11436E+01  4295   0.795E-01    0.894E-01
RMM:   2    -0.413176752128E+03   -0.11610E-01   -0.14239E-01  4284   0.105E-01    0.643E-01
RMM:   3    -0.413175396654E+03    0.13555E-02   -0.62090E-03  4769   0.402E-02    0.171E-01
RMM:   4    -0.413202040241E+03   -0.26644E-01   -0.27025E-02  5152   0.137E-01    0.680E-01
RMM:   5    -0.413175005843E+03    0.27034E-01   -0.13371E-02  4807   0.113E-01    0.324E-02
RMM:   6    -0.413175154129E+03   -0.14829E-03   -0.21100E-03  5813   0.435E-02    0.167E-02
RMM:   7    -0.413175163459E+03   -0.93297E-05   -0.21707E-04  5731   0.126E-02    0.118E-02
RMM:   8    -0.413175162715E+03    0.74405E-06   -0.31605E-05  4359   0.500E-03    0.855E-03
RMM:   9    -0.413175158435E+03    0.42799E-05   -0.56903E-06  2991   0.284E-03    0.582E-03
RMM:  10    -0.413175155587E+03    0.28483E-05   -0.18345E-06  2540   0.212E-03    0.300E-03
RMM:  11    -0.413175153371E+03    0.22158E-05   -0.14767E-06  2521   0.187E-03    0.152E-03
RMM:  12    -0.413175151666E+03    0.17047E-05   -0.65774E-07  2427   0.135E-03    0.550E-04
RMM:  13    -0.413175151083E+03    0.58358E-06   -0.28258E-07  2007   0.915E-04
   24 T=    63. E= -.41286639E+03 F= -.41317515E+03 E0= -.41315330E+03  EK= 0.30876E+00 SP= 0.00E+00 SK= 0.00E+00
       N       E                     dE             d eps       ncg     rms          rms(c)
RMM:   1    -0.413166430023E+03    0.87216E-02   -0.11552E+01  4296   0.804E-01    0.909E-01
RMM:   2    -0.413177827954E+03   -0.11398E-01   -0.14224E-01  4280   0.108E-01    0.648E-01
RMM:   3    -0.413176455277E+03    0.13727E-02   -0.63884E-03  4821   0.417E-02    0.175E-01
RMM:   4    -0.413206578361E+03   -0.30123E-01   -0.30497E-02  5147   0.146E-01    0.721E-01
RMM:   5    -0.413176041566E+03    0.30537E-01   -0.15053E-02  4804   0.120E-01    0.347E-02
RMM:   6    -0.413176206017E+03   -0.16445E-03   -0.23922E-03  5811   0.466E-02    0.178E-02
RMM:   7    -0.413176214969E+03   -0.89522E-05   -0.25234E-04  5807   0.135E-02    0.128E-02
RMM:   8    -0.413176212748E+03    0.22210E-05   -0.35705E-05  4502   0.529E-03    0.913E-03
RMM:   9    -0.413176206975E+03    0.57732E-05   -0.61562E-06  3022   0.291E-03    0.621E-03
RMM:  10    -0.413176202153E+03    0.48219E-05   -0.20274E-06  2553   0.223E-03    0.315E-03
RMM:  11    -0.413176198236E+03    0.39176E-05   -0.15666E-06  2524   0.193E-03    0.157E-03
RMM:  12    -0.413176195498E+03    0.27381E-05   -0.68614E-07  2428   0.139E-03    0.549E-04
RMM:  13    -0.413176194487E+03    0.10109E-05   -0.30112E-07  2051   0.938E-04    0.334E-04
RMM:  14    -0.413176193034E+03    0.14527E-05   -0.17030E-07  1579   0.757E-04    0.186E-04
RMM:  15    -0.413176190459E+03    0.25747E-05   -0.15043E-07  1568   0.733E-04    0.181E-04
RMM:  16    -0.413176189884E+03    0.57563E-06   -0.59670E-08   981   0.594E-04
   25 T=    63. E= -.41286622E+03 F= -.41317619E+03 E0= -.41315439E+03  EK= 0.30997E+00 SP= 0.00E+00 SK= 0.00E+00
       N       E                     dE             d eps       ncg     rms          rms(c)
RMM:   1    -0.413167875404E+03    0.83151E-02   -0.11587E+01  4293   0.812E-01    0.925E-01
RMM:   2    -0.413178260184E+03   -0.10385E-01   -0.14139E-01  4277   0.110E-01    0.640E-01
RMM:   3    -0.413177535676E+03    0.72451E-03   -0.66762E-03  4746   0.410E-02    0.176E-01
RMM:   4    -0.413203362305E+03   -0.25827E-01   -0.26063E-02  5150   0.134E-01    0.670E-01
RMM:   5    -0.413177184962E+03    0.26177E-01   -0.13103E-02  4814   0.111E-01    0.334E-02
RMM:   6    -0.413177320473E+03   -0.13551E-03   -0.20028E-03  5811   0.427E-02    0.180E-02
RMM:   7    -0.413177324945E+03   -0.44715E-05   -0.20763E-04  5697   0.124E-02    0.120E-02
RMM:   8    -0.413177320415E+03    0.45297E-05   -0.29951E-05  4320   0.490E-03    0.866E-03
RMM:   9    -0.413177312635E+03    0.77804E-05   -0.58391E-06  3018   0.286E-03    0.588E-03
RMM:  10    -0.413177304648E+03    0.79866E-05   -0.17257E-06  2534   0.212E-03    0.305E-03
RMM:  11    -0.413177297120E+03    0.75287E-05   -0.14130E-06  2510   0.187E-03    0.152E-03
RMM:  12    -0.413177291915E+03    0.52044E-05   -0.62648E-07  2418   0.135E-03    0.520E-04
RMM:  13    -0.413177290201E+03    0.17142E-05   -0.26876E-07  2004   0.908E-04    0.326E-04
RMM:  14    -0.413177287926E+03    0.22750E-05   -0.14235E-07  1487   0.729E-04    0.177E-04
RMM:  15    -0.413177283451E+03    0.44752E-05   -0.13828E-07  1613   0.733E-04    0.206E-04
RMM:  16    -0.413177282582E+03    0.86829E-06   -0.51118E-08   949   0.580E-04
   26 T=    63. E= -.41286593E+03 F= -.41317728E+03 E0= -.41315553E+03  EK= 0.31136E+00 SP= 0.00E+00 SK= 0.00E+00
       N       E                     dE             d eps       ncg     rms          rms(c)
RMM:   1    -0.413169211501E+03    0.80720E-02   -0.11560E+01  4293   0.814E-01    0.900E-01
RMM:   2    -0.413180496148E+03   -0.11285E-01   -0.14304E-01  4277   0.103E-01    0.643E-01
RMM:   3    -0.413179573108E+03    0.92304E-03   -0.63199E-03  4765   0.419E-02    0.176E-01
RMM:   4    -0.413207028672E+03   -0.27456E-01   -0.27736E-02  5153   0.139E-01    0.690E-01
RMM:   5    -0.413179176196E+03    0.27852E-01   -0.13917E-02  4811   0.115E-01    0.329E-02
RMM:   6    -0.413179323428E+03   -0.14723E-03   -0.21446E-03  5825   0.442E-02    0.173E-02
RMM:   7    -0.413179331364E+03   -0.79353E-05   -0.22545E-04  5761   0.129E-02    0.122E-02
RMM:   8    -0.413179329060E+03    0.23032E-05   -0.32179E-05  4394   0.507E-03    0.869E-03
RMM:   9    -0.413179323376E+03    0.56846E-05   -0.57722E-06  3003   0.287E-03    0.592E-03
RMM:  10    -0.413179318487E+03    0.48889E-05   -0.18590E-06  2546   0.216E-03    0.302E-03
RMM:  11    -0.413179314478E+03    0.40086E-05   -0.14460E-06  2519   0.186E-03    0.152E-03
RMM:  12    -0.413179311620E+03    0.28586E-05   -0.64194E-07  2418   0.135E-03    0.529E-04
RMM:  13    -0.413179310615E+03    0.10050E-05   -0.27764E-07  2010   0.912E-04    0.319E-04
RMM:  14    -0.413179309230E+03    0.13843E-05   -0.15129E-07  1492   0.738E-04    0.175E-04
RMM:  15    -0.413179306762E+03    0.24684E-05   -0.13080E-07  1486   0.717E-04    0.162E-04
RMM:  16    -0.413179306150E+03    0.61172E-06   -0.53660E-08   953   0.596E-04
   27 T=    64. E= -.41286624E+03 F= -.41317931E+03 E0= -.41315761E+03  EK= 0.31306E+00 SP= 0.00E+00 SK= 0.00E+00
       N       E                     dE             d eps       ncg     rms          rms(c)
RMM:   1    -0.413172459864E+03    0.68469E-02   -0.11717E+01  4292   0.839E-01    0.909E-01
RMM:   2    -0.413181598915E+03   -0.91391E-02   -0.14726E-01  4277   0.109E-01    0.654E-01
RMM:   3    -0.413180457515E+03    0.11414E-02   -0.64109E-03  4667   0.426E-02    0.173E-01
RMM:   4    -0.413202273289E+03   -0.21816E-01   -0.22153E-02  5154   0.125E-01    0.619E-01
RMM:   5    -0.413180025593E+03    0.22248E-01   -0.11101E-02  4812   0.102E-01    0.293E-02
RMM:   6    -0.413180138322E+03   -0.11273E-03   -0.17087E-03  5834   0.391E-02    0.157E-02
RMM:   7    -0.413180144395E+03   -0.60735E-05   -0.16554E-04  5557   0.113E-02    0.103E-02
RMM:   8    -0.413180141949E+03    0.24460E-05   -0.22918E-05  3979   0.437E-03    0.748E-03
RMM:   9    -0.413180137411E+03    0.45378E-05   -0.54267E-06  2999   0.280E-03    0.515E-03
RMM:  10    -0.413180134099E+03    0.33121E-05   -0.15932E-06  2522   0.206E-03    0.280E-03
RMM:  11    -0.413180130384E+03    0.37150E-05   -0.13642E-06  2518   0.180E-03    0.140E-03
RMM:  12    -0.413180127844E+03    0.25402E-05   -0.54717E-07  2388   0.127E-03    0.523E-04
RMM:  13    -0.413180126907E+03    0.93723E-06   -0.22868E-07  1882   0.853E-04
   28 T=    64. E= -.41286561E+03 F= -.41318013E+03 E0= -.41315848E+03  EK= 0.31452E+00 SP= 0.00E+00 SK= 0.00E+00
       N       E                     dE             d eps       ncg     rms          rms(c)
RMM:   1    -0.413172930308E+03    0.71975E-02   -0.11776E+01  4292   0.841E-01    0.933E-01
RMM:   2    -0.413183436534E+03   -0.10506E-01   -0.14461E-01  4276   0.111E-01    0.647E-01
RMM:   3    -0.413182551773E+03    0.88476E-03   -0.67632E-03  4502   0.412E-02    0.174E-01
RMM:   4    -0.413194125283E+03   -0.11574E-01   -0.11718E-02  5167   0.911E-02    0.451E-01
RMM:   5    -0.413182515292E+03    0.11610E-01   -0.57923E-03  4827   0.738E-02    0.253E-02
RMM:   6    -0.413182553860E+03   -0.38568E-04   -0.91636E-04  5864   0.281E-02    0.154E-02
RMM:   7    -0.413182553285E+03    0.57569E-06   -0.10066E-04  5418   0.923E-03    0.102E-02
RMM:   8    -0.413182544620E+03    0.86652E-05   -0.14211E-05  3720   0.400E-03    0.590E-03
RMM:   9    -0.413182537586E+03    0.70334E-05   -0.29488E-06  2684   0.244E-03    0.378E-03
RMM:  10    -0.413182530075E+03    0.75114E-05   -0.97339E-07  2498   0.165E-03    0.206E-03
RMM:  11    -0.413182522807E+03    0.72677E-05   -0.75406E-07  2468   0.140E-03    0.956E-04
RMM:  12    -0.413182517504E+03    0.53027E-05   -0.37741E-07  2218   0.104E-03    0.352E-04
RMM:  13    -0.413182515762E+03    0.17427E-05   -0.16207E-07  1459   0.742E-04    0.212E-04
RMM:  14    -0.413182512651E+03    0.31109E-05   -0.10784E-07  1258   0.679E-04    0.125E-04
RMM:  15    -0.413182508400E+03    0.42508E-05   -0.93205E-08  1301   0.674E-04    0.104E-04
RMM:  16    -0.413182507181E+03    0.12186E-05   -0.46996E-08   963   0.588E-04    0.815E-05
RMM:  17    -0.413182501921E+03    0.52603E-05   -0.93293E-08  1472   0.675E-04    0.749E-05
RMM:  18    -0.413182501313E+03    0.60783E-06   -0.27839E-08   787   0.522E-04
   29 T=    64. E= -.41286612E+03 F= -.41318250E+03 E0= -.41316090E+03  EK= 0.31638E+00 SP= 0.00E+00 SK= 0.00E+00
       N       E                     dE             d eps       ncg     rms          rms(c)
RMM:   1    -0.413174322005E+03    0.81799E-02   -0.11733E+01  4291   0.847E-01    0.911E-01
RMM:   2    -0.413185448586E+03   -0.11127E-01   -0.14707E-01  4270   0.109E-01    0.646E-01
RMM:   3    -0.413184305245E+03    0.11433E-02   -0.64222E-03  4407   0.437E-02    0.172E-01
RMM:   4    -0.413191185444E+03   -0.68802E-02   -0.74307E-03  5140   0.755E-02    0.351E-01
RMM:   5    -0.413184182502E+03    0.70029E-02   -0.34486E-03  4822   0.573E-02    0.206E-02
RMM:   6    -0.413184196522E+03   -0.14019E-04   -0.53329E-04  5821   0.221E-02    0.139E-02
RMM:   7    -0.413184193312E+03    0.32091E-05   -0.68195E-05  5229   0.804E-03    0.856E-03
RMM:   8    -0.413184185957E+03    0.73550E-05   -0.81228E-06  3130   0.348E-03    0.421E-03
RMM:   9    -0.413184181299E+03    0.46586E-05   -0.17833E-06  2565   0.208E-03    0.257E-03
RMM:  10    -0.413184176426E+03    0.48725E-05   -0.77303E-07  2467   0.143E-03    0.143E-03
RMM:  11    -0.413184172093E+03    0.43331E-05   -0.48166E-07  2284   0.113E-03    0.580E-04
RMM:  12    -0.413184168895E+03    0.31982E-05   -0.25945E-07  1813   0.873E-04    0.204E-04
RMM:  13    -0.413184166842E+03    0.20525E-05   -0.13746E-07  1293   0.707E-04    0.129E-04
RMM:  14    -0.413184164125E+03    0.27176E-05   -0.10570E-07  1289   0.680E-04    0.824E-05
RMM:  15    -0.413184161520E+03    0.26045E-05   -0.84989E-08  1262   0.645E-04    0.696E-05
RMM:  16    -0.413184160111E+03    0.14090E-05   -0.49604E-08   981   0.579E-04    0.462E-05
RMM:  17    -0.413184157648E+03    0.24631E-05   -0.54831E-08  1085   0.588E-04    0.225E-05
RMM:  18    -0.413184157172E+03    0.47646E-06   -0.21880E-08   742   0.524E-04
   30 T=    65. E= -.41286622E+03 F= -.41318416E+03 E0= -.41316261E+03  EK= 0.31794E+00 SP= 0.00E+00 SK= 0.00E+00
       N       E                     dE             d eps       ncg     rms          rms(c)
RMM:   1    -0.413176456678E+03    0.77010E-02   -0.11864E+01  4291   0.883E-01    0.911E-01
RMM:   2    -0.413188047832E+03   -0.11591E-01   -0.15200E-01  4272   0.123E-01    0.660E-01
RMM:   3    -0.413185967292E+03    0.20805E-02   -0.62264E-03  4250   0.409E-02    0.169E-01
RMM:   4    -0.413187112025E+03   -0.11447E-02   -0.20528E-03  5072   0.376E-02    0.143E-01
RMM:   5    -0.413185964088E+03    0.11479E-02   -0.55116E-04  4772   0.238E-02    0.161E-02
RMM:   6    -0.413185959121E+03    0.49676E-05   -0.11580E-04  5517   0.113E-02    0.121E-02
RMM:   7    -0.413185955038E+03    0.40824E-05   -0.22897E-05  4271   0.554E-03    0.455E-03
RMM:   8    -0.413185950859E+03    0.41791E-05   -0.38577E-06  2765   0.279E-03    0.235E-03
RMM:   9    -0.413185949506E+03    0.13536E-05   -0.67149E-07  2462   0.153E-03    0.138E-03
RMM:  10    -0.413185946808E+03    0.26981E-05   -0.46502E-07  2213   0.106E-03    0.739E-04
RMM:  11    -0.413185944473E+03    0.23344E-05   -0.27537E-07  1630   0.824E-04    0.302E-04
RMM:  12    -0.413185942597E+03    0.18760E-05   -0.17751E-07  1526   0.738E-04    0.175E-04
RMM:  13    -0.413185940313E+03    0.22845E-05   -0.13131E-07  1261   0.674E-04    0.833E-05
RMM:  14    -0.413185938858E+03    0.14544E-05   -0.77611E-08  1049   0.608E-04    0.583E-05
RMM:  15    -0.413185937524E+03    0.13343E-05   -0.53245E-08   934   0.575E-04    0.329E-05
RMM:  16    -0.413185935883E+03    0.16412E-05   -0.46325E-08   922   0.569E-04    0.257E-05
RMM:  17    -0.413185935444E+03    0.43921E-06   -0.19778E-08   681   0.526E-04
   31 T=    65. E= -.41286632E+03 F= -.41318594E+03 E0= -.41316444E+03  EK= 0.31962E+00 SP= 0.00E+00 SK= 0.00E+00
       N       E                     dE             d eps       ncg     rms          rms(c)
RMM:   1    -0.413183064084E+03    0.28718E-02   -0.12009E+01  4287   0.920E-01    0.938E-01
RMM:   2    -0.413189710090E+03   -0.66460E-02   -0.15220E-01  4265   0.121E-01    0.654E-01
RMM:   3    -0.413188522183E+03    0.11879E-02   -0.67624E-03  4202   0.467E-02    0.177E-01
RMM:   4    -0.413188834932E+03   -0.31275E-03   -0.11969E-03  4877   0.317E-02    0.651E-02
RMM:   5    -0.413188617978E+03    0.21695E-03   -0.11761E-04  4656   0.121E-02    0.200E-02
RMM:   6    -0.413188604927E+03    0.13051E-04   -0.61905E-05  5211   0.859E-03    0.139E-02
RMM:   7    -0.413188591534E+03    0.13393E-04   -0.17782E-05  3709   0.535E-03    0.403E-03
RMM:   8    -0.413188584295E+03    0.72384E-05   -0.25734E-06  2535   0.258E-03    0.227E-03
RMM:   9    -0.413188580817E+03    0.34783E-05   -0.56144E-07  2239   0.141E-03    0.126E-03
RMM:  10    -0.413188574762E+03    0.60550E-05   -0.33017E-07  1806   0.958E-04    0.523E-04
RMM:  11    -0.413188569387E+03    0.53756E-05   -0.17702E-07  1463   0.749E-04    0.219E-04
RMM:  12    -0.413188565424E+03    0.39626E-05   -0.89164E-08  1176   0.641E-04    0.145E-04
RMM:  13    -0.413188559722E+03    0.57020E-05   -0.87643E-08  1189   0.638E-04    0.774E-05
RMM:  14    -0.413188556255E+03    0.34674E-05   -0.46003E-08   892   0.558E-04    0.721E-05
RMM:  15    -0.413188553482E+03    0.27731E-05   -0.37454E-08   880   0.541E-04    0.508E-05
RMM:  16    -0.413188551447E+03    0.20345E-05   -0.24680E-08   696   0.508E-04    0.277E-05
RMM:  17    -0.413188551182E+03    0.26528E-06   -0.82778E-09   489   0.472E-04
   32 T=    66. E= -.41286676E+03 F= -.41318855E+03 E0= -.41316710E+03  EK= 0.32179E+00 SP= 0.00E+00 SK= 0.00E+00
       N       E                     dE             d eps       ncg     rms          rms(c)
RMM:   1    -0.413191888304E+03   -0.33369E-02   -0.12054E+01  4283   0.946E-01    0.925E-01
RMM:   2    -0.413191940082E+03   -0.51778E-04   -0.15755E-01  4271   0.131E-01    0.651E-01
RMM:   3    -0.413190523201E+03    0.14169E-02   -0.63323E-03  4389   0.403E-02    0.184E-01
RMM:   4    -0.413194021101E+03   -0.34979E-02   -0.42642E-03  5131   0.578E-02    0.253E-01
RMM:   5    -0.413190457639E+03    0.35635E-02   -0.17411E-03  4805   0.415E-02    0.205E-02
RMM:   6    -0.413190444815E+03    0.12824E-04   -0.30687E-04  5703   0.176E-02    0.140E-02
RMM:   7    -0.413190437699E+03    0.71154E-05   -0.46510E-05  4856   0.686E-03    0.674E-03
RMM:   8    -0.413190429648E+03    0.80508E-05   -0.68282E-06  3119   0.327E-03    0.331E-03
RMM:   9    -0.413190424891E+03    0.47577E-05   -0.11288E-06  2511   0.183E-03    0.178E-03
RMM:  10    -0.413190418948E+03    0.59424E-05   -0.57522E-07  2397   0.123E-03    0.995E-04
RMM:  11    -0.413190413837E+03    0.51110E-05   -0.34288E-07  2092   0.963E-04    0.433E-04
RMM:  12    -0.413190408970E+03    0.48673E-05   -0.20775E-07  1648   0.805E-04    0.166E-04
RMM:  13    -0.413190406406E+03    0.25640E-05   -0.10911E-07  1172   0.674E-04    0.111E-04
RMM:  14    -0.413190403140E+03    0.32660E-05   -0.82145E-08  1145   0.647E-04    0.622E-05
RMM:  15    -0.413190398397E+03    0.47428E-05   -0.88373E-08  1379   0.664E-04    0.610E-05
RMM:  16    -0.413190397531E+03    0.86667E-06   -0.35393E-08   813   0.554E-04
   33 T=    66. E= -.41286648E+03 F= -.41319040E+03 E0= -.41316900E+03  EK= 0.32392E+00 SP= 0.00E+00 SK= 0.00E+00
       N       E                     dE             d eps       ncg     rms          rms(c)
RMM:   1    -0.413184435353E+03    0.59630E-02   -0.12085E+01  4290   0.922E-01    0.916E-01
RMM:   2    -0.413194581195E+03   -0.10146E-01   -0.15731E-01  4260   0.126E-01    0.664E-01
RMM:   3    -0.413193123063E+03    0.14581E-02   -0.62586E-03  4534   0.445E-02    0.180E-01
RMM:   4    -0.413205453517E+03   -0.12330E-01   -0.12563E-02  5158   0.971E-02    0.467E-01
RMM:   5    -0.413193065589E+03    0.12388E-01   -0.60934E-03  4811   0.766E-02    0.247E-02
RMM:   6    -0.413193057407E+03    0.81821E-05   -0.96067E-04  5835   0.301E-02    0.142E-02
RMM:   7    -0.413193061302E+03   -0.38951E-05   -0.11245E-04  5460   0.978E-03    0.100E-02
RMM:   8    -0.413193056099E+03    0.52026E-05   -0.14917E-05  3770   0.410E-03    0.567E-03
RMM:   9    -0.413193052614E+03    0.34851E-05   -0.30495E-06  2688   0.254E-03    0.326E-03
RMM:  10    -0.413193048714E+03    0.39001E-05   -0.10682E-06  2503   0.168E-03    0.168E-03
RMM:  11    -0.413193045273E+03    0.34406E-05   -0.68733E-07  2459   0.130E-03    0.865E-04
RMM:  12    -0.413193042036E+03    0.32377E-05   -0.40311E-07  2186   0.103E-03    0.323E-04
RMM:  13    -0.413193040805E+03    0.12312E-05   -0.17538E-07  1439   0.749E-04    0.183E-04
RMM:  14    -0.413193039026E+03    0.17788E-05   -0.11416E-07  1175   0.676E-04    0.113E-04
RMM:  15    -0.413193036897E+03    0.21285E-05   -0.89407E-08  1141   0.654E-04    0.584E-05
RMM:  16    -0.413193036254E+03    0.64295E-06   -0.49799E-08   912   0.601E-04
   34 T=    66. E= -.41286654E+03 F= -.41319304E+03 E0= -.41317168E+03  EK= 0.32650E+00 SP= 0.00E+00 SK= 0.00E+00
       N       E                     dE             d eps       ncg     rms          rms(c)
RMM:   1    -0.413186428798E+03    0.66081E-02   -0.12211E+01  4298   0.943E-01    0.942E-01
RMM:   2    -0.413197071955E+03   -0.10643E-01   -0.15898E-01  4259   0.134E-01    0.664E-01
RMM:   3    -0.413195880625E+03    0.11913E-02   -0.65109E-03  4465   0.437E-02    0.185E-01
RMM:   4    -0.413201967055E+03   -0.60864E-02   -0.68001E-03  5151   0.711E-02    0.334E-01
RMM:   5    -0.413195687463E+03    0.62796E-02   -0.31596E-03  4808   0.551E-02    0.225E-02
RMM:   6    -0.413195674053E+03    0.13410E-04   -0.52235E-04  5755   0.224E-02    0.144E-02
RMM:   7    -0.413195669942E+03    0.41109E-05   -0.70295E-05  5128   0.800E-03    0.803E-03
RMM:   8    -0.413195661708E+03    0.82339E-05   -0.94004E-06  3301   0.357E-03    0.399E-03
RMM:   9    -0.413195655890E+03    0.58179E-05   -0.17073E-06  2552   0.208E-03    0.220E-03
RMM:  10    -0.413195649390E+03    0.64994E-05   -0.73228E-07  2455   0.138E-03    0.122E-03
RMM:  11    -0.413195643167E+03    0.62237E-05   -0.45255E-07  2279   0.109E-03    0.530E-04
RMM:  12    -0.413195637828E+03    0.53393E-05   -0.26304E-07  1861   0.873E-04    0.189E-04
RMM:  13    -0.413195635067E+03    0.27601E-05   -0.13510E-07  1281   0.703E-04    0.131E-04
RMM:  14    -0.413195631220E+03    0.38471E-05   -0.99705E-08  1200   0.668E-04    0.791E-05
RMM:  15    -0.413195626550E+03    0.46702E-05   -0.90182E-08  1313   0.665E-04    0.696E-05
RMM:  16    -0.413195625247E+03    0.13034E-05   -0.46030E-08   938   0.586E-04    0.514E-05
RMM:  17    -0.413195621549E+03    0.36979E-05   -0.54780E-08  1192   0.612E-04    0.265E-05
RMM:  18    -0.413195621117E+03    0.43163E-06   -0.22006E-08   743   0.528E-04
   35 T=    67. E= -.41286641E+03 F= -.41319562E+03 E0= -.41317432E+03  EK= 0.32921E+00 SP= 0.00E+00 SK= 0.00E+00
       N       E                     dE             d eps       ncg     rms          rms(c)
RMM:   1    -0.413189223856E+03    0.63977E-02   -0.12258E+01  4298   0.966E-01    0.942E-01
RMM:   2    -0.413199117168E+03   -0.98933E-02   -0.15759E-01  4257   0.119E-01    0.657E-01
RMM:   3    -0.413198205588E+03    0.91158E-03   -0.67722E-03  4800   0.440E-02    0.196E-01
RMM:   4    -0.413228279600E+03   -0.30074E-01   -0.30271E-02  5157   0.146E-01    0.723E-01
RMM:   5    -0.413197879279E+03    0.30400E-01   -0.15317E-02  4804   0.121E-01    0.365E-02
RMM:   6    -0.413197920754E+03   -0.41474E-04   -0.23839E-03  5856   0.460E-02    0.184E-02
RMM:   7    -0.413197931980E+03   -0.11226E-04   -0.24859E-04  5762   0.134E-02    0.129E-02
RMM:   8    -0.413197925344E+03    0.66361E-05   -0.32509E-05  4399   0.520E-03    0.881E-03
RMM:   9    -0.413197919377E+03    0.59664E-05   -0.77788E-06  3262   0.331E-03    0.574E-03
RMM:  10    -0.413197909609E+03    0.97678E-05   -0.21791E-06  2552   0.246E-03    0.263E-03
RMM:  11    -0.413197902134E+03    0.74755E-05   -0.14019E-06  2511   0.187E-03    0.143E-03
RMM:  12    -0.413197895056E+03    0.70777E-05   -0.65155E-07  2441   0.142E-03    0.537E-04
RMM:  13    -0.413197892625E+03    0.24313E-05   -0.27947E-07  2100   0.947E-04    0.367E-04
RMM:  14    -0.413197890313E+03    0.23120E-05   -0.13087E-07  1460   0.720E-04    0.214E-04
RMM:  15    -0.413197884262E+03    0.60509E-05   -0.11779E-07  1609   0.723E-04    0.202E-04
RMM:  16    -0.413197883270E+03    0.99169E-06   -0.42977E-08   913   0.577E-04
   36 T=    68. E= -.41286624E+03 F= -.41319788E+03 E0= -.41317662E+03  EK= 0.33164E+00 SP= 0.00E+00 SK= 0.00E+00
       N       E                     dE             d eps       ncg     rms          rms(c)
RMM:   1    -0.413190682732E+03    0.72015E-02   -0.12317E+01  4302   0.990E-01    0.925E-01
RMM:   2    -0.413202534703E+03   -0.11852E-01   -0.16428E-01  4257   0.135E-01    0.669E-01
RMM:   3    -0.413201193314E+03    0.13414E-02   -0.65182E-03  4787   0.502E-02    0.202E-01
RMM:   4    -0.413239200955E+03   -0.38008E-01   -0.38634E-02  5163   0.165E-01    0.811E-01
RMM:   5    -0.413200586162E+03    0.38615E-01   -0.19372E-02  4797   0.136E-01    0.392E-02
RMM:   6    -0.413200678873E+03   -0.92711E-04   -0.30392E-03  5869   0.515E-02    0.184E-02
RMM:   7    -0.413200695041E+03   -0.16168E-04   -0.29870E-04  5728   0.145E-02    0.128E-02
RMM:   8    -0.413200690590E+03    0.44512E-05   -0.35057E-05  4174   0.509E-03    0.877E-03
RMM:   9    -0.413200687511E+03    0.30790E-05   -0.10311E-05  3580   0.352E-03    0.614E-03
RMM:  10    -0.413200680602E+03    0.69086E-05   -0.27563E-06  2602   0.264E-03    0.285E-03
RMM:  11    -0.413200675353E+03    0.52493E-05   -0.17900E-06  2532   0.206E-03    0.166E-03
RMM:  12    -0.413200670853E+03    0.45006E-05   -0.76046E-07  2466   0.152E-03    0.648E-04
RMM:  13    -0.413200669340E+03    0.15121E-05   -0.31081E-07  2176   0.990E-04    0.452E-04
RMM:  14    -0.413200667730E+03    0.16102E-05   -0.14482E-07  1517   0.738E-04    0.237E-04
RMM:  15    -0.413200662969E+03    0.47616E-05   -0.16791E-07  1827   0.773E-04    0.316E-04
RMM:  16    -0.413200662565E+03    0.40355E-06   -0.48818E-08   967   0.576E-04
   37 T=    68. E= -.41286633E+03 F= -.41320066E+03 E0= -.41317944E+03  EK= 0.33433E+00 SP= 0.00E+00 SK= 0.00E+00
       N       E                     dE             d eps       ncg     rms          rms(c)
RMM:   1    -0.413196715932E+03    0.39470E-02   -0.12515E+01  4306   0.105E+00    0.946E-01
RMM:   2    -0.413205405690E+03   -0.86898E-02   -0.16362E-01  4254   0.130E-01    0.673E-01
RMM:   3    -0.413203801398E+03    0.16043E-02   -0.67513E-03  4701   0.495E-02    0.198E-01
RMM:   4    -0.413231803231E+03   -0.28002E-01   -0.28135E-02  5156   0.141E-01    0.699E-01
RMM:   5    -0.413203432612E+03    0.28371E-01   -0.14338E-02  4809   0.116E-01    0.347E-02
RMM:   6    -0.413203478045E+03   -0.45433E-04   -0.22226E-03  5849   0.443E-02    0.174E-02
RMM:   7    -0.413203490284E+03   -0.12239E-04   -0.23838E-04  5779   0.131E-02    0.126E-02
RMM:   8    -0.413203483999E+03    0.62844E-05   -0.31135E-05  4408   0.513E-03    0.843E-03
RMM:   9    -0.413203478950E+03    0.50493E-05   -0.66988E-06  3129   0.310E-03    0.531E-03
RMM:  10    -0.413203471111E+03    0.78389E-05   -0.19684E-06  2539   0.225E-03    0.248E-03
RMM:  11    -0.413203464977E+03    0.61344E-05   -0.12531E-06  2500   0.176E-03    0.131E-03
RMM:  12    -0.413203459430E+03    0.55474E-05   -0.58805E-07  2415   0.133E-03    0.499E-04
RMM:  13    -0.413203457428E+03    0.20012E-05   -0.26015E-07  2010   0.908E-04    0.323E-04
RMM:  14    -0.413203455193E+03    0.22355E-05   -0.12847E-07  1427   0.714E-04    0.183E-04
RMM:  15    -0.413203450147E+03    0.50454E-05   -0.10688E-07  1463   0.701E-04    0.152E-04
RMM:  16    -0.413203449051E+03    0.10961E-05   -0.44931E-08   928   0.590E-04    0.888E-05
RMM:  17    -0.413203445285E+03    0.37662E-05   -0.51371E-08  1133   0.616E-04    0.767E-05
RMM:  18    -0.413203443054E+03    0.22313E-05   -0.33455E-08   981   0.577E-04    0.270E-05
RMM:  19    -0.413203442232E+03    0.82231E-06   -0.20261E-08   814   0.546E-04
   38 T=    69. E= -.41286666E+03 F= -.41320344E+03 E0= -.41318227E+03  EK= 0.33678E+00 SP= 0.00E+00 SK= 0.00E+00
       N       E                     dE             d eps       ncg     rms          rms(c)
RMM:   1    -0.413201017356E+03    0.24257E-02   -0.12589E+01  4303   0.109E+00    0.959E-01
RMM:   2    -0.413206862714E+03   -0.58454E-02   -0.16750E-01  4267   0.127E-01    0.667E-01
RMM:   3    -0.413206361529E+03    0.50119E-03   -0.74398E-03  4972   0.550E-02    0.234E-01
RMM:   4    -0.413257855095E+03   -0.51494E-01   -0.55264E-02  5129   0.195E-01    0.943E-01
RMM:   5    -0.413205161800E+03    0.52693E-01   -0.26003E-02  4787   0.159E-01    0.486E-02
RMM:   6    -0.413205325637E+03   -0.16384E-03   -0.42003E-03  5840   0.601E-02    0.217E-02
RMM:   7    -0.413205345306E+03   -0.19669E-04   -0.42335E-04  5850   0.172E-02    0.153E-02
RMM:   8    -0.413205343568E+03    0.17384E-05   -0.59528E-05  4830   0.640E-03    0.115E-02
RMM:   9    -0.413205333715E+03    0.98529E-05   -0.11196E-05  3583   0.368E-03    0.713E-03
RMM:  10    -0.413205322907E+03    0.10808E-04   -0.36129E-06  2651   0.292E-03    0.319E-03
RMM:  11    -0.413205315384E+03    0.75225E-05   -0.16914E-06  2507   0.211E-03    0.181E-03
RMM:  12    -0.413205307394E+03    0.79899E-05   -0.88760E-07  2467   0.164E-03    0.642E-04
RMM:  13    -0.413205303774E+03    0.36205E-05   -0.37150E-07  2278   0.109E-03    0.438E-04
RMM:  14    -0.413205300943E+03    0.28306E-05   -0.18307E-07  1771   0.795E-04    0.295E-04
RMM:  15    -0.413205292704E+03    0.82393E-05   -0.16597E-07  1883   0.785E-04    0.311E-04
RMM:  16    -0.413205292299E+03    0.40478E-06   -0.57684E-08  1020   0.578E-04
   39 T=    69. E= -.41286621E+03 F= -.41320529E+03 E0= -.41318416E+03  EK= 0.33908E+00 SP= 0.00E+00 SK= 0.00E+00
       N       E                     dE             d eps       ncg     rms          rms(c)
RMM:   1    -0.413203016706E+03    0.22760E-02   -0.12602E+01  4309   0.114E+00    0.936E-01
RMM:   2    -0.413210490466E+03   -0.74738E-02   -0.16866E-01  4269   0.134E-01    0.673E-01
RMM:   3    -0.413209808394E+03    0.68207E-03   -0.71370E-03  5001   0.546E-02    0.239E-01
RMM:   4    -0.413264296046E+03   -0.54488E-01   -0.59368E-02  5129   0.202E-01    0.968E-01
RMM:   5    -0.413208443359E+03    0.55853E-01   -0.27451E-02  4785   0.163E-01    0.499E-02
RMM:   6    -0.413208618993E+03   -0.17563E-03   -0.44199E-03  5822   0.617E-02    0.210E-02
RMM:   7    -0.413208643104E+03   -0.24111E-04   -0.45466E-04  5893   0.178E-02    0.153E-02
RMM:   8    -0.413208643141E+03   -0.37046E-07   -0.63871E-05  4896   0.662E-03    0.116E-02
RMM:   9    -0.413208634724E+03    0.84169E-05   -0.11149E-05  3549   0.368E-03    0.693E-03
RMM:  10    -0.413208627022E+03    0.77029E-05   -0.37479E-06  2663   0.289E-03    0.311E-03
RMM:  11    -0.413208621778E+03    0.52436E-05   -0.17336E-06  2516   0.210E-03    0.173E-03
RMM:  12    -0.413208616247E+03    0.55309E-05   -0.88672E-07  2466   0.162E-03    0.637E-04
RMM:  13    -0.413208613762E+03    0.24853E-05   -0.37883E-07  2262   0.109E-03    0.427E-04
RMM:  14    -0.413208611401E+03    0.23612E-05   -0.19474E-07  1781   0.805E-04    0.280E-04
RMM:  15    -0.413208605997E+03    0.54040E-05   -0.15286E-07  1651   0.754E-04    0.219E-04
RMM:  16    -0.413208605482E+03    0.51478E-06   -0.62534E-08  1031   0.597E-04
   40 T=    70. E= -.41286686E+03 F= -.41320861E+03 E0= -.41318751E+03  EK= 0.34174E+00 SP= 0.00E+00 SK= 0.00E+00
       N       E                     dE             d eps       ncg     rms          rms(c)
RMM:   1    -0.413205569693E+03    0.30363E-02   -0.12775E+01  4302   0.119E+00    0.948E-01
RMM:   2    -0.413211709722E+03   -0.61400E-02   -0.17539E-01  4271   0.140E-01    0.683E-01
RMM:   3    -0.413211466258E+03    0.24346E-03   -0.75179E-03  5043   0.565E-02    0.259E-01
RMM:   4    -0.413267662318E+03   -0.56196E-01   -0.63159E-02  5128   0.208E-01    0.986E-01
RMM:   5    -0.413209724419E+03    0.57938E-01   -0.28245E-02  4773   0.167E-01    0.518E-02
RMM:   6    -0.413209902609E+03   -0.17819E-03   -0.44810E-03  5811   0.627E-02    0.209E-02
RMM:   7    -0.413209927384E+03   -0.24775E-04   -0.47669E-04  5925   0.183E-02    0.159E-02
RMM:   8    -0.413209927537E+03   -0.15330E-06   -0.68565E-05  5003   0.690E-03    0.116E-02
RMM:   9    -0.413209919031E+03    0.85060E-05   -0.10721E-05  3455   0.373E-03    0.659E-03
RMM:  10    -0.413209911553E+03    0.74784E-05   -0.40556E-06  2702   0.297E-03    0.293E-03
RMM:  11    -0.413209906300E+03    0.52526E-05   -0.17005E-06  2518   0.208E-03    0.152E-03
RMM:  12    -0.413209901164E+03    0.51360E-05   -0.83037E-07  2463   0.155E-03    0.604E-04
RMM:  13    -0.413209898634E+03    0.25304E-05   -0.35932E-07  2226   0.105E-03    0.403E-04
RMM:  14    -0.413209895596E+03    0.30372E-05   -0.19647E-07  1719   0.804E-04    0.269E-04
RMM:  15    -0.413209891286E+03    0.43108E-05   -0.13560E-07  1451   0.717E-04    0.156E-04
RMM:  16    -0.413209890123E+03    0.11629E-05   -0.68525E-08  1051   0.613E-04    0.755E-05
RMM:  17    -0.413209887995E+03    0.21283E-05   -0.55171E-08  1035   0.608E-04    0.448E-05
RMM:  18    -0.413209884447E+03    0.35480E-05   -0.62433E-08  1228   0.633E-04    0.433E-05
RMM:  19    -0.413209883862E+03    0.58459E-06   -0.25990E-08   824   0.559E-04
   41 T=    70. E= -.41286622E+03 F= -.41320988E+03 E0= -.41318882E+03  EK= 0.34366E+00 SP= 0.00E+00 SK= 0.00E+00
       N       E                     dE             d eps       ncg     rms          rms(c)
RMM:   1    -0.413214755008E+03   -0.48706E-02   -0.12914E+01  4308   0.127E+00    0.973E-01
RMM:   2    -0.413213644829E+03    0.11102E-02   -0.17877E-01  4293   0.147E-01    0.676E-01
RMM:   3    -0.413216411428E+03   -0.27666E-02   -0.99900E-03  5123   0.731E-02    0.336E-01
RMM:   4    -0.413250060567E+03   -0.33649E-01   -0.49841E-02  5094   0.187E-01    0.809E-01
RMM:   5    -0.413212513815E+03    0.37547E-01   -0.16907E-02  4726   0.135E-01    0.497E-02
RMM:   6    -0.413212556036E+03   -0.42221E-04   -0.27573E-03  5750   0.499E-02    0.187E-02
RMM:   7    -0.413212568486E+03   -0.12450E-04   -0.32469E-04  5901   0.156E-02    0.144E-02
RMM:   8    -0.413212565704E+03    0.27818E-05   -0.50229E-05  4859   0.620E-03    0.946E-03
RMM:   9    -0.413212553594E+03    0.12110E-04   -0.81356E-06  3201   0.381E-03    0.441E-03
RMM:  10    -0.413212544586E+03    0.90083E-05   -0.26754E-06  2562   0.248E-03    0.227E-03
RMM:  11    -0.413212537104E+03    0.74819E-05   -0.10155E-06  2514   0.162E-03    0.987E-04
RMM:  12    -0.413212531707E+03    0.53974E-05   -0.41345E-07  2304   0.111E-03    0.496E-04
RMM:  13    -0.413212526393E+03    0.53142E-05   -0.24793E-07  1670   0.851E-04    0.244E-04
RMM:  14    -0.413212522719E+03    0.36736E-05   -0.15345E-07  1353   0.732E-04    0.147E-04
RMM:  15    -0.413212517500E+03    0.52194E-05   -0.12422E-07  1379   0.709E-04    0.878E-05
RMM:  16    -0.413212513275E+03    0.42242E-05   -0.94814E-08  1355   0.664E-04    0.535E-05
RMM:  17    -0.413212509221E+03    0.40543E-05   -0.74734E-08  1290   0.629E-04    0.466E-05
RMM:  18    -0.413212507584E+03    0.16375E-05   -0.45047E-08   978   0.557E-04    0.306E-05
RMM:  19    -0.413212506849E+03    0.73453E-06   -0.29873E-08   833   0.532E-04
   42 T=    70. E= -.41286673E+03 F= -.41321251E+03 E0= -.41319148E+03  EK= 0.34578E+00 SP= 0.00E+00 SK= 0.00E+00
       N       E                     dE             d eps       ncg     rms          rms(c)
RMM:   1    -0.413214944996E+03   -0.24374E-02   -0.12870E+01  4309   0.134E+00    0.948E-01
RMM:   2    -0.413215553789E+03   -0.60879E-03   -0.17693E-01  4301   0.156E-01    0.676E-01
RMM:   3    -0.413219289418E+03   -0.37356E-02   -0.10614E-02  5104   0.805E-02    0.364E-01
RMM:   4    -0.413248625477E+03   -0.29336E-01   -0.48280E-02  5066   0.185E-01    0.774E-01
RMM:   5    -0.413214439336E+03    0.34186E-01   -0.15043E-02  4709   0.130E-01    0.484E-02
RMM:   6    -0.413214464832E+03   -0.25496E-04   -0.24764E-03  5736   0.474E-02    0.177E-02
RMM:   7    -0.413214474306E+03   -0.94737E-05   -0.28645E-04  5898   0.150E-02    0.139E-02
RMM:   8    -0.413214471960E+03    0.23463E-05   -0.45696E-05  4805   0.600E-03    0.886E-03
RMM:   9    -0.413214461866E+03    0.10094E-04   -0.80043E-06  3189   0.390E-03    0.420E-03
RMM:  10    -0.413214454987E+03    0.68788E-05   -0.25265E-06  2566   0.245E-03    0.230E-03
RMM:  11    -0.413214449550E+03    0.54368E-05   -0.10243E-06  2506   0.160E-03    0.102E-03
RMM:  12    -0.413214445775E+03    0.37746E-05   -0.43321E-07  2303   0.111E-03    0.503E-04
RMM:  13    -0.413214441411E+03    0.43647E-05   -0.29120E-07  1723   0.882E-04    0.263E-04
RMM:  14    -0.413214439094E+03    0.23166E-05   -0.17040E-07  1333   0.736E-04    0.148E-04
RMM:  15    -0.413214435408E+03    0.36866E-05   -0.13210E-07  1273   0.701E-04    0.806E-05
RMM:  16    -0.413214431917E+03    0.34901E-05   -0.10250E-07  1256   0.674E-04    0.491E-05
RMM:  17    -0.413214429006E+03    0.29118E-05   -0.81542E-08  1304   0.642E-04    0.438E-05
RMM:  18    -0.413214427022E+03    0.19836E-05   -0.55332E-08  1065   0.578E-04    0.338E-05
RMM:  19    -0.413214426178E+03    0.84431E-06   -0.33370E-08   832   0.533E-04
   43 T=    71. E= -.41286680E+03 F= -.41321443E+03 E0= -.41319343E+03  EK= 0.34763E+00 SP= 0.00E+00 SK= 0.00E+00
       N       E                     dE             d eps       ncg     rms          rms(c)
RMM:   1    -0.413242681315E+03   -0.28254E-01   -0.13269E+01  4310   0.153E+00    0.950E-01
RMM:   2    -0.413216692204E+03    0.25989E-01   -0.20240E-01  4302   0.177E-01    0.693E-01
RMM:   3    -0.413221898266E+03   -0.52061E-02   -0.11857E-02  5096   0.904E-02    0.415E-01
RMM:   4    -0.413247552277E+03   -0.25654E-01   -0.49008E-02  5053   0.188E-01    0.756E-01
RMM:   5    -0.413215421458E+03    0.32131E-01   -0.13973E-02  4688   0.129E-01    0.510E-02
RMM:   6    -0.413215423273E+03   -0.18144E-05   -0.23554E-03  5686   0.461E-02    0.182E-02
RMM:   7    -0.413215432665E+03   -0.93927E-05   -0.27744E-04  5916   0.150E-02    0.144E-02
RMM:   8    -0.413215430074E+03    0.25917E-05   -0.42903E-05  4805   0.596E-03    0.897E-03
RMM:   9    -0.413215421120E+03    0.89533E-05   -0.93002E-06  3392   0.430E-03    0.444E-03
RMM:  10    -0.413215415479E+03    0.56411E-05   -0.27547E-06  2592   0.257E-03    0.263E-03
RMM:  11    -0.413215411293E+03    0.41864E-05   -0.12786E-06  2528   0.177E-03    0.113E-03
RMM:  12    -0.413215408646E+03    0.26464E-05   -0.52474E-07  2442   0.122E-03    0.608E-04
RMM:  13    -0.413215404967E+03    0.36799E-05   -0.37453E-07  1880   0.980E-04    0.373E-04
RMM:  14    -0.413215403237E+03    0.17297E-05   -0.20181E-07  1405   0.781E-04    0.198E-04
RMM:  15    -0.413215400855E+03    0.23821E-05   -0.14908E-07  1308   0.723E-04    0.112E-04
RMM:  16    -0.413215397840E+03    0.30145E-05   -0.12237E-07  1320   0.695E-04    0.587E-05
RMM:  17    -0.413215396410E+03    0.14301E-05   -0.79458E-08  1152   0.631E-04    0.471E-05
RMM:  18    -0.413215394230E+03    0.21802E-05   -0.62695E-08  1070   0.600E-04    0.318E-05
RMM:  19    -0.413215393172E+03    0.10580E-05   -0.40815E-08   877   0.559E-04    0.226E-05
RMM:  20    -0.413215392715E+03    0.45692E-06   -0.26588E-08   764   0.538E-04
   44 T=    71. E= -.41286649E+03 F= -.41321539E+03 E0= -.41319442E+03  EK= 0.34890E+00 SP= 0.00E+00 SK= 0.00E+00
       N       E                     dE             d eps       ncg     rms          rms(c)
RMM:   1    -0.413237271312E+03   -0.21878E-01   -0.13274E+01  4305   0.158E+00    0.979E-01
RMM:   2    -0.413217377749E+03    0.19894E-01   -0.18907E-01  4374   0.182E-01    0.684E-01
RMM:   3    -0.413230168293E+03   -0.12791E-01   -0.18645E-02  5133   0.118E-01    0.536E-01
RMM:   4    -0.413232443206E+03   -0.22749E-02   -0.37585E-02  5015   0.169E-01    0.544E-01
RMM:   5    -0.413217138806E+03    0.15304E-01   -0.59482E-03  4563   0.951E-02    0.431E-02
RMM:   6    -0.413217090858E+03    0.47948E-04   -0.10427E-03  5323   0.318E-02    0.167E-02
RMM:   7    -0.413217090560E+03    0.29823E-06   -0.12056E-04  5681   0.105E-02    0.126E-02
RMM:   8    -0.413217085952E+03    0.46079E-05   -0.28317E-05  4771   0.527E-03    0.795E-03
RMM:   9    -0.413217070328E+03    0.15623E-04   -0.78546E-06  3271   0.422E-03    0.397E-03
RMM:  10    -0.413217064465E+03    0.58633E-05   -0.14926E-06  2535   0.208E-03    0.182E-03
RMM:  11    -0.413217058462E+03    0.60028E-05   -0.87760E-07  2485   0.149E-03    0.898E-04
RMM:  12    -0.413217053249E+03    0.52134E-05   -0.41166E-07  2360   0.110E-03    0.478E-04
RMM:  13    -0.413217048223E+03    0.50254E-05   -0.23428E-07  1562   0.811E-04    0.251E-04
RMM:  14    -0.413217045392E+03    0.28317E-05   -0.12998E-07  1183   0.688E-04    0.161E-04
RMM:  15    -0.413217040121E+03    0.52713E-05   -0.11284E-07  1270   0.686E-04    0.840E-05
RMM:  16    -0.413217036253E+03    0.38673E-05   -0.82864E-08  1201   0.643E-04    0.903E-05
RMM:  17    -0.413217033826E+03    0.24270E-05   -0.52276E-08   986   0.579E-04    0.621E-05
RMM:  18    -0.413217030814E+03    0.30117E-05   -0.50719E-08  1047   0.578E-04    0.352E-05
RMM:  19    -0.413217030206E+03    0.60823E-06   -0.24922E-08   750   0.522E-04
   45 T=    71. E= -.41286685E+03 F= -.41321703E+03 E0= -.41319608E+03  EK= 0.35018E+00 SP= 0.00E+00 SK= 0.00E+00
       N       E                     dE             d eps       ncg     rms          rms(c)
RMM:   1    -0.413242002641E+03   -0.24972E-01   -0.13240E+01  4306   0.168E+00    0.961E-01
RMM:   2    -0.413217382344E+03    0.24620E-01   -0.18672E-01  4390   0.195E-01    0.680E-01
RMM:   3    -0.413233067243E+03   -0.15685E-01   -0.21128E-02  5126   0.128E-01    0.581E-01
RMM:   4    -0.413230001998E+03    0.30652E-02   -0.36949E-02  4992   0.169E-01    0.502E-01
RMM:   5    -0.413217162121E+03    0.12840E-01   -0.50809E-03  4549   0.912E-02    0.435E-02
RMM:   6    -0.413217090129E+03    0.71992E-04   -0.77852E-04  5070   0.289E-02    0.163E-02
RMM:   7    -0.413217089774E+03    0.35575E-06   -0.98774E-05  5671   0.942E-03    0.108E-02
RMM:   8    -0.413217085233E+03    0.45410E-05   -0.27713E-05  4863   0.546E-03    0.740E-03
RMM:   9    -0.413217072576E+03    0.12656E-04   -0.12625E-05  3972   0.446E-03    0.450E-03
RMM:  10    -0.413217068011E+03    0.45657E-05   -0.17691E-06  2503   0.223E-03    0.193E-03
RMM:  11    -0.413217062927E+03    0.50837E-05   -0.13776E-06  2477   0.182E-03    0.109E-03
RMM:  12    -0.413217058157E+03    0.47704E-05   -0.49869E-07  2361   0.129E-03    0.641E-04
RMM:  13    -0.413217054327E+03    0.38294E-05   -0.22211E-07  1740   0.846E-04    0.332E-04
RMM:  14    -0.413217050571E+03    0.37564E-05   -0.12382E-07  1209   0.683E-04    0.172E-04
RMM:  15    -0.413217044976E+03    0.55949E-05   -0.11725E-07  1327   0.686E-04    0.115E-04
RMM:  16    -0.413217042368E+03    0.26077E-05   -0.61045E-08   974   0.578E-04    0.110E-04
RMM:  17    -0.413217039136E+03    0.32319E-05   -0.49855E-08   931   0.565E-04    0.503E-05
RMM:  18    -0.413217036723E+03    0.24137E-05   -0.41777E-08   917   0.551E-04    0.387E-05
RMM:  19    -0.413217036104E+03    0.61926E-06   -0.18734E-08   638   0.504E-04
   46 T=    71. E= -.41286655E+03 F= -.41321704E+03 E0= -.41319611E+03  EK= 0.35049E+00 SP= 0.00E+00 SK= 0.00E+00
       N       E                     dE             d eps       ncg     rms          rms(c)
RMM:   1    -0.413262002628E+03   -0.44966E-01   -0.13502E+01  4308   0.183E+00    0.947E-01
RMM:   2    -0.413217328854E+03    0.44674E-01   -0.22586E-01  4414   0.215E-01    0.698E-01
RMM:   3    -0.413232454400E+03   -0.15126E-01   -0.20656E-02  5136   0.128E-01    0.605E-01
RMM:   4    -0.413230864089E+03    0.15903E-02   -0.39110E-02  5004   0.174E-01    0.544E-01
RMM:   5    -0.413216497815E+03    0.14366E-01   -0.64180E-03  4548   0.100E-01    0.494E-02
RMM:   6    -0.413216408580E+03    0.89235E-04   -0.93646E-04  5114   0.320E-02    0.184E-02
RMM:   7    -0.413216408434E+03    0.14612E-06   -0.13037E-04  5834   0.108E-02    0.129E-02
RMM:   8    -0.413216405659E+03    0.27757E-05   -0.32807E-05  4967   0.552E-03    0.889E-03
RMM:   9    -0.413216393136E+03    0.12522E-04   -0.13721E-05  4091   0.495E-03    0.517E-03
RMM:  10    -0.413216388585E+03    0.45508E-05   -0.21913E-06  2538   0.235E-03    0.243E-03
RMM:  11    -0.413216385022E+03    0.35635E-05   -0.19929E-06  2559   0.209E-03    0.137E-03
RMM:  12    -0.413216382167E+03    0.28550E-05   -0.56053E-07  2408   0.141E-03    0.766E-04
RMM:  13    -0.413216379503E+03    0.26642E-05   -0.27085E-07  2003   0.908E-04    0.394E-04
RMM:  14    -0.413216376831E+03    0.26719E-05   -0.15323E-07  1262   0.699E-04    0.218E-04
RMM:  15    -0.413216374266E+03    0.25648E-05   -0.10876E-07  1140   0.650E-04    0.995E-05
RMM:  16    -0.413216371891E+03    0.23748E-05   -0.88138E-08  1149   0.633E-04    0.915E-05
RMM:  17    -0.413216370303E+03    0.15876E-05   -0.54529E-08   961   0.581E-04    0.845E-05
RMM:  18    -0.413216369008E+03    0.12956E-05   -0.36052E-08   808   0.543E-04    0.430E-05
RMM:  19    -0.413216368588E+03    0.41966E-06   -0.21009E-08   673   0.519E-04
   47 T=    71. E= -.41286651E+03 F= -.41321637E+03 E0= -.41319546E+03  EK= 0.34986E+00 SP= 0.00E+00 SK= 0.00E+00
       N       E                     dE             d eps       ncg     rms          rms(c)
RMM:   1    -0.413266513827E+03   -0.50145E-01   -0.13548E+01  4303   0.196E+00    0.975E-01
RMM:   2    -0.413215038024E+03    0.51476E-01   -0.21413E-01  4494   0.215E-01    0.691E-01
RMM:   3    -0.413240820911E+03   -0.25783E-01   -0.30464E-02  5150   0.157E-01    0.729E-01
RMM:   4    -0.413222710000E+03    0.18111E-01   -0.37710E-02  4951   0.175E-01    0.427E-01
RMM:   5    -0.413214868417E+03    0.78416E-02   -0.47579E-03  4606   0.922E-02    0.586E-02
RMM:   6    -0.413214669039E+03    0.19938E-03   -0.46385E-04  4665   0.290E-02    0.221E-02
RMM:   7    -0.413214669556E+03   -0.51746E-06   -0.11963E-04  5841   0.110E-02    0.146E-02
RMM:   8    -0.413214660414E+03    0.91416E-05   -0.23465E-05  4560   0.517E-03    0.102E-02
RMM:   9    -0.413214644987E+03    0.15428E-04   -0.95809E-06  3433   0.434E-03    0.525E-03
RMM:  10    -0.413214637470E+03    0.75164E-05   -0.29156E-06  2666   0.278E-03    0.240E-03
RMM:  11    -0.413214631646E+03    0.58245E-05   -0.21947E-06  2590   0.227E-03    0.152E-03
RMM:  12    -0.413214626237E+03    0.54082E-05   -0.76284E-07  2442   0.156E-03    0.769E-04
RMM:  13    -0.413214622111E+03    0.41266E-05   -0.35494E-07  2252   0.102E-03    0.435E-04
RMM:  14    -0.413214618113E+03    0.39977E-05   -0.19036E-07  1525   0.746E-04    0.230E-04
RMM:  15    -0.413214612972E+03    0.51410E-05   -0.14535E-07  1404   0.706E-04    0.118E-04
RMM:  16    -0.413214610066E+03    0.29062E-05   -0.87193E-08  1179   0.628E-04    0.103E-04
RMM:  17    -0.413214607419E+03    0.26471E-05   -0.61128E-08  1055   0.596E-04    0.673E-05
RMM:  18    -0.413214605306E+03    0.21125E-05   -0.47515E-08  1005   0.575E-04    0.369E-05
RMM:  19    -0.413214604600E+03    0.70684E-06   -0.24398E-08   781   0.535E-04
   48 T=    71. E= -.41286656E+03 F= -.41321460E+03 E0= -.41319371E+03  EK= 0.34804E+00 SP= 0.00E+00 SK= 0.00E+00
       N       E                     dE             d eps       ncg     rms          rms(c)
RMM:   1    -0.413266839276E+03   -0.52234E-01   -0.13414E+01  4303   0.209E+00    0.965E-01
RMM:   2    -0.413210886741E+03    0.55953E-01   -0.21186E-01  4497   0.229E-01    0.680E-01
RMM:   3    -0.413242962201E+03   -0.32075E-01   -0.36307E-02  5158   0.172E-01    0.802E-01
RMM:   4    -0.413216128257E+03    0.26834E-01   -0.37796E-02  4922   0.178E-01    0.381E-01
RMM:   5    -0.413210959104E+03    0.51692E-02   -0.53800E-03  4905   0.956E-02    0.746E-02
RMM:   6    -0.413210615993E+03    0.34311E-03   -0.61653E-04  4673   0.342E-02    0.270E-02
RMM:   7    -0.413210611755E+03    0.42380E-05   -0.14621E-04  5731   0.129E-02    0.166E-02
RMM:   8    -0.413210601396E+03    0.10359E-04   -0.20210E-05  4291   0.499E-03    0.110E-02
RMM:   9    -0.413210585338E+03    0.16058E-04   -0.10678E-05  3555   0.441E-03    0.507E-03
RMM:  10    -0.413210576147E+03    0.91913E-05   -0.42233E-06  2875   0.314E-03    0.264E-03
RMM:  11    -0.413210568794E+03    0.73527E-05   -0.27664E-06  2701   0.251E-03    0.185E-03
RMM:  12    -0.413210564547E+03    0.42476E-05   -0.70262E-07  2453   0.158E-03    0.887E-04
RMM:  13    -0.413210560648E+03    0.38985E-05   -0.33780E-07  2271   0.101E-03    0.534E-04
RMM:  14    -0.413210555593E+03    0.50550E-05   -0.21891E-07  1720   0.800E-04    0.249E-04
RMM:  15    -0.413210550954E+03    0.46386E-05   -0.15131E-07  1444   0.719E-04    0.171E-04
RMM:  16    -0.413210549034E+03    0.19201E-05   -0.75402E-08  1106   0.619E-04    0.118E-04
[...]
       N       E                     dE             d eps       ncg     rms          rms(c)
RMM:   1    -0.413910657333E+03   -0.67318E-01   -0.22532E+01  4294   0.896E+00    0.985E-01
RMM:   2    -0.413791855453E+03    0.11880E+00   -0.57474E-01  5411   0.896E-01    0.923E-01
RMM:   3    -0.413809025239E+03   -0.17170E-01   -0.10674E-01  5780   0.344E-01    0.102E+00
RMM:   4    -0.413778123451E+03    0.30902E-01   -0.29991E-02  5022   0.210E-01    0.558E-01
RMM:   5    -0.413778168682E+03   -0.45231E-04   -0.42714E-02  4774   0.256E-01    0.310E-01
RMM:   6    -0.413775921858E+03    0.22468E-02   -0.23451E-02  5039   0.184E-01    0.177E-01
RMM:   7    -0.413774922126E+03    0.99973E-03   -0.32350E-03  5377   0.785E-02    0.127E-01
RMM:   8    -0.413774502073E+03    0.42005E-03   -0.14909E-03  4455   0.482E-02    0.470E-02
RMM:   9    -0.413774567511E+03   -0.65437E-04   -0.94069E-04  5110   0.345E-02    0.253E-02
RMM:  10    -0.413774566138E+03    0.13725E-05   -0.91582E-05  5161   0.122E-02    0.132E-02
RMM:  11    -0.413774576223E+03   -0.10085E-04   -0.39705E-05  4640   0.795E-03    0.571E-03
RMM:  12    -0.413774584766E+03   -0.85426E-05   -0.86166E-06  3350   0.368E-03    0.291E-03
RMM:  13    -0.413774589928E+03   -0.51624E-05   -0.27257E-06  2755   0.232E-03    0.185E-03
RMM:  14    -0.413774593422E+03   -0.34941E-05   -0.26264E-06  2738   0.216E-03    0.887E-04
RMM:  15    -0.413774594663E+03   -0.12408E-05   -0.19575E-06  2550   0.175E-03    0.552E-04
RMM:  16    -0.413774593994E+03    0.66842E-06   -0.12656E-06  2282   0.137E-03
  139 T=   185. E= -.41286695E+03 F= -.41377459E+03 E0= -.41375380E+03  EK= 0.90764E+00 SP= 0.00E+00 SK= 0.00E+00
       N       E                     dE             d eps       ncg     rms          rms(c)
RMM:   1    -0.413893420040E+03   -0.11883E+00   -0.21653E+01  4296   0.889E+00    0.101E+00
RMM:   2    -0.413783267420E+03    0.11015E+00   -0.49458E-01  5386   0.839E-01    0.835E-01
RMM:   3    -0.413818550234E+03   -0.35283E-01   -0.11304E-01  5756   0.346E-01    0.108E+00
RMM:   4    -0.413775073663E+03    0.43477E-01   -0.36731E-02  4907   0.230E-01    0.459E-01
RMM:   5    -0.413777583312E+03   -0.25096E-02   -0.47207E-02  5058   0.260E-01    0.301E-01
RMM:   6    -0.413773886298E+03    0.36970E-02   -0.15907E-02  5062   0.156E-01    0.150E-01
RMM:   7    -0.413773453815E+03    0.43248E-03   -0.26662E-03  5571   0.668E-02    0.106E-01
RMM:   8    -0.413773151725E+03    0.30209E-03   -0.13855E-03  4510   0.451E-02    0.361E-02
RMM:   9    -0.413773213841E+03   -0.62116E-04   -0.68579E-04  5484   0.283E-02    0.263E-02
RMM:  10    -0.413773202786E+03    0.11055E-04   -0.76342E-05  4934   0.108E-02    0.134E-02
RMM:  11    -0.413773207199E+03   -0.44125E-05   -0.42560E-05  4742   0.802E-03    0.523E-03
RMM:  12    -0.413773212832E+03   -0.56333E-05   -0.71910E-06  3251   0.336E-03    0.274E-03
RMM:  13    -0.413773217149E+03   -0.43169E-05   -0.19985E-06  2665   0.216E-03    0.156E-03
RMM:  14    -0.413773220082E+03   -0.29328E-05   -0.17211E-06  2610   0.184E-03    0.746E-04
RMM:  15    -0.413773221251E+03   -0.11690E-05   -0.12299E-06  2350   0.149E-03    0.463E-04
RMM:  16    -0.413773221170E+03    0.80097E-07   -0.92044E-07  2277   0.126E-03
  140 T=   184. E= -.41287065E+03 F= -.41377322E+03 E0= -.41375330E+03  EK= 0.90257E+00 SP= 0.00E+00 SK= 0.00E+00
       N       E                     dE             d eps       ncg     rms          rms(c)
RMM:   1    -0.413914547624E+03   -0.14133E+00   -0.21956E+01  4295   0.904E+00    0.936E-01
RMM:   2    -0.413799290855E+03    0.11526E+00   -0.46402E-01  5325   0.841E-01    0.780E-01
RMM:   3    -0.413830845178E+03   -0.31554E-01   -0.10122E-01  5835   0.327E-01    0.100E+00
RMM:   4    -0.413794284657E+03    0.36561E-01   -0.29552E-02  4915   0.205E-01    0.448E-01
RMM:   5    -0.413796739161E+03   -0.24545E-02   -0.40232E-02  5007   0.246E-01    0.272E-01
RMM:   6    -0.413793655714E+03    0.30834E-02   -0.12426E-02  5087   0.138E-01    0.138E-01
RMM:   7    -0.413793317794E+03    0.33792E-03   -0.25782E-03  5593   0.635E-02    0.949E-02
RMM:   8    -0.413793038074E+03    0.27972E-03   -0.11072E-03  4616   0.407E-02    0.354E-02
RMM:   9    -0.413793068076E+03   -0.30002E-04   -0.56894E-04  5495   0.263E-02    0.223E-02
RMM:  10    -0.413793066575E+03    0.15009E-05   -0.69804E-05  5373   0.982E-03    0.131E-02
RMM:  11    -0.413793068492E+03   -0.19163E-05   -0.29616E-05  4527   0.720E-03    0.544E-03
RMM:  12    -0.413793072318E+03   -0.38266E-05   -0.55589E-06  3108   0.303E-03    0.292E-03
RMM:  13    -0.413793077572E+03   -0.52540E-05   -0.21128E-06  2663   0.229E-03    0.172E-03
RMM:  14    -0.413793079770E+03   -0.21977E-05   -0.10649E-06  2499   0.163E-03    0.803E-04
RMM:  15    -0.413793082014E+03   -0.22442E-05   -0.78939E-07  2284   0.132E-03    0.417E-04
RMM:  16    -0.413793083320E+03   -0.13061E-05   -0.55318E-07  2093   0.107E-03    0.317E-04
RMM:  17    -0.413793084403E+03   -0.10824E-05   -0.48790E-07  1904   0.975E-04    0.170E-04
RMM:  18    -0.413793084843E+03   -0.44022E-06   -0.29086E-07  1606   0.792E-04
  141 T=   187. E= -.41287380E+03 F= -.41379308E+03 E0= -.41377405E+03  EK= 0.91929E+00 SP= 0.00E+00 SK= 0.00E+00
       N       E                     dE             d eps       ncg     rms          rms(c)
RMM:   1    -0.413911095757E+03   -0.11801E+00   -0.22377E+01  4292   0.917E+00    0.991E-01
RMM:   2    -0.413787476389E+03    0.12362E+00   -0.45663E-01  5224   0.870E-01    0.881E-01
RMM:   3    -0.413815243717E+03   -0.27767E-01   -0.90943E-02  5899   0.311E-01    0.997E-01
RMM:   4    -0.413786532274E+03    0.28711E-01   -0.29478E-02  4996   0.195E-01    0.536E-01
RMM:   5    -0.413785780135E+03    0.75214E-03   -0.28531E-02  4541   0.228E-01    0.191E-01
RMM:   6    -0.413784651863E+03    0.11283E-02   -0.59912E-03  5121   0.101E-01    0.112E-01
RMM:   7    -0.413784414123E+03    0.23774E-03   -0.17564E-03  5475   0.506E-02    0.773E-02
RMM:   8    -0.413784205949E+03    0.20817E-03   -0.60656E-04  4719   0.313E-02    0.370E-02
RMM:   9    -0.413784206045E+03   -0.95581E-07   -0.51355E-04  5374   0.261E-02    0.205E-02
RMM:  10    -0.413784207817E+03   -0.17726E-05   -0.78532E-05  5517   0.102E-02    0.141E-02
RMM:  11    -0.413784208480E+03   -0.66256E-06   -0.34180E-05  5144   0.750E-03    0.699E-03
RMM:  12    -0.413784210907E+03   -0.24271E-05   -0.55603E-06  3135   0.310E-03    0.386E-03
RMM:  13    -0.413784216644E+03   -0.57366E-05   -0.38326E-06  2889   0.302E-03    0.240E-03
RMM:  14    -0.413784220991E+03   -0.43477E-05   -0.11226E-06  2513   0.194E-03    0.113E-03
RMM:  15    -0.413784224222E+03   -0.32307E-05   -0.57512E-07  2361   0.122E-03    0.577E-04
RMM:  16    -0.413784227077E+03   -0.28546E-05   -0.42830E-07  2011   0.980E-04    0.307E-04
RMM:  17    -0.413784231153E+03   -0.40762E-05   -0.58962E-07  2197   0.105E-03    0.216E-04
RMM:  18    -0.413784232815E+03   -0.16618E-05   -0.23791E-07  1395   0.708E-04    0.141E-04
RMM:  19    -0.413784235132E+03   -0.23175E-05   -0.24282E-07  1534   0.726E-04    0.821E-05
RMM:  20    -0.413784236503E+03   -0.13713E-05   -0.12577E-07  1221   0.615E-04    0.585E-05
RMM:  21    -0.413784237719E+03   -0.12156E-05   -0.77447E-08  1061   0.577E-04    0.305E-05
RMM:  22    -0.413784238868E+03   -0.11489E-05   -0.54562E-08  1013   0.558E-04    0.280E-05
RMM:  23    -0.413784239202E+03   -0.33424E-06   -0.24196E-08   849   0.529E-04
  142 T=   184. E= -.41287828E+03 F= -.41378424E+03 E0= -.41376573E+03  EK= 0.90596E+00 SP= 0.00E+00 SK= 0.00E+00
       N       E                     dE             d eps       ncg     rms          rms(c)
RMM:   1    -0.413811863055E+03   -0.27624E-01   -0.21504E+01  4278   0.901E+00    0.120E+00
RMM:   2    -0.413693198258E+03    0.11866E+00   -0.43731E-01  5164   0.875E-01    0.108E+00
RMM:   3    -0.413729135675E+03   -0.35937E-01   -0.93389E-02  5869   0.320E-01    0.110E+00
RMM:   4    -0.413700382019E+03    0.28754E-01   -0.51959E-02  5068   0.244E-01    0.633E-01
RMM:   5    -0.413693229262E+03    0.71528E-02   -0.22915E-02  4620   0.212E-01    0.187E-01
RMM:   6    -0.413691894175E+03    0.13351E-02   -0.38822E-03  4699   0.885E-02    0.890E-02
RMM:   7    -0.413691811964E+03    0.82211E-04   -0.17180E-03  5580   0.480E-02    0.614E-02
RMM:   8    -0.413691692777E+03    0.11919E-03   -0.53597E-04  5060   0.276E-02    0.328E-02
RMM:   9    -0.413691675104E+03    0.17673E-04   -0.35071E-04  5409   0.227E-02    0.182E-02
RMM:  10    -0.413691673668E+03    0.14358E-05   -0.56022E-05  5414   0.894E-03    0.118E-02
RMM:  11    -0.413691674623E+03   -0.95483E-06   -0.26999E-05  5227   0.649E-03    0.624E-03
RMM:  12    -0.413691677767E+03   -0.31441E-05   -0.53064E-06  3121   0.305E-03    0.383E-03
RMM:  13    -0.413691682806E+03   -0.50385E-05   -0.26815E-06  2693   0.272E-03    0.170E-03
RMM:  14    -0.413691686561E+03   -0.37554E-05   -0.87875E-07  2469   0.166E-03    0.859E-04
RMM:  15    -0.413691690621E+03   -0.40599E-05   -0.53022E-07  2312   0.118E-03    0.438E-04
RMM:  16    -0.413691693852E+03   -0.32311E-05   -0.35626E-07  1807   0.886E-04    0.238E-04
RMM:  17    -0.413691698030E+03   -0.41779E-05   -0.46486E-07  2112   0.966E-04    0.176E-04
RMM:  18    -0.413691700404E+03   -0.23739E-05   -0.23475E-07  1380   0.700E-04    0.107E-04
RMM:  19    -0.413691703324E+03   -0.29202E-05   -0.26100E-07  1623   0.745E-04    0.956E-05
RMM:  20    -0.413691704770E+03   -0.14461E-05   -0.11112E-07  1145   0.595E-04    0.584E-05
RMM:  21    -0.413691705850E+03   -0.10798E-05   -0.65507E-08  1016   0.559E-04    0.304E-05
RMM:  22    -0.413691706711E+03   -0.86119E-06   -0.42044E-08   940   0.543E-04
  143 T=   166. E= -.41287503E+03 F= -.41369171E+03 E0= -.41367328E+03  EK= 0.81668E+00 SP= 0.00E+00 SK= 0.00E+00
       N       E                     dE             d eps       ncg     rms          rms(c)
RMM:   1    -0.413662511231E+03    0.29195E-01   -0.18249E+01  4264   0.835E+00    0.989E-01
RMM:   2    -0.413586948251E+03    0.75563E-01   -0.36705E-01  5249   0.790E-01    0.893E-01
RMM:   3    -0.413606986967E+03   -0.20039E-01   -0.79217E-02  5853   0.292E-01    0.988E-01
RMM:   4    -0.413583440204E+03    0.23547E-01   -0.26218E-02  5003   0.197E-01    0.495E-01
RMM:   5    -0.413584889620E+03   -0.14494E-02   -0.30494E-02  4841   0.226E-01    0.231E-01
RMM:   6    -0.413582454339E+03    0.24353E-02   -0.70294E-03  4745   0.113E-01    0.975E-02
RMM:   7    -0.413582334130E+03    0.12021E-03   -0.19808E-03  5720   0.513E-02    0.622E-02
RMM:   8    -0.413582226008E+03    0.10812E-03   -0.51974E-04  4849   0.293E-02    0.299E-02
RMM:   9    -0.413582212134E+03    0.13874E-04   -0.21836E-04  5094   0.183E-02    0.146E-02
RMM:  10    -0.413582213510E+03   -0.13761E-05   -0.52368E-05  5526   0.801E-03    0.936E-03
RMM:  11    -0.413582213265E+03    0.24460E-06   -0.11362E-05  4047   0.451E-03    0.496E-03
RMM:  12    -0.413582214128E+03   -0.86265E-06   -0.37744E-06  2912   0.275E-03
  144 T=   147. E= -.41285953E+03 F= -.41358221E+03 E0= -.41356358E+03  EK= 0.72269E+00 SP= 0.00E+00 SK= 0.00E+00
       N       E                     dE             d eps       ncg     rms          rms(c)
RMM:   1    -0.413707937221E+03   -0.12572E+00   -0.17004E+01  4277   0.818E+00    0.105E+00
RMM:   2    -0.413681164629E+03    0.26773E-01   -0.44317E-01  5357   0.824E-01    0.107E+00
RMM:   3    -0.413666070756E+03    0.15094E-01   -0.10902E-01  5585   0.360E-01    0.955E-01
RMM:   4    -0.413642474164E+03    0.23597E-01   -0.57522E-02  5222   0.279E-01    0.497E-01
RMM:   5    -0.413640473202E+03    0.20010E-02   -0.22128E-02  4831   0.198E-01    0.235E-01
RMM:   6    -0.413640433645E+03    0.39557E-04   -0.16407E-02  5116   0.155E-01    0.165E-01
RMM:   7    -0.413639095169E+03    0.13385E-02   -0.25521E-03  4700   0.721E-02    0.712E-02
RMM:   8    -0.413639088870E+03    0.62988E-05   -0.92286E-04  5747   0.345E-02    0.398E-02
RMM:   9    -0.413639066671E+03    0.22199E-04   -0.30430E-04  4721   0.225E-02    0.224E-02
RMM:  10    -0.413639058353E+03    0.83183E-05   -0.74197E-05  5527   0.105E-02    0.114E-02
RMM:  11    -0.413639058302E+03    0.50819E-07   -0.37048E-05  5274   0.703E-03    0.729E-03
RMM:  12    -0.413639057046E+03    0.12556E-05   -0.56009E-06  3203   0.349E-03    0.335E-03
RMM:  13    -0.413639056930E+03    0.11601E-06   -0.21980E-06  2659   0.220E-03
  145 T=   157. E= -.41286947E+03 F= -.41363906E+03 E0= -.41362006E+03  EK= 0.76958E+00 SP= 0.00E+00 SK= 0.00E+00
       N       E                     dE             d eps       ncg     rms          rms(c)
RMM:   1    -0.413846577551E+03   -0.20752E+00   -0.19601E+01  4291   0.878E+00    0.156E+00
RMM:   2    -0.413863603481E+03   -0.17026E-01   -0.70413E-01  5379   0.102E+00    0.169E+00
RMM:   3    -0.413805638240E+03    0.57965E-01   -0.20967E-01  5357   0.506E-01    0.141E+00
RMM:   4    -0.413753619344E+03    0.52019E-01   -0.12737E-01  5224   0.412E-01    0.672E-01
RMM:   5    -0.413750783342E+03    0.28360E-02   -0.51933E-02  5034   0.288E-01    0.373E-01
RMM:   6    -0.413747607987E+03    0.31754E-02   -0.31026E-02  5033   0.213E-01    0.218E-01
RMM:   7    -0.413745966761E+03    0.16412E-02   -0.33419E-03  4474   0.896E-02    0.882E-02
RMM:   8    -0.413745918368E+03    0.48393E-04   -0.91589E-04  5418   0.373E-02    0.516E-02
RMM:   9    -0.413745905857E+03    0.12512E-04   -0.47318E-04  4741   0.272E-02    0.243E-02
RMM:  10    -0.413745903852E+03    0.20046E-05   -0.99795E-05  5524   0.121E-02    0.153E-02
RMM:  11    -0.413745902877E+03    0.97465E-06   -0.53348E-05  5310   0.862E-03    0.731E-03
RMM:  12    -0.413745904865E+03   -0.19879E-05   -0.10956E-05  3872   0.452E-03    0.471E-03
RMM:  13    -0.413745905310E+03   -0.44514E-06   -0.31408E-06  2800   0.268E-03
  146 T=   176. E= -.41288160E+03 F= -.41374591E+03 E0= -.41372644E+03  EK= 0.86430E+00 SP= 0.00E+00 SK= 0.00E+00
       N       E                     dE             d eps       ncg     rms          rms(c)
RMM:   1    -0.413827520873E+03   -0.81616E-01   -0.20415E+01  4287   0.884E+00    0.148E+00
RMM:   2    -0.413863381683E+03   -0.35861E-01   -0.84978E-01  5370   0.108E+00    0.174E+00
RMM:   3    -0.413786112184E+03    0.77269E-01   -0.21345E-01  5309   0.522E-01    0.138E+00
RMM:   4    -0.413735738879E+03    0.50373E-01   -0.11294E-01  5260   0.394E-01    0.677E-01
RMM:   5    -0.413734255283E+03    0.14836E-02   -0.46953E-02  5055   0.273E-01    0.401E-01
RMM:   6    -0.413731743973E+03    0.25113E-02   -0.35390E-02  5046   0.222E-01    0.244E-01
RMM:   7    -0.413729571484E+03    0.21725E-02   -0.47465E-03  4588   0.103E-01    0.942E-02
RMM:   8    -0.413729531121E+03    0.40363E-04   -0.14275E-03  5729   0.447E-02    0.593E-02
RMM:   9    -0.413729487406E+03    0.43715E-04   -0.57014E-04  4614   0.298E-02    0.241E-02
RMM:  10    -0.413729489069E+03   -0.16635E-05   -0.12530E-04  5642   0.135E-02    0.155E-02
RMM:  11    -0.413729486581E+03    0.24883E-05   -0.45222E-05  5209   0.819E-03    0.736E-03
RMM:  12    -0.413729489517E+03   -0.29359E-05   -0.12191E-05  3866   0.464E-03    0.475E-03
RMM:  13    -0.413729490553E+03   -0.10359E-05   -0.40679E-06  2923   0.294E-03    0.220E-03
RMM:  14    -0.413729490084E+03    0.46833E-06   -0.19121E-06  2638   0.196E-03
  147 T=   173. E= -.41287871E+03 F= -.41372949E+03 E0= -.41370940E+03  EK= 0.85078E+00 SP= 0.00E+00 SK= 0.00E+00
       N       E                     dE             d eps       ncg     rms          rms(c)
RMM:   1    -0.413679451062E+03    0.50039E-01   -0.18541E+01  4276   0.826E+00    0.121E+00
RMM:   2    -0.413701861181E+03   -0.22410E-01   -0.82166E-01  5376   0.100E+00    0.146E+00
RMM:   3    -0.413651938066E+03    0.49923E-01   -0.16020E-01  5340   0.457E-01    0.117E+00
RMM:   4    -0.413615384741E+03    0.36553E-01   -0.75460E-02  5274   0.329E-01    0.606E-01
RMM:   5    -0.413614187712E+03    0.11970E-02   -0.30197E-02  4964   0.226E-01    0.341E-01
RMM:   6    -0.413613516780E+03    0.67093E-03   -0.28546E-02  5040   0.197E-01    0.218E-01
RMM:   7    -0.413611283242E+03    0.22335E-02   -0.49029E-03  4733   0.100E-01    0.774E-02
RMM:   8    -0.413611292339E+03   -0.90964E-05   -0.14911E-03  5933   0.440E-02    0.523E-02
RMM:   9    -0.413611242362E+03    0.49977E-04   -0.43012E-04  4624   0.267E-02    0.215E-02
RMM:  10    -0.413611240577E+03    0.17850E-05   -0.10251E-04  5674   0.123E-02    0.133E-02
RMM:  11    -0.413611238372E+03    0.22052E-05   -0.32700E-05  5069   0.704E-03    0.686E-03
RMM:  12    -0.413611238393E+03   -0.21322E-07   -0.77490E-06  3364   0.387E-03
  148 T=   150. E= -.41287674E+03 F= -.41361124E+03 E0= -.41359027E+03  EK= 0.73450E+00 SP= 0.00E+00 SK= 0.00E+00
       N       E                     dE             d eps       ncg     rms          rms(c)
RMM:   1    -0.413469816212E+03    0.14142E+00   -0.15050E+01  4265   0.732E+00    0.133E+00
RMM:   2    -0.413485027406E+03   -0.15211E-01   -0.67182E-01  5368   0.877E-01    0.133E+00
RMM:   3    -0.413483655341E+03    0.13721E-02   -0.13970E-01  5386   0.412E-01    0.129E+00
RMM:   4    -0.413441831184E+03    0.41824E-01   -0.83216E-02  5245   0.340E-01    0.669E-01
RMM:   5    -0.413439043055E+03    0.27881E-02   -0.36273E-02  4793   0.252E-01    0.266E-01
RMM:   6    -0.413438244684E+03    0.79837E-03   -0.24738E-02  5133   0.184E-01    0.186E-01
RMM:   7    -0.413436078085E+03    0.21666E-02   -0.39132E-03  4726   0.890E-02    0.591E-02
RMM:   8    -0.413436097077E+03   -0.18991E-04   -0.12162E-03  5895   0.393E-02    0.401E-02
RMM:   9    -0.413436065965E+03    0.31112E-04   -0.27034E-04  4706   0.218E-02    0.199E-02
RMM:  10    -0.413436060495E+03    0.54696E-05   -0.67019E-05  5620   0.991E-03    0.110E-02
RMM:  11    -0.413436058825E+03    0.16702E-05   -0.26248E-05  4960   0.613E-03    0.575E-03
RMM:  12    -0.413436057905E+03    0.91970E-06   -0.46580E-06  2967   0.310E-03
  149 T=   114. E= -.41287507E+03 F= -.41343606E+03 E0= -.41341392E+03  EK= 0.56099E+00 SP= 0.00E+00 SK= 0.00E+00
       N       E                     dE             d eps       ncg     rms          rms(c)
RMM:   1    -0.413288408412E+03    0.14765E+00   -0.10379E+01  4264   0.615E+00    0.128E+00
RMM:   2    -0.413304914447E+03   -0.16506E-01   -0.38564E-01  5353   0.701E-01    0.116E+00
RMM:   3    -0.413331305246E+03   -0.26391E-01   -0.11442E-01  5411   0.359E-01    0.128E+00
RMM:   4    -0.413285355521E+03    0.45950E-01   -0.84031E-02  5221   0.333E-01    0.612E-01
RMM:   5    -0.413280382838E+03    0.49727E-02   -0.31716E-02  4854   0.234E-01    0.192E-01
RMM:   6    -0.413280024142E+03    0.35870E-03   -0.16432E-02  5290   0.149E-01    0.149E-01
RMM:   7    -0.413278604566E+03    0.14196E-02   -0.28198E-03  4777   0.727E-02    0.479E-02
RMM:   8    -0.413278605262E+03   -0.69522E-06   -0.82136E-04  5800   0.327E-02    0.320E-02
RMM:   9    -0.413278589895E+03    0.15367E-04   -0.18061E-04  5027   0.175E-02    0.198E-02
RMM:  10    -0.413278583522E+03    0.63735E-05   -0.44023E-05  5356   0.834E-03    0.894E-03
RMM:  11    -0.413278585847E+03   -0.23249E-05   -0.24610E-05  4954   0.562E-03    0.523E-03
RMM:  12    -0.413278587574E+03   -0.17274E-05   -0.31815E-06  2815   0.275E-03    0.311E-03
RMM:  13    -0.413278590003E+03   -0.24290E-05   -0.20563E-06  2654   0.216E-03    0.136E-03
RMM:  14    -0.413278592913E+03   -0.29099E-05   -0.11070E-06  2506   0.161E-03    0.614E-04
RMM:  15    -0.413278595041E+03   -0.21285E-05   -0.72194E-07  2244   0.119E-03    0.433E-04
RMM:  16    -0.413278596835E+03   -0.17939E-05   -0.59915E-07  2078   0.105E-03    0.292E-04
RMM:  17    -0.413278598408E+03   -0.15729E-05   -0.63866E-07  2092   0.101E-03    0.205E-04
RMM:  18    -0.413278599147E+03   -0.73839E-06   -0.30159E-07  1423   0.744E-04
  150 T=    85. E= -.41286058E+03 F= -.41327860E+03 E0= -.41325523E+03  EK= 0.41802E+00 SP= 0.00E+00 SK= 0.00E+00
