       N       E                     dE             d eps       ncg     rms          rms(c)
RMM:   1     0.220105744011E+04    0.22011E+04   -0.52443E+04  2132   0.654E+02
RMM:   2     0.705398235562E+03   -0.14957E+04   -0.16261E+04  2132   0.177E+02
RMM:   3     0.137673654217E+03   -0.56772E+03   -0.65697E+03  2132   0.117E+02
RMM:   4    -0.159424494124E+03   -0.29710E+03   -0.27809E+03  2132   0.936E+01
RMM:   5    -0.287527730613E+03   -0.12810E+03   -0.11439E+03  2132   0.594E+01
RMM:   6    -0.349912230791E+03   -0.62385E+02   -0.55119E+02  2132   0.423E+01
RMM:   7    -0.382752223815E+03   -0.32840E+02   -0.30391E+02  2132   0.293E+01
RMM:   8    -0.404270488909E+03   -0.21518E+02   -0.18428E+02  2132   0.233E+01
RMM:   9    -0.436037432757E+03   -0.31767E+02   -0.30611E+02  6110   0.173E+01
RMM:  10    -0.441275697221E+03   -0.52383E+01   -0.63056E+01  6390   0.538E+00
RMM:  11    -0.442497326154E+03   -0.12216E+01   -0.11298E+01  6199   0.173E+00
RMM:  12    -0.442874730656E+03   -0.37740E+00   -0.25653E+00  6371   0.597E-01    0.134E+02
RMM:  13    -0.425555724205E+03    0.17319E+02   -0.81070E+01  4670   0.119E+01    0.712E+01
RMM:  14    -0.498174996018E+03   -0.72619E+02   -0.53389E+02  5418   0.231E+01    0.305E+01
RMM:  15    -0.415325404763E+03    0.82850E+02   -0.19655E+02  5060   0.163E+01    0.665E+00
RMM:  16    -0.414047301644E+03    0.12781E+01   -0.39755E+01  6075   0.609E+00    0.428E+00
RMM:  17    -0.413215296653E+03    0.83200E+00   -0.24888E+00  5374   0.186E+00    0.245E+00
RMM:  18    -0.413169868546E+03    0.45428E-01   -0.83537E-01  5977   0.933E-01    0.164E+00
RMM:  19    -0.413169023679E+03    0.84487E-03   -0.26943E-01  5688   0.556E-01    0.868E-01
RMM:  20    -0.413189260717E+03   -0.20237E-01   -0.27043E-01  5496   0.550E-01    0.625E-01
RMM:  21    -0.413167937640E+03    0.21323E-01   -0.35401E-02  4968   0.243E-01    0.284E-01
RMM:  22    -0.413165359875E+03    0.25778E-02   -0.19511E-02  5982   0.127E-01    0.141E-01
RMM:  23    -0.413164253740E+03    0.11061E-02   -0.69520E-03  6041   0.766E-02    0.897E-02
RMM:  24    -0.413163130050E+03    0.11237E-02   -0.16436E-03  5226   0.432E-02    0.478E-02
RMM:  25    -0.413162680236E+03    0.44981E-03   -0.80517E-04  5270   0.276E-02    0.349E-02
RMM:  26    -0.413162829537E+03   -0.14930E-03   -0.82298E-04  5790   0.298E-02    0.308E-02
RMM:  27    -0.413163252908E+03   -0.42337E-03   -0.17432E-04  4592   0.189E-02    0.198E-02
RMM:  28    -0.413163700369E+03   -0.44746E-03   -0.15940E-04  5123   0.181E-02    0.998E-03
RMM:  29    -0.413164108390E+03   -0.40802E-03   -0.11160E-04  4476   0.159E-02    0.388E-03
RMM:  30    -0.413164335303E+03   -0.22691E-03   -0.82048E-05  4515   0.104E-02    0.390E-03
RMM:  31    -0.413164457317E+03   -0.12201E-03   -0.49190E-05  3176   0.656E-03    0.337E-03
RMM:  32    -0.413164484479E+03   -0.27161E-04   -0.19770E-05  2972   0.301E-03    0.200E-03
RMM:  33    -0.413164497737E+03   -0.13258E-04   -0.82676E-06  2789   0.227E-03    0.617E-04
RMM:  34    -0.413164500988E+03   -0.32517E-05   -0.46665E-06  2636   0.160E-03    0.600E-04
RMM:  35    -0.413164501672E+03   -0.68402E-06   -0.23143E-06  2375   0.128E-03
    1 T=    61. E= -.41286670E+03 F= -.41316450E+03 E0= -.41314200E+03  EK= 0.29780E+00 SP= 0.00E+00 SK= 0.00E+00
       N       E                     dE             d eps       ncg     rms          rms(c)
RMM:   1    -0.413156776548E+03    0.77244E-02   -0.10625E+01  4010   0.680E-01    0.886E-01
RMM:   2    -0.413166395782E+03   -0.96192E-02   -0.13045E-01  3930   0.980E-02    0.643E-01
RMM:   3    -0.413164334637E+03    0.20611E-02   -0.80935E-03  4672   0.383E-02    0.131E-01
RMM:   4    -0.413180780400E+03   -0.16446E-01   -0.17199E-02  5215   0.109E-01    0.537E-01
RMM:   5    -0.413164079117E+03    0.16701E-01   -0.83062E-03  4857   0.899E-02    0.350E-02
RMM:   6    -0.413164187279E+03   -0.10816E-03   -0.13844E-03  5815   0.359E-02    0.231E-02
RMM:   7    -0.413164196673E+03   -0.93933E-05   -0.22542E-04  5765   0.134E-02    0.138E-02
RMM:   8    -0.413164200956E+03   -0.42835E-05   -0.29605E-05  4462   0.563E-03    0.584E-03
RMM:   9    -0.413164205384E+03   -0.44284E-05   -0.63169E-06  3061   0.279E-03    0.462E-03
RMM:  10    -0.413164210390E+03   -0.50060E-05   -0.13065E-06  2537   0.171E-03    0.300E-03
RMM:  11    -0.413164217567E+03   -0.71769E-05   -0.13032E-06  2530   0.162E-03    0.130E-03
RMM:  12    -0.413164223483E+03   -0.59156E-05   -0.94311E-07  2402   0.133E-03    0.578E-04
RMM:  13    -0.413164223978E+03   -0.49480E-06   -0.37599E-07  1850   0.875E-04
    2 T=    61. E= -.41286642E+03 F= -.41316422E+03 E0= -.41314172E+03  EK= 0.29780E+00 SP= 0.00E+00 SK= 0.00E+00
       N       E                     dE             d eps       ncg     rms          rms(c)
RMM:   1    -0.413157822582E+03    0.64009E-02   -0.10655E+01  4191   0.683E-01    0.909E-01
RMM:   2    -0.413166369081E+03   -0.85465E-02   -0.12816E-01  3908   0.945E-02    0.637E-01
RMM:   3    -0.413164914305E+03    0.14548E-02   -0.83442E-03  4833   0.379E-02    0.147E-01
RMM:   4    -0.413188761571E+03   -0.23847E-01   -0.24326E-02  5187   0.130E-01    0.645E-01
RMM:   5    -0.413164595023E+03    0.24167E-01   -0.11827E-02  4839   0.108E-01    0.396E-02
RMM:   6    -0.413164748336E+03   -0.15331E-03   -0.19382E-03  5810   0.429E-02    0.251E-02
RMM:   7    -0.413164752576E+03   -0.42402E-05   -0.28221E-04  5806   0.152E-02    0.160E-02
RMM:   8    -0.413164750092E+03    0.24845E-05   -0.45201E-05  4926   0.690E-03    0.756E-03
RMM:   9    -0.413164749164E+03    0.92724E-06   -0.92001E-06  3498   0.346E-03
    3 T=    61. E= -.41286661E+03 F= -.41316475E+03 E0= -.41314225E+03  EK= 0.29814E+00 SP= 0.00E+00 SK= 0.00E+00
       N       E                     dE             d eps       ncg     rms          rms(c)
RMM:   1    -0.413157258078E+03    0.74920E-02   -0.10571E+01  4224   0.684E-01    0.893E-01
RMM:   2    -0.413166244382E+03   -0.89863E-02   -0.12728E-01  4309   0.964E-02    0.631E-01
RMM:   3    -0.413172072785E+03   -0.58284E-02   -0.14164E-02  5198   0.868E-02    0.391E-01
RMM:   4    -0.413182820269E+03   -0.10747E-01   -0.34538E-02  5097   0.161E-01    0.565E-01
RMM:   5    -0.413164570148E+03    0.18250E-01   -0.66085E-03  4662   0.946E-02    0.553E-02
RMM:   6    -0.413164508738E+03    0.61410E-04   -0.12337E-03  5364   0.359E-02    0.243E-02
RMM:   7    -0.413164524500E+03   -0.15762E-04   -0.25008E-04  5990   0.154E-02    0.154E-02
RMM:   8    -0.413164523787E+03    0.71339E-06   -0.46790E-05  5236   0.761E-03    0.666E-03
RMM:   9    -0.413164523311E+03    0.47608E-06   -0.10026E-05  3766   0.394E-03    0.361E-03
RMM:  10    -0.413164524424E+03   -0.11130E-05   -0.12555E-06  2530   0.192E-03    0.221E-03
RMM:  11    -0.413164526628E+03   -0.22041E-05   -0.12329E-06  2532   0.174E-03    0.136E-03
RMM:  12    -0.413164527737E+03   -0.11090E-05   -0.55137E-07  2375   0.121E-03    0.460E-04
RMM:  13    -0.413164528563E+03   -0.82662E-06   -0.29820E-07  1634   0.816E-04
    4 T=    61. E= -.41286635E+03 F= -.41316453E+03 E0= -.41314204E+03  EK= 0.29818E+00 SP= 0.00E+00 SK= 0.00E+00
       N       E                     dE             d eps       ncg     rms          rms(c)
RMM:   1    -0.413157171478E+03    0.73563E-02   -0.10617E+01  4235   0.693E-01    0.883E-01
RMM:   2    -0.413166799385E+03   -0.96279E-02   -0.13062E-01  3933   0.935E-02    0.642E-01
RMM:   3    -0.413164980201E+03    0.18192E-02   -0.81811E-03  4914   0.395E-02    0.145E-01
RMM:   4    -0.413195242593E+03   -0.30262E-01   -0.31167E-02  5165   0.147E-01    0.725E-01
RMM:   5    -0.413164470091E+03    0.30773E-01   -0.14880E-02  4813   0.121E-01    0.419E-02
RMM:   6    -0.413164660977E+03   -0.19089E-03   -0.24839E-03  5783   0.479E-02    0.247E-02
RMM:   7    -0.413164675594E+03   -0.14617E-04   -0.33220E-04  5859   0.156E-02    0.164E-02
RMM:   8    -0.413164679405E+03   -0.38110E-05   -0.50725E-05  4987   0.707E-03    0.797E-03
RMM:   9    -0.413164682205E+03   -0.27997E-05   -0.11055E-05  3652   0.369E-03    0.565E-03
RMM:  10    -0.413164686653E+03   -0.44476E-05   -0.17930E-06  2574   0.197E-03    0.372E-03
RMM:  11    -0.413164692667E+03   -0.60144E-05   -0.15908E-06  2564   0.189E-03    0.168E-03
RMM:  12    -0.413164697823E+03   -0.51560E-05   -0.11650E-06  2504   0.160E-03    0.661E-04
RMM:  13    -0.413164698246E+03   -0.42268E-06   -0.34913E-07  2097   0.999E-04
    5 T=    61. E= -.41286645E+03 F= -.41316470E+03 E0= -.41314222E+03  EK= 0.29825E+00 SP= 0.00E+00 SK= 0.00E+00
       N       E                     dE             d eps       ncg     rms          rms(c)
RMM:   1    -0.413158150476E+03    0.65473E-02   -0.10651E+01  4251   0.696E-01    0.905E-01
RMM:   2    -0.413166870083E+03   -0.87196E-02   -0.12829E-01  3993   0.945E-02    0.639E-01
RMM:   3    -0.413165429205E+03    0.14409E-02   -0.82588E-03  4802   0.382E-02    0.145E-01
RMM:   4    -0.413189147674E+03   -0.23718E-01   -0.24179E-02  5160   0.130E-01    0.644E-01
RMM:   5    -0.413165032275E+03    0.24115E-01   -0.11777E-02  4824   0.107E-01    0.392E-02
RMM:   6    -0.413165185455E+03   -0.15318E-03   -0.19646E-03  5802   0.425E-02    0.245E-02
RMM:   7    -0.413165189766E+03   -0.43111E-05   -0.27622E-04  5806   0.149E-02    0.159E-02
RMM:   8    -0.413165186689E+03    0.30770E-05   -0.46530E-05  4909   0.697E-03    0.778E-03
RMM:   9    -0.413165185430E+03    0.12582E-05   -0.93250E-06  3526   0.354E-03    0.585E-03
RMM:  10    -0.413165186084E+03   -0.65384E-06   -0.13972E-06  2544   0.191E-03
    6 T=    61. E= -.41286676E+03 F= -.41316519E+03 E0= -.41314272E+03  EK= 0.29843E+00 SP= 0.00E+00 SK= 0.00E+00
       N       E                     dE             d eps       ncg     rms          rms(c)
RMM:   1    -0.413157954411E+03    0.72310E-02   -0.10592E+01  4257   0.698E-01    0.900E-01
RMM:   2    -0.413166474946E+03   -0.85205E-02   -0.12740E-01  4145   0.937E-02    0.632E-01
RMM:   3    -0.413167110422E+03   -0.63548E-03   -0.97933E-03  5108   0.574E-02    0.239E-01
RMM:   4    -0.413202207519E+03   -0.35097E-01   -0.45181E-02  5128   0.178E-01    0.798E-01
RMM:   5    -0.413164807915E+03    0.37400E-01   -0.16656E-02  4769   0.133E-01    0.547E-02
RMM:   6    -0.413164939677E+03   -0.13176E-03   -0.27801E-03  5649   0.520E-02    0.249E-02
RMM:   7    -0.413164959209E+03   -0.19532E-04   -0.38246E-04  6013   0.162E-02    0.164E-02
RMM:   8    -0.413164958496E+03    0.71332E-06   -0.60036E-05  5253   0.785E-03    0.769E-03
RMM:   9    -0.413164955133E+03    0.33623E-05   -0.10638E-05  3473   0.363E-03    0.372E-03
RMM:  10    -0.413164955170E+03   -0.36431E-07   -0.24584E-06  2600   0.216E-03
    7 T=    61. E= -.41286654E+03 F= -.41316496E+03 E0= -.41314251E+03  EK= 0.29841E+00 SP= 0.00E+00 SK= 0.00E+00
       N       E                     dE             d eps       ncg     rms          rms(c)
RMM:   1    -0.413161803773E+03    0.31514E-02   -0.10625E+01  4265   0.730E-01    0.882E-01
RMM:   2    -0.413167576178E+03   -0.57724E-02   -0.13248E-01  4121   0.966E-02    0.640E-01
RMM:   3    -0.413166922131E+03    0.65405E-03   -0.89670E-03  5083   0.522E-02    0.206E-01
RMM:   4    -0.413210476621E+03   -0.43554E-01   -0.50589E-02  5139   0.187E-01    0.873E-01
RMM:   5    -0.413165271167E+03    0.45205E-01   -0.20920E-02  4797   0.146E-01    0.526E-02
RMM:   6    -0.413165474098E+03   -0.20293E-03   -0.33684E-03  5716   0.573E-02    0.247E-02
RMM:   7    -0.413165500139E+03   -0.26041E-04   -0.44846E-04  5996   0.176E-02    0.177E-02
RMM:   8    -0.413165504570E+03   -0.44309E-05   -0.69483E-05  5243   0.812E-03    0.891E-03
RMM:   9    -0.413165505219E+03   -0.64915E-06   -0.13380E-05  3764   0.396E-03    0.474E-03
RMM:  10    -0.413165508835E+03   -0.36161E-05   -0.28175E-06  2627   0.221E-03    0.319E-03
RMM:  11    -0.413165512465E+03   -0.36301E-05   -0.12050E-06  2525   0.168E-03    0.160E-03
RMM:  12    -0.413165515845E+03   -0.33802E-05   -0.99681E-07  2503   0.146E-03    0.388E-04
RMM:  13    -0.413165517097E+03   -0.12514E-05   -0.45790E-07  2100   0.104E-03    0.325E-04
RMM:  14    -0.413165517363E+03   -0.26591E-06   -0.21801E-07  1577   0.791E-04
    8 T=    61. E= -.41286679E+03 F= -.41316552E+03 E0= -.41314309E+03  EK= 0.29873E+00 SP= 0.00E+00 SK= 0.00E+00
       N       E                     dE             d eps       ncg     rms          rms(c)
RMM:   1    -0.413158621178E+03    0.68959E-02   -0.10646E+01  4276   0.715E-01    0.899E-01
RMM:   2    -0.413167615228E+03   -0.89941E-02   -0.12910E-01  4141   0.980E-02    0.642E-01
RMM:   3    -0.413166020017E+03    0.15952E-02   -0.83647E-03  4868   0.412E-02    0.148E-01
RMM:   4    -0.413195325381E+03   -0.29305E-01   -0.30121E-02  5144   0.144E-01    0.714E-01
RMM:   5    -0.413165491873E+03    0.29834E-01   -0.14523E-02  4806   0.119E-01    0.421E-02
RMM:   6    -0.413165675721E+03   -0.18385E-03   -0.24142E-03  5774   0.472E-02    0.256E-02
RMM:   7    -0.413165682898E+03   -0.71773E-05   -0.32908E-04  5835   0.157E-02    0.168E-02
RMM:   8    -0.413165681406E+03    0.14924E-05   -0.49775E-05  4965   0.713E-03    0.811E-03
RMM:   9    -0.413165680162E+03    0.12441E-05   -0.10801E-05  3636   0.367E-03    0.580E-03
RMM:  10    -0.413165680996E+03   -0.83446E-06   -0.16234E-06  2553   0.195E-03
    9 T=    61. E= -.41286663E+03 F= -.41316568E+03 E0= -.41314327E+03  EK= 0.29905E+00 SP= 0.00E+00 SK= 0.00E+00
       N       E                     dE             d eps       ncg     rms          rms(c)
RMM:   1    -0.413158835765E+03    0.68444E-02   -0.10627E+01  4291   0.713E-01    0.907E-01
RMM:   2    -0.413167283939E+03   -0.84482E-02   -0.12757E-01  4245   0.965E-02    0.634E-01
RMM:   3    -0.413168103899E+03   -0.81996E-03   -0.10132E-02  5093   0.608E-02    0.248E-01
RMM:   4    -0.413201455132E+03   -0.33351E-01   -0.44340E-02  5123   0.176E-01    0.782E-01
RMM:   5    -0.413165604920E+03    0.35850E-01   -0.15877E-02  4755   0.130E-01    0.541E-02
RMM:   6    -0.413165735249E+03   -0.13033E-03   -0.26648E-03  5640   0.510E-02    0.253E-02
RMM:   7    -0.413165750948E+03   -0.15699E-04   -0.36922E-04  5999   0.162E-02    0.166E-02
RMM:   8    -0.413165748107E+03    0.28412E-05   -0.59559E-05  5238   0.789E-03    0.772E-03
RMM:   9    -0.413165743049E+03    0.50575E-05   -0.10396E-05  3451   0.365E-03    0.371E-03
RMM:  10    -0.413165741794E+03    0.12553E-05   -0.23847E-06  2597   0.215E-03    0.258E-03
RMM:  11    -0.413165740075E+03    0.17195E-05   -0.11204E-06  2513   0.165E-03    0.132E-03
RMM:  12    -0.413165738225E+03    0.18492E-05   -0.71377E-07  2448   0.131E-03    0.391E-04
RMM:  13    -0.413165737365E+03    0.86077E-06   -0.34629E-07  1951   0.942E-04
   10 T=    61. E= -.41286637E+03 F= -.41316574E+03 E0= -.41314335E+03  EK= 0.29937E+00 SP= 0.00E+00 SK= 0.00E+00
       N       E                     dE             d eps       ncg     rms          rms(c)
RMM:   1    -0.413159081121E+03    0.66571E-02   -0.10579E+01  4291   0.716E-01    0.883E-01
RMM:   2    -0.413168488459E+03   -0.94073E-02   -0.12912E-01  4195   0.953E-02    0.637E-01
RMM:   3    -0.413166896630E+03    0.15918E-02   -0.81252E-03  4863   0.427E-02    0.148E-01
RMM:   4    -0.413197799764E+03   -0.30903E-01   -0.31959E-02  5148   0.148E-01    0.733E-01
RMM:   5    -0.413166303704E+03    0.31496E-01   -0.15435E-02  4806   0.122E-01    0.421E-02
RMM:   6    -0.413166493031E+03   -0.18933E-03   -0.24947E-03  5782   0.482E-02    0.253E-02
RMM:   7    -0.413166502966E+03   -0.99351E-05   -0.33830E-04  5829   0.160E-02    0.168E-02
RMM:   8    -0.413166502646E+03    0.31988E-06   -0.53881E-05  5003   0.735E-03    0.838E-03
RMM:   9    -0.413166501562E+03    0.10839E-05   -0.11774E-05  3744   0.384E-03    0.588E-03
RMM:  10    -0.413166502995E+03   -0.14324E-05   -0.18116E-06  2572   0.200E-03    0.384E-03
RMM:  11    -0.413166505062E+03   -0.20676E-05   -0.17316E-06  2565   0.198E-03    0.168E-03
RMM:  12    -0.413166506446E+03   -0.13839E-05   -0.11238E-06  2500   0.161E-03    0.671E-04
RMM:  13    -0.413166506529E+03   -0.82830E-07   -0.34117E-07  2094   0.996E-04
   11 T=    61. E= -.41286665E+03 F= -.41316651E+03 E0= -.41314415E+03  EK= 0.29986E+00 SP= 0.00E+00 SK= 0.00E+00
       N       E                     dE             d eps       ncg     rms          rms(c)
RMM:   1    -0.413163640923E+03    0.28655E-02   -0.10699E+01  4295   0.750E-01    0.894E-01
RMM:   2    -0.413168436420E+03   -0.47955E-02   -0.13351E-01  4208   0.981E-02    0.645E-01
RMM:   3    -0.413166674567E+03    0.17619E-02   -0.82127E-03  4835   0.399E-02    0.147E-01
RMM:   4    -0.413193631149E+03   -0.26957E-01   -0.27701E-02  5146   0.138E-01    0.685E-01
RMM:   5    -0.413166227803E+03    0.27403E-01   -0.13483E-02  4807   0.114E-01    0.401E-02
RMM:   6    -0.413166397994E+03   -0.17019E-03   -0.22053E-03  5808   0.448E-02    0.245E-02
RMM:   7    -0.413166407041E+03   -0.90477E-05   -0.29472E-04  5800   0.152E-02    0.160E-02
RMM:   8    -0.413166406139E+03    0.90279E-06   -0.51829E-05  4966   0.724E-03    0.822E-03
RMM:   9    -0.413166404790E+03    0.13489E-05   -0.10902E-05  3712   0.377E-03    0.595E-03
RMM:  10    -0.413166406007E+03   -0.12170E-05   -0.16036E-06  2554   0.196E-03    0.389E-03
RMM:  11    -0.413166407788E+03   -0.17818E-05   -0.18094E-06  2576   0.204E-03    0.170E-03
RMM:  12    -0.413166408804E+03   -0.10159E-05   -0.10535E-06  2488   0.158E-03    0.677E-04
RMM:  13    -0.413166408833E+03   -0.29035E-07   -0.32155E-07  2062   0.963E-04
   12 T=    61. E= -.41286643E+03 F= -.41316641E+03 E0= -.41314408E+03  EK= 0.29998E+00 SP= 0.00E+00 SK= 0.00E+00
       N       E                     dE             d eps       ncg     rms          rms(c)
RMM:   1    -0.413160213795E+03    0.61950E-02   -0.10654E+01  4293   0.726E-01    0.912E-01
RMM:   2    -0.413168415638E+03   -0.82018E-02   -0.12777E-01  4208   0.946E-02    0.636E-01
RMM:   3    -0.413167302000E+03    0.11136E-02   -0.85178E-03  4858   0.386E-02    0.152E-01
RMM:   4    -0.413194207424E+03   -0.26905E-01   -0.27630E-02  5143   0.138E-01    0.685E-01
RMM:   5    -0.413166848150E+03    0.27359E-01   -0.13403E-02  4804   0.114E-01    0.418E-02
RMM:   6    -0.413167014862E+03   -0.16671E-03   -0.22629E-03  5801   0.453E-02    0.260E-02
RMM:   7    -0.413167016456E+03   -0.15940E-05   -0.30778E-04  5785   0.157E-02    0.168E-02
RMM:   8    -0.413167009157E+03    0.72987E-05   -0.53013E-05  4972   0.739E-03    0.853E-03
RMM:   9    -0.413167004001E+03    0.51563E-05   -0.10796E-05  3706   0.377E-03    0.629E-03
RMM:  10    -0.413167001229E+03    0.27720E-05   -0.15870E-06  2547   0.199E-03    0.407E-03
RMM:  11    -0.413166997429E+03    0.37994E-05   -0.16954E-06  2557   0.201E-03    0.182E-03
RMM:  12    -0.413166993646E+03    0.37835E-05   -0.11117E-06  2495   0.163E-03    0.682E-04
RMM:  13    -0.413166993295E+03    0.35040E-06   -0.33915E-07  2115   0.100E-03
   13 T=    61. E= -.41286664E+03 F= -.41316699E+03 E0= -.41314469E+03  EK= 0.30035E+00 SP= 0.00E+00 SK= 0.00E+00
       N       E                     dE             d eps       ncg     rms          rms(c)
RMM:   1    -0.413160422428E+03    0.65712E-02   -0.10568E+01  4294   0.726E-01    0.887E-01
RMM:   2    -0.413169556789E+03   -0.91344E-02   -0.12873E-01  4214   0.929E-02    0.635E-01
RMM:   3    -0.413167930911E+03    0.16259E-02   -0.81461E-03  4811   0.390E-02    0.144E-01
RMM:   4    -0.413192909873E+03   -0.24979E-01   -0.25624E-02  5141   0.133E-01    0.660E-01
RMM:   5    -0.413167535386E+03    0.25374E-01   -0.12484E-02  4807   0.110E-01    0.394E-02
RMM:   6    -0.413167689566E+03   -0.15418E-03   -0.20515E-03  5811   0.430E-02    0.243E-02
RMM:   7    -0.413167694503E+03   -0.49365E-05   -0.27435E-04  5795   0.150E-02    0.157E-02
RMM:   8    -0.413167690851E+03    0.36515E-05   -0.50880E-05  4939   0.723E-03    0.809E-03
RMM:   9    -0.413167687875E+03    0.29766E-05   -0.10467E-05  3692   0.374E-03    0.598E-03
RMM:  10    -0.413167687527E+03    0.34815E-06   -0.15034E-06  2545   0.194E-03
   14 T=    61. E= -.41286681E+03 F= -.41316769E+03 E0= -.41314542E+03  EK= 0.30088E+00 SP= 0.00E+00 SK= 0.00E+00
       N       E                     dE             d eps       ncg     rms          rms(c)
RMM:   1    -0.413160520926E+03    0.71669E-02   -0.10654E+01  4302   0.737E-01    0.891E-01
RMM:   2    -0.413170044077E+03   -0.95232E-02   -0.13090E-01  4267   0.996E-02    0.646E-01
RMM:   3    -0.413169963608E+03    0.80469E-04   -0.99299E-03  5083   0.593E-02    0.236E-01
RMM:   4    -0.413209460571E+03   -0.39497E-01   -0.50238E-02  5121   0.187E-01    0.841E-01
RMM:   5    -0.413167548438E+03    0.41912E-01   -0.18873E-02  4766   0.140E-01    0.542E-02
RMM:   6    -0.413167707309E+03   -0.15887E-03   -0.30567E-03  5676   0.547E-02    0.242E-02
RMM:   7    -0.413167729856E+03   -0.22547E-04   -0.41062E-04  5999   0.169E-02    0.168E-02
RMM:   8    -0.413167731776E+03   -0.19201E-05   -0.64352E-05  5235   0.801E-03    0.808E-03
RMM:   9    -0.413167730225E+03    0.15517E-05   -0.12314E-05  3603   0.382E-03    0.386E-03
RMM:  10    -0.413167731672E+03   -0.14473E-05   -0.27651E-06  2623   0.219E-03    0.268E-03
RMM:  11    -0.413167732884E+03   -0.12120E-05   -0.11475E-06  2513   0.164E-03    0.136E-03
RMM:  12    -0.413167733596E+03   -0.71190E-06   -0.78357E-07  2441   0.132E-03
   15 T=    61. E= -.41286647E+03 F= -.41316773E+03 E0= -.41314550E+03  EK= 0.30126E+00 SP= 0.00E+00 SK= 0.00E+00
       N       E                     dE             d eps       ncg     rms          rms(c)
RMM:   1    -0.413162146110E+03    0.55868E-02   -0.10679E+01  4298   0.737E-01    0.914E-01
RMM:   2    -0.413170419695E+03   -0.82736E-02   -0.12844E-01  4243   0.993E-02    0.639E-01
RMM:   3    -0.413169203016E+03    0.12167E-02   -0.87096E-03  4915   0.424E-02    0.159E-01
RMM:   4    -0.413202778642E+03   -0.33576E-01   -0.34988E-02  5140   0.155E-01    0.763E-01
RMM:   5    -0.413168568270E+03    0.34210E-01   -0.16679E-02  4792   0.127E-01    0.452E-02
RMM:   6    -0.413168771722E+03   -0.20345E-03   -0.28285E-03  5795   0.505E-02    0.275E-02
RMM:   7    -0.413168774409E+03   -0.26865E-05   -0.36940E-04  5818   0.170E-02    0.181E-02
RMM:   8    -0.413168766939E+03    0.74700E-05   -0.62182E-05  5044   0.789E-03    0.944E-03
RMM:   9    -0.413168760327E+03    0.66121E-05   -0.13089E-05  3906   0.406E-03    0.663E-03
RMM:  10    -0.413168756738E+03    0.35889E-05   -0.19985E-06  2578   0.211E-03    0.428E-03
RMM:  11    -0.413168752430E+03    0.43075E-05   -0.17600E-06  2555   0.205E-03    0.195E-03
RMM:  12    -0.413168747764E+03    0.46664E-05   -0.12438E-06  2503   0.175E-03    0.698E-04
RMM:  13    -0.413168747107E+03    0.65679E-06   -0.39143E-07  2205   0.109E-03
   16 T=    61. E= -.41286672E+03 F= -.41316875E+03 E0= -.41314655E+03  EK= 0.30202E+00 SP= 0.00E+00 SK= 0.00E+00
       N       E                     dE             d eps       ncg     rms          rms(c)
RMM:   1    -0.413162038762E+03    0.67090E-02   -0.10594E+01  4296   0.737E-01    0.893E-01
RMM:   2    -0.413171047538E+03   -0.90088E-02   -0.12890E-01  4239   0.964E-02    0.635E-01
RMM:   3    -0.413169404238E+03    0.16433E-02   -0.82737E-03  4858   0.412E-02    0.151E-01
RMM:   4    -0.413198730947E+03   -0.29327E-01   -0.30276E-02  5138   0.144E-01    0.714E-01
RMM:   5    -0.413168925244E+03    0.29806E-01   -0.14613E-02  4797   0.119E-01    0.422E-02
RMM:   6    -0.413169108138E+03   -0.18289E-03   -0.24691E-03  5805   0.470E-02    0.258E-02
RMM:   7    -0.413169114030E+03   -0.58913E-05   -0.31917E-04  5791   0.160E-02    0.167E-02
RMM:   8    -0.413169108766E+03    0.52640E-05   -0.58238E-05  5014   0.761E-03    0.894E-03
RMM:   9    -0.413169103585E+03    0.51804E-05   -0.12174E-05  3875   0.398E-03    0.643E-03
RMM:  10    -0.413169101388E+03    0.21973E-05   -0.17508E-06  2555   0.205E-03    0.420E-03
RMM:  11    -0.413169098256E+03    0.31316E-05   -0.19085E-06  2573   0.212E-03    0.186E-03
RMM:  12    -0.413169095148E+03    0.31087E-05   -0.10983E-06  2490   0.167E-03    0.661E-04
RMM:  13    -0.413169094778E+03    0.36966E-06   -0.35094E-07  2142   0.102E-03
   17 T=    62. E= -.41286647E+03 F= -.41316909E+03 E0= -.41314694E+03  EK= 0.30262E+00 SP= 0.00E+00 SK= 0.00E+00
       N       E                     dE             d eps       ncg     rms          rms(c)
RMM:   1    -0.413162503903E+03    0.65912E-02   -0.10669E+01  4298   0.755E-01    0.889E-01
RMM:   2    -0.413171910286E+03   -0.94064E-02   -0.13171E-01  4248   0.999E-02    0.647E-01
RMM:   3    -0.413169982856E+03    0.19274E-02   -0.84671E-03  4843   0.440E-02    0.145E-01
RMM:   4    -0.413200350785E+03   -0.30368E-01   -0.31509E-02  5137   0.147E-01    0.726E-01
RMM:   5    -0.413169410979E+03    0.30940E-01   -0.15181E-02  4794   0.121E-01    0.421E-02
RMM:   6    -0.413169601191E+03   -0.19021E-03   -0.25262E-03  5806   0.476E-02    0.253E-02
RMM:   7    -0.413169610214E+03   -0.90229E-05   -0.32042E-04  5821   0.159E-02    0.166E-02
RMM:   8    -0.413169608305E+03    0.19096E-05   -0.58289E-05  5017   0.761E-03    0.873E-03
RMM:   9    -0.413169605496E+03    0.28088E-05   -0.12668E-05  3916   0.403E-03    0.614E-03
RMM:  10    -0.413169605782E+03   -0.28660E-06   -0.18520E-06  2565   0.204E-03
   18 T=    62. E= -.41286638E+03 F= -.41316961E+03 E0= -.41314749E+03  EK= 0.30323E+00 SP= 0.00E+00 SK= 0.00E+00
       N       E                     dE             d eps       ncg     rms          rms(c)
RMM:   1    -0.413164060395E+03    0.55451E-02   -0.10704E+01  4302   0.748E-01    0.913E-01
RMM:   2    -0.413172591642E+03   -0.85312E-02   -0.12973E-01  4292   0.976E-02    0.643E-01
RMM:   3    -0.413174009884E+03   -0.14182E-02   -0.10976E-02  5102   0.661E-02    0.274E-01
RMM:   4    -0.413204524484E+03   -0.30515E-01   -0.44569E-02  5104   0.177E-01    0.759E-01
RMM:   5    -0.413170729714E+03    0.33795E-01   -0.14621E-02  4737   0.126E-01    0.538E-02
RMM:   6    -0.413170837166E+03   -0.10745E-03   -0.24752E-03  5630   0.489E-02    0.255E-02
RMM:   7    -0.413170847294E+03   -0.10128E-04   -0.34440E-04  5997   0.159E-02    0.166E-02
RMM:   8    -0.413170842248E+03    0.50462E-05   -0.58572E-05  5207   0.793E-03    0.764E-03
RMM:   9    -0.413170835244E+03    0.70042E-05   -0.10280E-05  3437   0.367E-03    0.354E-03
RMM:  10    -0.413170832619E+03    0.26248E-05   -0.22761E-06  2579   0.213E-03    0.243E-03
RMM:  11    -0.413170828742E+03    0.38771E-05   -0.11175E-06  2514   0.166E-03    0.130E-03
RMM:  12    -0.413170825070E+03    0.36718E-05   -0.63137E-07  2417   0.128E-03    0.405E-04
RMM:  13    -0.413170823228E+03    0.18424E-05   -0.30730E-07  1909   0.918E-04    0.242E-04
RMM:  14    -0.413170821607E+03    0.16212E-05   -0.18662E-07  1469   0.764E-04    0.166E-04
RMM:  15    -0.413170818754E+03    0.28521E-05   -0.18089E-07  1443   0.744E-04    0.893E-05
RMM:  16    -0.413170816861E+03    0.18935E-05   -0.12145E-07  1359   0.677E-04    0.877E-05
RMM:  17    -0.413170814174E+03    0.26865E-05   -0.12156E-07  1421   0.662E-04    0.440E-05
RMM:  18    -0.413170812767E+03    0.14073E-05   -0.64601E-08  1019   0.566E-04    0.318E-05
RMM:  19    -0.413170812338E+03    0.42926E-06   -0.30205E-08   806   0.526E-04
   19 T=    62. E= -.41286675E+03 F= -.41317081E+03 E0= -.41314874E+03  EK= 0.30406E+00 SP= 0.00E+00 SK= 0.00E+00
       N       E                     dE             d eps       ncg     rms          rms(c)
RMM:   1    -0.413164387934E+03    0.64248E-02   -0.10639E+01  4298   0.749E-01    0.902E-01
RMM:   2    -0.413172928821E+03   -0.85409E-02   -0.12888E-01  4243   0.973E-02    0.637E-01
RMM:   3    -0.413171856033E+03    0.10728E-02   -0.86508E-03  4955   0.437E-02    0.167E-01
RMM:   4    -0.413209963334E+03   -0.38107E-01   -0.40589E-02  5139   0.167E-01    0.811E-01
RMM:   5    -0.413171043423E+03    0.38920E-01   -0.18938E-02  4783   0.136E-01    0.480E-02
RMM:   6    -0.413171267571E+03   -0.22415E-03   -0.32057E-03  5759   0.538E-02    0.282E-02
RMM:   7    -0.413171271588E+03   -0.40170E-05   -0.41694E-04  5808   0.176E-02    0.189E-02
RMM:   8    -0.413171264455E+03    0.71321E-05   -0.66630E-05  5137   0.814E-03    0.968E-03
RMM:   9    -0.413171257285E+03    0.71707E-05   -0.14665E-05  4054   0.421E-03    0.649E-03
RMM:  10    -0.413171253567E+03    0.37173E-05   -0.22375E-06  2597   0.216E-03    0.421E-03
RMM:  11    -0.413171249698E+03    0.38692E-05   -0.15087E-06  2524   0.193E-03    0.204E-03
RMM:  12    -0.413171245093E+03    0.46051E-05   -0.12503E-06  2511   0.177E-03    0.660E-04
RMM:  13    -0.413171244133E+03    0.96007E-06   -0.41397E-07  2258   0.114E-03
   20 T=    62. E= -.41286655E+03 F= -.41317124E+03 E0= -.41314921E+03  EK= 0.30469E+00 SP= 0.00E+00 SK= 0.00E+00
       N       E                     dE             d eps       ncg     rms          rms(c)
RMM:   1    -0.413170724072E+03    0.52102E-03   -0.10730E+01  4296   0.804E-01    0.889E-01
RMM:   2    -0.413174679762E+03   -0.39557E-02   -0.13212E-01  4257   0.985E-02    0.647E-01
RMM:   3    -0.413172719300E+03    0.19605E-02   -0.85717E-03  4880   0.416E-02    0.145E-01
RMM:   4    -0.413203427286E+03   -0.30708E-01   -0.31970E-02  5142   0.148E-01    0.730E-01
RMM:   5    -0.413172158762E+03    0.31269E-01   -0.15378E-02  4796   0.122E-01    0.424E-02
RMM:   6    -0.413172348273E+03   -0.18951E-03   -0.25716E-03  5813   0.477E-02    0.255E-02
RMM:   7    -0.413172357127E+03   -0.88544E-05   -0.32088E-04  5819   0.159E-02    0.164E-02
RMM:   8    -0.413172354559E+03    0.25684E-05   -0.61471E-05  5026   0.779E-03    0.920E-03
RMM:   9    -0.413172350229E+03    0.43300E-05   -0.13120E-05  3991   0.413E-03    0.645E-03
RMM:  10    -0.413172349457E+03    0.77227E-06   -0.19310E-06  2575   0.209E-03
   21 T=    62. E= -.41286676E+03 F= -.41317235E+03 E0= -.41315036E+03  EK= 0.30559E+00 SP= 0.00E+00 SK= 0.00E+00
       N       E                     dE             d eps       ncg     rms          rms(c)
RMM:   1    -0.413166589548E+03    0.57607E-02   -0.10732E+01  4299   0.761E-01    0.910E-01
RMM:   2    -0.413175384478E+03   -0.87949E-02   -0.13103E-01  4298   0.987E-02    0.648E-01
RMM:   3    -0.413176547677E+03   -0.11632E-02   -0.11050E-02  5098   0.661E-02    0.274E-01
RMM:   4    -0.413208555951E+03   -0.32008E-01   -0.46364E-02  5103   0.180E-01    0.775E-01
RMM:   5    -0.413173232315E+03    0.35324E-01   -0.15300E-02  4733   0.129E-01    0.540E-02
RMM:   6    -0.413173344927E+03   -0.11261E-03   -0.25906E-03  5641   0.501E-02    0.256E-02
RMM:   7    -0.413173354991E+03   -0.10064E-04   -0.36107E-04  5990   0.164E-02    0.170E-02
RMM:   8    -0.413173350319E+03    0.46723E-05   -0.61892E-05  5207   0.812E-03    0.791E-03
RMM:   9    -0.413173343001E+03    0.73175E-05   -0.11071E-05  3551   0.379E-03    0.367E-03
RMM:  10    -0.413173340347E+03    0.26541E-05   -0.23504E-06  2592   0.215E-03    0.254E-03
RMM:  11    -0.413173336524E+03    0.38232E-05   -0.11125E-06  2507   0.167E-03    0.133E-03
RMM:  12    -0.413173332704E+03    0.38198E-05   -0.64160E-07  2419   0.130E-03    0.382E-04
RMM:  13    -0.413173330835E+03    0.18686E-05   -0.30749E-07  1901   0.922E-04    0.236E-04
RMM:  14    -0.413173329168E+03    0.16670E-05   -0.18265E-07  1441   0.759E-04    0.154E-04
RMM:  15    -0.413173326310E+03    0.28586E-05   -0.16206E-07  1377   0.732E-04    0.866E-05
RMM:  16    -0.413173324362E+03    0.19479E-05   -0.11576E-07  1339   0.676E-04    0.868E-05
RMM:  17    -0.413173321829E+03    0.25335E-05   -0.10188E-07  1306   0.647E-04    0.476E-05
RMM:  18    -0.413173320103E+03    0.17253E-05   -0.64306E-08  1070   0.583E-04    0.254E-05
RMM:  19    -0.413173319583E+03    0.52039E-06   -0.30005E-08   806   0.534E-04
   22 T=    62. E= -.41286679E+03 F= -.41317332E+03 E0= -.41315138E+03  EK= 0.30652E+00 SP= 0.00E+00 SK= 0.00E+00
       N       E                     dE             d eps       ncg     rms          rms(c)
RMM:   1    -0.413167520279E+03    0.57998E-02   -0.10706E+01  4296   0.772E-01    0.912E-01
RMM:   2    -0.413175916439E+03   -0.83962E-02   -0.12973E-01  4262   0.104E-01    0.640E-01
RMM:   3    -0.413174499309E+03    0.14171E-02   -0.88822E-03  4875   0.458E-02    0.160E-01
RMM:   4    -0.413209026319E+03   -0.34527E-01   -0.36164E-02  5147   0.158E-01    0.773E-01
RMM:   5    -0.413173840205E+03    0.35186E-01   -0.17392E-02  4795   0.129E-01    0.458E-02
RMM:   6    -0.413174034592E+03   -0.19439E-03   -0.28585E-03  5803   0.511E-02    0.283E-02
RMM:   7    -0.413174035737E+03   -0.11458E-05   -0.37026E-04  5786   0.173E-02    0.182E-02
RMM:   8    -0.413174027372E+03    0.83655E-05   -0.66687E-05  5098   0.818E-03    0.974E-03
RMM:   9    -0.413174019147E+03    0.82253E-05   -0.14147E-05  4045   0.424E-03    0.672E-03
RMM:  10    -0.413174014330E+03    0.48162E-05   -0.20720E-06  2586   0.212E-03    0.436E-03
RMM:  11    -0.413174008856E+03    0.54743E-05   -0.15623E-06  2518   0.198E-03    0.207E-03
RMM:  12    -0.413174002548E+03    0.63075E-05   -0.12600E-06  2503   0.179E-03    0.721E-04
RMM:  13    -0.413174001367E+03    0.11819E-05   -0.41374E-07  2245   0.114E-03    0.507E-04
RMM:  14    -0.413174001048E+03    0.31824E-06   -0.19541E-07  1737   0.797E-04
   23 T=    63. E= -.41286649E+03 F= -.41317400E+03 E0= -.41315211E+03  EK= 0.30751E+00 SP= 0.00E+00 SK= 0.00E+00
       N       E                     dE             d eps       ncg     rms          rms(c)
RMM:   1    -0.413168892326E+03    0.51090E-02   -0.10705E+01  4295   0.786E-01    0.892E-01
RMM:   2    -0.413178063749E+03   -0.91714E-02   -0.13249E-01  4262   0.104E-01    0.647E-01
RMM:   3    -0.413175852041E+03    0.22117E-02   -0.85459E-03  4771   0.432E-02    0.142E-01
RMM:   4    -0.413201578768E+03   -0.25727E-01   -0.26431E-02  5143   0.135E-01    0.669E-01
RMM:   5    -0.413175474725E+03    0.26104E-01   -0.12974E-02  4798   0.111E-01    0.406E-02
RMM:   6    -0.413175620532E+03   -0.14581E-03   -0.21528E-03  5811   0.439E-02    0.251E-02
RMM:   7    -0.413175624261E+03   -0.37288E-05   -0.28334E-04  5763   0.154E-02    0.157E-02
RMM:   8    -0.413175619547E+03    0.47135E-05   -0.56603E-05  4987   0.762E-03    0.862E-03
RMM:   9    -0.413175614485E+03    0.50628E-05   -0.11623E-05  3863   0.395E-03    0.621E-03
RMM:  10    -0.413175612715E+03    0.17694E-05   -0.15763E-06  2548   0.199E-03    0.408E-03
RMM:  11    -0.413175609971E+03    0.27445E-05   -0.18284E-06  2556   0.212E-03    0.178E-03
RMM:  12    -0.413175607445E+03    0.25262E-05   -0.96069E-07  2465   0.160E-03    0.659E-04
RMM:  13    -0.413175607120E+03    0.32483E-06   -0.31859E-07  2077   0.976E-04
   24 T=    63. E= -.41286674E+03 F= -.41317561E+03 E0= -.41315376E+03  EK= 0.30887E+00 SP= 0.00E+00 SK= 0.00E+00
       N       E                     dE             d eps       ncg     rms          rms(c)
RMM:   1    -0.413169799556E+03    0.58079E-02   -0.10788E+01  4297   0.787E-01    0.907E-01
RMM:   2    -0.413178975696E+03   -0.91761E-02   -0.13280E-01  4271   0.105E-01    0.653E-01
RMM:   3    -0.413176808413E+03    0.21673E-02   -0.87060E-03  4692   0.447E-02    0.139E-01
RMM:   4    -0.413196613629E+03   -0.19805E-01   -0.20299E-02  5145   0.119E-01    0.590E-01
RMM:   5    -0.413176484651E+03    0.20129E-01   -0.10025E-02  4812   0.977E-02    0.379E-02
RMM:   6    -0.413176578085E+03   -0.93434E-04   -0.16093E-03  5827   0.379E-02    0.225E-02
RMM:   7    -0.413176579784E+03   -0.16991E-05   -0.17829E-04  5613   0.126E-02    0.104E-02
RMM:   8    -0.413176573949E+03    0.58348E-05   -0.29108E-05  4626   0.546E-03    0.661E-03
RMM:   9    -0.413176571541E+03    0.24080E-05   -0.40701E-06  2771   0.239E-03    0.466E-03
RMM:  10    -0.413176569944E+03    0.15979E-05   -0.93368E-07  2482   0.150E-03    0.353E-03
RMM:  11    -0.413176564712E+03    0.52311E-05   -0.17704E-06  2542   0.217E-03    0.171E-03
RMM:  12    -0.413176562763E+03    0.19496E-05   -0.70972E-07  2392   0.143E-03    0.943E-04
RMM:  13    -0.413176562081E+03    0.68217E-06   -0.23700E-07  1867   0.872E-04
   25 T=    63. E= -.41286655E+03 F= -.41317656E+03 E0= -.41315476E+03  EK= 0.31001E+00 SP= 0.00E+00 SK= 0.00E+00
       N       E                     dE             d eps       ncg     rms          rms(c)
RMM:   1    -0.413171574856E+03    0.49879E-02   -0.10799E+01  4294   0.791E-01    0.922E-01
RMM:   2    -0.413179643127E+03   -0.80683E-02   -0.13186E-01  4268   0.106E-01    0.646E-01
RMM:   3    -0.413178028293E+03    0.16148E-02   -0.89242E-03  4705   0.451E-02    0.148E-01
RMM:   4    -0.413199595534E+03   -0.21567E-01   -0.21989E-02  5148   0.124E-01    0.614E-01
RMM:   5    -0.413177771260E+03    0.21824E-01   -0.10995E-02  4813   0.102E-01    0.399E-02
RMM:   6    -0.413177868537E+03   -0.97277E-04   -0.17381E-03  5809   0.399E-02    0.243E-02
RMM:   7    -0.413177863538E+03    0.49989E-05   -0.20766E-04  5687   0.138E-02    0.123E-02
RMM:   8    -0.413177856795E+03    0.67427E-05   -0.42786E-05  4925   0.658E-03    0.826E-03
RMM:   9    -0.413177850196E+03    0.65996E-05   -0.99173E-06  3747   0.360E-03    0.619E-03
RMM:  10    -0.413177845504E+03    0.46917E-05   -0.13805E-06  2532   0.201E-03    0.397E-03
RMM:  11    -0.413177838230E+03    0.72739E-05   -0.15982E-06  2532   0.201E-03    0.187E-03
RMM:  12    -0.413177830243E+03    0.79872E-05   -0.95158E-07  2459   0.162E-03    0.666E-04
RMM:  13    -0.413177829194E+03    0.10490E-05   -0.31865E-07  2103   0.993E-04    0.473E-04
RMM:  14    -0.413177828433E+03    0.76071E-06   -0.14786E-07  1483   0.729E-04
   26 T=    63. E= -.41286651E+03 F= -.41317783E+03 E0= -.41315608E+03  EK= 0.31132E+00 SP= 0.00E+00 SK= 0.00E+00
       N       E                     dE             d eps       ncg     rms          rms(c)
RMM:   1    -0.413172748869E+03    0.50803E-02   -0.10751E+01  4294   0.791E-01    0.898E-01
RMM:   2    -0.413181716456E+03   -0.89676E-02   -0.13278E-01  4269   0.103E-01    0.648E-01
RMM:   3    -0.413179816559E+03    0.18999E-02   -0.87183E-03  4696   0.441E-02    0.141E-01
RMM:   4    -0.413200597858E+03   -0.20781E-01   -0.21291E-02  5151   0.121E-01    0.603E-01
RMM:   5    -0.413179513586E+03    0.21084E-01   -0.10622E-02  4819   0.100E-01    0.386E-02
RMM:   6    -0.413179609036E+03   -0.95450E-04   -0.16733E-03  5823   0.391E-02    0.238E-02
RMM:   7    -0.413179608546E+03    0.48971E-06   -0.21557E-04  5754   0.139E-02    0.130E-02
RMM:   8    -0.413179604372E+03    0.41743E-05   -0.48191E-05  4944   0.698E-03    0.821E-03
RMM:   9    -0.413179598843E+03    0.55291E-05   -0.10152E-05  3794   0.373E-03    0.595E-03
RMM:  10    -0.413179596088E+03    0.27544E-05   -0.13485E-06  2538   0.194E-03    0.382E-03
RMM:  11    -0.413179592059E+03    0.40291E-05   -0.14350E-06  2521   0.192E-03    0.179E-03
RMM:  12    -0.413179587705E+03    0.43539E-05   -0.90412E-07  2434   0.153E-03    0.598E-04
RMM:  13    -0.413179586982E+03    0.72340E-06   -0.30779E-07  2054   0.966E-04
   27 T=    64. E= -.41286670E+03 F= -.41317959E+03 E0= -.41315789E+03  EK= 0.31289E+00 SP= 0.00E+00 SK= 0.00E+00
       N       E                     dE             d eps       ncg     rms          rms(c)
RMM:   1    -0.413182365188E+03   -0.27775E-02   -0.10945E+01  4292   0.878E-01    0.907E-01
RMM:   2    -0.413183126191E+03   -0.76100E-03   -0.13915E-01  4266   0.110E-01    0.659E-01
RMM:   3    -0.413180886679E+03    0.22395E-02   -0.89237E-03  4519   0.446E-02    0.135E-01
RMM:   4    -0.413192872646E+03   -0.11986E-01   -0.12416E-02  5158   0.939E-02    0.460E-01
RMM:   5    -0.413180747025E+03    0.12126E-01   -0.61087E-03  4825   0.757E-02    0.346E-02
RMM:   6    -0.413180784214E+03   -0.37189E-04   -0.99272E-04  5846   0.295E-02    0.206E-02
RMM:   7    -0.413180788423E+03   -0.42096E-05   -0.16473E-04  5581   0.124E-02    0.129E-02
RMM:   8    -0.413180776192E+03    0.12232E-04   -0.31352E-05  4696   0.613E-03    0.615E-03
RMM:   9    -0.413180774707E+03    0.14842E-05   -0.60164E-06  3140   0.306E-03    0.495E-03
RMM:  10    -0.413180772333E+03    0.23739E-05   -0.10011E-06  2497   0.181E-03    0.298E-03
RMM:  11    -0.413180769278E+03    0.30558E-05   -0.85618E-07  2484   0.152E-03    0.150E-03
RMM:  12    -0.413180765724E+03    0.35535E-05   -0.60616E-07  2329   0.123E-03    0.546E-04
RMM:  13    -0.413180764787E+03    0.93771E-06   -0.21916E-07  1797   0.829E-04
   28 T=    64. E= -.41286645E+03 F= -.41318076E+03 E0= -.41315912E+03  EK= 0.31431E+00 SP= 0.00E+00 SK= 0.00E+00
       N       E                     dE             d eps       ncg     rms          rms(c)
RMM:   1    -0.413176602465E+03    0.41633E-02   -0.10897E+01  4291   0.809E-01    0.929E-01
RMM:   2    -0.413184769245E+03   -0.81668E-02   -0.13367E-01  4269   0.106E-01    0.652E-01
RMM:   3    -0.413182882315E+03    0.18869E-02   -0.92917E-03  4437   0.448E-02    0.141E-01
RMM:   4    -0.413190105710E+03   -0.72234E-02   -0.77023E-03  5161   0.736E-02    0.358E-01
RMM:   5    -0.413182872899E+03    0.72328E-02   -0.36858E-03  4825   0.589E-02    0.347E-02
RMM:   6    -0.413182886629E+03   -0.13730E-04   -0.67745E-04  5809   0.244E-02    0.220E-02
RMM:   7    -0.413182877824E+03    0.88047E-05   -0.18223E-04  5380   0.133E-02    0.138E-02
RMM:   8    -0.413182863176E+03    0.14649E-04   -0.17614E-05  4213   0.535E-03    0.584E-03
RMM:   9    -0.413182859394E+03    0.37815E-05   -0.34384E-06  2813   0.246E-03    0.418E-03
RMM:  10    -0.413182853650E+03    0.57445E-05   -0.12378E-06  2485   0.185E-03    0.232E-03
RMM:  11    -0.413182846947E+03    0.67028E-05   -0.76982E-07  2455   0.150E-03    0.109E-03
RMM:  12    -0.413182841706E+03    0.52408E-05   -0.39738E-07  2193   0.109E-03    0.493E-04
RMM:  13    -0.413182839259E+03    0.24469E-05   -0.19768E-07  1666   0.791E-04    0.233E-04
RMM:  14    -0.413182835632E+03    0.36267E-05   -0.12380E-07  1343   0.699E-04    0.147E-04
RMM:  15    -0.413182830787E+03    0.48449E-05   -0.10390E-07  1319   0.678E-04    0.865E-05
RMM:  16    -0.413182829065E+03    0.17228E-05   -0.53857E-08   996   0.597E-04    0.660E-05
RMM:  17    -0.413182824551E+03    0.45134E-05   -0.78715E-08  1312   0.642E-04    0.377E-05
RMM:  18    -0.413182823231E+03    0.13202E-05   -0.35031E-08   925   0.545E-04    0.216E-05
RMM:  19    -0.413182822804E+03    0.42737E-06   -0.14779E-08   696   0.509E-04
   29 T=    64. E= -.41286672E+03 F= -.41318282E+03 E0= -.41316122E+03  EK= 0.31610E+00 SP= 0.00E+00 SK= 0.00E+00
       N       E                     dE             d eps       ncg     rms          rms(c)
RMM:   1    -0.413177873146E+03    0.49501E-02   -0.10837E+01  4288   0.812E-01    0.908E-01
RMM:   2    -0.413186943120E+03   -0.90700E-02   -0.13472E-01  4263   0.112E-01    0.651E-01
RMM:   3    -0.413184804080E+03    0.21390E-02   -0.90914E-03  4442   0.485E-02    0.137E-01
RMM:   4    -0.413193282541E+03   -0.84785E-02   -0.89828E-03  5158   0.798E-02    0.388E-01
RMM:   5    -0.413184719086E+03    0.85635E-02   -0.43462E-03  4825   0.640E-02    0.345E-02
RMM:   6    -0.413184741570E+03   -0.22484E-04   -0.76559E-04  5817   0.260E-02    0.223E-02
RMM:   7    -0.413184739344E+03    0.22257E-05   -0.18942E-04  5421   0.134E-02    0.140E-02
RMM:   8    -0.413184725243E+03    0.14101E-04   -0.21759E-05  4400   0.571E-03    0.592E-03
RMM:   9    -0.413184722851E+03    0.23924E-05   -0.39953E-06  2885   0.260E-03    0.437E-03
RMM:  10    -0.413184719265E+03    0.35861E-05   -0.11795E-06  2488   0.182E-03    0.248E-03
RMM:  11    -0.413184715118E+03    0.41468E-05   -0.77855E-07  2457   0.149E-03    0.120E-03
RMM:  12    -0.413184711505E+03    0.36135E-05   -0.44123E-07  2248   0.112E-03    0.532E-04
RMM:  13    -0.413184710068E+03    0.14371E-05   -0.19507E-07  1684   0.793E-04    0.239E-04
RMM:  14    -0.413184708047E+03    0.20208E-05   -0.11287E-07  1241   0.682E-04    0.147E-04
RMM:  15    -0.413184704946E+03    0.31010E-05   -0.91799E-08  1212   0.668E-04    0.754E-05
RMM:  16    -0.413184703977E+03    0.96838E-06   -0.47090E-08   938   0.601E-04
   30 T=    65. E= -.41286676E+03 F= -.41318470E+03 E0= -.41316316E+03  EK= 0.31795E+00 SP= 0.00E+00 SK= 0.00E+00
       N       E                     dE             d eps       ncg     rms          rms(c)
RMM:   1    -0.413183248809E+03    0.14561E-02   -0.10991E+01  4293   0.887E-01    0.909E-01
RMM:   2    -0.413189261969E+03   -0.60132E-02   -0.14308E-01  4269   0.124E-01    0.665E-01
RMM:   3    -0.413186276682E+03    0.29853E-02   -0.91980E-03  4382   0.492E-02    0.135E-01
RMM:   4    -0.413191664707E+03   -0.53880E-02   -0.60164E-03  5152   0.656E-02    0.309E-01
RMM:   5    -0.413186287607E+03    0.53771E-02   -0.27089E-03  4818   0.509E-02    0.326E-02
RMM:   6    -0.413186302779E+03   -0.15171E-04   -0.52872E-04  5768   0.219E-02    0.223E-02
RMM:   7    -0.413186298419E+03    0.43594E-05   -0.17308E-04  5284   0.128E-02    0.128E-02
RMM:   8    -0.413186288828E+03    0.95915E-05   -0.14523E-05  4012   0.493E-03    0.558E-03
RMM:   9    -0.413186287525E+03    0.13026E-05   -0.23476E-06  2669   0.217E-03    0.371E-03
RMM:  10    -0.413186285122E+03    0.24031E-05   -0.11015E-06  2481   0.169E-03    0.195E-03
RMM:  11    -0.413186282779E+03    0.23432E-05   -0.65710E-07  2406   0.132E-03    0.884E-04
RMM:  12    -0.413186280796E+03    0.19834E-05   -0.34516E-07  2071   0.981E-04    0.392E-04
RMM:  13    -0.413186279616E+03    0.11793E-05   -0.16393E-07  1394   0.737E-04    0.213E-04
RMM:  14    -0.413186277969E+03    0.16469E-05   -0.10945E-07  1179   0.675E-04    0.133E-04
RMM:  15    -0.413186275598E+03    0.23715E-05   -0.93910E-08  1175   0.663E-04    0.693E-05
RMM:  16    -0.413186274772E+03    0.82629E-06   -0.47125E-08   941   0.596E-04
   31 T=    65. E= -.41286647E+03 F= -.41318627E+03 E0= -.41316478E+03  EK= 0.31980E+00 SP= 0.00E+00 SK= 0.00E+00
       N       E                     dE             d eps       ncg     rms          rms(c)
RMM:   1    -0.413182673508E+03    0.36021E-02   -0.11013E+01  4292   0.842E-01    0.935E-01
RMM:   2    -0.413191150218E+03   -0.84767E-02   -0.13755E-01  4273   0.122E-01    0.660E-01
RMM:   3    -0.413188937623E+03    0.22126E-02   -0.96187E-03  4292   0.519E-02    0.139E-01
RMM:   4    -0.413190833940E+03   -0.18963E-02   -0.27142E-03  5120   0.439E-02    0.185E-01
RMM:   5    -0.413188954066E+03    0.18799E-02   -0.97409E-04  4810   0.310E-02    0.338E-02
RMM:   6    -0.413188955439E+03   -0.13736E-05   -0.30213E-04  5538   0.175E-02    0.246E-02
RMM:   7    -0.413188929802E+03    0.25637E-04   -0.15755E-04  5000   0.123E-02    0.123E-02
RMM:   8    -0.413188924627E+03    0.51756E-05   -0.11649E-05  3651   0.428E-03    0.499E-03
RMM:   9    -0.413188922575E+03    0.20519E-05   -0.17115E-06  2499   0.196E-03    0.289E-03
RMM:  10    -0.413188915064E+03    0.75112E-05   -0.87435E-07  2457   0.153E-03    0.137E-03
RMM:  11    -0.413188910985E+03    0.40789E-05   -0.40574E-07  2130   0.103E-03    0.591E-04
RMM:  12    -0.413188906050E+03    0.49343E-05   -0.25382E-07  1859   0.866E-04    0.238E-04
RMM:  13    -0.413188903077E+03    0.29735E-05   -0.12281E-07  1290   0.687E-04    0.155E-04
RMM:  14    -0.413188898494E+03    0.45829E-05   -0.96187E-08  1184   0.659E-04    0.110E-04
RMM:  15    -0.413188894176E+03    0.43183E-05   -0.81882E-08  1232   0.642E-04    0.780E-05
RMM:  16    -0.413188891843E+03    0.23322E-05   -0.48119E-08   961   0.577E-04    0.571E-05
RMM:  17    -0.413188889036E+03    0.28073E-05   -0.43944E-08   957   0.571E-04    0.254E-05
RMM:  18    -0.413188888490E+03    0.54627E-06   -0.18229E-08   693   0.525E-04
   32 T=    66. E= -.41286679E+03 F= -.41318889E+03 E0= -.41316744E+03  EK= 0.32210E+00 SP= 0.00E+00 SK= 0.00E+00
       N       E                     dE             d eps       ncg     rms          rms(c)
RMM:   1    -0.413184373471E+03    0.45156E-02   -0.10973E+01  4286   0.854E-01    0.922E-01
RMM:   2    -0.413193332769E+03   -0.89593E-02   -0.13842E-01  4272   0.128E-01    0.657E-01
RMM:   3    -0.413190777092E+03    0.25557E-02   -0.93803E-03  4262   0.474E-02    0.140E-01
RMM:   4    -0.413191896783E+03   -0.11197E-02   -0.19494E-03  5085   0.375E-02    0.138E-01
RMM:   5    -0.413190880155E+03    0.10166E-02   -0.52886E-04  4763   0.235E-02    0.335E-02
RMM:   6    -0.413190875596E+03    0.45591E-05   -0.23018E-04  5487   0.155E-02    0.244E-02
RMM:   7    -0.413190853730E+03    0.21866E-04   -0.15424E-04  4927   0.116E-02    0.133E-02
RMM:   8    -0.413190848503E+03    0.52268E-05   -0.11564E-05  3658   0.425E-03    0.523E-03
RMM:   9    -0.413190846990E+03    0.15134E-05   -0.20770E-06  2439   0.190E-03    0.249E-03
RMM:  10    -0.413190840332E+03    0.66581E-05   -0.78238E-07  2343   0.142E-03    0.116E-03
RMM:  11    -0.413190836745E+03    0.35867E-05   -0.31630E-07  1937   0.934E-04    0.570E-04
RMM:  12    -0.413190832199E+03    0.45462E-05   -0.19996E-07  1576   0.792E-04    0.214E-04
RMM:  13    -0.413190829117E+03    0.30815E-05   -0.90942E-08  1027   0.648E-04    0.139E-04
RMM:  14    -0.413190824877E+03    0.42406E-05   -0.77794E-08  1035   0.635E-04    0.108E-04
RMM:  15    -0.413190820205E+03    0.46712E-05   -0.74299E-08  1147   0.631E-04    0.655E-05
RMM:  16    -0.413190818374E+03    0.18319E-05   -0.33260E-08   744   0.541E-04    0.491E-05
RMM:  17    -0.413190816474E+03    0.18994E-05   -0.27166E-08   716   0.532E-04    0.222E-05
RMM:  18    -0.413190815891E+03    0.58346E-06   -0.14087E-08   560   0.502E-04
   33 T=    66. E= -.41286648E+03 F= -.41319082E+03 E0= -.41316941E+03  EK= 0.32434E+00 SP= 0.00E+00 SK= 0.00E+00
       N       E                     dE             d eps       ncg     rms          rms(c)
RMM:   1    -0.413202208454E+03   -0.11392E-01   -0.11225E+01  4297   0.100E+00    0.914E-01
RMM:   2    -0.413196041265E+03    0.61672E-02   -0.15149E-01  4268   0.138E-01    0.671E-01
RMM:   3    -0.413193296737E+03    0.27445E-02   -0.93624E-03  4264   0.538E-02    0.140E-01
RMM:   4    -0.413194591458E+03   -0.12947E-02   -0.21990E-03  5085   0.405E-02    0.151E-01
RMM:   5    -0.413193360266E+03    0.12312E-02   -0.62782E-04  4767   0.254E-02    0.326E-02
RMM:   6    -0.413193358563E+03    0.17027E-05   -0.23279E-04  5547   0.156E-02    0.232E-02
RMM:   7    -0.413193344150E+03    0.14414E-04   -0.15627E-04  4938   0.117E-02    0.136E-02
RMM:   8    -0.413193338839E+03    0.53107E-05   -0.11082E-05  3508   0.415E-03    0.517E-03
RMM:   9    -0.413193338002E+03    0.83706E-06   -0.19225E-06  2465   0.189E-03
   34 T=    67. E= -.41286649E+03 F= -.41319334E+03 E0= -.41317198E+03  EK= 0.32685E+00 SP= 0.00E+00 SK= 0.00E+00
       N       E                     dE             d eps       ncg     rms          rms(c)
RMM:   1    -0.413190027947E+03    0.33109E-02   -0.11158E+01  4302   0.892E-01    0.939E-01
RMM:   2    -0.413198424290E+03   -0.83963E-02   -0.14327E-01  4262   0.130E-01    0.671E-01
RMM:   3    -0.413196005335E+03    0.24190E-02   -0.96611E-03  4304   0.510E-02    0.140E-01
RMM:   4    -0.413196056760E+03   -0.51426E-04   -0.11403E-03  4787   0.217E-02    0.351E-02
RMM:   5    -0.413196042277E+03    0.14484E-04   -0.15929E-04  4952   0.135E-02    0.305E-02
RMM:   6    -0.413196167976E+03   -0.12570E-03   -0.18823E-04  5247   0.124E-02    0.544E-02
RMM:   7    -0.413196004277E+03    0.16370E-03   -0.16532E-04  4905   0.126E-02    0.123E-02
RMM:   8    -0.413196000550E+03    0.37267E-05   -0.19826E-05  4390   0.511E-03    0.479E-03
RMM:   9    -0.413195999257E+03    0.12934E-05   -0.31617E-06  2564   0.208E-03    0.170E-03
RMM:  10    -0.413195990458E+03    0.87982E-05   -0.86628E-07  2397   0.144E-03    0.771E-04
RMM:  11    -0.413195984758E+03    0.57002E-05   -0.35819E-07  1956   0.953E-04    0.365E-04
RMM:  12    -0.413195981195E+03    0.35629E-05   -0.19967E-07  1564   0.783E-04    0.209E-04
RMM:  13    -0.413195975328E+03    0.58674E-05   -0.17217E-07  1480   0.745E-04    0.137E-04
RMM:  14    -0.413195969024E+03    0.63044E-05   -0.13068E-07  1293   0.686E-04    0.125E-04
RMM:  15    -0.413195966098E+03    0.29252E-05   -0.65645E-08   885   0.600E-04    0.595E-05
RMM:  16    -0.413195962247E+03    0.38514E-05   -0.65619E-08  1009   0.610E-04    0.515E-05
RMM:  17    -0.413195961689E+03    0.55805E-06   -0.27274E-08   622   0.535E-04
   35 T=    67. E= -.41286663E+03 F= -.41319596E+03 E0= -.41317465E+03  EK= 0.32933E+00 SP= 0.00E+00 SK= 0.00E+00
       N       E                     dE             d eps       ncg     rms          rms(c)
RMM:   1    -0.413193049504E+03    0.29127E-02   -0.11154E+01  4298   0.929E-01    0.938E-01
RMM:   2    -0.413200128284E+03   -0.70788E-02   -0.14445E-01  4249   0.130E-01    0.665E-01
RMM:   3    -0.413198164127E+03    0.19642E-02   -0.98577E-03  4685   0.531E-02    0.159E-01
RMM:   4    -0.413222672193E+03   -0.24508E-01   -0.24829E-02  5164   0.133E-01    0.655E-01
RMM:   5    -0.413197940265E+03    0.24732E-01   -0.12597E-02  4800   0.109E-01    0.435E-02
RMM:   6    -0.413197967419E+03   -0.27155E-04   -0.19734E-03  5852   0.425E-02    0.273E-02
RMM:   7    -0.413197975077E+03   -0.76575E-05   -0.28524E-04  5671   0.159E-02    0.157E-02
RMM:   8    -0.413197962276E+03    0.12801E-04   -0.55773E-05  4991   0.784E-03    0.870E-03
RMM:   9    -0.413197958562E+03    0.37141E-05   -0.13371E-05  4104   0.432E-03    0.608E-03
RMM:  10    -0.413197952285E+03    0.62767E-05   -0.18096E-06  2575   0.220E-03    0.361E-03
RMM:  11    -0.413197947464E+03    0.48216E-05   -0.10061E-06  2493   0.164E-03    0.211E-03
RMM:  12    -0.413197937847E+03    0.96163E-05   -0.11933E-06  2490   0.181E-03    0.971E-04
RMM:  13    -0.413197934039E+03    0.38085E-05   -0.43722E-07  2265   0.117E-03    0.577E-04
RMM:  14    -0.413197933475E+03    0.56361E-06   -0.18886E-07  1685   0.790E-04
   36 T=    68. E= -.41286630E+03 F= -.41319793E+03 E0= -.41317667E+03  EK= 0.33164E+00 SP= 0.00E+00 SK= 0.00E+00
       N       E                     dE             d eps       ncg     rms          rms(c)
RMM:   1    -0.413210174389E+03   -0.12240E-01   -0.11346E+01  4306   0.104E+00    0.921E-01
RMM:   2    -0.413204024735E+03    0.61497E-02   -0.16508E-01  4246   0.142E-01    0.677E-01
RMM:   3    -0.413201199699E+03    0.28250E-02   -0.91662E-03  4587   0.542E-02    0.169E-01
RMM:   4    -0.413219988203E+03   -0.18789E-01   -0.19337E-02  5167   0.118E-01    0.575E-01
RMM:   5    -0.413201024165E+03    0.18964E-01   -0.95909E-03  4806   0.955E-02    0.416E-02
RMM:   6    -0.413201038971E+03   -0.14806E-04   -0.15994E-03  5846   0.378E-02    0.268E-02
RMM:   7    -0.413201048508E+03   -0.95370E-05   -0.27630E-04  5606   0.154E-02    0.159E-02
RMM:   8    -0.413201034605E+03    0.13903E-04   -0.51228E-05  4975   0.774E-03    0.760E-03
RMM:   9    -0.413201032481E+03    0.21236E-05   -0.97707E-06  3673   0.384E-03    0.506E-03
RMM:  10    -0.413201028609E+03    0.38725E-05   -0.14177E-06  2542   0.199E-03    0.310E-03
RMM:  11    -0.413201024499E+03    0.41101E-05   -0.93629E-07  2492   0.156E-03    0.159E-03
RMM:  12    -0.413201019003E+03    0.54952E-05   -0.82240E-07  2419   0.143E-03    0.695E-04
RMM:  13    -0.413201016796E+03    0.22070E-05   -0.31555E-07  2031   0.965E-04    0.407E-04
RMM:  14    -0.413201015900E+03    0.89639E-06   -0.14820E-07  1387   0.716E-04
   37 T=    68. E= -.41286664E+03 F= -.41320102E+03 E0= -.41317980E+03  EK= 0.33438E+00 SP= 0.00E+00 SK= 0.00E+00
       N       E                     dE             d eps       ncg     rms          rms(c)
RMM:   1    -0.413211534864E+03   -0.10518E-01   -0.11439E+01  4308   0.108E+00    0.943E-01
RMM:   2    -0.413206581340E+03    0.49535E-02   -0.15201E-01  4247   0.132E-01    0.680E-01
RMM:   3    -0.413203659708E+03    0.29216E-02   -0.10182E-02  4740   0.551E-02    0.161E-01
RMM:   4    -0.413234327084E+03   -0.30667E-01   -0.31261E-02  5152   0.148E-01    0.730E-01
RMM:   5    -0.413203302412E+03    0.31025E-01   -0.15788E-02  4804   0.122E-01    0.463E-02
RMM:   6    -0.413203352826E+03   -0.50415E-04   -0.24857E-03  5841   0.471E-02    0.287E-02
RMM:   7    -0.413203364920E+03   -0.12093E-04   -0.33964E-04  5731   0.169E-02    0.166E-02
RMM:   8    -0.413203353366E+03    0.11553E-04   -0.64398E-05  5041   0.831E-03    0.951E-03
RMM:   9    -0.413203349911E+03    0.34551E-05   -0.16617E-05  4354   0.472E-03    0.621E-03
RMM:  10    -0.413203344465E+03    0.54462E-05   -0.22762E-06  2621   0.232E-03    0.377E-03
RMM:  11    -0.413203340466E+03    0.39986E-05   -0.11538E-06  2499   0.173E-03    0.220E-03
RMM:  12    -0.413203332154E+03    0.83119E-05   -0.13148E-06  2505   0.186E-03    0.977E-04
RMM:  13    -0.413203328552E+03    0.36019E-05   -0.47567E-07  2300   0.122E-03    0.647E-04
RMM:  14    -0.413203328324E+03    0.22832E-06   -0.20678E-07  1789   0.816E-04
   38 T=    69. E= -.41286649E+03 F= -.41320333E+03 E0= -.41318215E+03  EK= 0.33684E+00 SP= 0.00E+00 SK= 0.00E+00
       N       E                     dE             d eps       ncg     rms          rms(c)
RMM:   1    -0.413204489261E+03   -0.11607E-02   -0.11355E+01  4305   0.105E+00    0.955E-01
RMM:   2    -0.413208712945E+03   -0.42237E-02   -0.15030E-01  4250   0.124E-01    0.675E-01
RMM:   3    -0.413206508131E+03    0.22048E-02   -0.10526E-02  4931   0.545E-02    0.187E-01
RMM:   4    -0.413250978976E+03   -0.44471E-01   -0.46999E-02  5139   0.180E-01    0.875E-01
RMM:   5    -0.413205745240E+03    0.45234E-01   -0.22654E-02  4796   0.147E-01    0.532E-02
RMM:   6    -0.413205862124E+03   -0.11688E-03   -0.36275E-03  5830   0.564E-02    0.318E-02
RMM:   7    -0.413205872978E+03   -0.10854E-04   -0.41479E-04  5706   0.183E-02    0.168E-02
RMM:   8    -0.413205863114E+03    0.98642E-05   -0.50098E-05  4757   0.687E-03    0.847E-03
RMM:   9    -0.413205855376E+03    0.77376E-05   -0.98326E-06  3167   0.328E-03    0.509E-03
RMM:  10    -0.413205850642E+03    0.47343E-05   -0.19743E-06  2531   0.209E-03    0.345E-03
RMM:  11    -0.413205842776E+03    0.78658E-05   -0.17668E-06  2525   0.213E-03    0.187E-03
RMM:  12    -0.413205834152E+03    0.86249E-05   -0.10752E-06  2477   0.178E-03    0.888E-04
RMM:  13    -0.413205831282E+03    0.28695E-05   -0.40999E-07  2296   0.115E-03    0.609E-04
RMM:  14    -0.413205830446E+03    0.83615E-06   -0.19081E-07  1682   0.792E-04
   39 T=    69. E= -.41286654E+03 F= -.41320583E+03 E0= -.41318469E+03  EK= 0.33929E+00 SP= 0.00E+00 SK= 0.00E+00
       N       E                     dE             d eps       ncg     rms          rms(c)
RMM:   1    -0.413223525079E+03   -0.17694E-01   -0.11508E+01  4310   0.118E+00    0.933E-01
RMM:   2    -0.413212092977E+03    0.11432E-01   -0.15789E-01  4253   0.132E-01    0.680E-01
RMM:   3    -0.413209727777E+03    0.23652E-02   -0.10591E-02  4990   0.581E-02    0.204E-01
RMM:   4    -0.413261131231E+03   -0.51403E-01   -0.56437E-02  5135   0.197E-01    0.940E-01
RMM:   5    -0.413208499070E+03    0.52632E-01   -0.25903E-02  4783   0.158E-01    0.564E-02
RMM:   6    -0.413208655007E+03   -0.15594E-03   -0.42034E-03  5820   0.606E-02    0.323E-02
RMM:   7    -0.413208670806E+03   -0.15799E-04   -0.47497E-04  5802   0.193E-02    0.186E-02
RMM:   8    -0.413208671171E+03   -0.36562E-06   -0.92993E-05  5213   0.920E-03    0.121E-02
RMM:   9    -0.413208660563E+03    0.10609E-04   -0.27311E-05  4673   0.566E-03    0.682E-03
RMM:  10    -0.413208656211E+03    0.43522E-05   -0.44518E-06  2799   0.292E-03    0.414E-03
RMM:  11    -0.413208652413E+03    0.37978E-05   -0.16549E-06  2509   0.210E-03    0.245E-03
RMM:  12    -0.413208645159E+03    0.72536E-05   -0.13281E-06  2499   0.195E-03    0.809E-04
RMM:  13    -0.413208641617E+03    0.35425E-05   -0.56807E-07  2377   0.133E-03    0.590E-04
RMM:  14    -0.413208640676E+03    0.94010E-06   -0.24941E-07  1963   0.891E-04
   40 T=    70. E= -.41286682E+03 F= -.41320864E+03 E0= -.41318754E+03  EK= 0.34182E+00 SP= 0.00E+00 SK= 0.00E+00
       N       E                     dE             d eps       ncg     rms          rms(c)
RMM:   1    -0.413235544659E+03   -0.26903E-01   -0.11724E+01  4310   0.127E+00    0.943E-01
RMM:   2    -0.413214074403E+03    0.21470E-01   -0.18584E-01  4261   0.145E-01    0.694E-01
RMM:   3    -0.413212250665E+03    0.18237E-02   -0.10396E-02  5040   0.611E-02    0.258E-01
RMM:   4    -0.413270520336E+03   -0.58270E-01   -0.66894E-02  5133   0.215E-01    0.100E+00
RMM:   5    -0.413210311907E+03    0.60208E-01   -0.29323E-02  4779   0.170E-01    0.618E-02
RMM:   6    -0.413210494073E+03   -0.18217E-03   -0.47474E-03  5813   0.647E-02    0.337E-02
RMM:   7    -0.413210513328E+03   -0.19255E-04   -0.56871E-04  5873   0.208E-02    0.222E-02
RMM:   8    -0.413210513766E+03   -0.43828E-06   -0.12610E-04  5288   0.109E-02    0.137E-02
RMM:   9    -0.413210500222E+03    0.13545E-04   -0.26898E-05  4652   0.604E-03    0.600E-03
RMM:  10    -0.413210496142E+03    0.40794E-05   -0.58533E-06  2989   0.301E-03    0.377E-03
RMM:  11    -0.413210492630E+03    0.35126E-05   -0.15108E-06  2507   0.202E-03    0.220E-03
RMM:  12    -0.413210486560E+03    0.60701E-05   -0.10397E-06  2482   0.172E-03    0.720E-04
RMM:  13    -0.413210483080E+03    0.34797E-05   -0.50507E-07  2356   0.123E-03    0.413E-04
RMM:  14    -0.413210481614E+03    0.14660E-05   -0.24597E-07  1921   0.872E-04    0.290E-04
RMM:  15    -0.413210478741E+03    0.28729E-05   -0.14134E-07  1391   0.714E-04    0.127E-04
RMM:  16    -0.413210475671E+03    0.30696E-05   -0.97227E-08  1172   0.663E-04    0.103E-04
RMM:  17    -0.413210473508E+03    0.21633E-05   -0.65886E-08  1083   0.630E-04    0.678E-05
RMM:  18    -0.413210470782E+03    0.27258E-05   -0.59142E-08  1147   0.628E-04    0.430E-05
RMM:  19    -0.413210468883E+03    0.18990E-05   -0.40636E-08  1039   0.600E-04    0.310E-05
RMM:  20    -0.413210468303E+03    0.58065E-06   -0.21838E-08   821   0.557E-04
   41 T=    70. E= -.41286651E+03 F= -.41321047E+03 E0= -.41318940E+03  EK= 0.34396E+00 SP= 0.00E+00 SK= 0.00E+00
       N       E                     dE             d eps       ncg     rms          rms(c)
RMM:   1    -0.413214503804E+03   -0.40349E-02   -0.11505E+01  4310   0.120E+00    0.968E-01
RMM:   2    -0.413215662720E+03   -0.11589E-02   -0.15540E-01  4280   0.137E-01    0.684E-01
RMM:   3    -0.413216477269E+03   -0.81455E-03   -0.13459E-02  5081   0.747E-02    0.300E-01
RMM:   4    -0.413253329945E+03   -0.36853E-01   -0.52773E-02  5092   0.193E-01    0.831E-01
RMM:   5    -0.413212804998E+03    0.40525E-01   -0.18111E-02  4740   0.138E-01    0.581E-02
RMM:   6    -0.413212877420E+03   -0.72422E-04   -0.31251E-03  5766   0.529E-02    0.327E-02
RMM:   7    -0.413212884189E+03   -0.67687E-05   -0.43026E-04  5786   0.187E-02    0.213E-02
RMM:   8    -0.413212880049E+03    0.41403E-05   -0.11436E-04  5196   0.107E-02    0.120E-02
RMM:   9    -0.413212866096E+03    0.13952E-04   -0.20087E-05  4439   0.552E-03    0.487E-03
RMM:  10    -0.413212860936E+03    0.51601E-05   -0.42121E-06  2823   0.262E-03    0.309E-03
RMM:  11    -0.413212855477E+03    0.54595E-05   -0.11848E-06  2491   0.183E-03    0.167E-03
RMM:  12    -0.413212847639E+03    0.78377E-05   -0.73102E-07  2448   0.148E-03    0.607E-04
RMM:  13    -0.413212843299E+03    0.43395E-05   -0.35711E-07  2143   0.104E-03    0.303E-04
RMM:  14    -0.413212840939E+03    0.23609E-05   -0.18885E-07  1607   0.785E-04    0.196E-04
RMM:  15    -0.413212835462E+03    0.54765E-05   -0.13017E-07  1331   0.714E-04    0.126E-04
RMM:  16    -0.413212832956E+03    0.25059E-05   -0.83278E-08  1158   0.653E-04    0.887E-05
RMM:  17    -0.413212829559E+03    0.33970E-05   -0.70023E-08  1210   0.643E-04    0.636E-05
RMM:  18    -0.413212826844E+03    0.27147E-05   -0.53126E-08  1128   0.610E-04    0.371E-05
RMM:  19    -0.413212824761E+03    0.20837E-05   -0.39630E-08  1050   0.583E-04    0.318E-05
RMM:  20    -0.413212824518E+03    0.24220E-06   -0.17904E-08   743   0.534E-04
   42 T=    70. E= -.41286672E+03 F= -.41321282E+03 E0= -.41319178E+03  EK= 0.34611E+00 SP= 0.00E+00 SK= 0.00E+00
       N       E                     dE             d eps       ncg     rms          rms(c)
RMM:   1    -0.413232601057E+03   -0.19776E-01   -0.11596E+01  4312   0.135E+00    0.945E-01
RMM:   2    -0.413217659184E+03    0.14942E-01   -0.16401E-01  4291   0.148E-01    0.684E-01
RMM:   3    -0.413219356494E+03   -0.16973E-02   -0.13950E-02  5093   0.818E-02    0.332E-01
RMM:   4    -0.413252873213E+03   -0.33517E-01   -0.52586E-02  5082   0.194E-01    0.807E-01
RMM:   5    -0.413214678239E+03    0.38195E-01   -0.16629E-02  4719   0.135E-01    0.582E-02
RMM:   6    -0.413214730544E+03   -0.52305E-04   -0.29193E-03  5750   0.511E-02    0.321E-02
RMM:   7    -0.413214734851E+03   -0.43070E-05   -0.40646E-04  5781   0.183E-02    0.214E-02
RMM:   8    -0.413214730434E+03    0.44172E-05   -0.10929E-04  5173   0.106E-02    0.113E-02
RMM:   9    -0.413214718401E+03    0.12033E-04   -0.19513E-05  4413   0.548E-03    0.442E-03
RMM:  10    -0.413214714999E+03    0.34021E-05   -0.38302E-06  2767   0.252E-03    0.276E-03
RMM:  11    -0.413214710753E+03    0.42460E-05   -0.12409E-06  2494   0.183E-03    0.149E-03
RMM:  12    -0.413214705486E+03    0.52667E-05   -0.68709E-07  2432   0.142E-03    0.581E-04
RMM:  13    -0.413214702499E+03    0.29869E-05   -0.33869E-07  1998   0.986E-04    0.268E-04
RMM:  14    -0.413214700197E+03    0.23026E-05   -0.18961E-07  1509   0.773E-04    0.163E-04
RMM:  15    -0.413214695809E+03    0.43872E-05   -0.14179E-07  1291   0.718E-04    0.111E-04
RMM:  16    -0.413214694158E+03    0.16517E-05   -0.89305E-08  1145   0.658E-04    0.773E-05
RMM:  17    -0.413214691127E+03    0.30304E-05   -0.78470E-08  1236   0.656E-04    0.554E-05
RMM:  18    -0.413214689013E+03    0.21142E-05   -0.57908E-08  1126   0.611E-04    0.396E-05
RMM:  19    -0.413214687859E+03    0.11537E-05   -0.34306E-08   901   0.565E-04    0.208E-05
RMM:  20    -0.413214687329E+03    0.53085E-06   -0.21931E-08   767   0.542E-04
   43 T=    71. E= -.41286681E+03 F= -.41321469E+03 E0= -.41319367E+03  EK= 0.34788E+00 SP= 0.00E+00 SK= 0.00E+00
       N       E                     dE             d eps       ncg     rms          rms(c)
RMM:   1    -0.413235868653E+03   -0.21181E-01   -0.11707E+01  4312   0.140E+00    0.946E-01
RMM:   2    -0.413218989391E+03    0.16879E-01   -0.18064E-01  4291   0.166E-01    0.700E-01
RMM:   3    -0.413221379062E+03   -0.23897E-02   -0.14619E-02  5078   0.895E-02    0.368E-01
RMM:   4    -0.413254144047E+03   -0.32765E-01   -0.54940E-02  5067   0.199E-01    0.812E-01
RMM:   5    -0.413215646506E+03    0.38498E-01   -0.16569E-02  4711   0.136E-01    0.600E-02
RMM:   6    -0.413215687645E+03   -0.41139E-04   -0.28780E-03  5722   0.510E-02    0.320E-02
RMM:   7    -0.413215689791E+03   -0.21461E-05   -0.39734E-04  5816   0.182E-02    0.218E-02
RMM:   8    -0.413215685120E+03    0.46715E-05   -0.10568E-04  5176   0.105E-02    0.110E-02
RMM:   9    -0.413215674967E+03    0.10153E-04   -0.20326E-05  4431   0.557E-03    0.421E-03
RMM:  10    -0.413215672713E+03    0.22535E-05   -0.38744E-06  2772   0.249E-03    0.256E-03
RMM:  11    -0.413215669538E+03    0.31754E-05   -0.14061E-06  2519   0.185E-03    0.142E-03
RMM:  12    -0.413215666051E+03    0.34872E-05   -0.65835E-07  2436   0.138E-03    0.589E-04
RMM:  13    -0.413215663817E+03    0.22335E-05   -0.32691E-07  1864   0.944E-04    0.263E-04
RMM:  14    -0.413215661778E+03    0.20393E-05   -0.19795E-07  1471   0.772E-04    0.152E-04
RMM:  15    -0.413215658681E+03    0.30966E-05   -0.15079E-07  1282   0.717E-04    0.946E-05
RMM:  16    -0.413215657045E+03    0.16365E-05   -0.97091E-08  1163   0.661E-04    0.716E-05
RMM:  17    -0.413215654530E+03    0.25149E-05   -0.84434E-08  1199   0.652E-04    0.449E-05
RMM:  18    -0.413215652816E+03    0.17137E-05   -0.57322E-08  1079   0.609E-04    0.387E-05
RMM:  19    -0.413215651960E+03    0.85571E-06   -0.36338E-08   906   0.568E-04
   44 T=    71. E= -.41286656E+03 F= -.41321565E+03 E0= -.41319466E+03  EK= 0.34909E+00 SP= 0.00E+00 SK= 0.00E+00
       N       E                     dE             d eps       ncg     rms          rms(c)
RMM:   1    -0.413232715314E+03   -0.17062E-01   -0.11641E+01  4310   0.147E+00    0.973E-01
RMM:   2    -0.413219423108E+03    0.13292E-01   -0.16869E-01  4322   0.170E-01    0.693E-01
RMM:   3    -0.413226640134E+03   -0.72170E-02   -0.19105E-02  5123   0.107E-01    0.455E-01
RMM:   4    -0.413239631226E+03   -0.12991E-01   -0.43619E-02  5036   0.180E-01    0.634E-01
RMM:   5    -0.413216813052E+03    0.22818E-01   -0.86708E-03  4631   0.107E-01    0.553E-02
RMM:   6    -0.413216792205E+03    0.20847E-04   -0.17314E-03  5572   0.400E-02    0.308E-02
RMM:   7    -0.413216788534E+03    0.36708E-05   -0.28017E-04  5631   0.161E-02    0.207E-02
RMM:   8    -0.413216779916E+03    0.86183E-05   -0.10727E-04  5069   0.107E-02    0.982E-03
RMM:   9    -0.413216766673E+03    0.13243E-04   -0.15173E-05  4230   0.529E-03    0.397E-03
RMM:  10    -0.413216762890E+03    0.37827E-05   -0.26386E-06  2685   0.223E-03    0.232E-03
RMM:  11    -0.413216756431E+03    0.64597E-05   -0.11451E-06  2478   0.176E-03    0.127E-03
RMM:  12    -0.413216750390E+03    0.60407E-05   -0.56379E-07  2410   0.131E-03    0.594E-04
RMM:  13    -0.413216746862E+03    0.35279E-05   -0.26264E-07  1797   0.883E-04    0.287E-04
RMM:  14    -0.413216743488E+03    0.33745E-05   -0.14964E-07  1336   0.713E-04    0.154E-04
RMM:  15    -0.413216738241E+03    0.52469E-05   -0.12265E-07  1259   0.691E-04    0.121E-04
RMM:  16    -0.413216735756E+03    0.24847E-05   -0.75869E-08  1072   0.632E-04    0.970E-05
RMM:  17    -0.413216731387E+03    0.43693E-05   -0.77026E-08  1260   0.647E-04    0.654E-05
RMM:  18    -0.413216728808E+03    0.25784E-05   -0.51924E-08  1101   0.588E-04    0.425E-05
RMM:  19    -0.413216728019E+03    0.78969E-06   -0.27426E-08   824   0.534E-04
   45 T=    71. E= -.41286683E+03 F= -.41321673E+03 E0= -.41319576E+03  EK= 0.34990E+00 SP= 0.00E+00 SK= 0.00E+00
       N       E                     dE             d eps       ncg     rms          rms(c)
RMM:   1    -0.413251166763E+03   -0.34438E-01   -0.11691E+01  4310   0.162E+00    0.954E-01
RMM:   2    -0.413219056965E+03    0.32110E-01   -0.17954E-01  4338   0.185E-01    0.689E-01
RMM:   3    -0.413228366468E+03   -0.93095E-02   -0.20404E-02  5117   0.116E-01    0.504E-01
RMM:   4    -0.413235734612E+03   -0.73681E-02   -0.42228E-02  5024   0.179E-01    0.591E-01
RMM:   5    -0.413216312720E+03    0.19422E-01   -0.73137E-03  4598   0.102E-01    0.550E-02
RMM:   6    -0.413216271542E+03    0.41178E-04   -0.14308E-03  5448   0.369E-02    0.301E-02
RMM:   7    -0.413216267454E+03    0.40878E-05   -0.23696E-04  5628   0.150E-02    0.203E-02
RMM:   8    -0.413216259432E+03    0.80222E-05   -0.11513E-04  5082   0.110E-02    0.998E-03
RMM:   9    -0.413216245927E+03    0.13505E-04   -0.16173E-05  4307   0.550E-03    0.399E-03
RMM:  10    -0.413216242856E+03    0.30713E-05   -0.26983E-06  2699   0.222E-03    0.229E-03
RMM:  11    -0.413216236959E+03    0.58964E-05   -0.12736E-06  2486   0.181E-03    0.127E-03
RMM:  12    -0.413216232224E+03    0.47350E-05   -0.55726E-07  2419   0.131E-03    0.656E-04
RMM:  13    -0.413216228875E+03    0.33488E-05   -0.25672E-07  1767   0.880E-04    0.321E-04
RMM:  14    -0.413216225585E+03    0.32902E-05   -0.14202E-07  1308   0.704E-04    0.167E-04
RMM:  15    -0.413216221436E+03    0.41496E-05   -0.11238E-07  1239   0.675E-04    0.121E-04
RMM:  16    -0.413216219100E+03    0.23351E-05   -0.70990E-08  1084   0.621E-04    0.107E-04
RMM:  17    -0.413216215917E+03    0.31834E-05   -0.65069E-08  1182   0.618E-04    0.607E-05
RMM:  18    -0.413216213012E+03    0.29052E-05   -0.51594E-08  1099   0.587E-04    0.482E-05
RMM:  19    -0.413216212360E+03    0.65179E-06   -0.21504E-08   757   0.521E-04
   46 T=    71. E= -.41286658E+03 F= -.41321621E+03 E0= -.41319526E+03  EK= 0.34964E+00 SP= 0.00E+00 SK= 0.00E+00
       N       E                     dE             d eps       ncg     rms          rms(c)
RMM:   1    -0.413236205733E+03   -0.19993E-01   -0.11536E+01  4310   0.165E+00    0.941E-01
RMM:   2    -0.413218375537E+03    0.17830E-01   -0.18416E-01  4340   0.196E-01    0.701E-01
RMM:   3    -0.413228101485E+03   -0.97259E-02   -0.21146E-02  5117   0.122E-01    0.522E-01
RMM:   4    -0.413235776814E+03   -0.76753E-02   -0.45157E-02  5020   0.185E-01    0.608E-01
RMM:   5    -0.413215017240E+03    0.20760E-01   -0.77983E-03  4600   0.105E-01    0.567E-02
RMM:   6    -0.413214966925E+03    0.50315E-04   -0.15024E-03  5458   0.379E-02    0.302E-02
RMM:   7    -0.413214961909E+03    0.50160E-05   -0.24096E-04  5650   0.151E-02    0.209E-02
RMM:   8    -0.413214954269E+03    0.76399E-05   -0.11728E-04  5105   0.111E-02    0.102E-02
RMM:   9    -0.413214942004E+03    0.12265E-04   -0.17655E-05  4353   0.568E-03    0.404E-03
RMM:  10    -0.413214940006E+03    0.19978E-05   -0.29617E-06  2720   0.227E-03    0.233E-03
RMM:  11    -0.413214936037E+03    0.39697E-05   -0.14046E-06  2505   0.187E-03    0.132E-03
RMM:  12    -0.413214933032E+03    0.30042E-05   -0.59506E-07  2436   0.135E-03    0.691E-04
RMM:  13    -0.413214930536E+03    0.24969E-05   -0.29088E-07  1804   0.925E-04    0.330E-04
RMM:  14    -0.413214928188E+03    0.23473E-05   -0.16464E-07  1356   0.733E-04    0.176E-04
RMM:  15    -0.413214925414E+03    0.27743E-05   -0.12552E-07  1264   0.688E-04    0.111E-04
RMM:  16    -0.413214923604E+03    0.18097E-05   -0.80989E-08  1104   0.630E-04    0.979E-05
RMM:  17    -0.413214921376E+03    0.22279E-05   -0.71418E-08  1165   0.621E-04    0.544E-05
RMM:  18    -0.413214919184E+03    0.21926E-05   -0.56226E-08  1075   0.591E-04    0.441E-05
RMM:  19    -0.413214918768E+03    0.41535E-06   -0.23116E-08   741   0.527E-04
   47 T=    71. E= -.41286655E+03 F= -.41321492E+03 E0= -.41319398E+03  EK= 0.34837E+00 SP= 0.00E+00 SK= 0.00E+00
       N       E                     dE             d eps       ncg     rms          rms(c)
RMM:   1    -0.413246589685E+03   -0.31671E-01   -0.11549E+01  4306   0.179E+00    0.963E-01
RMM:   2    -0.413215439738E+03    0.31150E-01   -0.18469E-01  4396   0.203E-01    0.696E-01
RMM:   3    -0.413232285444E+03   -0.16846E-01   -0.27275E-02  5144   0.142E-01    0.627E-01
RMM:   4    -0.413225197392E+03    0.70881E-02   -0.40805E-02  4983   0.180E-01    0.488E-01
RMM:   5    -0.413212621308E+03    0.12576E-01   -0.49123E-03  4527   0.911E-02    0.560E-02
RMM:   6    -0.413212517995E+03    0.10331E-03   -0.72238E-04  4917   0.299E-02    0.293E-02
RMM:   7    -0.413212503052E+03    0.14943E-04   -0.16249E-04  5904   0.125E-02    0.125E-02
RMM:   8    -0.413212494280E+03    0.87711E-05   -0.44104E-05  5139   0.801E-03    0.786E-03
RMM:   9    -0.413212490149E+03    0.41314E-05   -0.88418E-06  3524   0.372E-03    0.339E-03
RMM:  10    -0.413212486715E+03    0.34340E-05   -0.20821E-06  2559   0.225E-03    0.229E-03
RMM:  11    -0.413212481571E+03    0.51441E-05   -0.14859E-06  2462   0.202E-03    0.153E-03
RMM:  12    -0.413212477883E+03    0.36875E-05   -0.53544E-07  2373   0.138E-03    0.860E-04
RMM:  13    -0.413212474158E+03    0.37253E-05   -0.24733E-07  1895   0.894E-04    0.459E-04
RMM:  14    -0.413212468689E+03    0.54688E-05   -0.20366E-07  1720   0.807E-04    0.417E-04
RMM:  15    -0.413212465183E+03    0.35062E-05   -0.97339E-08  1032   0.607E-04    0.155E-04
RMM:  16    -0.413212463062E+03    0.21208E-05   -0.62419E-08   946   0.580E-04    0.889E-05
RMM:  17    -0.413212459334E+03    0.37285E-05   -0.71324E-08  1124   0.611E-04    0.125E-04
RMM:  18    -0.413212458406E+03    0.92768E-06   -0.26864E-08   744   0.532E-04
   48 T=    70. E= -.41286684E+03 F= -.41321246E+03 E0= -.41319153E+03  EK= 0.34562E+00 SP= 0.00E+00 SK= 0.00E+00
       N       E                     dE             d eps       ncg     rms          rms(c)
RMM:   1    -0.413245360683E+03   -0.32901E-01   -0.11325E+01  4305   0.190E+00    0.952E-01
RMM:   2    -0.413210075462E+03    0.35285E-01   -0.18297E-01  4452   0.214E-01    0.685E-01
RMM:   3    -0.413233221442E+03   -0.23146E-01   -0.32520E-02  5155   0.158E-01    0.709E-01
RMM:   4    -0.413216004026E+03    0.17217E-01   -0.39442E-02  4965   0.180E-01    0.417E-01
RMM:   5    -0.413207414457E+03    0.85896E-02   -0.43326E-03  4576   0.879E-02    0.609E-02
RMM:   6    -0.413207251450E+03    0.16301E-03   -0.46098E-04  4701   0.285E-02    0.317E-02
RMM:   7    -0.413207257392E+03   -0.59424E-05   -0.26634E-04  5779   0.169E-02    0.230E-02
RMM:   8    -0.413207225856E+03    0.31536E-04   -0.93773E-05  5022   0.110E-02    0.884E-03
RMM:   9    -0.413207218445E+03    0.74108E-05   -0.16346E-05  4480   0.525E-03    0.460E-03
RMM:  10    -0.413207214118E+03    0.43277E-05   -0.21658E-06  2593   0.233E-03    0.250E-03
RMM:  11    -0.413207207791E+03    0.63265E-05   -0.12679E-06  2497   0.183E-03    0.172E-03
RMM:  12    -0.413207204114E+03    0.36766E-05   -0.40145E-07  2379   0.118E-03    0.869E-04
RMM:  13    -0.413207199087E+03    0.50275E-05   -0.27588E-07  1912   0.888E-04    0.418E-04
RMM:  14    -0.413207193716E+03    0.53709E-05   -0.21533E-07  1750   0.789E-04    0.382E-04
RMM:  15    -0.413207189253E+03    0.44633E-05   -0.12272E-07  1136   0.639E-04    0.149E-04
RMM:  16    -0.413207186872E+03    0.23803E-05   -0.74881E-08  1069   0.597E-04    0.964E-05
RMM:  17    -0.413207183798E+03    0.30747E-05   -0.64818E-08  1085   0.599E-04    0.748E-05
RMM:  18    -0.413207182440E+03    0.13573E-05   -0.38496E-08   922   0.556E-04    0.649E-05
RMM:  19    -0.413207180418E+03    0.20227E-05   -0.39311E-08  1004   0.560E-04    0.359E-05
RMM:  20    -0.413207179856E+03    0.56216E-06   -0.19432E-08   763   0.511E-04
   49 T=    69. E= -.41286655E+03 F= -.41320718E+03 E0= -.41318626E+03  EK= 0.34063E+00 SP= 0.00E+00 SK= 0.00E+00
       N       E                     dE             d eps       ncg     rms          rms(c)
RMM:   1    -0.413225554324E+03   -0.18374E-01   -0.10958E+01  4305   0.193E+00    0.922E-01
RMM:   2    -0.413203998676E+03    0.21556E-01   -0.18110E-01  4469   0.222E-01    0.688E-01
RMM:   3    -0.413226877673E+03   -0.22879E-01   -0.32416E-02  5152   0.160E-01    0.715E-01
RMM:   4    -0.413209814617E+03    0.17063E-01   -0.40639E-02  4962   0.183E-01    0.424E-01
RMM:   5    -0.413200677446E+03    0.91372E-02   -0.46491E-03  4600   0.912E-02    0.635E-02
RMM:   6    -0.413200491941E+03    0.18551E-03   -0.49146E-04  4707   0.297E-02    0.320E-02
RMM:   7    -0.413200496698E+03   -0.47568E-05   -0.27578E-04  5769   0.172E-02    0.231E-02
RMM:   8    -0.413200465970E+03    0.30728E-04   -0.92645E-05  5055   0.109E-02    0.930E-03
RMM:   9    -0.413200460181E+03    0.57887E-05   -0.18129E-05  4635   0.549E-03    0.466E-03
RMM:  10    -0.413200456828E+03    0.33537E-05   -0.24838E-06  2628   0.242E-03    0.257E-03
RMM:  11    -0.413200452494E+03    0.43340E-05   -0.12685E-06  2490   0.186E-03    0.179E-03
RMM:  12    -0.413200449830E+03    0.26636E-05   -0.42189E-07  2402   0.120E-03    0.929E-04
RMM:  13    -0.413200446326E+03    0.35039E-05   -0.30815E-07  2042   0.913E-04    0.451E-04
RMM:  14    -0.413200442687E+03    0.36388E-05   -0.23279E-07  1719   0.787E-04    0.353E-04
RMM:  15    -0.413200439520E+03    0.31668E-05   -0.14459E-07  1170   0.658E-04    0.142E-04
RMM:  16    -0.413200437834E+03    0.16869E-05   -0.89034E-08  1102   0.612E-04    0.922E-05
RMM:  17    -0.413200435470E+03    0.23634E-05   -0.90187E-08  1234   0.626E-04    0.856E-05
RMM:  18    -0.413200434847E+03    0.62279E-06   -0.39836E-08   903   0.544E-04
   50 T=    68. E= -.41286684E+03 F= -.41320043E+03 E0= -.41317952E+03  EK= 0.33360E+00 SP= 0.00E+00 SK= 0.00E+00
       N       E                     dE             d eps       ncg     rms          rms(c)
RMM:   1    -0.413226860070E+03   -0.26425E-01   -0.10764E+01  4303   0.211E+00    0.928E-01
RMM:   2    -0.413193958392E+03    0.32902E-01   -0.17973E-01  4515   0.235E-01    0.681E-01
RMM:   3    -0.413225071123E+03   -0.31113E-01   -0.39818E-02  5173   0.180E-01    0.808E-01
RMM:   4    -0.413196793463E+03    0.28278E-01   -0.41011E-02  4930   0.187E-01    0.359E-01
[...]
       N       E                     dE             d eps       ncg     rms          rms(c)
RMM:   1    -0.413482954673E+03    0.17511E+00   -0.12699E+01  4293   0.681E+00    0.108E+00
RMM:   2    -0.413458835394E+03    0.24119E-01   -0.33492E-01  5366   0.654E-01    0.879E-01
RMM:   3    -0.413517695165E+03   -0.58860E-01   -0.10896E-01  5607   0.329E-01    0.116E+00
RMM:   4    -0.413457235459E+03    0.60460E-01   -0.53622E-02  4961   0.265E-01    0.390E-01
RMM:   5    -0.413456586943E+03    0.64852E-03   -0.32506E-02  5228   0.221E-01    0.226E-01
RMM:   6    -0.413454674252E+03    0.19127E-02   -0.57025E-03  5039   0.101E-01    0.907E-02
RMM:   7    -0.413454569267E+03    0.10498E-03   -0.16898E-03  5615   0.476E-02    0.703E-02
RMM:   8    -0.413454488650E+03    0.80617E-04   -0.56601E-04  5017   0.289E-02    0.370E-02
RMM:   9    -0.413454489472E+03   -0.82177E-06   -0.23527E-04  4946   0.199E-02    0.163E-02
RMM:  10    -0.413454496122E+03   -0.66502E-05   -0.64289E-05  5720   0.902E-03    0.105E-02
RMM:  11    -0.413454501130E+03   -0.50077E-05   -0.14605E-05  4157   0.486E-03    0.598E-03
RMM:  12    -0.413454511987E+03   -0.10857E-04   -0.10561E-05  3687   0.461E-03    0.318E-03
RMM:  13    -0.413454517004E+03   -0.50164E-05   -0.27195E-06  2743   0.248E-03    0.170E-03
RMM:  14    -0.413454521334E+03   -0.43306E-05   -0.20002E-06  2665   0.191E-03    0.101E-03
RMM:  15    -0.413454523472E+03   -0.21374E-05   -0.11617E-06  2441   0.141E-03    0.707E-04
RMM:  16    -0.413454525155E+03   -0.16836E-05   -0.12593E-06  2447   0.137E-03    0.531E-04
RMM:  17    -0.413454525111E+03    0.44605E-07   -0.84039E-07  1996   0.108E-03
  139 T=   120. E= -.41286497E+03 F= -.41345453E+03 E0= -.41343282E+03  EK= 0.58956E+00 SP= 0.00E+00 SK= 0.00E+00
       N       E                     dE             d eps       ncg     rms          rms(c)
RMM:   1    -0.413355652867E+03    0.98872E-01   -0.79992E+00  4279   0.552E+00    0.774E-01
RMM:   2    -0.413351960535E+03    0.36923E-02   -0.22109E-01  5402   0.521E-01    0.648E-01
RMM:   3    -0.413376372379E+03   -0.24412E-01   -0.56393E-02  5660   0.236E-01    0.788E-01
RMM:   4    -0.413351912496E+03    0.24460E-01   -0.27862E-02  5086   0.185E-01    0.352E-01
RMM:   5    -0.413350015185E+03    0.18973E-02   -0.16853E-02  4711   0.170E-01    0.141E-01
RMM:   6    -0.413349382131E+03    0.63305E-03   -0.27792E-03  5116   0.704E-02    0.837E-02
RMM:   7    -0.413349206606E+03    0.17553E-03   -0.68200E-04  5130   0.334E-02    0.560E-02
RMM:   8    -0.413349158473E+03    0.48132E-04   -0.35401E-04  4584   0.242E-02    0.269E-02
RMM:   9    -0.413349176839E+03   -0.18366E-04   -0.17170E-04  5253   0.159E-02    0.155E-02
RMM:  10    -0.413349177696E+03   -0.85677E-06   -0.40979E-05  5322   0.754E-03    0.886E-03
RMM:  11    -0.413349179956E+03   -0.22601E-05   -0.13043E-05  4091   0.445E-03    0.503E-03
RMM:  12    -0.413349185678E+03   -0.57214E-05   -0.62526E-06  3226   0.375E-03    0.269E-03
RMM:  13    -0.413349189029E+03   -0.33512E-05   -0.21488E-06  2675   0.227E-03    0.156E-03
RMM:  14    -0.413349191033E+03   -0.20042E-05   -0.13935E-06  2574   0.168E-03    0.781E-04
RMM:  15    -0.413349192198E+03   -0.11652E-05   -0.89752E-07  2288   0.131E-03    0.597E-04
RMM:  16    -0.413349192541E+03   -0.34282E-06   -0.10320E-06  2374   0.128E-03
  140 T=    99. E= -.41286411E+03 F= -.41334919E+03 E0= -.41332771E+03  EK= 0.48508E+00 SP= 0.00E+00 SK= 0.00E+00
       N       E                     dE             d eps       ncg     rms          rms(c)
RMM:   1    -0.413369318499E+03   -0.20126E-01   -0.72419E+00  4265   0.520E+00    0.116E+00
RMM:   2    -0.413364115887E+03    0.52026E-02   -0.22160E-01  5421   0.562E-01    0.997E-01
RMM:   3    -0.413376074211E+03   -0.11958E-01   -0.60957E-02  5351   0.279E-01    0.731E-01
RMM:   4    -0.413425518271E+03   -0.49444E-01   -0.97388E-02  5238   0.297E-01    0.110E+00
RMM:   5    -0.413361184323E+03    0.64334E-01   -0.46577E-02  4827   0.267E-01    0.186E-01
RMM:   6    -0.413360494865E+03    0.68946E-03   -0.79229E-03  5581   0.104E-01    0.925E-02
RMM:   7    -0.413360364553E+03    0.13031E-03   -0.16239E-03  5474   0.440E-02    0.602E-02
RMM:   8    -0.413360293992E+03    0.70561E-04   -0.63408E-04  4937   0.310E-02    0.303E-02
RMM:   9    -0.413360310243E+03   -0.16251E-04   -0.23883E-04  5803   0.181E-02    0.210E-02
RMM:  10    -0.413360303037E+03    0.72060E-05   -0.52325E-05  5371   0.877E-03    0.107E-02
RMM:  11    -0.413360305671E+03   -0.26336E-05   -0.33710E-05  5226   0.658E-03    0.558E-03
RMM:  12    -0.413360308215E+03   -0.25449E-05   -0.45236E-06  2958   0.308E-03    0.308E-03
RMM:  13    -0.413360309979E+03   -0.17638E-05   -0.16749E-06  2584   0.211E-03    0.153E-03
RMM:  14    -0.413360311371E+03   -0.13918E-05   -0.91755E-07  2462   0.156E-03    0.687E-04
RMM:  15    -0.413360312163E+03   -0.79224E-06   -0.57543E-07  2182   0.116E-03
  141 T=    99. E= -.41287227E+03 F= -.41336031E+03 E0= -.41333939E+03  EK= 0.48804E+00 SP= 0.00E+00 SK= 0.00E+00
       N       E                     dE             d eps       ncg     rms          rms(c)
RMM:   1    -0.413397983595E+03   -0.37672E-01   -0.77194E+00  4281   0.529E+00    0.117E+00
RMM:   2    -0.413389138658E+03    0.88449E-02   -0.24253E-01  5417   0.574E-01    0.100E+00
RMM:   3    -0.413408038959E+03   -0.18900E-01   -0.67049E-02  5424   0.287E-01    0.810E-01
RMM:   4    -0.413431530003E+03   -0.23491E-01   -0.85587E-02  5221   0.284E-01    0.940E-01
RMM:   5    -0.413386993221E+03    0.44537E-01   -0.41353E-02  4841   0.258E-01    0.196E-01
RMM:   6    -0.413385832506E+03    0.11607E-02   -0.72522E-03  5362   0.105E-01    0.920E-02
RMM:   7    -0.413385590473E+03    0.24203E-03   -0.14868E-03  5288   0.461E-02    0.526E-02
RMM:   8    -0.413385534120E+03    0.56353E-04   -0.57114E-04  5126   0.298E-02    0.278E-02
RMM:   9    -0.413385547185E+03   -0.13065E-04   -0.18301E-04  5939   0.154E-02    0.192E-02
RMM:  10    -0.413385542613E+03    0.45720E-05   -0.48375E-05  5270   0.843E-03    0.943E-03
RMM:  11    -0.413385545196E+03   -0.25831E-05   -0.26882E-05  5023   0.591E-03    0.522E-03
RMM:  12    -0.413385546631E+03   -0.14347E-05   -0.33146E-06  2825   0.280E-03    0.271E-03
RMM:  13    -0.413385548259E+03   -0.16277E-05   -0.17188E-06  2570   0.207E-03    0.146E-03
RMM:  14    -0.413385549692E+03   -0.14329E-05   -0.68331E-07  2410   0.144E-03    0.606E-04
RMM:  15    -0.413385550734E+03   -0.10420E-05   -0.34722E-07  1965   0.992E-04    0.325E-04
RMM:  16    -0.413385551813E+03   -0.10790E-05   -0.23694E-07  1675   0.824E-04    0.184E-04
RMM:  17    -0.413385552581E+03   -0.76829E-06   -0.16101E-07  1362   0.714E-04
  142 T=   105. E= -.41286981E+03 F= -.41338555E+03 E0= -.41336522E+03  EK= 0.51574E+00 SP= 0.00E+00 SK= 0.00E+00
       N       E                     dE             d eps       ncg     rms          rms(c)
RMM:   1    -0.413440800786E+03   -0.55249E-01   -0.81555E+00  4294   0.544E+00    0.953E-01
RMM:   2    -0.413425870500E+03    0.14930E-01   -0.20831E-01  5337   0.528E-01    0.759E-01
RMM:   3    -0.413427360381E+03   -0.14899E-02   -0.38269E-02  5190   0.242E-01    0.385E-01
RMM:   4    -0.413489041428E+03   -0.61681E-01   -0.71677E-02  5198   0.255E-01    0.105E+00
RMM:   5    -0.413425073119E+03    0.63968E-01   -0.33011E-02  4974   0.201E-01    0.134E-01
RMM:   6    -0.413424737837E+03    0.33528E-03   -0.80151E-03  5668   0.984E-02    0.666E-02
RMM:   7    -0.413424592442E+03    0.14540E-03   -0.16575E-03  5546   0.436E-02    0.385E-02
RMM:   8    -0.413424585119E+03    0.73228E-05   -0.34070E-04  5554   0.215E-02    0.244E-02
RMM:   9    -0.413424587021E+03   -0.19026E-05   -0.69544E-05  5235   0.997E-03    0.115E-02
RMM:  10    -0.413424593741E+03   -0.67201E-05   -0.30993E-05  5218   0.640E-03    0.686E-03
RMM:  11    -0.413424596823E+03   -0.30815E-05   -0.83052E-06  3541   0.363E-03    0.350E-03
RMM:  12    -0.413424599968E+03   -0.31452E-05   -0.21927E-06  2609   0.249E-03    0.181E-03
RMM:  13    -0.413424602590E+03   -0.26219E-05   -0.11907E-06  2513   0.183E-03    0.115E-03
RMM:  14    -0.413424605034E+03   -0.24437E-05   -0.61421E-07  2432   0.132E-03    0.567E-04
RMM:  15    -0.413424606411E+03   -0.13769E-05   -0.31819E-07  1904   0.916E-04    0.314E-04
RMM:  16    -0.413424608353E+03   -0.19428E-05   -0.29878E-07  1893   0.886E-04    0.213E-04
RMM:  17    -0.413424610196E+03   -0.18425E-05   -0.23802E-07  1661   0.782E-04    0.164E-04
RMM:  18    -0.413424611273E+03   -0.10770E-05   -0.14606E-07  1302   0.665E-04    0.754E-05
RMM:  19    -0.413424612425E+03   -0.11523E-05   -0.11484E-07  1270   0.635E-04    0.380E-05
RMM:  20    -0.413424613270E+03   -0.84479E-06   -0.76089E-08  1133   0.590E-04
  143 T=   112. E= -.41287307E+03 F= -.41342461E+03 E0= -.41340465E+03  EK= 0.55154E+00 SP= 0.00E+00 SK= 0.00E+00
       N       E                     dE             d eps       ncg     rms          rms(c)
RMM:   1    -0.413452489976E+03   -0.27878E-01   -0.86229E+00  4298   0.560E+00    0.102E+00
RMM:   2    -0.413429774278E+03    0.22716E-01   -0.18667E-01  5256   0.520E-01    0.795E-01
RMM:   3    -0.413496191599E+03   -0.66417E-01   -0.90485E-02  5452   0.313E-01    0.115E+00
RMM:   4    -0.413434896808E+03    0.61295E-01   -0.61548E-02  5032   0.264E-01    0.392E-01
RMM:   5    -0.413428649447E+03    0.62474E-02   -0.21254E-02  5119   0.187E-01    0.109E-01
RMM:   6    -0.413428316074E+03    0.33337E-03   -0.21362E-03  5312   0.616E-02    0.540E-02
RMM:   7    -0.413428260830E+03    0.55244E-04   -0.72104E-04  5368   0.309E-02    0.351E-02
RMM:   8    -0.413428238262E+03    0.22568E-04   -0.28045E-04  5413   0.197E-02    0.216E-02
RMM:   9    -0.413428240528E+03   -0.22660E-05   -0.66366E-05  5584   0.982E-03    0.139E-02
RMM:  10    -0.413428245248E+03   -0.47197E-05   -0.30741E-05  5108   0.687E-03    0.580E-03
RMM:  11    -0.413428250680E+03   -0.54319E-05   -0.10448E-05  3752   0.383E-03    0.452E-03
RMM:  12    -0.413428254061E+03   -0.33812E-05   -0.21779E-06  2669   0.253E-03    0.185E-03
RMM:  13    -0.413428257008E+03   -0.29471E-05   -0.13494E-06  2549   0.180E-03    0.108E-03
RMM:  14    -0.413428259643E+03   -0.26351E-05   -0.85660E-07  2427   0.142E-03    0.525E-04
RMM:  15    -0.413428261251E+03   -0.16075E-05   -0.47761E-07  2063   0.102E-03    0.339E-04
RMM:  16    -0.413428262712E+03   -0.14611E-05   -0.42663E-07  2011   0.952E-04    0.207E-04
RMM:  17    -0.413428263575E+03   -0.86351E-06   -0.28410E-07  1663   0.789E-04
  144 T=   113. E= -.41287549E+03 F= -.41342826E+03 E0= -.41340843E+03  EK= 0.55278E+00 SP= 0.00E+00 SK= 0.00E+00
       N       E                     dE             d eps       ncg     rms          rms(c)
RMM:   1    -0.413378548476E+03    0.49714E-01   -0.72451E+00  4299   0.518E+00    0.806E-01
RMM:   2    -0.413364594159E+03    0.13954E-01   -0.14791E-01  5293   0.467E-01    0.675E-01
RMM:   3    -0.413389688061E+03   -0.25094E-01   -0.48745E-02  5562   0.232E-01    0.866E-01
RMM:   4    -0.413362871484E+03    0.26817E-01   -0.27960E-02  5017   0.193E-01    0.296E-01
RMM:   5    -0.413361515794E+03    0.13557E-02   -0.12645E-02  4862   0.149E-01    0.109E-01
RMM:   6    -0.413361302691E+03    0.21310E-03   -0.24184E-03  5464   0.603E-02    0.616E-02
RMM:   7    -0.413361163207E+03    0.13948E-03   -0.62128E-04  5078   0.297E-02    0.340E-02
RMM:   8    -0.413361159352E+03    0.38554E-05   -0.22891E-04  5549   0.186E-02    0.210E-02
RMM:   9    -0.413361167374E+03   -0.80227E-05   -0.64863E-05  5305   0.993E-03    0.124E-02
RMM:  10    -0.413361173450E+03   -0.60760E-05   -0.28438E-05  5158   0.663E-03    0.570E-03
RMM:  11    -0.413361180481E+03   -0.70311E-05   -0.73579E-06  3288   0.347E-03    0.423E-03
RMM:  12    -0.413361185746E+03   -0.52641E-05   -0.24701E-06  2713   0.257E-03    0.166E-03
RMM:  13    -0.413361188169E+03   -0.24235E-05   -0.11941E-06  2536   0.162E-03    0.950E-04
RMM:  14    -0.413361190688E+03   -0.25189E-05   -0.11115E-06  2455   0.150E-03    0.538E-04
RMM:  15    -0.413361191631E+03   -0.94343E-06   -0.71477E-07  2122   0.111E-03
  145 T=   100. E= -.41287041E+03 F= -.41336119E+03 E0= -.41334132E+03  EK= 0.49078E+00 SP= 0.00E+00 SK= 0.00E+00
       N       E                     dE             d eps       ncg     rms          rms(c)
RMM:   1    -0.413288458736E+03    0.72732E-01   -0.48107E+00  4299   0.433E+00    0.524E-01
RMM:   2    -0.413290564688E+03   -0.21060E-02   -0.94813E-02  5305   0.373E-01    0.511E-01
RMM:   3    -0.413289901836E+03    0.66285E-03   -0.19279E-02  5631   0.152E-01    0.485E-01
RMM:   4    -0.413285578535E+03    0.43233E-02   -0.76692E-03  5053   0.108E-01    0.232E-01
RMM:   5    -0.413286004795E+03   -0.42626E-03   -0.92563E-03  4955   0.120E-01    0.129E-01
RMM:   6    -0.413285226251E+03    0.77854E-03   -0.32404E-03  5038   0.697E-02    0.615E-02
RMM:   7    -0.413285093808E+03    0.13244E-03   -0.41112E-04  5048   0.289E-02    0.325E-02
RMM:   8    -0.413285102491E+03   -0.86822E-05   -0.17597E-04  5569   0.159E-02    0.181E-02
RMM:   9    -0.413285112945E+03   -0.10454E-04   -0.54645E-05  5054   0.910E-03    0.853E-03
RMM:  10    -0.413285119358E+03   -0.64129E-05   -0.15212E-05  4370   0.492E-03    0.502E-03
RMM:  11    -0.413285126557E+03   -0.71993E-05   -0.57544E-06  3249   0.346E-03    0.364E-03
RMM:  12    -0.413285132518E+03   -0.59610E-05   -0.24305E-06  2703   0.248E-03    0.182E-03
RMM:  13    -0.413285134786E+03   -0.22680E-05   -0.13156E-06  2537   0.161E-03    0.934E-04
RMM:  14    -0.413285136318E+03   -0.15321E-05   -0.12649E-06  2481   0.148E-03    0.602E-04
RMM:  15    -0.413285136152E+03    0.16651E-06   -0.13350E-06  2377   0.140E-03
  146 T=    85. E= -.41286740E+03 F= -.41328514E+03 E0= -.41326518E+03  EK= 0.41774E+00 SP= 0.00E+00 SK= 0.00E+00
       N       E                     dE             d eps       ncg     rms          rms(c)
RMM:   1    -0.413244042261E+03    0.41094E-01   -0.30887E+00  4300   0.363E+00    0.519E-01
RMM:   2    -0.413251878475E+03   -0.78362E-02   -0.62394E-02  5239   0.312E-01    0.514E-01
RMM:   3    -0.413249409556E+03    0.24689E-02   -0.15656E-02  5538   0.136E-01    0.465E-01
RMM:   4    -0.413246019712E+03    0.33898E-02   -0.86789E-03  5177   0.111E-01    0.208E-01
RMM:   5    -0.413246291131E+03   -0.27142E-03   -0.10397E-02  5020   0.121E-01    0.127E-01
RMM:   6    -0.413245248303E+03    0.10428E-02   -0.25287E-03  4938   0.649E-02    0.489E-02
RMM:   7    -0.413245207047E+03    0.41256E-04   -0.31328E-04  5347   0.237E-02    0.274E-02
RMM:   8    -0.413245215063E+03   -0.80161E-05   -0.10898E-04  5441   0.128E-02    0.165E-02
RMM:   9    -0.413245227183E+03   -0.12120E-04   -0.38812E-05  4655   0.803E-03    0.679E-03
RMM:  10    -0.413245233865E+03   -0.66820E-05   -0.12237E-05  4126   0.446E-03    0.423E-03
RMM:  11    -0.413245238379E+03   -0.45139E-05   -0.37830E-06  2909   0.296E-03    0.273E-03
RMM:  12    -0.413245243404E+03   -0.50253E-05   -0.25229E-06  2723   0.244E-03    0.165E-03
RMM:  13    -0.413245245130E+03   -0.17260E-05   -0.12405E-06  2524   0.159E-03    0.927E-04
RMM:  14    -0.413245245506E+03   -0.37582E-06   -0.11029E-06  2419   0.136E-03
  147 T=    77. E= -.41286725E+03 F= -.41324525E+03 E0= -.41322522E+03  EK= 0.37799E+00 SP= 0.00E+00 SK= 0.00E+00
       N       E                     dE             d eps       ncg     rms          rms(c)
RMM:   1    -0.413246612687E+03   -0.13676E-02   -0.23717E+00  4298   0.321E+00    0.515E-01
RMM:   2    -0.413252153661E+03   -0.55410E-02   -0.48821E-02  5156   0.284E-01    0.481E-01
RMM:   3    -0.413253234580E+03   -0.10809E-02   -0.15103E-02  5510   0.129E-01    0.485E-01
RMM:   4    -0.413248171657E+03    0.50629E-02   -0.90605E-03  5162   0.111E-01    0.202E-01
RMM:   5    -0.413248311426E+03   -0.13977E-03   -0.89513E-03  5029   0.113E-01    0.116E-01
RMM:   6    -0.413247438550E+03    0.87288E-03   -0.24047E-03  5006   0.616E-02    0.467E-02
RMM:   7    -0.413247388284E+03    0.50266E-04   -0.24947E-04  5199   0.220E-02    0.242E-02
RMM:   8    -0.413247394620E+03   -0.63356E-05   -0.91205E-05  5530   0.113E-02    0.145E-02
RMM:   9    -0.413247404499E+03   -0.98793E-05   -0.29854E-05  4622   0.709E-03    0.640E-03
RMM:  10    -0.413247408085E+03   -0.35857E-05   -0.77045E-06  3545   0.372E-03    0.377E-03
RMM:  11    -0.413247410992E+03   -0.29076E-05   -0.36001E-06  2906   0.284E-03    0.217E-03
RMM:  12    -0.413247414116E+03   -0.31234E-05   -0.20563E-06  2651   0.225E-03    0.137E-03
RMM:  13    -0.413247415015E+03   -0.89904E-06   -0.10837E-06  2457   0.147E-03
  148 T=    78. E= -.41286664E+03 F= -.41324742E+03 E0= -.41322737E+03  EK= 0.38077E+00 SP= 0.00E+00 SK= 0.00E+00
       N       E                     dE             d eps       ncg     rms          rms(c)
RMM:   1    -0.413295913585E+03   -0.48499E-01   -0.27063E+00  4298   0.342E+00    0.432E-01
RMM:   2    -0.413299115705E+03   -0.32021E-02   -0.50523E-02  5083   0.293E-01    0.370E-01
RMM:   3    -0.413305026593E+03   -0.59109E-02   -0.14325E-02  5573   0.124E-01    0.456E-01
RMM:   4    -0.413298351840E+03    0.66748E-02   -0.68952E-03  5095   0.973E-02    0.173E-01
RMM:   5    -0.413298403408E+03   -0.51568E-04   -0.48772E-03  5000   0.885E-02    0.822E-02
RMM:   6    -0.413298034971E+03    0.36844E-03   -0.15127E-03  5135   0.472E-02    0.412E-02
RMM:   7    -0.413297973333E+03    0.61638E-04   -0.18932E-04  4964   0.192E-02    0.201E-02
RMM:   8    -0.413297976360E+03   -0.30267E-05   -0.80388E-05  5657   0.102E-02    0.119E-02
RMM:   9    -0.413297979474E+03   -0.31144E-05   -0.20901E-05  4564   0.592E-03    0.574E-03
RMM:  10    -0.413297981005E+03   -0.15307E-05   -0.55185E-06  3190   0.328E-03    0.341E-03
RMM:  11    -0.413297982520E+03   -0.15156E-05   -0.25629E-06  2708   0.249E-03    0.180E-03
RMM:  12    -0.413297984445E+03   -0.19249E-05   -0.14577E-06  2559   0.192E-03    0.110E-03
RMM:  13    -0.413297985198E+03   -0.75327E-06   -0.81644E-07  2345   0.131E-03
  149 T=    88. E= -.41286696E+03 F= -.41329799E+03 E0= -.41327801E+03  EK= 0.43102E+00 SP= 0.00E+00 SK= 0.00E+00
       N       E                     dE             d eps       ncg     rms          rms(c)
RMM:   1    -0.413387851702E+03   -0.89867E-01   -0.42980E+00  4298   0.408E+00    0.465E-01
RMM:   2    -0.413387912887E+03   -0.61185E-04   -0.84672E-02  5017   0.363E-01    0.371E-01
RMM:   3    -0.413390469908E+03   -0.25570E-02   -0.12294E-02  5545   0.132E-01    0.257E-01
RMM:   4    -0.413398994906E+03   -0.85250E-02   -0.15702E-02  5220   0.119E-01    0.429E-01
RMM:   5    -0.413388710144E+03    0.10285E-01   -0.73193E-03  4984   0.105E-01    0.682E-02
RMM:   6    -0.413388562223E+03    0.14792E-03   -0.13656E-03  5424   0.440E-02    0.345E-02
RMM:   7    -0.413388513062E+03    0.49161E-04   -0.33473E-04  5510   0.198E-02    0.178E-02
RMM:   8    -0.413388508063E+03    0.49997E-05   -0.90727E-05  5761   0.111E-02    0.116E-02
RMM:   9    -0.413388502331E+03    0.57317E-05   -0.19848E-05  4585   0.547E-03    0.678E-03
RMM:  10    -0.413388501776E+03    0.55514E-06   -0.10268E-05  4041   0.419E-03    0.355E-03
RMM:  11    -0.413388502981E+03   -0.12058E-05   -0.29749E-06  2749   0.267E-03    0.260E-03
RMM:  12    -0.413388505330E+03   -0.23488E-05   -0.13171E-06  2551   0.195E-03    0.129E-03
RMM:  13    -0.413388507610E+03   -0.22792E-05   -0.75382E-07  2468   0.135E-03    0.754E-04
RMM:  14    -0.413388510424E+03   -0.28141E-05   -0.76867E-07  2334   0.125E-03    0.441E-04
RMM:  15    -0.413388512544E+03   -0.21202E-05   -0.57444E-07  2099   0.104E-03    0.254E-04
RMM:  16    -0.413388514275E+03   -0.17308E-05   -0.50337E-07  2048   0.957E-04    0.153E-04
RMM:  17    -0.413388515606E+03   -0.13318E-05   -0.33975E-07  1652   0.795E-04    0.824E-05
RMM:  18    -0.413388516538E+03   -0.93181E-06   -0.21944E-07  1444   0.701E-04
  150 T=   105. E= -.41287032E+03 F= -.41338852E+03 E0= -.41336870E+03  EK= 0.51820E+00 SP= 0.00E+00 SK= 0.00E+00
