       N       E                     dE             d eps       ncg     rms          rms(c)
RMM:   1     0.220166497370E+04    0.22017E+04   -0.52443E+04  2132   0.654E+02
RMM:   2     0.705889866505E+03   -0.14958E+04   -0.16264E+04  2132   0.177E+02
RMM:   3     0.137732518716E+03   -0.56816E+03   -0.65724E+03  2132   0.117E+02
RMM:   4    -0.159394153485E+03   -0.29713E+03   -0.27870E+03  2132   0.936E+01
RMM:   5    -0.287541831025E+03   -0.12815E+03   -0.11446E+03  2132   0.595E+01
RMM:   6    -0.349864524827E+03   -0.62323E+02   -0.55097E+02  2132   0.423E+01
RMM:   7    -0.382672656642E+03   -0.32808E+02   -0.30375E+02  2132   0.293E+01
RMM:   8    -0.404269483699E+03   -0.21597E+02   -0.18439E+02  2132   0.234E+01
RMM:   9    -0.435995553057E+03   -0.31726E+02   -0.30566E+02  6105   0.173E+01
RMM:  10    -0.441281963642E+03   -0.52864E+01   -0.62698E+01  6395   0.538E+00
RMM:  11    -0.442512996884E+03   -0.12310E+01   -0.11211E+01  6216   0.173E+00
RMM:  12    -0.442880817588E+03   -0.36782E+00   -0.26287E+00  6372   0.599E-01    0.134E+02
RMM:  13    -0.425614197179E+03    0.17267E+02   -0.80972E+01  4678   0.119E+01    0.712E+01
RMM:  14    -0.499689332330E+03   -0.74075E+02   -0.54336E+02  5426   0.233E+01    0.307E+01
RMM:  15    -0.414874336887E+03    0.84815E+02   -0.19715E+02  5059   0.163E+01    0.645E+00
RMM:  16    -0.414017054684E+03    0.85728E+00   -0.39593E+01  6082   0.608E+00    0.425E+00
RMM:  17    -0.413211661411E+03    0.80539E+00   -0.24220E+00  5379   0.184E+00    0.243E+00
RMM:  18    -0.413172047215E+03    0.39614E-01   -0.83536E-01  5969   0.930E-01    0.163E+00
RMM:  19    -0.413167891961E+03    0.41553E-02   -0.30973E-01  5688   0.591E-01    0.845E-01
RMM:  20    -0.413181820629E+03   -0.13929E-01   -0.19546E-01  5453   0.480E-01    0.509E-01
RMM:  21    -0.413168192350E+03    0.13628E-01   -0.33340E-02  5033   0.222E-01    0.242E-01
RMM:  22    -0.413166530529E+03    0.16618E-02   -0.13554E-02  6060   0.975E-02    0.143E-01
RMM:  23    -0.413164936163E+03    0.15944E-02   -0.49127E-03  5858   0.628E-02    0.812E-02
RMM:  24    -0.413163251438E+03    0.16847E-02   -0.18041E-03  5587   0.416E-02    0.366E-02
RMM:  25    -0.413162912019E+03    0.33942E-03   -0.84054E-04  5703   0.244E-02    0.305E-02
RMM:  26    -0.413163061396E+03   -0.14938E-03   -0.70273E-04  5819   0.273E-02    0.344E-02
RMM:  27    -0.413163432093E+03   -0.37070E-03   -0.20658E-04  4601   0.201E-02    0.171E-02
RMM:  28    -0.413163898405E+03   -0.46631E-03   -0.21409E-04  5326   0.206E-02    0.927E-03
RMM:  29    -0.413164229874E+03   -0.33147E-03   -0.97167E-05  4388   0.141E-02    0.512E-03
RMM:  30    -0.413164429262E+03   -0.19939E-03   -0.68631E-05  4023   0.948E-03    0.318E-03
RMM:  31    -0.413164545949E+03   -0.11669E-03   -0.49621E-05  3125   0.666E-03    0.263E-03
RMM:  32    -0.413164569197E+03   -0.23248E-04   -0.20820E-05  2949   0.308E-03    0.126E-03
RMM:  33    -0.413164577075E+03   -0.78778E-05   -0.85348E-06  2759   0.210E-03    0.501E-04
RMM:  34    -0.413164578937E+03   -0.18619E-05   -0.43431E-06  2659   0.164E-03    0.766E-04
RMM:  35    -0.413164577770E+03    0.11668E-05   -0.21872E-06  2226   0.113E-03    0.683E-04
RMM:  36    -0.413164576185E+03    0.15854E-05   -0.12245E-06  1474   0.828E-04    0.339E-04
RMM:  37    -0.413164575979E+03    0.20520E-06   -0.35579E-06  1611   0.781E-04
    1 T=    61. E= -.41286676E+03 F= -.41316458E+03 E0= -.41314208E+03  EK= 0.29781E+00 SP= 0.00E+00 SK= 0.00E+00
       N       E                     dE             d eps       ncg     rms          rms(c)
RMM:   1    -0.413170177484E+03   -0.56013E-02   -0.71628E+00  3992   0.535E-01    0.897E-01
RMM:   2    -0.413170619062E+03   -0.44158E-03   -0.90289E-02  3957   0.801E-02    0.660E-01
RMM:   3    -0.413166420976E+03    0.41981E-02   -0.36895E-02  5034   0.708E-02    0.232E-01
RMM:   4    -0.413192428176E+03   -0.26007E-01   -0.33632E-02  5160   0.155E-01    0.697E-01
RMM:   5    -0.413164070187E+03    0.28358E-01   -0.13218E-02  4789   0.118E-01    0.498E-02
RMM:   6    -0.413164268778E+03   -0.19859E-03   -0.24702E-03  5717   0.485E-02    0.347E-02
RMM:   7    -0.413164278337E+03   -0.95587E-05   -0.43697E-04  5653   0.193E-02    0.226E-02
RMM:   8    -0.413164276477E+03    0.18599E-05   -0.56680E-05  5241   0.844E-03    0.966E-03
RMM:   9    -0.413164278561E+03   -0.20842E-05   -0.11395E-05  3668   0.371E-03    0.656E-03
RMM:  10    -0.413164284063E+03   -0.55023E-05   -0.22547E-06  2592   0.229E-03    0.390E-03
RMM:  11    -0.413164287786E+03   -0.37224E-05   -0.11420E-06  2512   0.164E-03    0.218E-03
RMM:  12    -0.413164294258E+03   -0.64726E-05   -0.15907E-06  2555   0.180E-03    0.103E-03
RMM:  13    -0.413164297674E+03   -0.34159E-05   -0.73421E-07  2407   0.130E-03    0.808E-04
RMM:  14    -0.413164297604E+03    0.70162E-07   -0.32807E-07  1902   0.866E-04
    2 T=    61. E= -.41286652E+03 F= -.41316430E+03 E0= -.41314180E+03  EK= 0.29778E+00 SP= 0.00E+00 SK= 0.00E+00
       N       E                     dE             d eps       ncg     rms          rms(c)
RMM:   1    -0.413171234606E+03   -0.69369E-02   -0.71267E+00  4186   0.535E-01    0.912E-01
RMM:   2    -0.413170888090E+03    0.34652E-03   -0.90313E-02  4023   0.813E-02    0.658E-01
RMM:   3    -0.413166489267E+03    0.43988E-02   -0.33692E-02  5004   0.647E-02    0.194E-01
RMM:   4    -0.413193380398E+03   -0.26891E-01   -0.32386E-02  5148   0.152E-01    0.701E-01
RMM:   5    -0.413164683326E+03    0.28697E-01   -0.13356E-02  4792   0.117E-01    0.497E-02
RMM:   6    -0.413164882526E+03   -0.19920E-03   -0.24573E-03  5721   0.488E-02    0.361E-02
RMM:   7    -0.413164871008E+03    0.11518E-04   -0.43906E-04  5611   0.199E-02    0.231E-02
RMM:   8    -0.413164861704E+03    0.93047E-05   -0.57085E-05  5189   0.876E-03    0.103E-02
RMM:   9    -0.413164860286E+03    0.14177E-05   -0.11590E-05  3714   0.382E-03    0.707E-03
RMM:  10    -0.413164860596E+03   -0.30982E-06   -0.21557E-06  2587   0.235E-03
    3 T=    61. E= -.41286686E+03 F= -.41316486E+03 E0= -.41314237E+03  EK= 0.29801E+00 SP= 0.00E+00 SK= 0.00E+00
       N       E                     dE             d eps       ncg     rms          rms(c)
RMM:   1    -0.413170658708E+03   -0.57984E-02   -0.70771E+00  4219   0.540E-01    0.898E-01
RMM:   2    -0.413170399758E+03    0.25895E-03   -0.89844E-02  4223   0.812E-02    0.652E-01
RMM:   3    -0.413173765595E+03   -0.33658E-02   -0.38734E-02  5171   0.101E-01    0.412E-01
RMM:   4    -0.413181000490E+03   -0.72349E-02   -0.33690E-02  5079   0.160E-01    0.537E-01
RMM:   5    -0.413164616574E+03    0.16384E-01   -0.63369E-03  4606   0.896E-02    0.530E-02
RMM:   6    -0.413164627200E+03   -0.10626E-04   -0.12478E-03  5337   0.354E-02    0.314E-02
RMM:   7    -0.413164642020E+03   -0.14820E-04   -0.25352E-04  5747   0.151E-02    0.181E-02
RMM:   8    -0.413164637902E+03    0.41184E-05   -0.40043E-05  5009   0.760E-03    0.685E-03
RMM:   9    -0.413164637261E+03    0.64034E-06   -0.45689E-06  2883   0.287E-03
    4 T=    61. E= -.41286667E+03 F= -.41316464E+03 E0= -.41314215E+03  EK= 0.29797E+00 SP= 0.00E+00 SK= 0.00E+00
       N       E                     dE             d eps       ncg     rms          rms(c)
RMM:   1    -0.413170656724E+03   -0.60188E-02   -0.71551E+00  4238   0.548E-01    0.894E-01
RMM:   2    -0.413170747095E+03   -0.90370E-04   -0.90513E-02  4088   0.767E-02    0.659E-01
RMM:   3    -0.413170264923E+03    0.48217E-03   -0.38839E-02  5140   0.846E-02    0.335E-01
RMM:   4    -0.413188098140E+03   -0.17833E-01   -0.35964E-02  5107   0.163E-01    0.640E-01
RMM:   5    -0.413164663044E+03    0.23435E-01   -0.10080E-02  4693   0.106E-01    0.525E-02
RMM:   6    -0.413164762809E+03   -0.99765E-04   -0.18410E-03  5593   0.427E-02    0.317E-02
RMM:   7    -0.413164783147E+03   -0.20338E-04   -0.33735E-04  5793   0.165E-02    0.198E-02
RMM:   8    -0.413164785152E+03   -0.20044E-05   -0.46333E-05  5090   0.779E-03    0.762E-03
RMM:   9    -0.413164786912E+03   -0.17598E-05   -0.66033E-06  3148   0.313E-03    0.447E-03
RMM:  10    -0.413164791608E+03   -0.46962E-05   -0.17197E-06  2550   0.207E-03    0.275E-03
RMM:  11    -0.413164795311E+03   -0.37028E-05   -0.94355E-07  2502   0.153E-03    0.138E-03
RMM:  12    -0.413164799949E+03   -0.46387E-05   -0.98886E-07  2508   0.142E-03    0.669E-04
RMM:  13    -0.413164802280E+03   -0.23307E-05   -0.51168E-07  2154   0.106E-03    0.390E-04
RMM:  14    -0.413164802857E+03   -0.57720E-06   -0.23287E-07  1629   0.790E-04
    5 T=    61. E= -.41286669E+03 F= -.41316480E+03 E0= -.41314233E+03  EK= 0.29812E+00 SP= 0.00E+00 SK= 0.00E+00
       N       E                     dE             d eps       ncg     rms          rms(c)
RMM:   1    -0.413171525203E+03   -0.67229E-02   -0.71383E+00  4245   0.549E-01    0.909E-01
RMM:   2    -0.413171063590E+03    0.46161E-03   -0.90378E-02  3998   0.756E-02    0.659E-01
RMM:   3    -0.413167495613E+03    0.35680E-02   -0.34608E-02  5065   0.647E-02    0.222E-01
RMM:   4    -0.413194721265E+03   -0.27226E-01   -0.35260E-02  5124   0.159E-01    0.712E-01
RMM:   5    -0.413165082569E+03    0.29639E-01   -0.13522E-02  4760   0.119E-01    0.515E-02
RMM:   6    -0.413165267998E+03   -0.18543E-03   -0.24518E-03  5681   0.490E-02    0.355E-02
RMM:   7    -0.413165270283E+03   -0.22853E-05   -0.43371E-04  5650   0.194E-02    0.228E-02
RMM:   8    -0.413165262429E+03    0.78542E-05   -0.57981E-05  5237   0.865E-03    0.974E-03
RMM:   9    -0.413165260707E+03    0.17225E-05   -0.10813E-05  3662   0.375E-03    0.638E-03
RMM:  10    -0.413165261307E+03   -0.60063E-06   -0.20202E-06  2564   0.229E-03
    6 T=    61. E= -.41286686E+03 F= -.41316526E+03 E0= -.41314280E+03  EK= 0.29840E+00 SP= 0.00E+00 SK= 0.00E+00
       N       E                     dE             d eps       ncg     rms          rms(c)
RMM:   1    -0.413171136921E+03   -0.58762E-02   -0.70938E+00  4258   0.553E-01    0.904E-01
RMM:   2    -0.413170899405E+03    0.23752E-03   -0.90021E-02  4210   0.759E-02    0.654E-01
RMM:   3    -0.413172578174E+03   -0.16788E-02   -0.37309E-02  5145   0.944E-02    0.375E-01
RMM:   4    -0.413183615968E+03   -0.11038E-01   -0.34214E-02  5078   0.160E-01    0.570E-01
RMM:   5    -0.413164991714E+03    0.18624E-01   -0.73217E-03  4638   0.948E-02    0.531E-02
RMM:   6    -0.413165028643E+03   -0.36929E-04   -0.14232E-03  5410   0.380E-02    0.322E-02
RMM:   7    -0.413165047322E+03   -0.18679E-04   -0.28180E-04  5761   0.161E-02    0.192E-02
RMM:   8    -0.413165042039E+03    0.52831E-05   -0.44226E-05  5017   0.805E-03    0.733E-03
RMM:   9    -0.413165040122E+03    0.19168E-05   -0.55831E-06  2987   0.304E-03    0.390E-03
RMM:  10    -0.413165039822E+03    0.30005E-06   -0.14934E-06  2531   0.197E-03
    7 T=    61. E= -.41286659E+03 F= -.41316504E+03 E0= -.41314259E+03  EK= 0.29845E+00 SP= 0.00E+00 SK= 0.00E+00
       N       E                     dE             d eps       ncg     rms          rms(c)
RMM:   1    -0.413171389213E+03   -0.63491E-02   -0.71431E+00  4268   0.560E-01    0.893E-01
RMM:   2    -0.413171860429E+03   -0.47122E-03   -0.90103E-02  4069   0.773E-02    0.657E-01
RMM:   3    -0.413168533166E+03    0.33273E-02   -0.36834E-02  5038   0.742E-02    0.258E-01
RMM:   4    -0.413194113238E+03   -0.25580E-01   -0.35560E-02  5114   0.160E-01    0.702E-01
RMM:   5    -0.413165449260E+03    0.28664E-01   -0.13013E-02  4749   0.117E-01    0.509E-02
RMM:   6    -0.413165629393E+03   -0.18013E-03   -0.23727E-03  5675   0.480E-02    0.341E-02
RMM:   7    -0.413165629661E+03   -0.26768E-06   -0.41940E-04  5673   0.190E-02    0.222E-02
RMM:   8    -0.413165624819E+03    0.48413E-05   -0.55223E-05  5162   0.866E-03    0.935E-03
RMM:   9    -0.413165624942E+03   -0.12275E-06   -0.10420E-05  3566   0.371E-03    0.607E-03
RMM:  10    -0.413165627753E+03   -0.28111E-05   -0.19277E-06  2554   0.224E-03    0.361E-03
RMM:  11    -0.413165629795E+03   -0.20424E-05   -0.10121E-06  2510   0.160E-03    0.194E-03
RMM:  12    -0.413165632937E+03   -0.31414E-05   -0.13592E-06  2531   0.170E-03    0.923E-04
RMM:  13    -0.413165634320E+03   -0.13832E-05   -0.65823E-07  2363   0.124E-03    0.713E-04
RMM:  14    -0.413165634141E+03    0.17922E-06   -0.23973E-07  1838   0.831E-04
    8 T=    61. E= -.41286683E+03 F= -.41316563E+03 E0= -.41314320E+03  EK= 0.29880E+00 SP= 0.00E+00 SK= 0.00E+00
       N       E                     dE             d eps       ncg     rms          rms(c)
RMM:   1    -0.413171981776E+03   -0.63475E-02   -0.71575E+00  4281   0.563E-01    0.906E-01
RMM:   2    -0.413171987683E+03   -0.59062E-05   -0.90276E-02  4134   0.800E-02    0.660E-01
RMM:   3    -0.413167814597E+03    0.41731E-02   -0.35244E-02  4987   0.688E-02    0.218E-01
RMM:   4    -0.413194808885E+03   -0.26994E-01   -0.33732E-02  5116   0.155E-01    0.707E-01
RMM:   5    -0.413165613082E+03    0.29196E-01   -0.13535E-02  4773   0.118E-01    0.498E-02
RMM:   6    -0.413165806864E+03   -0.19378E-03   -0.24445E-03  5709   0.485E-02    0.355E-02
RMM:   7    -0.413165799167E+03    0.76965E-05   -0.42687E-04  5615   0.195E-02    0.227E-02
RMM:   8    -0.413165792334E+03    0.68339E-05   -0.55960E-05  5179   0.856E-03    0.986E-03
RMM:   9    -0.413165790707E+03    0.16269E-05   -0.10996E-05  3678   0.375E-03    0.666E-03
RMM:  10    -0.413165791526E+03   -0.81970E-06   -0.19833E-06  2561   0.228E-03
    9 T=    61. E= -.41286675E+03 F= -.41316579E+03 E0= -.41314338E+03  EK= 0.29905E+00 SP= 0.00E+00 SK= 0.00E+00
       N       E                     dE             d eps       ncg     rms          rms(c)
RMM:   1    -0.413172190981E+03   -0.64003E-02   -0.71207E+00  4288   0.567E-01    0.910E-01
RMM:   2    -0.413171827468E+03    0.36351E-03   -0.90512E-02  4278   0.808E-02    0.656E-01
RMM:   3    -0.413174148990E+03   -0.23215E-02   -0.37795E-02  5132   0.994E-02    0.391E-01
RMM:   4    -0.413183403572E+03   -0.92546E-02   -0.34031E-02  5062   0.160E-01    0.554E-01
RMM:   5    -0.413165846241E+03    0.17557E-01   -0.67381E-03  4625   0.917E-02    0.532E-02
RMM:   6    -0.413165872065E+03   -0.25824E-04   -0.13681E-03  5381   0.366E-02    0.323E-02
RMM:   7    -0.413165879974E+03   -0.79084E-05   -0.27009E-04  5736   0.154E-02    0.188E-02
RMM:   8    -0.413165874270E+03    0.57034E-05   -0.42501E-05  5014   0.781E-03    0.718E-03
RMM:   9    -0.413165871174E+03    0.30966E-05   -0.50527E-06  2931   0.297E-03    0.379E-03
RMM:  10    -0.413165869637E+03    0.15367E-05   -0.14712E-06  2526   0.196E-03    0.229E-03
RMM:  11    -0.413165867952E+03    0.16852E-05   -0.91919E-07  2466   0.151E-03    0.113E-03
RMM:  12    -0.413165865688E+03    0.22637E-05   -0.73017E-07  2450   0.128E-03    0.521E-04
RMM:  13    -0.413165864262E+03    0.14265E-05   -0.35067E-07  1939   0.939E-04    0.327E-04
RMM:  14    -0.413165862816E+03    0.14457E-05   -0.21518E-07  1498   0.766E-04    0.198E-04
RMM:  15    -0.413165859944E+03    0.28719E-05   -0.30546E-07  1807   0.810E-04    0.286E-04
RMM:  16    -0.413165856899E+03    0.30449E-05   -0.24144E-07  1346   0.703E-04    0.175E-04
RMM:  17    -0.413165855760E+03    0.11388E-05   -0.10213E-07  1030   0.596E-04    0.889E-05
RMM:  18    -0.413165854012E+03    0.17488E-05   -0.98144E-08  1142   0.614E-04    0.596E-05
RMM:  19    -0.413165853659E+03    0.35219E-06   -0.37873E-08   809   0.540E-04
   10 T=    61. E= -.41286659E+03 F= -.41316585E+03 E0= -.41314347E+03  EK= 0.29926E+00 SP= 0.00E+00 SK= 0.00E+00
       N       E                     dE             d eps       ncg     rms          rms(c)
RMM:   1    -0.413172468883E+03   -0.66149E-02   -0.71328E+00  4290   0.572E-01    0.893E-01
RMM:   2    -0.413172656750E+03   -0.18787E-03   -0.90272E-02  4204   0.805E-02    0.655E-01
RMM:   3    -0.413169035684E+03    0.36211E-02   -0.35911E-02  5028   0.687E-02    0.237E-01
RMM:   4    -0.413195616011E+03   -0.26580E-01   -0.34973E-02  5112   0.158E-01    0.707E-01
RMM:   5    -0.413166434854E+03    0.29181E-01   -0.13510E-02  4758   0.118E-01    0.501E-02
RMM:   6    -0.413166623937E+03   -0.18908E-03   -0.23887E-03  5684   0.481E-02    0.349E-02
RMM:   7    -0.413166625991E+03   -0.20540E-05   -0.42167E-04  5583   0.192E-02    0.223E-02
RMM:   8    -0.413166623651E+03    0.23401E-05   -0.56628E-05  5189   0.857E-03    0.952E-03
RMM:   9    -0.413166622863E+03    0.78756E-06   -0.10764E-05  3670   0.373E-03    0.630E-03
RMM:  10    -0.413166624871E+03   -0.20072E-05   -0.19315E-06  2553   0.223E-03    0.375E-03
RMM:  11    -0.413166626189E+03   -0.13183E-05   -0.92044E-07  2491   0.157E-03    0.207E-03
RMM:  12    -0.413166628182E+03   -0.19931E-05   -0.13047E-06  2517   0.170E-03    0.101E-03
RMM:  13    -0.413166628873E+03   -0.69098E-06   -0.56299E-07  2353   0.123E-03
   11 T=    61. E= -.41286689E+03 F= -.41316663E+03 E0= -.41314427E+03  EK= 0.29974E+00 SP= 0.00E+00 SK= 0.00E+00
       N       E                     dE             d eps       ncg     rms          rms(c)
RMM:   1    -0.413172725966E+03   -0.60978E-02   -0.71880E+00  4294   0.577E-01    0.903E-01
RMM:   2    -0.413172638615E+03    0.87351E-04   -0.90853E-02  4214   0.811E-02    0.662E-01
RMM:   3    -0.413168645791E+03    0.39928E-02   -0.36017E-02  4980   0.669E-02    0.223E-01
RMM:   4    -0.413195329971E+03   -0.26684E-01   -0.33486E-02  5112   0.154E-01    0.704E-01
RMM:   5    -0.413166418608E+03    0.28911E-01   -0.13506E-02  4765   0.117E-01    0.491E-02
RMM:   6    -0.413166621214E+03   -0.20261E-03   -0.24369E-03  5736   0.481E-02    0.348E-02
RMM:   7    -0.413166615603E+03    0.56109E-05   -0.41916E-04  5623   0.195E-02    0.226E-02
RMM:   8    -0.413166609606E+03    0.59976E-05   -0.57590E-05  5098   0.869E-03    0.101E-02
RMM:   9    -0.413166608213E+03    0.13928E-05   -0.11290E-05  3681   0.383E-03    0.686E-03
RMM:  10    -0.413166609500E+03   -0.12870E-05   -0.19979E-06  2561   0.227E-03    0.404E-03
RMM:  11    -0.413166610404E+03   -0.90408E-06   -0.10856E-06  2501   0.168E-03
   12 T=    61. E= -.41286659E+03 F= -.41316661E+03 E0= -.41314428E+03  EK= 0.30002E+00 SP= 0.00E+00 SK= 0.00E+00
       N       E                     dE             d eps       ncg     rms          rms(c)
RMM:   1    -0.413173647731E+03   -0.70382E-02   -0.71566E+00  4292   0.582E-01    0.914E-01
RMM:   2    -0.413172890482E+03    0.75725E-03   -0.90943E-02  4233   0.776E-02    0.659E-01
RMM:   3    -0.413168693184E+03    0.41973E-02   -0.33195E-02  5019   0.582E-02    0.184E-01
RMM:   4    -0.413195540311E+03   -0.26847E-01   -0.31791E-02  5121   0.150E-01    0.698E-01
RMM:   5    -0.413167033653E+03    0.28507E-01   -0.13319E-02  4780   0.116E-01    0.492E-02
RMM:   6    -0.413167233038E+03   -0.19939E-03   -0.24428E-03  5747   0.482E-02    0.357E-02
RMM:   7    -0.413167220256E+03    0.12783E-04   -0.42458E-04  5632   0.200E-02    0.232E-02
RMM:   8    -0.413167205723E+03    0.14533E-04   -0.57041E-05  5068   0.876E-03    0.106E-02
RMM:   9    -0.413167201127E+03    0.45964E-05   -0.11601E-05  3694   0.388E-03    0.743E-03
RMM:  10    -0.413167198017E+03    0.31100E-05   -0.21640E-06  2570   0.238E-03    0.430E-03
RMM:  11    -0.413167195590E+03    0.24267E-05   -0.12400E-06  2511   0.179E-03    0.233E-03
RMM:  12    -0.413167191287E+03    0.43025E-05   -0.16697E-06  2561   0.194E-03    0.110E-03
RMM:  13    -0.413167188554E+03    0.27335E-05   -0.59244E-07  2385   0.132E-03    0.826E-04
RMM:  14    -0.413167188510E+03    0.43488E-07   -0.24073E-07  1876   0.852E-04
   13 T=    61. E= -.41286670E+03 F= -.41316719E+03 E0= -.41314489E+03  EK= 0.30049E+00 SP= 0.00E+00 SK= 0.00E+00
       N       E                     dE             d eps       ncg     rms          rms(c)
RMM:   1    -0.413173721420E+03   -0.65329E-02   -0.71353E+00  4296   0.584E-01    0.895E-01
RMM:   2    -0.413173702536E+03    0.18884E-04   -0.90300E-02  4231   0.749E-02    0.655E-01
RMM:   3    -0.413169881875E+03    0.38207E-02   -0.34896E-02  5019   0.643E-02    0.218E-01
RMM:   4    -0.413196901904E+03   -0.27020E-01   -0.34035E-02  5112   0.155E-01    0.707E-01
RMM:   5    -0.413167657791E+03    0.29244E-01   -0.13549E-02  4759   0.118E-01    0.498E-02
RMM:   6    -0.413167857304E+03   -0.19951E-03   -0.24619E-03  5705   0.485E-02    0.353E-02
RMM:   7    -0.413167852178E+03    0.51262E-05   -0.42604E-04  5580   0.198E-02    0.228E-02
RMM:   8    -0.413167843541E+03    0.86365E-05   -0.57827E-05  5161   0.875E-03    0.101E-02
RMM:   9    -0.413167840744E+03    0.27970E-05   -0.11379E-05  3696   0.384E-03    0.678E-03
RMM:  10    -0.413167840296E+03    0.44805E-06   -0.20185E-06  2557   0.230E-03
   14 T=    61. E= -.41286686E+03 F= -.41316784E+03 E0= -.41314557E+03  EK= 0.30098E+00 SP= 0.00E+00 SK= 0.00E+00
       N       E                     dE             d eps       ncg     rms          rms(c)
RMM:   1    -0.413173860829E+03   -0.60201E-02   -0.72217E+00  4304   0.590E-01    0.902E-01
RMM:   2    -0.413174109071E+03   -0.24824E-03   -0.91105E-02  4324   0.774E-02    0.663E-01
RMM:   3    -0.413177778307E+03   -0.36692E-02   -0.41830E-02  5126   0.105E-01    0.432E-01
RMM:   4    -0.413184522410E+03   -0.67441E-02   -0.34716E-02  5049   0.162E-01    0.545E-01
RMM:   5    -0.413167867117E+03    0.16655E-01   -0.67232E-03  4588   0.912E-02    0.516E-02
RMM:   6    -0.413167894342E+03   -0.27225E-04   -0.12921E-03  5370   0.350E-02    0.309E-02
RMM:   7    -0.413167903624E+03   -0.92822E-05   -0.24980E-04  5631   0.151E-02    0.178E-02
RMM:   8    -0.413167901527E+03    0.20964E-05   -0.38320E-05  4935   0.745E-03    0.652E-03
RMM:   9    -0.413167900686E+03    0.84093E-06   -0.45036E-06  2854   0.280E-03
   15 T=    61. E= -.41286655E+03 F= -.41316790E+03 E0= -.41314567E+03  EK= 0.30135E+00 SP= 0.00E+00 SK= 0.00E+00
       N       E                     dE             d eps       ncg     rms          rms(c)
RMM:   1    -0.413175310651E+03   -0.74091E-02   -0.71929E+00  4300   0.592E-01    0.916E-01
RMM:   2    -0.413174993844E+03    0.31681E-03   -0.91248E-02  4257   0.815E-02    0.661E-01
RMM:   3    -0.413174261723E+03    0.73212E-03   -0.35958E-02  5088   0.868E-02    0.319E-01
RMM:   4    -0.413192278529E+03   -0.18017E-01   -0.36114E-02  5078   0.162E-01    0.635E-01
RMM:   5    -0.413168820749E+03    0.23458E-01   -0.96340E-03  4683   0.105E-01    0.530E-02
RMM:   6    -0.413168920860E+03   -0.10011E-03   -0.18986E-03  5597   0.426E-02    0.338E-02
RMM:   7    -0.413168924609E+03   -0.37486E-05   -0.34530E-04  5698   0.173E-02    0.209E-02
RMM:   8    -0.413168917417E+03    0.71917E-05   -0.47491E-05  5084   0.814E-03    0.818E-03
RMM:   9    -0.413168913226E+03    0.41912E-05   -0.72810E-06  3182   0.330E-03    0.471E-03
RMM:  10    -0.413168910127E+03    0.30987E-05   -0.17769E-06  2538   0.216E-03    0.285E-03
RMM:  11    -0.413168907350E+03    0.27771E-05   -0.92952E-07  2483   0.157E-03    0.145E-03
RMM:  12    -0.413168902790E+03    0.45603E-05   -0.92507E-07  2488   0.146E-03    0.697E-04
RMM:  13    -0.413168899365E+03    0.34245E-05   -0.46495E-07  2206   0.108E-03    0.430E-04
RMM:  14    -0.413168898225E+03    0.11398E-05   -0.21014E-07  1650   0.785E-04    0.286E-04
RMM:  15    -0.413168893187E+03    0.50388E-05   -0.28771E-07  1881   0.846E-04    0.401E-04
RMM:  16    -0.413168889070E+03    0.41162E-05   -0.18221E-07  1332   0.682E-04    0.349E-04
RMM:  17    -0.413168887717E+03    0.13537E-05   -0.76652E-08   947   0.567E-04    0.238E-04
RMM:  18    -0.413168885403E+03    0.23141E-05   -0.76828E-08  1039   0.590E-04    0.985E-05
RMM:  19    -0.413168883909E+03    0.14933E-05   -0.61106E-08  1099   0.595E-04    0.909E-05
RMM:  20    -0.413168883773E+03    0.13648E-06   -0.18227E-08   705   0.530E-04
   16 T=    61. E= -.41286682E+03 F= -.41316888E+03 E0= -.41314669E+03  EK= 0.30207E+00 SP= 0.00E+00 SK= 0.00E+00
       N       E                     dE             d eps       ncg     rms          rms(c)
RMM:   1    -0.413175391036E+03   -0.65071E-02   -0.71585E+00  4296   0.595E-01    0.900E-01
RMM:   2    -0.413175529456E+03   -0.13842E-03   -0.90903E-02  4246   0.828E-02    0.656E-01
RMM:   3    -0.413171885041E+03    0.36444E-02   -0.34672E-02  5009   0.726E-02    0.233E-01
RMM:   4    -0.413199045923E+03   -0.27161E-01   -0.36167E-02  5100   0.160E-01    0.714E-01
RMM:   5    -0.413169210152E+03    0.29836E-01   -0.13602E-02  4745   0.118E-01    0.510E-02
RMM:   6    -0.413169397962E+03   -0.18781E-03   -0.24844E-03  5695   0.486E-02    0.358E-02
RMM:   7    -0.413169392001E+03    0.59603E-05   -0.42788E-04  5566   0.195E-02    0.229E-02
RMM:   8    -0.413169382968E+03    0.90338E-05   -0.58564E-05  5193   0.882E-03    0.989E-03
RMM:   9    -0.413169379455E+03    0.35129E-05   -0.11169E-05  3732   0.386E-03    0.644E-03
RMM:  10    -0.413169378416E+03    0.10391E-05   -0.20052E-06  2554   0.231E-03    0.383E-03
RMM:  11    -0.413169377630E+03    0.78510E-06   -0.93884E-07  2492   0.159E-03
   17 T=    62. E= -.41286674E+03 F= -.41316938E+03 E0= -.41314722E+03  EK= 0.30264E+00 SP= 0.00E+00 SK= 0.00E+00
       N       E                     dE             d eps       ncg     rms          rms(c)
RMM:   1    -0.413175911961E+03   -0.65335E-02   -0.72557E+00  4298   0.602E-01    0.901E-01
RMM:   2    -0.413176171063E+03   -0.25910E-03   -0.91876E-02  4254   0.851E-02    0.664E-01
RMM:   3    -0.413171926631E+03    0.42444E-02   -0.36869E-02  4969   0.687E-02    0.226E-01
RMM:   4    -0.413198360388E+03   -0.26434E-01   -0.32876E-02  5105   0.153E-01    0.701E-01
RMM:   5    -0.413169711249E+03    0.28649E-01   -0.13502E-02  4768   0.117E-01    0.488E-02
RMM:   6    -0.413169910030E+03   -0.19878E-03   -0.24288E-03  5741   0.476E-02    0.345E-02
RMM:   7    -0.413169905775E+03    0.42554E-05   -0.41359E-04  5621   0.196E-02    0.224E-02
RMM:   8    -0.413169898366E+03    0.74088E-05   -0.55730E-05  5063   0.863E-03    0.995E-03
RMM:   9    -0.413169896409E+03    0.19568E-05   -0.11184E-05  3660   0.383E-03    0.685E-03
RMM:  10    -0.413169896941E+03   -0.53222E-06   -0.19693E-06  2556   0.228E-03
   18 T=    62. E= -.41286665E+03 F= -.41316990E+03 E0= -.41314778E+03  EK= 0.30325E+00 SP= 0.00E+00 SK= 0.00E+00
       N       E                     dE             d eps       ncg     rms          rms(c)
RMM:   1    -0.413177501638E+03   -0.76052E-02   -0.72395E+00  4301   0.604E-01    0.917E-01
RMM:   2    -0.413176984281E+03    0.51736E-03   -0.92075E-02  4321   0.808E-02    0.664E-01
RMM:   3    -0.413179876383E+03   -0.28921E-02   -0.38804E-02  5131   0.993E-02    0.403E-01
RMM:   4    -0.413188728288E+03   -0.88519E-02   -0.35024E-02  5052   0.162E-01    0.555E-01
RMM:   5    -0.413171072122E+03    0.17656E-01   -0.67864E-03  4607   0.920E-02    0.527E-02
RMM:   6    -0.413171097125E+03   -0.25003E-04   -0.14002E-03  5393   0.361E-02    0.323E-02
RMM:   7    -0.413171098602E+03   -0.14767E-05   -0.26734E-04  5652   0.156E-02    0.189E-02
RMM:   8    -0.413171093048E+03    0.55546E-05   -0.41070E-05  4968   0.774E-03    0.710E-03
RMM:   9    -0.413171088987E+03    0.40603E-05   -0.52328E-06  2924   0.298E-03    0.381E-03
RMM:  10    -0.413171086197E+03    0.27902E-05   -0.13958E-06  2506   0.197E-03    0.229E-03
RMM:  11    -0.413171083244E+03    0.29530E-05   -0.85796E-07  2457   0.148E-03    0.113E-03
RMM:  12    -0.413171079122E+03    0.41217E-05   -0.67671E-07  2434   0.127E-03    0.531E-04
RMM:  13    -0.413171076473E+03    0.26490E-05   -0.32190E-07  1918   0.930E-04    0.328E-04
RMM:  14    -0.413171074239E+03    0.22342E-05   -0.18229E-07  1449   0.740E-04    0.202E-04
RMM:  15    -0.413171069401E+03    0.48379E-05   -0.21367E-07  1611   0.767E-04    0.274E-04
RMM:  16    -0.413171065091E+03    0.43103E-05   -0.15357E-07  1246   0.660E-04    0.193E-04
RMM:  17    -0.413171063219E+03    0.18720E-05   -0.73404E-08   978   0.582E-04    0.103E-04
RMM:  18    -0.413171060511E+03    0.27077E-05   -0.70403E-08  1071   0.596E-04    0.414E-05
RMM:  19    -0.413171059719E+03    0.79217E-06   -0.30039E-08   802   0.548E-04
   19 T=    62. E= -.41286692E+03 F= -.41317106E+03 E0= -.41314898E+03  EK= 0.30413E+00 SP= 0.00E+00 SK= 0.00E+00
       N       E                     dE             d eps       ncg     rms          rms(c)
RMM:   1    -0.413177617894E+03   -0.65574E-02   -0.72064E+00  4294   0.612E-01    0.907E-01
RMM:   2    -0.413177240953E+03    0.37694E-03   -0.91719E-02  4257   0.774E-02    0.658E-01
RMM:   3    -0.413173979791E+03    0.32612E-02   -0.34141E-02  5054   0.678E-02    0.228E-01
RMM:   4    -0.413201685694E+03   -0.27706E-01   -0.37000E-02  5104   0.162E-01    0.719E-01
RMM:   5    -0.413171330817E+03    0.30355E-01   -0.13826E-02  4751   0.120E-01    0.516E-02
RMM:   6    -0.413171518045E+03   -0.18723E-03   -0.25332E-03  5694   0.489E-02    0.362E-02
RMM:   7    -0.413171510366E+03    0.76788E-05   -0.43763E-04  5578   0.199E-02    0.234E-02
RMM:   8    -0.413171502811E+03    0.75546E-05   -0.62256E-05  5170   0.921E-03    0.102E-02
RMM:   9    -0.413171498458E+03    0.43529E-05   -0.12062E-05  3757   0.402E-03    0.660E-03
RMM:  10    -0.413171496002E+03    0.24558E-05   -0.21297E-06  2571   0.238E-03    0.392E-03
RMM:  11    -0.413171494242E+03    0.17609E-05   -0.10090E-06  2506   0.163E-03    0.221E-03
RMM:  12    -0.413171490658E+03    0.35835E-05   -0.13988E-06  2523   0.181E-03    0.106E-03
RMM:  13    -0.413171487762E+03    0.28959E-05   -0.61919E-07  2385   0.130E-03    0.853E-04
RMM:  14    -0.413171487606E+03    0.15577E-06   -0.25328E-07  1914   0.873E-04
   20 T=    62. E= -.41286669E+03 F= -.41317149E+03 E0= -.41314945E+03  EK= 0.30480E+00 SP= 0.00E+00 SK= 0.00E+00
       N       E                     dE             d eps       ncg     rms          rms(c)
RMM:   1    -0.413178675251E+03   -0.71875E-02   -0.72911E+00  4299   0.622E-01    0.901E-01
RMM:   2    -0.413178698728E+03   -0.23476E-04   -0.92212E-02  4257   0.788E-02    0.664E-01
RMM:   3    -0.413174683725E+03    0.40150E-02   -0.36686E-02  5015   0.653E-02    0.228E-01
RMM:   4    -0.413201672373E+03   -0.26989E-01   -0.33953E-02  5110   0.155E-01    0.708E-01
RMM:   5    -0.413172391868E+03    0.29281E-01   -0.13695E-02  4764   0.119E-01    0.493E-02
RMM:   6    -0.413172589592E+03   -0.19772E-03   -0.25015E-03  5746   0.480E-02    0.347E-02
RMM:   7    -0.413172588098E+03    0.14948E-05   -0.41443E-04  5588   0.197E-02    0.226E-02
RMM:   8    -0.413172583355E+03    0.47423E-05   -0.60329E-05  5050   0.930E-03    0.104E-02
RMM:   9    -0.413172581196E+03    0.21592E-05   -0.12162E-05  3732   0.415E-03    0.702E-03
RMM:  10    -0.413172581556E+03   -0.35982E-06   -0.20972E-06  2574   0.242E-03
   21 T=    62. E= -.41286687E+03 F= -.41317258E+03 E0= -.41315059E+03  EK= 0.30571E+00 SP= 0.00E+00 SK= 0.00E+00
       N       E                     dE             d eps       ncg     rms          rms(c)
RMM:   1    -0.413179925486E+03   -0.73443E-02   -0.73005E+00  4299   0.620E-01    0.916E-01
RMM:   2    -0.413179871952E+03    0.53533E-04   -0.92549E-02  4346   0.821E-02    0.667E-01
RMM:   3    -0.413182443433E+03   -0.25715E-02   -0.39376E-02  5119   0.101E-01    0.402E-01
RMM:   4    -0.413191986949E+03   -0.95435E-02   -0.35401E-02  5047   0.163E-01    0.565E-01
RMM:   5    -0.413173675942E+03    0.18311E-01   -0.70710E-03  4611   0.946E-02    0.522E-02
RMM:   6    -0.413173730120E+03   -0.54178E-04   -0.14544E-03  5422   0.368E-02    0.323E-02
RMM:   7    -0.413173737738E+03   -0.76178E-05   -0.27866E-04  5624   0.161E-02    0.192E-02
RMM:   8    -0.413173730968E+03    0.67696E-05   -0.42946E-05  4927   0.827E-03    0.721E-03
RMM:   9    -0.413173727163E+03    0.38050E-05   -0.59380E-06  2978   0.318E-03    0.392E-03
RMM:  10    -0.413173724659E+03    0.25041E-05   -0.15057E-06  2524   0.199E-03    0.236E-03
RMM:  11    -0.413173722029E+03    0.26303E-05   -0.83538E-07  2454   0.148E-03    0.117E-03
RMM:  12    -0.413173718125E+03    0.39045E-05   -0.67865E-07  2435   0.127E-03    0.542E-04
RMM:  13    -0.413173715517E+03    0.26079E-05   -0.32620E-07  1949   0.936E-04    0.329E-04
RMM:  14    -0.413173713647E+03    0.18694E-05   -0.17603E-07  1453   0.731E-04    0.209E-04
RMM:  15    -0.413173708889E+03    0.47586E-05   -0.20140E-07  1592   0.755E-04    0.277E-04
RMM:  16    -0.413173704726E+03    0.41625E-05   -0.12980E-07  1134   0.643E-04    0.201E-04
RMM:  17    -0.413173702832E+03    0.18946E-05   -0.70021E-08   973   0.586E-04    0.111E-04
RMM:  18    -0.413173700036E+03    0.27959E-05   -0.66564E-08  1064   0.598E-04    0.403E-05
RMM:  19    -0.413173698909E+03    0.11264E-05   -0.33924E-08   839   0.554E-04    0.387E-05
RMM:  20    -0.413173698352E+03    0.55754E-06   -0.19893E-08   761   0.540E-04
   22 T=    62. E= -.41286693E+03 F= -.41317370E+03 E0= -.41315176E+03  EK= 0.30677E+00 SP= 0.00E+00 SK= 0.00E+00
       N       E                     dE             d eps       ncg     rms          rms(c)
RMM:   1    -0.413181436571E+03   -0.77377E-02   -0.72845E+00  4293   0.637E-01    0.915E-01
RMM:   2    -0.413180509467E+03    0.92710E-03   -0.93299E-02  4278   0.841E-02    0.662E-01
RMM:   3    -0.413176348780E+03    0.41607E-02   -0.33488E-02  4988   0.681E-02    0.204E-01
RMM:   4    -0.413205321134E+03   -0.28972E-01   -0.35960E-02  5112   0.160E-01    0.727E-01
RMM:   5    -0.413174219132E+03    0.31102E-01   -0.14399E-02  4773   0.121E-01    0.510E-02
RMM:   6    -0.413174422530E+03   -0.20340E-03   -0.26589E-03  5729   0.499E-02    0.368E-02
RMM:   7    -0.413174417429E+03    0.51007E-05   -0.44619E-04  5569   0.203E-02    0.238E-02
RMM:   8    -0.413174409591E+03    0.78384E-05   -0.64183E-05  5178   0.926E-03    0.109E-02
RMM:   9    -0.413174404542E+03    0.50488E-05   -0.12505E-05  3837   0.409E-03    0.719E-03
RMM:  10    -0.413174400965E+03    0.35763E-05   -0.22483E-06  2579   0.243E-03    0.420E-03
RMM:  11    -0.413174398542E+03    0.24234E-05   -0.10662E-06  2507   0.168E-03    0.243E-03
RMM:  12    -0.413174393515E+03    0.50266E-05   -0.16499E-06  2556   0.195E-03    0.117E-03
RMM:  13    -0.413174389864E+03    0.36516E-05   -0.68424E-07  2408   0.137E-03    0.954E-04
RMM:  14    -0.413174389679E+03    0.18509E-06   -0.26594E-07  1990   0.900E-04
   23 T=    63. E= -.41286662E+03 F= -.41317439E+03 E0= -.41315249E+03  EK= 0.30777E+00 SP= 0.00E+00 SK= 0.00E+00
       N       E                     dE             d eps       ncg     rms          rms(c)
RMM:   1    -0.413181989661E+03   -0.75998E-02   -0.73325E+00  4293   0.630E-01    0.903E-01
RMM:   2    -0.413182380575E+03   -0.39091E-03   -0.93273E-02  4279   0.847E-02    0.665E-01
RMM:   3    -0.413177760907E+03    0.46197E-02   -0.36079E-02  4930   0.692E-02    0.209E-01
RMM:   4    -0.413204065570E+03   -0.26305E-01   -0.31610E-02  5115   0.150E-01    0.696E-01
RMM:   5    -0.413175795375E+03    0.28270E-01   -0.13373E-02  4778   0.116E-01    0.484E-02
RMM:   6    -0.413175985971E+03   -0.19060E-03   -0.24595E-03  5791   0.470E-02    0.336E-02
RMM:   7    -0.413175989570E+03   -0.35990E-05   -0.38352E-04  5601   0.191E-02    0.220E-02
RMM:   8    -0.413175981323E+03    0.82466E-05   -0.62234E-05  5006   0.889E-03    0.107E-02
RMM:   9    -0.413175977618E+03    0.37056E-05   -0.12167E-05  3817   0.408E-03    0.739E-03
RMM:  10    -0.413175976496E+03    0.11220E-05   -0.20895E-06  2567   0.238E-03    0.431E-03
RMM:  11    -0.413175975594E+03    0.90203E-06   -0.12291E-06  2504   0.179E-03
   24 T=    63. E= -.41286690E+03 F= -.41317598E+03 E0= -.41315413E+03  EK= 0.30908E+00 SP= 0.00E+00 SK= 0.00E+00
       N       E                     dE             d eps       ncg     rms          rms(c)
RMM:   1    -0.413183422137E+03   -0.74456E-02   -0.73863E+00  4299   0.632E-01    0.917E-01
RMM:   2    -0.413183432672E+03   -0.10534E-04   -0.93947E-02  4287   0.848E-02    0.671E-01
RMM:   3    -0.413178438618E+03    0.49941E-02   -0.35495E-02  4893   0.662E-02    0.190E-01
RMM:   4    -0.413202896669E+03   -0.24458E-01   -0.28158E-02  5114   0.142E-01    0.667E-01
RMM:   5    -0.413176874687E+03    0.26022E-01   -0.12212E-02  4782   0.111E-01    0.473E-02
RMM:   6    -0.413177037996E+03   -0.16331E-03   -0.22838E-03  5822   0.449E-02    0.316E-02
RMM:   7    -0.413177041767E+03   -0.37704E-05   -0.30110E-04  5692   0.174E-02    0.193E-02
RMM:   8    -0.413177034900E+03    0.68664E-05   -0.61935E-05  4982   0.844E-03    0.109E-02
RMM:   9    -0.413177030037E+03    0.48635E-05   -0.12034E-05  3946   0.410E-03    0.766E-03
RMM:  10    -0.413177027686E+03    0.23509E-05   -0.20082E-06  2561   0.236E-03    0.442E-03
RMM:  11    -0.413177025680E+03    0.20056E-05   -0.13323E-06  2512   0.185E-03    0.248E-03
RMM:  12    -0.413177021899E+03    0.37816E-05   -0.16542E-06  2538   0.196E-03    0.119E-03
RMM:  13    -0.413177019195E+03    0.27042E-05   -0.52842E-07  2339   0.128E-03    0.753E-04
RMM:  14    -0.413177018992E+03    0.20216E-06   -0.23298E-07  1823   0.839E-04
   25 T=    63. E= -.41286675E+03 F= -.41317702E+03 E0= -.41315522E+03  EK= 0.31027E+00 SP= 0.00E+00 SK= 0.00E+00
       N       E                     dE             d eps       ncg     rms          rms(c)
RMM:   1    -0.413186337921E+03   -0.93187E-02   -0.73844E+00  4294   0.658E-01    0.925E-01
RMM:   2    -0.413184503120E+03    0.18348E-02   -0.95594E-02  4277   0.864E-02    0.668E-01
RMM:   3    -0.413179955786E+03    0.45473E-02   -0.33183E-02  4922   0.681E-02    0.185E-01
RMM:   4    -0.413208865389E+03   -0.28910E-01   -0.34106E-02  5112   0.155E-01    0.722E-01
RMM:   5    -0.413178226826E+03    0.30639E-01   -0.14387E-02  4773   0.120E-01    0.506E-02
RMM:   6    -0.413178417276E+03   -0.19045E-03   -0.26905E-03  5779   0.496E-02    0.365E-02
RMM:   7    -0.413178410784E+03    0.64917E-05   -0.43917E-04  5583   0.203E-02    0.238E-02
RMM:   8    -0.413178398912E+03    0.11872E-04   -0.64461E-05  5094   0.921E-03    0.113E-02
RMM:   9    -0.413178392770E+03    0.61416E-05   -0.12737E-05  3842   0.414E-03    0.769E-03
RMM:  10    -0.413178387645E+03    0.51250E-05   -0.23183E-06  2592   0.246E-03    0.447E-03
RMM:  11    -0.413178383894E+03    0.37511E-05   -0.12235E-06  2510   0.178E-03    0.254E-03
RMM:  12    -0.413178376539E+03    0.73549E-05   -0.18476E-06  2575   0.205E-03    0.121E-03
RMM:  13    -0.413178371732E+03    0.48073E-05   -0.66164E-07  2408   0.138E-03    0.950E-04
RMM:  14    -0.413178371691E+03    0.40913E-07   -0.26830E-07  1991   0.897E-04
   26 T=    63. E= -.41286671E+03 F= -.41317837E+03 E0= -.41315662E+03  EK= 0.31166E+00 SP= 0.00E+00 SK= 0.00E+00
       N       E                     dE             d eps       ncg     rms          rms(c)
RMM:   1    -0.413186941878E+03   -0.85701E-02   -0.73983E+00  4297   0.662E-01    0.907E-01
RMM:   2    -0.413186326438E+03    0.61544E-03   -0.96426E-02  4284   0.905E-02    0.666E-01
RMM:   3    -0.413181741579E+03    0.45849E-02   -0.34660E-02  4966   0.645E-02    0.194E-01
RMM:   4    -0.413208969155E+03   -0.27228E-01   -0.31979E-02  5122   0.151E-01    0.703E-01
RMM:   5    -0.413180076445E+03    0.28893E-01   -0.13676E-02  4768   0.117E-01    0.487E-02
RMM:   6    -0.413180239444E+03   -0.16300E-03   -0.25303E-03  5796   0.479E-02    0.338E-02
RMM:   7    -0.413180237071E+03    0.23735E-05   -0.38715E-04  5625   0.194E-02    0.220E-02
RMM:   8    -0.413180228059E+03    0.90121E-05   -0.65196E-05  5008   0.909E-03    0.111E-02
RMM:   9    -0.413180223305E+03    0.47538E-05   -0.12716E-05  3873   0.421E-03    0.761E-03
RMM:  10    -0.413180220726E+03    0.25788E-05   -0.21488E-06  2571   0.240E-03    0.443E-03
RMM:  11    -0.413180218676E+03    0.20499E-05   -0.12669E-06  2514   0.181E-03    0.248E-03
RMM:  12    -0.413180214770E+03    0.39059E-05   -0.17027E-06  2544   0.200E-03    0.119E-03
RMM:  13    -0.413180212152E+03    0.26187E-05   -0.57240E-07  2362   0.132E-03    0.834E-04
RMM:  14    -0.413180211854E+03    0.29720E-06   -0.24761E-07  1917   0.869E-04
   27 T=    64. E= -.41286694E+03 F= -.41318021E+03 E0= -.41315851E+03  EK= 0.31327E+00 SP= 0.00E+00 SK= 0.00E+00
       N       E                     dE             d eps       ncg     rms          rms(c)
RMM:   1    -0.413187844192E+03   -0.76320E-02   -0.74925E+00  4298   0.658E-01    0.918E-01
RMM:   2    -0.413187529613E+03    0.31458E-03   -0.95786E-02  4282   0.883E-02    0.675E-01
RMM:   3    -0.413182891304E+03    0.46383E-02   -0.36433E-02  4943   0.660E-02    0.203E-01
RMM:   4    -0.413209250361E+03   -0.26359E-01   -0.31030E-02  5122   0.149E-01    0.693E-01
RMM:   5    -0.413181138454E+03    0.28112E-01   -0.13327E-02  4769   0.116E-01    0.484E-02
RMM:   6    -0.413181307919E+03   -0.16946E-03   -0.24376E-03  5799   0.473E-02    0.335E-02
RMM:   7    -0.413181313112E+03   -0.51925E-05   -0.37365E-04  5613   0.193E-02    0.217E-02
RMM:   8    -0.413181306149E+03    0.69630E-05   -0.63312E-05  4970   0.919E-03    0.109E-02
RMM:   9    -0.413181302208E+03    0.39403E-05   -0.12590E-05  3840   0.422E-03    0.753E-03
RMM:  10    -0.413181300544E+03    0.16646E-05   -0.22424E-06  2590   0.249E-03    0.434E-03
RMM:  11    -0.413181299008E+03    0.15359E-05   -0.13300E-06  2521   0.186E-03    0.235E-03
RMM:  12    -0.413181296118E+03    0.28901E-05   -0.16385E-06  2528   0.200E-03    0.115E-03
RMM:  13    -0.413181293979E+03    0.21389E-05   -0.53999E-07  2347   0.129E-03    0.774E-04
RMM:  14    -0.413181293666E+03    0.31285E-06   -0.23923E-07  1867   0.852E-04
   28 T=    64. E= -.41286661E+03 F= -.41318129E+03 E0= -.41315965E+03  EK= 0.31468E+00 SP= 0.00E+00 SK= 0.00E+00
       N       E                     dE             d eps       ncg     rms          rms(c)
RMM:   1    -0.413192007775E+03   -0.10714E-01   -0.75018E+00  4293   0.687E-01    0.933E-01
RMM:   2    -0.413189567434E+03    0.24403E-02   -0.97964E-02  4286   0.924E-02    0.674E-01
RMM:   3    -0.413184358118E+03    0.52093E-02   -0.33223E-02  4869   0.634E-02    0.158E-01
RMM:   4    -0.413209069396E+03   -0.24711E-01   -0.27324E-02  5128   0.140E-01    0.666E-01
RMM:   5    -0.413183155953E+03    0.25913E-01   -0.12424E-02  4783   0.111E-01    0.480E-02
RMM:   6    -0.413183312985E+03   -0.15703E-03   -0.22532E-03  5826   0.455E-02    0.334E-02
RMM:   7    -0.413183313983E+03   -0.99852E-06   -0.32209E-04  5590   0.186E-02    0.203E-02
RMM:   8    -0.413183305479E+03    0.85044E-05   -0.62569E-05  4968   0.888E-03    0.112E-02
RMM:   9    -0.413183299061E+03    0.64183E-05   -0.12036E-05  3843   0.416E-03    0.778E-03
RMM:  10    -0.413183294074E+03    0.49868E-05   -0.23216E-06  2605   0.257E-03    0.438E-03
RMM:  11    -0.413183289612E+03    0.44616E-05   -0.14804E-06  2529   0.195E-03    0.232E-03
RMM:  12    -0.413183282725E+03    0.68874E-05   -0.16618E-06  2556   0.199E-03    0.117E-03
RMM:  13    -0.413183279576E+03    0.31493E-05   -0.53520E-07  2347   0.128E-03    0.736E-04
RMM:  14    -0.413183278630E+03    0.94586E-06   -0.23937E-07  1867   0.852E-04
   29 T=    64. E= -.41286682E+03 F= -.41318328E+03 E0= -.41316168E+03  EK= 0.31646E+00 SP= 0.00E+00 SK= 0.00E+00
       N       E                     dE             d eps       ncg     rms          rms(c)
RMM:   1    -0.413191284254E+03   -0.80047E-02   -0.74758E+00  4295   0.671E-01    0.916E-01
RMM:   2    -0.413191722565E+03   -0.43831E-03   -0.96227E-02  4270   0.962E-02    0.670E-01
RMM:   3    -0.413186291295E+03    0.54313E-02   -0.34664E-02  4819   0.663E-02    0.170E-01
RMM:   4    -0.413208529460E+03   -0.22238E-01   -0.24721E-02  5127   0.134E-01    0.636E-01
RMM:   5    -0.413184990406E+03    0.23539E-01   -0.11334E-02  4783   0.105E-01    0.465E-02
RMM:   6    -0.413185147069E+03   -0.15666E-03   -0.20497E-03  5828   0.434E-02    0.321E-02
RMM:   7    -0.413185153977E+03   -0.69079E-05   -0.29520E-04  5607   0.176E-02    0.194E-02
RMM:   8    -0.413185147845E+03    0.61322E-05   -0.55910E-05  4946   0.843E-03    0.107E-02
RMM:   9    -0.413185142920E+03    0.49251E-05   -0.10841E-05  3705   0.396E-03    0.737E-03
RMM:  10    -0.413185139783E+03    0.31373E-05   -0.21183E-06  2577   0.247E-03    0.416E-03
RMM:  11    -0.413185136399E+03    0.33834E-05   -0.15289E-06  2535   0.196E-03    0.210E-03
RMM:  12    -0.413185131874E+03    0.45254E-05   -0.13738E-06  2509   0.185E-03    0.113E-03
RMM:  13    -0.413185129943E+03    0.19310E-05   -0.46848E-07  2318   0.120E-03    0.684E-04
RMM:  14    -0.413185128956E+03    0.98721E-06   -0.21603E-07  1774   0.817E-04
   30 T=    65. E= -.41286682E+03 F= -.41318513E+03 E0= -.41316358E+03  EK= 0.31831E+00 SP= 0.00E+00 SK= 0.00E+00
       N       E                     dE             d eps       ncg     rms          rms(c)
RMM:   1    -0.413193514586E+03   -0.83846E-02   -0.76077E+00  4296   0.686E-01    0.922E-01
RMM:   2    -0.413193792387E+03   -0.27780E-03   -0.97968E-02  4265   0.101E-01    0.680E-01
RMM:   3    -0.413187953688E+03    0.58387E-02   -0.37178E-02  4720   0.730E-02    0.185E-01
RMM:   4    -0.413207785415E+03   -0.19832E-01   -0.22075E-02  5130   0.128E-01    0.604E-01
RMM:   5    -0.413186632737E+03    0.21153E-01   -0.10251E-02  4789   0.100E-01    0.452E-02
RMM:   6    -0.413186774024E+03   -0.14129E-03   -0.18460E-03  5834   0.410E-02    0.304E-02
RMM:   7    -0.413186780818E+03   -0.67943E-05   -0.24304E-04  5580   0.163E-02    0.171E-02
RMM:   8    -0.413186777879E+03    0.29386E-05   -0.48486E-05  4909   0.763E-03    0.101E-02
RMM:   9    -0.413186773845E+03    0.40339E-05   -0.96992E-06  3619   0.372E-03    0.703E-03
RMM:  10    -0.413186772702E+03    0.11436E-05   -0.18213E-06  2534   0.233E-03    0.401E-03
RMM:  11    -0.413186771127E+03    0.15750E-05   -0.15650E-06  2538   0.196E-03    0.201E-03
RMM:  12    -0.413186768718E+03    0.24091E-05   -0.12531E-06  2495   0.176E-03    0.113E-03
RMM:  13    -0.413186767533E+03    0.11842E-05   -0.42439E-07  2267   0.115E-03    0.659E-04
RMM:  14    -0.413186766747E+03    0.78661E-06   -0.19668E-07  1707   0.791E-04
   31 T=    65. E= -.41286665E+03 F= -.41318677E+03 E0= -.41316527E+03  EK= 0.32012E+00 SP= 0.00E+00 SK= 0.00E+00
       N       E                     dE             d eps       ncg     rms          rms(c)
RMM:   1    -0.413200586967E+03   -0.13819E-01   -0.76458E+00  4298   0.727E-01    0.940E-01
RMM:   2    -0.413196144263E+03    0.44427E-02   -0.98768E-02  4279   0.106E-01    0.680E-01
RMM:   3    -0.413190178653E+03    0.59656E-02   -0.34350E-02  4634   0.736E-02    0.145E-01
RMM:   4    -0.413206770384E+03   -0.16592E-01   -0.17729E-02  5129   0.114E-01    0.550E-01
RMM:   5    -0.413189276451E+03    0.17494E-01   -0.85849E-03  4806   0.909E-02    0.447E-02
RMM:   6    -0.413189391196E+03   -0.11474E-03   -0.15685E-03  5836   0.376E-02    0.300E-02
RMM:   7    -0.413189394518E+03   -0.33225E-05   -0.18355E-04  5468   0.151E-02    0.146E-02
RMM:   8    -0.413189387787E+03    0.67307E-05   -0.25516E-05  4221   0.545E-03    0.815E-03
RMM:   9    -0.413189382934E+03    0.48532E-05   -0.49324E-06  2867   0.289E-03    0.460E-03
RMM:  10    -0.413189379650E+03    0.32845E-05   -0.12037E-06  2502   0.181E-03    0.288E-03
RMM:  11    -0.413189372667E+03    0.69823E-05   -0.18841E-06  2562   0.213E-03    0.159E-03
RMM:  12    -0.413189369206E+03    0.34617E-05   -0.68531E-07  2390   0.142E-03    0.103E-03
RMM:  13    -0.413189367675E+03    0.15310E-05   -0.29789E-07  2057   0.952E-04    0.532E-04
RMM:  14    -0.413189366135E+03    0.15396E-05   -0.15697E-07  1535   0.734E-04    0.364E-04
RMM:  15    -0.413189359990E+03    0.61450E-05   -0.22276E-07  2052   0.831E-04    0.530E-04
RMM:  16    -0.413189357567E+03    0.24231E-05   -0.76546E-08  1111   0.615E-04    0.355E-04
RMM:  17    -0.413189353189E+03    0.43779E-05   -0.59114E-08   955   0.590E-04    0.245E-04
RMM:  18    -0.413189349347E+03    0.38416E-05   -0.63354E-08  1141   0.615E-04    0.940E-05
RMM:  19    -0.413189347424E+03    0.19231E-05   -0.35726E-08   983   0.572E-04    0.172E-04
RMM:  20    -0.413189347048E+03    0.37615E-06   -0.12079E-08   681   0.519E-04
   32 T=    66. E= -.41286710E+03 F= -.41318935E+03 E0= -.41316790E+03  EK= 0.32225E+00 SP= 0.00E+00 SK= 0.00E+00
       N       E                     dE             d eps       ncg     rms          rms(c)
RMM:   1    -0.413201341564E+03   -0.11994E-01   -0.76250E+00  4300   0.745E-01    0.928E-01
RMM:   2    -0.413197694822E+03    0.36467E-02   -0.99544E-02  4272   0.108E-01    0.676E-01
RMM:   3    -0.413192097312E+03    0.55975E-02   -0.34381E-02  4656   0.739E-02    0.148E-01
RMM:   4    -0.413209127760E+03   -0.17030E-01   -0.18225E-02  5129   0.115E-01    0.558E-01
RMM:   5    -0.413191167150E+03    0.17961E-01   -0.88708E-03  4806   0.922E-02    0.446E-02
RMM:   6    -0.413191284330E+03   -0.11718E-03   -0.15739E-03  5825   0.378E-02    0.295E-02
RMM:   7    -0.413191291659E+03   -0.73292E-05   -0.18525E-04  5507   0.147E-02    0.147E-02
RMM:   8    -0.413191283948E+03    0.77116E-05   -0.28096E-05  4543   0.569E-03    0.837E-03
RMM:   9    -0.413191283306E+03    0.64236E-06   -0.88010E-06  3573   0.334E-03
   33 T=    66. E= -.41286701E+03 F= -.41319128E+03 E0= -.41316988E+03  EK= 0.32427E+00 SP= 0.00E+00 SK= 0.00E+00
       N       E                     dE             d eps       ncg     rms          rms(c)
RMM:   1    -0.413202174136E+03   -0.10890E-01   -0.77368E+00  4305   0.732E-01    0.927E-01
RMM:   2    -0.413200157827E+03    0.20163E-02   -0.10119E-01  4306   0.113E-01    0.685E-01
RMM:   3    -0.413201544980E+03   -0.13872E-02   -0.41558E-02  5059   0.115E-01    0.386E-01
RMM:   4    -0.413216614017E+03   -0.15069E-01   -0.38612E-02  5038   0.170E-01    0.633E-01
RMM:   5    -0.413193540141E+03    0.23074E-01   -0.93495E-03  4653   0.104E-01    0.523E-02
RMM:   6    -0.413193638413E+03   -0.98273E-04   -0.19109E-03  5647   0.418E-02    0.337E-02
RMM:   7    -0.413193645453E+03   -0.70394E-05   -0.34735E-04  5501   0.179E-02    0.214E-02
RMM:   8    -0.413193644048E+03    0.14047E-05   -0.55413E-05  5044   0.895E-03    0.862E-03
RMM:   9    -0.413193640239E+03    0.38091E-05   -0.86275E-06  3317   0.368E-03    0.462E-03
RMM:  10    -0.413193637890E+03    0.23489E-05   -0.17623E-06  2544   0.218E-03    0.284E-03
RMM:  11    -0.413193635155E+03    0.27352E-05   -0.97159E-07  2484   0.160E-03    0.145E-03
RMM:  12    -0.413193630802E+03    0.43531E-05   -0.87314E-07  2464   0.143E-03    0.621E-04
RMM:  13    -0.413193628218E+03    0.25840E-05   -0.40338E-07  2163   0.104E-03    0.438E-04
RMM:  14    -0.413193626465E+03    0.17525E-05   -0.20251E-07  1639   0.778E-04    0.302E-04
RMM:  15    -0.413193620841E+03    0.56243E-05   -0.19820E-07  1646   0.771E-04    0.314E-04
RMM:  16    -0.413193616304E+03    0.45375E-05   -0.11635E-07  1144   0.637E-04    0.237E-04
RMM:  17    -0.413193612539E+03    0.37650E-05   -0.82651E-08  1074   0.611E-04    0.146E-04
RMM:  18    -0.413193609552E+03    0.29865E-05   -0.62573E-08  1073   0.599E-04    0.508E-05
RMM:  19    -0.413193607903E+03    0.16491E-05   -0.35988E-08   913   0.568E-04    0.633E-05
RMM:  20    -0.413193607625E+03    0.27815E-06   -0.16423E-08   709   0.532E-04
   34 T=    66. E= -.41286698E+03 F= -.41319361E+03 E0= -.41317225E+03  EK= 0.32663E+00 SP= 0.00E+00 SK= 0.00E+00
       N       E                     dE             d eps       ncg     rms          rms(c)
RMM:   1    -0.413203345495E+03   -0.97376E-02   -0.77489E+00  4306   0.738E-01    0.946E-01
RMM:   2    -0.413202548253E+03    0.79724E-03   -0.10227E-01  4266   0.119E-01    0.688E-01
RMM:   3    -0.413196888597E+03    0.56597E-02   -0.35220E-02  4428   0.829E-02    0.133E-01
RMM:   4    -0.413203155537E+03   -0.62669E-02   -0.70124E-03  5143   0.727E-02    0.349E-01
RMM:   5    -0.413196275711E+03    0.68798E-02   -0.34488E-03  4817   0.574E-02    0.413E-02
RMM:   6    -0.413196352249E+03   -0.76539E-04   -0.88089E-04  5708   0.277E-02    0.313E-02
RMM:   7    -0.413196342003E+03    0.10246E-04   -0.25262E-04  5227   0.167E-02    0.194E-02
RMM:   8    -0.413196329080E+03    0.12923E-04   -0.24878E-05  4459   0.615E-03    0.791E-03
RMM:   9    -0.413196327068E+03    0.20123E-05   -0.36240E-06  2747   0.254E-03    0.503E-03
RMM:  10    -0.413196323781E+03    0.32873E-05   -0.15671E-06  2519   0.205E-03    0.253E-03
RMM:  11    -0.413196320568E+03    0.32131E-05   -0.94323E-07  2461   0.160E-03    0.125E-03
RMM:  12    -0.413196317213E+03    0.33541E-05   -0.51651E-07  2289   0.120E-03    0.614E-04
RMM:  13    -0.413196315031E+03    0.21823E-05   -0.26126E-07  1883   0.869E-04    0.315E-04
RMM:  14    -0.413196311987E+03    0.30440E-05   -0.13841E-07  1338   0.705E-04    0.214E-04
RMM:  15    -0.413196307791E+03    0.41959E-05   -0.92597E-08  1140   0.651E-04    0.115E-04
RMM:  16    -0.413196304576E+03    0.32157E-05   -0.62086E-08  1017   0.615E-04    0.848E-05
RMM:  17    -0.413196300235E+03    0.43407E-05   -0.61875E-08  1132   0.621E-04    0.586E-05
RMM:  18    -0.413196297526E+03    0.27090E-05   -0.38717E-08   979   0.578E-04    0.403E-05
RMM:  19    -0.413196296631E+03    0.89515E-06   -0.17782E-08   741   0.534E-04
   35 T=    67. E= -.41286707E+03 F= -.41319630E+03 E0= -.41317499E+03  EK= 0.32923E+00 SP= 0.00E+00 SK= 0.00E+00
       N       E                     dE             d eps       ncg     rms          rms(c)
RMM:   1    -0.413210271547E+03   -0.13974E-01   -0.77978E+00  4306   0.803E-01    0.944E-01
RMM:   2    -0.413204531168E+03    0.57404E-02   -0.10766E-01  4266   0.127E-01    0.685E-01
RMM:   3    -0.413198747290E+03    0.57839E-02   -0.33498E-02  4334   0.833E-02    0.107E-01
RMM:   4    -0.413199072861E+03   -0.32557E-03   -0.99083E-04  5065   0.292E-02    0.117E-01
RMM:   5    -0.413198387896E+03    0.68496E-03   -0.41596E-04  4788   0.201E-02    0.418E-02
RMM:   6    -0.413198449342E+03   -0.61446E-04   -0.50086E-04  5305   0.218E-02    0.345E-02
RMM:   7    -0.413198405059E+03    0.44282E-04   -0.18817E-04  4828   0.156E-02    0.190E-02
RMM:   8    -0.413198398991E+03    0.60687E-05   -0.38647E-05  4786   0.592E-03    0.556E-03
RMM:   9    -0.413198397680E+03    0.13109E-05   -0.43506E-06  2565   0.231E-03    0.237E-03
RMM:  10    -0.413198392719E+03    0.49605E-05   -0.95581E-07  2416   0.164E-03    0.103E-03
RMM:  11    -0.413198388981E+03    0.37379E-05   -0.34307E-07  2032   0.986E-04    0.623E-04
RMM:  12    -0.413198385015E+03    0.39663E-05   -0.17649E-07  1458   0.752E-04    0.377E-04
RMM:  13    -0.413198380671E+03    0.43444E-05   -0.12050E-07  1218   0.680E-04    0.195E-04
RMM:  14    -0.413198375942E+03    0.47284E-05   -0.91128E-08  1100   0.646E-04    0.124E-04
RMM:  15    -0.413198371221E+03    0.47214E-05   -0.56168E-08   971   0.602E-04    0.101E-04
RMM:  16    -0.413198365758E+03    0.54631E-05   -0.58387E-08  1080   0.609E-04    0.780E-05
RMM:  17    -0.413198364002E+03    0.17560E-05   -0.24370E-08   787   0.539E-04    0.622E-05
RMM:  18    -0.413198362846E+03    0.11560E-05   -0.14945E-08   679   0.524E-04    0.271E-05
RMM:  19    -0.413198362236E+03    0.60975E-06   -0.10798E-08   619   0.516E-04
   36 T=    68. E= -.41286668E+03 F= -.41319836E+03 E0= -.41317710E+03  EK= 0.33169E+00 SP= 0.00E+00 SK= 0.00E+00
       N       E                     dE             d eps       ncg     rms          rms(c)
RMM:   1    -0.413209669402E+03   -0.11307E-01   -0.78683E+00  4310   0.792E-01    0.935E-01
RMM:   2    -0.413207967881E+03    0.17015E-02   -0.10628E-01  4251   0.127E-01    0.690E-01
RMM:   3    -0.413201982944E+03    0.59849E-02   -0.36883E-02  4396   0.886E-02    0.145E-01
RMM:   4    -0.413205381610E+03   -0.33987E-02   -0.45224E-03  5139   0.597E-02    0.271E-01
RMM:   5    -0.413201341707E+03    0.40399E-02   -0.20250E-03  4800   0.448E-02    0.407E-02
RMM:   6    -0.413201390402E+03   -0.48695E-04   -0.66033E-04  5545   0.256E-02    0.325E-02
RMM:   7    -0.413201379388E+03    0.11014E-04   -0.23743E-04  5091   0.167E-02    0.191E-02
RMM:   8    -0.413201370947E+03    0.84412E-05   -0.29573E-05  4780   0.624E-03    0.761E-03
RMM:   9    -0.413201370407E+03    0.54001E-06   -0.43963E-06  2736   0.252E-03
   37 T=    68. E= -.41286687E+03 F= -.41320137E+03 E0= -.41318015E+03  EK= 0.33450E+00 SP= 0.00E+00 SK= 0.00E+00
       N       E                     dE             d eps       ncg     rms          rms(c)
RMM:   1    -0.413212082914E+03   -0.10712E-01   -0.79354E+00  4311   0.824E-01    0.952E-01
RMM:   2    -0.413210904545E+03    0.11784E-02   -0.10876E-01  4257   0.123E-01    0.698E-01
RMM:   3    -0.413205445783E+03    0.54588E-02   -0.36336E-02  4794   0.860E-02    0.179E-01
RMM:   4    -0.413235071904E+03   -0.29626E-01   -0.33254E-02  5120   0.154E-01    0.731E-01
RMM:   5    -0.413203933940E+03    0.31138E-01   -0.15000E-02  4784   0.122E-01    0.510E-02
RMM:   6    -0.413204004927E+03   -0.70986E-04   -0.26270E-03  5794   0.488E-02    0.337E-02
RMM:   7    -0.413204028571E+03   -0.23645E-04   -0.35988E-04  5628   0.185E-02    0.199E-02
RMM:   8    -0.413204019493E+03    0.90783E-05   -0.62331E-05  5057   0.838E-03    0.112E-02
RMM:   9    -0.413204017894E+03    0.15993E-05   -0.17717E-05  4381   0.482E-03    0.760E-03
RMM:  10    -0.413204012752E+03    0.51418E-05   -0.27617E-06  2668   0.274E-03    0.410E-03
RMM:  11    -0.413204009745E+03    0.30073E-05   -0.12867E-06  2509   0.185E-03    0.249E-03
RMM:  12    -0.413204002293E+03    0.74513E-05   -0.18080E-06  2539   0.213E-03    0.136E-03
RMM:  13    -0.413203998185E+03    0.41080E-05   -0.67377E-07  2406   0.142E-03    0.881E-04
RMM:  14    -0.413203997034E+03    0.11514E-05   -0.27140E-07  2037   0.920E-04    0.554E-04
RMM:  15    -0.413203993374E+03    0.36602E-05   -0.15319E-07  1577   0.745E-04    0.290E-04
RMM:  16    -0.413203987442E+03    0.59320E-05   -0.15742E-07  1760   0.750E-04    0.493E-04
RMM:  17    -0.413203984831E+03    0.26107E-05   -0.63636E-08  1047   0.585E-04    0.419E-04
RMM:  18    -0.413203977846E+03    0.69855E-05   -0.75418E-08  1122   0.617E-04    0.239E-04
RMM:  19    -0.413203976662E+03    0.11836E-05   -0.36144E-08   902   0.559E-04    0.822E-05
RMM:  20    -0.413203974456E+03    0.22064E-05   -0.40117E-08  1066   0.590E-04    0.195E-04
RMM:  21    -0.413203974330E+03    0.12556E-06   -0.12779E-08   670   0.521E-04
   38 T=    69. E= -.41286675E+03 F= -.41320397E+03 E0= -.41318280E+03  EK= 0.33723E+00 SP= 0.00E+00 SK= 0.00E+00
       N       E                     dE             d eps       ncg     rms          rms(c)
RMM:   1    -0.413220829800E+03   -0.16855E-01   -0.80004E+00  4309   0.901E-01    0.960E-01
RMM:   2    -0.413213546340E+03    0.72835E-02   -0.11491E-01  4247   0.121E-01    0.695E-01
RMM:   3    -0.413207633369E+03    0.59130E-02   -0.33031E-02  4806   0.751E-02    0.143E-01
RMM:   4    -0.413236205557E+03   -0.28572E-01   -0.31012E-02  5130   0.148E-01    0.713E-01
RMM:   5    -0.413206583958E+03    0.29622E-01   -0.14440E-02  4797   0.118E-01    0.510E-02
RMM:   6    -0.413206657872E+03   -0.73914E-04   -0.25392E-03  5809   0.479E-02    0.345E-02
RMM:   7    -0.413206677495E+03   -0.19623E-04   -0.34321E-04  5602   0.182E-02    0.197E-02
RMM:   8    -0.413206668860E+03    0.86348E-05   -0.55378E-05  5011   0.790E-03    0.109E-02
RMM:   9    -0.413206667565E+03    0.12950E-05   -0.17374E-05  4343   0.463E-03    0.776E-03
RMM:  10    -0.413206662243E+03    0.53221E-05   -0.25463E-06  2636   0.267E-03    0.416E-03
RMM:  11    -0.413206659245E+03    0.29980E-05   -0.12473E-06  2503   0.183E-03    0.251E-03
RMM:  12    -0.413206652049E+03    0.71958E-05   -0.17261E-06  2533   0.209E-03    0.133E-03
RMM:  13    -0.413206648449E+03    0.36003E-05   -0.62642E-07  2395   0.140E-03    0.848E-04
RMM:  14    -0.413206647579E+03    0.87007E-06   -0.25700E-07  2012   0.908E-04
   39 T=    69. E= -.41286667E+03 F= -.41320665E+03 E0= -.41318551E+03  EK= 0.33998E+00 SP= 0.00E+00 SK= 0.00E+00
       N       E                     dE             d eps       ncg     rms          rms(c)
RMM:   1    -0.413219431203E+03   -0.12783E-01   -0.80205E+00  4313   0.906E-01    0.944E-01
RMM:   2    -0.413217069648E+03    0.23616E-02   -0.11438E-01  4249   0.123E-01    0.697E-01
RMM:   3    -0.413211197683E+03    0.58720E-02   -0.35435E-02  4836   0.783E-02    0.171E-01
RMM:   4    -0.413241489918E+03   -0.30292E-01   -0.33806E-02  5125   0.155E-01    0.737E-01
RMM:   5    -0.413209801017E+03    0.31689E-01   -0.15271E-02  4793   0.122E-01    0.512E-02
RMM:   6    -0.413209882562E+03   -0.81545E-04   -0.26613E-03  5806   0.488E-02    0.335E-02
RMM:   7    -0.413209904423E+03   -0.21861E-04   -0.35591E-04  5649   0.181E-02    0.193E-02
RMM:   8    -0.413209897233E+03    0.71896E-05   -0.59361E-05  5047   0.805E-03    0.108E-02
RMM:   9    -0.413209896729E+03    0.50379E-06   -0.18044E-05  4391   0.472E-03    0.739E-03
RMM:  10    -0.413209892565E+03    0.41648E-05   -0.26057E-06  2635   0.264E-03    0.408E-03
RMM:  11    -0.413209890222E+03    0.23423E-05   -0.12349E-06  2505   0.181E-03    0.244E-03
RMM:  12    -0.413209884416E+03    0.58059E-05   -0.16782E-06  2530   0.202E-03    0.128E-03
RMM:  13    -0.413209881048E+03    0.33680E-05   -0.62357E-07  2387   0.137E-03    0.841E-04
RMM:  14    -0.413209880179E+03    0.86914E-06   -0.25199E-07  1977   0.891E-04
   40 T=    70. E= -.41286696E+03 F= -.41320988E+03 E0= -.41318878E+03  EK= 0.34292E+00 SP= 0.00E+00 SK= 0.00E+00
       N       E                     dE             d eps       ncg     rms          rms(c)
RMM:   1    -0.413223129132E+03   -0.13248E-01   -0.81442E+00  4315   0.928E-01    0.959E-01
RMM:   2    -0.413219554104E+03    0.35750E-02   -0.11381E-01  4250   0.122E-01    0.706E-01
RMM:   3    -0.413213894002E+03    0.56601E-02   -0.36881E-02  4901   0.797E-02    0.189E-01
RMM:   4    -0.413247125878E+03   -0.33232E-01   -0.38451E-02  5125   0.165E-01    0.773E-01
RMM:   5    -0.413212140502E+03    0.34985E-01   -0.16714E-02  4792   0.128E-01    0.532E-02
RMM:   6    -0.413212233091E+03   -0.92589E-04   -0.28756E-03  5807   0.506E-02    0.335E-02
RMM:   7    -0.413212258486E+03   -0.25395E-04   -0.36620E-04  5665   0.182E-02    0.190E-02
RMM:   8    -0.413212252570E+03    0.59165E-05   -0.56510E-05  4991   0.783E-03    0.102E-02
RMM:   9    -0.413212252834E+03   -0.26384E-06   -0.20203E-05  4487   0.480E-03    0.737E-03
RMM:  10    -0.413212248202E+03    0.46313E-05   -0.29464E-06  2667   0.273E-03    0.408E-03
RMM:  11    -0.413212245897E+03    0.23056E-05   -0.13103E-06  2500   0.186E-03    0.246E-03
RMM:  12    -0.413212239911E+03    0.59854E-05   -0.17283E-06  2536   0.205E-03    0.128E-03
RMM:  13    -0.413212236420E+03    0.34917E-05   -0.63193E-07  2400   0.138E-03    0.848E-04
RMM:  14    -0.413212235618E+03    0.80145E-06   -0.25052E-07  1941   0.893E-04
   41 T=    70. E= -.41286676E+03 F= -.41321224E+03 E0= -.41319117E+03  EK= 0.34547E+00 SP= 0.00E+00 SK= 0.00E+00
       N       E                     dE             d eps       ncg     rms          rms(c)
RMM:   1    -0.413232403182E+03   -0.20167E-01   -0.82028E+00  4314   0.104E+00    0.974E-01
RMM:   2    -0.413222039105E+03    0.10364E-01   -0.11927E-01  4280   0.128E-01    0.705E-01
RMM:   3    -0.413216924583E+03    0.51145E-02   -0.33873E-02  4975   0.784E-02    0.193E-01
RMM:   4    -0.413255066135E+03   -0.38142E-01   -0.45947E-02  5120   0.180E-01    0.825E-01
RMM:   5    -0.413214822821E+03    0.40243E-01   -0.18818E-02  4787   0.137E-01    0.563E-02
RMM:   6    -0.413214934507E+03   -0.11169E-03   -0.32932E-03  5797   0.539E-02    0.356E-02
RMM:   7    -0.413214955207E+03   -0.20701E-04   -0.39228E-04  5684   0.188E-02    0.196E-02
RMM:   8    -0.413214952250E+03    0.29571E-05   -0.55041E-05  4949   0.754E-03    0.102E-02
RMM:   9    -0.413214946680E+03    0.55706E-05   -0.18820E-05  4391   0.458E-03    0.714E-03
RMM:  10    -0.413214942431E+03    0.42487E-05   -0.47798E-06  2989   0.298E-03    0.413E-03
RMM:  11    -0.413214938279E+03    0.41523E-05   -0.14132E-06  2489   0.201E-03    0.253E-03
RMM:  12    -0.413214928588E+03    0.96906E-05   -0.14285E-06  2496   0.196E-03    0.103E-03
RMM:  13    -0.413214923448E+03    0.51400E-05   -0.56239E-07  2413   0.133E-03    0.751E-04
RMM:  14    -0.413214922674E+03    0.77383E-06   -0.24958E-07  1999   0.890E-04
   42 T=    71. E= -.41286701E+03 F= -.41321492E+03 E0= -.41319389E+03  EK= 0.34791E+00 SP= 0.00E+00 SK= 0.00E+00
       N       E                     dE             d eps       ncg     rms          rms(c)
RMM:   1    -0.413235258952E+03   -0.20336E-01   -0.82185E+00  4316   0.111E+00    0.953E-01
RMM:   2    -0.413224517907E+03    0.10741E-01   -0.12973E-01  4323   0.131E-01    0.704E-01
RMM:   3    -0.413219701530E+03    0.48164E-02   -0.32718E-02  5008   0.821E-02    0.217E-01
RMM:   4    -0.413261303447E+03   -0.41602E-01   -0.52306E-02  5117   0.192E-01    0.863E-01
RMM:   5    -0.413217010767E+03    0.44293E-01   -0.20313E-02  4774   0.143E-01    0.584E-02
RMM:   6    -0.413217132693E+03   -0.12193E-03   -0.36070E-03  5784   0.561E-02    0.356E-02
RMM:   7    -0.413217151241E+03   -0.18548E-04   -0.43942E-04  5746   0.196E-02    0.211E-02
RMM:   8    -0.413217156445E+03   -0.52041E-05   -0.97765E-05  5200   0.991E-03    0.134E-02
RMM:   9    -0.413217145714E+03    0.10731E-04   -0.22922E-05  4565   0.552E-03    0.702E-03
RMM:  10    -0.413217141800E+03    0.39138E-05   -0.40917E-06  2801   0.294E-03    0.419E-03
RMM:  11    -0.413217138704E+03    0.30958E-05   -0.13953E-06  2503   0.198E-03    0.249E-03
RMM:  12    -0.413217131607E+03    0.70977E-05   -0.14216E-06  2510   0.194E-03    0.111E-03
RMM:  13    -0.413217126547E+03    0.50602E-05   -0.62955E-07  2409   0.135E-03    0.700E-04
RMM:  14    -0.413217125363E+03    0.11839E-05   -0.27631E-07  2009   0.913E-04    0.426E-04
RMM:  15    -0.413217122652E+03    0.27110E-05   -0.14211E-07  1414   0.718E-04    0.239E-04
RMM:  16    -0.413217116098E+03    0.65537E-05   -0.14105E-07  1618   0.739E-04    0.341E-04
RMM:  17    -0.413217113929E+03    0.21689E-05   -0.59620E-08   998   0.589E-04    0.243E-04
RMM:  18    -0.413217107969E+03    0.59600E-05   -0.78770E-08  1331   0.640E-04    0.194E-04
RMM:  19    -0.413217106423E+03    0.15464E-05   -0.34997E-08   897   0.549E-04    0.539E-05
RMM:  20    -0.413217104677E+03    0.17456E-05   -0.33933E-08   991   0.568E-04    0.998E-05
RMM:  21    -0.413217104531E+03    0.14580E-06   -0.13362E-08   694   0.522E-04
   43 T=    71. E= -.41286717E+03 F= -.41321710E+03 E0= -.41319610E+03  EK= 0.34994E+00 SP= 0.00E+00 SK= 0.00E+00
       N       E                     dE             d eps       ncg     rms          rms(c)
RMM:   1    -0.413230321022E+03   -0.13216E-01   -0.82717E+00  4316   0.109E+00    0.961E-01
RMM:   2    -0.413226036340E+03    0.42847E-02   -0.12272E-01  4333   0.138E-01    0.713E-01
RMM:   3    -0.413222586203E+03    0.34501E-02   -0.37845E-02  5028   0.953E-02    0.281E-01
RMM:   4    -0.413257425415E+03   -0.34839E-01   -0.50783E-02  5105   0.192E-01    0.814E-01
RMM:   5    -0.413218230312E+03    0.39195E-01   -0.17178E-02  4750   0.135E-01    0.571E-02
RMM:   6    -0.413218317662E+03   -0.87350E-04   -0.31394E-03  5775   0.525E-02    0.342E-02
RMM:   7    -0.413218335713E+03   -0.18051E-04   -0.39922E-04  5695   0.191E-02    0.210E-02
RMM:   8    -0.413218340515E+03   -0.48027E-05   -0.10381E-04  5188   0.104E-02    0.130E-02
RMM:   9    -0.413218331248E+03    0.92669E-05   -0.19425E-05  4435   0.540E-03    0.613E-03
RMM:  10    -0.413218329729E+03    0.15190E-05   -0.38535E-06  2789   0.277E-03    0.368E-03
RMM:  11    -0.413218328179E+03    0.15506E-05   -0.12797E-06  2507   0.187E-03    0.211E-03
RMM:  12    -0.413218324367E+03    0.38120E-05   -0.12545E-06  2509   0.177E-03    0.974E-04
RMM:  13    -0.413218321257E+03    0.31096E-05   -0.56174E-07  2350   0.124E-03    0.556E-04
RMM:  14    -0.413218320237E+03    0.10204E-05   -0.25223E-07  1867   0.857E-04    0.342E-04
RMM:  15    -0.413218317746E+03    0.24909E-05   -0.14610E-07  1356   0.713E-04    0.160E-04
RMM:  16    -0.413218314086E+03    0.36596E-05   -0.11860E-07  1315   0.686E-04    0.176E-04
RMM:  17    -0.413218311806E+03    0.22804E-05   -0.71969E-08  1068   0.620E-04    0.116E-04
RMM:  18    -0.413218308516E+03    0.32894E-05   -0.70083E-08  1233   0.631E-04    0.107E-04
RMM:  19    -0.413218306288E+03    0.22282E-05   -0.41332E-08   976   0.575E-04    0.427E-05
RMM:  20    -0.413218305367E+03    0.92085E-06   -0.25552E-08   832   0.545E-04
   44 T=    72. E= -.41286695E+03 F= -.41321831E+03 E0= -.41319732E+03  EK= 0.35136E+00 SP= 0.00E+00 SK= 0.00E+00
       N       E                     dE             d eps       ncg     rms          rms(c)
RMM:   1    -0.413239114842E+03   -0.20809E-01   -0.83039E+00  4314   0.122E+00    0.978E-01
RMM:   2    -0.413227211723E+03    0.11903E-01   -0.13087E-01  4352   0.148E-01    0.713E-01
RMM:   3    -0.413225511406E+03    0.17003E-02   -0.35131E-02  5064   0.101E-01    0.321E-01
RMM:   4    -0.413255139641E+03   -0.29628E-01   -0.50873E-02  5072   0.193E-01    0.774E-01
RMM:   5    -0.413219677274E+03    0.35462E-01   -0.14454E-02  4712   0.127E-01    0.587E-02
RMM:   6    -0.413219733557E+03   -0.56283E-04   -0.27732E-03  5721   0.499E-02    0.347E-02
RMM:   7    -0.413219746558E+03   -0.13000E-04   -0.41334E-04  5668   0.195E-02    0.228E-02
RMM:   8    -0.413219745358E+03    0.11996E-05   -0.11445E-04  5181   0.113E-02    0.128E-02
RMM:   9    -0.413219734866E+03    0.10492E-04   -0.16405E-05  4247   0.534E-03    0.546E-03
RMM:  10    -0.413219730711E+03    0.41549E-05   -0.37559E-06  2789   0.262E-03    0.331E-03
RMM:  11    -0.413219727080E+03    0.36309E-05   -0.11308E-06  2491   0.179E-03    0.180E-03
RMM:  12    -0.413219720296E+03    0.67841E-05   -0.90775E-07  2462   0.158E-03    0.836E-04
RMM:  13    -0.413219715822E+03    0.44739E-05   -0.41689E-07  2202   0.112E-03    0.407E-04
RMM:  14    -0.413219713865E+03    0.19568E-05   -0.21222E-07  1720   0.811E-04    0.254E-04
RMM:  15    -0.413219708460E+03    0.54049E-05   -0.14149E-07  1392   0.723E-04    0.166E-04
RMM:  16    -0.413219705219E+03    0.32412E-05   -0.86879E-08  1158   0.649E-04    0.132E-04
RMM:  17    -0.413219702094E+03    0.31250E-05   -0.66656E-08  1135   0.626E-04    0.903E-05
RMM:  18    -0.413219698543E+03    0.35514E-05   -0.57536E-08  1182   0.617E-04    0.491E-05
RMM:  19    -0.413219695789E+03    0.27536E-05   -0.43109E-08  1101   0.589E-04    0.398E-05
RMM:  20    -0.413219695349E+03    0.44030E-06   -0.19414E-08   760   0.531E-04
   45 T=    72. E= -.41286723E+03 F= -.41321970E+03 E0= -.41319873E+03  EK= 0.35247E+00 SP= 0.00E+00 SK= 0.00E+00
       N       E                     dE             d eps       ncg     rms          rms(c)
RMM:   1    -0.413242140584E+03   -0.22445E-01   -0.82789E+00  4312   0.131E+00    0.960E-01
RMM:   2    -0.413226958991E+03    0.15182E-01   -0.13720E-01  4377   0.158E-01    0.708E-01
RMM:   3    -0.413227163327E+03   -0.20434E-03   -0.34610E-02  5068   0.110E-01    0.368E-01
RMM:   4    -0.413251537377E+03   -0.24374E-01   -0.50690E-02  5066   0.194E-01    0.736E-01
RMM:   5    -0.413219503014E+03    0.32034E-01   -0.12429E-02  4696   0.121E-01    0.586E-02
RMM:   6    -0.413219536116E+03   -0.33102E-04   -0.24494E-03  5696   0.470E-02    0.335E-02
RMM:   7    -0.413219551504E+03   -0.15388E-04   -0.38443E-04  5647   0.190E-02    0.228E-02
RMM:   8    -0.413219549318E+03    0.21861E-05   -0.11165E-04  5125   0.113E-02    0.118E-02
RMM:   9    -0.413219539648E+03    0.96696E-05   -0.14342E-05  4133   0.520E-03    0.488E-03
RMM:  10    -0.413219535966E+03    0.36817E-05   -0.34208E-06  2776   0.247E-03    0.295E-03
RMM:  11    -0.413219532284E+03    0.36822E-05   -0.11053E-06  2495   0.173E-03    0.155E-03
RMM:  12    -0.413219526272E+03    0.60118E-05   -0.78584E-07  2444   0.145E-03    0.713E-04
RMM:  13    -0.413219522499E+03    0.37738E-05   -0.36440E-07  2070   0.103E-03    0.337E-04
RMM:  14    -0.413219520115E+03    0.23832E-05   -0.19275E-07  1559   0.779E-04    0.201E-04
RMM:  15    -0.413219514477E+03    0.56383E-05   -0.14581E-07  1322   0.727E-04    0.147E-04
RMM:  16    -0.413219512212E+03    0.22651E-05   -0.88878E-08  1174   0.656E-04    0.974E-05
RMM:  17    -0.413219508524E+03    0.36883E-05   -0.81618E-08  1299   0.654E-04    0.611E-05
RMM:  18    -0.413219505560E+03    0.29635E-05   -0.55548E-08  1153   0.606E-04    0.389E-05
RMM:  19    -0.413219503522E+03    0.20380E-05   -0.38803E-08   994   0.564E-04    0.348E-05
RMM:  20    -0.413219503191E+03    0.33094E-06   -0.18412E-08   749   0.527E-04
   46 T=    72. E= -.41286696E+03 F= -.41321950E+03 E0= -.41319856E+03  EK= 0.35254E+00 SP= 0.00E+00 SK= 0.00E+00
       N       E                     dE             d eps       ncg     rms          rms(c)
RMM:   1    -0.413239907069E+03   -0.20404E-01   -0.83270E+00  4314   0.139E+00    0.956E-01
RMM:   2    -0.413226101953E+03    0.13805E-01   -0.13087E-01  4393   0.169E-01    0.713E-01
RMM:   3    -0.413228796201E+03   -0.26942E-02   -0.40424E-02  5072   0.125E-01    0.426E-01
RMM:   4    -0.413245599942E+03   -0.16804E-01   -0.48345E-02  5047   0.192E-01    0.680E-01
RMM:   5    -0.413218489621E+03    0.27110E-01   -0.10023E-02  4668   0.113E-01    0.561E-02
RMM:   6    -0.413218486402E+03    0.32187E-05   -0.20096E-03  5641   0.429E-02    0.309E-02
RMM:   7    -0.413218501446E+03   -0.15044E-04   -0.32159E-04  5612   0.177E-02    0.209E-02
RMM:   8    -0.413218501079E+03    0.36737E-06   -0.10675E-04  5089   0.110E-02    0.106E-02
RMM:   9    -0.413218492751E+03    0.83273E-05   -0.12688E-05  4027   0.500E-03    0.454E-03
RMM:  10    -0.413218490436E+03    0.23150E-05   -0.28520E-06  2717   0.237E-03    0.269E-03
RMM:  11    -0.413218487836E+03    0.25997E-05   -0.11142E-06  2497   0.169E-03    0.137E-03
RMM:  12    -0.413218483615E+03    0.42210E-05   -0.79590E-07  2435   0.140E-03    0.669E-04
RMM:  13    -0.413218480824E+03    0.27915E-05   -0.35816E-07  1947   0.982E-04    0.313E-04
RMM:  14    -0.413218478581E+03    0.22427E-05   -0.20170E-07  1477   0.764E-04    0.177E-04
RMM:  15    -0.413218473999E+03    0.45826E-05   -0.18046E-07  1368   0.744E-04    0.134E-04
RMM:  16    -0.413218471940E+03    0.20587E-05   -0.10625E-07  1188   0.661E-04    0.876E-05
RMM:  17    -0.413218468305E+03    0.36346E-05   -0.10573E-07  1385   0.669E-04    0.579E-05
RMM:  18    -0.413218465975E+03    0.23300E-05   -0.65452E-08  1098   0.588E-04    0.318E-05
RMM:  19    -0.413218464840E+03    0.11351E-05   -0.36926E-08   870   0.543E-04    0.212E-05
RMM:  20    -0.413218464466E+03    0.37468E-06   -0.23985E-08   767   0.525E-04
   47 T=    72. E= -.41286684E+03 F= -.41321846E+03 E0= -.41319753E+03  EK= 0.35163E+00 SP= 0.00E+00 SK= 0.00E+00
       N       E                     dE             d eps       ncg     rms          rms(c)
RMM:   1    -0.413236693373E+03   -0.18229E-01   -0.82257E+00  4311   0.144E+00    0.971E-01
RMM:   2    -0.413223907369E+03    0.12786E-01   -0.13170E-01  4444   0.176E-01    0.712E-01
RMM:   3    -0.413231193255E+03   -0.72859E-02   -0.41079E-02  5096   0.138E-01    0.507E-01
RMM:   4    -0.413236207980E+03   -0.50147E-02   -0.45019E-02  5023   0.188E-01    0.579E-01
RMM:   5    -0.413216525438E+03    0.19683E-01   -0.64093E-03  4605   0.975E-02    0.555E-02
RMM:   6    -0.413216481986E+03    0.43452E-04   -0.13470E-03  5389   0.363E-02    0.295E-02
RMM:   7    -0.413216498063E+03   -0.16077E-04   -0.23362E-04  5529   0.156E-02    0.188E-02
RMM:   8    -0.413216497805E+03    0.25819E-06   -0.10814E-04  5121   0.110E-02    0.104E-02
RMM:   9    -0.413216486756E+03    0.11049E-04   -0.12000E-05  3956   0.499E-03    0.427E-03
RMM:  10    -0.413216483382E+03    0.33734E-05   -0.28282E-06  2704   0.233E-03    0.239E-03
RMM:  11    -0.413216478624E+03    0.47582E-05   -0.10978E-06  2485   0.172E-03    0.122E-03
RMM:  12    -0.413216473433E+03    0.51913E-05   -0.58091E-07  2337   0.128E-03    0.646E-04
RMM:  13    -0.413216469642E+03    0.37907E-05   -0.27979E-07  1814   0.911E-04    0.309E-04
RMM:  14    -0.413216465814E+03    0.38277E-05   -0.16397E-07  1398   0.738E-04    0.167E-04
RMM:  15    -0.413216461044E+03    0.47706E-05   -0.13088E-07  1356   0.708E-04    0.122E-04
RMM:  16    -0.413216458119E+03    0.29247E-05   -0.85539E-08  1221   0.645E-04    0.831E-05
RMM:  17    -0.413216452965E+03    0.51539E-05   -0.89194E-08  1393   0.656E-04    0.628E-05
RMM:  18    -0.413216451544E+03    0.14215E-05   -0.39421E-08   909   0.543E-04    0.410E-05
RMM:  19    -0.413216450185E+03    0.13591E-05   -0.27831E-08   833   0.532E-04    0.204E-05
RMM:  20    -0.413216449517E+03    0.66817E-06   -0.18500E-08   743   0.518E-04
   48 T=    71. E= -.41286695E+03 F= -.41321645E+03 E0= -.41319553E+03  EK= 0.34950E+00 SP= 0.00E+00 SK= 0.00E+00
       N       E                     dE             d eps       ncg     rms          rms(c)
RMM:   1    -0.413234868946E+03   -0.18419E-01   -0.81050E+00  4307   0.155E+00    0.960E-01
RMM:   2    -0.413219475484E+03    0.15393E-01   -0.13277E-01  4498   0.187E-01    0.701E-01
RMM:   3    -0.413233060383E+03   -0.13585E-01   -0.43973E-02  5111   0.155E-01    0.604E-01
RMM:   4    -0.413226006251E+03    0.70541E-02   -0.43288E-02  4984   0.188E-01    0.486E-01
RMM:   5    -0.413212252758E+03    0.13753E-01   -0.42311E-03  4560   0.868E-02    0.555E-02
RMM:   6    -0.413212163586E+03    0.89172E-04   -0.76852E-04  4957   0.299E-02    0.286E-02
RMM:   7    -0.413212169855E+03   -0.62697E-05   -0.15065E-04  5608   0.127E-02    0.116E-02
RMM:   8    -0.413212171490E+03   -0.16350E-05   -0.48279E-05  5214   0.738E-03    0.833E-03
RMM:   9    -0.413212163438E+03    0.80517E-05   -0.12009E-05  3991   0.417E-03    0.417E-03
RMM:  10    -0.413212160980E+03    0.24585E-05   -0.17844E-06  2546   0.223E-03    0.230E-03
RMM:  11    -0.413212155170E+03    0.58104E-05   -0.11685E-06  2467   0.179E-03    0.129E-03
RMM:  12    -0.413212151253E+03    0.39165E-05   -0.49653E-07  2347   0.122E-03    0.741E-04
RMM:  13    -0.413212146212E+03    0.50411E-05   -0.28688E-07  1843   0.920E-04    0.404E-04
RMM:  14    -0.413212141823E+03    0.43891E-05   -0.15082E-07  1303   0.714E-04    0.232E-04
RMM:  15    -0.413212136821E+03    0.50022E-05   -0.12375E-07  1196   0.679E-04    0.127E-04
RMM:  16    -0.413212133482E+03    0.33384E-05   -0.90504E-08  1240   0.640E-04    0.107E-04
RMM:  17    -0.413212129577E+03    0.39051E-05   -0.75474E-08  1207   0.607E-04    0.793E-05
RMM:  18    -0.413212127544E+03    0.20335E-05   -0.41789E-08   905   0.535E-04    0.477E-05
RMM:  19    -0.413212126169E+03    0.13749E-05   -0.26887E-08   745   0.510E-04    0.283E-05
RMM:  20    -0.413212125172E+03    0.99705E-06   -0.23474E-08   743   0.507E-04
   49 T=    70. E= -.41286657E+03 F= -.41321213E+03 E0= -.41319121E+03  EK= 0.34556E+00 SP= 0.00E+00 SK= 0.00E+00
       N       E                     dE             d eps       ncg     rms          rms(c)
RMM:   1    -0.413240466026E+03   -0.28340E-01   -0.81471E+00  4309   0.175E+00    0.935E-01
RMM:   2    -0.413214382057E+03    0.26084E-01   -0.14023E-01  4556   0.201E-01    0.701E-01
RMM:   3    -0.413233748345E+03   -0.19366E-01   -0.47971E-02  5133   0.171E-01    0.683E-01
RMM:   4    -0.413218668003E+03    0.15080E-01   -0.45716E-02  4970   0.195E-01    0.448E-01
RMM:   5    -0.413206998965E+03    0.11669E-01   -0.39420E-03  4564   0.870E-02    0.578E-02
RMM:   6    -0.413206873459E+03    0.12551E-03   -0.58016E-04  4810   0.286E-02    0.286E-02
RMM:   7    -0.413206887810E+03   -0.14351E-04   -0.19244E-04  5811   0.149E-02    0.146E-02
RMM:   8    -0.413206880393E+03    0.74172E-05   -0.66376E-05  5198   0.911E-03    0.955E-03
RMM:   9    -0.413206876299E+03    0.40934E-05   -0.12735E-05  4138   0.459E-03    0.404E-03
RMM:  10    -0.413206873457E+03    0.28419E-05   -0.20728E-06  2616   0.230E-03    0.235E-03
RMM:  11    -0.413206869055E+03    0.44026E-05   -0.12224E-06  2496   0.181E-03    0.146E-03
RMM:  12    -0.413206866238E+03    0.28167E-05   -0.53023E-07  2378   0.124E-03    0.795E-04
RMM:  13    -0.413206862194E+03    0.40443E-05   -0.39876E-07  2180   0.101E-03    0.502E-04
RMM:  14    -0.413206858225E+03    0.39688E-05   -0.23782E-07  1528   0.779E-04    0.315E-04
[...]
RMM:  10    -0.413208349608E+03    0.11067E-04   -0.17179E-04  5611   0.165E-02    0.156E-02
RMM:  11    -0.413208350038E+03   -0.43066E-06   -0.46441E-05  5291   0.808E-03    0.801E-03
RMM:  12    -0.413208356849E+03   -0.68113E-05   -0.12208E-05  3756   0.448E-03    0.418E-03
RMM:  13    -0.413208362399E+03   -0.55490E-05   -0.35080E-06  2839   0.270E-03    0.216E-03
RMM:  14    -0.413208366486E+03   -0.40878E-05   -0.24572E-06  2716   0.219E-03    0.105E-03
RMM:  15    -0.413208368244E+03   -0.17580E-05   -0.14836E-06  2576   0.162E-03    0.656E-04
RMM:  16    -0.413208368879E+03   -0.63438E-06   -0.10301E-06  2429   0.132E-03
  140 T=   153. E= -.41245738E+03 F= -.41320837E+03 E0= -.41318765E+03  EK= 0.75098E+00 SP= 0.00E+00 SK= 0.00E+00
       N       E                     dE             d eps       ncg     rms          rms(c)
RMM:   1    -0.413234927010E+03   -0.26559E-01   -0.15363E+01  4297   0.769E+00    0.861E-01
RMM:   2    -0.413256071851E+03   -0.21145E-01   -0.42997E-01  5352   0.783E-01    0.119E+00
RMM:   3    -0.413200470097E+03    0.55602E-01   -0.10127E-01  5428   0.347E-01    0.779E-01
RMM:   4    -0.413185710456E+03    0.14760E-01   -0.35815E-02  5368   0.222E-01    0.460E-01
RMM:   5    -0.413184754922E+03    0.95553E-03   -0.15436E-02  4926   0.156E-01    0.305E-01
RMM:   6    -0.413185178898E+03   -0.42398E-03   -0.19865E-02  5147   0.162E-01    0.195E-01
RMM:   7    -0.413183717533E+03    0.14614E-02   -0.49645E-03  5014   0.923E-02    0.941E-02
RMM:   8    -0.413183631129E+03    0.86404E-04   -0.18689E-03  5809   0.479E-02    0.541E-02
RMM:   9    -0.413183601485E+03    0.29644E-04   -0.59681E-04  4997   0.279E-02    0.301E-02
RMM:  10    -0.413183585414E+03    0.16071E-04   -0.13776E-04  5558   0.146E-02    0.136E-02
RMM:  11    -0.413183588679E+03   -0.32649E-05   -0.39895E-05  5291   0.717E-03    0.748E-03
RMM:  12    -0.413183594921E+03   -0.62422E-05   -0.93210E-06  3567   0.415E-03    0.361E-03
RMM:  13    -0.413183600015E+03   -0.50939E-05   -0.29562E-06  2781   0.255E-03    0.179E-03
RMM:  14    -0.413183604040E+03   -0.40255E-05   -0.20332E-06  2677   0.199E-03    0.917E-04
RMM:  15    -0.413183606022E+03   -0.19816E-05   -0.11465E-06  2480   0.143E-03    0.593E-04
RMM:  16    -0.413183607118E+03   -0.10956E-05   -0.88154E-07  2282   0.121E-03    0.371E-04
RMM:  17    -0.413183607155E+03   -0.37744E-07   -0.59656E-07  1916   0.980E-04
  141 T=   149. E= -.41245357E+03 F= -.41318361E+03 E0= -.41316301E+03  EK= 0.73003E+00 SP= 0.00E+00 SK= 0.00E+00
       N       E                     dE             d eps       ncg     rms          rms(c)
RMM:   1    -0.413290863594E+03   -0.10726E+00   -0.15650E+01  4287   0.773E+00    0.864E-01
RMM:   2    -0.413290491040E+03    0.37255E-03   -0.39492E-01  5336   0.775E-01    0.104E+00
RMM:   3    -0.413262285036E+03    0.28206E-01   -0.94853E-02  5477   0.332E-01    0.807E-01
RMM:   4    -0.413244094286E+03    0.18191E-01   -0.38941E-02  5322   0.231E-01    0.439E-01
RMM:   5    -0.413242871669E+03    0.12226E-02   -0.14982E-02  4872   0.157E-01    0.260E-01
RMM:   6    -0.413243256712E+03   -0.38504E-03   -0.15977E-02  5164   0.146E-01    0.167E-01
RMM:   7    -0.413241911057E+03    0.13457E-02   -0.37522E-03  4904   0.819E-02    0.695E-02
RMM:   8    -0.413241921324E+03   -0.10267E-04   -0.14236E-03  5861   0.413E-02    0.477E-02
RMM:   9    -0.413241889392E+03    0.31932E-04   -0.36448E-04  5006   0.233E-02    0.261E-02
RMM:  10    -0.413241877143E+03    0.12248E-04   -0.10781E-04  5635   0.125E-02    0.121E-02
RMM:  11    -0.413241881572E+03   -0.44286E-05   -0.34400E-05  5225   0.667E-03    0.724E-03
RMM:  12    -0.413241887899E+03   -0.63268E-05   -0.74779E-06  3419   0.396E-03    0.330E-03
RMM:  13    -0.413241893568E+03   -0.56696E-05   -0.27123E-06  2744   0.246E-03    0.155E-03
RMM:  14    -0.413241898414E+03   -0.48451E-05   -0.14960E-06  2597   0.181E-03    0.829E-04
RMM:  15    -0.413241901460E+03   -0.30462E-05   -0.85592E-07  2322   0.128E-03    0.524E-04
RMM:  16    -0.413241904409E+03   -0.29489E-05   -0.82674E-07  2285   0.119E-03    0.292E-04
RMM:  17    -0.413241906117E+03   -0.17087E-05   -0.57314E-07  1952   0.974E-04    0.188E-04
RMM:  18    -0.413241906992E+03   -0.87462E-06   -0.38984E-07  1737   0.834E-04
  142 T=   161. E= -.41245223E+03 F= -.41324191E+03 E0= -.41322143E+03  EK= 0.78968E+00 SP= 0.00E+00 SK= 0.00E+00
       N       E                     dE             d eps       ncg     rms          rms(c)
RMM:   1    -0.413482031516E+03   -0.24013E+00   -0.18500E+01  4264   0.828E+00    0.986E-01
RMM:   2    -0.413445605006E+03    0.36427E-01   -0.47229E-01  5334   0.864E-01    0.104E+00
RMM:   3    -0.413440762212E+03    0.48428E-02   -0.11488E-01  5560   0.363E-01    0.981E-01
RMM:   4    -0.413410390716E+03    0.30371E-01   -0.51077E-02  5265   0.265E-01    0.487E-01
RMM:   5    -0.413408563404E+03    0.18273E-02   -0.18819E-02  4787   0.182E-01    0.253E-01
RMM:   6    -0.413408824038E+03   -0.26063E-03   -0.16838E-02  5153   0.151E-01    0.163E-01
RMM:   7    -0.413407324611E+03    0.14994E-02   -0.37315E-03  4878   0.816E-02    0.641E-02
RMM:   8    -0.413407339942E+03   -0.15330E-04   -0.11786E-03  5855   0.381E-02    0.448E-02
RMM:   9    -0.413407306193E+03    0.33749E-04   -0.33115E-04  4890   0.233E-02    0.214E-02
RMM:  10    -0.413407301381E+03    0.48121E-05   -0.89353E-05  5667   0.114E-02    0.122E-02
RMM:  11    -0.413407306176E+03   -0.47947E-05   -0.27582E-05  4959   0.652E-03    0.719E-03
RMM:  12    -0.413407313118E+03   -0.69426E-05   -0.70152E-06  3318   0.389E-03    0.348E-03
RMM:  13    -0.413407319926E+03   -0.68073E-05   -0.32804E-06  2839   0.261E-03    0.163E-03
RMM:  14    -0.413407327002E+03   -0.70767E-05   -0.15661E-06  2594   0.198E-03    0.952E-04
RMM:  15    -0.413407332614E+03   -0.56112E-05   -0.10080E-06  2465   0.144E-03    0.569E-04
RMM:  16    -0.413407338807E+03   -0.61939E-05   -0.11033E-06  2416   0.135E-03    0.330E-04
RMM:  17    -0.413407343704E+03   -0.48967E-05   -0.10393E-06  2238   0.121E-03    0.223E-04
RMM:  18    -0.413407346732E+03   -0.30279E-05   -0.64792E-07  1855   0.950E-04    0.151E-04
RMM:  19    -0.413407348587E+03   -0.18544E-05   -0.35474E-07  1552   0.778E-04    0.927E-05
RMM:  20    -0.413407350301E+03   -0.17140E-05   -0.24779E-07  1473   0.706E-04    0.768E-05
RMM:  21    -0.413407351103E+03   -0.80259E-06   -0.12402E-07  1153   0.598E-04
  143 T=   194. E= -.41245440E+03 F= -.41340735E+03 E0= -.41338686E+03  EK= 0.95295E+00 SP= 0.00E+00 SK= 0.00E+00
       N       E                     dE             d eps       ncg     rms          rms(c)
RMM:   1    -0.413796837158E+03   -0.38949E+00   -0.24252E+01  4264   0.925E+00    0.118E+00
RMM:   2    -0.413685831868E+03    0.11101E+00   -0.64708E-01  5355   0.103E+00    0.117E+00
RMM:   3    -0.413707903683E+03   -0.22072E-01   -0.15278E-01  5590   0.421E-01    0.123E+00
RMM:   4    -0.413658060221E+03    0.49843E-01   -0.64245E-02  5256   0.296E-01    0.619E-01
RMM:   5    -0.413654906940E+03    0.31533E-02   -0.28231E-02  4620   0.229E-01    0.281E-01
RMM:   6    -0.413654854480E+03    0.52460E-04   -0.20394E-02  5113   0.169E-01    0.170E-01
RMM:   7    -0.413653084546E+03    0.17699E-02   -0.46849E-03  4988   0.892E-02    0.744E-02
RMM:   8    -0.413653030860E+03    0.53687E-04   -0.10742E-03  5653   0.386E-02    0.473E-02
RMM:   9    -0.413652990014E+03    0.40846E-04   -0.41892E-04  4649   0.268E-02    0.203E-02
RMM:  10    -0.413652992099E+03   -0.20852E-05   -0.99533E-05  5693   0.121E-02    0.141E-02
RMM:  11    -0.413652996490E+03   -0.43912E-05   -0.26557E-05  4603   0.703E-03    0.647E-03
RMM:  12    -0.413653005632E+03   -0.91417E-05   -0.79387E-06  3393   0.397E-03    0.373E-03
RMM:  13    -0.413653014982E+03   -0.93499E-05   -0.31516E-06  2798   0.266E-03    0.177E-03
RMM:  14    -0.413653025173E+03   -0.10191E-04   -0.19125E-06  2644   0.213E-03    0.109E-03
RMM:  15    -0.413653034519E+03   -0.93457E-05   -0.14779E-06  2591   0.170E-03    0.649E-04
RMM:  16    -0.413653043601E+03   -0.90819E-05   -0.14873E-06  2519   0.148E-03    0.428E-04
RMM:  17    -0.413653051489E+03   -0.78886E-05   -0.14496E-06  2362   0.136E-03    0.279E-04
RMM:  18    -0.413653056856E+03   -0.53667E-05   -0.10382E-06  2089   0.111E-03    0.203E-04
RMM:  19    -0.413653060321E+03   -0.34652E-05   -0.61151E-07  1781   0.906E-04    0.117E-04
RMM:  20    -0.413653062790E+03   -0.24685E-05   -0.31633E-07  1515   0.751E-04    0.817E-05
RMM:  21    -0.413653064394E+03   -0.16046E-05   -0.17692E-07  1256   0.646E-04    0.551E-05
RMM:  22    -0.413653065308E+03   -0.91343E-06   -0.96533E-08  1081   0.589E-04
  144 T=   242. E= -.41246377E+03 F= -.41365307E+03 E0= -.41363242E+03  EK= 0.11893E+01 SP= 0.00E+00 SK= 0.00E+00
       N       E                     dE             d eps       ncg     rms          rms(c)
RMM:   1    -0.414117492330E+03   -0.46443E+00   -0.31770E+01  4264   0.103E+01    0.147E+00
RMM:   2    -0.413873301754E+03    0.24419E+00   -0.90682E-01  5371   0.124E+00    0.140E+00
RMM:   3    -0.413923924144E+03   -0.50622E-01   -0.18897E-01  5647   0.478E-01    0.147E+00
RMM:   4    -0.413864562662E+03    0.59361E-01   -0.79896E-02  5276   0.315E-01    0.895E-01
RMM:   5    -0.413855081940E+03    0.94807E-02   -0.56944E-02  4456   0.324E-01    0.332E-01
RMM:   6    -0.413852774588E+03    0.23074E-02   -0.17493E-02  4966   0.171E-01    0.158E-01
RMM:   7    -0.413851694842E+03    0.10797E-02   -0.47176E-03  5320   0.872E-02    0.100E-01
RMM:   8    -0.413851375486E+03    0.31936E-03   -0.94710E-04  4806   0.421E-02    0.582E-02
RMM:   9    -0.413851294964E+03    0.80522E-04   -0.69500E-04  4529   0.345E-02    0.231E-02
RMM:  10    -0.413851304745E+03   -0.97812E-05   -0.19176E-04  5886   0.162E-02    0.176E-02
RMM:  11    -0.413851305326E+03   -0.58109E-06   -0.38638E-05  4617   0.851E-03    0.711E-03
RMM:  12    -0.413851314317E+03   -0.89905E-05   -0.11332E-05  3811   0.441E-03    0.461E-03
RMM:  13    -0.413851324517E+03   -0.10201E-04   -0.32363E-06  2807   0.279E-03    0.257E-03
RMM:  14    -0.413851337415E+03   -0.12897E-04   -0.27585E-06  2742   0.249E-03    0.116E-03
RMM:  15    -0.413851346978E+03   -0.95628E-05   -0.17556E-06  2626   0.183E-03    0.712E-04
RMM:  16    -0.413851355683E+03   -0.87052E-05   -0.14856E-06  2557   0.151E-03    0.561E-04
RMM:  17    -0.413851364916E+03   -0.92328E-05   -0.17795E-06  2559   0.150E-03    0.394E-04
RMM:  18    -0.413851371002E+03   -0.60867E-05   -0.12989E-06  2155   0.121E-03    0.221E-04
RMM:  19    -0.413851374758E+03   -0.37560E-05   -0.71343E-07  1942   0.981E-04    0.166E-04
RMM:  20    -0.413851377490E+03   -0.27312E-05   -0.38740E-07  1575   0.793E-04    0.109E-04
RMM:  21    -0.413851379215E+03   -0.17257E-05   -0.20112E-07  1283   0.665E-04    0.578E-05
RMM:  22    -0.413851380413E+03   -0.11973E-05   -0.11799E-07  1158   0.611E-04    0.424E-05
RMM:  23    -0.413851381197E+03   -0.78482E-06   -0.72390E-08  1066   0.578E-04
  145 T=   278. E= -.41248711E+03 F= -.41385138E+03 E0= -.41383043E+03  EK= 0.13643E+01 SP= 0.00E+00 SK= 0.00E+00
       N       E                     dE             d eps       ncg     rms          rms(c)
RMM:   1    -0.414099235449E+03   -0.24786E+00   -0.36124E+01  4264   0.106E+01    0.215E+00
RMM:   2    -0.413725898066E+03    0.37334E+00   -0.11302E+00  5356   0.137E+00    0.197E+00
RMM:   3    -0.413758358747E+03   -0.32461E-01   -0.20570E-01  5544   0.525E-01    0.157E+00
RMM:   4    -0.413853869702E+03   -0.95511E-01   -0.23440E-01  5226   0.474E-01    0.179E+00
RMM:   5    -0.413721028686E+03    0.13284E+00   -0.17268E-01  4757   0.524E-01    0.485E-01
RMM:   6    -0.413710949070E+03    0.10080E-01   -0.23123E-02  4866   0.215E-01    0.170E-01
RMM:   7    -0.413710557191E+03    0.39188E-03   -0.64546E-03  5700   0.915E-02    0.104E-01
RMM:   8    -0.413710424342E+03    0.13285E-03   -0.21504E-03  5373   0.531E-02    0.616E-02
RMM:   9    -0.413710295337E+03    0.12901E-03   -0.84954E-04  4999   0.369E-02    0.310E-02
RMM:  10    -0.413710290257E+03    0.50794E-05   -0.22875E-04  5726   0.189E-02    0.193E-02
RMM:  11    -0.413710289865E+03    0.39182E-06   -0.52193E-05  5293   0.865E-03    0.104E-02
RMM:  12    -0.413710293173E+03   -0.33078E-05   -0.13135E-05  4142   0.466E-03    0.609E-03
RMM:  13    -0.413710301208E+03   -0.80343E-05   -0.49316E-06  3036   0.365E-03    0.304E-03
RMM:  14    -0.413710309799E+03   -0.85910E-05   -0.23899E-06  2680   0.249E-03    0.139E-03
RMM:  15    -0.413710316382E+03   -0.65836E-05   -0.13585E-06  2588   0.171E-03    0.845E-04
RMM:  16    -0.413710323210E+03   -0.68276E-05   -0.11870E-06  2560   0.146E-03    0.706E-04
RMM:  17    -0.413710331805E+03   -0.85955E-05   -0.17485E-06  2619   0.155E-03    0.557E-04
RMM:  18    -0.413710336693E+03   -0.48878E-05   -0.10813E-06  2019   0.112E-03    0.311E-04
RMM:  19    -0.413710339657E+03   -0.29643E-05   -0.51927E-07  1834   0.910E-04    0.204E-04
RMM:  20    -0.413710343224E+03   -0.35666E-05   -0.59361E-07  1951   0.897E-04    0.167E-04
RMM:  21    -0.413710344643E+03   -0.14189E-05   -0.22693E-07  1231   0.645E-04    0.114E-04
RMM:  22    -0.413710345943E+03   -0.12999E-05   -0.13863E-07  1115   0.600E-04    0.462E-05
RMM:  23    -0.413710346704E+03   -0.76172E-06   -0.78587E-08  1016   0.565E-04
  146 T=   243. E= -.41251504E+03 F= -.41371035E+03 E0= -.41368907E+03  EK= 0.11953E+01 SP= 0.00E+00 SK= 0.00E+00
       N       E                     dE             d eps       ncg     rms          rms(c)
RMM:   1    -0.413316878495E+03    0.39347E+00   -0.26566E+01  4264   0.889E+00    0.234E+00
RMM:   2    -0.413078683003E+03    0.23820E+00   -0.94404E-01  5314   0.121E+00    0.223E+00
RMM:   3    -0.413149364038E+03   -0.70681E-01   -0.24006E-01  5688   0.515E-01    0.227E+00
RMM:   4    -0.413061496926E+03    0.87867E-01   -0.10654E-01  4961   0.396E-01    0.120E+00
RMM:   5    -0.413064565742E+03   -0.30688E-02   -0.12470E-01  4713   0.468E-01    0.556E-01
RMM:   6    -0.413053170154E+03    0.11396E-01   -0.20808E-02  4606   0.209E-01    0.205E-01
RMM:   7    -0.413052285915E+03    0.88424E-03   -0.52721E-03  5478   0.946E-02    0.122E-01
RMM:   8    -0.413051907121E+03    0.37879E-03   -0.19382E-03  4988   0.565E-02    0.573E-02
RMM:   9    -0.413051838108E+03    0.69013E-04   -0.71290E-04  4890   0.347E-02    0.245E-02
RMM:  10    -0.413051838116E+03   -0.78726E-08   -0.18216E-04  5988   0.161E-02    0.165E-02
RMM:  11    -0.413051837233E+03    0.88278E-06   -0.36060E-05  5023   0.742E-03    0.851E-03
RMM:  12    -0.413051839933E+03   -0.26995E-05   -0.99836E-06  3762   0.426E-03    0.483E-03
RMM:  13    -0.413051843744E+03   -0.38112E-05   -0.26393E-06  2730   0.266E-03    0.211E-03
RMM:  14    -0.413051847379E+03   -0.36346E-05   -0.13870E-06  2580   0.179E-03    0.853E-04
RMM:  15    -0.413051850626E+03   -0.32468E-05   -0.98613E-07  2499   0.145E-03    0.550E-04
RMM:  16    -0.413051853814E+03   -0.31886E-05   -0.82057E-07  2345   0.122E-03    0.401E-04
RMM:  17    -0.413051856247E+03   -0.24324E-05   -0.58270E-07  1943   0.100E-03    0.213E-04
RMM:  18    -0.413051858959E+03   -0.27128E-05   -0.67775E-07  2098   0.101E-03    0.196E-04
RMM:  19    -0.413051860635E+03   -0.16752E-05   -0.40344E-07  1540   0.804E-04    0.130E-04
RMM:  20    -0.413051861398E+03   -0.76316E-06   -0.20130E-07  1223   0.677E-04
  147 T=   121. E= -.41245636E+03 F= -.41305186E+03 E0= -.41303040E+03  EK= 0.59551E+00 SP= 0.00E+00 SK= 0.00E+00
       N       E                     dE             d eps       ncg     rms          rms(c)
RMM:   1    -0.412904550613E+03    0.14731E+00   -0.85783E+00  4265   0.516E+00    0.941E-01
RMM:   2    -0.412898073022E+03    0.64776E-02   -0.29828E-01  5385   0.564E-01    0.772E-01
RMM:   3    -0.412946205743E+03   -0.48133E-01   -0.79262E-02  5513   0.292E-01    0.108E+00
RMM:   4    -0.412899784846E+03    0.46421E-01   -0.44118E-02  5073   0.243E-01    0.382E-01
RMM:   5    -0.412897538333E+03    0.22465E-02   -0.20175E-02  5055   0.187E-01    0.132E-01
RMM:   6    -0.412897017441E+03    0.52089E-03   -0.21330E-03  4961   0.655E-02    0.541E-02
RMM:   7    -0.412896988180E+03    0.29260E-04   -0.72198E-04  5590   0.305E-02    0.316E-02
RMM:   8    -0.412896997701E+03   -0.95201E-05   -0.32553E-04  5540   0.205E-02    0.245E-02
RMM:   9    -0.412896975679E+03    0.22021E-04   -0.84663E-05  5334   0.114E-02    0.149E-02
RMM:  10    -0.412896973766E+03    0.19135E-05   -0.33741E-05  5353   0.694E-03    0.617E-03
RMM:  11    -0.412896974566E+03   -0.80042E-06   -0.11362E-05  4046   0.402E-03    0.440E-03
RMM:  12    -0.412896974876E+03   -0.30929E-06   -0.18145E-06  2614   0.242E-03
  148 T=    99. E= -.41241189E+03 F= -.41289697E+03 E0= -.41287541E+03  EK= 0.48508E+00 SP= 0.00E+00 SK= 0.00E+00
       N       E                     dE             d eps       ncg     rms          rms(c)
RMM:   1    -0.413882962454E+03   -0.98599E+00   -0.22216E+01  4297   0.831E+00    0.249E+00
RMM:   2    -0.413834619019E+03    0.48343E-01   -0.10445E+00  5405   0.128E+00    0.254E+00
RMM:   3    -0.413794243789E+03    0.40375E-01   -0.38565E-01  5360   0.689E-01    0.229E+00
RMM:   4    -0.413678219932E+03    0.11602E+00   -0.27184E-01  5253   0.610E-01    0.112E+00
RMM:   5    -0.413667197634E+03    0.11022E-01   -0.95120E-02  4952   0.416E-01    0.426E-01
RMM:   6    -0.413660108765E+03    0.70889E-02   -0.42955E-02  5041   0.256E-01    0.211E-01
RMM:   7    -0.413658163728E+03    0.19450E-02   -0.56405E-03  5037   0.109E-01    0.107E-01
RMM:   8    -0.413658016795E+03    0.14693E-03   -0.90040E-04  4759   0.421E-02    0.589E-02
RMM:   9    -0.413657997948E+03    0.18847E-04   -0.59874E-04  5102   0.320E-02    0.301E-02
RMM:  10    -0.413657989543E+03    0.84047E-05   -0.15000E-04  5602   0.146E-02    0.185E-02
RMM:  11    -0.413657988676E+03    0.86728E-06   -0.78827E-05  5771   0.105E-02    0.801E-03
RMM:  12    -0.413657993007E+03   -0.43315E-05   -0.18316E-05  4630   0.511E-03    0.637E-03
RMM:  13    -0.413657994985E+03   -0.19776E-05   -0.66823E-06  3532   0.382E-03    0.328E-03
RMM:  14    -0.413657995838E+03   -0.85314E-06   -0.18986E-06  2622   0.228E-03
  149 T=   232. E= -.41252045E+03 F= -.41365800E+03 E0= -.41363654E+03  EK= 0.11375E+01 SP= 0.00E+00 SK= 0.00E+00
       N       E                     dE             d eps       ncg     rms          rms(c)
RMM:   1    -0.414433382023E+03   -0.77539E+00   -0.36757E+01  4302   0.108E+01    0.274E+00
RMM:   2    -0.414101217297E+03    0.33216E+00   -0.14290E+00  5419   0.152E+00    0.277E+00
RMM:   3    -0.414099291544E+03    0.19258E-02   -0.44676E-01  5467   0.745E-01    0.258E+00
RMM:   4    -0.413961385380E+03    0.13791E+00   -0.28946E-01  5289   0.625E-01    0.137E+00
RMM:   5    -0.413947410744E+03    0.13975E-01   -0.13646E-01  4748   0.499E-01    0.494E-01
RMM:   6    -0.413940669502E+03    0.67412E-02   -0.68914E-02  5049   0.318E-01    0.289E-01
RMM:   7    -0.413935654121E+03    0.50154E-02   -0.83151E-03  4607   0.137E-01    0.130E-01
RMM:   8    -0.413935503142E+03    0.15098E-03   -0.22952E-03  5399   0.596E-02    0.831E-02
RMM:   9    -0.413935399528E+03    0.10361E-03   -0.10668E-03  4541   0.423E-02    0.317E-02
RMM:  10    -0.413935414224E+03   -0.14695E-04   -0.29822E-04  5808   0.206E-02    0.191E-02
RMM:  11    -0.413935419101E+03   -0.48770E-05   -0.80725E-05  5516   0.111E-02    0.109E-02
RMM:  12    -0.413935428905E+03   -0.98048E-05   -0.24681E-05  4675   0.641E-03    0.742E-03
RMM:  13    -0.413935434015E+03   -0.51096E-05   -0.86641E-06  3531   0.395E-03    0.306E-03
RMM:  14    -0.413935437068E+03   -0.30534E-05   -0.39197E-06  2882   0.275E-03    0.186E-03
RMM:  15    -0.413935438299E+03   -0.12310E-05   -0.17391E-06  2624   0.200E-03    0.886E-04
RMM:  16    -0.413935438432E+03   -0.13235E-06   -0.10225E-06  2451   0.138E-03
  150 T=   295. E= -.41248621E+03 F= -.41393544E+03 E0= -.41391468E+03  EK= 0.14492E+01 SP= 0.00E+00 SK= 0.00E+00
