       N       E                     dE             d eps       ncg     rms          rms(c)
RMM:   1     0.220137157902E+04    0.22014E+04   -0.52441E+04  2132   0.654E+02
RMM:   2     0.705685093405E+03   -0.14957E+04   -0.16261E+04  2132   0.177E+02
RMM:   3     0.137827160098E+03   -0.56786E+03   -0.65710E+03  2132   0.117E+02
RMM:   4    -0.159315863804E+03   -0.29714E+03   -0.27853E+03  2132   0.936E+01
RMM:   5    -0.287561170124E+03   -0.12825E+03   -0.11441E+03  2132   0.595E+01
RMM:   6    -0.350009345092E+03   -0.62448E+02   -0.55144E+02  2132   0.423E+01
RMM:   7    -0.382878956420E+03   -0.32870E+02   -0.30395E+02  2132   0.293E+01
RMM:   8    -0.404253514159E+03   -0.21375E+02   -0.18375E+02  2132   0.233E+01
RMM:   9    -0.436013662595E+03   -0.31760E+02   -0.30674E+02  6109   0.173E+01
RMM:  10    -0.441329855688E+03   -0.53162E+01   -0.63058E+01  6398   0.538E+00
RMM:  11    -0.442526615287E+03   -0.11968E+01   -0.11142E+01  6220   0.173E+00
RMM:  12    -0.442893863687E+03   -0.36725E+00   -0.26365E+00  6368   0.596E-01    0.134E+02
RMM:  13    -0.425560481731E+03    0.17333E+02   -0.80917E+01  4675   0.119E+01    0.712E+01
RMM:  14    -0.498137141557E+03   -0.72577E+02   -0.53563E+02  5416   0.231E+01    0.304E+01
RMM:  15    -0.414076681232E+03    0.84060E+02   -0.19368E+02  5061   0.162E+01    0.596E+00
RMM:  16    -0.414075677477E+03    0.10038E-02   -0.38758E+01  6075   0.599E+00    0.429E+00
RMM:  17    -0.413231991875E+03    0.84369E+00   -0.22406E+00  5328   0.179E+00    0.249E+00
RMM:  18    -0.413160732822E+03    0.71259E-01   -0.95159E-01  5931   0.101E+00    0.156E+00
RMM:  19    -0.413167752282E+03   -0.70195E-02   -0.28964E-01  5764   0.564E-01    0.862E-01
RMM:  20    -0.413182747023E+03   -0.14995E-01   -0.19230E-01  5309   0.484E-01    0.542E-01
RMM:  21    -0.413166639809E+03    0.16107E-01   -0.34718E-02  5015   0.226E-01    0.250E-01
RMM:  22    -0.413165468869E+03    0.11709E-02   -0.13861E-02  6086   0.967E-02    0.152E-01
RMM:  23    -0.413163945144E+03    0.15237E-02   -0.55229E-03  5842   0.685E-02    0.801E-02
RMM:  24    -0.413162737666E+03    0.12075E-02   -0.18473E-03  5600   0.410E-02    0.337E-02
RMM:  25    -0.413162600722E+03    0.13694E-03   -0.82110E-04  6011   0.232E-02    0.262E-02
RMM:  26    -0.413162868729E+03   -0.26801E-03   -0.53005E-04  5785   0.242E-02    0.304E-02
RMM:  27    -0.413163281120E+03   -0.41239E-03   -0.17654E-04  4576   0.185E-02    0.154E-02
RMM:  28    -0.413163798752E+03   -0.51763E-03   -0.19375E-04  5176   0.202E-02    0.836E-03
RMM:  29    -0.413164127133E+03   -0.32838E-03   -0.90702E-05  4359   0.133E-02    0.442E-03
RMM:  30    -0.413164344217E+03   -0.21708E-03   -0.69131E-05  3887   0.972E-03    0.243E-03
RMM:  31    -0.413164436082E+03   -0.91865E-04   -0.41550E-05  3083   0.536E-03    0.195E-03
RMM:  32    -0.413164462057E+03   -0.25974E-04   -0.16143E-05  2906   0.281E-03    0.942E-04
RMM:  33    -0.413164471554E+03   -0.94975E-05   -0.75482E-06  2752   0.193E-03    0.598E-04
RMM:  34    -0.413164474894E+03   -0.33397E-05   -0.38911E-06  2602   0.151E-03    0.931E-04
RMM:  35    -0.413164474547E+03    0.34704E-06   -0.20498E-06  1838   0.966E-04
    1 T=    61. E= -.41286665E+03 F= -.41316447E+03 E0= -.41314198E+03  EK= 0.29783E+00 SP= 0.00E+00 SK= 0.00E+00
       N       E                     dE             d eps       ncg     rms          rms(c)
RMM:   1    -0.413154633895E+03    0.98410E-02   -0.11140E+01  4005   0.698E-01    0.886E-01
RMM:   2    -0.413165590040E+03   -0.10956E-01   -0.13750E-01  3909   0.100E-01    0.641E-01
RMM:   3    -0.413164143196E+03    0.14468E-02   -0.64010E-03  4731   0.367E-02    0.155E-01
RMM:   4    -0.413183583972E+03   -0.19441E-01   -0.20217E-02  5219   0.118E-01    0.583E-01
RMM:   5    -0.413163806338E+03    0.19778E-01   -0.97836E-03  4851   0.976E-02    0.290E-02
RMM:   6    -0.413163929680E+03   -0.12334E-03   -0.15706E-03  5875   0.380E-02    0.161E-02
RMM:   7    -0.413163944209E+03   -0.14529E-04   -0.18712E-04  5778   0.116E-02    0.120E-02
RMM:   8    -0.413163950525E+03   -0.63157E-05   -0.27530E-05  4329   0.489E-03    0.727E-03
RMM:   9    -0.413163956487E+03   -0.59624E-05   -0.52411E-06  2914   0.273E-03    0.479E-03
RMM:  10    -0.413163963741E+03   -0.72539E-05   -0.17178E-06  2550   0.186E-03    0.270E-03
RMM:  11    -0.413163971237E+03   -0.74957E-05   -0.14689E-06  2550   0.168E-03    0.135E-03
RMM:  12    -0.413163976142E+03   -0.49056E-05   -0.83211E-07  2413   0.128E-03    0.467E-04
RMM:  13    -0.413163977437E+03   -0.12950E-05   -0.38951E-07  1859   0.874E-04    0.269E-04
RMM:  14    -0.413163978965E+03   -0.15274E-05   -0.28021E-07  1452   0.743E-04    0.159E-04
RMM:  15    -0.413163981582E+03   -0.26175E-05   -0.28292E-07  1562   0.755E-04    0.139E-04
RMM:  16    -0.413163981937E+03   -0.35473E-06   -0.15827E-07  1061   0.614E-04
    2 T=    61. E= -.41286628E+03 F= -.41316398E+03 E0= -.41314148E+03  EK= 0.29770E+00 SP= 0.00E+00 SK= 0.00E+00
       N       E                     dE             d eps       ncg     rms          rms(c)
RMM:   1    -0.413155847823E+03    0.81338E-02   -0.11172E+01  4194   0.704E-01    0.911E-01
RMM:   2    -0.413165650903E+03   -0.98031E-02   -0.13469E-01  4003   0.971E-02    0.633E-01
RMM:   3    -0.413164898230E+03    0.75267E-03   -0.68648E-03  4854   0.382E-02    0.168E-01
RMM:   4    -0.413192723566E+03   -0.27825E-01   -0.28195E-02  5181   0.140E-01    0.695E-01
RMM:   5    -0.413164528394E+03    0.28195E-01   -0.13728E-02  4832   0.116E-01    0.364E-02
RMM:   6    -0.413164694992E+03   -0.16660E-03   -0.21964E-03  5807   0.453E-02    0.191E-02
RMM:   7    -0.413164706635E+03   -0.11643E-04   -0.26416E-04  5886   0.136E-02    0.137E-02
RMM:   8    -0.413164707573E+03   -0.93760E-06   -0.34181E-05  4429   0.530E-03    0.814E-03
RMM:   9    -0.413164707197E+03    0.37546E-06   -0.60557E-06  3015   0.281E-03
    3 T=    61. E= -.41286679E+03 F= -.41316471E+03 E0= -.41314221E+03  EK= 0.29792E+00 SP= 0.00E+00 SK= 0.00E+00
       N       E                     dE             d eps       ncg     rms          rms(c)
RMM:   1    -0.413155360239E+03    0.93473E-02   -0.11085E+01  4229   0.706E-01    0.894E-01
RMM:   2    -0.413165719779E+03   -0.10360E-01   -0.13354E-01  4203   0.984E-02    0.627E-01
RMM:   3    -0.413168292405E+03   -0.25726E-02   -0.95042E-03  5177   0.676E-02    0.305E-01
RMM:   4    -0.413192680931E+03   -0.24389E-01   -0.39726E-02  5132   0.169E-01    0.700E-01
RMM:   5    -0.413164368870E+03    0.28312E-01   -0.11760E-02  4733   0.117E-01    0.538E-02
RMM:   6    -0.413164400978E+03   -0.32109E-04   -0.20093E-03  5553   0.445E-02    0.171E-02
RMM:   7    -0.413164424034E+03   -0.23056E-04   -0.29109E-04  6036   0.149E-02    0.122E-02
RMM:   8    -0.413164427137E+03   -0.31028E-05   -0.38307E-05  4818   0.575E-03    0.722E-03
RMM:   9    -0.413164429087E+03   -0.19497E-05   -0.75327E-06  3177   0.366E-03    0.360E-03
RMM:  10    -0.413164430853E+03   -0.17657E-05   -0.17500E-06  2555   0.210E-03    0.216E-03
RMM:  11    -0.413164433019E+03   -0.21665E-05   -0.10680E-06  2545   0.160E-03    0.111E-03
RMM:  12    -0.413164434124E+03   -0.11053E-05   -0.50057E-07  2256   0.111E-03    0.480E-04
RMM:  13    -0.413164435232E+03   -0.11080E-05   -0.37708E-07  1739   0.889E-04    0.222E-04
RMM:  14    -0.413164435738E+03   -0.50566E-06   -0.21408E-07  1386   0.741E-04
    4 T=    61. E= -.41286653E+03 F= -.41316444E+03 E0= -.41314195E+03  EK= 0.29791E+00 SP= 0.00E+00 SK= 0.00E+00
       N       E                     dE             d eps       ncg     rms          rms(c)
RMM:   1    -0.413155121068E+03    0.93142E-02   -0.11124E+01  4236   0.710E-01    0.884E-01
RMM:   2    -0.413165928132E+03   -0.10807E-01   -0.13763E-01  3936   0.952E-02    0.639E-01
RMM:   3    -0.413164808173E+03    0.11200E-02   -0.64469E-03  4922   0.367E-02    0.163E-01
RMM:   4    -0.413195079560E+03   -0.30271E-01   -0.30929E-02  5161   0.147E-01    0.725E-01
RMM:   5    -0.413164304902E+03    0.30775E-01   -0.14940E-02  4821   0.121E-01    0.363E-02
RMM:   6    -0.413164489071E+03   -0.18417E-03   -0.23983E-03  5787   0.470E-02    0.174E-02
RMM:   7    -0.413164507890E+03   -0.18819E-04   -0.28064E-04  5878   0.138E-02    0.132E-02
RMM:   8    -0.413164513230E+03   -0.53399E-05   -0.36139E-05  4437   0.534E-03    0.802E-03
RMM:   9    -0.413164517817E+03   -0.45869E-05   -0.62731E-06  3006   0.284E-03    0.539E-03
RMM:  10    -0.413164524153E+03   -0.63366E-05   -0.20080E-06  2554   0.204E-03    0.286E-03
RMM:  11    -0.413164529953E+03   -0.57991E-05   -0.14383E-06  2545   0.175E-03    0.142E-03
RMM:  12    -0.413164533678E+03   -0.37250E-05   -0.75275E-07  2434   0.133E-03    0.480E-04
RMM:  13    -0.413164534903E+03   -0.12257E-05   -0.32487E-07  1993   0.925E-04    0.291E-04
RMM:  14    -0.413164536235E+03   -0.13322E-05   -0.20575E-07  1495   0.766E-04    0.167E-04
RMM:  15    -0.413164538090E+03   -0.18550E-05   -0.22991E-07  1538   0.755E-04    0.135E-04
RMM:  16    -0.413164538366E+03   -0.27573E-06   -0.92177E-08  1082   0.627E-04
    5 T=    61. E= -.41286648E+03 F= -.41316454E+03 E0= -.41314206E+03  EK= 0.29806E+00 SP= 0.00E+00 SK= 0.00E+00
       N       E                     dE             d eps       ncg     rms          rms(c)
RMM:   1    -0.413156096023E+03    0.84421E-02   -0.11178E+01  4248   0.715E-01    0.907E-01
RMM:   2    -0.413166275057E+03   -0.10179E-01   -0.13468E-01  4070   0.976E-02    0.635E-01
RMM:   3    -0.413165391024E+03    0.88403E-03   -0.66913E-03  4853   0.377E-02    0.167E-01
RMM:   4    -0.413193536748E+03   -0.28146E-01   -0.28501E-02  5159   0.141E-01    0.699E-01
RMM:   5    -0.413164980086E+03    0.28557E-01   -0.13957E-02  4825   0.116E-01    0.360E-02
RMM:   6    -0.413165143459E+03   -0.16337E-03   -0.22030E-03  5789   0.451E-02    0.188E-02
RMM:   7    -0.413165154552E+03   -0.11092E-04   -0.25962E-04  5863   0.135E-02    0.136E-02
RMM:   8    -0.413165155357E+03   -0.80591E-06   -0.33509E-05  4423   0.527E-03    0.811E-03
RMM:   9    -0.413165154928E+03    0.42992E-06   -0.59783E-06  2975   0.282E-03
    6 T=    61. E= -.41286676E+03 F= -.41316515E+03 E0= -.41314269E+03  EK= 0.29840E+00 SP= 0.00E+00 SK= 0.00E+00
       N       E                     dE             d eps       ncg     rms          rms(c)
RMM:   1    -0.413155786407E+03    0.93690E-02   -0.11120E+01  4267   0.722E-01    0.902E-01
RMM:   2    -0.413165622230E+03   -0.98358E-02   -0.13408E-01  4257   0.991E-02    0.628E-01
RMM:   3    -0.413168501415E+03   -0.28792E-02   -0.96568E-03  5147   0.671E-02    0.304E-01
RMM:   4    -0.413192830867E+03   -0.24329E-01   -0.39436E-02  5118   0.168E-01    0.699E-01
RMM:   5    -0.413164645060E+03    0.28186E-01   -0.11747E-02  4733   0.116E-01    0.533E-02
RMM:   6    -0.413164681732E+03   -0.36672E-04   -0.19892E-03  5565   0.444E-02    0.173E-02
RMM:   7    -0.413164702872E+03   -0.21140E-04   -0.28526E-04  6034   0.148E-02    0.123E-02
RMM:   8    -0.413164704362E+03   -0.14891E-05   -0.37742E-05  4791   0.575E-03    0.723E-03
RMM:   9    -0.413164703122E+03    0.12399E-05   -0.73171E-06  3110   0.366E-03    0.355E-03
RMM:  10    -0.413164703271E+03   -0.14981E-06   -0.17516E-06  2552   0.210E-03
    7 T=    61. E= -.41286625E+03 F= -.41316470E+03 E0= -.41314226E+03  EK= 0.29846E+00 SP= 0.00E+00 SK= 0.00E+00
       N       E                     dE             d eps       ncg     rms          rms(c)
RMM:   1    -0.413155884807E+03    0.88183E-02   -0.11120E+01  4274   0.726E-01    0.883E-01
RMM:   2    -0.413166828399E+03   -0.10944E-01   -0.13694E-01  4118   0.963E-02    0.637E-01
RMM:   3    -0.413165911867E+03    0.91653E-03   -0.65947E-03  4997   0.408E-02    0.176E-01
RMM:   4    -0.413205406991E+03   -0.39495E-01   -0.41170E-02  5155   0.168E-01    0.825E-01
RMM:   5    -0.413165196183E+03    0.40211E-01   -0.19449E-02  4809   0.138E-01    0.430E-02
RMM:   6    -0.413165408840E+03   -0.21266E-03   -0.31123E-03  5768   0.536E-02    0.176E-02
RMM:   7    -0.413165435744E+03   -0.26904E-04   -0.37183E-04  5938   0.155E-02    0.140E-02
RMM:   8    -0.413165440407E+03   -0.46633E-05   -0.43514E-05  4507   0.569E-03    0.835E-03
RMM:   9    -0.413165443922E+03   -0.35145E-05   -0.73938E-06  3049   0.292E-03    0.550E-03
RMM:  10    -0.413165448991E+03   -0.50695E-05   -0.24369E-06  2569   0.219E-03    0.282E-03
RMM:  11    -0.413165453308E+03   -0.43163E-05   -0.14676E-06  2541   0.177E-03    0.135E-03
RMM:  12    -0.413165455939E+03   -0.26312E-05   -0.81041E-07  2449   0.136E-03    0.430E-04
RMM:  13    -0.413165457131E+03   -0.11920E-05   -0.38777E-07  2023   0.966E-04    0.276E-04
RMM:  14    -0.413165458299E+03   -0.11682E-05   -0.29608E-07  1648   0.819E-04    0.183E-04
RMM:  15    -0.413165459049E+03   -0.75034E-06   -0.21469E-07  1385   0.735E-04
    8 T=    61. E= -.41286666E+03 F= -.41316546E+03 E0= -.41314303E+03  EK= 0.29880E+00 SP= 0.00E+00 SK= 0.00E+00
       N       E                     dE             d eps       ncg     rms          rms(c)
RMM:   1    -0.413156368063E+03    0.90902E-02   -0.11185E+01  4284   0.728E-01    0.901E-01
RMM:   2    -0.413166701848E+03   -0.10334E-01   -0.13607E-01  4171   0.101E-01    0.638E-01
RMM:   3    -0.413165789709E+03    0.91214E-03   -0.66570E-03  4849   0.386E-02    0.166E-01
RMM:   4    -0.413194621604E+03   -0.28832E-01   -0.29359E-02  5157   0.143E-01    0.708E-01
RMM:   5    -0.413165286035E+03    0.29336E-01   -0.14366E-02  4812   0.118E-01    0.356E-02
RMM:   6    -0.413165459130E+03   -0.17310E-03   -0.22751E-03  5801   0.458E-02    0.183E-02
RMM:   7    -0.413165471545E+03   -0.12415E-04   -0.26623E-04  5856   0.136E-02    0.136E-02
RMM:   8    -0.413165472773E+03   -0.12283E-05   -0.34280E-05  4445   0.534E-03    0.827E-03
RMM:   9    -0.413165472678E+03    0.95832E-07   -0.61661E-06  3006   0.288E-03
    9 T=    61. E= -.41286649E+03 F= -.41316547E+03 E0= -.41314306E+03  EK= 0.29898E+00 SP= 0.00E+00 SK= 0.00E+00
       N       E                     dE             d eps       ncg     rms          rms(c)
RMM:   1    -0.413156837025E+03    0.86357E-02   -0.11168E+01  4293   0.732E-01    0.909E-01
RMM:   2    -0.413166422448E+03   -0.95854E-02   -0.13416E-01  4286   0.986E-02    0.630E-01
RMM:   3    -0.413169919256E+03   -0.34968E-02   -0.10282E-02  5148   0.707E-02    0.320E-01
RMM:   4    -0.413191093624E+03   -0.21174E-01   -0.37662E-02  5103   0.164E-01    0.667E-01
RMM:   5    -0.413165621576E+03    0.25472E-01   -0.10395E-02  4715   0.111E-01    0.525E-02
RMM:   6    -0.413165641151E+03   -0.19575E-04   -0.18001E-03  5536   0.418E-02    0.180E-02
RMM:   7    -0.413165657898E+03   -0.16747E-04   -0.25933E-04  6024   0.143E-02    0.123E-02
RMM:   8    -0.413165658078E+03   -0.17985E-06   -0.34608E-05  4761   0.559E-03    0.714E-03
RMM:   9    -0.413165654451E+03    0.36265E-05   -0.72406E-06  3104   0.361E-03    0.357E-03
RMM:  10    -0.413165653485E+03    0.96608E-06   -0.16019E-06  2537   0.205E-03
   10 T=    61. E= -.41286640E+03 F= -.41316565E+03 E0= -.41314327E+03  EK= 0.29926E+00 SP= 0.00E+00 SK= 0.00E+00
       N       E                     dE             d eps       ncg     rms          rms(c)
RMM:   1    -0.413156950741E+03    0.87037E-02   -0.11121E+01  4298   0.733E-01    0.884E-01
RMM:   2    -0.413167879311E+03   -0.10929E-01   -0.13587E-01  4198   0.964E-02    0.634E-01
RMM:   3    -0.413166953686E+03    0.92562E-03   -0.64841E-03  4982   0.411E-02    0.176E-01
RMM:   4    -0.413205212466E+03   -0.38259E-01   -0.39832E-02  5154   0.165E-01    0.813E-01
RMM:   5    -0.413166167420E+03    0.39045E-01   -0.18963E-02  4806   0.136E-01    0.422E-02
RMM:   6    -0.413166372035E+03   -0.20462E-03   -0.30175E-03  5773   0.528E-02    0.181E-02
RMM:   7    -0.413166393395E+03   -0.21360E-04   -0.36157E-04  5941   0.153E-02    0.141E-02
RMM:   8    -0.413166395651E+03   -0.22562E-05   -0.42520E-05  4505   0.568E-03    0.841E-03
RMM:   9    -0.413166396447E+03   -0.79634E-06   -0.74409E-06  3057   0.295E-03
   11 T=    61. E= -.41286665E+03 F= -.41316640E+03 E0= -.41314404E+03  EK= 0.29975E+00 SP= 0.00E+00 SK= 0.00E+00
       N       E                     dE             d eps       ncg     rms          rms(c)
RMM:   1    -0.413157112044E+03    0.92836E-02   -0.11203E+01  4298   0.746E-01    0.896E-01
RMM:   2    -0.413167512853E+03   -0.10401E-01   -0.13754E-01  4275   0.973E-02    0.641E-01
RMM:   3    -0.413170051398E+03   -0.25385E-02   -0.95079E-03  5144   0.671E-02    0.303E-01
RMM:   4    -0.413198141394E+03   -0.28090E-01   -0.44064E-02  5112   0.176E-01    0.742E-01
RMM:   5    -0.413166129258E+03    0.32012E-01   -0.13495E-02  4727   0.123E-01    0.538E-02
RMM:   6    -0.413166192992E+03   -0.63734E-04   -0.22739E-03  5590   0.469E-02    0.159E-02
RMM:   7    -0.413166218651E+03   -0.25659E-04   -0.31076E-04  6029   0.151E-02    0.120E-02
RMM:   8    -0.413166222160E+03   -0.35090E-05   -0.40351E-05  4814   0.579E-03    0.714E-03
RMM:   9    -0.413166224051E+03   -0.18911E-05   -0.73947E-06  3059   0.358E-03    0.365E-03
RMM:  10    -0.413166225680E+03   -0.16291E-05   -0.19819E-06  2556   0.213E-03    0.214E-03
RMM:  11    -0.413166227419E+03   -0.17384E-05   -0.11635E-06  2545   0.160E-03    0.110E-03
RMM:  12    -0.413166228157E+03   -0.73869E-06   -0.53862E-07  2237   0.111E-03
   12 T=    61. E= -.41286623E+03 F= -.41316623E+03 E0= -.41314390E+03  EK= 0.30000E+00 SP= 0.00E+00 SK= 0.00E+00
       N       E                     dE             d eps       ncg     rms          rms(c)
RMM:   1    -0.413158012672E+03    0.82147E-02   -0.11223E+01  4299   0.747E-01    0.914E-01
RMM:   2    -0.413167790776E+03   -0.97781E-02   -0.13441E-01  4214   0.936E-02    0.632E-01
RMM:   3    -0.413167280328E+03    0.51045E-03   -0.69533E-03  4971   0.384E-02    0.177E-01
RMM:   4    -0.413202320159E+03   -0.35040E-01   -0.36064E-02  5150   0.157E-01    0.778E-01
RMM:   5    -0.413166719776E+03    0.35600E-01   -0.17459E-02  4806   0.130E-01    0.403E-02
RMM:   6    -0.413166914999E+03   -0.19522E-03   -0.27121E-03  5805   0.503E-02    0.205E-02
RMM:   7    -0.413166926355E+03   -0.11356E-04   -0.31987E-04  5897   0.149E-02    0.149E-02
RMM:   8    -0.413166924558E+03    0.17969E-05   -0.42624E-05  4647   0.582E-03    0.929E-03
RMM:   9    -0.413166920029E+03    0.45292E-05   -0.74328E-06  3124   0.303E-03    0.616E-03
RMM:  10    -0.413166916132E+03    0.38971E-05   -0.21759E-06  2558   0.214E-03    0.320E-03
RMM:  11    -0.413166912890E+03    0.32423E-05   -0.16192E-06  2541   0.190E-03    0.152E-03
RMM:  12    -0.413166910240E+03    0.26499E-05   -0.82483E-07  2455   0.145E-03    0.493E-04
RMM:  13    -0.413166909466E+03    0.77377E-06   -0.34260E-07  2130   0.978E-04
   13 T=    61. E= -.41286638E+03 F= -.41316691E+03 E0= -.41314461E+03  EK= 0.30053E+00 SP= 0.00E+00 SK= 0.00E+00
       N       E                     dE             d eps       ncg     rms          rms(c)
RMM:   1    -0.413158054767E+03    0.88555E-02   -0.11142E+01  4298   0.746E-01    0.888E-01
RMM:   2    -0.413168563491E+03   -0.10509E-01   -0.13637E-01  4224   0.962E-02    0.632E-01
RMM:   3    -0.413167743046E+03    0.82045E-03   -0.64591E-03  4888   0.374E-02    0.168E-01
RMM:   4    -0.413197723798E+03   -0.29981E-01   -0.30703E-02  5143   0.146E-01    0.722E-01
RMM:   5    -0.413167204281E+03    0.30520E-01   -0.15040E-02  4810   0.120E-01    0.357E-02
RMM:   6    -0.413167375591E+03   -0.17131E-03   -0.23100E-03  5804   0.463E-02    0.183E-02
RMM:   7    -0.413167385607E+03   -0.10016E-04   -0.27042E-04  5866   0.138E-02    0.135E-02
RMM:   8    -0.413167385474E+03    0.13295E-06   -0.36335E-05  4507   0.546E-03    0.843E-03
RMM:   9    -0.413167383730E+03    0.17440E-05   -0.64239E-06  3017   0.292E-03    0.570E-03
RMM:  10    -0.413167383241E+03    0.48857E-06   -0.19802E-06  2549   0.207E-03
   14 T=    61. E= -.41286637E+03 F= -.41316738E+03 E0= -.41314511E+03  EK= 0.30101E+00 SP= 0.00E+00 SK= 0.00E+00
       N       E                     dE             d eps       ncg     rms          rms(c)
RMM:   1    -0.413157999656E+03    0.93841E-02   -0.11231E+01  4308   0.755E-01    0.892E-01
RMM:   2    -0.413169298929E+03   -0.11299E-01   -0.13875E-01  4291   0.996E-02    0.643E-01
RMM:   3    -0.413170889032E+03   -0.15901E-02   -0.89756E-03  5120   0.645E-02    0.287E-01
RMM:   4    -0.413203386913E+03   -0.32498E-01   -0.46823E-02  5109   0.181E-01    0.783E-01
RMM:   5    -0.413167508739E+03    0.35878E-01   -0.15490E-02  4742   0.129E-01    0.512E-02
RMM:   6    -0.413167606231E+03   -0.97491E-04   -0.25065E-03  5632   0.493E-02    0.152E-02
RMM:   7    -0.413167632699E+03   -0.26469E-04   -0.32253E-04  6026   0.151E-02    0.121E-02
RMM:   8    -0.413167636083E+03   -0.33841E-05   -0.41042E-05  4786   0.578E-03    0.700E-03
RMM:   9    -0.413167637324E+03   -0.12407E-05   -0.66972E-06  2931   0.321E-03    0.335E-03
RMM:  10    -0.413167638813E+03   -0.14893E-05   -0.21661E-06  2552   0.204E-03    0.195E-03
RMM:  11    -0.413167640002E+03   -0.11888E-05   -0.10534E-06  2529   0.147E-03    0.940E-04
RMM:  12    -0.413167640565E+03   -0.56309E-06   -0.52925E-07  2008   0.107E-03
   15 T=    61. E= -.41286633E+03 F= -.41316764E+03 E0= -.41314541E+03  EK= 0.30131E+00 SP= 0.00E+00 SK= 0.00E+00
       N       E                     dE             d eps       ncg     rms          rms(c)
RMM:   1    -0.413159818353E+03    0.78216E-02   -0.11270E+01  4304   0.765E-01    0.916E-01
RMM:   2    -0.413169596270E+03   -0.97779E-02   -0.13567E-01  4245   0.101E-01    0.635E-01
RMM:   3    -0.413168986576E+03    0.60969E-03   -0.69788E-03  4928   0.414E-02    0.177E-01
RMM:   4    -0.413204001492E+03   -0.35015E-01   -0.36090E-02  5148   0.158E-01    0.779E-01
RMM:   5    -0.413168342528E+03    0.35659E-01   -0.17412E-02  4806   0.130E-01    0.401E-02
RMM:   6    -0.413168534266E+03   -0.19174E-03   -0.27653E-03  5807   0.505E-02    0.203E-02
RMM:   7    -0.413168543779E+03   -0.95126E-05   -0.32225E-04  5898   0.150E-02    0.150E-02
RMM:   8    -0.413168540610E+03    0.31686E-05   -0.42604E-05  4671   0.587E-03    0.943E-03
RMM:   9    -0.413168534985E+03    0.56255E-05   -0.73503E-06  3106   0.307E-03    0.628E-03
RMM:  10    -0.413168530162E+03    0.48229E-05   -0.21989E-06  2555   0.220E-03    0.329E-03
RMM:  11    -0.413168526061E+03    0.41004E-05   -0.16666E-06  2541   0.195E-03    0.158E-03
RMM:  12    -0.413168522869E+03    0.31920E-05   -0.82588E-07  2459   0.147E-03    0.513E-04
RMM:  13    -0.413168521882E+03    0.98745E-06   -0.34440E-07  2125   0.986E-04
   16 T=    61. E= -.41286666E+03 F= -.41316852E+03 E0= -.41314632E+03  EK= 0.30186E+00 SP= 0.00E+00 SK= 0.00E+00
       N       E                     dE             d eps       ncg     rms          rms(c)
RMM:   1    -0.413159798313E+03    0.87246E-02   -0.11180E+01  4299   0.758E-01    0.895E-01
RMM:   2    -0.413170244239E+03   -0.10446E-01   -0.13641E-01  4255   0.101E-01    0.631E-01
RMM:   3    -0.413169280552E+03    0.96369E-03   -0.65637E-03  4883   0.418E-02    0.174E-01
RMM:   4    -0.413202683289E+03   -0.33403E-01   -0.34215E-02  5142   0.153E-01    0.760E-01
RMM:   5    -0.413168776963E+03    0.33906E-01   -0.16707E-02  4805   0.127E-01    0.382E-02
RMM:   6    -0.413168968648E+03   -0.19169E-03   -0.26260E-03  5801   0.491E-02    0.193E-02
RMM:   7    -0.413168979430E+03   -0.10782E-04   -0.30489E-04  5896   0.146E-02    0.143E-02
RMM:   8    -0.413168977547E+03    0.18830E-05   -0.39809E-05  4572   0.565E-03    0.894E-03
RMM:   9    -0.413168973544E+03    0.40025E-05   -0.70007E-06  3074   0.297E-03    0.600E-03
RMM:  10    -0.413168970393E+03    0.31508E-05   -0.20866E-06  2552   0.211E-03    0.316E-03
RMM:  11    -0.413168967655E+03    0.27379E-05   -0.15830E-06  2535   0.188E-03    0.153E-03
RMM:  12    -0.413168965495E+03    0.21602E-05   -0.78518E-07  2445   0.142E-03    0.508E-04
RMM:  13    -0.413168964780E+03    0.71480E-06   -0.32954E-07  2097   0.962E-04
   17 T=    62. E= -.41286660E+03 F= -.41316896E+03 E0= -.41314681E+03  EK= 0.30237E+00 SP= 0.00E+00 SK= 0.00E+00
       N       E                     dE             d eps       ncg     rms          rms(c)
RMM:   1    -0.413160005461E+03    0.89600E-02   -0.11260E+01  4298   0.770E-01    0.890E-01
RMM:   2    -0.413171236865E+03   -0.11231E-01   -0.13899E-01  4262   0.101E-01    0.644E-01
RMM:   3    -0.413169920839E+03    0.13160E-02   -0.64591E-03  4917   0.393E-02    0.170E-01
RMM:   4    -0.413204491643E+03   -0.34571E-01   -0.35750E-02  5145   0.157E-01    0.773E-01
RMM:   5    -0.413169288120E+03    0.35204E-01   -0.17365E-02  4802   0.129E-01    0.383E-02
RMM:   6    -0.413169485427E+03   -0.19731E-03   -0.26931E-03  5797   0.498E-02    0.186E-02
RMM:   7    -0.413169499988E+03   -0.14561E-04   -0.31165E-04  5882   0.147E-02    0.140E-02
RMM:   8    -0.413169500657E+03   -0.66857E-06   -0.41185E-05  4601   0.571E-03    0.879E-03
RMM:   9    -0.413169499362E+03    0.12947E-05   -0.72836E-06  3090   0.302E-03    0.587E-03
RMM:  10    -0.413169499731E+03   -0.36840E-06   -0.22485E-06  2562   0.217E-03
   18 T=    62. E= -.41286647E+03 F= -.41316950E+03 E0= -.41314738E+03  EK= 0.30303E+00 SP= 0.00E+00 SK= 0.00E+00
       N       E                     dE             d eps       ncg     rms          rms(c)
RMM:   1    -0.413161693717E+03    0.78056E-02   -0.11319E+01  4302   0.770E-01    0.915E-01
RMM:   2    -0.413171604938E+03   -0.99112E-02   -0.13753E-01  4307   0.989E-02    0.639E-01
RMM:   3    -0.413174333711E+03   -0.27288E-02   -0.96851E-03  5121   0.673E-02    0.305E-01
RMM:   4    -0.413200455219E+03   -0.26122E-01   -0.41724E-02  5092   0.172E-01    0.720E-01
RMM:   5    -0.413170455612E+03    0.30000E-01   -0.12595E-02  4711   0.119E-01    0.500E-02
RMM:   6    -0.413170529087E+03   -0.73475E-04   -0.21110E-03  5616   0.448E-02    0.171E-02
RMM:   7    -0.413170544796E+03   -0.15708E-04   -0.27104E-04  5998   0.142E-02    0.122E-02
RMM:   8    -0.413170542655E+03    0.21406E-05   -0.35953E-05  4723   0.558E-03    0.696E-03
RMM:   9    -0.413170535326E+03    0.73293E-05   -0.62645E-06  2880   0.321E-03    0.320E-03
RMM:  10    -0.413170532027E+03    0.32986E-05   -0.17971E-06  2539   0.195E-03    0.183E-03
RMM:  11    -0.413170528197E+03    0.38303E-05   -0.89211E-07  2510   0.144E-03    0.952E-04
RMM:  12    -0.413170525770E+03    0.24272E-05   -0.45336E-07  1990   0.104E-03    0.480E-04
RMM:  13    -0.413170523114E+03    0.26553E-05   -0.33028E-07  1868   0.908E-04    0.227E-04
RMM:  14    -0.413170521600E+03    0.15138E-05   -0.18172E-07  1405   0.726E-04    0.141E-04
RMM:  15    -0.413170518468E+03    0.31326E-05   -0.21977E-07  1668   0.766E-04    0.127E-04
RMM:  16    -0.413170517099E+03    0.13694E-05   -0.11269E-07  1225   0.629E-04    0.107E-04
RMM:  17    -0.413170515044E+03    0.20545E-05   -0.10067E-07  1217   0.620E-04    0.442E-05
RMM:  18    -0.413170513625E+03    0.14193E-05   -0.62376E-08   998   0.564E-04    0.262E-05
RMM:  19    -0.413170512914E+03    0.71033E-06   -0.36571E-08   840   0.532E-04
   19 T=    62. E= -.41286657E+03 F= -.41317051E+03 E0= -.41314844E+03  EK= 0.30394E+00 SP= 0.00E+00 SK= 0.00E+00
       N       E                     dE             d eps       ncg     rms          rms(c)
RMM:   1    -0.413168607300E+03    0.19063E-02   -0.11335E+01  4295   0.818E-01    0.904E-01
RMM:   2    -0.413172243816E+03   -0.36365E-02   -0.13927E-01  4253   0.103E-01    0.633E-01
RMM:   3    -0.413171615329E+03    0.62849E-03   -0.67375E-03  4975   0.410E-02    0.186E-01
RMM:   4    -0.413211256833E+03   -0.39642E-01   -0.41537E-02  5147   0.169E-01    0.826E-01
RMM:   5    -0.413170906490E+03    0.40350E-01   -0.19775E-02  4798   0.138E-01    0.428E-02
RMM:   6    -0.413171118024E+03   -0.21153E-03   -0.31054E-03  5791   0.534E-02    0.204E-02
RMM:   7    -0.413171130668E+03   -0.12644E-04   -0.36278E-04  5888   0.157E-02    0.152E-02
RMM:   8    -0.413171127836E+03    0.28318E-05   -0.47340E-05  4732   0.606E-03    0.942E-03
RMM:   9    -0.413171121940E+03    0.58966E-05   -0.81151E-06  3167   0.312E-03    0.619E-03
RMM:  10    -0.413171116883E+03    0.50568E-05   -0.22971E-06  2550   0.222E-03    0.319E-03
RMM:  11    -0.413171112906E+03    0.39769E-05   -0.15286E-06  2526   0.188E-03    0.156E-03
RMM:  12    -0.413171109864E+03    0.30421E-05   -0.77281E-07  2456   0.144E-03    0.498E-04
RMM:  13    -0.413171108880E+03    0.98353E-06   -0.33712E-07  2123   0.988E-04
   20 T=    62. E= -.41286637E+03 F= -.41317111E+03 E0= -.41314908E+03  EK= 0.30474E+00 SP= 0.00E+00 SK= 0.00E+00
       N       E                     dE             d eps       ncg     rms          rms(c)
RMM:   1    -0.413162613764E+03    0.84961E-02   -0.11316E+01  4298   0.786E-01    0.890E-01
RMM:   2    -0.413173574441E+03   -0.10961E-01   -0.14071E-01  4265   0.101E-01    0.644E-01
RMM:   3    -0.413172454704E+03    0.11197E-02   -0.65221E-03  4931   0.403E-02    0.173E-01
RMM:   4    -0.413208250786E+03   -0.35796E-01   -0.37150E-02  5138   0.160E-01    0.787E-01
RMM:   5    -0.413171753430E+03    0.36497E-01   -0.18000E-02  4804   0.131E-01    0.388E-02
RMM:   6    -0.413171957344E+03   -0.20391E-03   -0.28383E-03  5794   0.509E-02    0.188E-02
RMM:   7    -0.413171971730E+03   -0.14386E-04   -0.32407E-04  5899   0.151E-02    0.143E-02
RMM:   8    -0.413171971161E+03    0.56832E-06   -0.43673E-05  4676   0.586E-03    0.918E-03
RMM:   9    -0.413171968156E+03    0.30052E-05   -0.76096E-06  3134   0.306E-03    0.621E-03
RMM:  10    -0.413171966700E+03    0.14562E-05   -0.22988E-06  2558   0.222E-03    0.326E-03
RMM:  11    -0.413171965611E+03    0.10893E-05   -0.17790E-06  2558   0.197E-03    0.158E-03
RMM:  12    -0.413171964605E+03    0.10056E-05   -0.79751E-07  2449   0.144E-03    0.536E-04
RMM:  13    -0.413171964243E+03    0.36188E-06   -0.33625E-07  2116   0.974E-04
   21 T=    62. E= -.41286635E+03 F= -.41317196E+03 E0= -.41314998E+03  EK= 0.30561E+00 SP= 0.00E+00 SK= 0.00E+00
       N       E                     dE             d eps       ncg     rms          rms(c)
RMM:   1    -0.413163758440E+03    0.82062E-02   -0.11390E+01  4296   0.784E-01    0.912E-01
RMM:   2    -0.413174412111E+03   -0.10654E-01   -0.13944E-01  4272   0.997E-02    0.643E-01
RMM:   3    -0.413173564550E+03    0.84756E-03   -0.67119E-03  4879   0.400E-02    0.175E-01
RMM:   4    -0.413206868357E+03   -0.33304E-01   -0.34231E-02  5140   0.154E-01    0.759E-01
RMM:   5    -0.413173024315E+03    0.33844E-01   -0.16698E-02  4801   0.126E-01    0.382E-02
RMM:   6    -0.413173210836E+03   -0.18652E-03   -0.26313E-03  5801   0.488E-02    0.195E-02
RMM:   7    -0.413173221520E+03   -0.10684E-04   -0.29778E-04  5870   0.147E-02    0.144E-02
RMM:   8    -0.413173218731E+03    0.27894E-05   -0.41074E-05  4666   0.577E-03    0.914E-03
RMM:   9    -0.413173212912E+03    0.58182E-05   -0.72420E-06  3114   0.304E-03    0.609E-03
RMM:  10    -0.413173208021E+03    0.48915E-05   -0.20401E-06  2547   0.214E-03    0.323E-03
RMM:  11    -0.413173203562E+03    0.44587E-05   -0.15916E-06  2531   0.193E-03    0.157E-03
RMM:  12    -0.413173200246E+03    0.33165E-05   -0.75804E-07  2451   0.144E-03    0.517E-04
RMM:  13    -0.413173199259E+03    0.98638E-06   -0.31775E-07  2115   0.960E-04
   22 T=    62. E= -.41286667E+03 F= -.41317320E+03 E0= -.41315126E+03  EK= 0.30653E+00 SP= 0.00E+00 SK= 0.00E+00
       N       E                     dE             d eps       ncg     rms          rms(c)
RMM:   1    -0.413164842675E+03    0.83576E-02   -0.11378E+01  4296   0.792E-01    0.914E-01
RMM:   2    -0.413174935501E+03   -0.10093E-01   -0.13804E-01  4270   0.107E-01    0.636E-01
RMM:   3    -0.413174238637E+03    0.69686E-03   -0.68571E-03  4873   0.428E-02    0.179E-01
RMM:   4    -0.413208713645E+03   -0.34475E-01   -0.35435E-02  5144   0.157E-01    0.772E-01
RMM:   5    -0.413173644876E+03    0.35069E-01   -0.17198E-02  4801   0.129E-01    0.395E-02
RMM:   6    -0.413173836043E+03   -0.19117E-03   -0.27801E-03  5806   0.501E-02    0.205E-02
RMM:   7    -0.413173843973E+03   -0.79303E-05   -0.30655E-04  5880   0.150E-02    0.148E-02
RMM:   8    -0.413173839192E+03    0.47812E-05   -0.43390E-05  4721   0.592E-03    0.964E-03
RMM:   9    -0.413173831042E+03    0.81499E-05   -0.76179E-06  3155   0.316E-03    0.637E-03
RMM:  10    -0.413173823681E+03    0.73606E-05   -0.21378E-06  2550   0.221E-03    0.338E-03
RMM:  11    -0.413173816867E+03    0.68138E-05   -0.16945E-06  2536   0.200E-03    0.167E-03
RMM:  12    -0.413173811732E+03    0.51358E-05   -0.80242E-07  2462   0.149E-03    0.552E-04
RMM:  13    -0.413173810226E+03    0.15057E-05   -0.33654E-07  2136   0.991E-04    0.356E-04
RMM:  14    -0.413173808553E+03    0.16734E-05   -0.17515E-07  1580   0.761E-04    0.207E-04
RMM:  15    -0.413173804144E+03    0.44086E-05   -0.19721E-07  1784   0.784E-04    0.227E-04
RMM:  16    -0.413173803406E+03    0.73765E-06   -0.67757E-08  1011   0.595E-04
   23 T=    63. E= -.41286644E+03 F= -.41317380E+03 E0= -.41315191E+03  EK= 0.30736E+00 SP= 0.00E+00 SK= 0.00E+00
       N       E                     dE             d eps       ncg     rms          rms(c)
RMM:   1    -0.413165692296E+03    0.81118E-02   -0.11374E+01  4296   0.793E-01    0.893E-01
RMM:   2    -0.413176991902E+03   -0.11300E-01   -0.14146E-01  4273   0.106E-01    0.644E-01
RMM:   3    -0.413175641452E+03    0.13504E-02   -0.64193E-03  4807   0.410E-02    0.170E-01
RMM:   4    -0.413205110013E+03   -0.29469E-01   -0.30099E-02  5148   0.144E-01    0.714E-01
RMM:   5    -0.413175194786E+03    0.29915E-01   -0.14846E-02  4803   0.119E-01    0.350E-02
RMM:   6    -0.413175359179E+03   -0.16439E-03   -0.23398E-03  5806   0.458E-02    0.183E-02
RMM:   7    -0.413175369240E+03   -0.10061E-04   -0.25409E-04  5812   0.136E-02    0.131E-02
RMM:   8    -0.413175368043E+03    0.11968E-05   -0.37830E-05  4648   0.556E-03    0.876E-03
RMM:   9    -0.413175363480E+03    0.45626E-05   -0.70692E-06  3145   0.307E-03    0.587E-03
RMM:  10    -0.413175360816E+03    0.26643E-05   -0.18979E-06  2545   0.209E-03    0.320E-03
RMM:  11    -0.413175358492E+03    0.23240E-05   -0.15830E-06  2538   0.191E-03    0.159E-03
RMM:  12    -0.413175356649E+03    0.18434E-05   -0.73576E-07  2439   0.140E-03    0.539E-04
RMM:  13    -0.413175356130E+03    0.51870E-06   -0.29436E-07  2062   0.932E-04
   24 T=    63. E= -.41286674E+03 F= -.41317536E+03 E0= -.41315351E+03  EK= 0.30861E+00 SP= 0.00E+00 SK= 0.00E+00
       N       E                     dE             d eps       ncg     rms          rms(c)
RMM:   1    -0.413166904614E+03    0.84520E-02   -0.11485E+01  4294   0.801E-01    0.910E-01
RMM:   2    -0.413178041521E+03   -0.11137E-01   -0.14117E-01  4270   0.107E-01    0.648E-01
RMM:   3    -0.413176767046E+03    0.12745E-02   -0.66045E-03  4828   0.429E-02    0.174E-01
RMM:   4    -0.413209101155E+03   -0.32334E-01   -0.32955E-02  5144   0.151E-01    0.747E-01
RMM:   5    -0.413176245028E+03    0.32856E-01   -0.16206E-02  4803   0.125E-01    0.369E-02
RMM:   6    -0.413176427268E+03   -0.18224E-03   -0.25786E-03  5814   0.483E-02    0.192E-02
RMM:   7    -0.413176436734E+03   -0.94658E-05   -0.27829E-04  5857   0.141E-02    0.137E-02
RMM:   8    -0.413176434149E+03    0.25848E-05   -0.40770E-05  4703   0.575E-03    0.928E-03
RMM:   9    -0.413176427894E+03    0.62552E-05   -0.76457E-06  3202   0.317E-03    0.619E-03
RMM:  10    -0.413176423366E+03    0.45275E-05   -0.20517E-06  2553   0.219E-03    0.333E-03
RMM:  11    -0.413176419177E+03    0.41897E-05   -0.16902E-06  2536   0.199E-03    0.164E-03
RMM:  12    -0.413176416088E+03    0.30890E-05   -0.75266E-07  2449   0.145E-03    0.550E-04
RMM:  13    -0.413176415176E+03    0.91143E-06   -0.31249E-07  2100   0.958E-04
   25 T=    63. E= -.41286662E+03 F= -.41317642E+03 E0= -.41315462E+03  EK= 0.30979E+00 SP= 0.00E+00 SK= 0.00E+00
       N       E                     dE             d eps       ncg     rms          rms(c)
RMM:   1    -0.413168411257E+03    0.80048E-02   -0.11513E+01  4297   0.810E-01    0.924E-01
RMM:   2    -0.413178542907E+03   -0.10132E-01   -0.14033E-01  4271   0.107E-01    0.640E-01
RMM:   3    -0.413177796531E+03    0.74638E-03   -0.68405E-03  4815   0.412E-02    0.176E-01
RMM:   4    -0.413206071708E+03   -0.28275E-01   -0.28665E-02  5152   0.141E-01    0.700E-01
RMM:   5    -0.413177398804E+03    0.28673E-01   -0.14309E-02  4807   0.117E-01    0.358E-02
RMM:   6    -0.413177555583E+03   -0.15678E-03   -0.22438E-03  5816   0.448E-02    0.195E-02
RMM:   7    -0.413177560210E+03   -0.46267E-05   -0.23261E-04  5761   0.132E-02    0.128E-02
RMM:   8    -0.413177555164E+03    0.50456E-05   -0.36476E-05  4615   0.547E-03    0.900E-03
RMM:   9    -0.413177546526E+03    0.86379E-05   -0.76362E-06  3253   0.318E-03    0.602E-03
RMM:  10    -0.413177538987E+03    0.75390E-05   -0.18103E-06  2542   0.213E-03    0.334E-03
RMM:  11    -0.413177530562E+03    0.84257E-05   -0.16639E-06  2536   0.200E-03    0.161E-03
RMM:  12    -0.413177524608E+03    0.59539E-05   -0.70512E-07  2442   0.144E-03    0.524E-04
RMM:  13    -0.413177523147E+03    0.14604E-05   -0.28558E-07  2084   0.934E-04    0.356E-04
RMM:  14    -0.413177521180E+03    0.19668E-05   -0.14239E-07  1502   0.725E-04    0.204E-04
RMM:  15    -0.413177515987E+03    0.51935E-05   -0.16659E-07  1827   0.771E-04    0.285E-04
RMM:  16    -0.413177515182E+03    0.80457E-06   -0.51862E-08   945   0.571E-04
   26 T=    63. E= -.41286639E+03 F= -.41317752E+03 E0= -.41315577E+03  EK= 0.31112E+00 SP= 0.00E+00 SK= 0.00E+00
       N       E                     dE             d eps       ncg     rms          rms(c)
RMM:   1    -0.413169999996E+03    0.75160E-02   -0.11488E+01  4294   0.819E-01    0.900E-01
RMM:   2    -0.413180742719E+03   -0.10743E-01   -0.14210E-01  4275   0.104E-01    0.644E-01
RMM:   3    -0.413179809259E+03    0.93346E-03   -0.65263E-03  4786   0.430E-02    0.174E-01
RMM:   4    -0.413208607318E+03   -0.28798E-01   -0.29130E-02  5153   0.142E-01    0.706E-01
RMM:   5    -0.413179383986E+03    0.29223E-01   -0.14573E-02  4807   0.118E-01    0.346E-02
RMM:   6    -0.413179545283E+03   -0.16130E-03   -0.22527E-03  5818   0.452E-02    0.187E-02
RMM:   7    -0.413179552364E+03   -0.70818E-05   -0.24192E-04  5809   0.134E-02    0.130E-02
RMM:   8    -0.413179549533E+03    0.28317E-05   -0.36880E-05  4650   0.555E-03    0.878E-03
RMM:   9    -0.413179543361E+03    0.61720E-05   -0.71467E-06  3175   0.312E-03    0.584E-03
RMM:  10    -0.413179538906E+03    0.44542E-05   -0.18563E-06  2543   0.212E-03    0.320E-03
RMM:  11    -0.413179534697E+03    0.42096E-05   -0.15530E-06  2529   0.192E-03    0.157E-03
RMM:  12    -0.413179531596E+03    0.31005E-05   -0.70980E-07  2441   0.140E-03    0.525E-04
RMM:  13    -0.413179530753E+03    0.84371E-06   -0.28423E-07  2045   0.924E-04
   27 T=    64. E= -.41286671E+03 F= -.41317953E+03 E0= -.41315783E+03  EK= 0.31282E+00 SP= 0.00E+00 SK= 0.00E+00
       N       E                     dE             d eps       ncg     rms          rms(c)
RMM:   1    -0.413171054701E+03    0.84769E-02   -0.11620E+01  4297   0.833E-01    0.909E-01
RMM:   2    -0.413181821326E+03   -0.10767E-01   -0.14546E-01  4272   0.109E-01    0.655E-01
RMM:   3    -0.413180728116E+03    0.10932E-02   -0.66223E-03  4720   0.428E-02    0.171E-01
RMM:   4    -0.413205371836E+03   -0.24644E-01   -0.25034E-02  5147   0.133E-01    0.656E-01
RMM:   5    -0.413180253883E+03    0.25118E-01   -0.12503E-02  4807   0.109E-01    0.320E-02
RMM:   6    -0.413180384224E+03   -0.13034E-03   -0.19473E-03  5824   0.417E-02    0.173E-02
RMM:   7    -0.413180390144E+03   -0.59199E-05   -0.19126E-04  5647   0.121E-02    0.111E-02
RMM:   8    -0.413180388017E+03    0.21268E-05   -0.29896E-05  4389   0.504E-03    0.802E-03
RMM:   9    -0.413180382734E+03    0.52826E-05   -0.72338E-06  3226   0.313E-03    0.544E-03
RMM:  10    -0.413180379141E+03    0.35929E-05   -0.16935E-06  2534   0.210E-03    0.312E-03
RMM:  11    -0.413180374657E+03    0.44843E-05   -0.16093E-06  2536   0.193E-03    0.152E-03
RMM:  12    -0.413180371505E+03    0.31524E-05   -0.63666E-07  2420   0.136E-03    0.526E-04
RMM:  13    -0.413180370705E+03    0.79999E-06   -0.24694E-07  1962   0.884E-04
   28 T=    64. E= -.41286613E+03 F= -.41318037E+03 E0= -.41315872E+03  EK= 0.31424E+00 SP= 0.00E+00 SK= 0.00E+00
       N       E                     dE             d eps       ncg     rms          rms(c)
RMM:   1    -0.413173392943E+03    0.69786E-02   -0.11691E+01  4293   0.838E-01    0.933E-01
RMM:   2    -0.413183612656E+03   -0.10220E-01   -0.14336E-01  4267   0.110E-01    0.647E-01
RMM:   3    -0.413182717831E+03    0.89483E-03   -0.69553E-03  4547   0.426E-02    0.172E-01
RMM:   4    -0.413197350407E+03   -0.14633E-01   -0.14671E-02  5157   0.102E-01    0.506E-01
RMM:   5    -0.413182655204E+03    0.14695E-01   -0.73462E-03  4830   0.831E-02    0.282E-02
RMM:   6    -0.413182711728E+03   -0.56524E-04   -0.11481E-03  5863   0.315E-02    0.168E-02
RMM:   7    -0.413182711679E+03    0.49811E-07   -0.12366E-04  5560   0.102E-02    0.107E-02
RMM:   8    -0.413182702456E+03    0.92226E-05   -0.20596E-05  4167   0.464E-03    0.638E-03
RMM:   9    -0.413182695919E+03    0.65373E-05   -0.45394E-06  2880   0.282E-03    0.433E-03
RMM:  10    -0.413182689175E+03    0.67436E-05   -0.10238E-06  2506   0.174E-03    0.256E-03
RMM:  11    -0.413182681107E+03    0.80676E-05   -0.94732E-07  2500   0.155E-03    0.125E-03
RMM:  12    -0.413182674458E+03    0.66495E-05   -0.50493E-07  2332   0.118E-03    0.446E-04
RMM:  13    -0.413182673045E+03    0.14129E-05   -0.19182E-07  1648   0.788E-04    0.270E-04
RMM:  14    -0.413182670914E+03    0.21306E-05   -0.10649E-07  1268   0.676E-04    0.163E-04
RMM:  15    -0.413182665549E+03    0.53654E-05   -0.11562E-07  1500   0.709E-04    0.181E-04
RMM:  16    -0.413182664933E+03    0.61557E-06   -0.42319E-08   877   0.572E-04
   29 T=    64. E= -.41286661E+03 F= -.41318266E+03 E0= -.41316107E+03  EK= 0.31605E+00 SP= 0.00E+00 SK= 0.00E+00
       N       E                     dE             d eps       ncg     rms          rms(c)
RMM:   1    -0.413174641504E+03    0.80240E-02   -0.11645E+01  4293   0.841E-01    0.910E-01
RMM:   2    -0.413185737113E+03   -0.11096E-01   -0.14558E-01  4269   0.110E-01    0.646E-01
RMM:   3    -0.413184470273E+03    0.12668E-02   -0.66263E-03  4442   0.447E-02    0.169E-01
RMM:   4    -0.413192383233E+03   -0.79130E-02   -0.83930E-03  5145   0.801E-02    0.375E-01
RMM:   5    -0.413184366203E+03    0.80170E-02   -0.39707E-03  4829   0.614E-02    0.229E-02
RMM:   6    -0.413184382078E+03   -0.15875E-04   -0.60232E-04  5823   0.235E-02    0.154E-02
RMM:   7    -0.413184378888E+03    0.31899E-05   -0.83448E-05  5359   0.890E-03    0.926E-03
RMM:   8    -0.413184370560E+03    0.83281E-05   -0.10922E-05  3460   0.393E-03    0.422E-03
RMM:   9    -0.413184366293E+03    0.42675E-05   -0.23099E-06  2627   0.220E-03    0.283E-03
RMM:  10    -0.413184361825E+03    0.44670E-05   -0.73439E-07  2462   0.142E-03    0.168E-03
RMM:  11    -0.413184356681E+03    0.51446E-05   -0.55570E-07  2390   0.120E-03    0.702E-04
RMM:  12    -0.413184353104E+03    0.35769E-05   -0.29203E-07  1892   0.903E-04    0.263E-04
RMM:  13    -0.413184351574E+03    0.15301E-05   -0.13984E-07  1271   0.703E-04    0.155E-04
RMM:  14    -0.413184348890E+03    0.26841E-05   -0.10839E-07  1243   0.679E-04    0.900E-05
RMM:  15    -0.413184346047E+03    0.28425E-05   -0.91037E-08  1267   0.658E-04    0.921E-05
RMM:  16    -0.413184344915E+03    0.11319E-05   -0.48894E-08   955   0.586E-04    0.554E-05
RMM:  17    -0.413184341907E+03    0.30087E-05   -0.68100E-08  1242   0.623E-04    0.356E-05
RMM:  18    -0.413184341386E+03    0.52089E-06   -0.23975E-08   769   0.528E-04
   30 T=    65. E= -.41286664E+03 F= -.41318434E+03 E0= -.41316279E+03  EK= 0.31770E+00 SP= 0.00E+00 SK= 0.00E+00
       N       E                     dE             d eps       ncg     rms          rms(c)
RMM:   1    -0.413181513770E+03    0.28281E-02   -0.11826E+01  4289   0.904E-01    0.911E-01
RMM:   2    -0.413188234510E+03   -0.67207E-02   -0.15111E-01  4272   0.124E-01    0.660E-01
RMM:   3    -0.413186139111E+03    0.20954E-02   -0.64943E-03  4313   0.424E-02    0.166E-01
RMM:   4    -0.413188823827E+03   -0.26847E-02   -0.34965E-03  5131   0.502E-02    0.219E-01
RMM:   5    -0.413186112260E+03    0.27116E-02   -0.13259E-03  4814   0.360E-02    0.192E-02
RMM:   6    -0.413186110181E+03    0.20784E-05   -0.23348E-04  5706   0.152E-02    0.142E-02
RMM:   7    -0.413186105871E+03    0.43103E-05   -0.46112E-05  4884   0.698E-03    0.602E-03
RMM:   8    -0.413186101126E+03    0.47447E-05   -0.62497E-06  3033   0.316E-03    0.308E-03
RMM:   9    -0.413186099712E+03    0.14143E-05   -0.87296E-07  2496   0.167E-03    0.199E-03
RMM:  10    -0.413186096654E+03    0.30582E-05   -0.59227E-07  2331   0.118E-03    0.106E-03
RMM:  11    -0.413186094241E+03    0.24126E-05   -0.33975E-07  1853   0.914E-04    0.420E-04
RMM:  12    -0.413186092067E+03    0.21742E-05   -0.21331E-07  1597   0.789E-04    0.193E-04
RMM:  13    -0.413186090518E+03    0.15493E-05   -0.12514E-07  1241   0.678E-04    0.113E-04
RMM:  14    -0.413186088959E+03    0.15592E-05   -0.89913E-08  1146   0.637E-04    0.655E-05
RMM:  15    -0.413186086788E+03    0.21709E-05   -0.87638E-08  1207   0.630E-04    0.511E-05
RMM:  16    -0.413186085856E+03    0.93220E-06   -0.41276E-08   853   0.555E-04
   31 T=    65. E= -.41286669E+03 F= -.41318609E+03 E0= -.41316459E+03  EK= 0.31939E+00 SP= 0.00E+00 SK= 0.00E+00
       N       E                     dE             d eps       ncg     rms          rms(c)
RMM:   1    -0.413183330787E+03    0.27560E-02   -0.11916E+01  4289   0.922E-01    0.938E-01
RMM:   2    -0.413189897628E+03   -0.65668E-02   -0.15062E-01  4266   0.122E-01    0.655E-01
RMM:   3    -0.413188705760E+03    0.11919E-02   -0.70018E-03  4189   0.479E-02    0.173E-01
RMM:   4    -0.413188809601E+03   -0.10384E-03   -0.10433E-03  4523   0.271E-02    0.222E-02
RMM:   5    -0.413188809955E+03   -0.35335E-06   -0.65092E-05  4881   0.874E-03    0.236E-02
RMM:   6    -0.413188801433E+03    0.85213E-05   -0.34701E-05  4946   0.596E-03    0.191E-02
RMM:   7    -0.413188775676E+03    0.25757E-04   -0.34931E-05  4541   0.644E-03    0.438E-03
RMM:   8    -0.413188769293E+03    0.63831E-05   -0.39973E-06  2863   0.292E-03    0.272E-03
RMM:   9    -0.413188766724E+03    0.25693E-05   -0.55505E-07  2332   0.146E-03    0.145E-03
RMM:  10    -0.413188760513E+03    0.62109E-05   -0.29676E-07  1852   0.895E-04    0.613E-04
RMM:  11    -0.413188753812E+03    0.67007E-05   -0.19241E-07  1470   0.734E-04    0.280E-04
RMM:  12    -0.413188750852E+03    0.29608E-05   -0.63864E-08  1030   0.583E-04    0.164E-04
RMM:  13    -0.413188746247E+03    0.46046E-05   -0.67875E-08  1061   0.599E-04    0.111E-04
RMM:  14    -0.413188740715E+03    0.55320E-05   -0.67571E-08  1103   0.607E-04    0.109E-04
RMM:  15    -0.413188740594E+03    0.12101E-06   -0.11660E-08   522   0.476E-04
   32 T=    65. E= -.41286719E+03 F= -.41318874E+03 E0= -.41316729E+03  EK= 0.32155E+00 SP= 0.00E+00 SK= 0.00E+00
       N       E                     dE             d eps       ncg     rms          rms(c)
RMM:   1    -0.413187659002E+03    0.10817E-02   -0.11912E+01  4285   0.944E-01    0.924E-01
RMM:   2    -0.413192138161E+03   -0.44792E-02   -0.15477E-01  4274   0.133E-01    0.651E-01
RMM:   3    -0.413190668342E+03    0.14698E-02   -0.65258E-03  4287   0.408E-02    0.178E-01
RMM:   4    -0.413192268506E+03   -0.16002E-02   -0.24978E-03  5101   0.436E-02    0.171E-01
RMM:   5    -0.413190648060E+03    0.16204E-02   -0.79439E-04  4782   0.284E-02    0.213E-02
RMM:   6    -0.413190634731E+03    0.13329E-04   -0.16499E-04  5567   0.135E-02    0.154E-02
RMM:   7    -0.413190623134E+03    0.11597E-04   -0.39468E-05  4664   0.658E-03    0.555E-03
RMM:   8    -0.413190615946E+03    0.71880E-05   -0.61868E-06  3123   0.324E-03    0.304E-03
RMM:   9    -0.413190613099E+03    0.28471E-05   -0.72451E-07  2464   0.163E-03    0.177E-03
RMM:  10    -0.413190606433E+03    0.66663E-05   -0.52203E-07  2310   0.114E-03    0.866E-04
RMM:  11    -0.413190601701E+03    0.47323E-05   -0.26237E-07  1791   0.853E-04    0.355E-04
RMM:  12    -0.413190597174E+03    0.45268E-05   -0.16713E-07  1492   0.746E-04    0.179E-04
RMM:  13    -0.413190594224E+03    0.29499E-05   -0.93188E-08  1090   0.649E-04    0.107E-04
RMM:  14    -0.413190590225E+03    0.39993E-05   -0.80273E-08  1126   0.637E-04    0.715E-05
RMM:  15    -0.413190585745E+03    0.44794E-05   -0.72405E-08  1140   0.623E-04    0.481E-05
RMM:  16    -0.413190584248E+03    0.14969E-05   -0.34916E-08   764   0.546E-04    0.412E-05
RMM:  17    -0.413190582906E+03    0.13420E-05   -0.27951E-08   745   0.535E-04    0.220E-05
RMM:  18    -0.413190582150E+03    0.75643E-06   -0.16970E-08   595   0.509E-04
   33 T=    66. E= -.41286694E+03 F= -.41319058E+03 E0= -.41316918E+03  EK= 0.32365E+00 SP= 0.00E+00 SK= 0.00E+00
       N       E                     dE             d eps       ncg     rms          rms(c)
RMM:   1    -0.413185758820E+03    0.48241E-02   -0.11996E+01  4295   0.929E-01    0.915E-01
RMM:   2    -0.413194750864E+03   -0.89920E-02   -0.15630E-01  4267   0.129E-01    0.665E-01
RMM:   3    -0.413193315625E+03    0.14352E-02   -0.65500E-03  4493   0.478E-02    0.176E-01
RMM:   4    -0.413205432617E+03   -0.12117E-01   -0.12324E-02  5164   0.959E-02    0.463E-01
RMM:   5    -0.413193268487E+03    0.12164E-01   -0.60230E-03  4814   0.762E-02    0.262E-02
RMM:   6    -0.413193257442E+03    0.11045E-04   -0.95107E-04  5825   0.301E-02    0.159E-02
RMM:   7    -0.413193260903E+03   -0.34606E-05   -0.12004E-04  5511   0.102E-02    0.105E-02
RMM:   8    -0.413193254525E+03    0.63774E-05   -0.17743E-05  4042   0.456E-03    0.547E-03
RMM:   9    -0.413193251468E+03    0.30572E-05   -0.36742E-06  2779   0.263E-03    0.331E-03
RMM:  10    -0.413193248070E+03    0.33980E-05   -0.97086E-07  2505   0.161E-03    0.192E-03
RMM:  11    -0.413193244265E+03    0.38049E-05   -0.71974E-07  2476   0.133E-03    0.952E-04
RMM:  12    -0.413193240849E+03    0.34159E-05   -0.43402E-07  2203   0.105E-03    0.376E-04
RMM:  13    -0.413193239718E+03    0.11319E-05   -0.17552E-07  1433   0.745E-04    0.214E-04
RMM:  14    -0.413193238174E+03    0.15432E-05   -0.10919E-07  1142   0.666E-04    0.123E-04
RMM:  15    -0.413193235871E+03    0.23030E-05   -0.95407E-08  1163   0.656E-04    0.786E-05
RMM:  16    -0.413193235470E+03    0.40129E-06   -0.47396E-08   867   0.590E-04
   34 T=    66. E= -.41286706E+03 F= -.41319324E+03 E0= -.41317188E+03  EK= 0.32618E+00 SP= 0.00E+00 SK= 0.00E+00
       N       E                     dE             d eps       ncg     rms          rms(c)
RMM:   1    -0.413186828903E+03    0.64070E-02   -0.12107E+01  4298   0.936E-01    0.942E-01
RMM:   2    -0.413197377113E+03   -0.10548E-01   -0.15695E-01  4261   0.133E-01    0.664E-01
RMM:   3    -0.413196085427E+03    0.12917E-02   -0.67641E-03  4411   0.443E-02    0.180E-01
RMM:   4    -0.413200603355E+03   -0.45179E-02   -0.52785E-03  5152   0.626E-02    0.288E-01
RMM:   5    -0.413195955331E+03    0.46480E-02   -0.23231E-03  4811   0.476E-02    0.235E-02
RMM:   6    -0.413195942024E+03    0.13307E-04   -0.40235E-04  5729   0.199E-02    0.161E-02
RMM:   7    -0.413195934158E+03    0.78654E-05   -0.66314E-05  5100   0.801E-03    0.735E-03
RMM:   8    -0.413195925448E+03    0.87100E-05   -0.10126E-05  3407   0.370E-03    0.361E-03
RMM:   9    -0.413195921351E+03    0.40977E-05   -0.14854E-06  2556   0.194E-03    0.215E-03
RMM:  10    -0.413195914988E+03    0.63630E-05   -0.61633E-07  2405   0.127E-03    0.122E-03
RMM:  11    -0.413195908239E+03    0.67483E-05   -0.40012E-07  2169   0.102E-03    0.477E-04
RMM:  12    -0.413195903192E+03    0.50469E-05   -0.22052E-07  1715   0.821E-04    0.200E-04
RMM:  13    -0.413195900441E+03    0.27519E-05   -0.11785E-07  1188   0.679E-04    0.126E-04
RMM:  14    -0.413195896955E+03    0.34855E-05   -0.88110E-08  1169   0.653E-04    0.739E-05
RMM:  15    -0.413195891164E+03    0.57910E-05   -0.95790E-08  1423   0.677E-04    0.849E-05
RMM:  16    -0.413195890289E+03    0.87553E-06   -0.39936E-08   871   0.560E-04
   35 T=    67. E= -.41286704E+03 F= -.41319589E+03 E0= -.41317458E+03  EK= 0.32885E+00 SP= 0.00E+00 SK= 0.00E+00
       N       E                     dE             d eps       ncg     rms          rms(c)
RMM:   1    -0.413189568707E+03    0.63225E-02   -0.12141E+01  4297   0.963E-01    0.941E-01
RMM:   2    -0.413199374860E+03   -0.98062E-02   -0.15600E-01  4252   0.121E-01    0.658E-01
RMM:   3    -0.413198350566E+03    0.10243E-02   -0.69876E-03  4790   0.444E-02    0.192E-01
RMM:   4    -0.413226946149E+03   -0.28596E-01   -0.28759E-02  5160   0.142E-01    0.706E-01
RMM:   5    -0.413198054451E+03    0.28892E-01   -0.14564E-02  4802   0.118E-01    0.370E-02
RMM:   6    -0.413198087069E+03   -0.32618E-04   -0.22995E-03  5853   0.452E-02    0.198E-02
RMM:   7    -0.413198097455E+03   -0.10386E-04   -0.24629E-04  5797   0.135E-02    0.134E-02
RMM:   8    -0.413198089567E+03    0.78875E-05   -0.35744E-05  4699   0.567E-03    0.866E-03
RMM:   9    -0.413198083396E+03    0.61707E-05   -0.96799E-06  3544   0.365E-03    0.549E-03
RMM:  10    -0.413198074824E+03    0.85730E-05   -0.20602E-06  2546   0.235E-03    0.281E-03
RMM:  11    -0.413198067741E+03    0.70822E-05   -0.13844E-06  2512   0.185E-03    0.153E-03
RMM:  12    -0.413198059373E+03    0.83679E-05   -0.75352E-07  2456   0.151E-03    0.564E-04
RMM:  13    -0.413198056842E+03    0.25311E-05   -0.30399E-07  2145   0.988E-04    0.413E-04
RMM:  14    -0.413198055240E+03    0.16024E-05   -0.13515E-07  1450   0.720E-04    0.258E-04
RMM:  15    -0.413198048939E+03    0.63007E-05   -0.12877E-07  1686   0.739E-04    0.248E-04
RMM:  16    -0.413198048169E+03    0.77021E-06   -0.46498E-08   926   0.572E-04
   36 T=    67. E= -.41286676E+03 F= -.41319805E+03 E0= -.41317679E+03  EK= 0.33129E+00 SP= 0.00E+00 SK= 0.00E+00
       N       E                     dE             d eps       ncg     rms          rms(c)
RMM:   1    -0.413191609177E+03    0.64398E-02   -0.12211E+01  4301   0.987E-01    0.924E-01
RMM:   2    -0.413202854761E+03   -0.11246E-01   -0.16281E-01  4255   0.135E-01    0.670E-01
RMM:   3    -0.413201433495E+03    0.14213E-02   -0.68175E-03  4790   0.517E-02    0.200E-01
RMM:   4    -0.413240824944E+03   -0.39391E-01   -0.40061E-02  5158   0.168E-01    0.825E-01
RMM:   5    -0.413200829228E+03    0.39996E-01   -0.20066E-02  4795   0.138E-01    0.411E-02
RMM:   6    -0.413200912326E+03   -0.83097E-04   -0.31781E-03  5851   0.527E-02    0.203E-02
RMM:   7    -0.413200929847E+03   -0.17521E-04   -0.31743E-04  5754   0.149E-02    0.135E-02
RMM:   8    -0.413200924855E+03    0.49914E-05   -0.35989E-05  4208   0.530E-03    0.848E-03
RMM:   9    -0.413200921529E+03    0.33266E-05   -0.12696E-05  3825   0.382E-03    0.577E-03
RMM:  10    -0.413200915871E+03    0.56579E-05   -0.30160E-06  2659   0.257E-03    0.295E-03
RMM:  11    -0.413200910374E+03    0.54967E-05   -0.19352E-06  2551   0.212E-03    0.165E-03
RMM:  12    -0.413200905868E+03    0.45065E-05   -0.79888E-07  2473   0.155E-03    0.670E-04
RMM:  13    -0.413200904669E+03    0.11985E-05   -0.31422E-07  2167   0.998E-04    0.471E-04
RMM:  14    -0.413200903436E+03    0.12332E-05   -0.14136E-07  1501   0.735E-04    0.269E-04
RMM:  15    -0.413200898721E+03    0.47152E-05   -0.18974E-07  1999   0.804E-04    0.423E-04
RMM:  16    -0.413200898334E+03    0.38712E-06   -0.50103E-08   959   0.572E-04
   37 T=    68. E= -.41286687E+03 F= -.41320090E+03 E0= -.41317968E+03  EK= 0.33403E+00 SP= 0.00E+00 SK= 0.00E+00
       N       E                     dE             d eps       ncg     rms          rms(c)
RMM:   1    -0.413195250123E+03    0.56486E-02   -0.12377E+01  4308   0.103E+00    0.946E-01
RMM:   2    -0.413205676731E+03   -0.10427E-01   -0.16229E-01  4256   0.129E-01    0.674E-01
RMM:   3    -0.413204012838E+03    0.16639E-02   -0.70444E-03  4747   0.498E-02    0.197E-01
RMM:   4    -0.413235687828E+03   -0.31675E-01   -0.31860E-02  5154   0.149E-01    0.742E-01
RMM:   5    -0.413203593138E+03    0.32095E-01   -0.16196E-02  4803   0.124E-01    0.380E-02
RMM:   6    -0.413203651253E+03   -0.58116E-04   -0.25517E-03  5847   0.472E-02    0.198E-02
RMM:   7    -0.413203664339E+03   -0.13086E-04   -0.26574E-04  5778   0.138E-02    0.132E-02
RMM:   8    -0.413203657652E+03    0.66871E-05   -0.37245E-05  4702   0.566E-03    0.871E-03
RMM:   9    -0.413203653201E+03    0.44510E-05   -0.11419E-05  3759   0.373E-03    0.568E-03
RMM:  10    -0.413203645719E+03    0.74817E-05   -0.22517E-06  2556   0.238E-03    0.293E-03
RMM:  11    -0.413203639706E+03    0.60132E-05   -0.15126E-06  2513   0.191E-03    0.160E-03
RMM:  12    -0.413203633181E+03    0.65246E-05   -0.74651E-07  2455   0.150E-03    0.586E-04
RMM:  13    -0.413203631154E+03    0.20279E-05   -0.30537E-07  2153   0.990E-04    0.417E-04
RMM:  14    -0.413203629679E+03    0.14744E-05   -0.13606E-07  1468   0.723E-04    0.247E-04
RMM:  15    -0.413203623758E+03    0.59212E-05   -0.15277E-07  1828   0.768E-04    0.322E-04
RMM:  16    -0.413203623057E+03    0.70077E-06   -0.46695E-08   929   0.570E-04
   38 T=    69. E= -.41286715E+03 F= -.41320362E+03 E0= -.41318245E+03  EK= 0.33647E+00 SP= 0.00E+00 SK= 0.00E+00
       N       E                     dE             d eps       ncg     rms          rms(c)
RMM:   1    -0.413200488459E+03    0.31353E-02   -0.12451E+01  4304   0.108E+00    0.958E-01
RMM:   2    -0.413207222640E+03   -0.67342E-02   -0.16493E-01  4264   0.126E-01    0.667E-01
RMM:   3    -0.413206648107E+03    0.57453E-03   -0.76926E-03  5002   0.543E-02    0.230E-01
RMM:   4    -0.413257754411E+03   -0.51106E-01   -0.54872E-02  5135   0.195E-01    0.939E-01
RMM:   5    -0.413205485423E+03    0.52269E-01   -0.25818E-02  4786   0.158E-01    0.494E-02
RMM:   6    -0.413205628462E+03   -0.14304E-03   -0.40996E-03  5838   0.601E-02    0.232E-02
RMM:   7    -0.413205649514E+03   -0.21053E-04   -0.42243E-04  5845   0.173E-02    0.158E-02
RMM:   8    -0.413205647269E+03    0.22454E-05   -0.62887E-05  5009   0.685E-03    0.113E-02
RMM:   9    -0.413205636459E+03    0.10809E-04   -0.15022E-05  4045   0.422E-03    0.662E-03
RMM:  10    -0.413205626590E+03    0.98691E-05   -0.38353E-06  2669   0.288E-03    0.322E-03
RMM:  11    -0.413205619483E+03    0.71069E-05   -0.16262E-06  2509   0.206E-03    0.185E-03
RMM:  12    -0.413205610921E+03    0.85626E-05   -0.84718E-07  2469   0.162E-03    0.669E-04
RMM:  13    -0.413205606899E+03    0.40220E-05   -0.36206E-07  2276   0.109E-03    0.411E-04
RMM:  14    -0.413205603646E+03    0.32528E-05   -0.17503E-07  1749   0.792E-04    0.262E-04
RMM:  15    -0.413205595908E+03    0.77381E-05   -0.14344E-07  1708   0.752E-04    0.243E-04
RMM:  16    -0.413205595079E+03    0.82920E-06   -0.56429E-08  1008   0.583E-04
   39 T=    69. E= -.41286683E+03 F= -.41320560E+03 E0= -.41318446E+03  EK= 0.33876E+00 SP= 0.00E+00 SK= 0.00E+00
       N       E                     dE             d eps       ncg     rms          rms(c)
RMM:   1    -0.413203370766E+03    0.22251E-02   -0.12471E+01  4311   0.112E+00    0.935E-01
RMM:   2    -0.413210941697E+03   -0.75709E-02   -0.16713E-01  4262   0.132E-01    0.673E-01
RMM:   3    -0.413210106625E+03    0.83507E-03   -0.74275E-03  5010   0.553E-02    0.237E-01
RMM:   4    -0.413264411613E+03   -0.54305E-01   -0.59224E-02  5131   0.202E-01    0.967E-01
RMM:   5    -0.413208748234E+03    0.55663E-01   -0.27309E-02  4782   0.163E-01    0.508E-02
RMM:   6    -0.413208908624E+03   -0.16039E-03   -0.44167E-03  5815   0.618E-02    0.227E-02
RMM:   7    -0.413208932843E+03   -0.24219E-04   -0.45786E-04  5898   0.179E-02    0.161E-02
RMM:   8    -0.413208932652E+03    0.19079E-06   -0.68217E-05  5073   0.711E-03    0.117E-02
RMM:   9    -0.413208923387E+03    0.92649E-05   -0.14705E-05  4004   0.421E-03    0.653E-03
RMM:  10    -0.413208916657E+03    0.67306E-05   -0.40554E-06  2679   0.287E-03    0.319E-03
RMM:  11    -0.413208911959E+03    0.46976E-05   -0.16626E-06  2509   0.206E-03    0.184E-03
RMM:  12    -0.413208906350E+03    0.56091E-05   -0.85215E-07  2468   0.160E-03    0.684E-04
RMM:  13    -0.413208903642E+03    0.27082E-05   -0.37219E-07  2260   0.109E-03    0.413E-04
RMM:  14    -0.413208901218E+03    0.24236E-05   -0.18897E-07  1752   0.799E-04    0.248E-04
RMM:  15    -0.413208896127E+03    0.50910E-05   -0.14790E-07  1596   0.742E-04    0.205E-04
RMM:  16    -0.413208895430E+03    0.69742E-06   -0.64092E-08  1043   0.597E-04
   40 T=    70. E= -.41286744E+03 F= -.41320890E+03 E0= -.41318779E+03  EK= 0.34145E+00 SP= 0.00E+00 SK= 0.00E+00
       N       E                     dE             d eps       ncg     rms          rms(c)
RMM:   1    -0.413207982539E+03    0.91359E-03   -0.12659E+01  4305   0.119E+00    0.948E-01
RMM:   2    -0.413212331419E+03   -0.43489E-02   -0.17414E-01  4265   0.139E-01    0.684E-01
RMM:   3    -0.413211864709E+03    0.46671E-03   -0.77665E-03  5038   0.570E-02    0.254E-01
RMM:   4    -0.413268091599E+03   -0.56227E-01   -0.62809E-02  5127   0.208E-01    0.986E-01
RMM:   5    -0.413210185813E+03    0.57906E-01   -0.28060E-02  4770   0.166E-01    0.533E-02
RMM:   6    -0.413210360696E+03   -0.17488E-03   -0.46727E-03  5816   0.631E-02    0.229E-02
RMM:   7    -0.413210386984E+03   -0.26288E-04   -0.48631E-04  5920   0.184E-02    0.168E-02
RMM:   8    -0.413210386865E+03    0.11906E-06   -0.73423E-05  5144   0.742E-03    0.120E-02
RMM:   9    -0.413210377338E+03    0.95271E-05   -0.14205E-05  3922   0.426E-03    0.636E-03
RMM:  10    -0.413210370527E+03    0.68109E-05   -0.43152E-06  2705   0.293E-03    0.310E-03
RMM:  11    -0.413210365845E+03    0.46823E-05   -0.16689E-06  2513   0.206E-03    0.175E-03
RMM:  12    -0.413210360475E+03    0.53695E-05   -0.83707E-07  2462   0.158E-03    0.680E-04
RMM:  13    -0.413210357738E+03    0.27376E-05   -0.37420E-07  2238   0.108E-03    0.400E-04
RMM:  14    -0.413210354865E+03    0.28726E-05   -0.20183E-07  1745   0.813E-04    0.245E-04
RMM:  15    -0.413210350267E+03    0.45985E-05   -0.14595E-07  1466   0.730E-04    0.172E-04
RMM:  16    -0.413210349370E+03    0.89664E-06   -0.71798E-08  1066   0.617E-04
   41 T=    70. E= -.41286694E+03 F= -.41321035E+03 E0= -.41318928E+03  EK= 0.34341E+00 SP= 0.00E+00 SK= 0.00E+00
       N       E                     dE             d eps       ncg     rms          rms(c)
RMM:   1    -0.413218333076E+03   -0.79828E-02   -0.12800E+01  4311   0.128E+00    0.972E-01
RMM:   2    -0.413214333572E+03    0.39995E-02   -0.17809E-01  4283   0.145E-01    0.677E-01
RMM:   3    -0.413216559281E+03   -0.22257E-02   -0.99982E-03  5113   0.720E-02    0.326E-01
RMM:   4    -0.413252490037E+03   -0.35931E-01   -0.51148E-02  5091   0.190E-01    0.828E-01
RMM:   5    -0.413212936848E+03    0.39553E-01   -0.17933E-02  4735   0.138E-01    0.512E-02
RMM:   6    -0.413212988291E+03   -0.51443E-04   -0.29200E-03  5754   0.515E-02    0.211E-02
RMM:   7    -0.413213001766E+03   -0.13474E-04   -0.34420E-04  5904   0.161E-02    0.159E-02
RMM:   8    -0.413212998274E+03    0.34911E-05   -0.58430E-05  5092   0.696E-03    0.100E-02
RMM:   9    -0.413212984949E+03    0.13325E-04   -0.11000E-05  3547   0.419E-03    0.430E-03
RMM:  10    -0.413212976902E+03    0.80475E-05   -0.29570E-06  2613   0.242E-03    0.227E-03
RMM:  11    -0.413212969346E+03    0.75553E-05   -0.10722E-06  2503   0.165E-03    0.108E-03
RMM:  12    -0.413212963211E+03    0.61352E-05   -0.45299E-07  2351   0.117E-03    0.512E-04
RMM:  13    -0.413212958120E+03    0.50917E-05   -0.24673E-07  1675   0.854E-04    0.248E-04
RMM:  14    -0.413212954073E+03    0.40464E-05   -0.15605E-07  1342   0.736E-04    0.147E-04
RMM:  15    -0.413212947582E+03    0.64913E-05   -0.13615E-07  1466   0.730E-04    0.885E-05
RMM:  16    -0.413212944624E+03    0.29574E-05   -0.90066E-08  1295   0.649E-04    0.657E-05
RMM:  17    -0.413212940479E+03    0.41449E-05   -0.73880E-08  1267   0.624E-04    0.452E-05
RMM:  18    -0.413212938179E+03    0.23004E-05   -0.49952E-08  1058   0.573E-04    0.364E-05
RMM:  19    -0.413212937695E+03    0.48407E-06   -0.29173E-08   819   0.531E-04
   42 T=    70. E= -.41286738E+03 F= -.41321294E+03 E0= -.41319190E+03  EK= 0.34555E+00 SP= 0.00E+00 SK= 0.00E+00
       N       E                     dE             d eps       ncg     rms          rms(c)
RMM:   1    -0.413223230062E+03   -0.10292E-01   -0.12799E+01  4311   0.136E+00    0.947E-01
RMM:   2    -0.413216400362E+03    0.68297E-02   -0.17293E-01  4289   0.154E-01    0.677E-01
RMM:   3    -0.413219605975E+03   -0.32056E-02   -0.10707E-02  5093   0.795E-02    0.352E-01
RMM:   4    -0.413250586767E+03   -0.30981E-01   -0.49195E-02  5075   0.187E-01    0.787E-01
RMM:   5    -0.413215008340E+03    0.35578E-01   -0.15681E-02  4711   0.132E-01    0.496E-02
RMM:   6    -0.413215037685E+03   -0.29345E-04   -0.25947E-03  5736   0.487E-02    0.202E-02
RMM:   7    -0.413215048207E+03   -0.10523E-04   -0.30691E-04  5899   0.154E-02    0.154E-02
RMM:   8    -0.413215045451E+03    0.27566E-05   -0.53618E-05  5034   0.675E-03    0.939E-03
RMM:   9    -0.413215034973E+03    0.10478E-04   -0.10775E-05  3488   0.421E-03    0.408E-03
RMM:  10    -0.413215029322E+03    0.56505E-05   -0.26868E-06  2593   0.236E-03    0.220E-03
RMM:  11    -0.413215023982E+03    0.53409E-05   -0.10924E-06  2511   0.162E-03    0.106E-03
RMM:  12    -0.413215019724E+03    0.42574E-05   -0.45605E-07  2308   0.114E-03    0.494E-04
RMM:  13    -0.413215015851E+03    0.38728E-05   -0.27205E-07  1641   0.856E-04    0.245E-04
RMM:  14    -0.413215013325E+03    0.25264E-05   -0.16927E-07  1315   0.734E-04    0.139E-04
RMM:  15    -0.413215008816E+03    0.45087E-05   -0.14612E-07  1344   0.718E-04    0.722E-05
RMM:  16    -0.413215006413E+03    0.24029E-05   -0.97529E-08  1207   0.657E-04    0.521E-05
RMM:  17    -0.413215003435E+03    0.29785E-05   -0.81853E-08  1266   0.638E-04    0.439E-05
RMM:  18    -0.413215001351E+03    0.20841E-05   -0.54980E-08  1061   0.584E-04    0.370E-05
RMM:  19    -0.413215000814E+03    0.53700E-06   -0.31758E-08   817   0.534E-04
   43 T=    71. E= -.41286749E+03 F= -.41321500E+03 E0= -.41319400E+03  EK= 0.34751E+00 SP= 0.00E+00 SK= 0.00E+00
       N       E                     dE             d eps       ncg     rms          rms(c)
RMM:   1    -0.413243042251E+03   -0.28041E-01   -0.13117E+01  4311   0.151E+00    0.949E-01
RMM:   2    -0.413217713110E+03    0.25329E-01   -0.20544E-01  4291   0.175E-01    0.695E-01
RMM:   3    -0.413222129710E+03   -0.44166E-02   -0.11653E-02  5107   0.882E-02    0.409E-01
RMM:   4    -0.413250137710E+03   -0.28008E-01   -0.50542E-02  5059   0.191E-01    0.777E-01
RMM:   5    -0.413216078073E+03    0.34060E-01   -0.15026E-02  4698   0.132E-01    0.532E-02
RMM:   6    -0.413216086665E+03   -0.85917E-05   -0.24942E-03  5700   0.478E-02    0.208E-02
RMM:   7    -0.413216097175E+03   -0.10510E-04   -0.30384E-04  5919   0.156E-02    0.160E-02
RMM:   8    -0.413216094318E+03    0.28573E-05   -0.51274E-05  5024   0.673E-03    0.952E-03
RMM:   9    -0.413216085016E+03    0.93013E-05   -0.12539E-05  3676   0.463E-03    0.440E-03
RMM:  10    -0.413216080579E+03    0.44376E-05   -0.28994E-06  2617   0.245E-03    0.254E-03
RMM:  11    -0.413216076546E+03    0.40331E-05   -0.14514E-06  2544   0.181E-03    0.119E-03
RMM:  12    -0.413216073659E+03    0.28869E-05   -0.53899E-07  2432   0.126E-03    0.593E-04
RMM:  13    -0.413216070419E+03    0.32397E-05   -0.34377E-07  1702   0.929E-04    0.328E-04
RMM:  14    -0.413216068374E+03    0.20452E-05   -0.20737E-07  1391   0.784E-04    0.180E-04
RMM:  15    -0.413216066073E+03    0.23009E-05   -0.15165E-07  1274   0.722E-04    0.957E-05
RMM:  16    -0.413216063073E+03    0.30004E-05   -0.12861E-07  1328   0.701E-04    0.565E-05
RMM:  17    -0.413216061760E+03    0.13123E-05   -0.80504E-08  1101   0.623E-04    0.471E-05
RMM:  18    -0.413216059634E+03    0.21266E-05   -0.69559E-08  1129   0.608E-04    0.357E-05
RMM:  19    -0.413216058850E+03    0.78377E-06   -0.40626E-08   870   0.556E-04
   44 T=    71. E= -.41286720E+03 F= -.41321606E+03 E0= -.41319508E+03  EK= 0.34886E+00 SP= 0.00E+00 SK= 0.00E+00
       N       E                     dE             d eps       ncg     rms          rms(c)
RMM:   1    -0.413230876814E+03   -0.14817E-01   -0.13042E+01  4307   0.154E+00    0.979E-01
RMM:   2    -0.413218573923E+03    0.12303E-01   -0.18561E-01  4349   0.181E-01    0.685E-01
RMM:   3    -0.413230274447E+03   -0.11701E-01   -0.18275E-02  5140   0.115E-01    0.522E-01
RMM:   4    -0.413234161976E+03   -0.38875E-02   -0.38176E-02  5019   0.170E-01    0.556E-01
RMM:   5    -0.413217921293E+03    0.16241E-01   -0.62714E-03  4583   0.962E-02    0.445E-02
RMM:   6    -0.413217879344E+03    0.41950E-04   -0.11398E-03  5380   0.328E-02    0.192E-02
RMM:   7    -0.413217878312E+03    0.10322E-05   -0.13515E-04  5669   0.112E-02    0.143E-02
RMM:   8    -0.413217872512E+03    0.57994E-05   -0.39944E-05  5012   0.634E-03    0.820E-03
RMM:   9    -0.413217857237E+03    0.15276E-04   -0.10419E-05  3573   0.442E-03    0.374E-03
RMM:  10    -0.413217852396E+03    0.48410E-05   -0.15876E-06  2541   0.203E-03    0.187E-03
RMM:  11    -0.413217845721E+03    0.66742E-05   -0.99013E-07  2492   0.155E-03    0.104E-03
RMM:  12    -0.413217840099E+03    0.56223E-05   -0.41613E-07  2351   0.112E-03    0.480E-04
RMM:  13    -0.413217835579E+03    0.45201E-05   -0.22069E-07  1477   0.786E-04    0.224E-04
RMM:  14    -0.413217832372E+03    0.32073E-05   -0.13764E-07  1239   0.688E-04    0.138E-04
RMM:  15    -0.413217825827E+03    0.65450E-05   -0.13648E-07  1397   0.711E-04    0.940E-05
RMM:  16    -0.413217823366E+03    0.24608E-05   -0.74725E-08  1089   0.611E-04    0.773E-05
RMM:  17    -0.413217820615E+03    0.27512E-05   -0.55832E-08  1022   0.584E-04    0.495E-05
RMM:  18    -0.413217817869E+03    0.27455E-05   -0.48265E-08  1030   0.575E-04    0.328E-05
RMM:  19    -0.413217817299E+03    0.56967E-06   -0.24127E-08   744   0.520E-04
   45 T=    71. E= -.41286754E+03 F= -.41321782E+03 E0= -.41319687E+03  EK= 0.35027E+00 SP= 0.00E+00 SK= 0.00E+00
       N       E                     dE             d eps       ncg     rms          rms(c)
RMM:   1    -0.413236283955E+03   -0.18466E-01   -0.13011E+01  4307   0.165E+00    0.960E-01
RMM:   2    -0.413218778118E+03    0.17506E-01   -0.18512E-01  4361   0.193E-01    0.682E-01
RMM:   3    -0.413232999332E+03   -0.14221E-01   -0.20407E-02  5132   0.125E-01    0.564E-01
RMM:   4    -0.413232053204E+03    0.94613E-03   -0.37587E-02  4998   0.170E-01    0.520E-01
RMM:   5    -0.413218151280E+03    0.13902E-01   -0.54163E-03  4552   0.927E-02    0.446E-02
RMM:   6    -0.413218089491E+03    0.61789E-04   -0.89360E-04  5175   0.302E-02    0.186E-02
RMM:   7    -0.413218088395E+03    0.10954E-05   -0.11106E-04  5674   0.101E-02    0.128E-02
RMM:   8    -0.413218085688E+03    0.27072E-05   -0.44962E-05  5154   0.667E-03    0.868E-03
RMM:   9    -0.413218071067E+03    0.14621E-04   -0.14875E-05  4136   0.496E-03    0.405E-03
RMM:  10    -0.413218067198E+03    0.38695E-05   -0.19406E-06  2570   0.212E-03    0.202E-03
RMM:  11    -0.413218061675E+03    0.55229E-05   -0.12633E-06  2488   0.177E-03    0.120E-03
RMM:  12    -0.413218057015E+03    0.46601E-05   -0.45423E-07  2377   0.124E-03    0.601E-04
RMM:  13    -0.413218053183E+03    0.38313E-05   -0.21117E-07  1526   0.809E-04    0.274E-04
RMM:  14    -0.413218049679E+03    0.35044E-05   -0.12644E-07  1192   0.692E-04    0.142E-04
RMM:  15    -0.413218043925E+03    0.57541E-05   -0.13008E-07  1372   0.703E-04    0.131E-04
RMM:  16    -0.413218042218E+03    0.17067E-05   -0.58442E-08   897   0.567E-04    0.102E-04
RMM:  17    -0.413218038630E+03    0.35883E-05   -0.59165E-08   999   0.584E-04    0.532E-05
RMM:  18    -0.413218036565E+03    0.20644E-05   -0.41786E-08   922   0.554E-04    0.437E-05
RMM:  19    -0.413218035756E+03    0.80977E-06   -0.23960E-08   741   0.518E-04
   46 T=    71. E= -.41286729E+03 F= -.41321804E+03 E0= -.41319711E+03  EK= 0.35075E+00 SP= 0.00E+00 SK= 0.00E+00
       N       E                     dE             d eps       ncg     rms          rms(c)
RMM:   1    -0.413258799275E+03   -0.40763E-01   -0.13295E+01  4310   0.181E+00    0.947E-01
RMM:   2    -0.413218979409E+03    0.39820E-01   -0.21885E-01  4367   0.213E-01    0.698E-01
RMM:   3    -0.413232797100E+03   -0.13818E-01   -0.20083E-02  5134   0.126E-01    0.587E-01
RMM:   4    -0.413233257315E+03   -0.46021E-03   -0.39991E-02  5005   0.175E-01    0.558E-01
RMM:   5    -0.413217711825E+03    0.15545E-01   -0.66690E-03  4553   0.101E-01    0.496E-02
RMM:   6    -0.413217637259E+03    0.74566E-04   -0.10586E-03  5211   0.331E-02    0.205E-02
RMM:   7    -0.413217636358E+03    0.90050E-06   -0.14249E-04  5799   0.114E-02    0.150E-02
RMM:   8    -0.413217632202E+03    0.41563E-05   -0.44151E-05  5129   0.652E-03    0.921E-03
RMM:   9    -0.413217619411E+03    0.12791E-04   -0.14458E-05  4022   0.503E-03    0.453E-03
RMM:  10    -0.413217616052E+03    0.33587E-05   -0.22109E-06  2570   0.220E-03    0.228E-03
RMM:  11    -0.413217612406E+03    0.36467E-05   -0.16091E-06  2538   0.193E-03    0.137E-03
RMM:  12    -0.413217609414E+03    0.29921E-05   -0.50953E-07  2434   0.132E-03    0.691E-04
RMM:  13    -0.413217606483E+03    0.29309E-05   -0.26546E-07  1694   0.866E-04    0.315E-04
RMM:  14    -0.413217604151E+03    0.23318E-05   -0.16376E-07  1273   0.721E-04    0.176E-04
RMM:  15    -0.413217601103E+03    0.30484E-05   -0.14473E-07  1311   0.704E-04    0.937E-05
RMM:  16    -0.413217599139E+03    0.19640E-05   -0.94485E-08  1134   0.627E-04    0.865E-05
RMM:  17    -0.413217597583E+03    0.15555E-05   -0.61446E-08   950   0.575E-04    0.434E-05
RMM:  18    -0.413217596183E+03    0.13997E-05   -0.49194E-08   902   0.556E-04    0.276E-05
RMM:  19    -0.413217595715E+03    0.46869E-06   -0.26451E-08   716   0.523E-04
   47 T=    71. E= -.41286724E+03 F= -.41321760E+03 E0= -.41319668E+03  EK= 0.35036E+00 SP= 0.00E+00 SK= 0.00E+00
       N       E                     dE             d eps       ncg     rms          rms(c)
RMM:   1    -0.413269447198E+03   -0.51851E-01   -0.13397E+01  4306   0.196E+00    0.975E-01
RMM:   2    -0.413217300131E+03    0.52147E-01   -0.21333E-01  4473   0.213E-01    0.692E-01
RMM:   3    -0.413240501499E+03   -0.23201E-01   -0.28688E-02  5150   0.152E-01    0.703E-01
RMM:   4    -0.413225417226E+03    0.15084E-01   -0.37737E-02  4963   0.174E-01    0.444E-01
RMM:   5    -0.413216690267E+03    0.87270E-02   -0.47475E-03  4556   0.913E-02    0.557E-02
RMM:   6    -0.413216525752E+03    0.16452E-03   -0.46852E-04  4724   0.283E-02    0.229E-02
RMM:   7    -0.413216527345E+03   -0.15931E-05   -0.13818E-04  5921   0.117E-02    0.158E-02
RMM:   8    -0.413216515417E+03    0.11928E-04   -0.37691E-05  5007   0.662E-03    0.102E-02
RMM:   9    -0.413216500827E+03    0.14590E-04   -0.12141E-05  3760   0.457E-03    0.524E-03
RMM:  10    -0.413216494589E+03    0.62380E-05   -0.26166E-06  2608   0.260E-03    0.246E-03
RMM:  11    -0.413216489368E+03    0.52207E-05   -0.19631E-06  2538   0.216E-03    0.156E-03
RMM:  12    -0.413216484295E+03    0.50733E-05   -0.70787E-07  2435   0.151E-03    0.808E-04
RMM:  13    -0.413216479722E+03    0.45728E-05   -0.34195E-07  2174   0.992E-04    0.435E-04
RMM:  14    -0.413216475275E+03    0.44469E-05   -0.18964E-07  1470   0.741E-04    0.221E-04
RMM:  15    -0.413216470726E+03    0.45498E-05   -0.13814E-07  1325   0.686E-04    0.119E-04
RMM:  16    -0.413216467403E+03    0.33226E-05   -0.96007E-08  1228   0.640E-04    0.115E-04
RMM:  17    -0.413216465302E+03    0.21006E-05   -0.61027E-08  1033   0.579E-04    0.713E-05
RMM:  18    -0.413216463206E+03    0.20960E-05   -0.47378E-08   992   0.567E-04    0.456E-05
RMM:  19    -0.413216462435E+03    0.77116E-06   -0.25478E-08   777   0.523E-04
   48 T=    71. E= -.41286739E+03 F= -.41321646E+03 E0= -.41319556E+03  EK= 0.34907E+00 SP= 0.00E+00 SK= 0.00E+00
       N       E                     dE             d eps       ncg     rms          rms(c)
RMM:   1    -0.413272145752E+03   -0.55683E-01   -0.13287E+01  4305   0.209E+00    0.965E-01
RMM:   2    -0.413213869511E+03    0.58276E-01   -0.21237E-01  4476   0.228E-01    0.682E-01
RMM:   3    -0.413242097722E+03   -0.28228E-01   -0.33249E-02  5163   0.164E-01    0.764E-01
RMM:   4    -0.413219652222E+03    0.22445E-01   -0.37392E-02  4940   0.176E-01    0.401E-01
RMM:   5    -0.413213421948E+03    0.62303E-02   -0.49586E-03  4739   0.922E-02    0.670E-02
RMM:   6    -0.413213161007E+03    0.26094E-03   -0.49361E-04  4654   0.310E-02    0.268E-02
RMM:   7    -0.413213157783E+03    0.32238E-05   -0.13444E-04  5764   0.122E-02    0.174E-02
RMM:   8    -0.413213144564E+03    0.13219E-04   -0.28042E-05  4719   0.581E-03    0.104E-02
RMM:   9    -0.413213129278E+03    0.15286E-04   -0.12271E-05  3468   0.435E-03    0.466E-03
RMM:  10    -0.413213122500E+03    0.67780E-05   -0.29416E-06  2673   0.269E-03    0.244E-03
RMM:  11    -0.413213115891E+03    0.66095E-05   -0.17897E-06  2540   0.212E-03    0.155E-03
RMM:  12    -0.413213110817E+03    0.50740E-05   -0.62970E-07  2445   0.142E-03    0.733E-04
RMM:  13    -0.413213106276E+03    0.45406E-05   -0.32716E-07  2050   0.953E-04    0.406E-04
RMM:  14    -0.413213101804E+03    0.44717E-05   -0.21369E-07  1598   0.775E-04    0.242E-04
RMM:  15    -0.413213096772E+03    0.50323E-05   -0.16794E-07  1430   0.717E-04    0.136E-04
RMM:  16    -0.413213094703E+03    0.20691E-05   -0.92980E-08  1158   0.620E-04    0.874E-05
RMM:  17    -0.413213091938E+03    0.27653E-05   -0.80290E-08  1221   0.616E-04    0.419E-05
RMM:  18    -0.413213090608E+03    0.13297E-05   -0.45901E-08   981   0.566E-04    0.312E-05
RMM:  19    -0.413213089935E+03    0.67270E-06   -0.28386E-08   829   0.539E-04
   49 T=    70. E= -.41286715E+03 F= -.41321309E+03 E0= -.41319221E+03  EK= 0.34594E+00 SP= 0.00E+00 SK= 0.00E+00
       N       E                     dE             d eps       ncg     rms          rms(c)
RMM:   1    -0.413253053579E+03   -0.39963E-01   -0.12985E+01  4304   0.214E+00    0.933E-01
RMM:   2    -0.413209986065E+03    0.43068E-01   -0.23444E-01  4504   0.242E-01    0.693E-01
RMM:   3    -0.413234744973E+03   -0.24759E-01   -0.30060E-02  5162   0.160E-01    0.746E-01
RMM:   4    -0.413216420843E+03    0.18324E-01   -0.37150E-02  4946   0.175E-01    0.439E-01
RMM:   5    -0.413208828709E+03    0.75921E-02   -0.58718E-03  4667   0.983E-02    0.697E-02
RMM:   6    -0.413208562706E+03    0.26600E-03   -0.54191E-04  4645   0.325E-02    0.279E-02
RMM:   7    -0.413208561873E+03    0.83225E-06   -0.15823E-04  5870   0.130E-02    0.184E-02
RMM:   8    -0.413208548639E+03    0.13234E-04   -0.35567E-05  4946   0.634E-03    0.113E-02
RMM:   9    -0.413208535889E+03    0.12750E-04   -0.16056E-05  3798   0.490E-03    0.531E-03
RMM:  10    -0.413208530033E+03    0.58559E-05   -0.39906E-06  2797   0.301E-03    0.270E-03
RMM:  11    -0.413208525808E+03    0.42257E-05   -0.23240E-06  2625   0.233E-03    0.181E-03
RMM:  12    -0.413208522001E+03    0.38065E-05   -0.71482E-07  2467   0.154E-03    0.870E-04
RMM:  13    -0.413208518741E+03    0.32598E-05   -0.36575E-07  2187   0.998E-04    0.460E-04
RMM:  14    -0.413208515510E+03    0.32314E-05   -0.24436E-07  1598   0.787E-04    0.266E-04
RMM:  15    -0.413208512373E+03    0.31366E-05   -0.20799E-07  1491   0.737E-04    0.139E-04
RMM:  16    -0.413208510830E+03    0.15435E-05   -0.11347E-07  1211   0.643E-04    0.927E-05
RMM:  17    -0.413208509549E+03    0.12805E-05   -0.86344E-08  1159   0.614E-04    0.486E-05
RMM:  18    -0.413208508987E+03    0.56222E-06   -0.53113E-08  1015   0.569E-04
[...]
RMM:   5    -0.413764054348E+03    0.19386E-03   -0.14818E-02  4676   0.158E-01    0.241E-01
RMM:   6    -0.413764144630E+03   -0.90281E-04   -0.14043E-02  4987   0.144E-01    0.134E-01
RMM:   7    -0.413763345047E+03    0.79958E-03   -0.26086E-03  5289   0.673E-02    0.835E-02
RMM:   8    -0.413763180937E+03    0.16411E-03   -0.57635E-04  5306   0.296E-02    0.483E-02
RMM:   9    -0.413763137933E+03    0.43004E-04   -0.53497E-04  4537   0.278E-02    0.154E-02
RMM:  10    -0.413763147483E+03   -0.95495E-05   -0.96388E-05  5700   0.114E-02    0.120E-02
RMM:  11    -0.413763147309E+03    0.17414E-06   -0.20885E-05  4390   0.600E-03    0.521E-03
RMM:  12    -0.413763151747E+03   -0.44384E-05   -0.60213E-06  3180   0.349E-03    0.284E-03
RMM:  13    -0.413763155367E+03   -0.36203E-05   -0.16419E-06  2594   0.215E-03    0.170E-03
RMM:  14    -0.413763157965E+03   -0.25977E-05   -0.97738E-07  2483   0.157E-03    0.763E-04
RMM:  15    -0.413763160543E+03   -0.25781E-05   -0.55233E-07  2170   0.116E-03    0.554E-04
RMM:  16    -0.413763162938E+03   -0.23945E-05   -0.44995E-07  1990   0.988E-04    0.290E-04
RMM:  17    -0.413763164856E+03   -0.19183E-05   -0.29500E-07  1593   0.814E-04    0.158E-04
RMM:  18    -0.413763166800E+03   -0.19437E-05   -0.28337E-07  1725   0.791E-04    0.116E-04
RMM:  19    -0.413763168281E+03   -0.14812E-05   -0.18762E-07  1379   0.683E-04    0.909E-05
RMM:  20    -0.413763169318E+03   -0.10366E-05   -0.11900E-07  1142   0.613E-04    0.454E-05
RMM:  21    -0.413763170183E+03   -0.86578E-06   -0.86152E-08  1113   0.590E-04
  139 T=   182. E= -.41287110E+03 F= -.41376317E+03 E0= -.41374409E+03  EK= 0.89207E+00 SP= 0.00E+00 SK= 0.00E+00
       N       E                     dE             d eps       ncg     rms          rms(c)
RMM:   1    -0.414005028132E+03   -0.24186E+00   -0.21697E+01  4275   0.877E+00    0.811E-01
RMM:   2    -0.413887637343E+03    0.11739E+00   -0.47342E-01  5222   0.887E-01    0.760E-01
RMM:   3    -0.413907724840E+03   -0.20087E-01   -0.81889E-02  5718   0.311E-01    0.883E-01
RMM:   4    -0.413883495787E+03    0.24229E-01   -0.24176E-02  5213   0.182E-01    0.500E-01
RMM:   5    -0.413882781417E+03    0.71437E-03   -0.17091E-02  4598   0.175E-01    0.231E-01
RMM:   6    -0.413882696199E+03    0.85218E-04   -0.11913E-02  4971   0.136E-01    0.125E-01
RMM:   7    -0.413881948899E+03    0.74730E-03   -0.25176E-03  5262   0.650E-02    0.736E-02
RMM:   8    -0.413881813877E+03    0.13502E-03   -0.49027E-04  5289   0.280E-02    0.453E-02
RMM:   9    -0.413881765223E+03    0.48654E-04   -0.42394E-04  4535   0.255E-02    0.159E-02
RMM:  10    -0.413881772910E+03   -0.76873E-05   -0.10146E-04  5804   0.116E-02    0.127E-02
RMM:  11    -0.413881772990E+03   -0.79552E-07   -0.21591E-05  4502   0.604E-03    0.548E-03
RMM:  12    -0.413881778196E+03   -0.52062E-05   -0.71093E-06  3348   0.375E-03    0.295E-03
RMM:  13    -0.413881783511E+03   -0.53153E-05   -0.17160E-06  2621   0.223E-03    0.167E-03
RMM:  14    -0.413881788949E+03   -0.54375E-05   -0.11591E-06  2532   0.167E-03    0.868E-04
RMM:  15    -0.413881794541E+03   -0.55921E-05   -0.90768E-07  2381   0.135E-03    0.624E-04
RMM:  16    -0.413881799142E+03   -0.46006E-05   -0.70570E-07  2121   0.111E-03    0.385E-04
RMM:  17    -0.413881803125E+03   -0.39837E-05   -0.57515E-07  2026   0.989E-04    0.251E-04
RMM:  18    -0.413881807285E+03   -0.41602E-05   -0.62410E-07  1984   0.965E-04    0.217E-04
RMM:  19    -0.413881809982E+03   -0.26969E-05   -0.34564E-07  1408   0.771E-04    0.120E-04
RMM:  20    -0.413881811741E+03   -0.17581E-05   -0.20076E-07  1300   0.693E-04    0.611E-05
RMM:  21    -0.413881813039E+03   -0.12982E-05   -0.12602E-07  1181   0.635E-04    0.532E-05
RMM:  22    -0.413881813619E+03   -0.58026E-06   -0.66848E-08   995   0.582E-04
  140 T=   204. E= -.41287836E+03 F= -.41388181E+03 E0= -.41386295E+03  EK= 0.10035E+01 SP= 0.00E+00 SK= 0.00E+00
       N       E                     dE             d eps       ncg     rms          rms(c)
RMM:   1    -0.414092397294E+03   -0.21058E+00   -0.24773E+01  4265   0.932E+00    0.111E+00
RMM:   2    -0.413945377646E+03    0.14702E+00   -0.61862E-01  5239   0.100E+00    0.994E-01
RMM:   3    -0.413980555354E+03   -0.35178E-01   -0.10587E-01  5650   0.364E-01    0.109E+00
RMM:   4    -0.413947342759E+03    0.33213E-01   -0.45238E-02  5215   0.237E-01    0.670E-01
RMM:   5    -0.413942867519E+03    0.44752E-02   -0.31022E-02  4556   0.239E-01    0.238E-01
RMM:   6    -0.413941579986E+03    0.12875E-02   -0.78337E-03  4863   0.120E-01    0.108E-01
RMM:   7    -0.413941193896E+03    0.38609E-03   -0.20573E-03  5404   0.577E-02    0.689E-02
RMM:   8    -0.413941035639E+03    0.15826E-03   -0.52615E-04  5088   0.295E-02    0.434E-02
RMM:   9    -0.413940991080E+03    0.44559E-04   -0.37252E-04  4582   0.248E-02    0.188E-02
RMM:  10    -0.413940994312E+03   -0.32324E-05   -0.10449E-04  5739   0.125E-02    0.131E-02
RMM:  11    -0.413940995330E+03   -0.10177E-05   -0.24046E-05  4688   0.624E-03    0.626E-03
RMM:  12    -0.413941000267E+03   -0.49372E-05   -0.65412E-06  3260   0.364E-03    0.327E-03
RMM:  13    -0.413941007385E+03   -0.71178E-05   -0.23080E-06  2707   0.244E-03    0.194E-03
RMM:  14    -0.413941014676E+03   -0.72905E-05   -0.14775E-06  2569   0.190E-03    0.977E-04
RMM:  15    -0.413941021246E+03   -0.65706E-05   -0.10392E-06  2456   0.145E-03    0.650E-04
RMM:  16    -0.413941027453E+03   -0.62064E-05   -0.95446E-07  2315   0.126E-03    0.498E-04
RMM:  17    -0.413941033684E+03   -0.62317E-05   -0.94990E-07  2244   0.120E-03    0.308E-04
RMM:  18    -0.413941037316E+03   -0.36319E-05   -0.57013E-07  1795   0.922E-04    0.205E-04
RMM:  19    -0.413941041090E+03   -0.37739E-05   -0.52028E-07  1869   0.902E-04    0.127E-04
RMM:  20    -0.413941042607E+03   -0.15171E-05   -0.21899E-07  1309   0.672E-04    0.932E-05
RMM:  21    -0.413941044375E+03   -0.17679E-05   -0.15553E-07  1215   0.637E-04    0.495E-05
RMM:  22    -0.413941045213E+03   -0.83842E-06   -0.92141E-08  1095   0.590E-04
  141 T=   214. E= -.41289009E+03 F= -.41394105E+03 E0= -.41392199E+03  EK= 0.10510E+01 SP= 0.00E+00 SK= 0.00E+00
       N       E                     dE             d eps       ncg     rms          rms(c)
RMM:   1    -0.413945660746E+03   -0.46164E-02   -0.24399E+01  4264   0.918E+00    0.162E+00
RMM:   2    -0.413804996752E+03    0.14066E+00   -0.69858E-01  5248   0.104E+00    0.136E+00
RMM:   3    -0.413844224067E+03   -0.39227E-01   -0.13171E-01  5486   0.427E-01    0.116E+00
RMM:   4    -0.413869121508E+03   -0.24897E-01   -0.14058E-01  5244   0.370E-01    0.116E+00
RMM:   5    -0.413806280243E+03    0.62841E-01   -0.78241E-02  4961   0.351E-01    0.276E-01
RMM:   6    -0.413803640798E+03    0.26394E-02   -0.10344E-02  5093   0.141E-01    0.102E-01
RMM:   7    -0.413803457621E+03    0.18318E-03   -0.23214E-03  5398   0.560E-02    0.560E-02
RMM:   8    -0.413803454408E+03    0.32130E-05   -0.95662E-04  5794   0.341E-02    0.406E-02
RMM:   9    -0.413803395204E+03    0.59204E-04   -0.32092E-04  5275   0.218E-02    0.247E-02
RMM:  10    -0.413803386119E+03    0.90852E-05   -0.92034E-05  5541   0.122E-02    0.129E-02
RMM:  11    -0.413803385172E+03    0.94653E-06   -0.32573E-05  5269   0.669E-03    0.719E-03
RMM:  12    -0.413803388083E+03   -0.29108E-05   -0.57866E-06  3160   0.365E-03    0.413E-03
RMM:  13    -0.413803393094E+03   -0.50109E-05   -0.34793E-06  2834   0.297E-03    0.245E-03
RMM:  14    -0.413803397997E+03   -0.49026E-05   -0.14281E-06  2576   0.197E-03    0.110E-03
RMM:  15    -0.413803401969E+03   -0.39722E-05   -0.81681E-07  2469   0.135E-03    0.669E-04
RMM:  16    -0.413803406757E+03   -0.47881E-05   -0.87027E-07  2279   0.124E-03    0.466E-04
RMM:  17    -0.413803410975E+03   -0.42176E-05   -0.77305E-07  2121   0.111E-03    0.314E-04
RMM:  18    -0.413803414583E+03   -0.36084E-05   -0.74220E-07  2038   0.105E-03    0.184E-04
RMM:  19    -0.413803417091E+03   -0.25075E-05   -0.50473E-07  1679   0.873E-04    0.123E-04
RMM:  20    -0.413803418397E+03   -0.13066E-05   -0.23834E-07  1352   0.701E-04    0.895E-05
RMM:  21    -0.413803419758E+03   -0.13606E-05   -0.17827E-07  1307   0.666E-04    0.501E-05
RMM:  22    -0.413803420320E+03   -0.56250E-06   -0.87610E-08  1021   0.587E-04
  142 T=   187. E= -.41288610E+03 F= -.41380342E+03 E0= -.41378379E+03  EK= 0.91732E+00 SP= 0.00E+00 SK= 0.00E+00
       N       E                     dE             d eps       ncg     rms          rms(c)
RMM:   1    -0.413712314216E+03    0.91106E-01   -0.18485E+01  4264   0.797E+00    0.123E+00
RMM:   2    -0.413600509895E+03    0.11180E+00   -0.51461E-01  5232   0.874E-01    0.980E-01
RMM:   3    -0.413674929793E+03   -0.74420E-01   -0.13357E-01  5508   0.401E-01    0.132E+00
RMM:   4    -0.413606582013E+03    0.68348E-01   -0.72556E-02  5172   0.297E-01    0.617E-01
RMM:   5    -0.413600560213E+03    0.60218E-02   -0.34573E-02  5048   0.245E-01    0.215E-01
RMM:   6    -0.413599626529E+03    0.93368E-03   -0.45108E-03  5037   0.957E-02    0.843E-02
RMM:   7    -0.413599510316E+03    0.11621E-03   -0.13780E-03  5402   0.450E-02    0.486E-02
RMM:   8    -0.413599424219E+03    0.86096E-04   -0.53916E-04  5489   0.272E-02    0.301E-02
RMM:   9    -0.413599411040E+03    0.13179E-04   -0.19164E-04  5496   0.170E-02    0.204E-02
RMM:  10    -0.413599400569E+03    0.10471E-04   -0.47206E-05  5188   0.887E-03    0.991E-03
RMM:  11    -0.413599399945E+03    0.62372E-06   -0.30774E-05  5296   0.628E-03    0.582E-03
RMM:  12    -0.413599399482E+03    0.46325E-06   -0.36155E-06  2833   0.294E-03
  143 T=   152. E= -.41285356E+03 F= -.41359940E+03 E0= -.41357887E+03  EK= 0.74584E+00 SP= 0.00E+00 SK= 0.00E+00
       N       E                     dE             d eps       ncg     rms          rms(c)
RMM:   1    -0.413876915165E+03   -0.27752E+00   -0.17094E+01  4264   0.741E+00    0.109E+00
RMM:   2    -0.413764544088E+03    0.11237E+00   -0.50814E-01  5353   0.863E-01    0.104E+00
RMM:   3    -0.413770200734E+03   -0.56566E-02   -0.11220E-01  5468   0.374E-01    0.106E+00
RMM:   4    -0.413739037589E+03    0.31163E-01   -0.54779E-02  5250   0.281E-01    0.524E-01
RMM:   5    -0.413736858275E+03    0.21793E-02   -0.17027E-02  4654   0.185E-01    0.206E-01
RMM:   6    -0.413737441650E+03   -0.58337E-03   -0.11149E-02  5310   0.125E-01    0.147E-01
RMM:   7    -0.413736225747E+03    0.12159E-02   -0.31153E-03  4956   0.708E-02    0.565E-02
RMM:   8    -0.413736221962E+03    0.37846E-05   -0.86106E-04  5840   0.339E-02    0.328E-02
RMM:   9    -0.413736213102E+03    0.88597E-05   -0.25599E-04  5369   0.199E-02    0.219E-02
RMM:  10    -0.413736199670E+03    0.13432E-04   -0.52505E-05  5314   0.953E-03    0.990E-03
RMM:  11    -0.413736199763E+03   -0.93034E-07   -0.29839E-05  5241   0.614E-03    0.612E-03
RMM:  12    -0.413736199040E+03    0.72339E-06   -0.35032E-06  2812   0.297E-03
  144 T=   176. E= -.41287147E+03 F= -.41373620E+03 E0= -.41371463E+03  EK= 0.86473E+00 SP= 0.00E+00 SK= 0.00E+00
       N       E                     dE             d eps       ncg     rms          rms(c)
RMM:   1    -0.414230518281E+03   -0.49432E+00   -0.25094E+01  4283   0.879E+00    0.199E+00
RMM:   2    -0.414054799206E+03    0.17572E+00   -0.92806E-01  5390   0.114E+00    0.183E+00
RMM:   3    -0.414108871816E+03   -0.54073E-01   -0.26221E-01  5441   0.561E-01    0.193E+00
RMM:   4    -0.414012187340E+03    0.96684E-01   -0.16138E-01  5166   0.475E-01    0.861E-01
RMM:   5    -0.414001438522E+03    0.10749E-01   -0.57913E-02  4608   0.337E-01    0.249E-01
RMM:   6    -0.414001010465E+03    0.42806E-03   -0.19409E-02  5327   0.167E-01    0.179E-01
RMM:   7    -0.413999282765E+03    0.17277E-02   -0.46101E-03  4906   0.872E-02    0.799E-02
RMM:   8    -0.413999217850E+03    0.64915E-04   -0.12584E-03  5646   0.440E-02    0.431E-02
RMM:   9    -0.413999215867E+03    0.19826E-05   -0.41476E-04  5423   0.252E-02    0.275E-02
RMM:  10    -0.413999198707E+03    0.17160E-04   -0.87707E-05  5471   0.120E-02    0.130E-02
RMM:  11    -0.413999200892E+03   -0.21851E-05   -0.54899E-05  5552   0.826E-03    0.860E-03
RMM:  12    -0.413999201039E+03   -0.14750E-06   -0.75766E-06  3446   0.396E-03
  145 T=   225. E= -.41289546E+03 F= -.41399920E+03 E0= -.41397696E+03  EK= 0.11037E+01 SP= 0.00E+00 SK= 0.00E+00
       N       E                     dE             d eps       ncg     rms          rms(c)
RMM:   1    -0.414317895577E+03   -0.31869E+00   -0.30182E+01  4283   0.955E+00    0.190E+00
RMM:   2    -0.414035733492E+03    0.28216E+00   -0.11075E+00  5384   0.121E+00    0.172E+00
RMM:   3    -0.414130647200E+03   -0.94914E-01   -0.26232E-01  5572   0.558E-01    0.192E+00
RMM:   4    -0.414024879299E+03    0.10577E+00   -0.13904E-01  5130   0.429E-01    0.944E-01
RMM:   5    -0.414011360883E+03    0.13518E-01   -0.61263E-02  4372   0.351E-01    0.239E-01
RMM:   6    -0.414009951822E+03    0.14091E-02   -0.76272E-03  5221   0.121E-01    0.121E-01
RMM:   7    -0.414009818262E+03    0.13356E-03   -0.31657E-03  5381   0.661E-02    0.846E-02
RMM:   8    -0.414009563516E+03    0.25475E-03   -0.11746E-03  5047   0.437E-02    0.428E-02
RMM:   9    -0.414009559941E+03    0.35748E-05   -0.39506E-04  5307   0.257E-02    0.260E-02
RMM:  10    -0.414009551010E+03    0.89315E-05   -0.86150E-05  5452   0.117E-02    0.131E-02
RMM:  11    -0.414009555222E+03   -0.42127E-05   -0.46858E-05  5420   0.789E-03    0.834E-03
RMM:  12    -0.414009555422E+03   -0.20015E-06   -0.68985E-06  3250   0.376E-03
  146 T=   225. E= -.41290443E+03 F= -.41400956E+03 E0= -.41398716E+03  EK= 0.11051E+01 SP= 0.00E+00 SK= 0.00E+00
       N       E                     dE             d eps       ncg     rms          rms(c)
RMM:   1    -0.413845668968E+03    0.16389E+00   -0.25880E+01  4279   0.889E+00    0.226E+00
RMM:   2    -0.413656189894E+03    0.18948E+00   -0.99368E-01  5365   0.110E+00    0.190E+00
RMM:   3    -0.413660268886E+03   -0.40790E-02   -0.19637E-01  5102   0.546E-01    0.100E+00
RMM:   4    -0.413755175816E+03   -0.94907E-01   -0.18077E-01  4962   0.485E-01    0.124E+00
RMM:   5    -0.413658032234E+03    0.97144E-01   -0.81188E-02  5044   0.313E-01    0.418E-01
RMM:   6    -0.413649455566E+03    0.85767E-02   -0.17497E-02  5231   0.173E-01    0.124E-01
RMM:   7    -0.413649099407E+03    0.35616E-03   -0.43132E-03  5521   0.790E-02    0.816E-02
RMM:   8    -0.413649009350E+03    0.90057E-04   -0.12027E-03  5100   0.427E-02    0.462E-02
RMM:   9    -0.413648995409E+03    0.13941E-04   -0.30863E-04  5247   0.229E-02    0.204E-02
RMM:  10    -0.413649000190E+03   -0.47808E-05   -0.87931E-05  5958   0.107E-02    0.117E-02
RMM:  11    -0.413649002554E+03   -0.23642E-05   -0.18434E-05  4478   0.547E-03    0.591E-03
RMM:  12    -0.413649005652E+03   -0.30977E-05   -0.61214E-06  3176   0.350E-03    0.312E-03
RMM:  13    -0.413649007521E+03   -0.18692E-05   -0.19771E-06  2621   0.225E-03    0.149E-03
RMM:  14    -0.413649008366E+03   -0.84482E-06   -0.10233E-06  2522   0.161E-03
  147 T=   154. E= -.41289454E+03 F= -.41364901E+03 E0= -.41362665E+03  EK= 0.75447E+00 SP= 0.00E+00 SK= 0.00E+00
       N       E                     dE             d eps       ncg     rms          rms(c)
RMM:   1    -0.413264886043E+03    0.38412E+00   -0.12274E+01  4272   0.648E+00    0.133E+00
RMM:   2    -0.413241322169E+03    0.23564E-01   -0.39252E-01  5377   0.695E-01    0.113E+00
RMM:   3    -0.413301466537E+03   -0.60144E-01   -0.12315E-01  5508   0.368E-01    0.121E+00
RMM:   4    -0.413254891720E+03    0.46575E-01   -0.93142E-02  5147   0.323E-01    0.682E-01
RMM:   5    -0.413237866033E+03    0.17026E-01   -0.41558E-02  4733   0.273E-01    0.188E-01
RMM:   6    -0.413236829195E+03    0.10368E-02   -0.58228E-03  5348   0.103E-01    0.107E-01
RMM:   7    -0.413236448405E+03    0.38079E-03   -0.13561E-03  4862   0.482E-02    0.675E-02
RMM:   8    -0.413236396595E+03    0.51809E-04   -0.90447E-04  5067   0.394E-02    0.408E-02
RMM:   9    -0.413236393178E+03    0.34178E-05   -0.22962E-04  5579   0.193E-02    0.268E-02
RMM:  10    -0.413236379465E+03    0.13712E-04   -0.10732E-04  5441   0.126E-02    0.935E-03
RMM:  11    -0.413236386198E+03   -0.67321E-05   -0.39920E-05  5469   0.678E-03    0.793E-03
RMM:  12    -0.413236387609E+03   -0.14117E-05   -0.66948E-06  3468   0.380E-03    0.306E-03
RMM:  13    -0.413236389847E+03   -0.22381E-05   -0.21622E-06  2638   0.234E-03    0.163E-03
RMM:  14    -0.413236391507E+03   -0.16597E-05   -0.14766E-06  2562   0.186E-03    0.860E-04
RMM:  15    -0.413236391697E+03   -0.19023E-06   -0.97657E-07  2393   0.144E-03
  148 T=    81. E= -.41283656E+03 F= -.41323639E+03 E0= -.41321421E+03  EK= 0.39983E+00 SP= 0.00E+00 SK= 0.00E+00
       N       E                     dE             d eps       ncg     rms          rms(c)
RMM:   1    -0.413472290317E+03   -0.23590E+00   -0.90341E+00  4283   0.565E+00    0.111E+00
RMM:   2    -0.413464715022E+03    0.75753E-02   -0.28750E-01  5398   0.588E-01    0.921E-01
RMM:   3    -0.413508733367E+03   -0.44018E-01   -0.94488E-02  5494   0.317E-01    0.116E+00
RMM:   4    -0.413459194776E+03    0.49539E-01   -0.58828E-02  5083   0.285E-01    0.419E-01
RMM:   5    -0.413456301584E+03    0.28932E-02   -0.26860E-02  4926   0.214E-01    0.178E-01
RMM:   6    -0.413455019135E+03    0.12824E-02   -0.64677E-03  5231   0.101E-01    0.952E-02
RMM:   7    -0.413454770102E+03    0.24903E-03   -0.78935E-04  4692   0.399E-02    0.555E-02
RMM:   8    -0.413454753203E+03    0.16899E-04   -0.36868E-04  4694   0.257E-02    0.305E-02
RMM:   9    -0.413454776074E+03   -0.22871E-04   -0.18218E-04  5428   0.163E-02    0.166E-02
RMM:  10    -0.413454776593E+03   -0.51845E-06   -0.51964E-05  5447   0.862E-03    0.765E-03
RMM:  11    -0.413454783801E+03   -0.72078E-05   -0.18503E-05  4460   0.498E-03    0.515E-03
RMM:  12    -0.413454790211E+03   -0.64107E-05   -0.58557E-06  3173   0.363E-03    0.258E-03
RMM:  13    -0.413454792853E+03   -0.26412E-05   -0.20022E-06  2632   0.219E-03    0.123E-03
RMM:  14    -0.413454794838E+03   -0.19858E-05   -0.14569E-06  2551   0.173E-03    0.775E-04
RMM:  15    -0.413454795405E+03   -0.56630E-06   -0.10672E-06  2316   0.136E-03
  149 T=   116. E= -.41288680E+03 F= -.41345480E+03 E0= -.41343296E+03  EK= 0.56799E+00 SP= 0.00E+00 SK= 0.00E+00
       N       E                     dE             d eps       ncg     rms          rms(c)
RMM:   1    -0.413947408816E+03   -0.49261E+00   -0.19375E+01  4296   0.758E+00    0.227E+00
RMM:   2    -0.413774016900E+03    0.17339E+00   -0.67176E-01  5360   0.970E-01    0.192E+00
RMM:   3    -0.413953783210E+03   -0.17977E+00   -0.34197E-01  5367   0.607E-01    0.232E+00
RMM:   4    -0.413767741099E+03    0.18604E+00   -0.26207E-01  5144   0.573E-01    0.887E-01
RMM:   5    -0.413744238565E+03    0.23503E-01   -0.87722E-02  4887   0.395E-01    0.263E-01
RMM:   6    -0.413742226847E+03    0.20117E-02   -0.21708E-02  5436   0.178E-01    0.157E-01
RMM:   7    -0.413741116194E+03    0.11107E-02   -0.34439E-03  4856   0.788E-02    0.720E-02
RMM:   8    -0.413741006164E+03    0.11003E-03   -0.90563E-04  5223   0.402E-02    0.429E-02
RMM:   9    -0.413741045396E+03   -0.39233E-04   -0.42082E-04  5725   0.241E-02    0.303E-02
RMM:  10    -0.413741033413E+03    0.11983E-04   -0.97668E-05  5342   0.126E-02    0.129E-02
RMM:  11    -0.413741041865E+03   -0.84523E-05   -0.71673E-05  5734   0.906E-03    0.848E-03
RMM:  12    -0.413741047257E+03   -0.53924E-05   -0.10351E-05  3909   0.453E-03    0.416E-03
RMM:  13    -0.413741050137E+03   -0.28795E-05   -0.44128E-06  2944   0.295E-03    0.209E-03
RMM:  14    -0.413741052754E+03   -0.26169E-05   -0.16752E-06  2572   0.210E-03    0.901E-04
RMM:  15    -0.413741053975E+03   -0.12216E-05   -0.98828E-07  2417   0.154E-03    0.623E-04
RMM:  16    -0.413741054696E+03   -0.72040E-06   -0.10027E-06  2438   0.141E-03
  150 T=   171. E= -.41289941E+03 F= -.41374105E+03 E0= -.41371979E+03  EK= 0.84164E+00 SP= 0.00E+00 SK= 0.00E+00
