       N       E                     dE             d eps       ncg     rms          rms(c)
RMM:   1     0.220117685395E+04    0.22012E+04   -0.52441E+04  2132   0.654E+02
RMM:   2     0.705226926737E+03   -0.14959E+04   -0.16263E+04  2132   0.177E+02
RMM:   3     0.137589799658E+03   -0.56764E+03   -0.65732E+03  2132   0.117E+02
RMM:   4    -0.159172919834E+03   -0.29676E+03   -0.27893E+03  2132   0.937E+01
RMM:   5    -0.287305664129E+03   -0.12813E+03   -0.11441E+03  2132   0.595E+01
RMM:   6    -0.349730622776E+03   -0.62425E+02   -0.55166E+02  2132   0.423E+01
RMM:   7    -0.382706584761E+03   -0.32976E+02   -0.30482E+02  2132   0.293E+01
RMM:   8    -0.404149030878E+03   -0.21442E+02   -0.18444E+02  2132   0.233E+01
RMM:   9    -0.435959270455E+03   -0.31810E+02   -0.30797E+02  6104   0.173E+01
RMM:  10    -0.441283386899E+03   -0.53241E+01   -0.63445E+01  6398   0.539E+00
RMM:  11    -0.442512793265E+03   -0.12294E+01   -0.11094E+01  6230   0.173E+00
RMM:  12    -0.442882055710E+03   -0.36926E+00   -0.26388E+00  6368   0.599E-01    0.134E+02
RMM:  13    -0.425650894577E+03    0.17231E+02   -0.81315E+01  4678   0.120E+01    0.712E+01
RMM:  14    -0.500282691072E+03   -0.74632E+02   -0.54663E+02  5418   0.233E+01    0.308E+01
RMM:  15    -0.414827663114E+03    0.85455E+02   -0.19790E+02  5062   0.164E+01    0.637E+00
RMM:  16    -0.414035689087E+03    0.79197E+00   -0.39528E+01  6076   0.608E+00    0.428E+00
RMM:  17    -0.413217593748E+03    0.81810E+00   -0.23612E+00  5359   0.183E+00    0.244E+00
RMM:  18    -0.413170235842E+03    0.47358E-01   -0.82796E-01  5970   0.936E-01    0.161E+00
RMM:  19    -0.413167990681E+03    0.22452E-02   -0.29160E-01  5704   0.576E-01    0.846E-01
RMM:  20    -0.413180910164E+03   -0.12919E-01   -0.19327E-01  5393   0.484E-01    0.504E-01
RMM:  21    -0.413167257817E+03    0.13652E-01   -0.30510E-02  5002   0.218E-01    0.238E-01
RMM:  22    -0.413165861579E+03    0.13962E-02   -0.12662E-02  6127   0.943E-02    0.147E-01
RMM:  23    -0.413164346885E+03    0.15147E-02   -0.53489E-03  5799   0.688E-02    0.821E-02
RMM:  24    -0.413163043753E+03    0.13031E-02   -0.16341E-03  5510   0.408E-02    0.369E-02
RMM:  25    -0.413162868279E+03    0.17547E-03   -0.76287E-04  5614   0.243E-02    0.310E-02
RMM:  26    -0.413163100962E+03   -0.23268E-03   -0.64461E-04  5817   0.265E-02    0.324E-02
RMM:  27    -0.413163524963E+03   -0.42400E-03   -0.18387E-04  4569   0.196E-02    0.162E-02
RMM:  28    -0.413164031219E+03   -0.50626E-03   -0.19288E-04  5263   0.202E-02    0.946E-03
RMM:  29    -0.413164369603E+03   -0.33838E-03   -0.91166E-05  4379   0.137E-02    0.443E-03
RMM:  30    -0.413164605747E+03   -0.23614E-03   -0.77258E-05  4050   0.105E-02    0.256E-03
RMM:  31    -0.413164696205E+03   -0.90458E-04   -0.43420E-05  3208   0.556E-03    0.268E-03
RMM:  32    -0.413164720860E+03   -0.24655E-04   -0.16231E-05  2901   0.292E-03    0.130E-03
RMM:  33    -0.413164727793E+03   -0.69335E-05   -0.72521E-06  2743   0.191E-03    0.469E-04
RMM:  34    -0.413164729815E+03   -0.20218E-05   -0.36267E-06  2669   0.165E-03    0.966E-04
RMM:  35    -0.413164729550E+03    0.26487E-06   -0.41081E-06  2207   0.110E-03
    1 T=    61. E= -.41286695E+03 F= -.41316473E+03 E0= -.41314223E+03  EK= 0.29778E+00 SP= 0.00E+00 SK= 0.00E+00
       N       E                     dE             d eps       ncg     rms          rms(c)
RMM:   1    -0.413157962317E+03    0.67675E-02   -0.10377E+01  3988   0.670E-01    0.885E-01
RMM:   2    -0.413166953615E+03   -0.89913E-02   -0.12730E-01  3906   0.938E-02    0.644E-01
RMM:   3    -0.413164573171E+03    0.23804E-02   -0.90344E-03  4677   0.384E-02    0.120E-01
RMM:   4    -0.413179623456E+03   -0.15050E-01   -0.15823E-02  5211   0.104E-01    0.514E-01
RMM:   5    -0.413164343438E+03    0.15280E-01   -0.76341E-03  4857   0.861E-02    0.368E-02
RMM:   6    -0.413164443227E+03   -0.99789E-04   -0.12997E-03  5792   0.349E-02    0.252E-02
RMM:   7    -0.413164449669E+03   -0.64420E-05   -0.23861E-04  5681   0.140E-02    0.142E-02
RMM:   8    -0.413164452598E+03   -0.29280E-05   -0.28183E-05  4443   0.569E-03    0.599E-03
RMM:   9    -0.413164456844E+03   -0.42464E-05   -0.58994E-06  3038   0.269E-03    0.474E-03
RMM:  10    -0.413164461950E+03   -0.51058E-05   -0.13514E-06  2533   0.175E-03    0.294E-03
RMM:  11    -0.413164468516E+03   -0.65667E-05   -0.12380E-06  2522   0.159E-03    0.128E-03
RMM:  12    -0.413164474452E+03   -0.59353E-05   -0.96028E-07  2419   0.135E-03    0.582E-04
RMM:  13    -0.413164475130E+03   -0.67795E-06   -0.39395E-07  1928   0.897E-04
    2 T=    61. E= -.41286674E+03 F= -.41316448E+03 E0= -.41314197E+03  EK= 0.29773E+00 SP= 0.00E+00 SK= 0.00E+00
       N       E                     dE             d eps       ncg     rms          rms(c)
RMM:   1    -0.413159060664E+03    0.54138E-02   -0.10400E+01  4184   0.675E-01    0.908E-01
RMM:   2    -0.413166982578E+03   -0.79219E-02   -0.12509E-01  3936   0.934E-02    0.638E-01
RMM:   3    -0.413165206007E+03    0.17766E-02   -0.91655E-03  4815   0.385E-02    0.139E-01
RMM:   4    -0.413188482727E+03   -0.23277E-01   -0.23843E-02  5185   0.129E-01    0.637E-01
RMM:   5    -0.413164879256E+03    0.23603E-01   -0.11502E-02  4833   0.107E-01    0.414E-02
RMM:   6    -0.413165032480E+03   -0.15322E-03   -0.19421E-03  5809   0.429E-02    0.270E-02
RMM:   7    -0.413165033248E+03   -0.76845E-06   -0.30407E-04  5766   0.160E-02    0.169E-02
RMM:   8    -0.413165029243E+03    0.40055E-05   -0.48719E-05  4971   0.733E-03    0.788E-03
RMM:   9    -0.413165028351E+03    0.89230E-06   -0.98530E-06  3588   0.355E-03
    3 T=    61. E= -.41286707E+03 F= -.41316503E+03 E0= -.41314253E+03  EK= 0.29796E+00 SP= 0.00E+00 SK= 0.00E+00
       N       E                     dE             d eps       ncg     rms          rms(c)
RMM:   1    -0.413158519163E+03    0.65101E-02   -0.10315E+01  4222   0.676E-01    0.892E-01
RMM:   2    -0.413166873630E+03   -0.83545E-02   -0.12431E-01  4338   0.960E-02    0.632E-01
RMM:   3    -0.413173111909E+03   -0.62383E-02   -0.15604E-02  5194   0.905E-02    0.406E-01
RMM:   4    -0.413182019131E+03   -0.89072E-02   -0.34463E-02  5093   0.161E-01    0.547E-01
RMM:   5    -0.413164867485E+03    0.17152E-01   -0.60175E-03  4643   0.916E-02    0.566E-02
RMM:   6    -0.413164797934E+03    0.69551E-04   -0.11944E-03  5289   0.350E-02    0.262E-02
RMM:   7    -0.413164814084E+03   -0.16150E-04   -0.26553E-04  5985   0.160E-02    0.166E-02
RMM:   8    -0.413164811598E+03    0.24858E-05   -0.50540E-05  5205   0.814E-03    0.686E-03
RMM:   9    -0.413164810646E+03    0.95200E-06   -0.10707E-05  3940   0.408E-03    0.367E-03
RMM:  10    -0.413164811721E+03   -0.10746E-05   -0.12357E-06  2527   0.194E-03    0.227E-03
RMM:  11    -0.413164813784E+03   -0.20631E-05   -0.12206E-06  2525   0.176E-03    0.139E-03
RMM:  12    -0.413164814956E+03   -0.11717E-05   -0.59016E-07  2432   0.124E-03    0.488E-04
RMM:  13    -0.413164815746E+03   -0.79016E-06   -0.29862E-07  1637   0.819E-04
    4 T=    61. E= -.41286691E+03 F= -.41316482E+03 E0= -.41314233E+03  EK= 0.29791E+00 SP= 0.00E+00 SK= 0.00E+00
       N       E                     dE             d eps       ncg     rms          rms(c)
RMM:   1    -0.413158419123E+03    0.63958E-02   -0.10363E+01  4237   0.682E-01    0.883E-01
RMM:   2    -0.413167413356E+03   -0.89942E-02   -0.12728E-01  4040   0.944E-02    0.643E-01
RMM:   3    -0.413165267241E+03    0.21461E-02   -0.91151E-03  4887   0.414E-02    0.136E-01
RMM:   4    -0.413194932713E+03   -0.29665E-01   -0.30631E-02  5161   0.146E-01    0.718E-01
RMM:   5    -0.413164764095E+03    0.30169E-01   -0.14609E-02  4816   0.120E-01    0.434E-02
RMM:   6    -0.413164955316E+03   -0.19122E-03   -0.24492E-03  5756   0.478E-02    0.267E-02
RMM:   7    -0.413164967516E+03   -0.12200E-04   -0.35399E-04  5833   0.164E-02    0.174E-02
RMM:   8    -0.413164969867E+03   -0.23510E-05   -0.53521E-05  5001   0.746E-03    0.813E-03
RMM:   9    -0.413164972174E+03   -0.23073E-05   -0.11443E-05  3729   0.377E-03    0.598E-03
RMM:  10    -0.413164976473E+03   -0.42988E-05   -0.16788E-06  2561   0.199E-03    0.393E-03
RMM:  11    -0.413164982333E+03   -0.58602E-05   -0.15697E-06  2557   0.189E-03    0.178E-03
RMM:  12    -0.413164987917E+03   -0.55839E-05   -0.13467E-06  2532   0.168E-03    0.758E-04
RMM:  13    -0.413164988299E+03   -0.38167E-06   -0.36132E-07  2149   0.103E-03
    5 T=    61. E= -.41286696E+03 F= -.41316499E+03 E0= -.41314251E+03  EK= 0.29803E+00 SP= 0.00E+00 SK= 0.00E+00
       N       E                     dE             d eps       ncg     rms          rms(c)
RMM:   1    -0.413159335966E+03    0.56520E-02   -0.10397E+01  4251   0.687E-01    0.904E-01
RMM:   2    -0.413167467675E+03   -0.81317E-02   -0.12531E-01  4087   0.950E-02    0.640E-01
RMM:   3    -0.413165612523E+03    0.18552E-02   -0.91150E-03  4747   0.396E-02    0.134E-01
RMM:   4    -0.413186755098E+03   -0.21143E-01   -0.21517E-02  5158   0.122E-01    0.609E-01
RMM:   5    -0.413165278093E+03    0.21477E-01   -0.10535E-02  4832   0.101E-01    0.398E-02
RMM:   6    -0.413165415546E+03   -0.13745E-03   -0.17676E-03  5811   0.403E-02    0.255E-02
RMM:   7    -0.413165418764E+03   -0.32181E-05   -0.27504E-04  5727   0.154E-02    0.163E-02
RMM:   8    -0.413165414205E+03    0.45588E-05   -0.47657E-05  4895   0.729E-03    0.779E-03
RMM:   9    -0.413165413108E+03    0.10972E-05   -0.94986E-06  3572   0.354E-03    0.611E-03
RMM:  10    -0.413165413724E+03   -0.61569E-06   -0.13673E-06  2538   0.195E-03
    6 T=    61. E= -.41286709E+03 F= -.41316541E+03 E0= -.41314295E+03  EK= 0.29832E+00 SP= 0.00E+00 SK= 0.00E+00
       N       E                     dE             d eps       ncg     rms          rms(c)
RMM:   1    -0.413159043377E+03    0.63697E-02   -0.10343E+01  4257   0.689E-01    0.899E-01
RMM:   2    -0.413167108778E+03   -0.80654E-02   -0.12454E-01  4169   0.938E-02    0.633E-01
RMM:   3    -0.413167481297E+03   -0.37252E-03   -0.10703E-02  5098   0.595E-02    0.239E-01
RMM:   4    -0.413201772708E+03   -0.34291E-01   -0.44925E-02  5137   0.178E-01    0.790E-01
RMM:   5    -0.413165046723E+03    0.36726E-01   -0.16319E-02  4771   0.131E-01    0.564E-02
RMM:   6    -0.413165173055E+03   -0.12633E-03   -0.27269E-03  5620   0.520E-02    0.271E-02
RMM:   7    -0.413165191875E+03   -0.18820E-04   -0.40126E-04  6040   0.168E-02    0.173E-02
RMM:   8    -0.413165190443E+03    0.14321E-05   -0.65718E-05  5271   0.841E-03    0.790E-03
RMM:   9    -0.413165186882E+03    0.35608E-05   -0.10988E-05  3555   0.374E-03    0.390E-03
RMM:  10    -0.413165186930E+03   -0.48258E-07   -0.25732E-06  2620   0.223E-03
    7 T=    61. E= -.41286676E+03 F= -.41316519E+03 E0= -.41314274E+03  EK= 0.29842E+00 SP= 0.00E+00 SK= 0.00E+00
       N       E                     dE             d eps       ncg     rms          rms(c)
RMM:   1    -0.413159296548E+03    0.58903E-02   -0.10348E+01  4265   0.699E-01    0.882E-01
RMM:   2    -0.413168119216E+03   -0.88227E-02   -0.12675E-01  4141   0.943E-02    0.641E-01
RMM:   3    -0.413166999590E+03    0.11196E-02   -0.97929E-03  5057   0.522E-02    0.189E-01
RMM:   4    -0.413209836583E+03   -0.42837E-01   -0.48878E-02  5147   0.184E-01    0.864E-01
RMM:   5    -0.413165511880E+03    0.44325E-01   -0.20655E-02  4800   0.144E-01    0.527E-02
RMM:   6    -0.413165720594E+03   -0.20871E-03   -0.33264E-03  5732   0.572E-02    0.273E-02
RMM:   7    -0.413165742448E+03   -0.21854E-04   -0.46074E-04  5994   0.181E-02    0.188E-02
RMM:   8    -0.413165745450E+03   -0.30021E-05   -0.73283E-05  5246   0.849E-03    0.912E-03
RMM:   9    -0.413165745579E+03   -0.12911E-06   -0.14247E-05  3897   0.412E-03    0.517E-03
RMM:  10    -0.413165749024E+03   -0.34450E-05   -0.27357E-06  2632   0.221E-03    0.350E-03
RMM:  11    -0.413165752372E+03   -0.33477E-05   -0.12002E-06  2521   0.169E-03    0.178E-03
RMM:  12    -0.413165756067E+03   -0.36952E-05   -0.11765E-06  2531   0.158E-03    0.518E-04
RMM:  13    -0.413165757415E+03   -0.13474E-05   -0.51012E-07  2208   0.112E-03    0.435E-04
RMM:  14    -0.413165757425E+03   -0.10597E-07   -0.21832E-07  1651   0.798E-04
    8 T=    61. E= -.41286701E+03 F= -.41316576E+03 E0= -.41314333E+03  EK= 0.29875E+00 SP= 0.00E+00 SK= 0.00E+00
       N       E                     dE             d eps       ncg     rms          rms(c)
RMM:   1    -0.413159740801E+03    0.60166E-02   -0.10400E+01  4283   0.702E-01    0.898E-01
RMM:   2    -0.413168234208E+03   -0.84934E-02   -0.12615E-01  4170   0.955E-02    0.643E-01
RMM:   3    -0.413166294695E+03    0.19395E-02   -0.92170E-03  4851   0.415E-02    0.139E-01
RMM:   4    -0.413194569962E+03   -0.28275E-01   -0.29181E-02  5153   0.142E-01    0.702E-01
RMM:   5    -0.413165780754E+03    0.28789E-01   -0.14067E-02  4808   0.117E-01    0.435E-02
RMM:   6    -0.413165965561E+03   -0.18481E-03   -0.23703E-03  5769   0.468E-02    0.276E-02
RMM:   7    -0.413165970965E+03   -0.54040E-05   -0.34623E-04  5783   0.165E-02    0.176E-02
RMM:   8    -0.413165967922E+03    0.30428E-05   -0.52841E-05  5000   0.752E-03    0.832E-03
RMM:   9    -0.413165966559E+03    0.13638E-05   -0.11059E-05  3701   0.375E-03    0.616E-03
RMM:  10    -0.413165967346E+03   -0.78761E-06   -0.15707E-06  2553   0.197E-03
    9 T=    61. E= -.41286697E+03 F= -.41316597E+03 E0= -.41314356E+03  EK= 0.29900E+00 SP= 0.00E+00 SK= 0.00E+00
       N       E                     dE             d eps       ncg     rms          rms(c)
RMM:   1    -0.413160064061E+03    0.59025E-02   -0.10379E+01  4295   0.703E-01    0.906E-01
RMM:   2    -0.413167900197E+03   -0.78361E-02   -0.12465E-01  4254   0.944E-02    0.635E-01
RMM:   3    -0.413168668253E+03   -0.76806E-03   -0.11134E-02  5084   0.639E-02    0.253E-01
RMM:   4    -0.413200368957E+03   -0.31701E-01   -0.43637E-02  5123   0.175E-01    0.767E-01
RMM:   5    -0.413165893913E+03    0.34475E-01   -0.15069E-02  4752   0.127E-01    0.559E-02
RMM:   6    -0.413166010680E+03   -0.11677E-03   -0.25694E-03  5618   0.503E-02    0.273E-02
RMM:   7    -0.413166023988E+03   -0.13308E-04   -0.37635E-04  6012   0.166E-02    0.173E-02
RMM:   8    -0.413166020391E+03    0.35965E-05   -0.63390E-05  5254   0.837E-03    0.781E-03
RMM:   9    -0.413166015565E+03    0.48260E-05   -0.10364E-05  3485   0.370E-03    0.384E-03
RMM:  10    -0.413166014402E+03    0.11631E-05   -0.23942E-06  2601   0.220E-03    0.268E-03
RMM:  11    -0.413166012690E+03    0.17122E-05   -0.12166E-06  2518   0.173E-03    0.139E-03
RMM:  12    -0.413166010861E+03    0.18287E-05   -0.74600E-07  2455   0.136E-03    0.442E-04
RMM:  13    -0.413166010017E+03    0.84461E-06   -0.36262E-07  2025   0.971E-04
   10 T=    61. E= -.41286681E+03 F= -.41316601E+03 E0= -.41314362E+03  EK= 0.29920E+00 SP= 0.00E+00 SK= 0.00E+00
       N       E                     dE             d eps       ncg     rms          rms(c)
RMM:   1    -0.413160354303E+03    0.56566E-02   -0.10332E+01  4290   0.712E-01    0.883E-01
RMM:   2    -0.413169005921E+03   -0.86516E-02   -0.12609E-01  4207   0.949E-02    0.638E-01
RMM:   3    -0.413167129999E+03    0.18759E-02   -0.90414E-03  4873   0.429E-02    0.140E-01
RMM:   4    -0.413197934213E+03   -0.30804E-01   -0.31963E-02  5144   0.148E-01    0.732E-01
RMM:   5    -0.413166540035E+03    0.31394E-01   -0.15244E-02  4799   0.122E-01    0.442E-02
RMM:   6    -0.413166737874E+03   -0.19784E-03   -0.25711E-03  5769   0.486E-02    0.274E-02
RMM:   7    -0.413166744909E+03   -0.70354E-05   -0.36325E-04  5782   0.168E-02    0.179E-02
RMM:   8    -0.413166742685E+03    0.22246E-05   -0.58680E-05  5022   0.781E-03    0.872E-03
RMM:   9    -0.413166741393E+03    0.12920E-05   -0.12279E-05  3824   0.395E-03    0.633E-03
RMM:  10    -0.413166742651E+03   -0.12585E-05   -0.18185E-06  2571   0.204E-03    0.414E-03
RMM:  11    -0.413166744510E+03   -0.18593E-05   -0.17344E-06  2569   0.201E-03    0.183E-03
RMM:  12    -0.413166745987E+03   -0.14764E-05   -0.12884E-06  2514   0.170E-03    0.749E-04
RMM:  13    -0.413166746078E+03   -0.91462E-07   -0.36914E-07  2169   0.105E-03
   11 T=    61. E= -.41286711E+03 F= -.41316675E+03 E0= -.41314439E+03  EK= 0.29963E+00 SP= 0.00E+00 SK= 0.00E+00
       N       E                     dE             d eps       ncg     rms          rms(c)
RMM:   1    -0.413160438819E+03    0.63072E-02   -0.10407E+01  4294   0.719E-01    0.894E-01
RMM:   2    -0.413169045750E+03   -0.86069E-02   -0.12713E-01  4232   0.957E-02    0.645E-01
RMM:   3    -0.413166925864E+03    0.21199E-02   -0.91829E-03  4800   0.409E-02    0.132E-01
RMM:   4    -0.413191791079E+03   -0.24865E-01   -0.25533E-02  5147   0.133E-01    0.659E-01
RMM:   5    -0.413166532537E+03    0.25259E-01   -0.12365E-02  4811   0.109E-01    0.410E-02
RMM:   6    -0.413166695841E+03   -0.16330E-03   -0.20835E-03  5815   0.434E-02    0.258E-02
RMM:   7    -0.413166702571E+03   -0.67293E-05   -0.29441E-04  5752   0.157E-02    0.165E-02
RMM:   8    -0.413166699787E+03    0.27839E-05   -0.54248E-05  4962   0.761E-03    0.833E-03
RMM:   9    -0.413166698376E+03    0.14111E-05   -0.11026E-05  3750   0.382E-03    0.631E-03
RMM:  10    -0.413166699414E+03   -0.10379E-05   -0.14828E-06  2543   0.198E-03    0.411E-03
RMM:  11    -0.413166700942E+03   -0.15283E-05   -0.17257E-06  2570   0.202E-03    0.184E-03
RMM:  12    -0.413166701994E+03   -0.10521E-05   -0.11204E-06  2495   0.162E-03    0.690E-04
RMM:  13    -0.413166702061E+03   -0.67259E-07   -0.34528E-07  2105   0.100E-03
   12 T=    61. E= -.41286679E+03 F= -.41316670E+03 E0= -.41314437E+03  EK= 0.29991E+00 SP= 0.00E+00 SK= 0.00E+00
       N       E                     dE             d eps       ncg     rms          rms(c)
RMM:   1    -0.413161425363E+03    0.52766E-02   -0.10411E+01  4291   0.716E-01    0.911E-01
RMM:   2    -0.413169084020E+03   -0.76587E-02   -0.12497E-01  4231   0.925E-02    0.637E-01
RMM:   3    -0.413167566746E+03    0.15173E-02   -0.93044E-03  4850   0.386E-02    0.143E-01
RMM:   4    -0.413193438739E+03   -0.25872E-01   -0.26648E-02  5145   0.135E-01    0.672E-01
RMM:   5    -0.413167124968E+03    0.26314E-01   -0.12926E-02  4806   0.112E-01    0.430E-02
RMM:   6    -0.413167287992E+03   -0.16302E-03   -0.21730E-03  5813   0.445E-02    0.275E-02
RMM:   7    -0.413167287393E+03    0.59913E-06   -0.31750E-04  5714   0.164E-02    0.174E-02
RMM:   8    -0.413167278855E+03    0.85375E-05   -0.55349E-05  4969   0.777E-03    0.861E-03
RMM:   9    -0.413167274088E+03    0.47678E-05   -0.11289E-05  3763   0.383E-03    0.655E-03
RMM:  10    -0.413167271276E+03    0.28118E-05   -0.15218E-06  2547   0.201E-03    0.420E-03
RMM:  11    -0.413167267750E+03    0.35257E-05   -0.15096E-06  2539   0.193E-03    0.197E-03
RMM:  12    -0.413167263785E+03    0.39646E-05   -0.12541E-06  2518   0.170E-03    0.732E-04
RMM:  13    -0.413167263228E+03    0.55718E-06   -0.37560E-07  2183   0.106E-03
   13 T=    61. E= -.41286679E+03 F= -.41316726E+03 E0= -.41314496E+03  EK= 0.30047E+00 SP= 0.00E+00 SK= 0.00E+00
       N       E                     dE             d eps       ncg     rms          rms(c)
RMM:   1    -0.413161581503E+03    0.56823E-02   -0.10337E+01  4293   0.718E-01    0.886E-01
RMM:   2    -0.413170154195E+03   -0.85727E-02   -0.12595E-01  4242   0.943E-02    0.637E-01
RMM:   3    -0.413168220767E+03    0.19334E-02   -0.89916E-03  4813   0.403E-02    0.136E-01
RMM:   4    -0.413193425428E+03   -0.25205E-01   -0.25937E-02  5139   0.134E-01    0.663E-01
RMM:   5    -0.413167802369E+03    0.25623E-01   -0.12566E-02  4810   0.110E-01    0.416E-02
RMM:   6    -0.413167964366E+03   -0.16200E-03   -0.21223E-03  5806   0.436E-02    0.262E-02
RMM:   7    -0.413167968916E+03   -0.45507E-05   -0.30000E-04  5742   0.158E-02    0.168E-02
RMM:   8    -0.413167964018E+03    0.48988E-05   -0.55358E-05  4967   0.769E-03    0.838E-03
RMM:   9    -0.413167961290E+03    0.27272E-05   -0.11293E-05  3781   0.385E-03    0.638E-03
RMM:  10    -0.413167960960E+03    0.33046E-06   -0.14818E-06  2538   0.198E-03
   14 T=    61. E= -.41286689E+03 F= -.41316796E+03 E0= -.41314569E+03  EK= 0.30107E+00 SP= 0.00E+00 SK= 0.00E+00
       N       E                     dE             d eps       ncg     rms          rms(c)
RMM:   1    -0.413161701112E+03    0.62602E-02   -0.10425E+01  4303   0.727E-01    0.891E-01
RMM:   2    -0.413170513896E+03   -0.88128E-02   -0.12801E-01  4284   0.967E-02    0.648E-01
RMM:   3    -0.413170746425E+03   -0.23253E-03   -0.11268E-02  5091   0.634E-02    0.252E-01
RMM:   4    -0.413206605139E+03   -0.35859E-01   -0.48723E-02  5113   0.185E-01    0.810E-01
RMM:   5    -0.413167793957E+03    0.38811E-01   -0.17036E-02  4751   0.134E-01    0.560E-02
RMM:   6    -0.413167923653E+03   -0.12970E-03   -0.28256E-03  5644   0.526E-02    0.260E-02
RMM:   7    -0.413167944435E+03   -0.20783E-04   -0.39974E-04  6011   0.168E-02    0.172E-02
RMM:   8    -0.413167945897E+03   -0.14618E-05   -0.67214E-05  5257   0.844E-03    0.803E-03
RMM:   9    -0.413167943922E+03    0.19756E-05   -0.11797E-05  3620   0.385E-03    0.377E-03
RMM:  10    -0.413167945322E+03   -0.13999E-05   -0.26435E-06  2616   0.222E-03    0.266E-03
RMM:  11    -0.413167946633E+03   -0.13112E-05   -0.12327E-06  2515   0.172E-03    0.139E-03
RMM:  12    -0.413167947352E+03   -0.71971E-06   -0.77406E-07  2454   0.136E-03
   15 T=    61. E= -.41286656E+03 F= -.41316795E+03 E0= -.41314571E+03  EK= 0.30139E+00 SP= 0.00E+00 SK= 0.00E+00
       N       E                     dE             d eps       ncg     rms          rms(c)
RMM:   1    -0.413163162270E+03    0.47844E-02   -0.10441E+01  4294   0.728E-01    0.913E-01
RMM:   2    -0.413171010227E+03   -0.78480E-02   -0.12575E-01  4261   0.961E-02    0.641E-01
RMM:   3    -0.413169470830E+03    0.15394E-02   -0.95729E-03  4925   0.436E-02    0.155E-01
RMM:   4    -0.413204293898E+03   -0.34823E-01   -0.36580E-02  5141   0.159E-01    0.777E-01
RMM:   5    -0.413168777465E+03    0.35516E-01   -0.17291E-02  4798   0.130E-01    0.473E-02
RMM:   6    -0.413168981142E+03   -0.20368E-03   -0.28581E-03  5776   0.518E-02    0.296E-02
RMM:   7    -0.413168982074E+03   -0.93130E-06   -0.40119E-04  5805   0.179E-02    0.192E-02
RMM:   8    -0.413168973981E+03    0.80932E-05   -0.67032E-05  5096   0.836E-03    0.961E-03
RMM:   9    -0.413168967540E+03    0.64402E-05   -0.13778E-05  4001   0.417E-03    0.677E-03
RMM:  10    -0.413168963885E+03    0.36554E-05   -0.19800E-06  2577   0.212E-03    0.436E-03
RMM:  11    -0.413168960007E+03    0.38776E-05   -0.14828E-06  2537   0.190E-03    0.213E-03
RMM:  12    -0.413168954868E+03    0.51393E-05   -0.14637E-06  2535   0.184E-03    0.792E-04
RMM:  13    -0.413168953780E+03    0.10879E-05   -0.43375E-07  2273   0.116E-03    0.532E-04
RMM:  14    -0.413168953649E+03    0.13142E-06   -0.20173E-07  1730   0.801E-04
   16 T=    61. E= -.41286693E+03 F= -.41316895E+03 E0= -.41314676E+03  EK= 0.30202E+00 SP= 0.00E+00 SK= 0.00E+00
       N       E                     dE             d eps       ncg     rms          rms(c)
RMM:   1    -0.413163190687E+03    0.57631E-02   -0.10357E+01  4300   0.728E-01    0.893E-01
RMM:   2    -0.413171628591E+03   -0.84379E-02   -0.12591E-01  4261   0.958E-02    0.637E-01
RMM:   3    -0.413169770310E+03    0.18583E-02   -0.91008E-03  4865   0.414E-02    0.143E-01
RMM:   4    -0.413199239592E+03   -0.29469E-01   -0.30552E-02  5141   0.145E-01    0.716E-01
RMM:   5    -0.413169266717E+03    0.29973E-01   -0.14717E-02  4800   0.119E-01    0.442E-02
RMM:   6    -0.413169444463E+03   -0.17775E-03   -0.24270E-03  5792   0.475E-02    0.281E-02
RMM:   7    -0.413169444851E+03   -0.38827E-06   -0.35231E-04  5745   0.168E-02    0.179E-02
RMM:   8    -0.413169438174E+03    0.66775E-05   -0.57986E-05  5010   0.786E-03    0.867E-03
RMM:   9    -0.413169433704E+03    0.44697E-05   -0.11954E-05  3800   0.391E-03    0.633E-03
RMM:  10    -0.413169431574E+03    0.21298E-05   -0.16277E-06  2548   0.200E-03    0.410E-03
RMM:  11    -0.413169428808E+03    0.27659E-05   -0.15618E-06  2538   0.196E-03    0.181E-03
RMM:  12    -0.413169425921E+03    0.28872E-05   -0.11847E-06  2503   0.167E-03    0.751E-04
RMM:  13    -0.413169425563E+03    0.35811E-06   -0.35508E-07  2170   0.104E-03
   17 T=    62. E= -.41286688E+03 F= -.41316943E+03 E0= -.41314727E+03  EK= 0.30254E+00 SP= 0.00E+00 SK= 0.00E+00
       N       E                     dE             d eps       ncg     rms          rms(c)
RMM:   1    -0.413163755036E+03    0.56709E-02   -0.10434E+01  4299   0.744E-01    0.889E-01
RMM:   2    -0.413172506080E+03   -0.87510E-02   -0.12893E-01  4267   0.998E-02    0.649E-01
RMM:   3    -0.413170276101E+03    0.22300E-02   -0.93434E-03  4845   0.425E-02    0.135E-01
RMM:   4    -0.413198924811E+03   -0.28649E-01   -0.29718E-02  5139   0.143E-01    0.706E-01
RMM:   5    -0.413169762880E+03    0.29162E-01   -0.14305E-02  4799   0.117E-01    0.428E-02
RMM:   6    -0.413169937805E+03   -0.17493E-03   -0.23854E-03  5797   0.467E-02    0.265E-02
RMM:   7    -0.413169944950E+03   -0.71453E-05   -0.32241E-04  5772   0.163E-02    0.170E-02
RMM:   8    -0.413169941627E+03    0.33235E-05   -0.61629E-05  5024   0.797E-03    0.890E-03
RMM:   9    -0.413169938734E+03    0.28931E-05   -0.12568E-05  3950   0.406E-03    0.650E-03
RMM:  10    -0.413169938964E+03   -0.23009E-06   -0.17484E-06  2562   0.203E-03
   18 T=    62. E= -.41286682E+03 F= -.41316994E+03 E0= -.41314782E+03  EK= 0.30312E+00 SP= 0.00E+00 SK= 0.00E+00
       N       E                     dE             d eps       ncg     rms          rms(c)
RMM:   1    -0.413165282625E+03    0.46561E-02   -0.10465E+01  4303   0.739E-01    0.912E-01
RMM:   2    -0.413173240992E+03   -0.79584E-02   -0.12680E-01  4311   0.971E-02    0.645E-01
RMM:   3    -0.413174360428E+03   -0.11194E-02   -0.11753E-02  5097   0.667E-02    0.271E-01
RMM:   4    -0.413204928120E+03   -0.30568E-01   -0.44645E-02  5103   0.177E-01    0.759E-01
RMM:   5    -0.413171078024E+03    0.33850E-01   -0.14612E-02  4738   0.126E-01    0.553E-02
RMM:   6    -0.413171175819E+03   -0.97795E-04   -0.25007E-03  5609   0.498E-02    0.275E-02
RMM:   7    -0.413171183583E+03   -0.77638E-05   -0.36693E-04  6000   0.165E-02    0.176E-02
RMM:   8    -0.413171177524E+03    0.60595E-05   -0.64173E-05  5218   0.842E-03    0.792E-03
RMM:   9    -0.413171170454E+03    0.70691E-05   -0.10619E-05  3539   0.377E-03    0.381E-03
RMM:  10    -0.413171167835E+03    0.26190E-05   -0.23015E-06  2581   0.218E-03    0.266E-03
RMM:  11    -0.413171164058E+03    0.37771E-05   -0.11404E-06  2513   0.171E-03    0.140E-03
RMM:  12    -0.413171160306E+03    0.37523E-05   -0.66123E-07  2439   0.133E-03    0.434E-04
RMM:  13    -0.413171158523E+03    0.17830E-05   -0.32502E-07  1993   0.951E-04    0.272E-04
RMM:  14    -0.413171157044E+03    0.14794E-05   -0.18928E-07  1497   0.771E-04    0.190E-04
RMM:  15    -0.413171154469E+03    0.25747E-05   -0.15914E-07  1338   0.727E-04    0.881E-05
RMM:  16    -0.413171152255E+03    0.22143E-05   -0.12676E-07  1381   0.691E-04    0.977E-05
RMM:  17    -0.413171149859E+03    0.23954E-05   -0.11022E-07  1355   0.657E-04    0.583E-05
RMM:  18    -0.413171148058E+03    0.18013E-05   -0.71948E-08  1084   0.584E-04    0.237E-05
RMM:  19    -0.413171147440E+03    0.61817E-06   -0.35558E-08   837   0.535E-04
   19 T=    62. E= -.41286716E+03 F= -.41317115E+03 E0= -.41314907E+03  EK= 0.30399E+00 SP= 0.00E+00 SK= 0.00E+00
       N       E                     dE             d eps       ncg     rms          rms(c)
RMM:   1    -0.413165511364E+03    0.56367E-02   -0.10404E+01  4298   0.741E-01    0.901E-01
RMM:   2    -0.413173478546E+03   -0.79672E-02   -0.12614E-01  4274   0.978E-02    0.638E-01
RMM:   3    -0.413172053912E+03    0.14246E-02   -0.94554E-03  4932   0.449E-02    0.160E-01
RMM:   4    -0.413209543977E+03   -0.37490E-01   -0.39932E-02  5138   0.166E-01    0.805E-01
RMM:   5    -0.413171246344E+03    0.38298E-01   -0.18649E-02  4789   0.135E-01    0.488E-02
RMM:   6    -0.413171451529E+03   -0.20519E-03   -0.30893E-03  5751   0.541E-02    0.300E-02
RMM:   7    -0.413171454043E+03   -0.25143E-05   -0.43309E-04  5792   0.182E-02    0.196E-02
RMM:   8    -0.413171446224E+03    0.78195E-05   -0.70223E-05  5168   0.852E-03    0.973E-03
RMM:   9    -0.413171439653E+03    0.65704E-05   -0.14947E-05  4106   0.429E-03    0.665E-03
RMM:  10    -0.413171436138E+03    0.35157E-05   -0.21431E-06  2587   0.215E-03    0.433E-03
RMM:  11    -0.413171432631E+03    0.35065E-05   -0.13683E-06  2513   0.185E-03    0.217E-03
RMM:  12    -0.413171427978E+03    0.46529E-05   -0.13926E-06  2528   0.182E-03    0.763E-04
RMM:  13    -0.413171426792E+03    0.11857E-05   -0.43833E-07  2287   0.118E-03    0.541E-04
RMM:  14    -0.413171426737E+03    0.55039E-07   -0.20567E-07  1761   0.808E-04
   20 T=    62. E= -.41286679E+03 F= -.41317143E+03 E0= -.41314939E+03  EK= 0.30464E+00 SP= 0.00E+00 SK= 0.00E+00
       N       E                     dE             d eps       ncg     rms          rms(c)
RMM:   1    -0.413167278725E+03    0.41481E-02   -0.10457E+01  4296   0.771E-01    0.889E-01
RMM:   2    -0.413175167217E+03   -0.78885E-02   -0.13049E-01  4280   0.996E-02    0.649E-01
RMM:   3    -0.413172896019E+03    0.22712E-02   -0.93896E-03  4863   0.433E-02    0.138E-01
RMM:   4    -0.413202923969E+03   -0.30028E-01   -0.31206E-02  5135   0.147E-01    0.722E-01
RMM:   5    -0.413172368235E+03    0.30556E-01   -0.15066E-02  4803   0.120E-01    0.439E-02
RMM:   6    -0.413172536854E+03   -0.16862E-03   -0.24487E-03  5781   0.482E-02    0.273E-02
RMM:   7    -0.413172544078E+03   -0.72247E-05   -0.34912E-04  5756   0.168E-02    0.176E-02
RMM:   8    -0.413172540248E+03    0.38305E-05   -0.61930E-05  5039   0.806E-03    0.886E-03
RMM:   9    -0.413172536799E+03    0.34484E-05   -0.12857E-05  3926   0.407E-03    0.639E-03
RMM:  10    -0.413172536273E+03    0.52688E-06   -0.17594E-06  2561   0.203E-03
   21 T=    62. E= -.41286697E+03 F= -.41317254E+03 E0= -.41315055E+03  EK= 0.30557E+00 SP= 0.00E+00 SK= 0.00E+00
       N       E                     dE             d eps       ncg     rms          rms(c)
RMM:   1    -0.413167817992E+03    0.47188E-02   -0.10504E+01  4298   0.756E-01    0.909E-01
RMM:   2    -0.413175964534E+03   -0.81465E-02   -0.12823E-01  4304   0.978E-02    0.649E-01
RMM:   3    -0.413176526628E+03   -0.56209E-03   -0.11575E-02  5076   0.650E-02    0.258E-01
RMM:   4    -0.413210562662E+03   -0.34036E-01   -0.47184E-02  5110   0.182E-01    0.792E-01
RMM:   5    -0.413173525142E+03    0.37038E-01   -0.16259E-02  4747   0.132E-01    0.555E-02
RMM:   6    -0.413173640519E+03   -0.11538E-03   -0.27582E-03  5638   0.523E-02    0.278E-02
RMM:   7    -0.413173650215E+03   -0.96967E-05   -0.39687E-04  5990   0.171E-02    0.182E-02
RMM:   8    -0.413173644563E+03    0.56524E-05   -0.67926E-05  5203   0.861E-03    0.828E-03
RMM:   9    -0.413173637534E+03    0.70294E-05   -0.11823E-05  3661   0.393E-03    0.402E-03
RMM:  10    -0.413173634924E+03    0.26101E-05   -0.25012E-06  2602   0.222E-03    0.281E-03
RMM:  11    -0.413173631358E+03    0.35659E-05   -0.11051E-06  2502   0.169E-03    0.143E-03
RMM:  12    -0.413173627478E+03    0.38801E-05   -0.68035E-07  2444   0.135E-03    0.410E-04
RMM:  13    -0.413173625514E+03    0.19637E-05   -0.33620E-07  2015   0.969E-04    0.263E-04
RMM:  14    -0.413173623981E+03    0.15326E-05   -0.19007E-07  1517   0.770E-04    0.159E-04
RMM:  15    -0.413173620961E+03    0.30209E-05   -0.16424E-07  1396   0.737E-04    0.103E-04
RMM:  16    -0.413173619218E+03    0.17424E-05   -0.10790E-07  1297   0.670E-04    0.102E-04
RMM:  17    -0.413173617030E+03    0.21877E-05   -0.93156E-08  1303   0.643E-04    0.579E-05
RMM:  18    -0.413173615103E+03    0.19273E-05   -0.65420E-08  1094   0.591E-04    0.279E-05
RMM:  19    -0.413173614483E+03    0.62005E-06   -0.31635E-08   821   0.537E-04
   22 T=    62. E= -.41286708E+03 F= -.41317361E+03 E0= -.41315167E+03  EK= 0.30654E+00 SP= 0.00E+00 SK= 0.00E+00
       N       E                     dE             d eps       ncg     rms          rms(c)
RMM:   1    -0.413168506659E+03    0.51084E-02   -0.10475E+01  4295   0.755E-01    0.911E-01
RMM:   2    -0.413176603380E+03   -0.80967E-02   -0.12716E-01  4281   0.998E-02    0.642E-01
RMM:   3    -0.413174835412E+03    0.17680E-02   -0.96531E-03  4873   0.466E-02    0.154E-01
RMM:   4    -0.413209227746E+03   -0.34392E-01   -0.36075E-02  5143   0.157E-01    0.772E-01
RMM:   5    -0.413174178605E+03    0.35049E-01   -0.17216E-02  4793   0.129E-01    0.474E-02
RMM:   6    -0.413174373098E+03   -0.19449E-03   -0.29051E-03  5762   0.521E-02    0.299E-02
RMM:   7    -0.413174374133E+03   -0.10354E-05   -0.40043E-04  5754   0.180E-02    0.191E-02
RMM:   8    -0.413174364693E+03    0.94398E-05   -0.71841E-05  5117   0.863E-03    0.101E-02
RMM:   9    -0.413174356776E+03    0.79173E-05   -0.14494E-05  4117   0.433E-03    0.712E-03
RMM:  10    -0.413174351988E+03    0.47882E-05   -0.20703E-06  2576   0.217E-03    0.461E-03
RMM:  11    -0.413174347138E+03    0.48494E-05   -0.14904E-06  2523   0.193E-03    0.233E-03
RMM:  12    -0.413174340732E+03    0.64061E-05   -0.14114E-06  2512   0.188E-03    0.772E-04
RMM:  13    -0.413174339118E+03    0.16146E-05   -0.46207E-07  2289   0.120E-03    0.541E-04
RMM:  14    -0.413174338967E+03    0.15067E-06   -0.22047E-07  1807   0.830E-04
   23 T=    63. E= -.41286694E+03 F= -.41317434E+03 E0= -.41315244E+03  EK= 0.30740E+00 SP= 0.00E+00 SK= 0.00E+00
       N       E                     dE             d eps       ncg     rms          rms(c)
RMM:   1    -0.413173925799E+03    0.41332E-03   -0.10514E+01  4296   0.810E-01    0.890E-01
RMM:   2    -0.413178704419E+03   -0.47786E-02   -0.13519E-01  4285   0.106E-01    0.649E-01
RMM:   3    -0.413176080528E+03    0.26239E-02   -0.91254E-03  4678   0.435E-02    0.135E-01
RMM:   4    -0.413196045534E+03   -0.19965E-01   -0.20460E-02  5147   0.119E-01    0.591E-01
RMM:   5    -0.413175799847E+03    0.20246E-01   -0.10107E-02  4813   0.983E-02    0.394E-02
RMM:   6    -0.413175905913E+03   -0.10607E-03   -0.16467E-03  5811   0.387E-02    0.240E-02
RMM:   7    -0.413175907820E+03   -0.19072E-05   -0.21577E-04  5729   0.141E-02    0.133E-02
RMM:   8    -0.413175904587E+03    0.32324E-05   -0.49873E-05  4947   0.720E-03    0.830E-03
RMM:   9    -0.413175900162E+03    0.44254E-05   -0.99843E-06  3767   0.373E-03    0.618E-03
RMM:  10    -0.413175898762E+03    0.14003E-05   -0.13323E-06  2531   0.196E-03    0.399E-03
RMM:  11    -0.413175896450E+03    0.23122E-05   -0.16056E-06  2530   0.203E-03    0.184E-03
RMM:  12    -0.413175894082E+03    0.23678E-05   -0.90012E-07  2440   0.154E-03    0.647E-04
RMM:  13    -0.413175893664E+03    0.41782E-06   -0.31600E-07  2048   0.965E-04
   24 T=    63. E= -.41286731E+03 F= -.41317589E+03 E0= -.41315405E+03  EK= 0.30859E+00 SP= 0.00E+00 SK= 0.00E+00
       N       E                     dE             d eps       ncg     rms          rms(c)
RMM:   1    -0.413173517969E+03    0.23761E-02   -0.10580E+01  4296   0.806E-01    0.907E-01
RMM:   2    -0.413179474950E+03   -0.59570E-02   -0.13222E-01  4280   0.107E-01    0.654E-01
RMM:   3    -0.413176979395E+03    0.24956E-02   -0.94804E-03  4631   0.447E-02    0.130E-01
RMM:   4    -0.413193291466E+03   -0.16312E-01   -0.16738E-02  5141   0.108E-01    0.536E-01
RMM:   5    -0.413176737131E+03    0.16554E-01   -0.82604E-03  4818   0.889E-02    0.383E-02
RMM:   6    -0.413176812721E+03   -0.75590E-04   -0.13791E-03  5814   0.347E-02    0.226E-02
RMM:   7    -0.413176814826E+03   -0.21052E-05   -0.16737E-04  5645   0.125E-02    0.110E-02
RMM:   8    -0.413176807460E+03    0.73656E-05   -0.32596E-05  4782   0.589E-03    0.727E-03
RMM:   9    -0.413176806440E+03    0.10205E-05   -0.81745E-06  3517   0.332E-03    0.605E-03
RMM:  10    -0.413176803518E+03    0.29212E-05   -0.11178E-06  2517   0.191E-03    0.379E-03
RMM:  11    -0.413176799859E+03    0.36591E-05   -0.13535E-06  2512   0.188E-03    0.185E-03
RMM:  12    -0.413176796179E+03    0.36801E-05   -0.84289E-07  2432   0.148E-03    0.642E-04
RMM:  13    -0.413176795341E+03    0.83828E-06   -0.28569E-07  2025   0.932E-04
   25 T=    63. E= -.41286712E+03 F= -.41317680E+03 E0= -.41315500E+03  EK= 0.30967E+00 SP= 0.00E+00 SK= 0.00E+00
       N       E                     dE             d eps       ncg     rms          rms(c)
RMM:   1    -0.413172448935E+03    0.43472E-02   -0.10563E+01  4295   0.775E-01    0.921E-01
RMM:   2    -0.413180241925E+03   -0.77930E-02   -0.12847E-01  4278   0.103E-01    0.647E-01
RMM:   3    -0.413178234826E+03    0.20071E-02   -0.96589E-03  4521   0.439E-02    0.133E-01
RMM:   4    -0.413190143739E+03   -0.11909E-01   -0.12245E-02  5151   0.927E-02    0.459E-01
RMM:   5    -0.413178129317E+03    0.12014E-01   -0.60887E-03  4829   0.757E-02    0.377E-02
RMM:   6    -0.413178163733E+03   -0.34417E-04   -0.99964E-04  5829   0.296E-02    0.213E-02
RMM:   7    -0.413178160008E+03    0.37251E-05   -0.15039E-04  5563   0.123E-02    0.123E-02
RMM:   8    -0.413178147618E+03    0.12391E-04   -0.29474E-05  4687   0.588E-03    0.673E-03
RMM:   9    -0.413178144302E+03    0.33152E-05   -0.55848E-06  3086   0.296E-03    0.533E-03
RMM:  10    -0.413178139109E+03    0.51936E-05   -0.10308E-06  2496   0.183E-03    0.311E-03
RMM:  11    -0.413178132100E+03    0.70084E-05   -0.95602E-07  2485   0.162E-03    0.154E-03
RMM:  12    -0.413178125182E+03    0.69186E-05   -0.58352E-07  2348   0.126E-03    0.577E-04
RMM:  13    -0.413178123746E+03    0.14358E-05   -0.23416E-07  1856   0.847E-04    0.347E-04
RMM:  14    -0.413178122222E+03    0.15236E-05   -0.11845E-07  1306   0.682E-04    0.260E-04
RMM:  15    -0.413178116496E+03    0.57260E-05   -0.15592E-07  1725   0.755E-04    0.244E-04
RMM:  16    -0.413178115550E+03    0.94683E-06   -0.49206E-08   912   0.576E-04
   26 T=    63. E= -.41286711E+03 F= -.41317812E+03 E0= -.41315637E+03  EK= 0.31100E+00 SP= 0.00E+00 SK= 0.00E+00
       N       E                     dE             d eps       ncg     rms          rms(c)
RMM:   1    -0.413175334357E+03    0.27821E-02   -0.10539E+01  4292   0.806E-01    0.897E-01
RMM:   2    -0.413182327061E+03   -0.69927E-02   -0.13016E-01  4276   0.104E-01    0.649E-01
RMM:   3    -0.413180132044E+03    0.21950E-02   -0.95776E-03  4640   0.465E-02    0.131E-01
RMM:   4    -0.413199178546E+03   -0.19047E-01   -0.19430E-02  5149   0.116E-01    0.578E-01
RMM:   5    -0.413179875580E+03    0.19303E-01   -0.97200E-03  4821   0.957E-02    0.393E-02
RMM:   6    -0.413179961562E+03   -0.85982E-04   -0.15383E-03  5824   0.370E-02    0.237E-02
RMM:   7    -0.413179961717E+03   -0.15553E-06   -0.18211E-04  5559   0.132E-02    0.108E-02
RMM:   8    -0.413179956215E+03    0.55022E-05   -0.27846E-05  4537   0.542E-03    0.685E-03
RMM:   9    -0.413179953240E+03    0.29747E-05   -0.34207E-06  2703   0.226E-03    0.445E-03
RMM:  10    -0.413179951711E+03    0.15295E-05   -0.10567E-06  2501   0.158E-03    0.309E-03
RMM:  11    -0.413179947528E+03    0.41828E-05   -0.14885E-06  2523   0.198E-03    0.158E-03
RMM:  12    -0.413179945589E+03    0.19394E-05   -0.63306E-07  2360   0.137E-03    0.775E-04
RMM:  13    -0.413179945093E+03    0.49593E-06   -0.24556E-07  1909   0.878E-04
   27 T=    64. E= -.41286735E+03 F= -.41317995E+03 E0= -.41315825E+03  EK= 0.31259E+00 SP= 0.00E+00 SK= 0.00E+00
       N       E                     dE             d eps       ncg     rms          rms(c)
RMM:   1    -0.413182040087E+03   -0.20945E-02   -0.10707E+01  4292   0.848E-01    0.906E-01
RMM:   2    -0.413183687323E+03   -0.16472E-02   -0.13978E-01  4276   0.111E-01    0.661E-01
RMM:   3    -0.413181153675E+03    0.25336E-02   -0.95047E-03  4444   0.439E-02    0.131E-01
RMM:   4    -0.413188309651E+03   -0.71560E-02   -0.76989E-03  5144   0.745E-02    0.357E-01
RMM:   5    -0.413181090473E+03    0.72192E-02   -0.36215E-03  4820   0.586E-02    0.344E-02
RMM:   6    -0.413181108054E+03   -0.17581E-04   -0.65233E-04  5829   0.238E-02    0.198E-02
RMM:   7    -0.413181110348E+03   -0.22937E-05   -0.16333E-04  5386   0.128E-02    0.139E-02
RMM:   8    -0.413181096558E+03    0.13789E-04   -0.20348E-05  4387   0.558E-03    0.588E-03
RMM:   9    -0.413181095147E+03    0.14120E-05   -0.41649E-06  2901   0.262E-03    0.431E-03
RMM:  10    -0.413181092990E+03    0.21567E-05   -0.12857E-06  2489   0.189E-03    0.239E-03
RMM:  11    -0.413181090427E+03    0.25632E-05   -0.78480E-07  2461   0.150E-03    0.116E-03
RMM:  12    -0.413181088060E+03    0.23666E-05   -0.41846E-07  2227   0.108E-03    0.531E-04
RMM:  13    -0.413181086984E+03    0.10757E-05   -0.19412E-07  1646   0.780E-04    0.255E-04
RMM:  14    -0.413181085534E+03    0.14509E-05   -0.11968E-07  1279   0.689E-04    0.176E-04
RMM:  15    -0.413181082583E+03    0.29510E-05   -0.11840E-07  1334   0.691E-04    0.101E-04
RMM:  16    -0.413181082010E+03    0.57214E-06   -0.44218E-08   877   0.588E-04
   28 T=    64. E= -.41286702E+03 F= -.41318108E+03 E0= -.41315943E+03  EK= 0.31406E+00 SP= 0.00E+00 SK= 0.00E+00
       N       E                     dE             d eps       ncg     rms          rms(c)
RMM:   1    -0.413177576215E+03    0.35064E-02   -0.10675E+01  4290   0.797E-01    0.929E-01
RMM:   2    -0.413185259643E+03   -0.76834E-02   -0.13079E-01  4275   0.108E-01    0.653E-01
RMM:   3    -0.413183219269E+03    0.20404E-02   -0.10077E-02  4590   0.471E-02    0.137E-01
RMM:   4    -0.413198898111E+03   -0.15679E-01   -0.15953E-02  5149   0.106E-01    0.525E-01
RMM:   5    -0.413183052469E+03    0.15846E-01   -0.80084E-03  4820   0.867E-02    0.396E-02
RMM:   6    -0.413183111809E+03   -0.59340E-04   -0.13033E-03  5849   0.338E-02    0.238E-02
RMM:   7    -0.413183109153E+03    0.26565E-05   -0.18291E-04  5602   0.135E-02    0.127E-02
RMM:   8    -0.413183097363E+03    0.11789E-04   -0.34763E-05  4788   0.627E-03    0.743E-03
RMM:   9    -0.413183094349E+03    0.30140E-05   -0.78433E-06  3506   0.337E-03    0.593E-03
RMM:  10    -0.413183088902E+03    0.54473E-05   -0.11354E-06  2510   0.194E-03    0.351E-03
RMM:  11    -0.413183082865E+03    0.60372E-05   -0.10164E-06  2491   0.168E-03    0.176E-03
RMM:  12    -0.413183075982E+03    0.68824E-05   -0.82132E-07  2439   0.146E-03    0.744E-04
RMM:  13    -0.413183074118E+03    0.18639E-05   -0.29611E-07  2070   0.960E-04    0.422E-04
RMM:  14    -0.413183072957E+03    0.11612E-05   -0.13715E-07  1427   0.709E-04    0.337E-04
RMM:  15    -0.413183068519E+03    0.44378E-05   -0.13045E-07  1602   0.729E-04    0.192E-04
RMM:  16    -0.413183066782E+03    0.17371E-05   -0.54539E-08  1008   0.600E-04    0.151E-04
RMM:  17    -0.413183064085E+03    0.26970E-05   -0.51091E-08  1040   0.593E-04    0.136E-04
RMM:  18    -0.413183060888E+03    0.31976E-05   -0.49447E-08  1013   0.585E-04    0.484E-05
RMM:  19    -0.413183060227E+03    0.66045E-06   -0.20556E-08   751   0.532E-04
   29 T=    64. E= -.41286719E+03 F= -.41318306E+03 E0= -.41316146E+03  EK= 0.31587E+00 SP= 0.00E+00 SK= 0.00E+00
       N       E                     dE             d eps       ncg     rms          rms(c)
RMM:   1    -0.413178979032E+03    0.40819E-02   -0.10620E+01  4287   0.804E-01    0.907E-01
RMM:   2    -0.413187573804E+03   -0.85948E-02   -0.13201E-01  4273   0.112E-01    0.652E-01
RMM:   3    -0.413185115334E+03    0.24585E-02   -0.98325E-03  4491   0.485E-02    0.129E-01
RMM:   4    -0.413195716335E+03   -0.10601E-01   -0.11019E-02  5155   0.884E-02    0.434E-01
RMM:   5    -0.413184982349E+03    0.10734E-01   -0.54583E-03  4832   0.714E-02    0.369E-02
RMM:   6    -0.413185013813E+03   -0.31464E-04   -0.91504E-04  5841   0.283E-02    0.226E-02
RMM:   7    -0.413185015923E+03   -0.21099E-05   -0.19837E-04  5473   0.139E-02    0.147E-02
RMM:   8    -0.413185000493E+03    0.15430E-04   -0.28258E-05  4619   0.627E-03    0.649E-03
RMM:   9    -0.413184998297E+03    0.21967E-05   -0.53334E-06  3042   0.291E-03    0.493E-03
RMM:  10    -0.413184994706E+03    0.35909E-05   -0.12246E-06  2493   0.190E-03    0.283E-03
RMM:  11    -0.413184990762E+03    0.39435E-05   -0.81160E-07  2469   0.153E-03    0.142E-03
RMM:  12    -0.413184986833E+03    0.39293E-05   -0.55316E-07  2352   0.123E-03    0.689E-04
RMM:  13    -0.413184985354E+03    0.14794E-05   -0.22709E-07  1869   0.852E-04    0.299E-04
RMM:  14    -0.413184983787E+03    0.15668E-05   -0.12111E-07  1305   0.686E-04    0.189E-04
RMM:  15    -0.413184980765E+03    0.30218E-05   -0.94971E-08  1227   0.665E-04    0.818E-05
RMM:  16    -0.413184979435E+03    0.13298E-05   -0.50876E-08   962   0.608E-04    0.708E-05
RMM:  17    -0.413184977491E+03    0.19439E-05   -0.45926E-08   991   0.604E-04    0.521E-05
RMM:  18    -0.413184975117E+03    0.23746E-05   -0.46611E-08  1064   0.600E-04    0.362E-05
RMM:  19    -0.413184974503E+03    0.61419E-06   -0.16776E-08   726   0.538E-04
   30 T=    65. E= -.41286729E+03 F= -.41318497E+03 E0= -.41316343E+03  EK= 0.31769E+00 SP= 0.00E+00 SK= 0.00E+00
       N       E                     dE             d eps       ncg     rms          rms(c)
RMM:   1    -0.413184030690E+03    0.94443E-03   -0.10773E+01  4291   0.862E-01    0.908E-01
RMM:   2    -0.413189948591E+03   -0.59179E-02   -0.14244E-01  4274   0.121E-01    0.666E-01
RMM:   3    -0.413186698941E+03    0.32497E-02   -0.99185E-03  4439   0.515E-02    0.131E-01
RMM:   4    -0.413196073820E+03   -0.93749E-02   -0.98058E-03  5155   0.838E-02    0.407E-01
RMM:   5    -0.413186668377E+03    0.94054E-02   -0.47544E-03  4831   0.668E-02    0.358E-02
RMM:   6    -0.413186694627E+03   -0.26250E-04   -0.80234E-04  5844   0.267E-02    0.223E-02
RMM:   7    -0.413186697960E+03   -0.33333E-05   -0.19489E-04  5435   0.138E-02    0.144E-02
RMM:   8    -0.413186684180E+03    0.13780E-04   -0.25241E-05  4566   0.607E-03    0.618E-03
RMM:   9    -0.413186682963E+03    0.12165E-05   -0.45732E-06  2970   0.275E-03    0.452E-03
RMM:  10    -0.413186681002E+03    0.19610E-05   -0.12246E-06  2490   0.186E-03    0.256E-03
RMM:  11    -0.413186678893E+03    0.21091E-05   -0.78815E-07  2463   0.149E-03    0.127E-03
RMM:  12    -0.413186676791E+03    0.21028E-05   -0.49772E-07  2290   0.116E-03    0.627E-04
RMM:  13    -0.413186675816E+03    0.97424E-06   -0.20694E-07  1726   0.810E-04
   31 T=    65. E= -.41286712E+03 F= -.41318668E+03 E0= -.41316518E+03  EK= 0.31955E+00 SP= 0.00E+00 SK= 0.00E+00
       N       E                     dE             d eps       ncg     rms          rms(c)
RMM:   1    -0.413183919688E+03    0.27571E-02   -0.10800E+01  4290   0.832E-01    0.934E-01
RMM:   2    -0.413191953711E+03   -0.80340E-02   -0.13469E-01  4278   0.122E-01    0.661E-01
RMM:   3    -0.413189390111E+03    0.25636E-02   -0.10344E-02  4324   0.534E-02    0.131E-01
RMM:   4    -0.413192641953E+03   -0.32518E-02   -0.39049E-03  5143   0.529E-02    0.240E-01
RMM:   5    -0.413189425221E+03    0.32167E-02   -0.16461E-03  4830   0.398E-02    0.358E-02
RMM:   6    -0.413189431549E+03   -0.63283E-05   -0.42375E-04  5655   0.203E-02    0.253E-02
RMM:   7    -0.413189406212E+03    0.25337E-04   -0.18677E-04  5136   0.136E-02    0.134E-02
RMM:   8    -0.413189398591E+03    0.76210E-05   -0.13133E-05  3801   0.466E-03    0.542E-03
RMM:   9    -0.413189395854E+03    0.27374E-05   -0.18733E-06  2530   0.203E-03    0.337E-03
RMM:  10    -0.413189388489E+03    0.73653E-05   -0.96496E-07  2477   0.161E-03    0.165E-03
RMM:  11    -0.413189383808E+03    0.46811E-05   -0.49172E-07  2270   0.114E-03    0.807E-04
RMM:  12    -0.413189378448E+03    0.53597E-05   -0.30607E-07  2041   0.944E-04    0.293E-04
RMM:  13    -0.413189375166E+03    0.32817E-05   -0.15303E-07  1442   0.728E-04    0.196E-04
RMM:  14    -0.413189371110E+03    0.40562E-05   -0.97998E-08  1158   0.661E-04    0.142E-04
RMM:  15    -0.413189365779E+03    0.53308E-05   -0.93299E-08  1280   0.665E-04    0.821E-05
RMM:  16    -0.413189363915E+03    0.18642E-05   -0.50279E-08  1010   0.587E-04    0.665E-05
RMM:  17    -0.413189359990E+03    0.39254E-05   -0.61894E-08  1229   0.604E-04    0.324E-05
RMM:  18    -0.413189358984E+03    0.10054E-05   -0.23433E-08   765   0.515E-04    0.204E-05
RMM:  19    -0.413189358622E+03    0.36220E-06   -0.12426E-08   649   0.500E-04
   32 T=    66. E= -.41286751E+03 F= -.41318936E+03 E0= -.41316791E+03  EK= 0.32184E+00 SP= 0.00E+00 SK= 0.00E+00
       N       E                     dE             d eps       ncg     rms          rms(c)
RMM:   1    -0.413185653882E+03    0.37051E-02   -0.10764E+01  4292   0.848E-01    0.920E-01
RMM:   2    -0.413193931898E+03   -0.82780E-02   -0.13568E-01  4282   0.128E-01    0.657E-01
RMM:   3    -0.413191174070E+03    0.27578E-02   -0.10055E-02  4228   0.492E-02    0.131E-01
RMM:   4    -0.413191944284E+03   -0.77021E-03   -0.16098E-03  5048   0.329E-02    0.112E-01
RMM:   5    -0.413191285980E+03    0.65830E-03   -0.36806E-04  4757   0.195E-02    0.354E-02
RMM:   6    -0.413191287146E+03   -0.11662E-05   -0.23977E-04  5404   0.156E-02    0.251E-02
RMM:   7    -0.413191260459E+03    0.26687E-04   -0.16067E-04  4860   0.120E-02    0.143E-02
RMM:   8    -0.413191255931E+03    0.45276E-05   -0.13256E-05  3599   0.421E-03    0.483E-03
RMM:   9    -0.413191254338E+03    0.15929E-05   -0.20441E-06  2451   0.198E-03    0.246E-03
RMM:  10    -0.413191246856E+03    0.74820E-05   -0.84622E-07  2379   0.141E-03    0.952E-04
RMM:  11    -0.413191242843E+03    0.40133E-05   -0.33038E-07  1959   0.918E-04    0.358E-04
RMM:  12    -0.413191239350E+03    0.34934E-05   -0.18280E-07  1647   0.764E-04    0.221E-04
RMM:  13    -0.413191236533E+03    0.28169E-05   -0.98406E-08  1193   0.658E-04    0.127E-04
RMM:  14    -0.413191231598E+03    0.49342E-05   -0.80279E-08  1096   0.646E-04    0.936E-05
RMM:  15    -0.413191228491E+03    0.31073E-05   -0.50806E-08   977   0.597E-04    0.685E-05
RMM:  16    -0.413191225201E+03    0.32905E-05   -0.49886E-08  1050   0.590E-04    0.431E-05
RMM:  17    -0.413191224081E+03    0.11192E-05   -0.17690E-08   676   0.517E-04    0.294E-05
RMM:  18    -0.413191223232E+03    0.84950E-06   -0.13326E-08   622   0.512E-04
   33 T=    66. E= -.41286730E+03 F= -.41319122E+03 E0= -.41316982E+03  EK= 0.32393E+00 SP= 0.00E+00 SK= 0.00E+00
       N       E                     dE             d eps       ncg     rms          rms(c)
RMM:   1    -0.413196699745E+03   -0.54757E-02   -0.10953E+01  4297   0.943E-01    0.913E-01
RMM:   2    -0.413196467021E+03    0.23272E-03   -0.15187E-01  4278   0.136E-01    0.672E-01
RMM:   3    -0.413193551908E+03    0.29151E-02   -0.98707E-03  4211   0.549E-02    0.138E-01
RMM:   4    -0.413193787187E+03   -0.23528E-03   -0.13095E-03  4899   0.265E-02    0.642E-02
RMM:   5    -0.413193618362E+03    0.16882E-03   -0.15246E-04  4704   0.124E-02    0.362E-02
RMM:   6    -0.413193613133E+03    0.52293E-05   -0.20068E-04  5279   0.142E-02    0.240E-02
RMM:   7    -0.413193592338E+03    0.20795E-04   -0.15332E-04  4793   0.118E-02    0.142E-02
RMM:   8    -0.413193588247E+03    0.40911E-05   -0.12483E-05  3454   0.409E-03    0.470E-03
RMM:   9    -0.413193587656E+03    0.59149E-06   -0.21563E-06  2332   0.193E-03
   34 T=    66. E= -.41286729E+03 F= -.41319359E+03 E0= -.41317224E+03  EK= 0.32629E+00 SP= 0.00E+00 SK= 0.00E+00
       N       E                     dE             d eps       ncg     rms          rms(c)
RMM:   1    -0.413191299771E+03    0.22885E-02   -0.10953E+01  4302   0.887E-01    0.938E-01
RMM:   2    -0.413198900809E+03   -0.76010E-02   -0.14047E-01  4271   0.129E-01    0.671E-01
RMM:   3    -0.413196294181E+03    0.26066E-02   -0.10449E-02  4299   0.552E-02    0.131E-01
RMM:   4    -0.413196703517E+03   -0.40934E-03   -0.13689E-03  5087   0.277E-02    0.862E-02
RMM:   5    -0.413196358513E+03    0.34500E-03   -0.25565E-04  4783   0.164E-02    0.389E-02
RMM:   6    -0.413196337500E+03    0.21013E-04   -0.20668E-04  5295   0.148E-02    0.278E-02
RMM:   7    -0.413196313960E+03    0.23540E-04   -0.17818E-04  4742   0.116E-02    0.158E-02
RMM:   8    -0.413196308069E+03    0.58911E-05   -0.12731E-05  3772   0.436E-03    0.617E-03
RMM:   9    -0.413196306569E+03    0.15000E-05   -0.34316E-06  2399   0.192E-03    0.219E-03
RMM:  10    -0.413196296768E+03    0.98013E-05   -0.10432E-06  2299   0.148E-03    0.676E-04
RMM:  11    -0.413196292267E+03    0.45011E-05   -0.31920E-07  1849   0.937E-04    0.338E-04
RMM:  12    -0.413196288131E+03    0.41359E-05   -0.16609E-07  1411   0.747E-04    0.210E-04
RMM:  13    -0.413196282835E+03    0.52954E-05   -0.99860E-08   998   0.652E-04    0.135E-04
RMM:  14    -0.413196276971E+03    0.58645E-05   -0.92575E-08  1171   0.655E-04    0.152E-04
RMM:  15    -0.413196272704E+03    0.42666E-05   -0.61725E-08   993   0.591E-04    0.980E-05
RMM:  16    -0.413196269010E+03    0.36943E-05   -0.44701E-08   862   0.560E-04    0.370E-05
RMM:  17    -0.413196267716E+03    0.12942E-05   -0.20518E-08   613   0.508E-04    0.366E-05
RMM:  18    -0.413196266985E+03    0.73059E-06   -0.11335E-08   507   0.495E-04
   35 T=    67. E= -.41286745E+03 F= -.41319627E+03 E0= -.41317496E+03  EK= 0.32882E+00 SP= 0.00E+00 SK= 0.00E+00
       N       E                     dE             d eps       ncg     rms          rms(c)
RMM:   1    -0.413193388274E+03    0.28794E-02   -0.10946E+01  4298   0.912E-01    0.937E-01
RMM:   2    -0.413200707198E+03   -0.73189E-02   -0.14073E-01  4260   0.131E-01    0.665E-01
RMM:   3    -0.413198538922E+03    0.21683E-02   -0.10616E-02  4646   0.575E-02    0.152E-01
RMM:   4    -0.413224145887E+03   -0.25607E-01   -0.25852E-02  5160   0.135E-01    0.669E-01
RMM:   5    -0.413198290056E+03    0.25856E-01   -0.13134E-02  4804   0.111E-01    0.450E-02
RMM:   6    -0.413198319926E+03   -0.29870E-04   -0.20951E-03  5845   0.437E-02    0.283E-02
RMM:   7    -0.413198326033E+03   -0.61071E-05   -0.28906E-04  5685   0.161E-02    0.155E-02
RMM:   8    -0.413198314806E+03    0.11227E-04   -0.54733E-05  4991   0.768E-03    0.919E-03
RMM:   9    -0.413198311432E+03    0.33739E-05   -0.14870E-05  4240   0.443E-03    0.663E-03
RMM:  10    -0.413198304927E+03    0.65048E-05   -0.19447E-06  2582   0.231E-03    0.381E-03
RMM:  11    -0.413198300807E+03    0.41198E-05   -0.10328E-06  2475   0.167E-03    0.236E-03
RMM:  12    -0.413198290981E+03    0.98268E-05   -0.14549E-06  2508   0.198E-03    0.119E-03
RMM:  13    -0.413198286944E+03    0.40367E-05   -0.51675E-07  2332   0.128E-03    0.678E-04
RMM:  14    -0.413198286508E+03    0.43567E-06   -0.21294E-07  1833   0.832E-04
   36 T=    67. E= -.41286706E+03 F= -.41319829E+03 E0= -.41317702E+03  EK= 0.33123E+00 SP= 0.00E+00 SK= 0.00E+00
       N       E                     dE             d eps       ncg     rms          rms(c)
RMM:   1    -0.413218307458E+03   -0.20021E-01   -0.11229E+01  4305   0.107E+00    0.920E-01
RMM:   2    -0.413204708140E+03    0.13599E-01   -0.16604E-01  4259   0.141E-01    0.678E-01
RMM:   3    -0.413201642063E+03    0.30661E-02   -0.96593E-03  4626   0.550E-02    0.170E-01
RMM:   4    -0.413225216306E+03   -0.23574E-01   -0.23978E-02  5163   0.131E-01    0.642E-01
RMM:   5    -0.413201423670E+03    0.23793E-01   -0.12020E-02  4803   0.107E-01    0.441E-02
RMM:   6    -0.413201450536E+03   -0.26866E-04   -0.19784E-03  5851   0.419E-02    0.279E-02
RMM:   7    -0.413201459557E+03   -0.90215E-05   -0.28965E-04  5654   0.158E-02    0.158E-02
RMM:   8    -0.413201448039E+03    0.11518E-04   -0.58027E-05  4994   0.801E-03    0.882E-03
RMM:   9    -0.413201445812E+03    0.22276E-05   -0.13890E-05  4160   0.441E-03    0.604E-03
RMM:  10    -0.413201441595E+03    0.42167E-05   -0.18334E-06  2590   0.220E-03    0.362E-03
RMM:  11    -0.413201438512E+03    0.30829E-05   -0.10353E-06  2497   0.164E-03    0.212E-03
RMM:  12    -0.413201432111E+03    0.64009E-05   -0.12748E-06  2501   0.180E-03    0.984E-04
RMM:  13    -0.413201429406E+03    0.27052E-05   -0.46593E-07  2260   0.118E-03    0.581E-04
RMM:  14    -0.413201428968E+03    0.43775E-06   -0.20323E-07  1700   0.800E-04
   37 T=    68. E= -.41286737E+03 F= -.41320143E+03 E0= -.41318021E+03  EK= 0.33406E+00 SP= 0.00E+00 SK= 0.00E+00
       N       E                     dE             d eps       ncg     rms          rms(c)
RMM:   1    -0.413207283949E+03   -0.58545E-02   -0.11204E+01  4306   0.105E+00    0.941E-01
RMM:   2    -0.413207288734E+03   -0.47851E-05   -0.15451E-01  4259   0.132E-01    0.682E-01
RMM:   3    -0.413204147538E+03    0.31412E-02   -0.10542E-02  4740   0.551E-02    0.163E-01
RMM:   4    -0.413235721077E+03   -0.31574E-01   -0.32202E-02  5155   0.150E-01    0.741E-01
RMM:   5    -0.413203762474E+03    0.31959E-01   -0.16232E-02  4804   0.124E-01    0.475E-02
RMM:   6    -0.413203814411E+03   -0.51938E-04   -0.25560E-03  5843   0.478E-02    0.298E-02
RMM:   7    -0.413203823866E+03   -0.94549E-05   -0.34264E-04  5731   0.170E-02    0.165E-02
RMM:   8    -0.413203813413E+03    0.10454E-04   -0.64786E-05  5051   0.829E-03    0.983E-03
RMM:   9    -0.413203810197E+03    0.32157E-05   -0.18204E-05  4458   0.485E-03    0.652E-03
RMM:  10    -0.413203804610E+03    0.55865E-05   -0.24144E-06  2630   0.241E-03    0.389E-03
RMM:  11    -0.413203800874E+03    0.37361E-05   -0.11743E-06  2494   0.176E-03    0.234E-03
RMM:  12    -0.413203792384E+03    0.84900E-05   -0.14405E-06  2503   0.197E-03    0.111E-03
RMM:  13    -0.413203788556E+03    0.38289E-05   -0.54266E-07  2344   0.130E-03    0.729E-04
RMM:  14    -0.413203788350E+03    0.20567E-06   -0.22569E-07  1886   0.849E-04
   38 T=    69. E= -.41286718E+03 F= -.41320379E+03 E0= -.41318261E+03  EK= 0.33661E+00 SP= 0.00E+00 SK= 0.00E+00
       N       E                     dE             d eps       ncg     rms          rms(c)
RMM:   1    -0.413203796897E+03   -0.83419E-05   -0.11164E+01  4306   0.102E+00    0.954E-01
RMM:   2    -0.413209443584E+03   -0.56467E-02   -0.14674E-01  4261   0.124E-01    0.675E-01
RMM:   3    -0.413206946378E+03    0.24972E-02   -0.11095E-02  4912   0.538E-02    0.178E-01
RMM:   4    -0.413249451571E+03   -0.42505E-01   -0.44707E-02  5140   0.176E-01    0.856E-01
RMM:   5    -0.413206239817E+03    0.43212E-01   -0.21586E-02  4800   0.143E-01    0.531E-02
RMM:   6    -0.413206347395E+03   -0.10758E-03   -0.34655E-03  5832   0.550E-02    0.323E-02
RMM:   7    -0.413206355293E+03   -0.78982E-05   -0.39601E-04  5706   0.182E-02    0.168E-02
RMM:   8    -0.413206345358E+03    0.99345E-05   -0.49846E-05  4789   0.698E-03    0.860E-03
RMM:   9    -0.413206340108E+03    0.52501E-05   -0.14203E-05  3886   0.390E-03    0.624E-03
RMM:  10    -0.413206334903E+03    0.52058E-05   -0.27436E-06  2666   0.237E-03    0.406E-03
RMM:  11    -0.413206328024E+03    0.68789E-05   -0.14834E-06  2502   0.200E-03    0.227E-03
RMM:  12    -0.413206316321E+03    0.11703E-04   -0.15160E-06  2512   0.202E-03    0.105E-03
RMM:  13    -0.413206313613E+03    0.27075E-05   -0.45160E-07  2359   0.126E-03    0.663E-04
RMM:  14    -0.413206313360E+03    0.25349E-06   -0.19873E-07  1842   0.817E-04
   39 T=    69. E= -.41286715E+03 F= -.41320631E+03 E0= -.41318517E+03  EK= 0.33917E+00 SP= 0.00E+00 SK= 0.00E+00
       N       E                     dE             d eps       ncg     rms          rms(c)
RMM:   1    -0.413216918989E+03   -0.10605E-01   -0.11271E+01  4310   0.114E+00    0.932E-01
RMM:   2    -0.413212969686E+03    0.39493E-02   -0.16084E-01  4264   0.134E-01    0.681E-01
RMM:   3    -0.413210236791E+03    0.27329E-02   -0.10714E-02  4962   0.568E-02    0.201E-01
RMM:   4    -0.413261638304E+03   -0.51402E-01   -0.55649E-02  5134   0.196E-01    0.939E-01
RMM:   5    -0.413209114325E+03    0.52524E-01   -0.25929E-02  4786   0.158E-01    0.569E-02
RMM:   6    -0.413209270017E+03   -0.15569E-03   -0.41665E-03  5825   0.604E-02    0.332E-02
RMM:   7    -0.413209283308E+03   -0.13291E-04   -0.48358E-04  5814   0.196E-02    0.192E-02
RMM:   8    -0.413209283670E+03   -0.36227E-06   -0.10260E-04  5224   0.973E-03    0.127E-02
RMM:   9    -0.413209271851E+03    0.11819E-04   -0.27590E-05  4705   0.579E-03    0.683E-03
RMM:  10    -0.413209267361E+03    0.44899E-05   -0.44899E-06  2818   0.290E-03    0.419E-03
RMM:  11    -0.413209263699E+03    0.36622E-05   -0.16142E-06  2503   0.208E-03    0.250E-03
RMM:  12    -0.413209256291E+03    0.74075E-05   -0.14105E-06  2500   0.200E-03    0.888E-04
RMM:  13    -0.413209252601E+03    0.36910E-05   -0.60310E-07  2394   0.136E-03    0.628E-04
RMM:  14    -0.413209251808E+03    0.79262E-06   -0.26314E-07  1988   0.911E-04
   40 T=    70. E= -.41286742E+03 F= -.41320925E+03 E0= -.41318815E+03  EK= 0.34183E+00 SP= 0.00E+00 SK= 0.00E+00
       N       E                     dE             d eps       ncg     rms          rms(c)
RMM:   1    -0.413234638728E+03   -0.25386E-01   -0.11554E+01  4310   0.124E+00    0.943E-01
RMM:   2    -0.413215080017E+03    0.19559E-01   -0.18522E-01  4273   0.145E-01    0.695E-01
RMM:   3    -0.413212921777E+03    0.21582E-02   -0.10683E-02  5036   0.607E-02    0.252E-01
RMM:   4    -0.413271720357E+03   -0.58799E-01   -0.66914E-02  5129   0.215E-01    0.101E+00
RMM:   5    -0.413211079575E+03    0.60641E-01   -0.29528E-02  4777   0.170E-01    0.623E-02
RMM:   6    -0.413211270285E+03   -0.19071E-03   -0.48205E-03  5810   0.650E-02    0.346E-02
RMM:   7    -0.413211288383E+03   -0.18098E-04   -0.58083E-04  5850   0.211E-02    0.225E-02
RMM:   8    -0.413211288345E+03    0.37682E-07   -0.12949E-04  5287   0.111E-02    0.139E-02
RMM:   9    -0.413211274412E+03    0.13934E-04   -0.27781E-05  4690   0.612E-03    0.623E-03
RMM:  10    -0.413211270236E+03    0.41760E-05   -0.59514E-06  3018   0.304E-03    0.391E-03
RMM:  11    -0.413211266741E+03    0.34944E-05   -0.15440E-06  2506   0.204E-03    0.230E-03
RMM:  12    -0.413211260497E+03    0.62447E-05   -0.11463E-06  2487   0.181E-03    0.754E-04
RMM:  13    -0.413211257014E+03    0.34826E-05   -0.54506E-07  2379   0.128E-03    0.472E-04
RMM:  14    -0.413211255827E+03    0.11872E-05   -0.25881E-07  1967   0.894E-04    0.329E-04
RMM:  15    -0.413211253361E+03    0.24656E-05   -0.14252E-07  1416   0.719E-04    0.147E-04
RMM:  16    -0.413211249783E+03    0.35779E-05   -0.10487E-07  1226   0.677E-04    0.128E-04
RMM:  17    -0.413211247945E+03    0.18382E-05   -0.63878E-08  1051   0.625E-04    0.777E-05
RMM:  18    -0.413211244971E+03    0.29736E-05   -0.62807E-08  1199   0.637E-04    0.678E-05
RMM:  19    -0.413211242985E+03    0.19861E-05   -0.38706E-08   991   0.590E-04    0.371E-05
RMM:  20    -0.413211242216E+03    0.76939E-06   -0.24012E-08   863   0.558E-04
   41 T=    70. E= -.41286719E+03 F= -.41321124E+03 E0= -.41319017E+03  EK= 0.34406E+00 SP= 0.00E+00 SK= 0.00E+00
       N       E                     dE             d eps       ncg     rms          rms(c)
RMM:   1    -0.413219576989E+03   -0.83340E-02   -0.11402E+01  4310   0.121E+00    0.968E-01
RMM:   2    -0.413216801811E+03    0.27752E-02   -0.15269E-01  4294   0.137E-01    0.685E-01
RMM:   3    -0.413217432016E+03   -0.63021E-03   -0.14067E-02  5078   0.755E-02    0.298E-01
RMM:   4    -0.413253764797E+03   -0.36333E-01   -0.52392E-02  5095   0.193E-01    0.826E-01
RMM:   5    -0.413213689577E+03    0.40075E-01   -0.17795E-02  4741   0.138E-01    0.586E-02
RMM:   6    -0.413213759366E+03   -0.69789E-04   -0.31291E-03  5765   0.528E-02    0.336E-02
RMM:   7    -0.413213764472E+03   -0.51057E-05   -0.43618E-04  5761   0.190E-02    0.217E-02
RMM:   8    -0.413213759888E+03    0.45836E-05   -0.11530E-04  5198   0.109E-02    0.121E-02
RMM:   9    -0.413213745856E+03    0.14032E-04   -0.19616E-05  4415   0.550E-03    0.500E-03
RMM:  10    -0.413213740588E+03    0.52676E-05   -0.41255E-06  2810   0.262E-03    0.315E-03
RMM:  11    -0.413213735155E+03    0.54330E-05   -0.12030E-06  2492   0.185E-03    0.172E-03
RMM:  12    -0.413213727084E+03    0.80709E-05   -0.77060E-07  2459   0.152E-03    0.637E-04
RMM:  13    -0.413213722711E+03    0.43735E-05   -0.37490E-07  2166   0.107E-03    0.320E-04
RMM:  14    -0.413213720476E+03    0.22353E-05   -0.19970E-07  1688   0.801E-04    0.215E-04
RMM:  15    -0.413213715253E+03    0.52224E-05   -0.13044E-07  1345   0.713E-04    0.129E-04
RMM:  16    -0.413213712469E+03    0.27847E-05   -0.81940E-08  1131   0.651E-04    0.968E-05
RMM:  17    -0.413213709361E+03    0.31075E-05   -0.65699E-08  1140   0.637E-04    0.675E-05
RMM:  18    -0.413213706321E+03    0.30401E-05   -0.56893E-08  1192   0.621E-04    0.430E-05
RMM:  19    -0.413213704227E+03    0.20937E-05   -0.38024E-08  1022   0.580E-04    0.312E-05
RMM:  20    -0.413213703656E+03    0.57089E-06   -0.19770E-08   776   0.540E-04
   42 T=    70. E= -.41286744E+03 F= -.41321370E+03 E0= -.41319267E+03  EK= 0.34627E+00 SP= 0.00E+00 SK= 0.00E+00
       N       E                     dE             d eps       ncg     rms          rms(c)
RMM:   1    -0.413232959035E+03   -0.19255E-01   -0.11457E+01  4312   0.134E+00    0.944E-01
RMM:   2    -0.413218850071E+03    0.14109E-01   -0.16399E-01  4295   0.149E-01    0.685E-01
RMM:   3    -0.413220574931E+03   -0.17249E-02   -0.14496E-02  5087   0.834E-02    0.336E-01
RMM:   4    -0.413253297831E+03   -0.32723E-01   -0.52372E-02  5083   0.194E-01    0.801E-01
RMM:   5    -0.413215654392E+03    0.37643E-01   -0.16273E-02  4719   0.134E-01    0.587E-02
RMM:   6    -0.413215697356E+03   -0.42964E-04   -0.28625E-03  5736   0.510E-02    0.328E-02
RMM:   7    -0.413215699413E+03   -0.20566E-05   -0.40956E-04  5782   0.186E-02    0.218E-02
RMM:   8    -0.413215694514E+03    0.48986E-05   -0.11083E-04  5182   0.108E-02    0.113E-02
RMM:   9    -0.413215682342E+03    0.12173E-04   -0.19078E-05  4399   0.545E-03    0.445E-03
RMM:  10    -0.413215678851E+03    0.34909E-05   -0.37606E-06  2768   0.251E-03    0.277E-03
RMM:  11    -0.413215674501E+03    0.43499E-05   -0.12440E-06  2496   0.184E-03    0.150E-03
RMM:  12    -0.413215669108E+03    0.53929E-05   -0.69521E-07  2433   0.142E-03    0.581E-04
RMM:  13    -0.413215666101E+03    0.30069E-05   -0.34343E-07  2017   0.993E-04    0.276E-04
RMM:  14    -0.413215663820E+03    0.22811E-05   -0.19295E-07  1531   0.778E-04    0.170E-04
RMM:  15    -0.413215659440E+03    0.43794E-05   -0.14408E-07  1296   0.716E-04    0.112E-04
RMM:  16    -0.413215657596E+03    0.18444E-05   -0.89392E-08  1138   0.656E-04    0.799E-05
RMM:  17    -0.413215654656E+03    0.29405E-05   -0.75969E-08  1205   0.653E-04    0.509E-05
RMM:  18    -0.413215652340E+03    0.23153E-05   -0.58907E-08  1142   0.617E-04    0.404E-05
RMM:  19    -0.413215651131E+03    0.12097E-05   -0.33620E-08   888   0.565E-04    0.200E-05
RMM:  20    -0.413215650518E+03    0.61286E-06   -0.21948E-08   787   0.546E-04
   43 T=    71. E= -.41286751E+03 F= -.41321565E+03 E0= -.41319464E+03  EK= 0.34814E+00 SP= 0.00E+00 SK= 0.00E+00
       N       E                     dE             d eps       ncg     rms          rms(c)
RMM:   1    -0.413236067306E+03   -0.20416E-01   -0.11580E+01  4312   0.138E+00    0.946E-01
RMM:   2    -0.413220386784E+03    0.15681E-01   -0.17673E-01  4300   0.166E-01    0.700E-01
RMM:   3    -0.413223045117E+03   -0.26583E-02   -0.15509E-02  5080   0.915E-02    0.374E-01
RMM:   4    -0.413253800056E+03   -0.30755E-01   -0.54034E-02  5065   0.198E-01    0.795E-01
RMM:   5    -0.413216871844E+03    0.36928E-01   -0.15606E-02  4709   0.133E-01    0.600E-02
RMM:   6    -0.413216899977E+03   -0.28133E-04   -0.27798E-03  5710   0.501E-02    0.325E-02
RMM:   7    -0.413216900359E+03   -0.38202E-06   -0.39450E-04  5810   0.183E-02    0.220E-02
RMM:   8    -0.413216896058E+03    0.43010E-05   -0.10627E-04  5164   0.106E-02    0.110E-02
RMM:   9    -0.413216885453E+03    0.10604E-04   -0.19897E-05  4418   0.554E-03    0.424E-03
RMM:  10    -0.413216883015E+03    0.24383E-05   -0.37212E-06  2768   0.246E-03    0.256E-03
RMM:  11    -0.413216879619E+03    0.33963E-05   -0.13904E-06  2513   0.185E-03    0.143E-03
RMM:  12    -0.413216876047E+03    0.35718E-05   -0.65912E-07  2437   0.139E-03    0.608E-04
RMM:  13    -0.413216873794E+03    0.22526E-05   -0.33133E-07  1900   0.960E-04    0.276E-04
RMM:  14    -0.413216871663E+03    0.21318E-05   -0.19891E-07  1490   0.774E-04    0.158E-04
RMM:  15    -0.413216868566E+03    0.30966E-05   -0.15219E-07  1338   0.721E-04    0.995E-05
RMM:  16    -0.413216866838E+03    0.17284E-05   -0.93580E-08  1131   0.656E-04    0.758E-05
RMM:  17    -0.413216864158E+03    0.26794E-05   -0.85301E-08  1248   0.657E-04    0.465E-05
RMM:  18    -0.413216862508E+03    0.16507E-05   -0.54014E-08  1041   0.601E-04    0.401E-05
RMM:  19    -0.413216861442E+03    0.10657E-05   -0.35119E-08   901   0.566E-04    0.222E-05
RMM:  20    -0.413216861031E+03    0.41101E-06   -0.19919E-08   752   0.543E-04
   44 T=    71. E= -.41286730E+03 F= -.41321686E+03 E0= -.41319588E+03  EK= 0.34956E+00 SP= 0.00E+00 SK= 0.00E+00
       N       E                     dE             d eps       ncg     rms          rms(c)
RMM:   1    -0.413234177368E+03   -0.17316E-01   -0.11537E+01  4311   0.146E+00    0.973E-01
RMM:   2    -0.413221283828E+03    0.12894E-01   -0.16709E-01  4325   0.169E-01    0.694E-01
RMM:   3    -0.413229068857E+03   -0.77850E-02   -0.20124E-02  5127   0.110E-01    0.469E-01
RMM:   4    -0.413240013541E+03   -0.10945E-01   -0.43207E-02  5036   0.180E-01    0.617E-01
RMM:   5    -0.413218448237E+03    0.21565E-01   -0.80188E-03  4618   0.104E-01    0.555E-02
RMM:   6    -0.413218419757E+03    0.28480E-04   -0.16489E-03  5532   0.392E-02    0.312E-02
RMM:   7    -0.413218413240E+03    0.65172E-05   -0.27688E-04  5608   0.162E-02    0.208E-02
RMM:   8    -0.413218401971E+03    0.11269E-04   -0.10859E-04  5070   0.108E-02    0.975E-03
RMM:   9    -0.413218388498E+03    0.13473E-04   -0.14855E-05  4227   0.525E-03    0.399E-03
RMM:  10    -0.413218384654E+03    0.38439E-05   -0.25617E-06  2678   0.220E-03    0.231E-03
RMM:  11    -0.413218378135E+03    0.65192E-05   -0.11041E-06  2476   0.173E-03    0.126E-03
RMM:  12    -0.413218372140E+03    0.59947E-05   -0.54388E-07  2398   0.129E-03    0.605E-04
RMM:  13    -0.413218368524E+03    0.36160E-05   -0.25286E-07  1794   0.877E-04    0.295E-04
RMM:  14    -0.413218364954E+03    0.35695E-05   -0.14098E-07  1324   0.704E-04    0.155E-04
RMM:  15    -0.413218359791E+03    0.51635E-05   -0.11501E-07  1267   0.683E-04    0.122E-04
RMM:  16    -0.413218357148E+03    0.26427E-05   -0.69366E-08  1067   0.625E-04    0.996E-05
RMM:  17    -0.413218352617E+03    0.45311E-05   -0.72227E-08  1281   0.642E-04    0.660E-05
RMM:  18    -0.413218350175E+03    0.24427E-05   -0.45151E-08  1073   0.579E-04    0.460E-05
RMM:  19    -0.413218349275E+03    0.89952E-06   -0.24155E-08   817   0.526E-04
   45 T=    71. E= -.41286763E+03 F= -.41321835E+03 E0= -.41319739E+03  EK= 0.35072E+00 SP= 0.00E+00 SK= 0.00E+00
       N       E                     dE             d eps       ncg     rms          rms(c)
RMM:   1    -0.413252080728E+03   -0.33731E-01   -0.11597E+01  4311   0.161E+00    0.954E-01
RMM:   2    -0.413221269285E+03    0.30811E-01   -0.17734E-01  4351   0.183E-01    0.690E-01
RMM:   3    -0.413231630800E+03   -0.10362E-01   -0.21800E-02  5128   0.120E-01    0.524E-01
RMM:   4    -0.413236304829E+03   -0.46740E-02   -0.41917E-02  5016   0.179E-01    0.569E-01
RMM:   5    -0.413218343378E+03    0.17961E-01   -0.66014E-03  4584   0.982E-02    0.552E-02
RMM:   6    -0.413218292902E+03    0.50477E-04   -0.13144E-03  5385   0.358E-02    0.302E-02
RMM:   7    -0.413218286905E+03    0.59962E-05   -0.22624E-04  5573   0.148E-02    0.201E-02
RMM:   8    -0.413218276520E+03    0.10385E-04   -0.11819E-04  5077   0.112E-02    0.996E-03
RMM:   9    -0.413218262403E+03    0.14117E-04   -0.15771E-05  4304   0.546E-03    0.400E-03
RMM:  10    -0.413218259355E+03    0.30486E-05   -0.26569E-06  2688   0.219E-03    0.229E-03
RMM:  11    -0.413218253359E+03    0.59957E-05   -0.12318E-06  2489   0.179E-03    0.124E-03
RMM:  12    -0.413218248806E+03    0.45534E-05   -0.54548E-07  2407   0.129E-03    0.679E-04
RMM:  13    -0.413218245198E+03    0.36074E-05   -0.25702E-07  1762   0.884E-04    0.327E-04
RMM:  14    -0.413218241720E+03    0.34785E-05   -0.14063E-07  1312   0.702E-04    0.169E-04
RMM:  15    -0.413218237685E+03    0.40345E-05   -0.10445E-07  1189   0.665E-04    0.115E-04
RMM:  16    -0.413218235096E+03    0.25894E-05   -0.69989E-08  1077   0.621E-04    0.107E-04
RMM:  17    -0.413218231694E+03    0.34015E-05   -0.62946E-08  1154   0.619E-04    0.612E-05
RMM:  18    -0.413218228743E+03    0.29518E-05   -0.47519E-08  1054   0.587E-04    0.502E-05
RMM:  19    -0.413218228027E+03    0.71611E-06   -0.21037E-08   735   0.523E-04
   46 T=    71. E= -.41286741E+03 F= -.41321823E+03 E0= -.41319729E+03  EK= 0.35082E+00 SP= 0.00E+00 SK= 0.00E+00
       N       E                     dE             d eps       ncg     rms          rms(c)
RMM:   1    -0.413237207865E+03   -0.18979E-01   -0.11463E+01  4311   0.163E+00    0.942E-01
RMM:   2    -0.413220789326E+03    0.16419E-01   -0.18210E-01  4365   0.194E-01    0.703E-01
RMM:   3    -0.413232205150E+03   -0.11416E-01   -0.23044E-02  5126   0.127E-01    0.550E-01
RMM:   4    -0.413236005620E+03   -0.38005E-02   -0.44609E-02  5011   0.185E-01    0.578E-01
RMM:   5    -0.413217284682E+03    0.18721E-01   -0.68389E-03  4582   0.101E-01    0.568E-02
RMM:   6    -0.413217220553E+03    0.64129E-04   -0.13076E-03  5343   0.362E-02    0.300E-02
RMM:   7    -0.413217215904E+03    0.46484E-05   -0.22692E-04  5620   0.148E-02    0.204E-02
RMM:   8    -0.413217207795E+03    0.81096E-05   -0.12282E-04  5124   0.114E-02    0.102E-02
RMM:   9    -0.413217194668E+03    0.13127E-04   -0.17060E-05  4347   0.568E-03    0.403E-03
RMM:  10    -0.413217192654E+03    0.20138E-05   -0.29339E-06  2716   0.225E-03    0.232E-03
RMM:  11    -0.413217188631E+03    0.40232E-05   -0.13622E-06  2497   0.186E-03    0.128E-03
RMM:  12    -0.413217185707E+03    0.29237E-05   -0.59002E-07  2420   0.134E-03    0.712E-04
RMM:  13    -0.413217182963E+03    0.27444E-05   -0.29312E-07  1801   0.925E-04    0.344E-04
RMM:  14    -0.413217180435E+03    0.25278E-05   -0.16432E-07  1369   0.731E-04    0.176E-04
RMM:  15    -0.413217177659E+03    0.27759E-05   -0.11912E-07  1193   0.676E-04    0.107E-04
RMM:  16    -0.413217175570E+03    0.20893E-05   -0.81474E-08  1100   0.632E-04    0.972E-05
RMM:  17    -0.413217173316E+03    0.22537E-05   -0.66095E-08  1101   0.613E-04    0.537E-05
RMM:  18    -0.413217170871E+03    0.24457E-05   -0.56516E-08  1054   0.595E-04    0.460E-05
RMM:  19    -0.413217170352E+03    0.51836E-06   -0.22671E-08   709   0.525E-04
   47 T=    71. E= -.41286731E+03 F= -.41321717E+03 E0= -.41319625E+03  EK= 0.34986E+00 SP= 0.00E+00 SK= 0.00E+00
       N       E                     dE             d eps       ncg     rms          rms(c)
RMM:   1    -0.413250696705E+03   -0.33526E-01   -0.11519E+01  4305   0.178E+00    0.965E-01
RMM:   2    -0.413218219269E+03    0.32477E-01   -0.18422E-01  4415   0.203E-01    0.698E-01
RMM:   3    -0.413237955679E+03   -0.19736E-01   -0.30155E-02  5149   0.149E-01    0.668E-01
RMM:   4    -0.413226178408E+03    0.11777E-01   -0.40939E-02  4967   0.181E-01    0.459E-01
RMM:   5    -0.413215242673E+03    0.10936E-01   -0.45211E-03  4516   0.892E-02    0.579E-02
RMM:   6    -0.413215113397E+03    0.12928E-03   -0.57777E-04  4808   0.290E-02    0.299E-02
RMM:   7    -0.413215103715E+03    0.96822E-05   -0.19734E-04  5903   0.142E-02    0.155E-02
RMM:   8    -0.413215094959E+03    0.87559E-05   -0.10025E-04  5181   0.110E-02    0.120E-02
RMM:   9    -0.413215084130E+03    0.10828E-04   -0.19118E-05  4458   0.552E-03    0.454E-03
RMM:  10    -0.413215080547E+03    0.35831E-05   -0.30775E-06  2699   0.266E-03    0.233E-03
RMM:  11    -0.413215074952E+03    0.55951E-05   -0.19100E-06  2508   0.220E-03    0.153E-03
RMM:  12    -0.413215070904E+03    0.40479E-05   -0.70698E-07  2411   0.152E-03    0.912E-04
RMM:  13    -0.413215067140E+03    0.37645E-05   -0.31834E-07  2097   0.999E-04    0.540E-04
RMM:  14    -0.413215061300E+03    0.58395E-05   -0.22959E-07  1928   0.851E-04    0.437E-04
RMM:  15    -0.413215057582E+03    0.37187E-05   -0.10253E-07  1087   0.622E-04    0.174E-04
RMM:  16    -0.413215055253E+03    0.23287E-05   -0.71388E-08  1043   0.595E-04    0.927E-05
RMM:  17    -0.413215051553E+03    0.36994E-05   -0.68305E-08  1103   0.612E-04    0.802E-05
RMM:  18    -0.413215050039E+03    0.15148E-05   -0.36150E-08   896   0.563E-04    0.643E-05
RMM:  19    -0.413215048780E+03    0.12591E-05   -0.23070E-08   798   0.541E-04    0.440E-05
RMM:  20    -0.413215047042E+03    0.17373E-05   -0.25836E-08   885   0.543E-04    0.260E-05
RMM:  21    -0.413215046748E+03    0.29393E-06   -0.89151E-09   598   0.488E-04
   48 T=    71. E= -.41286756E+03 F= -.41321505E+03 E0= -.41319413E+03  EK= 0.34749E+00 SP= 0.00E+00 SK= 0.00E+00
       N       E                     dE             d eps       ncg     rms          rms(c)
RMM:   1    -0.413250821125E+03   -0.35774E-01   -0.11323E+01  4305   0.189E+00    0.954E-01
RMM:   2    -0.413213422238E+03    0.37399E-01   -0.18164E-01  4491   0.213E-01    0.686E-01
RMM:   3    -0.413240890830E+03   -0.27469E-01   -0.36654E-02  5156   0.167E-01    0.762E-01
RMM:   4    -0.413217784845E+03    0.23106E-01   -0.40438E-02  4943   0.183E-01    0.387E-01
RMM:   5    -0.413210637871E+03    0.71470E-02   -0.44680E-03  4694   0.892E-02    0.669E-02
RMM:   6    -0.413210424471E+03    0.21340E-03   -0.46567E-04  4654   0.301E-02    0.333E-02
RMM:   7    -0.413210428335E+03   -0.38640E-05   -0.25394E-04  5736   0.170E-02    0.243E-02
RMM:   8    -0.413210396483E+03    0.31852E-04   -0.86365E-05  4964   0.106E-02    0.923E-03
RMM:   9    -0.413210388788E+03    0.76943E-05   -0.17229E-05  4426   0.524E-03    0.438E-03
RMM:  10    -0.413210384254E+03    0.45344E-05   -0.22556E-06  2628   0.235E-03    0.258E-03
RMM:  11    -0.413210377704E+03    0.65496E-05   -0.96359E-07  2484   0.168E-03    0.153E-03
RMM:  12    -0.413210373958E+03    0.37465E-05   -0.36077E-07  2281   0.109E-03    0.778E-04
RMM:  13    -0.413210368486E+03    0.54723E-05   -0.33830E-07  2185   0.952E-04    0.454E-04
RMM:  14    -0.413210364630E+03    0.38555E-05   -0.16032E-07  1336   0.716E-04    0.282E-04
RMM:  15    -0.413210359739E+03    0.48906E-05   -0.12942E-07  1208   0.681E-04    0.126E-04
RMM:  16    -0.413210356916E+03    0.28232E-05   -0.81466E-08  1130   0.629E-04    0.852E-05
RMM:  17    -0.413210352599E+03    0.43169E-05   -0.85535E-08  1315   0.645E-04    0.886E-05
RMM:  18    -0.413210351668E+03    0.93134E-06   -0.36939E-08   911   0.542E-04
   49 T=    70. E= -.41286728E+03 F= -.41321035E+03 E0= -.41318945E+03  EK= 0.34307E+00 SP= 0.00E+00 SK= 0.00E+00
       N       E                     dE             d eps       ncg     rms          rms(c)
RMM:   1    -0.413228153010E+03   -0.17800E-01   -0.10949E+01  4304   0.191E+00    0.924E-01
RMM:   2    -0.413208154297E+03    0.19999E-01   -0.17949E-01  4513   0.222E-01    0.690E-01
RMM:   3    -0.413236238706E+03   -0.28084E-01   -0.37303E-02  5160   0.171E-01    0.777E-01
RMM:   4    -0.413212013218E+03    0.24225E-01   -0.41836E-02  4938   0.187E-01    0.386E-01
RMM:   5    -0.413204753532E+03    0.72597E-02   -0.48989E-03  4769   0.931E-02    0.710E-02
RMM:   6    -0.413204495850E+03    0.25768E-03   -0.49936E-04  4635   0.317E-02    0.338E-02
RMM:   7    -0.413204496219E+03   -0.36846E-06   -0.24556E-04  5730   0.169E-02    0.241E-02
RMM:   8    -0.413204466469E+03    0.29750E-04   -0.83153E-05  5012   0.102E-02    0.982E-03
RMM:   9    -0.413204459771E+03    0.66985E-05   -0.17087E-05  4346   0.523E-03    0.424E-03
RMM:  10    -0.413204456175E+03    0.35954E-05   -0.25892E-06  2659   0.238E-03    0.261E-03
RMM:  11    -0.413204451460E+03    0.47150E-05   -0.82848E-07  2484   0.158E-03    0.141E-03
RMM:  12    -0.413204448677E+03    0.27831E-05   -0.36643E-07  2210   0.104E-03    0.709E-04
RMM:  13    -0.413204444340E+03    0.43369E-05   -0.41244E-07  2300   0.102E-03    0.520E-04
[...]
  135 T=    59. E= -.41286810E+03 F= -.41315931E+03 E0= -.41313857E+03  EK= 0.29122E+00 SP= 0.00E+00 SK= 0.00E+00
       N       E                     dE             d eps       ncg     rms          rms(c)
RMM:   1    -0.413156615830E+03    0.26979E-02   -0.90465E+00  4266   0.785E-01    0.868E-01
RMM:   2    -0.413161990254E+03   -0.53744E-02   -0.10776E-01  4322   0.928E-02    0.623E-01
RMM:   3    -0.413160857539E+03    0.11327E-02   -0.13570E-02  5083   0.574E-02    0.191E-01
RMM:   4    -0.413194903561E+03   -0.34046E-01   -0.42550E-02  5124   0.173E-01    0.780E-01
RMM:   5    -0.413159144516E+03    0.35759E-01   -0.16442E-02  4778   0.130E-01    0.598E-02
RMM:   6    -0.413159148674E+03   -0.41575E-05   -0.27932E-03  5633   0.518E-02    0.307E-02
RMM:   7    -0.413159179186E+03   -0.30512E-04   -0.43377E-04  6014   0.182E-02    0.192E-02
RMM:   8    -0.413159182744E+03   -0.35579E-05   -0.86613E-05  5305   0.984E-03    0.967E-03
RMM:   9    -0.413159181693E+03    0.10512E-05   -0.11275E-05  3619   0.412E-03    0.438E-03
RMM:  10    -0.413159184350E+03   -0.26574E-05   -0.28469E-06  2672   0.229E-03    0.291E-03
RMM:  11    -0.413159187797E+03   -0.34466E-05   -0.14228E-06  2521   0.186E-03    0.153E-03
RMM:  12    -0.413159190437E+03   -0.26398E-05   -0.80615E-07  2473   0.144E-03    0.533E-04
RMM:  13    -0.413159191648E+03   -0.12109E-05   -0.40465E-07  2119   0.104E-03    0.322E-04
RMM:  14    -0.413159192611E+03   -0.96309E-06   -0.23932E-07  1659   0.825E-04
  136 T=    59. E= -.41286793E+03 F= -.41315919E+03 E0= -.41313846E+03  EK= 0.29127E+00 SP= 0.00E+00 SK= 0.00E+00
       N       E                     dE             d eps       ncg     rms          rms(c)
RMM:   1    -0.413156159712E+03    0.30319E-02   -0.91675E+00  4273   0.784E-01    0.864E-01
RMM:   2    -0.413162309427E+03   -0.61497E-02   -0.10977E-01  4321   0.928E-02    0.633E-01
RMM:   3    -0.413160606807E+03    0.17026E-02   -0.13763E-02  5059   0.566E-02    0.173E-01
RMM:   4    -0.413197145439E+03   -0.36539E-01   -0.43710E-02  5134   0.175E-01    0.803E-01
RMM:   5    -0.413159138432E+03    0.38007E-01   -0.17735E-02  4793   0.134E-01    0.594E-02
RMM:   6    -0.413159155814E+03   -0.17382E-04   -0.29642E-03  5657   0.530E-02    0.296E-02
RMM:   7    -0.413159191929E+03   -0.36114E-04   -0.44303E-04  6026   0.180E-02    0.185E-02
RMM:   8    -0.413159199932E+03   -0.80036E-05   -0.84948E-05  5314   0.961E-03    0.948E-03
RMM:   9    -0.413159201770E+03   -0.18374E-05   -0.11729E-05  3595   0.409E-03    0.427E-03
RMM:  10    -0.413159207216E+03   -0.54458E-05   -0.31336E-06  2703   0.233E-03    0.289E-03
RMM:  11    -0.413159213737E+03   -0.65215E-05   -0.13797E-06  2514   0.184E-03    0.150E-03
RMM:  12    -0.413159219200E+03   -0.54630E-05   -0.81694E-07  2468   0.143E-03    0.508E-04
RMM:  13    -0.413159221496E+03   -0.22964E-05   -0.40157E-07  2086   0.102E-03    0.325E-04
RMM:  14    -0.413159223311E+03   -0.18148E-05   -0.24121E-07  1639   0.822E-04    0.214E-04
RMM:  15    -0.413159226080E+03   -0.27685E-05   -0.22583E-07  1423   0.768E-04    0.113E-04
RMM:  16    -0.413159227244E+03   -0.11647E-05   -0.14043E-07  1262   0.688E-04    0.828E-05
RMM:  17    -0.413159228286E+03   -0.10420E-05   -0.12134E-07  1282   0.665E-04    0.589E-05
RMM:  18    -0.413159228765E+03   -0.47904E-06   -0.82022E-08  1085   0.607E-04
  137 T=    59. E= -.41286787E+03 F= -.41315923E+03 E0= -.41313851E+03  EK= 0.29136E+00 SP= 0.00E+00 SK= 0.00E+00
       N       E                     dE             d eps       ncg     rms          rms(c)
RMM:   1    -0.413157792165E+03    0.14361E-02   -0.92422E+00  4264   0.802E-01    0.884E-01
RMM:   2    -0.413162691565E+03   -0.48994E-02   -0.11062E-01  4315   0.966E-02    0.629E-01
RMM:   3    -0.413160913071E+03    0.17785E-02   -0.12712E-02  5031   0.535E-02    0.162E-01
RMM:   4    -0.413197036875E+03   -0.36124E-01   -0.41433E-02  5137   0.170E-01    0.795E-01
RMM:   5    -0.413159826125E+03    0.37211E-01   -0.17703E-02  4795   0.133E-01    0.588E-02
RMM:   6    -0.413159852475E+03   -0.26350E-04   -0.29784E-03  5669   0.529E-02    0.310E-02
RMM:   7    -0.413159875700E+03   -0.23225E-04   -0.44183E-04  6004   0.181E-02    0.188E-02
RMM:   8    -0.413159876832E+03   -0.11316E-05   -0.82057E-05  5314   0.946E-03    0.956E-03
RMM:   9    -0.413159874524E+03    0.23077E-05   -0.11212E-05  3573   0.400E-03    0.445E-03
RMM:  10    -0.413159876151E+03   -0.16275E-05   -0.31526E-06  2692   0.235E-03    0.299E-03
RMM:  11    -0.413159877758E+03   -0.16069E-05   -0.12655E-06  2501   0.180E-03    0.152E-03
RMM:  12    -0.413159879165E+03   -0.14068E-05   -0.78604E-07  2457   0.142E-03    0.523E-04
RMM:  13    -0.413159879815E+03   -0.64961E-06   -0.39514E-07  2107   0.103E-03
  138 T=    59. E= -.41286818E+03 F= -.41315988E+03 E0= -.41313916E+03  EK= 0.29170E+00 SP= 0.00E+00 SK= 0.00E+00
       N       E                     dE             d eps       ncg     rms          rms(c)
RMM:   1    -0.413156423821E+03    0.34553E-02   -0.92267E+00  4264   0.792E-01    0.874E-01
RMM:   2    -0.413162450215E+03   -0.60264E-02   -0.10900E-01  4313   0.954E-02    0.621E-01
RMM:   3    -0.413160282249E+03    0.21680E-02   -0.11932E-02  4979   0.487E-02    0.138E-01
RMM:   4    -0.413193088683E+03   -0.32806E-01   -0.35853E-02  5143   0.158E-01    0.756E-01
RMM:   5    -0.413159596918E+03    0.33492E-01   -0.16163E-02  4805   0.126E-01    0.556E-02
RMM:   6    -0.413159641734E+03   -0.44816E-04   -0.28544E-03  5688   0.507E-02    0.312E-02
RMM:   7    -0.413159659395E+03   -0.17660E-04   -0.42381E-04  5934   0.175E-02    0.183E-02
RMM:   8    -0.413159659598E+03   -0.20298E-06   -0.71978E-05  5270   0.890E-03    0.924E-03
RMM:   9    -0.413159657599E+03    0.19988E-05   -0.10086E-05  3454   0.378E-03    0.468E-03
RMM:  10    -0.413159659177E+03   -0.15782E-05   -0.28997E-06  2663   0.232E-03    0.308E-03
RMM:  11    -0.413159660470E+03   -0.12927E-05   -0.11976E-06  2509   0.175E-03    0.152E-03
RMM:  12    -0.413159661813E+03   -0.13435E-05   -0.85325E-07  2474   0.145E-03    0.572E-04
RMM:  13    -0.413159662444E+03   -0.63055E-06   -0.41313E-07  2128   0.105E-03
  139 T=    59. E= -.41286786E+03 F= -.41315966E+03 E0= -.41313896E+03  EK= 0.29180E+00 SP= 0.00E+00 SK= 0.00E+00
       N       E                     dE             d eps       ncg     rms          rms(c)
RMM:   1    -0.413156445514E+03    0.32163E-02   -0.93100E+00  4264   0.798E-01    0.862E-01
RMM:   2    -0.413163287936E+03   -0.68424E-02   -0.11164E-01  4309   0.980E-02    0.630E-01
RMM:   3    -0.413160546719E+03    0.27412E-02   -0.12035E-02  4904   0.486E-02    0.113E-01
RMM:   4    -0.413188329334E+03   -0.27783E-01   -0.29518E-02  5136   0.143E-01    0.696E-01
RMM:   5    -0.413160078406E+03    0.28251E-01   -0.13818E-02  4813   0.116E-01    0.510E-02
RMM:   6    -0.413160115506E+03   -0.37099E-04   -0.23873E-03  5691   0.465E-02    0.294E-02
RMM:   7    -0.413160137533E+03   -0.22027E-04   -0.36174E-04  5901   0.163E-02    0.165E-02
RMM:   8    -0.413160144148E+03   -0.66152E-05   -0.61241E-05  5205   0.819E-03    0.842E-03
RMM:   9    -0.413160145682E+03   -0.15339E-05   -0.85666E-06  3323   0.349E-03    0.436E-03
RMM:  10    -0.413160151330E+03   -0.56482E-05   -0.24552E-06  2610   0.219E-03    0.283E-03
RMM:  11    -0.413160156392E+03   -0.50623E-05   -0.11105E-06  2507   0.167E-03    0.134E-03
RMM:  12    -0.413160161269E+03   -0.48767E-05   -0.81708E-07  2441   0.138E-03    0.551E-04
RMM:  13    -0.413160163427E+03   -0.21585E-05   -0.39776E-07  2045   0.100E-03    0.351E-04
RMM:  14    -0.413160164690E+03   -0.12627E-05   -0.22554E-07  1541   0.792E-04    0.192E-04
RMM:  15    -0.413160166679E+03   -0.19888E-05   -0.20822E-07  1359   0.747E-04    0.111E-04
RMM:  16    -0.413160167727E+03   -0.10477E-05   -0.14631E-07  1256   0.690E-04    0.958E-05
RMM:  17    -0.413160168071E+03   -0.34434E-06   -0.92441E-08  1093   0.630E-04
  140 T=    59. E= -.41286805E+03 F= -.41316017E+03 E0= -.41313947E+03  EK= 0.29211E+00 SP= 0.00E+00 SK= 0.00E+00
       N       E                     dE             d eps       ncg     rms          rms(c)
RMM:   1    -0.413156978788E+03    0.31889E-02   -0.93964E+00  4264   0.806E-01    0.880E-01
RMM:   2    -0.413163301751E+03   -0.63230E-02   -0.11151E-01  4312   0.968E-02    0.629E-01
RMM:   3    -0.413160845671E+03    0.24561E-02   -0.11516E-02  4905   0.469E-02    0.116E-01
RMM:   4    -0.413186795285E+03   -0.25950E-01   -0.27353E-02  5147   0.138E-01    0.673E-01
RMM:   5    -0.413160477646E+03    0.26318E-01   -0.12935E-02  4809   0.112E-01    0.512E-02
RMM:   6    -0.413160504286E+03   -0.26641E-04   -0.22757E-03  5683   0.454E-02    0.300E-02
RMM:   7    -0.413160521074E+03   -0.16788E-04   -0.34819E-04  5893   0.160E-02    0.163E-02
RMM:   8    -0.413160523965E+03   -0.28911E-05   -0.59392E-05  5202   0.813E-03    0.839E-03
RMM:   9    -0.413160523322E+03    0.64318E-06   -0.79166E-06  3272   0.339E-03
  141 T=    60. E= -.41286813E+03 F= -.41316052E+03 E0= -.41313983E+03  EK= 0.29239E+00 SP= 0.00E+00 SK= 0.00E+00
       N       E                     dE             d eps       ncg     rms          rms(c)
RMM:   1    -0.413156709735E+03    0.38142E-02   -0.94112E+00  4265   0.808E-01    0.881E-01
RMM:   2    -0.413162797658E+03   -0.60879E-02   -0.11073E-01  4321   0.967E-02    0.622E-01
RMM:   3    -0.413162564848E+03    0.23281E-03   -0.12552E-02  5116   0.612E-02    0.220E-01
RMM:   4    -0.413193796133E+03   -0.31231E-01   -0.41629E-02  5110   0.171E-01    0.755E-01
RMM:   5    -0.413160455671E+03    0.33340E-01   -0.15232E-02  4782   0.127E-01    0.658E-02
RMM:   6    -0.413160360952E+03    0.94719E-04   -0.25615E-03  5517   0.503E-02    0.296E-02
RMM:   7    -0.413160392123E+03   -0.31171E-04   -0.44819E-04  6068   0.187E-02    0.190E-02
RMM:   8    -0.413160390892E+03    0.12309E-05   -0.89922E-05  5398   0.100E-02    0.962E-03
RMM:   9    -0.413160387156E+03    0.37361E-05   -0.13667E-05  4070   0.450E-03    0.416E-03
RMM:  10    -0.413160387809E+03   -0.65297E-06   -0.23605E-06  2627   0.217E-03
  142 T=    60. E= -.41286783E+03 F= -.41316039E+03 E0= -.41313970E+03  EK= 0.29256E+00 SP= 0.00E+00 SK= 0.00E+00
       N       E                     dE             d eps       ncg     rms          rms(c)
RMM:   1    -0.413156817728E+03    0.35694E-02   -0.94468E+00  4270   0.812E-01    0.861E-01
RMM:   2    -0.413163789087E+03   -0.69714E-02   -0.11313E-01  4323   0.948E-02    0.626E-01
RMM:   3    -0.413161209940E+03    0.25791E-02   -0.10788E-02  4857   0.400E-02    0.921E-02
RMM:   4    -0.413171634512E+03   -0.10425E-01   -0.10991E-02  5163   0.884E-02    0.430E-01
RMM:   5    -0.413161139003E+03    0.10496E-01   -0.53450E-03  4838   0.720E-02    0.433E-02
RMM:   6    -0.413161121830E+03    0.17172E-04   -0.98621E-04  5639   0.314E-02    0.277E-02
RMM:   7    -0.413161135504E+03   -0.13673E-04   -0.21753E-04  5738   0.128E-02    0.135E-02
RMM:   8    -0.413161138078E+03   -0.25740E-05   -0.42087E-05  5028   0.713E-03    0.717E-03
RMM:   9    -0.413161139103E+03   -0.10252E-05   -0.40013E-06  2834   0.252E-03    0.354E-03
RMM:  10    -0.413161143619E+03   -0.45160E-05   -0.15389E-06  2533   0.188E-03    0.201E-03
RMM:  11    -0.413161147534E+03   -0.39150E-05   -0.91017E-07  2474   0.146E-03    0.933E-04
RMM:  12    -0.413161150550E+03   -0.30163E-05   -0.56207E-07  2197   0.113E-03    0.439E-04
RMM:  13    -0.413161152698E+03   -0.21477E-05   -0.36265E-07  1844   0.898E-04    0.219E-04
RMM:  14    -0.413161153867E+03   -0.11695E-05   -0.21782E-07  1430   0.759E-04    0.182E-04
RMM:  15    -0.413161154903E+03   -0.10353E-05   -0.20605E-07  1330   0.720E-04    0.103E-04
RMM:  16    -0.413161155583E+03   -0.68006E-06   -0.19697E-07  1336   0.698E-04
  143 T=    60. E= -.41286815E+03 F= -.41316116E+03 E0= -.41314048E+03  EK= 0.29300E+00 SP= 0.00E+00 SK= 0.00E+00
       N       E                     dE             d eps       ncg     rms          rms(c)
RMM:   1    -0.413156893066E+03    0.42618E-02   -0.95555E+00  4264   0.819E-01    0.875E-01
RMM:   2    -0.413163923587E+03   -0.70305E-02   -0.11345E-01  4309   0.988E-02    0.630E-01
RMM:   3    -0.413161213818E+03    0.27098E-02   -0.10637E-02  4686   0.423E-02    0.903E-02
RMM:   4    -0.413165860946E+03   -0.46471E-02   -0.51838E-03  5166   0.609E-02    0.289E-01
RMM:   5    -0.413161198057E+03    0.46629E-02   -0.24437E-03  4844   0.489E-02    0.395E-02
RMM:   6    -0.413161184611E+03    0.13445E-04   -0.53301E-04  5534   0.237E-02    0.274E-02
RMM:   7    -0.413161188722E+03   -0.41101E-05   -0.17544E-04  5452   0.113E-02    0.132E-02
RMM:   8    -0.413161187359E+03    0.13623E-05   -0.27061E-05  4779   0.598E-03    0.671E-03
RMM:   9    -0.413161187935E+03   -0.57563E-06   -0.32922E-06  2666   0.215E-03
  144 T=    60. E= -.41286796E+03 F= -.41316119E+03 E0= -.41314052E+03  EK= 0.29323E+00 SP= 0.00E+00 SK= 0.00E+00
       N       E                     dE             d eps       ncg     rms          rms(c)
RMM:   1    -0.413157378392E+03    0.38090E-02   -0.95951E+00  4271   0.823E-01    0.887E-01
RMM:   2    -0.413163696234E+03   -0.63178E-02   -0.11279E-01  4313   0.985E-02    0.623E-01
RMM:   3    -0.413161422049E+03    0.22742E-02   -0.10334E-02  4664   0.389E-02    0.102E-01
RMM:   4    -0.413162029794E+03   -0.60774E-03   -0.13854E-03  5182   0.315E-02    0.106E-01
RMM:   5    -0.413161483552E+03    0.54624E-03   -0.41740E-04  4927   0.211E-02    0.444E-02
RMM:   6    -0.413161444375E+03    0.39177E-04   -0.26281E-04  5250   0.171E-02    0.281E-02
RMM:   7    -0.413161436726E+03    0.76491E-05   -0.15831E-04  5241   0.110E-02    0.153E-02
RMM:   8    -0.413161430778E+03    0.59473E-05   -0.16212E-05  4247   0.539E-03    0.749E-03
RMM:   9    -0.413161431287E+03   -0.50877E-06   -0.51147E-06  2695   0.253E-03
  145 T=    60. E= -.41286780E+03 F= -.41316143E+03 E0= -.41314077E+03  EK= 0.29363E+00 SP= 0.00E+00 SK= 0.00E+00
       N       E                     dE             d eps       ncg     rms          rms(c)
RMM:   1    -0.413157350797E+03    0.40800E-02   -0.95836E+00  4265   0.827E-01    0.863E-01
RMM:   2    -0.413164555454E+03   -0.72047E-02   -0.11424E-01  4327   0.967E-02    0.623E-01
RMM:   3    -0.413162162533E+03    0.23929E-02   -0.99541E-03  4696   0.386E-02    0.924E-02
RMM:   4    -0.413162247309E+03   -0.84775E-04   -0.86680E-04  5154   0.233E-02    0.437E-02
RMM:   5    -0.413162281013E+03   -0.33704E-04   -0.22741E-04  4994   0.160E-02    0.509E-02
RMM:   6    -0.413162197559E+03    0.83453E-04   -0.14071E-04  5340   0.120E-02    0.284E-02
RMM:   7    -0.413162192904E+03    0.46549E-05   -0.15557E-04  5067   0.100E-02    0.149E-02
RMM:   8    -0.413162188884E+03    0.40203E-05   -0.12736E-05  4022   0.477E-03    0.722E-03
RMM:   9    -0.413162190127E+03   -0.12426E-05   -0.46679E-06  2561   0.232E-03    0.237E-03
RMM:  10    -0.413162193640E+03   -0.35132E-05   -0.16310E-06  2503   0.186E-03    0.111E-03
RMM:  11    -0.413162196520E+03   -0.28800E-05   -0.10123E-06  2443   0.144E-03    0.490E-04
RMM:  12    -0.413162197262E+03   -0.74180E-06   -0.36403E-07  1970   0.960E-04
  146 T=    60. E= -.41286801E+03 F= -.41316220E+03 E0= -.41314154E+03  EK= 0.29419E+00 SP= 0.00E+00 SK= 0.00E+00
       N       E                     dE             d eps       ncg     rms          rms(c)
RMM:   1    -0.413157110269E+03    0.50863E-02   -0.97124E+00  4264   0.832E-01    0.871E-01
RMM:   2    -0.413164587254E+03   -0.74770E-02   -0.11600E-01  4312   0.101E-01    0.632E-01
RMM:   3    -0.413162050340E+03    0.25369E-02   -0.10148E-02  4756   0.413E-02    0.934E-02
RMM:   4    -0.413167858096E+03   -0.58078E-02   -0.63204E-03  5180   0.677E-02    0.323E-01
RMM:   5    -0.413162023628E+03    0.58345E-02   -0.29904E-03  4841   0.540E-02    0.400E-02
RMM:   6    -0.413162000371E+03    0.23257E-04   -0.60928E-04  5594   0.247E-02    0.262E-02
RMM:   7    -0.413162008450E+03   -0.80793E-05   -0.17098E-04  5569   0.111E-02    0.126E-02
RMM:   8    -0.413162008888E+03   -0.43822E-06   -0.28439E-05  4865   0.599E-03    0.648E-03
RMM:   9    -0.413162009565E+03   -0.67668E-06   -0.31075E-06  2676   0.229E-03
  147 T=    60. E= -.41286758E+03 F= -.41316201E+03 E0= -.41314135E+03  EK= 0.29443E+00 SP= 0.00E+00 SK= 0.00E+00
       N       E                     dE             d eps       ncg     rms          rms(c)
RMM:   1    -0.413158168396E+03    0.38405E-02   -0.97700E+00  4268   0.837E-01    0.891E-01
RMM:   2    -0.413164820776E+03   -0.66524E-02   -0.11494E-01  4315   0.989E-02    0.624E-01
RMM:   3    -0.413162994466E+03    0.18263E-02   -0.10054E-02  4929   0.434E-02    0.126E-01
RMM:   4    -0.413184642838E+03   -0.21648E-01   -0.22507E-02  5153   0.126E-01    0.615E-01
RMM:   5    -0.413162761616E+03    0.21881E-01   -0.11006E-02  4839   0.102E-01    0.518E-02
RMM:   6    -0.413162764421E+03   -0.28050E-05   -0.18533E-03  5683   0.414E-02    0.284E-02
RMM:   7    -0.413162774262E+03   -0.98406E-05   -0.29599E-04  5938   0.146E-02    0.144E-02
RMM:   8    -0.413162773760E+03    0.50207E-06   -0.53637E-05  5271   0.771E-03    0.791E-03
RMM:   9    -0.413162771208E+03    0.25514E-05   -0.69835E-06  3214   0.326E-03    0.367E-03
RMM:  10    -0.413162770547E+03    0.66122E-06   -0.26024E-06  2625   0.230E-03
  148 T=    60. E= -.41286782E+03 F= -.41316277E+03 E0= -.41314212E+03  EK= 0.29495E+00 SP= 0.00E+00 SK= 0.00E+00
       N       E                     dE             d eps       ncg     rms          rms(c)
RMM:   1    -0.413157969226E+03    0.48020E-02   -0.97335E+00  4277   0.843E-01    0.868E-01
RMM:   2    -0.413165452670E+03   -0.74834E-02   -0.11514E-01  4318   0.983E-02    0.620E-01
RMM:   3    -0.413163715133E+03    0.17375E-02   -0.97691E-03  5019   0.455E-02    0.140E-01
RMM:   4    -0.413196171964E+03   -0.32457E-01   -0.34803E-02  5143   0.155E-01    0.749E-01
RMM:   5    -0.413163134126E+03    0.33038E-01   -0.16270E-02  4825   0.125E-01    0.577E-02
RMM:   6    -0.413163184001E+03   -0.49875E-04   -0.27043E-03  5694   0.500E-02    0.274E-02
RMM:   7    -0.413163205837E+03   -0.21836E-04   -0.39009E-04  6030   0.165E-02    0.158E-02
RMM:   8    -0.413163207480E+03   -0.16430E-05   -0.68371E-05  5372   0.853E-03    0.868E-03
RMM:   9    -0.413163205284E+03    0.21960E-05   -0.10476E-05  3512   0.380E-03    0.375E-03
RMM:  10    -0.413163206271E+03   -0.98659E-06   -0.32228E-06  2707   0.240E-03
  149 T=    60. E= -.41286782E+03 F= -.41316321E+03 E0= -.41314255E+03  EK= 0.29538E+00 SP= 0.00E+00 SK= 0.00E+00
       N       E                     dE             d eps       ncg     rms          rms(c)
RMM:   1    -0.413157768256E+03    0.54370E-02   -0.98584E+00  4278   0.845E-01    0.868E-01
RMM:   2    -0.413165535148E+03   -0.77669E-02   -0.11836E-01  4325   0.971E-02    0.632E-01
RMM:   3    -0.413164018002E+03    0.15171E-02   -0.10337E-02  5079   0.504E-02    0.158E-01
RMM:   4    -0.413202539636E+03   -0.38522E-01   -0.43033E-02  5131   0.173E-01    0.816E-01
RMM:   5    -0.413163060855E+03    0.39479E-01   -0.19144E-02  4820   0.137E-01    0.618E-02
RMM:   6    -0.413163105808E+03   -0.44953E-04   -0.30791E-03  5671   0.542E-02    0.260E-02
RMM:   7    -0.413163140325E+03   -0.34518E-04   -0.44770E-04  6081   0.177E-02    0.164E-02
RMM:   8    -0.413163146376E+03   -0.60509E-05   -0.78710E-05  5426   0.915E-03    0.903E-03
RMM:   9    -0.413163146268E+03    0.10789E-06   -0.12398E-05  3661   0.409E-03    0.373E-03
RMM:  10    -0.413163149156E+03   -0.28876E-05   -0.33082E-06  2707   0.240E-03    0.248E-03
RMM:  11    -0.413163152324E+03   -0.31679E-05   -0.15663E-06  2525   0.192E-03    0.146E-03
RMM:  12    -0.413163154377E+03   -0.20535E-05   -0.84864E-07  2496   0.142E-03    0.512E-04
RMM:  13    -0.413163155136E+03   -0.75893E-06   -0.40739E-07  2027   0.994E-04
  150 T=    60. E= -.41286741E+03 F= -.41316316E+03 E0= -.41314250E+03  EK= 0.29575E+00 SP= 0.00E+00 SK= 0.00E+00
