       N       E                     dE             d eps       ncg     rms          rms(c)
RMM:   1     0.220126564206E+04    0.22013E+04   -0.52441E+04  2132   0.654E+02
RMM:   2     0.705219215451E+03   -0.14960E+04   -0.16261E+04  2132   0.177E+02
RMM:   3     0.137777990165E+03   -0.56744E+03   -0.65739E+03  2132   0.117E+02
RMM:   4    -0.159342427563E+03   -0.29712E+03   -0.27820E+03  2132   0.936E+01
RMM:   5    -0.287458316259E+03   -0.12812E+03   -0.11432E+03  2132   0.595E+01
RMM:   6    -0.349685482918E+03   -0.62227E+02   -0.55061E+02  2132   0.423E+01
RMM:   7    -0.382622630564E+03   -0.32937E+02   -0.30444E+02  2132   0.293E+01
RMM:   8    -0.404142339353E+03   -0.21520E+02   -0.18493E+02  2132   0.233E+01
RMM:   9    -0.435975231149E+03   -0.31833E+02   -0.30793E+02  6102   0.173E+01
RMM:  10    -0.441281437567E+03   -0.53062E+01   -0.63393E+01  6397   0.539E+00
RMM:  11    -0.442508139859E+03   -0.12267E+01   -0.11280E+01  6220   0.174E+00
RMM:  12    -0.442887215054E+03   -0.37908E+00   -0.27441E+00  6363   0.606E-01    0.134E+02
RMM:  13    -0.425615166954E+03    0.17272E+02   -0.81289E+01  4673   0.120E+01    0.712E+01
RMM:  14    -0.498872436962E+03   -0.73257E+02   -0.53865E+02  5427   0.232E+01    0.306E+01
RMM:  15    -0.415114789039E+03    0.83758E+02   -0.19797E+02  5072   0.163E+01    0.651E+00
RMM:  16    -0.414046731335E+03    0.10681E+01   -0.39166E+01  6080   0.606E+00    0.430E+00
RMM:  17    -0.413213985905E+03    0.83275E+00   -0.24298E+00  5343   0.185E+00    0.245E+00
RMM:  18    -0.413172533027E+03    0.41453E-01   -0.82208E-01  5985   0.932E-01    0.164E+00
RMM:  19    -0.413167861971E+03    0.46711E-02   -0.29490E-01  5704   0.580E-01    0.857E-01
RMM:  20    -0.413182897792E+03   -0.15036E-01   -0.21805E-01  5477   0.498E-01    0.543E-01
RMM:  21    -0.413166594174E+03    0.16304E-01   -0.34557E-02  4998   0.232E-01    0.243E-01
RMM:  22    -0.413165260120E+03    0.13341E-02   -0.13944E-02  6034   0.992E-02    0.144E-01
RMM:  23    -0.413163911133E+03    0.13490E-02   -0.53445E-03  5858   0.667E-02    0.813E-02
RMM:  24    -0.413162742222E+03    0.11689E-02   -0.15553E-03  5313   0.380E-02    0.382E-02
RMM:  25    -0.413162520492E+03    0.22173E-03   -0.88171E-04  5812   0.251E-02    0.293E-02
RMM:  26    -0.413162770030E+03   -0.24954E-03   -0.71568E-04  5832   0.272E-02    0.340E-02
RMM:  27    -0.413163180340E+03   -0.41031E-03   -0.19531E-04  4605   0.195E-02    0.178E-02
RMM:  28    -0.413163681390E+03   -0.50105E-03   -0.22783E-04  5309   0.208E-02    0.904E-03
RMM:  29    -0.413164008866E+03   -0.32748E-03   -0.91355E-05  4366   0.132E-02    0.483E-03
RMM:  30    -0.413164225382E+03   -0.21652E-03   -0.67931E-05  4007   0.966E-03    0.344E-03
RMM:  31    -0.413164342642E+03   -0.11726E-03   -0.48528E-05  3105   0.625E-03    0.257E-03
RMM:  32    -0.413164369532E+03   -0.26890E-04   -0.20569E-05  2945   0.298E-03    0.126E-03
RMM:  33    -0.413164381697E+03   -0.12164E-04   -0.89139E-06  2805   0.223E-03    0.652E-04
RMM:  34    -0.413164386113E+03   -0.44169E-05   -0.46407E-06  2663   0.169E-03    0.896E-04
RMM:  35    -0.413164385909E+03    0.20453E-06   -0.22795E-06  2190   0.112E-03
    1 T=    61. E= -.41286661E+03 F= -.41316439E+03 E0= -.41314189E+03  EK= 0.29778E+00 SP= 0.00E+00 SK= 0.00E+00
       N       E                     dE             d eps       ncg     rms          rms(c)
RMM:   1    -0.413155451000E+03    0.89351E-02   -0.11004E+01  3989   0.702E-01    0.886E-01
RMM:   2    -0.413165741465E+03   -0.10290E-01   -0.13579E-01  3861   0.101E-01    0.641E-01
RMM:   3    -0.413164173163E+03    0.15683E-02   -0.68589E-03  4805   0.378E-02    0.154E-01
RMM:   4    -0.413188489165E+03   -0.24316E-01   -0.25434E-02  5219   0.132E-01    0.650E-01
RMM:   5    -0.413163776943E+03    0.24712E-01   -0.12241E-02  4855   0.109E-01    0.345E-02
RMM:   6    -0.413163942754E+03   -0.16581E-03   -0.19909E-03  5838   0.431E-02    0.192E-02
RMM:   7    -0.413163959396E+03   -0.16642E-04   -0.25800E-04  5899   0.135E-02    0.139E-02
RMM:   8    -0.413163965642E+03   -0.62454E-05   -0.36550E-05  4653   0.573E-03    0.742E-03
RMM:   9    -0.413163970821E+03   -0.51795E-05   -0.77619E-06  3182   0.308E-03    0.498E-03
RMM:  10    -0.413163976937E+03   -0.61156E-05   -0.18640E-06  2570   0.188E-03    0.310E-03
RMM:  11    -0.413163984591E+03   -0.76548E-05   -0.15286E-06  2537   0.175E-03    0.147E-03
RMM:  12    -0.413163990262E+03   -0.56709E-05   -0.10137E-06  2450   0.140E-03    0.472E-04
RMM:  13    -0.413163991189E+03   -0.92661E-06   -0.41709E-07  1984   0.926E-04
    2 T=    61. E= -.41286636E+03 F= -.41316399E+03 E0= -.41314149E+03  EK= 0.29764E+00 SP= 0.00E+00 SK= 0.00E+00
       N       E                     dE             d eps       ncg     rms          rms(c)
RMM:   1    -0.413156350551E+03    0.76397E-02   -0.11032E+01  4190   0.697E-01    0.910E-01
RMM:   2    -0.413165880390E+03   -0.95298E-02   -0.13284E-01  3893   0.961E-02    0.634E-01
RMM:   3    -0.413164868508E+03    0.10119E-02   -0.71888E-03  4824   0.380E-02    0.162E-01
RMM:   4    -0.413190784422E+03   -0.25916E-01   -0.26319E-02  5189   0.136E-01    0.671E-01
RMM:   5    -0.413164506122E+03    0.26278E-01   -0.12737E-02  4833   0.112E-01    0.371E-02
RMM:   6    -0.413164678819E+03   -0.17270E-03   -0.21410E-03  5824   0.445E-02    0.211E-02
RMM:   7    -0.413164688268E+03   -0.94484E-05   -0.26565E-04  5913   0.139E-02    0.146E-02
RMM:   8    -0.413164688361E+03   -0.93340E-07   -0.38194E-05  4723   0.592E-03    0.790E-03
RMM:   9    -0.413164687565E+03    0.79641E-06   -0.76704E-06  3245   0.315E-03
    3 T=    61. E= -.41286692E+03 F= -.41316469E+03 E0= -.41314219E+03  EK= 0.29777E+00 SP= 0.00E+00 SK= 0.00E+00
       N       E                     dE             d eps       ncg     rms          rms(c)
RMM:   1    -0.413155813958E+03    0.88744E-02   -0.10942E+01  4229   0.698E-01    0.893E-01
RMM:   2    -0.413165957744E+03   -0.10144E-01   -0.13173E-01  4263   0.985E-02    0.628E-01
RMM:   3    -0.413170258301E+03   -0.43006E-02   -0.11539E-02  5186   0.782E-02    0.356E-01
RMM:   4    -0.413185985473E+03   -0.15727E-01   -0.35836E-02  5112   0.162E-01    0.614E-01
RMM:   5    -0.413164426648E+03    0.21559E-01   -0.83227E-03  4697   0.103E-01    0.533E-02
RMM:   6    -0.413164405835E+03    0.20813E-04   -0.14614E-03  5434   0.387E-02    0.199E-02
RMM:   7    -0.413164423105E+03   -0.17270E-04   -0.24408E-04  6007   0.145E-02    0.132E-02
RMM:   8    -0.413164425153E+03   -0.20481E-05   -0.37292E-05  5050   0.629E-03    0.681E-03
RMM:   9    -0.413164426101E+03   -0.94733E-06   -0.89720E-06  3481   0.383E-03
    4 T=    61. E= -.41286672E+03 F= -.41316443E+03 E0= -.41314194E+03  EK= 0.29770E+00 SP= 0.00E+00 SK= 0.00E+00
       N       E                     dE             d eps       ncg     rms          rms(c)
RMM:   1    -0.413155696491E+03    0.87287E-02   -0.10984E+01  4238   0.705E-01    0.883E-01
RMM:   2    -0.413166267273E+03   -0.10571E-01   -0.13547E-01  4137   0.966E-02    0.640E-01
RMM:   3    -0.413164586201E+03    0.16811E-02   -0.66262E-03  4273   0.317E-02    0.141E-01
RMM:   4    -0.413167074999E+03   -0.24888E-02   -0.31026E-03  5146   0.468E-02    0.213E-01
RMM:   5    -0.413164541244E+03    0.25338E-02   -0.12602E-03  4852   0.350E-02    0.204E-02
RMM:   6    -0.413164548938E+03   -0.76945E-05   -0.23073E-04  5763   0.148E-02    0.150E-02
RMM:   7    -0.413164563661E+03   -0.14723E-04   -0.61925E-05  5110   0.775E-03    0.633E-03
RMM:   8    -0.413164566832E+03   -0.31711E-05   -0.48212E-06  2876   0.279E-03    0.319E-03
RMM:   9    -0.413164571486E+03   -0.46536E-05   -0.10381E-06  2529   0.157E-03    0.200E-03
RMM:  10    -0.413164577341E+03   -0.58552E-05   -0.84515E-07  2326   0.128E-03    0.100E-03
RMM:  11    -0.413164582133E+03   -0.47913E-05   -0.63111E-07  2027   0.106E-03    0.362E-04
RMM:  12    -0.413164584486E+03   -0.23530E-05   -0.33475E-07  1647   0.837E-04    0.202E-04
RMM:  13    -0.413164586197E+03   -0.17113E-05   -0.24497E-07  1457   0.751E-04    0.122E-04
RMM:  14    -0.413164587814E+03   -0.16172E-05   -0.27640E-07  1516   0.741E-04    0.874E-05
RMM:  15    -0.413164588234E+03   -0.41934E-06   -0.16730E-07  1264   0.655E-04
    5 T=    61. E= -.41286672E+03 F= -.41316459E+03 E0= -.41314211E+03  EK= 0.29787E+00 SP= 0.00E+00 SK= 0.00E+00
       N       E                     dE             d eps       ncg     rms          rms(c)
RMM:   1    -0.413156768452E+03    0.78194E-02   -0.11036E+01  4248   0.717E-01    0.905E-01
RMM:   2    -0.413166448936E+03   -0.96805E-02   -0.13283E-01  3975   0.961E-02    0.636E-01
RMM:   3    -0.413165374388E+03    0.10745E-02   -0.70845E-03  4893   0.382E-02    0.165E-01
RMM:   4    -0.413196145831E+03   -0.30771E-01   -0.31352E-02  5164   0.148E-01    0.731E-01
RMM:   5    -0.413164869888E+03    0.31276E-01   -0.15159E-02  4811   0.122E-01    0.395E-02
RMM:   6    -0.413165062562E+03   -0.19267E-03   -0.24778E-03  5770   0.481E-02    0.213E-02
RMM:   7    -0.413165074855E+03   -0.12293E-04   -0.30616E-04  5903   0.146E-02    0.150E-02
RMM:   8    -0.413165075112E+03   -0.25686E-06   -0.41767E-05  4758   0.607E-03    0.819E-03
RMM:   9    -0.413165074084E+03    0.10278E-05   -0.85800E-06  3321   0.324E-03    0.547E-03
RMM:  10    -0.413165074638E+03   -0.55325E-06   -0.18061E-06  2555   0.197E-03
    6 T=    61. E= -.41286683E+03 F= -.41316507E+03 E0= -.41314261E+03  EK= 0.29825E+00 SP= 0.00E+00 SK= 0.00E+00
       N       E                     dE             d eps       ncg     rms          rms(c)
RMM:   1    -0.413156887606E+03    0.81865E-02   -0.10990E+01  4258   0.724E-01    0.901E-01
RMM:   2    -0.413165811278E+03   -0.89237E-02   -0.13231E-01  4200   0.100E-01    0.629E-01
RMM:   3    -0.413167533619E+03   -0.17223E-02   -0.91723E-03  5144   0.610E-02    0.270E-01
RMM:   4    -0.413197929000E+03   -0.30395E-01   -0.42444E-02  5131   0.173E-01    0.756E-01
RMM:   5    -0.413164606375E+03    0.33323E-01   -0.14307E-02  4757   0.126E-01    0.515E-02
RMM:   6    -0.413164712002E+03   -0.10563E-03   -0.23848E-03  5638   0.486E-02    0.193E-02
RMM:   7    -0.413164731746E+03   -0.19744E-04   -0.31815E-04  6019   0.150E-02    0.136E-02
RMM:   8    -0.413164731972E+03   -0.22580E-06   -0.44955E-05  5024   0.654E-03    0.709E-03
RMM:   9    -0.413164729520E+03    0.24516E-05   -0.77769E-06  3092   0.330E-03    0.315E-03
RMM:  10    -0.413164729511E+03    0.94151E-08   -0.19549E-06  2555   0.197E-03
    7 T=    61. E= -.41286628E+03 F= -.41316473E+03 E0= -.41314228E+03  EK= 0.29845E+00 SP= 0.00E+00 SK= 0.00E+00
       N       E                     dE             d eps       ncg     rms          rms(c)
RMM:   1    -0.413156492024E+03    0.82375E-02   -0.10988E+01  4270   0.722E-01    0.883E-01
RMM:   2    -0.413166963596E+03   -0.10472E-01   -0.13501E-01  4108   0.959E-02    0.637E-01
RMM:   3    -0.413166568692E+03    0.39490E-03   -0.75469E-03  5077   0.486E-02    0.205E-01
RMM:   4    -0.413211358328E+03   -0.44790E-01   -0.50345E-02  5150   0.187E-01    0.883E-01
RMM:   5    -0.413165158502E+03    0.46200E-01   -0.21514E-02  4798   0.148E-01    0.497E-02
RMM:   6    -0.413165373263E+03   -0.21476E-03   -0.34337E-03  5722   0.577E-02    0.195E-02
RMM:   7    -0.413165403974E+03   -0.30711E-04   -0.43060E-04  5987   0.169E-02    0.154E-02
RMM:   8    -0.413165408915E+03   -0.49414E-05   -0.56615E-05  5050   0.681E-03    0.858E-03
RMM:   9    -0.413165411290E+03   -0.23745E-05   -0.10006E-05  3338   0.337E-03    0.480E-03
RMM:  10    -0.413165415485E+03   -0.41958E-05   -0.26593E-06  2582   0.218E-03    0.281E-03
RMM:  11    -0.413165419410E+03   -0.39248E-05   -0.12768E-06  2531   0.166E-03    0.138E-03
RMM:  12    -0.413165422369E+03   -0.29592E-05   -0.83636E-07  2425   0.134E-03    0.369E-04
RMM:  13    -0.413165423714E+03   -0.13447E-05   -0.40294E-07  2013   0.979E-04    0.255E-04
RMM:  14    -0.413165424697E+03   -0.98293E-06   -0.27082E-07  1549   0.809E-04
    8 T=    61. E= -.41286656E+03 F= -.41316542E+03 E0= -.41314300E+03  EK= 0.29886E+00 SP= 0.00E+00 SK= 0.00E+00
       N       E                     dE             d eps       ncg     rms          rms(c)
RMM:   1    -0.413156822559E+03    0.86012E-02   -0.11051E+01  4279   0.723E-01    0.900E-01
RMM:   2    -0.413166989436E+03   -0.10167E-01   -0.13429E-01  4167   0.101E-01    0.639E-01
RMM:   3    -0.413165819774E+03    0.11697E-02   -0.69983E-03  4834   0.393E-02    0.161E-01
RMM:   4    -0.413193980565E+03   -0.28161E-01   -0.28595E-02  5161   0.141E-01    0.700E-01
RMM:   5    -0.413165324291E+03    0.28656E-01   -0.13945E-02  4816   0.117E-01    0.373E-02
RMM:   6    -0.413165503649E+03   -0.17936E-03   -0.22506E-03  5794   0.458E-02    0.204E-02
RMM:   7    -0.413165515370E+03   -0.11720E-04   -0.28002E-04  5877   0.141E-02    0.144E-02
RMM:   8    -0.413165516493E+03   -0.11235E-05   -0.38663E-05  4693   0.595E-03    0.790E-03
RMM:   9    -0.413165515946E+03    0.54727E-06   -0.79503E-06  3242   0.320E-03
    9 T=    61. E= -.41286649E+03 F= -.41316552E+03 E0= -.41314311E+03  EK= 0.29902E+00 SP= 0.00E+00 SK= 0.00E+00
       N       E                     dE             d eps       ncg     rms          rms(c)
RMM:   1    -0.413157363674E+03    0.81528E-02   -0.11033E+01  4294   0.730E-01    0.908E-01
RMM:   2    -0.413166736306E+03   -0.93726E-02   -0.13248E-01  4298   0.974E-02    0.631E-01
RMM:   3    -0.413171099669E+03   -0.43634E-02   -0.11566E-02  5157   0.772E-02    0.349E-01
RMM:   4    -0.413187492090E+03   -0.16392E-01   -0.35500E-02  5082   0.161E-01    0.620E-01
RMM:   5    -0.413165669304E+03    0.21823E-01   -0.84917E-03  4689   0.102E-01    0.525E-02
RMM:   6    -0.413165663119E+03    0.61845E-05   -0.15119E-03  5480   0.387E-02    0.203E-02
RMM:   7    -0.413165677846E+03   -0.14727E-04   -0.24058E-04  6013   0.143E-02    0.134E-02
RMM:   8    -0.413165677096E+03    0.74998E-06   -0.37649E-05  5037   0.632E-03    0.681E-03
RMM:   9    -0.413165673246E+03    0.38502E-05   -0.82509E-06  3306   0.372E-03    0.354E-03
RMM:  10    -0.413165672523E+03    0.72313E-06   -0.13489E-06  2531   0.195E-03
   10 T=    61. E= -.41286651E+03 F= -.41316567E+03 E0= -.41314329E+03  EK= 0.29917E+00 SP= 0.00E+00 SK= 0.00E+00
       N       E                     dE             d eps       ncg     rms          rms(c)
RMM:   1    -0.413157503670E+03    0.81696E-02   -0.10979E+01  4299   0.728E-01    0.884E-01
RMM:   2    -0.413167988373E+03   -0.10485E-01   -0.13400E-01  4162   0.961E-02    0.634E-01
RMM:   3    -0.413166789806E+03    0.11986E-02   -0.67993E-03  4924   0.410E-02    0.166E-01
RMM:   4    -0.413200751939E+03   -0.33962E-01   -0.34837E-02  5145   0.155E-01    0.767E-01
RMM:   5    -0.413166163976E+03    0.34588E-01   -0.16886E-02  4812   0.128E-01    0.404E-02
RMM:   6    -0.413166360275E+03   -0.19630E-03   -0.26124E-03  5762   0.502E-02    0.205E-02
RMM:   7    -0.413166375574E+03   -0.15299E-04   -0.33033E-04  5919   0.151E-02    0.147E-02
RMM:   8    -0.413166377371E+03   -0.17971E-05   -0.42255E-05  4705   0.607E-03    0.781E-03
RMM:   9    -0.413166377872E+03   -0.50063E-06   -0.90232E-06  3307   0.325E-03
   11 T=    61. E= -.41286681E+03 F= -.41316638E+03 E0= -.41314402E+03  EK= 0.29957E+00 SP= 0.00E+00 SK= 0.00E+00
       N       E                     dE             d eps       ncg     rms          rms(c)
RMM:   1    -0.413160864308E+03    0.55131E-02   -0.11093E+01  4299   0.760E-01    0.895E-01
RMM:   2    -0.413167775706E+03   -0.69114E-02   -0.13507E-01  4293   0.994E-02    0.642E-01
RMM:   3    -0.413171202210E+03   -0.34265E-02   -0.10826E-02  5155   0.743E-02    0.331E-01
RMM:   4    -0.413193719717E+03   -0.22518E-01   -0.41114E-02  5096   0.172E-01    0.689E-01
RMM:   5    -0.413166221868E+03    0.27498E-01   -0.11031E-02  4712   0.114E-01    0.539E-02
RMM:   6    -0.413166251572E+03   -0.29705E-04   -0.19308E-03  5544   0.434E-02    0.185E-02
RMM:   7    -0.413166273081E+03   -0.21509E-04   -0.27987E-04  6024   0.150E-02    0.131E-02
RMM:   8    -0.413166275735E+03   -0.26543E-05   -0.42784E-05  5069   0.644E-03    0.699E-03
RMM:   9    -0.413166276608E+03   -0.87280E-06   -0.87076E-06  3252   0.372E-03
   12 T=    61. E= -.41286641E+03 F= -.41316628E+03 E0= -.41314395E+03  EK= 0.29987E+00 SP= 0.00E+00 SK= 0.00E+00
       N       E                     dE             d eps       ncg     rms          rms(c)
RMM:   1    -0.413158576525E+03    0.76992E-02   -0.11081E+01  4294   0.744E-01    0.913E-01
RMM:   2    -0.413167980424E+03   -0.94039E-02   -0.13276E-01  4227   0.945E-02    0.633E-01
RMM:   3    -0.413166952345E+03    0.10281E-02   -0.70388E-03  4305   0.333E-02    0.153E-01
RMM:   4    -0.413169892032E+03   -0.29397E-02   -0.34672E-03  5145   0.489E-02    0.230E-01
RMM:   5    -0.413166928715E+03    0.29633E-02   -0.14943E-03  4839   0.379E-02    0.240E-02
RMM:   6    -0.413166925152E+03    0.35629E-05   -0.26729E-04  5786   0.160E-02    0.159E-02
RMM:   7    -0.413166920449E+03    0.47026E-05   -0.74076E-05  5219   0.856E-03    0.735E-03
RMM:   8    -0.413166914668E+03    0.57816E-05   -0.53188E-06  2924   0.306E-03    0.348E-03
RMM:   9    -0.413166913073E+03    0.15946E-05   -0.13560E-06  2531   0.178E-03    0.211E-03
RMM:  10    -0.413166910639E+03    0.24346E-05   -0.84967E-07  2390   0.139E-03    0.111E-03
RMM:  11    -0.413166907986E+03    0.26525E-05   -0.55690E-07  2118   0.109E-03    0.405E-04
RMM:  12    -0.413166906138E+03    0.18482E-05   -0.30284E-07  1650   0.834E-04    0.200E-04
RMM:  13    -0.413166904309E+03    0.18285E-05   -0.22470E-07  1452   0.750E-04    0.121E-04
RMM:  14    -0.413166902406E+03    0.19034E-05   -0.19187E-07  1418   0.702E-04    0.887E-05
RMM:  15    -0.413166899855E+03    0.25513E-05   -0.21819E-07  1411   0.705E-04    0.573E-05
RMM:  16    -0.413166899088E+03    0.76633E-06   -0.78659E-08   983   0.573E-04
   13 T=    61. E= -.41286644E+03 F= -.41316690E+03 E0= -.41314460E+03  EK= 0.30045E+00 SP= 0.00E+00 SK= 0.00E+00
       N       E                     dE             d eps       ncg     rms          rms(c)
RMM:   1    -0.413158553917E+03    0.83459E-02   -0.11002E+01  4293   0.741E-01    0.888E-01
RMM:   2    -0.413168874960E+03   -0.10321E-01   -0.13438E-01  4222   0.957E-02    0.633E-01
RMM:   3    -0.413167877163E+03    0.99780E-03   -0.68805E-03  4899   0.397E-02    0.168E-01
RMM:   4    -0.413201522970E+03   -0.33646E-01   -0.34602E-02  5143   0.155E-01    0.763E-01
RMM:   5    -0.413167273293E+03    0.34250E-01   -0.16616E-02  4799   0.128E-01    0.402E-02
RMM:   6    -0.413167477520E+03   -0.20423E-03   -0.27342E-03  5776   0.499E-02    0.211E-02
RMM:   7    -0.413167490373E+03   -0.12853E-04   -0.33005E-04  5876   0.151E-02    0.152E-02
RMM:   8    -0.413167489734E+03    0.63864E-06   -0.45334E-05  4824   0.630E-03    0.862E-03
RMM:   9    -0.413167487440E+03    0.22935E-05   -0.92636E-06  3357   0.335E-03    0.575E-03
RMM:  10    -0.413167487123E+03    0.31701E-06   -0.19746E-06  2550   0.205E-03
   14 T=    61. E= -.41286644E+03 F= -.41316749E+03 E0= -.41314522E+03  EK= 0.30104E+00 SP= 0.00E+00 SK= 0.00E+00
       N       E                     dE             d eps       ncg     rms          rms(c)
RMM:   1    -0.413158723161E+03    0.87643E-02   -0.11095E+01  4305   0.751E-01    0.892E-01
RMM:   2    -0.413169518150E+03   -0.10795E-01   -0.13679E-01  4282   0.989E-02    0.644E-01
RMM:   3    -0.413171075541E+03   -0.15574E-02   -0.95270E-03  5129   0.655E-02    0.290E-01
RMM:   4    -0.413202474476E+03   -0.31399E-01   -0.46335E-02  5107   0.181E-01    0.773E-01
RMM:   5    -0.413167497950E+03    0.34977E-01   -0.14865E-02  4729   0.128E-01    0.518E-02
RMM:   6    -0.413167600234E+03   -0.10228E-03   -0.24687E-03  5618   0.491E-02    0.178E-02
RMM:   7    -0.413167625928E+03   -0.25694E-04   -0.32544E-04  6010   0.154E-02    0.132E-02
RMM:   8    -0.413167629532E+03   -0.36034E-05   -0.45838E-05  5023   0.650E-03    0.705E-03
RMM:   9    -0.413167630019E+03   -0.48758E-06   -0.83317E-06  3101   0.337E-03
   15 T=    61. E= -.41286619E+03 F= -.41316763E+03 E0= -.41314540E+03  EK= 0.30144E+00 SP= 0.00E+00 SK= 0.00E+00
       N       E                     dE             d eps       ncg     rms          rms(c)
RMM:   1    -0.413160279233E+03    0.73503E-02   -0.11130E+01  4295   0.756E-01    0.915E-01
RMM:   2    -0.413169775778E+03   -0.94965E-02   -0.13399E-01  4249   0.100E-01    0.636E-01
RMM:   3    -0.413168766982E+03    0.10088E-02   -0.71986E-03  4837   0.375E-02    0.163E-01
RMM:   4    -0.413192785105E+03   -0.24018E-01   -0.24258E-02  5149   0.130E-01    0.647E-01
RMM:   5    -0.413168396121E+03    0.24389E-01   -0.11925E-02  4811   0.107E-01    0.356E-02
RMM:   6    -0.413168542473E+03   -0.14635E-03   -0.19419E-03  5850   0.419E-02    0.208E-02
RMM:   7    -0.413168545446E+03   -0.29731E-05   -0.23617E-04  5887   0.135E-02    0.143E-02
RMM:   8    -0.413168540768E+03    0.46780E-05   -0.35986E-05  4665   0.587E-03    0.768E-03
RMM:   9    -0.413168535642E+03    0.51258E-05   -0.76072E-06  3226   0.319E-03    0.538E-03
RMM:  10    -0.413168532495E+03    0.31475E-05   -0.14630E-06  2538   0.189E-03    0.333E-03
RMM:  11    -0.413168528088E+03    0.44065E-05   -0.15523E-06  2542   0.190E-03    0.154E-03
RMM:  12    -0.413168524249E+03    0.38392E-05   -0.88744E-07  2467   0.144E-03    0.555E-04
RMM:  13    -0.413168523779E+03    0.46965E-06   -0.26822E-07  1908   0.885E-04
   16 T=    61. E= -.41286650E+03 F= -.41316852E+03 E0= -.41314633E+03  EK= 0.30202E+00 SP= 0.00E+00 SK= 0.00E+00
       N       E                     dE             d eps       ncg     rms          rms(c)
RMM:   1    -0.413160237419E+03    0.82868E-02   -0.11045E+01  4298   0.753E-01    0.895E-01
RMM:   2    -0.413170437510E+03   -0.10200E-01   -0.13466E-01  4251   0.982E-02    0.632E-01
RMM:   3    -0.413169339611E+03    0.10979E-02   -0.69186E-03  4893   0.405E-02    0.169E-01
RMM:   4    -0.413202017213E+03   -0.32678E-01   -0.33489E-02  5144   0.152E-01    0.752E-01
RMM:   5    -0.413168803748E+03    0.33213E-01   -0.16185E-02  4803   0.126E-01    0.398E-02
RMM:   6    -0.413168999713E+03   -0.19597E-03   -0.26560E-03  5787   0.494E-02    0.215E-02
RMM:   7    -0.413169009125E+03   -0.94118E-05   -0.31921E-04  5902   0.150E-02    0.153E-02
RMM:   8    -0.413169006265E+03    0.28595E-05   -0.45424E-05  4846   0.634E-03    0.882E-03
RMM:   9    -0.413169001559E+03    0.47066E-05   -0.94074E-06  3387   0.341E-03    0.588E-03
RMM:  10    -0.413168998830E+03    0.27289E-05   -0.19594E-06  2550   0.207E-03    0.350E-03
RMM:  11    -0.413168995643E+03    0.31867E-05   -0.17586E-06  2551   0.200E-03    0.164E-03
RMM:  12    -0.413168992986E+03    0.26568E-05   -0.91011E-07  2476   0.152E-03    0.528E-04
RMM:  13    -0.413168992494E+03    0.49221E-06   -0.32306E-07  2084   0.968E-04
   17 T=    62. E= -.41286651E+03 F= -.41316899E+03 E0= -.41314683E+03  EK= 0.30248E+00 SP= 0.00E+00 SK= 0.00E+00
       N       E                     dE             d eps       ncg     rms          rms(c)
RMM:   1    -0.413160615142E+03    0.83778E-02   -0.11119E+01  4298   0.767E-01    0.890E-01
RMM:   2    -0.413171455738E+03   -0.10841E-01   -0.13728E-01  4260   0.101E-01    0.644E-01
RMM:   3    -0.413170003044E+03    0.14527E-02   -0.69039E-03  4912   0.406E-02    0.167E-01
RMM:   4    -0.413205411329E+03   -0.35408E-01   -0.36665E-02  5141   0.159E-01    0.782E-01
RMM:   5    -0.413169328034E+03    0.36083E-01   -0.17501E-02  4796   0.131E-01    0.408E-02
RMM:   6    -0.413169540939E+03   -0.21290E-03   -0.28887E-03  5784   0.514E-02    0.210E-02
RMM:   7    -0.413169555360E+03   -0.14421E-04   -0.33737E-04  5923   0.154E-02    0.153E-02
RMM:   8    -0.413169555743E+03   -0.38280E-06   -0.48188E-05  4887   0.647E-03    0.893E-03
RMM:   9    -0.413169553806E+03    0.19371E-05   -0.99313E-06  3437   0.348E-03    0.587E-03
RMM:  10    -0.413169554023E+03   -0.21736E-06   -0.21670E-06  2561   0.212E-03
   18 T=    62. E= -.41286644E+03 F= -.41316955E+03 E0= -.41314744E+03  EK= 0.30311E+00 SP= 0.00E+00 SK= 0.00E+00
       N       E                     dE             d eps       ncg     rms          rms(c)
RMM:   1    -0.413162255085E+03    0.72987E-02   -0.11174E+01  4303   0.765E-01    0.914E-01
RMM:   2    -0.413172010870E+03   -0.97558E-02   -0.13558E-01  4301   0.100E-01    0.640E-01
RMM:   3    -0.413174677937E+03   -0.26671E-02   -0.10174E-02  5133   0.688E-02    0.307E-01
RMM:   4    -0.413200164464E+03   -0.25487E-01   -0.41435E-02  5091   0.172E-01    0.713E-01
RMM:   5    -0.413170628405E+03    0.29536E-01   -0.12242E-02  4712   0.118E-01    0.502E-02
RMM:   6    -0.413170699663E+03   -0.71258E-04   -0.20836E-03  5605   0.450E-02    0.195E-02
RMM:   7    -0.413170711122E+03   -0.11459E-04   -0.27723E-04  5987   0.144E-02    0.135E-02
RMM:   8    -0.413170707840E+03    0.32815E-05   -0.41713E-05  4996   0.638E-03    0.695E-03
RMM:   9    -0.413170700353E+03    0.74876E-05   -0.75813E-06  3019   0.331E-03    0.308E-03
RMM:  10    -0.413170697667E+03    0.26862E-05   -0.18144E-06  2551   0.193E-03    0.187E-03
RMM:  11    -0.413170693677E+03    0.39899E-05   -0.10146E-06  2511   0.153E-03    0.109E-03
RMM:  12    -0.413170690971E+03    0.27058E-05   -0.50001E-07  2168   0.112E-03    0.489E-04
RMM:  13    -0.413170688683E+03    0.22875E-05   -0.29781E-07  1804   0.884E-04    0.219E-04
RMM:  14    -0.413170686876E+03    0.18070E-05   -0.18859E-07  1445   0.748E-04    0.135E-04
RMM:  15    -0.413170683742E+03    0.31340E-05   -0.21171E-07  1649   0.761E-04    0.141E-04
RMM:  16    -0.413170682184E+03    0.15583E-05   -0.11557E-07  1237   0.627E-04    0.115E-04
RMM:  17    -0.413170680213E+03    0.19704E-05   -0.93067E-08  1182   0.606E-04    0.455E-05
RMM:  18    -0.413170678758E+03    0.14551E-05   -0.63539E-08  1024   0.563E-04    0.350E-05
RMM:  19    -0.413170678137E+03    0.62177E-06   -0.33388E-08   849   0.529E-04
   19 T=    62. E= -.41286670E+03 F= -.41317068E+03 E0= -.41314860E+03  EK= 0.30398E+00 SP= 0.00E+00 SK= 0.00E+00
       N       E                     dE             d eps       ncg     rms          rms(c)
RMM:   1    -0.413162741803E+03    0.79370E-02   -0.11121E+01  4297   0.776E-01    0.904E-01
RMM:   2    -0.413172431130E+03   -0.96893E-02   -0.13538E-01  4249   0.999E-02    0.633E-01
RMM:   3    -0.413171639498E+03    0.79163E-03   -0.71276E-03  4956   0.416E-02    0.180E-01
RMM:   4    -0.413210343005E+03   -0.38704E-01   -0.40566E-02  5144   0.167E-01    0.817E-01
RMM:   5    -0.413170904901E+03    0.39438E-01   -0.19188E-02  4791   0.137E-01    0.440E-02
RMM:   6    -0.413171118976E+03   -0.21407E-03   -0.31428E-03  5761   0.539E-02    0.227E-02
RMM:   7    -0.413171129074E+03   -0.10098E-04   -0.37855E-04  5888   0.162E-02    0.163E-02
RMM:   8    -0.413171124540E+03    0.45339E-05   -0.52741E-05  4999   0.675E-03    0.942E-03
RMM:   9    -0.413171117818E+03    0.67221E-05   -0.10683E-05  3502   0.355E-03    0.610E-03
RMM:  10    -0.413171113359E+03    0.44594E-05   -0.21980E-06  2552   0.214E-03    0.356E-03
RMM:  11    -0.413171108948E+03    0.44109E-05   -0.16666E-06  2538   0.197E-03    0.168E-03
RMM:  12    -0.413171105408E+03    0.35397E-05   -0.86970E-07  2474   0.153E-03    0.495E-04
RMM:  13    -0.413171104687E+03    0.72144E-06   -0.34358E-07  2138   0.101E-03
   20 T=    62. E= -.41286646E+03 F= -.41317110E+03 E0= -.41314907E+03  EK= 0.30464E+00 SP= 0.00E+00 SK= 0.00E+00
       N       E                     dE             d eps       ncg     rms          rms(c)
RMM:   1    -0.413163128187E+03    0.79772E-02   -0.11158E+01  4300   0.776E-01    0.890E-01
RMM:   2    -0.413173831008E+03   -0.10703E-01   -0.13859E-01  4267   0.102E-01    0.645E-01
RMM:   3    -0.413172494007E+03    0.13370E-02   -0.69531E-03  4919   0.423E-02    0.169E-01
RMM:   4    -0.413208752044E+03   -0.36258E-01   -0.37633E-02  5141   0.161E-01    0.791E-01
RMM:   5    -0.413171815348E+03    0.36937E-01   -0.18081E-02  4797   0.133E-01    0.410E-02
RMM:   6    -0.413172024767E+03   -0.20942E-03   -0.29606E-03  5790   0.522E-02    0.212E-02
RMM:   7    -0.413172039539E+03   -0.14772E-04   -0.34788E-04  5918   0.156E-02    0.154E-02
RMM:   8    -0.413172038702E+03    0.83723E-06   -0.51181E-05  4935   0.667E-03    0.920E-03
RMM:   9    -0.413172035062E+03    0.36394E-05   -0.10582E-05  3497   0.361E-03    0.602E-03
RMM:  10    -0.413172033827E+03    0.12360E-05   -0.22707E-06  2568   0.219E-03    0.354E-03
RMM:  11    -0.413172032668E+03    0.11583E-05   -0.19290E-06  2568   0.206E-03    0.168E-03
RMM:  12    -0.413172031506E+03    0.11627E-05   -0.88239E-07  2475   0.152E-03    0.531E-04
RMM:  13    -0.413172031257E+03    0.24849E-06   -0.33087E-07  2107   0.980E-04
   21 T=    62. E= -.41286647E+03 F= -.41317203E+03 E0= -.41315004E+03  EK= 0.30556E+00 SP= 0.00E+00 SK= 0.00E+00
       N       E                     dE             d eps       ncg     rms          rms(c)
RMM:   1    -0.413164448482E+03    0.75830E-02   -0.11236E+01  4298   0.780E-01    0.911E-01
RMM:   2    -0.413174637520E+03   -0.10189E-01   -0.13748E-01  4268   0.997E-02    0.644E-01
RMM:   3    -0.413173611796E+03    0.10257E-02   -0.71980E-03  4900   0.427E-02    0.174E-01
RMM:   4    -0.413210199015E+03   -0.36587E-01   -0.37882E-02  5141   0.161E-01    0.794E-01
RMM:   5    -0.413172982318E+03    0.37217E-01   -0.18243E-02  4791   0.133E-01    0.420E-02
RMM:   6    -0.413173188525E+03   -0.20621E-03   -0.30006E-03  5775   0.528E-02    0.222E-02
RMM:   7    -0.413173200045E+03   -0.11520E-04   -0.35749E-04  5898   0.159E-02    0.160E-02
RMM:   8    -0.413173195986E+03    0.40596E-05   -0.51923E-05  4971   0.673E-03    0.944E-03
RMM:   9    -0.413173189269E+03    0.67163E-05   -0.10537E-05  3500   0.357E-03    0.622E-03
RMM:  10    -0.413173184930E+03    0.43396E-05   -0.21672E-06  2562   0.215E-03    0.368E-03
RMM:  11    -0.413173180167E+03    0.47627E-05   -0.18309E-06  2555   0.206E-03    0.171E-03
RMM:  12    -0.413173176473E+03    0.36935E-05   -0.87280E-07  2476   0.154E-03    0.530E-04
RMM:  13    -0.413173175748E+03    0.72555E-06   -0.33336E-07  2128   0.997E-04
   22 T=    62. E= -.41286661E+03 F= -.41317318E+03 E0= -.41315123E+03  EK= 0.30656E+00 SP= 0.00E+00 SK= 0.00E+00
       N       E                     dE             d eps       ncg     rms          rms(c)
RMM:   1    -0.413165610982E+03    0.75655E-02   -0.11226E+01  4297   0.793E-01    0.914E-01
RMM:   2    -0.413175298467E+03   -0.96875E-02   -0.13614E-01  4269   0.107E-01    0.637E-01
RMM:   3    -0.413174382387E+03    0.91608E-03   -0.72655E-03  4874   0.442E-02    0.176E-01
RMM:   4    -0.413209561651E+03   -0.35179E-01   -0.36295E-02  5146   0.158E-01    0.780E-01
RMM:   5    -0.413173751605E+03    0.35810E-01   -0.17557E-02  4795   0.131E-01    0.417E-02
RMM:   6    -0.413173945492E+03   -0.19389E-03   -0.28888E-03  5786   0.517E-02    0.229E-02
RMM:   7    -0.413173952842E+03   -0.73504E-05   -0.33781E-04  5900   0.157E-02    0.159E-02
RMM:   8    -0.413173946565E+03    0.62775E-05   -0.51953E-05  4972   0.679E-03    0.961E-03
RMM:   9    -0.413173937596E+03    0.89689E-05   -0.10549E-05  3536   0.363E-03    0.636E-03
RMM:  10    -0.413173931205E+03    0.63910E-05   -0.21073E-06  2565   0.217E-03    0.380E-03
RMM:  11    -0.413173923706E+03    0.74987E-05   -0.19397E-06  2569   0.212E-03    0.174E-03
RMM:  12    -0.413173918129E+03    0.55768E-05   -0.88070E-07  2475   0.157E-03    0.557E-04
RMM:  13    -0.413173917109E+03    0.10205E-05   -0.33520E-07  2124   0.100E-03    0.394E-04
RMM:  14    -0.413173915834E+03    0.12750E-05   -0.16715E-07  1598   0.758E-04    0.238E-04
RMM:  15    -0.413173911289E+03    0.45445E-05   -0.19736E-07  1836   0.797E-04    0.276E-04
RMM:  16    -0.413173910821E+03    0.46830E-06   -0.63411E-08   996   0.587E-04
   23 T=    63. E= -.41286642E+03 F= -.41317391E+03 E0= -.41315202E+03  EK= 0.30749E+00 SP= 0.00E+00 SK= 0.00E+00
       N       E                     dE             d eps       ncg     rms          rms(c)
RMM:   1    -0.413166586020E+03    0.73253E-02   -0.11220E+01  4293   0.790E-01    0.893E-01
RMM:   2    -0.413177387177E+03   -0.10801E-01   -0.13922E-01  4270   0.104E-01    0.644E-01
RMM:   3    -0.413175774212E+03    0.16130E-02   -0.68772E-03  4832   0.429E-02    0.167E-01
RMM:   4    -0.413207345916E+03   -0.31572E-01   -0.32316E-02  5152   0.149E-01    0.739E-01
RMM:   5    -0.413175280950E+03    0.32065E-01   -0.15820E-02  4803   0.124E-01    0.383E-02
RMM:   6    -0.413175454226E+03   -0.17328E-03   -0.25638E-03  5781   0.485E-02    0.210E-02
RMM:   7    -0.413175465260E+03   -0.11034E-04   -0.29526E-04  5877   0.148E-02    0.146E-02
RMM:   8    -0.413175463506E+03    0.17532E-05   -0.47422E-05  4925   0.649E-03    0.893E-03
RMM:   9    -0.413175458526E+03    0.49808E-05   -0.99605E-06  3509   0.355E-03    0.592E-03
RMM:  10    -0.413175456275E+03    0.22504E-05   -0.19218E-06  2545   0.209E-03    0.358E-03
RMM:  11    -0.413175453673E+03    0.26027E-05   -0.18685E-06  2559   0.207E-03    0.167E-03
RMM:  12    -0.413175451573E+03    0.20992E-05   -0.82790E-07  2463   0.151E-03    0.555E-04
RMM:  13    -0.413175451191E+03    0.38220E-06   -0.30767E-07  2074   0.961E-04
   24 T=    63. E= -.41286673E+03 F= -.41317545E+03 E0= -.41315360E+03  EK= 0.30872E+00 SP= 0.00E+00 SK= 0.00E+00
       N       E                     dE             d eps       ncg     rms          rms(c)
RMM:   1    -0.413167627275E+03    0.78243E-02   -0.11322E+01  4295   0.797E-01    0.908E-01
RMM:   2    -0.413178256813E+03   -0.10630E-01   -0.13926E-01  4273   0.106E-01    0.649E-01
RMM:   3    -0.413176744305E+03    0.15125E-02   -0.70196E-03  4786   0.434E-02    0.166E-01
RMM:   4    -0.413206226849E+03   -0.29483E-01   -0.30014E-02  5153   0.144E-01    0.715E-01
RMM:   5    -0.413176269898E+03    0.29957E-01   -0.14755E-02  4807   0.120E-01    0.373E-02
RMM:   6    -0.413176427796E+03   -0.15790E-03   -0.23951E-03  5805   0.467E-02    0.208E-02
RMM:   7    -0.413176435829E+03   -0.80330E-05   -0.25757E-04  5820   0.140E-02    0.135E-02
RMM:   8    -0.413176433428E+03    0.24010E-05   -0.45802E-05  4907   0.635E-03    0.906E-03
RMM:   9    -0.413176426782E+03    0.66461E-05   -0.10466E-05  3678   0.367E-03    0.598E-03
RMM:  10    -0.413176423366E+03    0.34157E-05   -0.18690E-06  2540   0.214E-03    0.366E-03
RMM:  11    -0.413176419059E+03    0.43073E-05   -0.19957E-06  2571   0.214E-03    0.171E-03
RMM:  12    -0.413176415711E+03    0.33473E-05   -0.81350E-07  2469   0.153E-03    0.549E-04
RMM:  13    -0.413176415108E+03    0.60317E-06   -0.30444E-07  2085   0.958E-04
   25 T=    63. E= -.41286657E+03 F= -.41317642E+03 E0= -.41315462E+03  EK= 0.30984E+00 SP= 0.00E+00 SK= 0.00E+00
       N       E                     dE             d eps       ncg     rms          rms(c)
RMM:   1    -0.413169268039E+03    0.71477E-02   -0.11351E+01  4295   0.810E-01    0.924E-01
RMM:   2    -0.413178785722E+03   -0.95177E-02   -0.13826E-01  4272   0.109E-01    0.642E-01
RMM:   3    -0.413177822827E+03    0.96290E-03   -0.73048E-03  4725   0.434E-02    0.169E-01
RMM:   4    -0.413203289214E+03   -0.25466E-01   -0.25725E-02  5154   0.134E-01    0.666E-01
RMM:   5    -0.413177466146E+03    0.25823E-01   -0.12838E-02  4808   0.111E-01    0.364E-02
RMM:   6    -0.413177596031E+03   -0.12989E-03   -0.20575E-03  5811   0.432E-02    0.209E-02
RMM:   7    -0.413177597710E+03   -0.16783E-05   -0.21227E-04  5706   0.129E-02    0.121E-02
RMM:   8    -0.413177591476E+03    0.62334E-05   -0.36733E-05  4733   0.576E-03    0.830E-03
RMM:   9    -0.413177583616E+03    0.78605E-05   -0.97408E-06  3619   0.349E-03    0.583E-03
RMM:  10    -0.413177578180E+03    0.54356E-05   -0.17205E-06  2550   0.211E-03    0.367E-03
RMM:  11    -0.413177569362E+03    0.88178E-05   -0.19715E-06  2568   0.215E-03    0.168E-03
RMM:  12    -0.413177562380E+03    0.69826E-05   -0.78621E-07  2469   0.154E-03    0.604E-04
RMM:  13    -0.413177561486E+03    0.89436E-06   -0.27189E-07  2075   0.936E-04
   26 T=    63. E= -.41286638E+03 F= -.41317756E+03 E0= -.41315581E+03  EK= 0.31118E+00 SP= 0.00E+00 SK= 0.00E+00
       N       E                     dE             d eps       ncg     rms          rms(c)
RMM:   1    -0.413170253681E+03    0.73087E-02   -0.11314E+01  4294   0.806E-01    0.899E-01
RMM:   2    -0.413180897751E+03   -0.10644E-01   -0.13981E-01  4269   0.105E-01    0.644E-01
RMM:   3    -0.413179625264E+03    0.12725E-02   -0.69194E-03  4613   0.416E-02    0.161E-01
RMM:   4    -0.413196487875E+03   -0.16863E-01   -0.17087E-02  5157   0.109E-01    0.544E-01
RMM:   5    -0.413179409516E+03    0.17078E-01   -0.85576E-03  4819   0.901E-02    0.304E-02
RMM:   6    -0.413179484832E+03   -0.75316E-04   -0.13327E-03  5838   0.345E-02    0.179E-02
RMM:   7    -0.413179485434E+03   -0.60278E-06   -0.13368E-04  5515   0.106E-02    0.928E-03
RMM:   8    -0.413179478861E+03    0.65734E-05   -0.20829E-05  4140   0.451E-03    0.585E-03
RMM:   9    -0.413179476015E+03    0.28462E-05   -0.50442E-06  2909   0.270E-03    0.451E-03
RMM:  10    -0.413179473266E+03    0.27485E-05   -0.10194E-06  2510   0.169E-03    0.304E-03
RMM:  11    -0.413179467175E+03    0.60914E-05   -0.14723E-06  2525   0.192E-03    0.146E-03
RMM:  12    -0.413179464378E+03    0.27973E-05   -0.58955E-07  2384   0.130E-03    0.700E-04
RMM:  13    -0.413179463693E+03    0.68504E-06   -0.19322E-07  1742   0.806E-04
   27 T=    64. E= -.41286667E+03 F= -.41317946E+03 E0= -.41315777E+03  EK= 0.31279E+00 SP= 0.00E+00 SK= 0.00E+00
       N       E                     dE             d eps       ncg     rms          rms(c)
RMM:   1    -0.413171658906E+03    0.78055E-02   -0.11443E+01  4290   0.837E-01    0.908E-01
RMM:   2    -0.413182223110E+03   -0.10564E-01   -0.14295E-01  4268   0.108E-01    0.656E-01
RMM:   3    -0.413180695468E+03    0.15276E-02   -0.70606E-03  4472   0.430E-02    0.157E-01
RMM:   4    -0.413190166878E+03   -0.94714E-02   -0.99313E-03  5152   0.857E-02    0.411E-01
RMM:   5    -0.413180535538E+03    0.96313E-02   -0.47603E-03  4824   0.673E-02    0.260E-02
RMM:   6    -0.413180564218E+03   -0.28680E-04   -0.73935E-04  5846   0.258E-02    0.164E-02
RMM:   7    -0.413180565457E+03   -0.12391E-05   -0.10468E-04  5503   0.992E-03    0.102E-02
RMM:   8    -0.413180556810E+03    0.86469E-05   -0.19511E-05  4261   0.486E-03    0.490E-03
RMM:   9    -0.413180554574E+03    0.22361E-05   -0.36615E-06  2804   0.259E-03    0.374E-03
RMM:  10    -0.413180552021E+03    0.25536E-05   -0.74578E-07  2482   0.153E-03    0.236E-03
RMM:  11    -0.413180548322E+03    0.36981E-05   -0.71621E-07  2476   0.135E-03    0.110E-03
RMM:  12    -0.413180545239E+03    0.30831E-05   -0.41336E-07  2127   0.102E-03    0.391E-04
RMM:  13    -0.413180544276E+03    0.96364E-06   -0.15665E-07  1362   0.715E-04
   28 T=    64. E= -.41286634E+03 F= -.41318054E+03 E0= -.41315890E+03  EK= 0.31421E+00 SP= 0.00E+00 SK= 0.00E+00
       N       E                     dE             d eps       ncg     rms          rms(c)
RMM:   1    -0.413184773264E+03   -0.42280E-02   -0.11613E+01  4291   0.879E-01    0.932E-01
RMM:   2    -0.413183895639E+03    0.87763E-03   -0.14540E-01  4271   0.113E-01    0.648E-01
RMM:   3    -0.413182697611E+03    0.11980E-02   -0.74316E-03  4426   0.413E-02    0.168E-01
RMM:   4    -0.413189082740E+03   -0.63851E-02   -0.68683E-03  5172   0.701E-02    0.336E-01
RMM:   5    -0.413182700274E+03    0.63825E-02   -0.31698E-03  4830   0.551E-02    0.270E-02
RMM:   6    -0.413182714052E+03   -0.13778E-04   -0.54694E-04  5809   0.222E-02    0.185E-02
RMM:   7    -0.413182705912E+03    0.81399E-05   -0.10718E-04  5350   0.102E-02    0.987E-03
RMM:   8    -0.413182694799E+03    0.11113E-04   -0.12002E-05  3677   0.418E-03    0.426E-03
RMM:   9    -0.413182690265E+03    0.45344E-05   -0.21452E-06  2650   0.212E-03    0.317E-03
RMM:  10    -0.413182684327E+03    0.59376E-05   -0.78246E-07  2470   0.150E-03    0.185E-03
RMM:  11    -0.413182677162E+03    0.71649E-05   -0.58344E-07  2397   0.126E-03    0.784E-04
RMM:  12    -0.413182672116E+03    0.50459E-05   -0.30178E-07  1985   0.936E-04    0.305E-04
RMM:  13    -0.413182670055E+03    0.20612E-05   -0.14029E-07  1320   0.705E-04    0.171E-04
RMM:  14    -0.413182666331E+03    0.37246E-05   -0.10731E-07  1243   0.679E-04    0.982E-05
RMM:  15    -0.413182662100E+03    0.42304E-05   -0.98568E-08  1332   0.673E-04    0.107E-04
RMM:  16    -0.413182659968E+03    0.21326E-05   -0.60686E-08  1135   0.603E-04    0.630E-05
RMM:  17    -0.413182656262E+03    0.37053E-05   -0.69684E-08  1246   0.610E-04    0.450E-05
RMM:  18    -0.413182655868E+03    0.39381E-06   -0.24821E-08   777   0.511E-04
   29 T=    64. E= -.41286668E+03 F= -.41318266E+03 E0= -.41316106E+03  EK= 0.31598E+00 SP= 0.00E+00 SK= 0.00E+00
       N       E                     dE             d eps       ncg     rms          rms(c)
RMM:   1    -0.413175333506E+03    0.73228E-02   -0.11455E+01  4289   0.833E-01    0.909E-01
RMM:   2    -0.413185997822E+03   -0.10664E-01   -0.14275E-01  4265   0.110E-01    0.647E-01
RMM:   3    -0.413184554096E+03    0.14437E-02   -0.70878E-03  4437   0.441E-02    0.162E-01
RMM:   4    -0.413192326332E+03   -0.77722E-02   -0.82989E-03  5153   0.783E-02    0.373E-01
RMM:   5    -0.413184439614E+03    0.78867E-02   -0.39602E-03  4824   0.612E-02    0.264E-02
RMM:   6    -0.413184456066E+03   -0.16452E-04   -0.61724E-04  5828   0.238E-02    0.179E-02
RMM:   7    -0.413184451857E+03    0.42088E-05   -0.10904E-04  5415   0.102E-02    0.101E-02
RMM:   8    -0.413184442023E+03    0.98344E-05   -0.14537E-05  3936   0.451E-03    0.429E-03
RMM:   9    -0.413184438885E+03    0.31380E-05   -0.27896E-06  2724   0.229E-03    0.323E-03
RMM:  10    -0.413184435070E+03    0.38145E-05   -0.72802E-07  2461   0.145E-03    0.198E-03
RMM:  11    -0.413184429984E+03    0.50866E-05   -0.59805E-07  2426   0.126E-03    0.886E-04
RMM:  12    -0.413184426394E+03    0.35898E-05   -0.31797E-07  2006   0.938E-04    0.343E-04
RMM:  13    -0.413184425017E+03    0.13768E-05   -0.13872E-07  1305   0.697E-04    0.180E-04
RMM:  14    -0.413184422825E+03    0.21926E-05   -0.98530E-08  1140   0.656E-04    0.917E-05
RMM:  15    -0.413184419817E+03    0.30076E-05   -0.87363E-08  1198   0.658E-04    0.103E-04
RMM:  16    -0.413184418926E+03    0.89157E-06   -0.45202E-08   923   0.588E-04
   30 T=    65. E= -.41286666E+03 F= -.41318442E+03 E0= -.41316287E+03  EK= 0.31776E+00 SP= 0.00E+00 SK= 0.00E+00
       N       E                     dE             d eps       ncg     rms          rms(c)
RMM:   1    -0.413177569990E+03    0.68498E-02   -0.11591E+01  4291   0.872E-01    0.910E-01
RMM:   2    -0.413188502558E+03   -0.10933E-01   -0.14835E-01  4272   0.120E-01    0.661E-01
RMM:   3    -0.413186149998E+03    0.23526E-02   -0.70164E-03  4396   0.422E-02    0.159E-01
RMM:   4    -0.413191094899E+03   -0.49449E-02   -0.56218E-03  5149   0.636E-02    0.296E-01
RMM:   5    -0.413186132194E+03    0.49627E-02   -0.24862E-03  4821   0.487E-02    0.243E-02
RMM:   6    -0.413186139015E+03   -0.68210E-05   -0.40636E-04  5787   0.196E-02    0.175E-02
RMM:   7    -0.413186135957E+03    0.30583E-05   -0.87745E-05  5262   0.929E-03    0.818E-03
RMM:   8    -0.413186129957E+03    0.59997E-05   -0.10196E-05  3462   0.387E-03    0.378E-03
RMM:   9    -0.413186128417E+03    0.15406E-05   -0.15700E-06  2570   0.195E-03    0.267E-03
RMM:  10    -0.413186125693E+03    0.27233E-05   -0.71971E-07  2434   0.136E-03    0.149E-03
RMM:  11    -0.413186122653E+03    0.30401E-05   -0.50936E-07  2247   0.112E-03    0.588E-04
RMM:  12    -0.413186120497E+03    0.21562E-05   -0.26266E-07  1765   0.854E-04    0.239E-04
RMM:  13    -0.413186119349E+03    0.11481E-05   -0.13130E-07  1171   0.684E-04    0.141E-04
RMM:  14    -0.413186117647E+03    0.17014E-05   -0.10771E-07  1182   0.667E-04    0.786E-05
RMM:  15    -0.413186115429E+03    0.22186E-05   -0.99948E-08  1290   0.662E-04    0.794E-05
RMM:  16    -0.413186114552E+03    0.87697E-06   -0.49312E-08   932   0.574E-04
   31 T=    65. E= -.41286645E+03 F= -.41318611E+03 E0= -.41316462E+03  EK= 0.31966E+00 SP= 0.00E+00 SK= 0.00E+00
       N       E                     dE             d eps       ncg     rms          rms(c)
RMM:   1    -0.413191349567E+03   -0.52341E-02   -0.11794E+01  4295   0.934E-01    0.937E-01
RMM:   2    -0.413190324835E+03    0.10247E-02   -0.15029E-01  4269   0.121E-01    0.656E-01
RMM:   3    -0.413188937386E+03    0.13874E-02   -0.74858E-03  4326   0.503E-02    0.169E-01
RMM:   4    -0.413192686297E+03   -0.37489E-02   -0.44496E-03  5128   0.588E-02    0.257E-01
RMM:   5    -0.413188958869E+03    0.37274E-02   -0.18188E-03  4819   0.422E-02    0.263E-02
RMM:   6    -0.413188958562E+03    0.30690E-06   -0.34142E-04  5747   0.181E-02    0.191E-02
RMM:   7    -0.413188944704E+03    0.13858E-04   -0.88864E-05  5161   0.934E-03    0.779E-03
RMM:   8    -0.413188936529E+03    0.81747E-05   -0.80487E-06  3270   0.361E-03    0.381E-03
RMM:   9    -0.413188933272E+03    0.32576E-05   -0.11448E-06  2526   0.182E-03    0.257E-03
RMM:  10    -0.413188926098E+03    0.71736E-05   -0.72139E-07  2455   0.137E-03    0.128E-03
RMM:  11    -0.413188920637E+03    0.54610E-05   -0.39153E-07  2124   0.102E-03    0.533E-04
RMM:  12    -0.413188916105E+03    0.45320E-05   -0.21365E-07  1663   0.811E-04    0.207E-04
RMM:  13    -0.413188913376E+03    0.27295E-05   -0.11531E-07  1192   0.678E-04    0.127E-04
RMM:  14    -0.413188909943E+03    0.34330E-05   -0.89078E-08  1186   0.658E-04    0.818E-05
RMM:  15    -0.413188905332E+03    0.46111E-05   -0.93055E-08  1409   0.668E-04    0.811E-05
RMM:  16    -0.413188903741E+03    0.15908E-05   -0.47815E-08   985   0.558E-04    0.537E-05
RMM:  17    -0.413188901124E+03    0.26169E-05   -0.44335E-08  1007   0.559E-04    0.268E-05
RMM:  18    -0.413188900700E+03    0.42374E-06   -0.19632E-08   719   0.507E-04
   32 T=    66. E= -.41286692E+03 F= -.41318890E+03 E0= -.41316745E+03  EK= 0.32198E+00 SP= 0.00E+00 SK= 0.00E+00
       N       E                     dE             d eps       ncg     rms          rms(c)
RMM:   1    -0.413193040502E+03   -0.41394E-02   -0.11770E+01  4294   0.947E-01    0.924E-01
RMM:   2    -0.413192565162E+03    0.47534E-03   -0.15999E-01  4277   0.134E-01    0.654E-01
RMM:   3    -0.413190784413E+03    0.17807E-02   -0.69408E-03  4131   0.403E-02    0.182E-01
RMM:   4    -0.413190857784E+03   -0.73371E-04   -0.13299E-03  4774   0.266E-02    0.434E-02
RMM:   5    -0.413190788472E+03    0.69312E-04   -0.88364E-05  4762   0.961E-03    0.286E-02
RMM:   6    -0.413190767380E+03    0.21092E-04   -0.81851E-05  5149   0.944E-03    0.184E-02
RMM:   7    -0.413190747624E+03    0.19756E-04   -0.56415E-05  4450   0.737E-03    0.575E-03
RMM:   8    -0.413190744420E+03    0.32034E-05   -0.31891E-06  2718   0.273E-03    0.305E-03
RMM:   9    -0.413190742612E+03    0.18080E-05   -0.61456E-07  2307   0.142E-03    0.170E-03
RMM:  10    -0.413190735220E+03    0.73922E-05   -0.39172E-07  1741   0.938E-04    0.620E-04
RMM:  11    -0.413190729553E+03    0.56674E-05   -0.18206E-07  1461   0.729E-04    0.271E-04
RMM:  12    -0.413190727000E+03    0.25523E-05   -0.69391E-08  1064   0.591E-04    0.155E-04
RMM:  13    -0.413190720900E+03    0.61006E-05   -0.92988E-08  1150   0.630E-04    0.103E-04
RMM:  14    -0.413190717143E+03    0.37570E-05   -0.48187E-08   905   0.557E-04    0.804E-05
RMM:  15    -0.413190715609E+03    0.15334E-05   -0.18960E-08   656   0.502E-04    0.418E-05
RMM:  16    -0.413190712388E+03    0.32211E-05   -0.32615E-08   822   0.533E-04    0.316E-05
RMM:  17    -0.413190711928E+03    0.46062E-06   -0.66406E-09   505   0.465E-04
   33 T=    66. E= -.41286661E+03 F= -.41319071E+03 E0= -.41316931E+03  EK= 0.32411E+00 SP= 0.00E+00 SK= 0.00E+00
       N       E                     dE             d eps       ncg     rms          rms(c)
RMM:   1    -0.413192226580E+03   -0.15142E-02   -0.11850E+01  4290   0.967E-01    0.916E-01
RMM:   2    -0.413195130979E+03   -0.29044E-02   -0.15416E-01  4274   0.132E-01    0.666E-01
RMM:   3    -0.413193204891E+03    0.19261E-02   -0.71153E-03  4351   0.481E-02    0.165E-01
RMM:   4    -0.413197239834E+03   -0.40349E-02   -0.47367E-03  5141   0.618E-02    0.268E-01
RMM:   5    -0.413193233422E+03    0.40064E-02   -0.19364E-03  4798   0.439E-02    0.255E-02
RMM:   6    -0.413193222461E+03    0.10962E-04   -0.34257E-04  5724   0.190E-02    0.184E-02
RMM:   7    -0.413193218888E+03    0.35723E-05   -0.86289E-05  5168   0.928E-03    0.788E-03
RMM:   8    -0.413193213420E+03    0.54686E-05   -0.10863E-05  3657   0.402E-03    0.395E-03
RMM:   9    -0.413193212026E+03    0.13935E-05   -0.13889E-06  2551   0.192E-03    0.246E-03
RMM:  10    -0.413193208757E+03    0.32698E-05   -0.70542E-07  2409   0.134E-03    0.129E-03
RMM:  11    -0.413193205363E+03    0.33940E-05   -0.45506E-07  2194   0.105E-03    0.549E-04
RMM:  12    -0.413193202815E+03    0.25474E-05   -0.24223E-07  1628   0.815E-04    0.230E-04
RMM:  13    -0.413193201281E+03    0.15340E-05   -0.12865E-07  1128   0.674E-04    0.133E-04
RMM:  14    -0.413193199609E+03    0.16718E-05   -0.94528E-08  1067   0.644E-04    0.863E-05
RMM:  15    -0.413193196844E+03    0.27655E-05   -0.96988E-08  1190   0.652E-04    0.551E-05
RMM:  16    -0.413193196169E+03    0.67479E-06   -0.46708E-08   899   0.579E-04
   34 T=    66. E= -.41286675E+03 F= -.41319320E+03 E0= -.41317184E+03  EK= 0.32644E+00 SP= 0.00E+00 SK= 0.00E+00
       N       E                     dE             d eps       ncg     rms          rms(c)
RMM:   1    -0.413187034001E+03    0.61628E-02   -0.11883E+01  4299   0.920E-01    0.940E-01
RMM:   2    -0.413197581443E+03   -0.10547E-01   -0.15322E-01  4257   0.132E-01    0.666E-01
RMM:   3    -0.413195991714E+03    0.15897E-02   -0.73606E-03  4457   0.464E-02    0.172E-01
RMM:   4    -0.413203125383E+03   -0.71337E-02   -0.77575E-03  5167   0.751E-02    0.359E-01
RMM:   5    -0.413195871447E+03    0.72539E-02   -0.36688E-03  4821   0.593E-02    0.287E-02
RMM:   6    -0.413195859294E+03    0.12154E-04   -0.61232E-04  5772   0.243E-02    0.199E-02
RMM:   7    -0.413195853316E+03    0.59777E-05   -0.11602E-04  5373   0.104E-02    0.952E-03
RMM:   8    -0.413195844068E+03    0.92477E-05   -0.16825E-05  4074   0.463E-03    0.440E-03
RMM:   9    -0.413195840604E+03    0.34644E-05   -0.25935E-06  2722   0.226E-03    0.287E-03
RMM:  10    -0.413195834973E+03    0.56311E-05   -0.69797E-07  2457   0.141E-03    0.167E-03
RMM:  11    -0.413195828004E+03    0.69683E-05   -0.52834E-07  2382   0.118E-03    0.751E-04
RMM:  12    -0.413195822699E+03    0.53054E-05   -0.28360E-07  1865   0.891E-04    0.299E-04
RMM:  13    -0.413195820328E+03    0.23707E-05   -0.13760E-07  1265   0.701E-04    0.164E-04
RMM:  14    -0.413195817573E+03    0.27554E-05   -0.91448E-08  1082   0.652E-04    0.983E-05
RMM:  15    -0.413195812184E+03    0.53885E-05   -0.96453E-08  1301   0.679E-04    0.103E-04
RMM:  16    -0.413195810895E+03    0.12897E-05   -0.47911E-08   964   0.590E-04    0.790E-05
RMM:  17    -0.413195807419E+03    0.34760E-05   -0.53843E-08  1167   0.605E-04    0.476E-05
RMM:  18    -0.413195806301E+03    0.11181E-05   -0.26770E-08   819   0.533E-04    0.280E-05
RMM:  19    -0.413195806018E+03    0.28261E-06   -0.15107E-08   690   0.514E-04
   35 T=    67. E= -.41286691E+03 F= -.41319581E+03 E0= -.41317450E+03  EK= 0.32890E+00 SP= 0.00E+00 SK= 0.00E+00
       N       E                     dE             d eps       ncg     rms          rms(c)
RMM:   1    -0.413191565882E+03    0.42404E-02   -0.11923E+01  4297   0.968E-01    0.941E-01
RMM:   2    -0.413199466586E+03   -0.79007E-02   -0.15414E-01  4253   0.126E-01    0.659E-01
RMM:   3    -0.413198231142E+03    0.12354E-02   -0.76281E-03  4801   0.471E-02    0.189E-01
RMM:   4    -0.413230067857E+03   -0.31837E-01   -0.32264E-02  5160   0.150E-01    0.744E-01
RMM:   5    -0.413197862781E+03    0.32205E-01   -0.16312E-02  4807   0.124E-01    0.408E-02
RMM:   6    -0.413197913390E+03   -0.50609E-04   -0.24973E-03  5859   0.472E-02    0.230E-02
RMM:   7    -0.413197922044E+03   -0.86539E-05   -0.27042E-04  5782   0.146E-02    0.140E-02
RMM:   8    -0.413197913660E+03    0.83841E-05   -0.44625E-05  4893   0.652E-03    0.886E-03
RMM:   9    -0.413197908733E+03    0.49275E-05   -0.15059E-05  4140   0.429E-03    0.592E-03
RMM:  10    -0.413197900964E+03    0.77683E-05   -0.23082E-06  2585   0.242E-03    0.331E-03
RMM:  11    -0.413197894855E+03    0.61092E-05   -0.14224E-06  2504   0.189E-03    0.187E-03
RMM:  12    -0.413197885064E+03    0.97912E-05   -0.10378E-06  2479   0.176E-03    0.720E-04
RMM:  13    -0.413197882019E+03    0.30449E-05   -0.37413E-07  2247   0.112E-03    0.512E-04
RMM:  14    -0.413197881266E+03    0.75311E-06   -0.15802E-07  1581   0.759E-04
   36 T=    67. E= -.41286664E+03 F= -.41319788E+03 E0= -.41317662E+03  EK= 0.33124E+00 SP= 0.00E+00 SK= 0.00E+00
       N       E                     dE             d eps       ncg     rms          rms(c)
RMM:   1    -0.413193784490E+03    0.40975E-02   -0.11979E+01  4304   0.988E-01    0.923E-01
RMM:   2    -0.413203242279E+03   -0.94578E-02   -0.15973E-01  4255   0.135E-01    0.671E-01
RMM:   3    -0.413201426560E+03    0.18157E-02   -0.73214E-03  4743   0.523E-02    0.188E-01
RMM:   4    -0.413234475335E+03   -0.33049E-01   -0.33462E-02  5159   0.153E-01    0.757E-01
RMM:   5    -0.413201003756E+03    0.33472E-01   -0.16975E-02  4802   0.126E-01    0.404E-02
RMM:   6    -0.413201062227E+03   -0.58470E-04   -0.25940E-03  5864   0.479E-02    0.224E-02
RMM:   7    -0.413201074064E+03   -0.11837E-04   -0.28088E-04  5803   0.146E-02    0.140E-02
RMM:   8    -0.413201067306E+03    0.67581E-05   -0.46781E-05  4933   0.662E-03    0.895E-03
RMM:   9    -0.413201063772E+03    0.35339E-05   -0.15287E-05  4145   0.431E-03    0.559E-03
RMM:  10    -0.413201058123E+03    0.56495E-05   -0.24465E-06  2591   0.239E-03    0.317E-03
RMM:  11    -0.413201053874E+03    0.42490E-05   -0.14356E-06  2502   0.188E-03    0.175E-03
RMM:  12    -0.413201047565E+03    0.63086E-05   -0.95552E-07  2474   0.164E-03    0.644E-04
RMM:  13    -0.413201045547E+03    0.20182E-05   -0.36072E-07  2217   0.107E-03    0.460E-04
RMM:  14    -0.413201044892E+03    0.65493E-06   -0.15609E-07  1500   0.746E-04
   37 T=    68. E= -.41286702E+03 F= -.41320104E+03 E0= -.41317983E+03  EK= 0.33403E+00 SP= 0.00E+00 SK= 0.00E+00
       N       E                     dE             d eps       ncg     rms          rms(c)
RMM:   1    -0.413195383622E+03    0.56619E-02   -0.12114E+01  4307   0.101E+00    0.944E-01
RMM:   2    -0.413205969403E+03   -0.10586E-01   -0.15936E-01  4255   0.130E-01    0.675E-01
RMM:   3    -0.413203871561E+03    0.20978E-02   -0.76097E-03  4739   0.510E-02    0.188E-01
RMM:   4    -0.413234141711E+03   -0.30270E-01   -0.30556E-02  5153   0.146E-01    0.726E-01
RMM:   5    -0.413203516978E+03    0.30625E-01   -0.15600E-02  4812   0.121E-01    0.398E-02
RMM:   6    -0.413203559715E+03   -0.42737E-04   -0.23396E-03  5843   0.458E-02    0.227E-02
RMM:   7    -0.413203569697E+03   -0.99819E-05   -0.27462E-04  5816   0.147E-02    0.146E-02
RMM:   8    -0.413203560735E+03    0.89618E-05   -0.47616E-05  4978   0.684E-03    0.864E-03
RMM:   9    -0.413203555930E+03    0.48059E-05   -0.12581E-05  3926   0.406E-03    0.511E-03
RMM:  10    -0.413203549806E+03    0.61232E-05   -0.21241E-06  2573   0.220E-03    0.300E-03
RMM:  11    -0.413203544272E+03    0.55348E-05   -0.12344E-06  2502   0.175E-03    0.159E-03
RMM:  12    -0.413203536695E+03    0.75762E-05   -0.82268E-07  2457   0.153E-03    0.583E-04
RMM:  13    -0.413203534190E+03    0.25052E-05   -0.32569E-07  2152   0.102E-03    0.418E-04
RMM:  14    -0.413203533242E+03    0.94814E-06   -0.14882E-07  1453   0.730E-04
   38 T=    69. E= -.41286693E+03 F= -.41320353E+03 E0= -.41318236E+03  EK= 0.33661E+00 SP= 0.00E+00 SK= 0.00E+00
       N       E                     dE             d eps       ncg     rms          rms(c)
RMM:   1    -0.413201946912E+03    0.15873E-02   -0.12202E+01  4304   0.107E+00    0.957E-01
RMM:   2    -0.413207740299E+03   -0.57934E-02   -0.16178E-01  4258   0.126E-01    0.669E-01
RMM:   3    -0.413206586850E+03    0.11534E-02   -0.80902E-03  4956   0.526E-02    0.214E-01
RMM:   4    -0.413254796859E+03   -0.48210E-01   -0.50735E-02  5140   0.187E-01    0.911E-01
RMM:   5    -0.413205678597E+03    0.49118E-01   -0.24558E-02  4796   0.153E-01    0.492E-02
RMM:   6    -0.413205815624E+03   -0.13703E-03   -0.38080E-03  5835   0.577E-02    0.259E-02
RMM:   7    -0.413205830583E+03   -0.14959E-04   -0.39405E-04  5780   0.170E-02    0.158E-02
RMM:   8    -0.413205820919E+03    0.96640E-05   -0.46321E-05  4486   0.610E-03    0.837E-03
RMM:   9    -0.413205810034E+03    0.10885E-04   -0.92994E-06  3053   0.334E-03    0.406E-03
RMM:  10    -0.413205803461E+03    0.65727E-05   -0.24603E-06  2545   0.224E-03    0.251E-03
RMM:  11    -0.413205792609E+03    0.10852E-04   -0.14383E-06  2494   0.199E-03    0.892E-04
RMM:  12    -0.413205787862E+03    0.47470E-05   -0.65564E-07  2411   0.139E-03    0.528E-04
RMM:  13    -0.413205786156E+03    0.17066E-05   -0.31506E-07  2058   0.966E-04    0.403E-04
RMM:  14    -0.413205784461E+03    0.16952E-05   -0.16734E-07  1498   0.754E-04    0.290E-04
RMM:  15    -0.413205776620E+03    0.78403E-05   -0.19313E-07  1993   0.818E-04    0.434E-04
RMM:  16    -0.413205775862E+03    0.75818E-06   -0.74513E-08  1079   0.599E-04
   39 T=    69. E= -.41286675E+03 F= -.41320578E+03 E0= -.41318464E+03  EK= 0.33902E+00 SP= 0.00E+00 SK= 0.00E+00
       N       E                     dE             d eps       ncg     rms          rms(c)
RMM:   1    -0.413201884399E+03    0.38922E-02   -0.12180E+01  4308   0.110E+00    0.934E-01
RMM:   2    -0.413211162732E+03   -0.92783E-02   -0.16369E-01  4260   0.131E-01    0.674E-01
RMM:   3    -0.413209853483E+03    0.13092E-02   -0.79916E-03  4989   0.547E-02    0.226E-01
RMM:   4    -0.413263242371E+03   -0.53389E-01   -0.57992E-02  5131   0.200E-01    0.958E-01
RMM:   5    -0.413208584922E+03    0.54657E-01   -0.27023E-02  4789   0.161E-01    0.516E-02
RMM:   6    -0.413208752669E+03   -0.16775E-03   -0.42220E-03  5824   0.607E-02    0.259E-02
RMM:   7    -0.413208772408E+03   -0.19739E-04   -0.44331E-04  5848   0.180E-02    0.168E-02
RMM:   8    -0.413208772013E+03    0.39443E-06   -0.74940E-05  5157   0.779E-03    0.115E-02
RMM:   9    -0.413208762246E+03    0.97672E-05   -0.21408E-05  4451   0.497E-03    0.632E-03
RMM:  10    -0.413208756774E+03    0.54720E-05   -0.43203E-06  2739   0.288E-03    0.343E-03
RMM:  11    -0.413208752495E+03    0.42796E-05   -0.16720E-06  2509   0.208E-03    0.199E-03
RMM:  12    -0.413208746292E+03    0.62032E-05   -0.94050E-07  2477   0.167E-03    0.662E-04
RMM:  13    -0.413208743362E+03    0.29298E-05   -0.41533E-07  2306   0.114E-03    0.399E-04
RMM:  14    -0.413208741396E+03    0.19654E-05   -0.19886E-07  1792   0.813E-04    0.258E-04
RMM:  15    -0.413208736624E+03    0.47728E-05   -0.14476E-07  1468   0.734E-04    0.193E-04
RMM:  16    -0.413208735813E+03    0.81102E-06   -0.68859E-08  1039   0.608E-04
   40 T=    70. E= -.41286714E+03 F= -.41320874E+03 E0= -.41318764E+03  EK= 0.34160E+00 SP= 0.00E+00 SK= 0.00E+00
       N       E                     dE             d eps       ncg     rms          rms(c)
RMM:   1    -0.413220785012E+03   -0.12048E-01   -0.12498E+01  4309   0.125E+00    0.947E-01
RMM:   2    -0.413212780120E+03    0.80049E-02   -0.17306E-01  4265   0.140E-01    0.686E-01
RMM:   3    -0.413212192021E+03    0.58810E-03   -0.86974E-03  5045   0.601E-02    0.258E-01
RMM:   4    -0.413266817531E+03   -0.54626E-01   -0.62985E-02  5125   0.209E-01    0.975E-01
RMM:   5    -0.413210249226E+03    0.56568E-01   -0.27410E-02  4777   0.164E-01    0.548E-02
RMM:   6    -0.413210414237E+03   -0.16501E-03   -0.42809E-03  5817   0.616E-02    0.261E-02
RMM:   7    -0.413210434683E+03   -0.20445E-04   -0.47367E-04  5915   0.187E-02    0.184E-02
RMM:   8    -0.413210434372E+03    0.31116E-06   -0.86715E-05  5272   0.855E-03    0.121E-02
RMM:   9    -0.413210423449E+03    0.10922E-04   -0.18532E-05  4269   0.493E-03    0.554E-03
RMM:  10    -0.413210418166E+03    0.52837E-05   -0.44597E-06  2738   0.281E-03    0.308E-03
RMM:  11    -0.413210414145E+03    0.40211E-05   -0.14838E-06  2506   0.196E-03    0.171E-03
RMM:  12    -0.413210408757E+03    0.53873E-05   -0.79485E-07  2457   0.153E-03    0.635E-04
RMM:  13    -0.413210405819E+03    0.29381E-05   -0.37845E-07  2209   0.107E-03    0.330E-04
RMM:  14    -0.413210403241E+03    0.25782E-05   -0.20122E-07  1651   0.804E-04    0.207E-04
RMM:  15    -0.413210399311E+03    0.39296E-05   -0.13970E-07  1360   0.715E-04    0.123E-04
RMM:  16    -0.413210397879E+03    0.14327E-05   -0.81534E-08  1110   0.637E-04    0.658E-05
RMM:  17    -0.413210395765E+03    0.21133E-05   -0.67314E-08  1123   0.628E-04    0.501E-05
RMM:  18    -0.413210392761E+03    0.30047E-05   -0.59878E-08  1154   0.627E-04    0.348E-05
RMM:  19    -0.413210392019E+03    0.74129E-06   -0.29749E-08   867   0.569E-04
   41 T=    70. E= -.41286671E+03 F= -.41321039E+03 E0= -.41318933E+03  EK= 0.34368E+00 SP= 0.00E+00 SK= 0.00E+00
       N       E                     dE             d eps       ncg     rms          rms(c)
RMM:   1    -0.413229146136E+03   -0.18753E-01   -0.12614E+01  4310   0.130E+00    0.971E-01
RMM:   2    -0.413214565262E+03    0.14581E-01   -0.17956E-01  4284   0.146E-01    0.679E-01
RMM:   3    -0.413216591343E+03   -0.20261E-02   -0.10732E-02  5117   0.732E-02    0.329E-01
RMM:   4    -0.413252394874E+03   -0.35804E-01   -0.51820E-02  5094   0.191E-01    0.828E-01
RMM:   5    -0.413212801549E+03    0.39593E-01   -0.17920E-02  4739   0.138E-01    0.539E-02
RMM:   6    -0.413212859784E+03   -0.58235E-04   -0.29507E-03  5759   0.514E-02    0.253E-02
RMM:   7    -0.413212870181E+03   -0.10398E-04   -0.36617E-04  5876   0.168E-02    0.183E-02
RMM:   8    -0.413212866156E+03    0.40247E-05   -0.76081E-05  5192   0.834E-03    0.106E-02
RMM:   9    -0.413212852326E+03    0.13830E-04   -0.15773E-05  4051   0.482E-03    0.413E-03
RMM:  10    -0.413212846076E+03    0.62502E-05   -0.33702E-06  2674   0.243E-03    0.240E-03
RMM:  11    -0.413212839376E+03    0.66998E-05   -0.11703E-06  2504   0.173E-03    0.124E-03
RMM:  12    -0.413212832808E+03    0.65686E-05   -0.53447E-07  2387   0.127E-03    0.541E-04
RMM:  13    -0.413212828512E+03    0.42960E-05   -0.27603E-07  1798   0.900E-04    0.246E-04
RMM:  14    -0.413212824565E+03    0.39464E-05   -0.16838E-07  1382   0.753E-04    0.140E-04
RMM:  15    -0.413212818093E+03    0.64728E-05   -0.14464E-07  1475   0.735E-04    0.109E-04
RMM:  16    -0.413212816444E+03    0.16490E-05   -0.85210E-08  1152   0.638E-04    0.778E-05
RMM:  17    -0.413212812133E+03    0.43106E-05   -0.82191E-08  1339   0.651E-04    0.585E-05
RMM:  18    -0.413212809662E+03    0.24712E-05   -0.53055E-08  1099   0.588E-04    0.456E-05
RMM:  19    -0.413212809102E+03    0.56013E-06   -0.31044E-08   839   0.537E-04
   42 T=    70. E= -.41286692E+03 F= -.41321281E+03 E0= -.41319178E+03  EK= 0.34589E+00 SP= 0.00E+00 SK= 0.00E+00
       N       E                     dE             d eps       ncg     rms          rms(c)
RMM:   1    -0.413219080331E+03   -0.62707E-02   -0.12448E+01  4310   0.132E+00    0.947E-01
RMM:   2    -0.413216400343E+03    0.26800E-02   -0.16953E-01  4290   0.151E-01    0.678E-01
RMM:   3    -0.413219745290E+03   -0.33449E-02   -0.11742E-02  5104   0.821E-02    0.358E-01
RMM:   4    -0.413248877763E+03   -0.29132E-01   -0.48747E-02  5064   0.187E-01    0.770E-01
RMM:   5    -0.413214705592E+03    0.34172E-01   -0.14831E-02  4709   0.129E-01    0.516E-02
RMM:   6    -0.413214734299E+03   -0.28707E-04   -0.25022E-03  5741   0.476E-02    0.243E-02
RMM:   7    -0.413214739826E+03   -0.55276E-05   -0.30443E-04  5841   0.158E-02    0.177E-02
RMM:   8    -0.413214735846E+03    0.39805E-05   -0.67502E-05  5139   0.802E-03    0.977E-03
RMM:   9    -0.413214724507E+03    0.11338E-04   -0.14784E-05  3952   0.473E-03    0.382E-03
RMM:  10    -0.413214720119E+03    0.43883E-05   -0.29442E-06  2659   0.232E-03    0.219E-03
RMM:  11    -0.413214714849E+03    0.52704E-05   -0.11826E-06  2504   0.171E-03    0.117E-03
RMM:  12    -0.413214710220E+03    0.46290E-05   -0.52061E-07  2371   0.124E-03    0.511E-04
RMM:  13    -0.413214707084E+03    0.31359E-05   -0.27299E-07  1686   0.873E-04    0.237E-04
RMM:  14    -0.413214704206E+03    0.28776E-05   -0.17240E-07  1346   0.745E-04    0.129E-04
RMM:  15    -0.413214699292E+03    0.49137E-05   -0.15369E-07  1394   0.731E-04    0.973E-05
RMM:  16    -0.413214697873E+03    0.14190E-05   -0.86940E-08  1096   0.641E-04    0.727E-05
RMM:  17    -0.413214694744E+03    0.31290E-05   -0.79146E-08  1245   0.644E-04    0.546E-05
RMM:  18    -0.413214692473E+03    0.22718E-05   -0.56885E-08  1091   0.593E-04    0.442E-05
RMM:  19    -0.413214691920E+03    0.55254E-06   -0.31670E-08   833   0.541E-04
   43 T=    71. E= -.41286692E+03 F= -.41321469E+03 E0= -.41319369E+03  EK= 0.34777E+00 SP= 0.00E+00 SK= 0.00E+00
       N       E                     dE             d eps       ncg     rms          rms(c)
RMM:   1    -0.413250148862E+03   -0.35456E-01   -0.12865E+01  4311   0.152E+00    0.946E-01
RMM:   2    -0.413217755031E+03    0.32394E-01   -0.20676E-01  4295   0.172E-01    0.697E-01
RMM:   3    -0.413221983971E+03   -0.42289E-02   -0.12312E-02  5095   0.896E-02    0.412E-01
RMM:   4    -0.413250029234E+03   -0.28045E-01   -0.51246E-02  5056   0.192E-01    0.779E-01
RMM:   5    -0.413215671435E+03    0.34358E-01   -0.15133E-02  4701   0.132E-01    0.558E-02
RMM:   6    -0.413215681990E+03   -0.10554E-04   -0.25290E-03  5686   0.481E-02    0.250E-02
RMM:   7    -0.413215688979E+03   -0.69893E-05   -0.32231E-04  5893   0.163E-02    0.186E-02
RMM:   8    -0.413215684510E+03    0.44685E-05   -0.66547E-05  5163   0.799E-03    0.101E-02
RMM:   9    -0.413215674068E+03    0.10443E-04   -0.17117E-05  4091   0.510E-03    0.419E-03
RMM:  10    -0.413215670672E+03    0.33954E-05   -0.32984E-06  2692   0.239E-03    0.239E-03
RMM:  11    -0.413215666743E+03    0.39289E-05   -0.16212E-06  2549   0.190E-03    0.133E-03
RMM:  12    -0.413215663740E+03    0.30034E-05   -0.55966E-07  2449   0.132E-03    0.626E-04
RMM:  13    -0.413215661032E+03    0.27079E-05   -0.31398E-07  1658   0.905E-04    0.304E-04
RMM:  14    -0.413215658641E+03    0.23908E-05   -0.20807E-07  1419   0.786E-04    0.157E-04
RMM:  15    -0.413215655912E+03    0.27292E-05   -0.15772E-07  1365   0.729E-04    0.884E-05
RMM:  16    -0.413215653742E+03    0.21698E-05   -0.11154E-07  1214   0.668E-04    0.546E-05
RMM:  17    -0.413215651681E+03    0.20612E-05   -0.86267E-08  1208   0.635E-04    0.492E-05
RMM:  18    -0.413215649817E+03    0.18639E-05   -0.61527E-08  1059   0.589E-04    0.354E-05
RMM:  19    -0.413215648969E+03    0.84787E-06   -0.37046E-08   854   0.550E-04
   44 T=    71. E= -.41286661E+03 F= -.41321565E+03 E0= -.41319467E+03  EK= 0.34904E+00 SP= 0.00E+00 SK= 0.00E+00
       N       E                     dE             d eps       ncg     rms          rms(c)
RMM:   1    -0.413229443289E+03   -0.13793E-01   -0.12676E+01  4311   0.152E+00    0.976E-01
RMM:   2    -0.413218553979E+03    0.10889E-01   -0.17764E-01  4329   0.177E-01    0.686E-01
RMM:   3    -0.413229201557E+03   -0.10648E-01   -0.18420E-02  5145   0.113E-01    0.506E-01
RMM:   4    -0.413234882019E+03   -0.56805E-02   -0.39375E-02  5018   0.172E-01    0.570E-01
RMM:   5    -0.413217335803E+03    0.17546E-01   -0.66513E-03  4588   0.977E-02    0.472E-02
RMM:   6    -0.413217297573E+03    0.38230E-04   -0.12517E-03  5446   0.343E-02    0.230E-02
RMM:   7    -0.413217295476E+03    0.20971E-05   -0.16123E-04  5644   0.123E-02    0.164E-02
RMM:   8    -0.413217288768E+03    0.67077E-05   -0.63873E-05  5081   0.809E-03    0.860E-03
RMM:   9    -0.413217274211E+03    0.14557E-04   -0.13344E-05  3968   0.479E-03    0.350E-03
RMM:  10    -0.413217270217E+03    0.39935E-05   -0.19804E-06  2595   0.205E-03    0.192E-03
RMM:  11    -0.413217262842E+03    0.73752E-05   -0.11083E-06  2491   0.165E-03    0.113E-03
RMM:  12    -0.413217257199E+03    0.56432E-05   -0.45464E-07  2368   0.119E-03    0.524E-04
RMM:  13    -0.413217253320E+03    0.38795E-05   -0.22077E-07  1584   0.803E-04    0.249E-04
RMM:  14    -0.413217249621E+03    0.36982E-05   -0.13587E-07  1245   0.685E-04    0.134E-04
RMM:  15    -0.413217243592E+03    0.60295E-05   -0.12494E-07  1314   0.693E-04    0.117E-04
RMM:  16    -0.413217241377E+03    0.22144E-05   -0.71166E-08  1072   0.609E-04    0.102E-04
RMM:  17    -0.413217238706E+03    0.26714E-05   -0.55582E-08  1054   0.586E-04    0.546E-05
RMM:  18    -0.413217234955E+03    0.37508E-05   -0.56250E-08  1162   0.597E-04    0.536E-05
RMM:  19    -0.413217234645E+03    0.31044E-06   -0.23196E-08   745   0.510E-04
   45 T=    71. E= -.41286703E+03 F= -.41321723E+03 E0= -.41319628E+03  EK= 0.35020E+00 SP= 0.00E+00 SK= 0.00E+00
       N       E                     dE             d eps       ncg     rms          rms(c)
RMM:   1    -0.413229888615E+03   -0.12654E-01   -0.12574E+01  4308   0.160E+00    0.957E-01
RMM:   2    -0.413218622339E+03    0.11266E-01   -0.18059E-01  4356   0.188E-01    0.683E-01
RMM:   3    -0.413231612240E+03   -0.12990E-01   -0.20352E-02  5138   0.123E-01    0.551E-01
RMM:   4    -0.413232240982E+03   -0.62874E-03   -0.38580E-02  5004   0.172E-01    0.531E-01
RMM:   5    -0.413217356777E+03    0.14884E-01   -0.57051E-03  4561   0.935E-02    0.472E-02
RMM:   6    -0.413217297249E+03    0.59528E-04   -0.97358E-04  5239   0.314E-02    0.225E-02
RMM:   7    -0.413217294043E+03    0.32064E-05   -0.12538E-04  5690   0.109E-02    0.147E-02
RMM:   8    -0.413217291853E+03    0.21892E-05   -0.72572E-05  5188   0.849E-03    0.969E-03
RMM:   9    -0.413217276564E+03    0.15290E-04   -0.17863E-05  4329   0.537E-03    0.378E-03
RMM:  10    -0.413217273452E+03    0.31120E-05   -0.23916E-06  2653   0.219E-03    0.207E-03
RMM:  11    -0.413217267453E+03    0.59990E-05   -0.12960E-06  2489   0.181E-03    0.121E-03
RMM:  12    -0.413217262740E+03    0.47124E-05   -0.50627E-07  2404   0.129E-03    0.644E-04
RMM:  13    -0.413217259030E+03    0.37108E-05   -0.23005E-07  1664   0.855E-04    0.314E-04
RMM:  14    -0.413217255354E+03    0.36757E-05   -0.12935E-07  1295   0.702E-04    0.154E-04
RMM:  15    -0.413217250340E+03    0.50144E-05   -0.11148E-07  1256   0.678E-04    0.132E-04
RMM:  16    -0.413217248463E+03    0.18762E-05   -0.56679E-08   946   0.579E-04    0.111E-04
RMM:  17    -0.413217245229E+03    0.32343E-05   -0.52558E-08   998   0.580E-04    0.655E-05
RMM:  18    -0.413217242369E+03    0.28596E-05   -0.45885E-08  1014   0.571E-04    0.518E-05
RMM:  19    -0.413217241823E+03    0.54682E-06   -0.17217E-08   662   0.504E-04
   46 T=    71. E= -.41286696E+03 F= -.41321724E+03 E0= -.41319631E+03  EK= 0.35028E+00 SP= 0.00E+00 SK= 0.00E+00
       N       E                     dE             d eps       ncg     rms          rms(c)
RMM:   1    -0.413250520700E+03   -0.33278E-01   -0.12804E+01  4311   0.175E+00    0.944E-01
RMM:   2    -0.413218371424E+03    0.32149E-01   -0.20708E-01  4360   0.205E-01    0.698E-01
RMM:   3    -0.413231071991E+03   -0.12701E-01   -0.20051E-02  5136   0.125E-01    0.570E-01
RMM:   4    -0.413233167679E+03   -0.20957E-02   -0.41309E-02  5008   0.178E-01    0.567E-01
RMM:   5    -0.413216423334E+03    0.16744E-01   -0.68678E-03  4572   0.101E-01    0.511E-02
RMM:   6    -0.413216355043E+03    0.68291E-04   -0.11425E-03  5292   0.341E-02    0.239E-02
RMM:   7    -0.413216352423E+03    0.26208E-05   -0.15432E-04  5736   0.120E-02    0.170E-02
RMM:   8    -0.413216347948E+03    0.44747E-05   -0.71500E-05  5188   0.846E-03    0.975E-03
RMM:   9    -0.413216334210E+03    0.13738E-04   -0.17849E-05  4298   0.545E-03    0.404E-03
RMM:  10    -0.413216331740E+03    0.24693E-05   -0.25760E-06  2667   0.220E-03    0.220E-03
RMM:  11    -0.413216327707E+03    0.40330E-05   -0.14982E-06  2520   0.189E-03    0.136E-03
RMM:  12    -0.413216324694E+03    0.30134E-05   -0.52189E-07  2426   0.132E-03    0.689E-04
RMM:  13    -0.413216321840E+03    0.28536E-05   -0.26149E-07  1713   0.880E-04    0.302E-04
RMM:  14    -0.413216319354E+03    0.24861E-05   -0.16187E-07  1381   0.733E-04    0.156E-04
RMM:  15    -0.413216316082E+03    0.32725E-05   -0.13942E-07  1290   0.695E-04    0.102E-04
RMM:  16    -0.413216314354E+03    0.17278E-05   -0.79991E-08  1078   0.611E-04    0.836E-05
RMM:  17    -0.413216312451E+03    0.19028E-05   -0.58348E-08   959   0.573E-04    0.468E-05
RMM:  18    -0.413216310630E+03    0.18207E-05   -0.50982E-08   983   0.578E-04    0.377E-05
RMM:  19    -0.413216310197E+03    0.43278E-06   -0.23897E-08   719   0.525E-04
   47 T=    71. E= -.41286705E+03 F= -.41321631E+03 E0= -.41319539E+03  EK= 0.34926E+00 SP= 0.00E+00 SK= 0.00E+00
       N       E                     dE             d eps       ncg     rms          rms(c)
RMM:   1    -0.413265938528E+03   -0.49628E-01   -0.12915E+01  4305   0.192E+00    0.969E-01
RMM:   2    -0.413215731233E+03    0.50207E-01   -0.20539E-01  4445   0.209E-01    0.692E-01
RMM:   3    -0.413237457628E+03   -0.21726E-01   -0.28339E-02  5150   0.149E-01    0.688E-01
RMM:   4    -0.413223784875E+03    0.13673E-01   -0.38355E-02  4968   0.176E-01    0.450E-01
RMM:   5    -0.413214424171E+03    0.93607E-02   -0.47079E-03  4536   0.898E-02    0.547E-02
RMM:   6    -0.413214278126E+03    0.14605E-03   -0.49913E-04  4763   0.282E-02    0.255E-02
RMM:   7    -0.413214280281E+03   -0.21552E-05   -0.16670E-04  5915   0.129E-02    0.178E-02
RMM:   8    -0.413214263803E+03    0.16478E-04   -0.60325E-05  5073   0.850E-03    0.982E-03
RMM:   9    -0.413214251866E+03    0.11936E-04   -0.13225E-05  3882   0.471E-03    0.479E-03
RMM:  10    -0.413214247157E+03    0.47094E-05   -0.21442E-06  2558   0.237E-03    0.237E-03
RMM:  11    -0.413214241572E+03    0.55847E-05   -0.16558E-06  2507   0.201E-03    0.165E-03
RMM:  12    -0.413214237194E+03    0.43787E-05   -0.55325E-07  2395   0.137E-03    0.819E-04
RMM:  13    -0.413214232659E+03    0.45343E-05   -0.27661E-07  1784   0.900E-04    0.414E-04
RMM:  14    -0.413214227738E+03    0.49214E-05   -0.19002E-07  1690   0.770E-04    0.253E-04
RMM:  15    -0.413214222865E+03    0.48727E-05   -0.13378E-07  1213   0.644E-04    0.132E-04
RMM:  16    -0.413214220300E+03    0.25651E-05   -0.84958E-08  1121   0.593E-04    0.993E-05
RMM:  17    -0.413214217570E+03    0.27296E-05   -0.63893E-08  1022   0.568E-04    0.531E-05
RMM:  18    -0.413214215335E+03    0.22351E-05   -0.47246E-08   970   0.555E-04    0.464E-05
RMM:  19    -0.413214214560E+03    0.77583E-06   -0.24025E-08   724   0.509E-04
   48 T=    71. E= -.41286739E+03 F= -.41321421E+03 E0= -.41319331E+03  EK= 0.34683E+00 SP= 0.00E+00 SK= 0.00E+00
       N       E                     dE             d eps       ncg     rms          rms(c)
RMM:   1    -0.413264243528E+03   -0.50028E-01   -0.12710E+01  4304   0.204E+00    0.958E-01
RMM:   2    -0.413210895748E+03    0.53348E-01   -0.20117E-01  4494   0.222E-01    0.681E-01
RMM:   3    -0.413239176775E+03   -0.28281E-01   -0.34207E-02  5157   0.165E-01    0.766E-01
RMM:   4    -0.413216045694E+03    0.23131E-01   -0.37997E-02  4939   0.177E-01    0.391E-01
RMM:   5    -0.413209731729E+03    0.63140E-02   -0.47915E-03  4727   0.910E-02    0.657E-02
RMM:   6    -0.413209487747E+03    0.24398E-03   -0.48765E-04  4669   0.307E-02    0.293E-02
RMM:   7    -0.413209482722E+03    0.50243E-05   -0.14800E-04  5740   0.130E-02    0.199E-02
RMM:   8    -0.413209464355E+03    0.18367E-04   -0.41387E-05  4924   0.709E-03    0.952E-03
RMM:   9    -0.413209451723E+03    0.12632E-04   -0.12841E-05  3370   0.424E-03    0.419E-03
RMM:  10    -0.413209446244E+03    0.54790E-05   -0.21190E-06  2592   0.232E-03    0.233E-03
RMM:  11    -0.413209439078E+03    0.71654E-05   -0.10254E-06  2491   0.164E-03    0.138E-03
RMM:  12    -0.413209434381E+03    0.46976E-05   -0.43837E-07  2397   0.115E-03    0.640E-04
RMM:  13    -0.413209429047E+03    0.53337E-05   -0.29223E-07  1699   0.870E-04    0.338E-04
RMM:  14    -0.413209424611E+03    0.44359E-05   -0.19563E-07  1456   0.767E-04    0.239E-04
RMM:  15    -0.413209419339E+03    0.52717E-05   -0.17023E-07  1434   0.733E-04    0.134E-04
RMM:  16    -0.413209417384E+03    0.19557E-05   -0.93220E-08  1129   0.626E-04    0.947E-05
RMM:  17    -0.413209413917E+03    0.34663E-05   -0.87531E-08  1264   0.635E-04    0.539E-05
RMM:  18    -0.413209412808E+03    0.11090E-05   -0.47526E-08   976   0.562E-04    0.392E-05
RMM:  19    -0.413209411792E+03    0.10165E-05   -0.32198E-08   861   0.538E-04    0.198E-05
RMM:  20    -0.413209411059E+03    0.73286E-06   -0.26643E-08   833   0.527E-04
   49 T=    70. E= -.41286711E+03 F= -.41320941E+03 E0= -.41318852E+03  EK= 0.34230E+00 SP= 0.00E+00 SK= 0.00E+00
       N       E                     dE             d eps       ncg     rms          rms(c)
RMM:   1    -0.413239766380E+03   -0.30355E-01   -0.12306E+01  4304   0.207E+00    0.924E-01
RMM:   2    -0.413205608354E+03    0.34158E-01   -0.21389E-01  4509   0.234E-01    0.688E-01
RMM:   3    -0.413230921644E+03   -0.25313E-01   -0.31264E-02  5158   0.161E-01    0.750E-01
RMM:   4    -0.413211207263E+03    0.19714E-01   -0.38050E-02  4942   0.178E-01    0.421E-01
RMM:   5    -0.413203827412E+03    0.73799E-02   -0.54884E-03  4677   0.948E-02    0.677E-02
RMM:   6    -0.413203575059E+03    0.25235E-03   -0.51640E-04  4657   0.317E-02    0.300E-02
RMM:   7    -0.413203571310E+03    0.37487E-05   -0.16059E-04  5814   0.133E-02    0.204E-02
RMM:   8    -0.413203553604E+03    0.17707E-04   -0.46054E-05  4993   0.732E-03    0.103E-02
RMM:   9    -0.413203542905E+03    0.10699E-04   -0.15710E-05  3645   0.467E-03    0.443E-03
RMM:  10    -0.413203538542E+03    0.43627E-05   -0.27377E-06  2642   0.253E-03    0.250E-03
RMM:  11    -0.413203533862E+03    0.46796E-05   -0.12936E-06  2501   0.184E-03    0.157E-03
RMM:  12    -0.413203530517E+03    0.33456E-05   -0.50067E-07  2440   0.125E-03    0.753E-04
RMM:  13    -0.413203526935E+03    0.35821E-05   -0.31582E-07  1773   0.900E-04    0.368E-04
RMM:  14    -0.413203523672E+03    0.32631E-05   -0.23463E-07  1644   0.798E-04    0.297E-04
RMM:  15    -0.413203520404E+03    0.32681E-05   -0.18255E-07  1332   0.712E-04    0.134E-04
RMM:  16    -0.413203518832E+03    0.15717E-05   -0.10599E-07  1212   0.636E-04    0.877E-05
RMM:  17    -0.413203517162E+03    0.16700E-05   -0.83410E-08  1147   0.612E-04    0.471E-05
RMM:  18    -0.413203516328E+03    0.83434E-06   -0.51944E-08   984   0.567E-04
   50 T=    68. E= -.41286748E+03 F= -.41320352E+03 E0= -.41318264E+03  EK= 0.33603E+00 SP= 0.00E+00 SK= 0.00E+00
       N       E                     dE             d eps       ncg     rms          rms(c)
RMM:   1    -0.413229503205E+03   -0.25986E-01   -0.12034E+01  4300   0.217E+00    0.934E-01
RMM:   2    -0.413196467436E+03    0.33036E-01   -0.20348E-01  4541   0.245E-01    0.681E-01
RMM:   3    -0.413231123085E+03   -0.34656E-01   -0.40213E-02  5167   0.184E-01    0.848E-01
RMM:   4    -0.413199418418E+03    0.31705E-01   -0.39359E-02  4916   0.184E-01    0.360E-01
RMM:   5    -0.413194998733E+03    0.44197E-02   -0.64854E-03  5052   0.102E-01    0.874E-02
RMM:   6    -0.413194542363E+03    0.45637E-03   -0.84679E-04  4706   0.396E-02    0.346E-02
RMM:   7    -0.413194534532E+03    0.78314E-05   -0.21495E-04  5725   0.159E-02    0.224E-02
RMM:   8    -0.413194515256E+03    0.19276E-04   -0.42284E-05  4924   0.729E-03    0.110E-02
RMM:   9    -0.413194502674E+03    0.12581E-04   -0.16934E-05  3747   0.485E-03    0.445E-03
RMM:  10    -0.413194496443E+03    0.62319E-05   -0.35522E-06  2738   0.279E-03    0.285E-03
RMM:  11    -0.413194489779E+03    0.66636E-05   -0.13899E-06  2517   0.199E-03    0.152E-03
[...]
RMM:   1    -0.413483619376E+03   -0.19367E+00   -0.10320E+01  4289   0.612E+00    0.579E-01
RMM:   2    -0.413459950019E+03    0.23669E-01   -0.25457E-01  5142   0.590E-01    0.449E-01
RMM:   3    -0.413462038122E+03   -0.20881E-02   -0.30553E-02  5581   0.199E-01    0.316E-01
RMM:   4    -0.413470658239E+03   -0.86201E-02   -0.17560E-02  5235   0.147E-01    0.400E-01
RMM:   5    -0.413465029627E+03    0.56286E-02   -0.12995E-02  5251   0.121E-01    0.249E-01
RMM:   6    -0.413462076370E+03    0.29533E-02   -0.59961E-03  5218   0.919E-02    0.704E-02
RMM:   7    -0.413461796162E+03    0.28021E-03   -0.11686E-03  5409   0.433E-02    0.323E-02
RMM:   8    -0.413461760588E+03    0.35573E-04   -0.20412E-04  5354   0.178E-02    0.193E-02
RMM:   9    -0.413461744309E+03    0.16279E-04   -0.71161E-05  5170   0.105E-02    0.968E-03
RMM:  10    -0.413461742377E+03    0.19319E-05   -0.19804E-05  4586   0.528E-03    0.615E-03
RMM:  11    -0.413461744231E+03   -0.18536E-05   -0.45044E-06  3002   0.332E-03    0.373E-03
RMM:  12    -0.413461750539E+03   -0.63081E-05   -0.31099E-06  2799   0.284E-03    0.162E-03
RMM:  13    -0.413461757307E+03   -0.67680E-05   -0.14424E-06  2587   0.181E-03    0.102E-03
RMM:  14    -0.413461765818E+03   -0.85110E-05   -0.15025E-06  2614   0.170E-03    0.737E-04
RMM:  15    -0.413461774348E+03   -0.85303E-05   -0.17066E-06  2578   0.159E-03    0.463E-04
RMM:  16    -0.413461779872E+03   -0.55244E-05   -0.11699E-06  2222   0.124E-03    0.345E-04
RMM:  17    -0.413461784744E+03   -0.48714E-05   -0.10053E-06  2216   0.113E-03    0.207E-04
RMM:  18    -0.413461787931E+03   -0.31876E-05   -0.55248E-07  1722   0.853E-04    0.144E-04
RMM:  19    -0.413461790656E+03   -0.27241E-05   -0.32916E-07  1506   0.739E-04    0.977E-05
RMM:  20    -0.413461792307E+03   -0.16514E-05   -0.17165E-07  1233   0.628E-04    0.619E-05
RMM:  21    -0.413461793770E+03   -0.14629E-05   -0.10330E-07  1102   0.585E-04    0.380E-05
RMM:  22    -0.413461794702E+03   -0.93156E-06   -0.62411E-08  1011   0.558E-04
  139 T=   120. E= -.41287021E+03 F= -.41346179E+03 E0= -.41344184E+03  EK= 0.59158E+00 SP= 0.00E+00 SK= 0.00E+00
       N       E                     dE             d eps       ncg     rms          rms(c)
RMM:   1    -0.413723428296E+03   -0.26163E+00   -0.15811E+01  4295   0.739E+00    0.932E-01
RMM:   2    -0.413659310546E+03    0.64118E-01   -0.47581E-01  5173   0.774E-01    0.757E-01
RMM:   3    -0.413701510676E+03   -0.42200E-01   -0.93070E-02  5582   0.330E-01    0.977E-01
RMM:   4    -0.413663100443E+03    0.38410E-01   -0.39938E-02  5036   0.225E-01    0.429E-01
RMM:   5    -0.413663777657E+03   -0.67721E-03   -0.35342E-02  5303   0.222E-01    0.246E-01
RMM:   6    -0.413660733313E+03    0.30443E-02   -0.10809E-02  5020   0.129E-01    0.109E-01
RMM:   7    -0.413660239705E+03    0.49361E-03   -0.18717E-03  5319   0.588E-02    0.408E-02
RMM:   8    -0.413660211071E+03    0.28634E-04   -0.60771E-04  5963   0.285E-02    0.287E-02
RMM:   9    -0.413660181705E+03    0.29367E-04   -0.13141E-04  5343   0.142E-02    0.170E-02
RMM:  10    -0.413660171830E+03    0.98748E-05   -0.61420E-05  5673   0.930E-03    0.917E-03
RMM:  11    -0.413660170432E+03    0.13975E-05   -0.13508E-05  4204   0.470E-03    0.591E-03
RMM:  12    -0.413660174875E+03   -0.44429E-05   -0.81396E-06  3780   0.419E-03    0.334E-03
RMM:  13    -0.413660181725E+03   -0.68500E-05   -0.19973E-06  2642   0.241E-03    0.162E-03
RMM:  14    -0.413660189124E+03   -0.73987E-05   -0.15149E-06  2598   0.185E-03    0.981E-04
RMM:  15    -0.413660196976E+03   -0.78519E-05   -0.12646E-06  2548   0.154E-03    0.600E-04
RMM:  16    -0.413660204443E+03   -0.74668E-05   -0.13782E-06  2519   0.141E-03    0.408E-04
RMM:  17    -0.413660210163E+03   -0.57206E-05   -0.10707E-06  2104   0.117E-03    0.275E-04
RMM:  18    -0.413660215071E+03   -0.49075E-05   -0.88469E-07  2096   0.106E-03    0.207E-04
RMM:  19    -0.413660217765E+03   -0.26945E-05   -0.43647E-07  1554   0.767E-04    0.120E-04
RMM:  20    -0.413660220105E+03   -0.23396E-05   -0.26145E-07  1350   0.678E-04    0.800E-05
RMM:  21    -0.413660221869E+03   -0.17640E-05   -0.15802E-07  1187   0.612E-04    0.584E-05
RMM:  22    -0.413660222698E+03   -0.82918E-06   -0.80563E-08  1005   0.561E-04
  140 T=   158. E= -.41288435E+03 F= -.41366022E+03 E0= -.41364032E+03  EK= 0.77587E+00 SP= 0.00E+00 SK= 0.00E+00
       N       E                     dE             d eps       ncg     rms          rms(c)
RMM:   1    -0.413793685583E+03   -0.13346E+00   -0.20103E+01  4287   0.806E+00    0.150E+00
RMM:   2    -0.413696276907E+03    0.97409E-01   -0.77861E-01  5199   0.917E-01    0.121E+00
RMM:   3    -0.413809012199E+03   -0.11274E+00   -0.20710E-01  5496   0.476E-01    0.161E+00
RMM:   4    -0.413698466047E+03    0.11055E+00   -0.10117E-01  4944   0.371E-01    0.468E-01
RMM:   5    -0.413699305278E+03   -0.83923E-03   -0.73110E-02  5261   0.312E-01    0.306E-01
RMM:   6    -0.413693684072E+03    0.56212E-02   -0.16811E-02  5022   0.164E-01    0.133E-01
RMM:   7    -0.413693104653E+03    0.57942E-03   -0.28499E-03  5385   0.701E-02    0.554E-02
RMM:   8    -0.413693078859E+03    0.25794E-04   -0.97688E-04  5879   0.364E-02    0.346E-02
RMM:   9    -0.413693045538E+03    0.33321E-04   -0.20062E-04  5503   0.172E-02    0.213E-02
RMM:  10    -0.413693031324E+03    0.14214E-04   -0.97932E-05  5740   0.115E-02    0.118E-02
RMM:  11    -0.413693025890E+03    0.54337E-05   -0.24072E-05  4951   0.587E-03    0.796E-03
RMM:  12    -0.413693025223E+03    0.66676E-06   -0.11870E-05  4259   0.476E-03    0.404E-03
RMM:  13    -0.413693029033E+03   -0.38094E-05   -0.28327E-06  2722   0.265E-03    0.190E-03
RMM:  14    -0.413693033117E+03   -0.40839E-05   -0.15758E-06  2570   0.201E-03    0.940E-04
RMM:  15    -0.413693037621E+03   -0.45044E-05   -0.11105E-06  2538   0.159E-03    0.666E-04
RMM:  16    -0.413693041542E+03   -0.39216E-05   -0.86325E-07  2363   0.125E-03    0.413E-04
RMM:  17    -0.413693045334E+03   -0.37916E-05   -0.83996E-07  2139   0.111E-03    0.282E-04
RMM:  18    -0.413693048565E+03   -0.32308E-05   -0.75563E-07  2096   0.104E-03    0.213E-04
RMM:  19    -0.413693050267E+03   -0.17023E-05   -0.37858E-07  1517   0.763E-04    0.108E-04
RMM:  20    -0.413693051866E+03   -0.15986E-05   -0.26256E-07  1373   0.704E-04    0.828E-05
RMM:  21    -0.413693052983E+03   -0.11170E-05   -0.15491E-07  1216   0.628E-04    0.529E-05
RMM:  22    -0.413693053631E+03   -0.64860E-06   -0.85143E-08  1036   0.571E-04
  141 T=   163. E= -.41289335E+03 F= -.41369305E+03 E0= -.41367310E+03  EK= 0.79971E+00 SP= 0.00E+00 SK= 0.00E+00
       N       E                     dE             d eps       ncg     rms          rms(c)
RMM:   1    -0.413537883476E+03    0.15517E+00   -0.17829E+01  4273   0.734E+00    0.173E+00
RMM:   2    -0.413482521494E+03    0.55362E-01   -0.90021E-01  5225   0.865E-01    0.133E+00
RMM:   3    -0.413686588692E+03   -0.20407E+00   -0.30610E-01  5393   0.556E-01    0.200E+00
RMM:   4    -0.413487403772E+03    0.19918E+00   -0.15702E-01  4905   0.453E-01    0.434E-01
RMM:   5    -0.413486313374E+03    0.10904E-02   -0.93138E-02  5326   0.344E-01    0.311E-01
RMM:   6    -0.413480706958E+03    0.56064E-02   -0.17354E-02  5158   0.166E-01    0.141E-01
RMM:   7    -0.413480174270E+03    0.53269E-03   -0.30297E-03  5438   0.695E-02    0.633E-02
RMM:   8    -0.413480170656E+03    0.36135E-05   -0.11406E-03  5887   0.387E-02    0.365E-02
RMM:   9    -0.413480141789E+03    0.28867E-04   -0.22547E-04  5529   0.183E-02    0.224E-02
RMM:  10    -0.413480130728E+03    0.11061E-04   -0.10443E-04  5743   0.118E-02    0.133E-02
RMM:  11    -0.413480124013E+03    0.67148E-05   -0.26802E-05  5159   0.618E-03    0.843E-03
RMM:  12    -0.413480121045E+03    0.29678E-05   -0.13460E-05  4561   0.474E-03    0.429E-03
RMM:  13    -0.413480121818E+03   -0.77271E-06   -0.29827E-06  2733   0.270E-03
  142 T=   124. E= -.41287333E+03 F= -.41348012E+03 E0= -.41345992E+03  EK= 0.60679E+00 SP= 0.00E+00 SK= 0.00E+00
       N       E                     dE             d eps       ncg     rms          rms(c)
RMM:   1    -0.413309245294E+03    0.17088E+00   -0.11363E+01  4265   0.577E+00    0.126E+00
RMM:   2    -0.413313657082E+03   -0.44118E-02   -0.63400E-01  5374   0.665E-01    0.921E-01
RMM:   3    -0.413384282805E+03   -0.70626E-01   -0.13382E-01  5242   0.411E-01    0.118E+00
RMM:   4    -0.413333536765E+03    0.50746E-01   -0.81078E-02  5151   0.303E-01    0.664E-01
RMM:   5    -0.413315463696E+03    0.18073E-01   -0.44671E-02  5207   0.260E-01    0.154E-01
RMM:   6    -0.413315424948E+03    0.38747E-04   -0.11120E-02  5705   0.124E-01    0.137E-01
RMM:   7    -0.413314515964E+03    0.90898E-03   -0.18021E-03  4729   0.562E-02    0.654E-02
RMM:   8    -0.413314456452E+03    0.59512E-04   -0.10692E-03  5707   0.393E-02    0.286E-02
RMM:   9    -0.413314459730E+03   -0.32780E-05   -0.18989E-04  5896   0.157E-02    0.255E-02
RMM:  10    -0.413314443699E+03    0.16031E-04   -0.94894E-05  5180   0.119E-02    0.818E-03
RMM:  11    -0.413314442394E+03    0.13045E-05   -0.20785E-05  4626   0.499E-03    0.695E-03
RMM:  12    -0.413314439274E+03    0.31205E-05   -0.31588E-06  2801   0.284E-03    0.326E-03
RMM:  13    -0.413314438446E+03    0.82781E-06   -0.13592E-06  2510   0.192E-03
  143 T=    93. E= -.41285520E+03 F= -.41331444E+03 E0= -.41329368E+03  EK= 0.45924E+00 SP= 0.00E+00 SK= 0.00E+00
       N       E                     dE             d eps       ncg     rms          rms(c)
RMM:   1    -0.413477560948E+03   -0.16312E+00   -0.11163E+01  4273   0.577E+00    0.126E+00
RMM:   2    -0.413470852223E+03    0.67087E-02   -0.46911E-01  5411   0.733E-01    0.120E+00
RMM:   3    -0.413486980103E+03   -0.16128E-01   -0.10985E-01  5401   0.360E-01    0.124E+00
RMM:   4    -0.413446190192E+03    0.40790E-01   -0.74968E-02  5203   0.321E-01    0.565E-01
RMM:   5    -0.413441578616E+03    0.46116E-02   -0.15693E-02  4394   0.196E-01    0.139E-01
RMM:   6    -0.413441735066E+03   -0.15645E-03   -0.73957E-03  5381   0.102E-01    0.109E-01
RMM:   7    -0.413441231616E+03    0.50345E-03   -0.20989E-03  5196   0.551E-02    0.576E-02
RMM:   8    -0.413441166422E+03    0.65194E-04   -0.37064E-04  5422   0.253E-02    0.292E-02
RMM:   9    -0.413441162590E+03    0.38320E-05   -0.21056E-04  5531   0.172E-02    0.179E-02
RMM:  10    -0.413441154469E+03    0.81207E-05   -0.34561E-05  5191   0.761E-03    0.961E-03
RMM:  11    -0.413441153250E+03    0.12186E-05   -0.21422E-05  4865   0.533E-03    0.414E-03
RMM:  12    -0.413441152806E+03    0.44466E-06   -0.26020E-06  2707   0.241E-03
  144 T=   116. E= -.41287031E+03 F= -.41344115E+03 E0= -.41341967E+03  EK= 0.57085E+00 SP= 0.00E+00 SK= 0.00E+00
       N       E                     dE             d eps       ncg     rms          rms(c)
RMM:   1    -0.413784855265E+03   -0.34370E+00   -0.17205E+01  4274   0.709E+00    0.167E+00
RMM:   2    -0.413718472320E+03    0.66383E-01   -0.65575E-01  5433   0.910E-01    0.156E+00
RMM:   3    -0.413747757624E+03   -0.29285E-01   -0.18752E-01  5458   0.467E-01    0.160E+00
RMM:   4    -0.413682038673E+03    0.65719E-01   -0.13392E-01  5259   0.423E-01    0.734E-01
RMM:   5    -0.413672458902E+03    0.95798E-02   -0.40726E-02  4592   0.286E-01    0.214E-01
RMM:   6    -0.413672274670E+03    0.18423E-03   -0.17892E-02  5347   0.160E-01    0.157E-01
RMM:   7    -0.413670872961E+03    0.14017E-02   -0.34859E-03  4957   0.774E-02    0.675E-02
RMM:   8    -0.413670811669E+03    0.61292E-04   -0.79649E-04  5511   0.351E-02    0.370E-02
RMM:   9    -0.413670812847E+03   -0.11783E-05   -0.37998E-04  5564   0.233E-02    0.267E-02
RMM:  10    -0.413670797817E+03    0.15030E-04   -0.65669E-05  5290   0.106E-02    0.142E-02
RMM:  11    -0.413670795793E+03    0.20241E-05   -0.54218E-05  5510   0.839E-03    0.635E-03
RMM:  12    -0.413670795915E+03   -0.12146E-06   -0.62826E-06  3102   0.331E-03
  145 T=   160. E= -.41288572E+03 F= -.41367080E+03 E0= -.41364868E+03  EK= 0.78507E+00 SP= 0.00E+00 SK= 0.00E+00
       N       E                     dE             d eps       ncg     rms          rms(c)
RMM:   1    -0.413913375380E+03   -0.24258E+00   -0.22091E+01  4276   0.799E+00    0.178E+00
RMM:   2    -0.413793654728E+03    0.11972E+00   -0.83826E-01  5433   0.991E-01    0.156E+00
RMM:   3    -0.413870656449E+03   -0.77002E-01   -0.22899E-01  5507   0.510E-01    0.179E+00
RMM:   4    -0.413776882159E+03    0.93774E-01   -0.15606E-01  5206   0.454E-01    0.771E-01
RMM:   5    -0.413764024849E+03    0.12857E-01   -0.58489E-02  4678   0.330E-01    0.211E-01
RMM:   6    -0.413763785575E+03    0.23927E-03   -0.18915E-02  5433   0.164E-01    0.163E-01
RMM:   7    -0.413762286698E+03    0.14989E-02   -0.37451E-03  4884   0.800E-02    0.686E-02
RMM:   8    -0.413762230895E+03    0.55803E-04   -0.11381E-03  5595   0.409E-02    0.412E-02
RMM:   9    -0.413762244310E+03   -0.13414E-04   -0.45958E-04  5729   0.253E-02    0.331E-02
RMM:  10    -0.413762219592E+03    0.24718E-04   -0.86901E-05  5197   0.124E-02    0.151E-02
RMM:  11    -0.413762221105E+03   -0.15130E-05   -0.83297E-05  5706   0.991E-03    0.886E-03
RMM:  12    -0.413762220670E+03    0.43444E-06   -0.82841E-06  3534   0.416E-03
  146 T=   178. E= -.41288871E+03 F= -.41376222E+03 E0= -.41373969E+03  EK= 0.87351E+00 SP= 0.00E+00 SK= 0.00E+00
       N       E                     dE             d eps       ncg     rms          rms(c)
RMM:   1    -0.413783144888E+03   -0.20924E-01   -0.21335E+01  4278   0.785E+00    0.153E+00
RMM:   2    -0.413670077391E+03    0.11307E+00   -0.82300E-01  5451   0.946E-01    0.136E+00
RMM:   3    -0.413735036782E+03   -0.64959E-01   -0.17066E-01  5610   0.440E-01    0.156E+00
RMM:   4    -0.413668069193E+03    0.66968E-01   -0.10291E-01  5170   0.366E-01    0.718E-01
RMM:   5    -0.413659395369E+03    0.86738E-02   -0.52041E-02  4630   0.308E-01    0.206E-01
RMM:   6    -0.413658135861E+03    0.12595E-02   -0.12643E-02  5217   0.142E-01    0.135E-01
RMM:   7    -0.413657115181E+03    0.10207E-02   -0.25192E-03  4809   0.679E-02    0.600E-02
RMM:   8    -0.413657075782E+03    0.39399E-04   -0.87281E-04  5563   0.362E-02    0.396E-02
RMM:   9    -0.413657078898E+03   -0.31155E-05   -0.33846E-04  5476   0.224E-02    0.281E-02
RMM:  10    -0.413657065759E+03    0.13139E-04   -0.78519E-05  5421   0.112E-02    0.127E-02
RMM:  11    -0.413657069547E+03   -0.37880E-05   -0.53358E-05  5520   0.800E-03    0.846E-03
RMM:  12    -0.413657069815E+03   -0.26846E-06   -0.66874E-06  3353   0.379E-03
  147 T=   159. E= -.41287722E+03 F= -.41365707E+03 E0= -.41363436E+03  EK= 0.77985E+00 SP= 0.00E+00 SK= 0.00E+00
       N       E                     dE             d eps       ncg     rms          rms(c)
RMM:   1    -0.413570072023E+03    0.86998E-01   -0.16477E+01  4284   0.697E+00    0.106E+00
RMM:   2    -0.413502852893E+03    0.67219E-01   -0.58081E-01  5463   0.777E-01    0.980E-01
RMM:   3    -0.413527433348E+03   -0.24580E-01   -0.90561E-02  5719   0.323E-01    0.108E+00
RMM:   4    -0.413500070406E+03    0.27363E-01   -0.42769E-02  5154   0.242E-01    0.536E-01
RMM:   5    -0.413497935718E+03    0.21347E-02   -0.30571E-02  4624   0.234E-01    0.185E-01
RMM:   6    -0.413496733444E+03    0.12023E-02   -0.92153E-03  5054   0.121E-01    0.114E-01
RMM:   7    -0.413495975938E+03    0.75751E-03   -0.16003E-03  4761   0.562E-02    0.502E-02
RMM:   8    -0.413495971299E+03    0.46385E-05   -0.63749E-04  5734   0.297E-02    0.343E-02
RMM:   9    -0.413495968743E+03    0.25563E-05   -0.22402E-04  5235   0.185E-02    0.220E-02
RMM:  10    -0.413495964836E+03    0.39071E-05   -0.58947E-05  5562   0.959E-03    0.106E-02
RMM:  11    -0.413495969116E+03   -0.42802E-05   -0.25437E-05  4963   0.595E-03    0.653E-03
RMM:  12    -0.413495971039E+03   -0.19228E-05   -0.44397E-06  2980   0.307E-03    0.263E-03
RMM:  13    -0.413495972446E+03   -0.14071E-05   -0.16329E-06  2554   0.201E-03    0.136E-03
RMM:  14    -0.413495974466E+03   -0.20204E-05   -0.80493E-07  2425   0.150E-03    0.601E-04
RMM:  15    -0.413495975846E+03   -0.13799E-05   -0.39358E-07  1988   0.105E-03    0.331E-04
RMM:  16    -0.413495977081E+03   -0.12342E-05   -0.24107E-07  1631   0.834E-04    0.180E-04
RMM:  17    -0.413495978150E+03   -0.10699E-05   -0.16702E-07  1354   0.735E-04    0.922E-05
RMM:  18    -0.413495979081E+03   -0.93101E-06   -0.13407E-07  1344   0.696E-04
  148 T=   128. E= -.41286614E+03 F= -.41349598E+03 E0= -.41347324E+03  EK= 0.62984E+00 SP= 0.00E+00 SK= 0.00E+00
       N       E                     dE             d eps       ncg     rms          rms(c)
RMM:   1    -0.413466497705E+03    0.29480E-01   -0.12674E+01  4293   0.627E+00    0.843E-01
RMM:   2    -0.413433575590E+03    0.32922E-01   -0.37863E-01  5442   0.639E-01    0.830E-01
RMM:   3    -0.413428693685E+03    0.48819E-02   -0.60954E-02  5601   0.274E-01    0.751E-01
RMM:   4    -0.413419507134E+03    0.91866E-02   -0.30626E-02  5332   0.207E-01    0.374E-01
RMM:   5    -0.413418489407E+03    0.10177E-02   -0.25019E-02  4965   0.197E-01    0.191E-01
RMM:   6    -0.413417256622E+03    0.12328E-02   -0.80780E-03  5116   0.114E-01    0.107E-01
RMM:   7    -0.413416743638E+03    0.51298E-03   -0.10605E-03  4562   0.494E-02    0.430E-02
RMM:   8    -0.413416765707E+03   -0.22070E-04   -0.70516E-04  5767   0.298E-02    0.328E-02
RMM:   9    -0.413416761760E+03    0.39476E-05   -0.13211E-04  5100   0.144E-02    0.200E-02
RMM:  10    -0.413416759956E+03    0.18043E-05   -0.62665E-05  5555   0.956E-03    0.829E-03
RMM:  11    -0.413416765909E+03   -0.59535E-05   -0.20816E-05  4763   0.530E-03    0.594E-03
RMM:  12    -0.413416769494E+03   -0.35854E-05   -0.37431E-06  2869   0.300E-03    0.255E-03
RMM:  13    -0.413416771653E+03   -0.21582E-05   -0.13212E-06  2551   0.186E-03    0.112E-03
RMM:  14    -0.413416774408E+03   -0.27553E-05   -0.10698E-06  2493   0.154E-03    0.559E-04
RMM:  15    -0.413416776010E+03   -0.16020E-05   -0.58709E-07  2114   0.111E-03    0.339E-04
RMM:  16    -0.413416777286E+03   -0.12759E-05   -0.45817E-07  1926   0.964E-04    0.214E-04
RMM:  17    -0.413416778150E+03   -0.86395E-06   -0.44793E-07  1893   0.899E-04
  149 T=   111. E= -.41286993E+03 F= -.41341678E+03 E0= -.41339388E+03  EK= 0.54685E+00 SP= 0.00E+00 SK= 0.00E+00
       N       E                     dE             d eps       ncg     rms          rms(c)
RMM:   1    -0.413409212608E+03    0.75647E-02   -0.11127E+01  4297   0.604E+00    0.987E-01
RMM:   2    -0.413417441046E+03   -0.82284E-02   -0.33114E-01  5430   0.637E-01    0.110E+00
RMM:   3    -0.413384893335E+03    0.32548E-01   -0.70412E-02  5392   0.303E-01    0.821E-01
RMM:   4    -0.413378655594E+03    0.62377E-02   -0.46106E-02  5392   0.245E-01    0.426E-01
RMM:   5    -0.413376539415E+03    0.21162E-02   -0.32200E-02  4994   0.222E-01    0.214E-01
RMM:   6    -0.413374777593E+03    0.17618E-02   -0.10653E-02  5141   0.131E-01    0.116E-01
RMM:   7    -0.413374231866E+03    0.54573E-03   -0.10161E-03  4461   0.509E-02    0.460E-02
RMM:   8    -0.413374226050E+03    0.58160E-05   -0.46415E-04  5626   0.249E-02    0.276E-02
RMM:   9    -0.413374241013E+03   -0.14963E-04   -0.16773E-04  5201   0.158E-02    0.175E-02
RMM:  10    -0.413374241419E+03   -0.40663E-06   -0.37601E-05  5069   0.771E-03    0.898E-03
RMM:  11    -0.413374246291E+03   -0.48714E-05   -0.23656E-05  5007   0.578E-03    0.517E-03
RMM:  12    -0.413374252011E+03   -0.57209E-05   -0.45383E-06  2972   0.315E-03    0.256E-03
RMM:  13    -0.413374254396E+03   -0.23843E-05   -0.15190E-06  2589   0.188E-03    0.125E-03
RMM:  14    -0.413374256934E+03   -0.25384E-05   -0.12607E-06  2487   0.158E-03    0.584E-04
RMM:  15    -0.413374258178E+03   -0.12434E-05   -0.89301E-07  2245   0.120E-03    0.406E-04
RMM:  16    -0.413374258499E+03   -0.32115E-06   -0.90939E-07  2216   0.115E-03
  150 T=   102. E= -.41287503E+03 F= -.41337426E+03 E0= -.41335091E+03  EK= 0.49923E+00 SP= 0.00E+00 SK= 0.00E+00
