       N       E                     dE             d eps       ncg     rms          rms(c)
RMM:   1     0.220107791894E+04    0.22011E+04   -0.52448E+04  2132   0.654E+02
RMM:   2     0.705443403032E+03   -0.14956E+04   -0.16264E+04  2132   0.177E+02
RMM:   3     0.137611390253E+03   -0.56783E+03   -0.65678E+03  2132   0.117E+02
RMM:   4    -0.159427175146E+03   -0.29704E+03   -0.27863E+03  2132   0.936E+01
RMM:   5    -0.287431789505E+03   -0.12800E+03   -0.11451E+03  2132   0.595E+01
RMM:   6    -0.349713534920E+03   -0.62282E+02   -0.55151E+02  2132   0.423E+01
RMM:   7    -0.382655534317E+03   -0.32942E+02   -0.30470E+02  2132   0.293E+01
RMM:   8    -0.404204237026E+03   -0.21549E+02   -0.18463E+02  2132   0.234E+01
RMM:   9    -0.436008333963E+03   -0.31804E+02   -0.30700E+02  6098   0.173E+01
RMM:  10    -0.441267242587E+03   -0.52589E+01   -0.62666E+01  6391   0.539E+00
RMM:  11    -0.442505192333E+03   -0.12379E+01   -0.11201E+01  6214   0.174E+00
RMM:  12    -0.442887251175E+03   -0.38206E+00   -0.27910E+00  6368   0.605E-01    0.134E+02
RMM:  13    -0.425610781163E+03    0.17276E+02   -0.80930E+01  4675   0.119E+01    0.712E+01
RMM:  14    -0.499865054330E+03   -0.74254E+02   -0.54100E+02  5416   0.232E+01    0.308E+01
RMM:  15    -0.417387365609E+03    0.82478E+02   -0.20320E+02  5104   0.164E+01    0.809E+00
RMM:  16    -0.414027581359E+03    0.33598E+01   -0.40427E+01  6093   0.620E+00    0.433E+00
RMM:  17    -0.413205343845E+03    0.82224E+00   -0.26795E+00  5419   0.194E+00    0.243E+00
RMM:  18    -0.413179524386E+03    0.25819E-01   -0.73610E-01  6003   0.877E-01    0.171E+00
RMM:  19    -0.413175883060E+03    0.36413E-02   -0.24736E-01  5649   0.547E-01    0.933E-01
RMM:  20    -0.413196797870E+03   -0.20915E-01   -0.34682E-01  5594   0.601E-01    0.694E-01
RMM:  21    -0.413170877490E+03    0.25920E-01   -0.37650E-02  4985   0.258E-01    0.326E-01
RMM:  22    -0.413166116704E+03    0.47608E-02   -0.29437E-02  5804   0.170E-01    0.138E-01
RMM:  23    -0.413165210292E+03    0.90641E-03   -0.56369E-03  5989   0.672E-02    0.849E-02
RMM:  24    -0.413163872395E+03    0.13379E-02   -0.17310E-03  5306   0.414E-02    0.553E-02
RMM:  25    -0.413162967749E+03    0.90465E-03   -0.91897E-04  4953   0.305E-02    0.397E-02
RMM:  26    -0.413163017204E+03   -0.49455E-04   -0.11545E-03  5823   0.343E-02    0.356E-02
RMM:  27    -0.413163405225E+03   -0.38802E-03   -0.21716E-04  4568   0.206E-02    0.199E-02
RMM:  28    -0.413163832227E+03   -0.42700E-03   -0.17157E-04  5104   0.182E-02    0.916E-03
RMM:  29    -0.413164213377E+03   -0.38115E-03   -0.11638E-04  4662   0.158E-02    0.510E-03
RMM:  30    -0.413164464484E+03   -0.25111E-03   -0.87534E-05  4341   0.114E-02    0.479E-03
RMM:  31    -0.413164598555E+03   -0.13407E-03   -0.62985E-05  3337   0.770E-03    0.390E-03
RMM:  32    -0.413164620565E+03   -0.22010E-04   -0.24239E-05  3008   0.330E-03    0.222E-03
RMM:  33    -0.413164628526E+03   -0.79604E-05   -0.95207E-06  2809   0.232E-03    0.822E-04
RMM:  34    -0.413164628313E+03    0.21239E-06   -0.51832E-06  2631   0.167E-03
    1 T=    61. E= -.41286681E+03 F= -.41316463E+03 E0= -.41314213E+03  EK= 0.29781E+00 SP= 0.00E+00 SK= 0.00E+00
       N       E                     dE             d eps       ncg     rms          rms(c)
RMM:   1    -0.413174158279E+03   -0.95298E-02   -0.61989E+00  4004   0.487E-01    0.910E-01
RMM:   2    -0.413171624234E+03    0.25340E-02   -0.80436E-02  3940   0.729E-02    0.664E-01
RMM:   3    -0.413167732010E+03    0.38922E-02   -0.52401E-02  5069   0.776E-02    0.314E-01
RMM:   4    -0.413186251099E+03   -0.18519E-01   -0.28872E-02  5170   0.144E-01    0.624E-01
RMM:   5    -0.413164193642E+03    0.22057E-01   -0.11262E-02  4769   0.106E-01    0.464E-02
RMM:   6    -0.413164337830E+03   -0.14419E-03   -0.18742E-03  5692   0.423E-02    0.297E-02
RMM:   7    -0.413164354531E+03   -0.16701E-04   -0.33157E-04  5752   0.164E-02    0.198E-02
RMM:   8    -0.413164353554E+03    0.97672E-06   -0.41944E-05  4924   0.732E-03    0.696E-03
RMM:   9    -0.413164356947E+03   -0.33921E-05   -0.86355E-06  3233   0.315E-03    0.455E-03
RMM:  10    -0.413164362424E+03   -0.54776E-05   -0.18605E-06  2563   0.196E-03    0.279E-03
RMM:  11    -0.413164366553E+03   -0.41291E-05   -0.10861E-06  2494   0.143E-03    0.137E-03
RMM:  12    -0.413164372303E+03   -0.57497E-05   -0.10626E-06  2503   0.137E-03    0.688E-04
RMM:  13    -0.413164374911E+03   -0.26081E-05   -0.54104E-07  2058   0.100E-03    0.429E-04
RMM:  14    -0.413164375449E+03   -0.53825E-06   -0.31199E-07  1538   0.759E-04
    2 T=    61. E= -.41286658E+03 F= -.41316438E+03 E0= -.41314188E+03  EK= 0.29779E+00 SP= 0.00E+00 SK= 0.00E+00
       N       E                     dE             d eps       ncg     rms          rms(c)
RMM:   1    -0.413175269548E+03   -0.10895E-01   -0.61487E+00  4190   0.486E-01    0.926E-01
RMM:   2    -0.413171831911E+03    0.34376E-02   -0.80785E-02  4002   0.720E-02    0.663E-01
RMM:   3    -0.413168979791E+03    0.28521E-02   -0.49038E-02  5107   0.800E-02    0.309E-01
RMM:   4    -0.413186545078E+03   -0.17565E-01   -0.30027E-02  5133   0.148E-01    0.619E-01
RMM:   5    -0.413164791598E+03    0.21753E-01   -0.10362E-02  4720   0.104E-01    0.462E-02
RMM:   6    -0.413164919943E+03   -0.12835E-03   -0.17924E-03  5648   0.416E-02    0.314E-02
RMM:   7    -0.413164920959E+03   -0.10161E-05   -0.31823E-04  5629   0.169E-02    0.211E-02
RMM:   8    -0.413164914252E+03    0.67067E-05   -0.45169E-05  5054   0.776E-03    0.799E-03
RMM:   9    -0.413164913067E+03    0.11851E-05   -0.83872E-06  3269   0.332E-03    0.475E-03
RMM:  10    -0.413164913187E+03   -0.11984E-06   -0.15876E-06  2540   0.202E-03
    3 T=    61. E= -.41286691E+03 F= -.41316491E+03 E0= -.41314242E+03  EK= 0.29800E+00 SP= 0.00E+00 SK= 0.00E+00
       N       E                     dE             d eps       ncg     rms          rms(c)
RMM:   1    -0.413174586348E+03   -0.96733E-02   -0.61109E+00  4216   0.492E-01    0.911E-01
RMM:   2    -0.413171546436E+03    0.30399E-02   -0.80211E-02  4115   0.710E-02    0.657E-01
RMM:   3    -0.413172568137E+03   -0.10217E-02   -0.51665E-02  5153   0.981E-02    0.405E-01
RMM:   4    -0.413179822424E+03   -0.72543E-02   -0.28738E-02  5079   0.148E-01    0.529E-01
RMM:   5    -0.413164646387E+03    0.15176E-01   -0.74391E-03  4620   0.879E-02    0.454E-02
RMM:   6    -0.413164691744E+03   -0.45357E-04   -0.11584E-03  5420   0.336E-02    0.293E-02
RMM:   7    -0.413164697701E+03   -0.59571E-05   -0.22266E-04  5546   0.144E-02    0.184E-02
RMM:   8    -0.413164694052E+03    0.36492E-05   -0.32993E-05  4824   0.686E-03    0.617E-03
RMM:   9    -0.413164694623E+03   -0.57073E-06   -0.48084E-06  2860   0.266E-03
    4 T=    61. E= -.41286675E+03 F= -.41316469E+03 E0= -.41314221E+03  EK= 0.29794E+00 SP= 0.00E+00 SK= 0.00E+00
       N       E                     dE             d eps       ncg     rms          rms(c)
RMM:   1    -0.413174519835E+03   -0.98258E-02   -0.61966E+00  4239   0.500E-01    0.907E-01
RMM:   2    -0.413171911410E+03    0.26084E-02   -0.80530E-02  4079   0.697E-02    0.663E-01
RMM:   3    -0.413172675964E+03   -0.76455E-03   -0.54789E-02  5145   0.968E-02    0.418E-01
RMM:   4    -0.413180382443E+03   -0.77065E-02   -0.28648E-02  5076   0.148E-01    0.542E-01
RMM:   5    -0.413164774026E+03    0.15608E-01   -0.81951E-03  4621   0.904E-02    0.450E-02
RMM:   6    -0.413164838206E+03   -0.64181E-04   -0.12206E-03  5483   0.339E-02    0.283E-02
RMM:   7    -0.413164854452E+03   -0.16246E-04   -0.23007E-04  5556   0.144E-02    0.179E-02
RMM:   8    -0.413164856358E+03   -0.19064E-05   -0.32094E-05  4735   0.678E-03    0.586E-03
RMM:   9    -0.413164859332E+03   -0.29737E-05   -0.47089E-06  2860   0.262E-03    0.352E-03
RMM:  10    -0.413164864252E+03   -0.49201E-05   -0.12481E-06  2526   0.174E-03    0.213E-03
RMM:  11    -0.413164867778E+03   -0.35260E-05   -0.74663E-07  2373   0.128E-03    0.103E-03
RMM:  12    -0.413164872152E+03   -0.43741E-05   -0.81285E-07  2441   0.121E-03    0.530E-04
RMM:  13    -0.413164874502E+03   -0.23504E-05   -0.46822E-07  1851   0.921E-04    0.322E-04
RMM:  14    -0.413164875154E+03   -0.65138E-06   -0.23241E-07  1379   0.743E-04
    5 T=    61. E= -.41286682E+03 F= -.41316488E+03 E0= -.41314240E+03  EK= 0.29806E+00 SP= 0.00E+00 SK= 0.00E+00
       N       E                     dE             d eps       ncg     rms          rms(c)
RMM:   1    -0.413175560424E+03   -0.10686E-01   -0.61645E+00  4246   0.499E-01    0.923E-01
RMM:   2    -0.413172271847E+03    0.32886E-02   -0.80528E-02  4064   0.692E-02    0.664E-01
RMM:   3    -0.413169864362E+03    0.24075E-02   -0.49987E-02  5111   0.801E-02    0.327E-01
RMM:   4    -0.413185998799E+03   -0.16134E-01   -0.29819E-02  5108   0.148E-01    0.608E-01
RMM:   5    -0.413165219517E+03    0.20779E-01   -0.10032E-02  4690   0.101E-01    0.459E-02
RMM:   6    -0.413165336984E+03   -0.11747E-03   -0.16830E-03  5600   0.402E-02    0.309E-02
RMM:   7    -0.413165336396E+03    0.58840E-06   -0.29900E-04  5626   0.163E-02    0.207E-02
RMM:   8    -0.413165329843E+03    0.65524E-05   -0.41203E-05  4955   0.769E-03    0.760E-03
RMM:   9    -0.413165329833E+03    0.10103E-07   -0.76055E-06  3159   0.323E-03
    6 T=    61. E= -.41286701E+03 F= -.41316533E+03 E0= -.41314287E+03  EK= 0.29832E+00 SP= 0.00E+00 SK= 0.00E+00
       N       E                     dE             d eps       ncg     rms          rms(c)
RMM:   1    -0.413175126990E+03   -0.97971E-02   -0.61220E+00  4268   0.504E-01    0.917E-01
RMM:   2    -0.413171960821E+03    0.31662E-02   -0.80332E-02  4253   0.704E-02    0.659E-01
RMM:   3    -0.413175404911E+03   -0.34441E-02   -0.52494E-02  5162   0.107E-01    0.450E-01
RMM:   4    -0.413177702403E+03   -0.22975E-02   -0.28715E-02  5053   0.149E-01    0.485E-01
RMM:   5    -0.413165115532E+03    0.12587E-01   -0.61492E-03  4559   0.814E-02    0.454E-02
RMM:   6    -0.413165125835E+03   -0.10303E-04   -0.95574E-04  5334   0.302E-02    0.291E-02
RMM:   7    -0.413165140855E+03   -0.15020E-04   -0.19211E-04  5441   0.135E-02    0.175E-02
RMM:   8    -0.413165136490E+03    0.43643E-05   -0.29395E-05  4681   0.677E-03    0.561E-03
RMM:   9    -0.413165135435E+03    0.10556E-05   -0.40061E-06  2747   0.248E-03    0.305E-03
RMM:  10    -0.413165134903E+03    0.53138E-06   -0.11145E-06  2500   0.163E-03
    7 T=    61. E= -.41286679E+03 F= -.41316513E+03 E0= -.41314269E+03  EK= 0.29834E+00 SP= 0.00E+00 SK= 0.00E+00
       N       E                     dE             d eps       ncg     rms          rms(c)
RMM:   1    -0.413175343367E+03   -0.10208E-01   -0.61868E+00  4272   0.513E-01    0.906E-01
RMM:   2    -0.413172839597E+03    0.25038E-02   -0.80385E-02  4118   0.720E-02    0.661E-01
RMM:   3    -0.413170772087E+03    0.20675E-02   -0.52733E-02  5076   0.862E-02    0.355E-01
RMM:   4    -0.413185459474E+03   -0.14687E-01   -0.29139E-02  5087   0.147E-01    0.600E-01
RMM:   5    -0.413165566432E+03    0.19893E-01   -0.10062E-02  4690   0.100E-01    0.446E-02
RMM:   6    -0.413165679659E+03   -0.11323E-03   -0.16272E-03  5615   0.391E-02    0.299E-02
RMM:   7    -0.413165680903E+03   -0.12437E-05   -0.29247E-04  5586   0.163E-02    0.200E-02
RMM:   8    -0.413165675833E+03    0.50697E-05   -0.39889E-05  4865   0.768E-03    0.727E-03
RMM:   9    -0.413165677512E+03   -0.16794E-05   -0.73502E-06  3121   0.314E-03    0.445E-03
RMM:  10    -0.413165680763E+03   -0.32511E-05   -0.14142E-06  2528   0.191E-03    0.268E-03
RMM:  11    -0.413165683022E+03   -0.22585E-05   -0.82063E-07  2468   0.139E-03    0.136E-03
RMM:  12    -0.413165685979E+03   -0.29574E-05   -0.98837E-07  2495   0.138E-03    0.707E-04
RMM:  13    -0.413165686964E+03   -0.98415E-06   -0.47417E-07  2065   0.101E-03
    8 T=    61. E= -.41286704E+03 F= -.41316569E+03 E0= -.41314326E+03  EK= 0.29865E+00 SP= 0.00E+00 SK= 0.00E+00
       N       E                     dE             d eps       ncg     rms          rms(c)
RMM:   1    -0.413175906493E+03   -0.10221E-01   -0.61894E+00  4283   0.514E-01    0.919E-01
RMM:   2    -0.413173006309E+03    0.29002E-02   -0.80630E-02  4155   0.739E-02    0.665E-01
RMM:   3    -0.413170039834E+03    0.29665E-02   -0.50763E-02  5059   0.821E-02    0.323E-01
RMM:   4    -0.413187268562E+03   -0.17229E-01   -0.29459E-02  5098   0.147E-01    0.618E-01
RMM:   5    -0.413165738085E+03    0.21530E-01   -0.10560E-02  4704   0.103E-01    0.447E-02
RMM:   6    -0.413165873729E+03   -0.13564E-03   -0.17725E-03  5653   0.409E-02    0.312E-02
RMM:   7    -0.413165872231E+03    0.14978E-05   -0.31311E-04  5584   0.169E-02    0.209E-02
RMM:   8    -0.413165867658E+03    0.45727E-05   -0.42394E-05  4926   0.779E-03    0.800E-03
RMM:   9    -0.413165867395E+03    0.26331E-06   -0.83976E-06  3230   0.334E-03
    9 T=    61. E= -.41286697E+03 F= -.41316587E+03 E0= -.41314346E+03  EK= 0.29890E+00 SP= 0.00E+00 SK= 0.00E+00
       N       E                     dE             d eps       ncg     rms          rms(c)
RMM:   1    -0.413176128744E+03   -0.10261E-01   -0.61482E+00  4299   0.517E-01    0.923E-01
RMM:   2    -0.413172804417E+03    0.33243E-02   -0.80951E-02  4317   0.738E-02    0.661E-01
RMM:   3    -0.413177924738E+03   -0.51203E-02   -0.53449E-02  5147   0.114E-01    0.479E-01
RMM:   4    -0.413177229033E+03    0.69570E-03   -0.28821E-02  5035   0.150E-01    0.461E-01
RMM:   5    -0.413165957152E+03    0.11272E-01   -0.55117E-03  4527   0.776E-02    0.452E-02
RMM:   6    -0.413165955860E+03    0.12924E-05   -0.83547E-04  5285   0.283E-02    0.292E-02
RMM:   7    -0.413165948746E+03    0.71141E-05   -0.17756E-04  5332   0.135E-02    0.170E-02
RMM:   8    -0.413165941953E+03    0.67926E-05   -0.27503E-05  4620   0.653E-03    0.531E-03
RMM:   9    -0.413165940067E+03    0.18864E-05   -0.35358E-06  2688   0.238E-03    0.285E-03
RMM:  10    -0.413165938171E+03    0.18956E-05   -0.10587E-06  2477   0.157E-03    0.166E-03
RMM:  11    -0.413165936153E+03    0.20183E-05   -0.65711E-07  2204   0.117E-03    0.777E-04
RMM:  12    -0.413165933222E+03    0.29311E-05   -0.61032E-07  2221   0.107E-03    0.428E-04
RMM:  13    -0.413165930754E+03    0.24676E-05   -0.31601E-07  1592   0.820E-04    0.282E-04
RMM:  14    -0.413165928175E+03    0.25790E-05   -0.25417E-07  1461   0.756E-04    0.178E-04
RMM:  15    -0.413165924463E+03    0.37123E-05   -0.32471E-07  1722   0.789E-04    0.295E-04
RMM:  16    -0.413165920285E+03    0.41775E-05   -0.29818E-07  1409   0.719E-04    0.136E-04
RMM:  17    -0.413165919595E+03    0.69052E-06   -0.77318E-08   896   0.545E-04
   10 T=    61. E= -.41286678E+03 F= -.41316592E+03 E0= -.41314353E+03  EK= 0.29914E+00 SP= 0.00E+00 SK= 0.00E+00
       N       E                     dE             d eps       ncg     rms          rms(c)
RMM:   1    -0.413176404487E+03   -0.10484E-01   -0.61772E+00  4290   0.525E-01    0.906E-01
RMM:   2    -0.413173776996E+03    0.26275E-02   -0.80379E-02  4220   0.733E-02    0.660E-01
RMM:   3    -0.413171249806E+03    0.25272E-02   -0.51709E-02  5066   0.843E-02    0.339E-01
RMM:   4    -0.413187384202E+03   -0.16134E-01   -0.29355E-02  5084   0.147E-01    0.611E-01
RMM:   5    -0.413166585767E+03    0.20798E-01   -0.10404E-02  4693   0.101E-01    0.446E-02
RMM:   6    -0.413166708036E+03   -0.12227E-03   -0.16913E-03  5615   0.399E-02    0.305E-02
RMM:   7    -0.413166710258E+03   -0.22218E-05   -0.29934E-04  5526   0.164E-02    0.203E-02
RMM:   8    -0.413166707565E+03    0.26934E-05   -0.40045E-05  4927   0.741E-03    0.749E-03
RMM:   9    -0.413166708412E+03   -0.84760E-06   -0.75118E-06  3147   0.321E-03
   11 T=    61. E= -.41286711E+03 F= -.41316671E+03 E0= -.41314435E+03  EK= 0.29960E+00 SP= 0.00E+00 SK= 0.00E+00
       N       E                     dE             d eps       ncg     rms          rms(c)
RMM:   1    -0.413176561688E+03   -0.98541E-02   -0.62241E+00  4297   0.529E-01    0.916E-01
RMM:   2    -0.413173732131E+03    0.28296E-02   -0.80954E-02  4327   0.722E-02    0.666E-01
RMM:   3    -0.413178830588E+03   -0.50985E-02   -0.56593E-02  5151   0.115E-01    0.493E-01
RMM:   4    -0.413178198246E+03    0.63234E-03   -0.28982E-02  5030   0.150E-01    0.474E-01
RMM:   5    -0.413166673313E+03    0.11525E-01   -0.63360E-03  4519   0.790E-02    0.442E-02
RMM:   6    -0.413166693037E+03   -0.19724E-04   -0.85446E-04  5257   0.283E-02    0.282E-02
RMM:   7    -0.413166701371E+03   -0.83347E-05   -0.17660E-04  5301   0.131E-02    0.165E-02
RMM:   8    -0.413166700808E+03    0.56349E-06   -0.26504E-05  4570   0.626E-03    0.495E-03
RMM:   9    -0.413166701695E+03   -0.88747E-06   -0.32003E-06  2662   0.231E-03
   12 T=    61. E= -.41286687E+03 F= -.41316670E+03 E0= -.41314437E+03  EK= 0.29983E+00 SP= 0.00E+00 SK= 0.00E+00
       N       E                     dE             d eps       ncg     rms          rms(c)
RMM:   1    -0.413177600109E+03   -0.10899E-01   -0.61807E+00  4290   0.529E-01    0.927E-01
RMM:   2    -0.413174090185E+03    0.35099E-02   -0.81234E-02  4272   0.701E-02    0.663E-01
RMM:   3    -0.413173901212E+03    0.18897E-03   -0.49906E-02  5132   0.908E-02    0.372E-01
RMM:   4    -0.413184367996E+03   -0.10467E-01   -0.29701E-02  5075   0.149E-01    0.555E-01
RMM:   5    -0.413167201125E+03    0.17167E-01   -0.80056E-03  4646   0.923E-02    0.458E-02
RMM:   6    -0.413167269460E+03   -0.68335E-04   -0.13647E-03  5534   0.358E-02    0.306E-02
RMM:   7    -0.413167267504E+03    0.19556E-05   -0.25020E-04  5547   0.153E-02    0.197E-02
RMM:   8    -0.413167261203E+03    0.63011E-05   -0.36135E-05  4853   0.720E-03    0.680E-03
RMM:   9    -0.413167258150E+03    0.30529E-05   -0.58888E-06  2956   0.289E-03    0.381E-03
RMM:  10    -0.413167255471E+03    0.26791E-05   -0.13692E-06  2517   0.186E-03    0.230E-03
RMM:  11    -0.413167252999E+03    0.24723E-05   -0.73823E-07  2420   0.133E-03    0.116E-03
RMM:  12    -0.413167248569E+03    0.44299E-05   -0.81923E-07  2475   0.128E-03    0.624E-04
RMM:  13    -0.413167245169E+03    0.33994E-05   -0.39658E-07  1929   0.950E-04    0.403E-04
RMM:  14    -0.413167243468E+03    0.17012E-05   -0.17967E-07  1397   0.732E-04    0.231E-04
RMM:  15    -0.413167238365E+03    0.51033E-05   -0.31300E-07  1933   0.843E-04    0.417E-04
RMM:  16    -0.413167232888E+03    0.54772E-05   -0.27164E-07  1380   0.710E-04    0.273E-04
RMM:  17    -0.413167232022E+03    0.86505E-06   -0.72465E-08   885   0.550E-04
   13 T=    61. E= -.41286698E+03 F= -.41316723E+03 E0= -.41314493E+03  EK= 0.30026E+00 SP= 0.00E+00 SK= 0.00E+00
       N       E                     dE             d eps       ncg     rms          rms(c)
RMM:   1    -0.413177662438E+03   -0.10430E-01   -0.61740E+00  4294   0.537E-01    0.908E-01
RMM:   2    -0.413174912621E+03    0.27498E-02   -0.80492E-02  4257   0.713E-02    0.659E-01
RMM:   3    -0.413172606578E+03    0.23060E-02   -0.50754E-02  5095   0.810E-02    0.336E-01
RMM:   4    -0.413188670897E+03   -0.16064E-01   -0.29929E-02  5086   0.148E-01    0.610E-01
RMM:   5    -0.413167818216E+03    0.20853E-01   -0.10241E-02  4687   0.102E-01    0.450E-02
RMM:   6    -0.413167950443E+03   -0.13223E-03   -0.17001E-03  5609   0.398E-02    0.308E-02
RMM:   7    -0.413167958392E+03   -0.79486E-05   -0.29928E-04  5519   0.165E-02    0.206E-02
RMM:   8    -0.413167952092E+03    0.63001E-05   -0.40789E-05  4934   0.753E-03    0.760E-03
RMM:   9    -0.413167951353E+03    0.73859E-06   -0.75703E-06  3149   0.325E-03
   14 T=    61. E= -.41286717E+03 F= -.41316795E+03 E0= -.41314568E+03  EK= 0.30078E+00 SP= 0.00E+00 SK= 0.00E+00
       N       E                     dE             d eps       ncg     rms          rms(c)
RMM:   1    -0.413177799075E+03   -0.98470E-02   -0.62610E+00  4303   0.542E-01    0.914E-01
RMM:   2    -0.413175202045E+03    0.25970E-02   -0.81289E-02  4325   0.731E-02    0.667E-01
RMM:   3    -0.413180812288E+03   -0.56102E-02   -0.57718E-02  5146   0.117E-01    0.507E-01
RMM:   4    -0.413179219181E+03    0.15931E-02   -0.29199E-02  5024   0.151E-01    0.472E-01
RMM:   5    -0.413167972520E+03    0.11247E-01   -0.63773E-03  4497   0.793E-02    0.437E-02
RMM:   6    -0.413167992238E+03   -0.19717E-04   -0.84355E-04  5271   0.279E-02    0.280E-02
RMM:   7    -0.413167993476E+03   -0.12377E-05   -0.17600E-04  5223   0.134E-02    0.162E-02
RMM:   8    -0.413167995090E+03   -0.16139E-05   -0.25906E-05  4446   0.638E-03    0.483E-03
RMM:   9    -0.413167996051E+03   -0.96138E-06   -0.32971E-06  2677   0.233E-03
   15 T=    61. E= -.41286685E+03 F= -.41316800E+03 E0= -.41314576E+03  EK= 0.30115E+00 SP= 0.00E+00 SK= 0.00E+00
       N       E                     dE             d eps       ncg     rms          rms(c)
RMM:   1    -0.413179320772E+03   -0.11326E-01   -0.62163E+00  4296   0.542E-01    0.929E-01
RMM:   2    -0.413176032268E+03    0.32885E-02   -0.81658E-02  4277   0.747E-02    0.666E-01
RMM:   3    -0.413175619427E+03    0.41284E-03   -0.50214E-02  5101   0.940E-02    0.371E-01
RMM:   4    -0.413186470640E+03   -0.10851E-01   -0.29766E-02  5065   0.149E-01    0.560E-01
RMM:   5    -0.413168992660E+03    0.17478E-01   -0.81330E-03  4648   0.932E-02    0.456E-02
RMM:   6    -0.413169066519E+03   -0.73859E-04   -0.14157E-03  5553   0.360E-02    0.307E-02
RMM:   7    -0.413169059305E+03    0.72140E-05   -0.25641E-04  5510   0.158E-02    0.197E-02
RMM:   8    -0.413169051832E+03    0.74730E-05   -0.35788E-05  4817   0.737E-03    0.683E-03
RMM:   9    -0.413169048591E+03    0.32404E-05   -0.62783E-06  2988   0.295E-03    0.388E-03
RMM:  10    -0.413169045468E+03    0.31236E-05   -0.13724E-06  2516   0.188E-03    0.234E-03
RMM:  11    -0.413169042670E+03    0.27979E-05   -0.73663E-07  2420   0.134E-03    0.119E-03
RMM:  12    -0.413169037504E+03    0.51660E-05   -0.82046E-07  2475   0.129E-03    0.625E-04
RMM:  13    -0.413169033277E+03    0.42269E-05   -0.39632E-07  1943   0.958E-04    0.414E-04
RMM:  14    -0.413169031596E+03    0.16813E-05   -0.16947E-07  1362   0.721E-04    0.234E-04
RMM:  15    -0.413169024976E+03    0.66193E-05   -0.29192E-07  1866   0.834E-04    0.433E-04
RMM:  16    -0.413169019495E+03    0.54819E-05   -0.18857E-07  1278   0.665E-04    0.295E-04
RMM:  17    -0.413169018454E+03    0.10407E-05   -0.68516E-08   872   0.547E-04    0.223E-04
RMM:  18    -0.413169016303E+03    0.21504E-05   -0.61792E-08   939   0.571E-04    0.769E-05
RMM:  19    -0.413169015057E+03    0.12466E-05   -0.44764E-08   930   0.575E-04    0.719E-05
RMM:  20    -0.413169015074E+03   -0.16917E-07   -0.14725E-08   651   0.529E-04
   16 T=    61. E= -.41286715E+03 F= -.41316902E+03 E0= -.41314682E+03  EK= 0.30186E+00 SP= 0.00E+00 SK= 0.00E+00
       N       E                     dE             d eps       ncg     rms          rms(c)
RMM:   1    -0.413179384359E+03   -0.10369E-01   -0.61926E+00  4298   0.548E-01    0.913E-01
RMM:   2    -0.413176599496E+03    0.27849E-02   -0.81179E-02  4262   0.758E-02    0.660E-01
RMM:   3    -0.413174172320E+03    0.24272E-02   -0.50029E-02  5055   0.851E-02    0.330E-01
RMM:   4    -0.413190543546E+03   -0.16371E-01   -0.30151E-02  5076   0.149E-01    0.613E-01
RMM:   5    -0.413169392961E+03    0.21151E-01   -0.10214E-02  4692   0.102E-01    0.451E-02
RMM:   6    -0.413169511292E+03   -0.11833E-03   -0.17169E-03  5625   0.402E-02    0.313E-02
RMM:   7    -0.413169508577E+03    0.27156E-05   -0.30223E-04  5516   0.169E-02    0.208E-02
RMM:   8    -0.413169503711E+03    0.48660E-05   -0.41744E-05  4942   0.778E-03    0.774E-03
RMM:   9    -0.413169502003E+03    0.17081E-05   -0.82295E-06  3183   0.334E-03    0.463E-03
RMM:  10    -0.413169501646E+03    0.35651E-06   -0.14559E-06  2521   0.200E-03
   17 T=    62. E= -.41286707E+03 F= -.41316950E+03 E0= -.41314734E+03  EK= 0.30243E+00 SP= 0.00E+00 SK= 0.00E+00
       N       E                     dE             d eps       ncg     rms          rms(c)
RMM:   1    -0.413179777482E+03   -0.10275E-01   -0.62960E+00  4302   0.556E-01    0.913E-01
RMM:   2    -0.413177342301E+03    0.24352E-02   -0.81882E-02  4284   0.770E-02    0.668E-01
RMM:   3    -0.413178787578E+03   -0.14453E-02   -0.55539E-02  5095   0.104E-01    0.436E-01
RMM:   4    -0.413184925667E+03   -0.61381E-02   -0.29173E-02  5039   0.149E-01    0.533E-01
RMM:   5    -0.413169940386E+03    0.14985E-01   -0.78890E-03  4582   0.881E-02    0.444E-02
RMM:   6    -0.413169999236E+03   -0.58850E-04   -0.12087E-03  5442   0.327E-02    0.287E-02
RMM:   7    -0.413169993257E+03    0.59790E-05   -0.22150E-04  5418   0.144E-02    0.180E-02
RMM:   8    -0.413169993733E+03   -0.47559E-06   -0.31029E-05  4672   0.689E-03    0.584E-03
RMM:   9    -0.413169994247E+03   -0.51467E-06   -0.47725E-06  2826   0.266E-03
   18 T=    62. E= -.41286698E+03 F= -.41316999E+03 E0= -.41314788E+03  EK= 0.30301E+00 SP= 0.00E+00 SK= 0.00E+00
       N       E                     dE             d eps       ncg     rms          rms(c)
RMM:   1    -0.413181519211E+03   -0.11525E-01   -0.62600E+00  4296   0.554E-01    0.930E-01
RMM:   2    -0.413178239474E+03    0.32797E-02   -0.82138E-02  4290   0.761E-02    0.668E-01
RMM:   3    -0.413179422620E+03   -0.11831E-02   -0.51733E-02  5123   0.995E-02    0.408E-01
RMM:   4    -0.413186742175E+03   -0.73196E-02   -0.29744E-02  5048   0.150E-01    0.532E-01
RMM:   5    -0.413171209389E+03    0.15533E-01   -0.73005E-03  4600   0.885E-02    0.457E-02
RMM:   6    -0.413171268346E+03   -0.58957E-04   -0.12407E-03  5461   0.334E-02    0.300E-02
RMM:   7    -0.413171258803E+03    0.95434E-05   -0.22983E-04  5460   0.150E-02    0.189E-02
RMM:   8    -0.413171254328E+03    0.44743E-05   -0.33067E-05  4731   0.739E-03    0.631E-03
RMM:   9    -0.413171251502E+03    0.28259E-05   -0.55650E-06  2883   0.283E-03    0.353E-03
RMM:  10    -0.413171248617E+03    0.28852E-05   -0.12826E-06  2518   0.180E-03    0.212E-03
RMM:  11    -0.413171245840E+03    0.27771E-05   -0.69970E-07  2362   0.129E-03    0.105E-03
RMM:  12    -0.413171240796E+03    0.50436E-05   -0.72993E-07  2405   0.122E-03    0.568E-04
RMM:  13    -0.413171236659E+03    0.41378E-05   -0.34583E-07  1808   0.899E-04    0.360E-04
RMM:  14    -0.413171234385E+03    0.22741E-05   -0.16326E-07  1299   0.707E-04    0.200E-04
RMM:  15    -0.413171227678E+03    0.67065E-05   -0.24921E-07  1664   0.787E-04    0.352E-04
RMM:  16    -0.413171221728E+03    0.59499E-05   -0.16984E-07  1240   0.667E-04    0.230E-04
RMM:  17    -0.413171220582E+03    0.11458E-05   -0.64709E-08   886   0.559E-04    0.162E-04
RMM:  18    -0.413171218354E+03    0.22289E-05   -0.52787E-08   932   0.570E-04    0.651E-05
RMM:  19    -0.413171217048E+03    0.13060E-05   -0.38249E-08   897   0.564E-04    0.520E-05
RMM:  20    -0.413171216918E+03    0.12980E-06   -0.13599E-08   653   0.523E-04
   19 T=    62. E= -.41286733E+03 F= -.41317122E+03 E0= -.41314914E+03  EK= 0.30389E+00 SP= 0.00E+00 SK= 0.00E+00
       N       E                     dE             d eps       ncg     rms          rms(c)
RMM:   1    -0.413181718542E+03   -0.10501E-01   -0.62300E+00  4295   0.559E-01    0.920E-01
RMM:   2    -0.413178583565E+03    0.31350E-02   -0.81707E-02  4275   0.749E-02    0.663E-01
RMM:   3    -0.413176269297E+03    0.23143E-02   -0.49266E-02  5090   0.808E-02    0.325E-01
RMM:   4    -0.413193054665E+03   -0.16785E-01   -0.30828E-02  5080   0.150E-01    0.616E-01
RMM:   5    -0.413171534881E+03    0.21520E-01   -0.10243E-02  4692   0.103E-01    0.456E-02
RMM:   6    -0.413171659302E+03   -0.12442E-03   -0.17496E-03  5633   0.405E-02    0.317E-02
RMM:   7    -0.413171652410E+03    0.68926E-05   -0.30643E-04  5509   0.171E-02    0.213E-02
RMM:   8    -0.413171648615E+03    0.37951E-05   -0.43241E-05  4935   0.828E-03    0.804E-03
RMM:   9    -0.413171646069E+03    0.25455E-05   -0.92389E-06  3237   0.350E-03    0.471E-03
RMM:  10    -0.413171644439E+03    0.16299E-05   -0.15693E-06  2534   0.204E-03    0.282E-03
RMM:  11    -0.413171642826E+03    0.16128E-05   -0.80923E-07  2478   0.142E-03    0.148E-03
RMM:  12    -0.413171639463E+03    0.33637E-05   -0.96339E-07  2495   0.145E-03    0.801E-04
RMM:  13    -0.413171636863E+03    0.26000E-05   -0.41019E-07  2123   0.103E-03    0.526E-04
RMM:  14    -0.413171636242E+03    0.62034E-06   -0.18054E-07  1508   0.742E-04
   20 T=    62. E= -.41286708E+03 F= -.41317164E+03 E0= -.41314960E+03  EK= 0.30455E+00 SP= 0.00E+00 SK= 0.00E+00
       N       E                     dE             d eps       ncg     rms          rms(c)
RMM:   1    -0.413183208051E+03   -0.11571E-01   -0.63301E+00  4291   0.579E-01    0.911E-01
RMM:   2    -0.413179995311E+03    0.32127E-02   -0.85622E-02  4278   0.770E-02    0.669E-01
RMM:   3    -0.413177020863E+03    0.29744E-02   -0.51840E-02  5070   0.788E-02    0.331E-01
RMM:   4    -0.413196137668E+03   -0.19117E-01   -0.31639E-02  5080   0.152E-01    0.644E-01
RMM:   5    -0.413172638671E+03    0.23499E-01   -0.11628E-02  4710   0.108E-01    0.454E-02
RMM:   6    -0.413172780038E+03   -0.14137E-03   -0.19088E-03  5670   0.423E-02    0.308E-02
RMM:   7    -0.413172786579E+03   -0.65414E-05   -0.32482E-04  5578   0.172E-02    0.209E-02
RMM:   8    -0.413172784180E+03    0.23990E-05   -0.46294E-05  4968   0.813E-03    0.813E-03
RMM:   9    -0.413172783343E+03    0.83716E-06   -0.90587E-06  3324   0.362E-03
   21 T=    62. E= -.41286727E+03 F= -.41317278E+03 E0= -.41315080E+03  EK= 0.30551E+00 SP= 0.00E+00 SK= 0.00E+00
       N       E                     dE             d eps       ncg     rms          rms(c)
RMM:   1    -0.413184084733E+03   -0.11301E-01   -0.63189E+00  4302   0.569E-01    0.929E-01
RMM:   2    -0.413180972792E+03    0.31119E-02   -0.82680E-02  4344   0.766E-02    0.671E-01
RMM:   3    -0.413186885903E+03   -0.59131E-02   -0.55749E-02  5141   0.118E-01    0.500E-01
RMM:   4    -0.413185349969E+03    0.15359E-02   -0.29926E-02  5019   0.153E-01    0.467E-01
RMM:   5    -0.413173881945E+03    0.11468E-01   -0.57963E-03  4495   0.795E-02    0.443E-02
RMM:   6    -0.413173904972E+03   -0.23027E-04   -0.86339E-04  5313   0.283E-02    0.291E-02
RMM:   7    -0.413173908194E+03   -0.32215E-05   -0.18273E-04  5224   0.139E-02    0.173E-02
RMM:   8    -0.413173905150E+03    0.30439E-05   -0.28158E-05  4544   0.715E-03    0.522E-03
RMM:   9    -0.413173903115E+03    0.20344E-05   -0.37249E-06  2709   0.248E-03    0.289E-03
RMM:  10    -0.413173900912E+03    0.22038E-05   -0.10112E-06  2473   0.157E-03    0.166E-03
RMM:  11    -0.413173898589E+03    0.23226E-05   -0.58304E-07  2111   0.112E-03    0.790E-04
RMM:  12    -0.413173894420E+03    0.41687E-05   -0.58070E-07  2232   0.106E-03    0.465E-04
RMM:  13    -0.413173890494E+03    0.39261E-05   -0.28116E-07  1532   0.797E-04    0.286E-04
RMM:  14    -0.413173887315E+03    0.31790E-05   -0.15836E-07  1181   0.683E-04    0.163E-04
RMM:  15    -0.413173881808E+03    0.55068E-05   -0.18180E-07  1330   0.711E-04    0.256E-04
RMM:  16    -0.413173875412E+03    0.63963E-05   -0.16013E-07  1198   0.663E-04    0.143E-04
RMM:  17    -0.413173874410E+03    0.10024E-05   -0.54966E-08   815   0.554E-04    0.103E-04
RMM:  18    -0.413173872496E+03    0.19132E-05   -0.42175E-08   877   0.557E-04    0.458E-05
RMM:  19    -0.413173871382E+03    0.11144E-05   -0.27543E-08   801   0.541E-04    0.231E-05
RMM:  20    -0.413173871145E+03    0.23722E-06   -0.11344E-08   619   0.510E-04
   22 T=    62. E= -.41286734E+03 F= -.41317387E+03 E0= -.41315193E+03  EK= 0.30653E+00 SP= 0.00E+00 SK= 0.00E+00
       N       E                     dE             d eps       ncg     rms          rms(c)
RMM:   1    -0.413184922269E+03   -0.11051E-01   -0.62920E+00  4288   0.571E-01    0.929E-01
RMM:   2    -0.413181681690E+03    0.32406E-02   -0.82792E-02  4295   0.774E-02    0.667E-01
RMM:   3    -0.413178700645E+03    0.29810E-02   -0.48710E-02  5035   0.819E-02    0.306E-01
RMM:   4    -0.413197527676E+03   -0.18827E-01   -0.31120E-02  5083   0.151E-01    0.635E-01
RMM:   5    -0.413174519785E+03    0.23008E-01   -0.10853E-02  4709   0.106E-01    0.457E-02
RMM:   6    -0.413174658658E+03   -0.13887E-03   -0.18815E-03  5670   0.422E-02    0.323E-02
RMM:   7    -0.413174648254E+03    0.10404E-04   -0.32539E-04  5521   0.177E-02    0.218E-02
RMM:   8    -0.413174639995E+03    0.82587E-05   -0.46872E-05  4999   0.831E-03    0.863E-03
RMM:   9    -0.413174636538E+03    0.34573E-05   -0.97481E-06  3345   0.358E-03    0.513E-03
RMM:  10    -0.413174634062E+03    0.24765E-05   -0.15943E-06  2537   0.208E-03    0.308E-03
RMM:  11    -0.413174631654E+03    0.24081E-05   -0.87440E-07  2494   0.148E-03    0.162E-03
RMM:  12    -0.413174627070E+03    0.45836E-05   -0.10974E-06  2507   0.154E-03    0.850E-04
RMM:  13    -0.413174623733E+03    0.33373E-05   -0.44478E-07  2176   0.107E-03    0.579E-04
RMM:  14    -0.413174623304E+03    0.42826E-06   -0.18779E-07  1566   0.751E-04
   23 T=    63. E= -.41286710E+03 F= -.41317462E+03 E0= -.41315273E+03  EK= 0.30752E+00 SP= 0.00E+00 SK= 0.00E+00
       N       E                     dE             d eps       ncg     rms          rms(c)
RMM:   1    -0.413186084410E+03   -0.11461E-01   -0.63575E+00  4294   0.579E-01    0.916E-01
RMM:   2    -0.413183614537E+03    0.24699E-02   -0.83044E-02  4294   0.792E-02    0.669E-01
RMM:   3    -0.413180232139E+03    0.33824E-02   -0.51989E-02  5005   0.835E-02    0.320E-01
RMM:   4    -0.413199392118E+03   -0.19160E-01   -0.30054E-02  5085   0.148E-01    0.641E-01
RMM:   5    -0.413176104501E+03    0.23288E-01   -0.11528E-02  4725   0.108E-01    0.449E-02
RMM:   6    -0.413176242919E+03   -0.13842E-03   -0.19488E-03  5715   0.424E-02    0.311E-02
RMM:   7    -0.413176244184E+03   -0.12646E-05   -0.33514E-04  5538   0.178E-02    0.214E-02
RMM:   8    -0.413176240730E+03    0.34536E-05   -0.48502E-05  4903   0.848E-03    0.863E-03
RMM:   9    -0.413176239348E+03    0.13818E-05   -0.10550E-05  3414   0.372E-03    0.538E-03
RMM:  10    -0.413176239467E+03   -0.11909E-06   -0.16327E-06  2532   0.209E-03
   24 T=    63. E= -.41286738E+03 F= -.41317624E+03 E0= -.41315439E+03  EK= 0.30886E+00 SP= 0.00E+00 SK= 0.00E+00
       N       E                     dE             d eps       ncg     rms          rms(c)
RMM:   1    -0.413187502842E+03   -0.11263E-01   -0.64021E+00  4302   0.586E-01    0.929E-01
RMM:   2    -0.413184690954E+03    0.28119E-02   -0.83801E-02  4318   0.816E-02    0.675E-01
RMM:   3    -0.413185608966E+03   -0.91801E-03   -0.53919E-02  5080   0.105E-01    0.417E-01
RMM:   4    -0.413193551966E+03   -0.79430E-02   -0.29806E-02  5044   0.151E-01    0.548E-01
RMM:   5    -0.413177221913E+03    0.16330E-01   -0.78657E-03  4608   0.911E-02    0.450E-02
RMM:   6    -0.413177294627E+03   -0.72714E-04   -0.13259E-03  5539   0.344E-02    0.298E-02
RMM:   7    -0.413177291928E+03    0.26995E-05   -0.24349E-04  5436   0.153E-02    0.193E-02
RMM:   8    -0.413177287050E+03    0.48776E-05   -0.34358E-05  4763   0.729E-03    0.651E-03
RMM:   9    -0.413177285327E+03    0.17229E-05   -0.57145E-06  2928   0.287E-03    0.370E-03
RMM:  10    -0.413177283749E+03    0.15780E-05   -0.11856E-06  2503   0.178E-03    0.224E-03
RMM:  11    -0.413177281946E+03    0.18033E-05   -0.65860E-07  2364   0.127E-03    0.114E-03
RMM:  12    -0.413177278313E+03    0.36326E-05   -0.70357E-07  2423   0.121E-03    0.595E-04
RMM:  13    -0.413177275773E+03    0.25405E-05   -0.29596E-07  1828   0.877E-04    0.400E-04
RMM:  14    -0.413177273621E+03    0.21515E-05   -0.15018E-07  1294   0.696E-04    0.218E-04
RMM:  15    -0.413177268650E+03    0.49708E-05   -0.16568E-07  1398   0.718E-04    0.259E-04
RMM:  16    -0.413177262526E+03    0.61241E-05   -0.15205E-07  1190   0.665E-04    0.193E-04
RMM:  17    -0.413177260710E+03    0.18160E-05   -0.58687E-08   931   0.578E-04    0.137E-04
RMM:  18    -0.413177257719E+03    0.29914E-05   -0.51612E-08  1005   0.585E-04    0.544E-05
RMM:  19    -0.413177256678E+03    0.10409E-05   -0.26912E-08   831   0.548E-04    0.246E-05
RMM:  20    -0.413177256284E+03    0.39417E-06   -0.13861E-08   701   0.527E-04
   25 T=    63. E= -.41286719E+03 F= -.41317726E+03 E0= -.41315546E+03  EK= 0.31006E+00 SP= 0.00E+00 SK= 0.00E+00
       N       E                     dE             d eps       ncg     rms          rms(c)
RMM:   1    -0.413189263742E+03   -0.12007E-01   -0.63745E+00  4293   0.586E-01    0.938E-01
RMM:   2    -0.413185786206E+03    0.34775E-02   -0.84235E-02  4299   0.798E-02    0.673E-01
RMM:   3    -0.413182293496E+03    0.34927E-02   -0.48521E-02  5005   0.831E-02    0.291E-01
RMM:   4    -0.413202970249E+03   -0.20677E-01   -0.31556E-02  5092   0.152E-01    0.652E-01
RMM:   5    -0.413178550541E+03    0.24420E-01   -0.11544E-02  4732   0.109E-01    0.461E-02
RMM:   6    -0.413178695941E+03   -0.14540E-03   -0.20151E-03  5723   0.434E-02    0.328E-02
RMM:   7    -0.413178689665E+03    0.62757E-05   -0.34059E-04  5527   0.182E-02    0.225E-02
RMM:   8    -0.413178681209E+03    0.84562E-05   -0.49671E-05  4993   0.864E-03    0.923E-03
RMM:   9    -0.413178676929E+03    0.42798E-05   -0.10522E-05  3476   0.381E-03    0.554E-03
RMM:  10    -0.413178673629E+03    0.32997E-05   -0.17199E-06  2544   0.217E-03    0.331E-03
RMM:  11    -0.413178670672E+03    0.29571E-05   -0.96204E-07  2501   0.154E-03    0.176E-03
RMM:  12    -0.413178665235E+03    0.54371E-05   -0.12457E-06  2517   0.163E-03    0.912E-04
RMM:  13    -0.413178661670E+03    0.35651E-05   -0.48012E-07  2227   0.111E-03    0.636E-04
RMM:  14    -0.413178661223E+03    0.44667E-06   -0.19894E-07  1600   0.770E-04
   26 T=    63. E= -.41286725E+03 F= -.41317866E+03 E0= -.41315691E+03  EK= 0.31141E+00 SP= 0.00E+00 SK= 0.00E+00
       N       E                     dE             d eps       ncg     rms          rms(c)
RMM:   1    -0.413191917635E+03   -0.13256E-01   -0.64189E+00  4294   0.608E-01    0.921E-01
RMM:   2    -0.413187841838E+03    0.40758E-02   -0.84020E-02  4290   0.818E-02    0.671E-01
RMM:   3    -0.413183910017E+03    0.39318E-02   -0.50916E-02  5005   0.795E-02    0.301E-01
RMM:   4    -0.413204560741E+03   -0.20651E-01   -0.30120E-02  5099   0.148E-01    0.651E-01
RMM:   5    -0.413180332118E+03    0.24229E-01   -0.11827E-02  4737   0.109E-01    0.450E-02
RMM:   6    -0.413180484944E+03   -0.15283E-03   -0.20151E-03  5757   0.430E-02    0.313E-02
RMM:   7    -0.413180487614E+03   -0.26701E-05   -0.32973E-04  5543   0.180E-02    0.217E-02
RMM:   8    -0.413180482831E+03    0.47833E-05   -0.50736E-05  4921   0.851E-03    0.924E-03
RMM:   9    -0.413180480838E+03    0.19927E-05   -0.10374E-05  3481   0.383E-03    0.571E-03
RMM:  10    -0.413180479788E+03    0.10502E-05   -0.16970E-06  2534   0.216E-03    0.340E-03
RMM:  11    -0.413180478205E+03    0.15834E-05   -0.10493E-06  2502   0.161E-03    0.172E-03
RMM:  12    -0.413180475218E+03    0.29866E-05   -0.11973E-06  2502   0.162E-03    0.968E-04
RMM:  13    -0.413180473136E+03    0.20822E-05   -0.39762E-07  2201   0.108E-03    0.595E-04
RMM:  14    -0.413180472516E+03    0.62010E-06   -0.17848E-07  1541   0.752E-04
   27 T=    64. E= -.41286751E+03 F= -.41318047E+03 E0= -.41315877E+03  EK= 0.31296E+00 SP= 0.00E+00 SK= 0.00E+00
       N       E                     dE             d eps       ncg     rms          rms(c)
RMM:   1    -0.413192786964E+03   -0.12314E-01   -0.65053E+00  4292   0.611E-01    0.928E-01
RMM:   2    -0.413189098706E+03    0.36883E-02   -0.89419E-02  4288   0.855E-02    0.680E-01
RMM:   3    -0.413184669401E+03    0.44293E-02   -0.50936E-02  5004   0.754E-02    0.291E-01
RMM:   4    -0.413207363784E+03   -0.22694E-01   -0.31060E-02  5106   0.150E-01    0.670E-01
RMM:   5    -0.413181515836E+03    0.25848E-01   -0.12641E-02  4746   0.113E-01    0.453E-02
RMM:   6    -0.413181666605E+03   -0.15077E-03   -0.21507E-03  5792   0.444E-02    0.314E-02
RMM:   7    -0.413181668672E+03   -0.20667E-05   -0.33869E-04  5554   0.181E-02    0.217E-02
RMM:   8    -0.413181664586E+03    0.40854E-05   -0.53259E-05  4935   0.872E-03    0.952E-03
RMM:   9    -0.413181662391E+03    0.21947E-05   -0.10923E-05  3581   0.401E-03    0.593E-03
RMM:  10    -0.413181661956E+03    0.43513E-06   -0.19457E-06  2566   0.225E-03
   28 T=    64. E= -.41286726E+03 F= -.41318166E+03 E0= -.41316001E+03  EK= 0.31441E+00 SP= 0.00E+00 SK= 0.00E+00
       N       E                     dE             d eps       ncg     rms          rms(c)
RMM:   1    -0.413194457131E+03   -0.12795E-01   -0.64712E+00  4295   0.604E-01    0.947E-01
RMM:   2    -0.413191007994E+03    0.34491E-02   -0.85920E-02  4315   0.857E-02    0.679E-01
RMM:   3    -0.413191459134E+03   -0.45114E-03   -0.51428E-02  5099   0.100E-01    0.394E-01
RMM:   4    -0.413201185817E+03   -0.97267E-02   -0.31263E-02  5045   0.154E-01    0.560E-01
RMM:   5    -0.413183650637E+03    0.17535E-01   -0.79183E-03  4635   0.934E-02    0.460E-02
RMM:   6    -0.413183706975E+03   -0.56338E-04   -0.14152E-03  5611   0.358E-02    0.313E-02
RMM:   7    -0.413183703968E+03    0.30069E-05   -0.25953E-04  5411   0.164E-02    0.204E-02
RMM:   8    -0.413183703415E+03    0.55306E-06   -0.38491E-05  4823   0.798E-03    0.723E-03
RMM:   9    -0.413183699471E+03    0.39433E-05   -0.71254E-06  3033   0.321E-03    0.391E-03
RMM:  10    -0.413183694917E+03    0.45539E-05   -0.14109E-06  2528   0.194E-03    0.236E-03
RMM:  11    -0.413183690733E+03    0.41843E-05   -0.77453E-07  2435   0.137E-03    0.122E-03
RMM:  12    -0.413183683467E+03    0.72661E-05   -0.82548E-07  2467   0.131E-03    0.630E-04
RMM:  13    -0.413183679336E+03    0.41308E-05   -0.36056E-07  1935   0.938E-04    0.445E-04
RMM:  14    -0.413183676332E+03    0.30041E-05   -0.18021E-07  1415   0.730E-04    0.255E-04
RMM:  15    -0.413183669240E+03    0.70924E-05   -0.18230E-07  1504   0.739E-04    0.285E-04
RMM:  16    -0.413183661121E+03    0.81184E-05   -0.15204E-07  1224   0.669E-04    0.215E-04
RMM:  17    -0.413183658368E+03    0.27532E-05   -0.67672E-08   975   0.584E-04    0.149E-04
RMM:  18    -0.413183654826E+03    0.35423E-05   -0.57773E-08  1093   0.596E-04    0.475E-05
RMM:  19    -0.413183653945E+03    0.88138E-06   -0.27587E-08   828   0.543E-04
   29 T=    64. E= -.41286745E+03 F= -.41318365E+03 E0= -.41316206E+03  EK= 0.31621E+00 SP= 0.00E+00 SK= 0.00E+00
       N       E                     dE             d eps       ncg     rms          rms(c)
RMM:   1    -0.413195762762E+03   -0.12108E-01   -0.64761E+00  4293   0.615E-01    0.929E-01
RMM:   2    -0.413193091870E+03    0.26709E-02   -0.85715E-02  4283   0.888E-02    0.674E-01
RMM:   3    -0.413188613279E+03    0.44786E-02   -0.50131E-02  4980   0.786E-02    0.284E-01
RMM:   4    -0.413210728400E+03   -0.22115E-01   -0.30637E-02  5106   0.149E-01    0.663E-01
RMM:   5    -0.413185398106E+03    0.25330E-01   -0.12360E-02  4743   0.112E-01    0.452E-02
RMM:   6    -0.413185553038E+03   -0.15493E-03   -0.21528E-03  5815   0.439E-02    0.317E-02
RMM:   7    -0.413185567209E+03   -0.14171E-04   -0.32860E-04  5543   0.182E-02    0.219E-02
RMM:   8    -0.413185565847E+03    0.13624E-05   -0.55743E-05  4900   0.907E-03    0.100E-02
RMM:   9    -0.413185563417E+03    0.24295E-05   -0.12180E-05  3621   0.419E-03    0.617E-03
RMM:  10    -0.413185562078E+03    0.13389E-05   -0.20944E-06  2578   0.236E-03    0.361E-03
RMM:  11    -0.413185560329E+03    0.17490E-05   -0.11645E-06  2504   0.172E-03    0.184E-03
RMM:  12    -0.413185557257E+03    0.30720E-05   -0.13428E-06  2519   0.173E-03    0.104E-03
RMM:  13    -0.413185555406E+03    0.18514E-05   -0.43472E-07  2244   0.113E-03    0.649E-04
RMM:  14    -0.413185554706E+03    0.69990E-06   -0.19764E-07  1631   0.781E-04
   30 T=    65. E= -.41286752E+03 F= -.41318555E+03 E0= -.41316401E+03  EK= 0.31804E+00 SP= 0.00E+00 SK= 0.00E+00
       N       E                     dE             d eps       ncg     rms          rms(c)
RMM:   1    -0.413197693738E+03   -0.12138E-01   -0.66032E+00  4299   0.628E-01    0.934E-01
RMM:   2    -0.413195218426E+03    0.24753E-02   -0.88651E-02  4284   0.950E-02    0.684E-01
RMM:   3    -0.413189958497E+03    0.52599E-02   -0.52765E-02  4909   0.814E-02    0.288E-01
RMM:   4    -0.413211360693E+03   -0.21402E-01   -0.28206E-02  5117   0.143E-01    0.650E-01
RMM:   5    -0.413187007648E+03    0.24353E-01   -0.12105E-02  4771   0.109E-01    0.439E-02
RMM:   6    -0.413187156728E+03   -0.14908E-03   -0.20227E-03  5845   0.425E-02    0.301E-02
RMM:   7    -0.413187171359E+03   -0.14631E-04   -0.29440E-04  5571   0.172E-02    0.202E-02
RMM:   8    -0.413187170819E+03    0.53981E-06   -0.55289E-05  4920   0.851E-03    0.961E-03
RMM:   9    -0.413187168745E+03    0.20735E-05   -0.11037E-05  3671   0.404E-03    0.607E-03
RMM:  10    -0.413187168694E+03    0.51536E-07   -0.19160E-06  2559   0.227E-03
   31 T=    65. E= -.41286730E+03 F= -.41318717E+03 E0= -.41316567E+03  EK= 0.31987E+00 SP= 0.00E+00 SK= 0.00E+00
       N       E                     dE             d eps       ncg     rms          rms(c)
RMM:   1    -0.413202361583E+03   -0.15193E-01   -0.65989E+00  4299   0.661E-01    0.951E-01
RMM:   2    -0.413197542219E+03    0.48194E-02   -0.92865E-02  4300   0.104E-01    0.686E-01
RMM:   3    -0.413195872400E+03    0.16698E-02   -0.50218E-02  5031   0.103E-01    0.354E-01
RMM:   4    -0.413212100413E+03   -0.16228E-01   -0.34139E-02  5060   0.159E-01    0.627E-01
RMM:   5    -0.413189626524E+03    0.22474E-01   -0.10135E-02  4682   0.104E-01    0.475E-02
RMM:   6    -0.413189740599E+03   -0.11408E-03   -0.18763E-03  5694   0.406E-02    0.324E-02
RMM:   7    -0.413189750117E+03   -0.95176E-05   -0.31524E-04  5492   0.174E-02    0.220E-02
RMM:   8    -0.413189745971E+03    0.41458E-05   -0.46981E-05  4968   0.835E-03    0.846E-03
RMM:   9    -0.413189741253E+03    0.47173E-05   -0.93800E-06  3245   0.361E-03    0.461E-03
RMM:  10    -0.413189736799E+03    0.44545E-05   -0.17305E-06  2557   0.213E-03    0.282E-03
RMM:  11    -0.413189732543E+03    0.42555E-05   -0.87216E-07  2481   0.148E-03    0.148E-03
RMM:  12    -0.413189725064E+03    0.74798E-05   -0.93527E-07  2482   0.144E-03    0.714E-04
RMM:  13    -0.413189721218E+03    0.38459E-05   -0.39384E-07  2084   0.102E-03    0.523E-04
RMM:  14    -0.413189718778E+03    0.24400E-05   -0.19185E-07  1572   0.764E-04    0.313E-04
RMM:  15    -0.413189711803E+03    0.69745E-05   -0.17582E-07  1583   0.751E-04    0.297E-04
RMM:  16    -0.413189704561E+03    0.72426E-05   -0.12494E-07  1260   0.655E-04    0.267E-04
RMM:  17    -0.413189699731E+03    0.48299E-05   -0.78556E-08  1049   0.597E-04    0.183E-04
RMM:  18    -0.413189696279E+03    0.34518E-05   -0.60950E-08  1100   0.598E-04    0.486E-05
RMM:  19    -0.413189694899E+03    0.13803E-05   -0.32407E-08   878   0.556E-04    0.517E-05
RMM:  20    -0.413189694545E+03    0.35378E-06   -0.16821E-08   741   0.531E-04
   32 T=    66. E= -.41286759E+03 F= -.41318969E+03 E0= -.41316825E+03  EK= 0.32210E+00 SP= 0.00E+00 SK= 0.00E+00
       N       E                     dE             d eps       ncg     rms          rms(c)
RMM:   1    -0.413204911343E+03   -0.15216E-01   -0.66040E+00  4298   0.680E-01    0.938E-01
RMM:   2    -0.413199297856E+03    0.56135E-02   -0.96185E-02  4277   0.104E-01    0.682E-01
RMM:   3    -0.413193476763E+03    0.58211E-02   -0.47255E-02  4809   0.834E-02    0.230E-01
RMM:   4    -0.413216707944E+03   -0.23231E-01   -0.27620E-02  5118   0.142E-01    0.660E-01
RMM:   5    -0.413191324829E+03    0.25383E-01   -0.12350E-02  4772   0.110E-01    0.444E-02
RMM:   6    -0.413191496553E+03   -0.17172E-03   -0.21432E-03  5829   0.435E-02    0.312E-02
RMM:   7    -0.413191519022E+03   -0.22469E-04   -0.26901E-04  5552   0.173E-02    0.191E-02
RMM:   8    -0.413191520520E+03   -0.14979E-05   -0.59717E-05  4954   0.856E-03    0.106E-02
RMM:   9    -0.413191515902E+03    0.46181E-05   -0.12840E-05  3921   0.429E-03    0.677E-03
RMM:  10    -0.413191513876E+03    0.20252E-05   -0.22221E-06  2595   0.249E-03    0.396E-03
RMM:  11    -0.413191511261E+03    0.26159E-05   -0.14752E-06  2529   0.190E-03    0.202E-03
RMM:  12    -0.413191506965E+03    0.42951E-05   -0.14561E-06  2517   0.187E-03    0.115E-03
RMM:  13    -0.413191504905E+03    0.20607E-05   -0.45871E-07  2288   0.119E-03    0.716E-04
RMM:  14    -0.413191504053E+03    0.85173E-06   -0.20907E-07  1737   0.803E-04
   33 T=    66. E= -.41286733E+03 F= -.41319150E+03 E0= -.41317010E+03  EK= 0.32418E+00 SP= 0.00E+00 SK= 0.00E+00
       N       E                     dE             d eps       ncg     rms          rms(c)
RMM:   1    -0.413205101242E+03   -0.13596E-01   -0.67149E+00  4307   0.668E-01    0.938E-01
RMM:   2    -0.413201735372E+03    0.33659E-02   -0.93613E-02  4271   0.105E-01    0.690E-01
RMM:   3    -0.413195788067E+03    0.59473E-02   -0.52247E-02  4697   0.839E-02    0.256E-01
RMM:   4    -0.413210345564E+03   -0.14557E-01   -0.18242E-02  5117   0.116E-01    0.538E-01
RMM:   5    -0.413193753929E+03    0.16592E-01   -0.81976E-03  4792   0.894E-02    0.401E-02
RMM:   6    -0.413193859061E+03   -0.10513E-03   -0.14221E-03  5829   0.351E-02    0.271E-02
RMM:   7    -0.413193873227E+03   -0.14166E-04   -0.15293E-04  5380   0.140E-02    0.137E-02
RMM:   8    -0.413193872027E+03    0.12002E-05   -0.25500E-05  4275   0.549E-03    0.696E-03
RMM:   9    -0.413193873419E+03   -0.13920E-05   -0.64236E-06  3095   0.310E-03    0.475E-03
RMM:  10    -0.413193872103E+03    0.13158E-05   -0.12376E-06  2530   0.186E-03    0.313E-03
RMM:  11    -0.413193870628E+03    0.14751E-05   -0.17730E-06  2520   0.202E-03    0.172E-03
RMM:  12    -0.413193868649E+03    0.19790E-05   -0.95478E-07  2435   0.150E-03    0.134E-03
RMM:  13    -0.413193867392E+03    0.12566E-05   -0.29476E-07  2073   0.950E-04    0.585E-04
RMM:  14    -0.413193866093E+03    0.12990E-05   -0.14698E-07  1438   0.705E-04    0.363E-04
RMM:  15    -0.413193860940E+03    0.51533E-05   -0.25426E-07  2093   0.842E-04    0.594E-04
RMM:  16    -0.413193859449E+03    0.14903E-05   -0.63650E-08  1015   0.586E-04    0.416E-04
RMM:  17    -0.413193854304E+03    0.51450E-05   -0.81204E-08   983   0.606E-04    0.236E-04
RMM:  18    -0.413193852140E+03    0.21645E-05   -0.41892E-08   905   0.570E-04    0.776E-05
RMM:  19    -0.413193849431E+03    0.27092E-05   -0.41669E-08  1058   0.589E-04    0.144E-04
RMM:  20    -0.413193848869E+03    0.56178E-06   -0.15019E-08   733   0.527E-04
   34 T=    66. E= -.41286742E+03 F= -.41319385E+03 E0= -.41317249E+03  EK= 0.32643E+00 SP= 0.00E+00 SK= 0.00E+00
       N       E                     dE             d eps       ncg     rms          rms(c)
RMM:   1    -0.413208533357E+03   -0.14684E-01   -0.67201E+00  4305   0.681E-01    0.959E-01
RMM:   2    -0.413203938275E+03    0.45951E-02   -0.91524E-02  4271   0.114E-01    0.692E-01
RMM:   3    -0.413198123260E+03    0.58150E-02   -0.49770E-02  4627   0.898E-02    0.223E-01
RMM:   4    -0.413212243249E+03   -0.14120E-01   -0.16769E-02  5120   0.113E-01    0.524E-01
RMM:   5    -0.413196486745E+03    0.15757E-01   -0.77917E-03  4791   0.868E-02    0.405E-02
RMM:   6    -0.413196585577E+03   -0.98832E-04   -0.13554E-03  5811   0.344E-02    0.281E-02
RMM:   7    -0.413196606295E+03   -0.20717E-04   -0.19804E-04  5440   0.153E-02    0.172E-02
RMM:   8    -0.413196596029E+03    0.10266E-04   -0.37427E-05  4792   0.697E-03    0.839E-03
RMM:   9    -0.413196595452E+03    0.57662E-06   -0.86826E-06  3475   0.367E-03
   35 T=    67. E= -.41286773E+03 F= -.41319660E+03 E0= -.41317529E+03  EK= 0.32887E+00 SP= 0.00E+00 SK= 0.00E+00
       N       E                     dE             d eps       ncg     rms          rms(c)
RMM:   1    -0.413209693081E+03   -0.13097E-01   -0.67048E+00  4304   0.700E-01    0.957E-01
RMM:   2    -0.413205951410E+03    0.37417E-02   -0.92027E-02  4290   0.118E-01    0.689E-01
RMM:   3    -0.413203126102E+03    0.28253E-02   -0.50857E-02  4937   0.111E-01    0.313E-01
RMM:   4    -0.413224247682E+03   -0.21122E-01   -0.33924E-02  5072   0.158E-01    0.668E-01
RMM:   5    -0.413198510878E+03    0.25737E-01   -0.11960E-02  4719   0.111E-01    0.473E-02
RMM:   6    -0.413198656330E+03   -0.14545E-03   -0.22000E-03  5781   0.436E-02    0.331E-02
RMM:   7    -0.413198668857E+03   -0.12528E-04   -0.32709E-04  5526   0.179E-02    0.226E-02
RMM:   8    -0.413198664991E+03    0.38667E-05   -0.64525E-05  5014   0.944E-03    0.107E-02
RMM:   9    -0.413198658824E+03    0.61664E-05   -0.12079E-05  3654   0.436E-03    0.564E-03
RMM:  10    -0.413198653676E+03    0.51484E-05   -0.22804E-06  2621   0.243E-03    0.334E-03
RMM:  11    -0.413198648934E+03    0.47415E-05   -0.10536E-06  2494   0.167E-03    0.179E-03
RMM:  12    -0.413198639918E+03    0.90163E-05   -0.12673E-06  2494   0.175E-03    0.101E-03
RMM:  13    -0.413198635260E+03    0.46576E-05   -0.48438E-07  2289   0.118E-03    0.720E-04
RMM:  14    -0.413198633620E+03    0.16403E-05   -0.21927E-07  1734   0.816E-04    0.441E-04
RMM:  15    -0.413198626568E+03    0.70523E-05   -0.19464E-07  1810   0.797E-04    0.374E-04
RMM:  16    -0.413198618654E+03    0.79138E-05   -0.14533E-07  1532   0.695E-04    0.468E-04
RMM:  17    -0.413198612462E+03    0.61915E-05   -0.84382E-08  1082   0.594E-04    0.381E-04
RMM:  18    -0.413198608770E+03    0.36921E-05   -0.61342E-08  1031   0.584E-04    0.121E-04
RMM:  19    -0.413198606123E+03    0.26474E-05   -0.55506E-08  1213   0.606E-04    0.178E-04
RMM:  20    -0.413198606156E+03   -0.32898E-07   -0.19324E-08   712   0.509E-04
   36 T=    67. E= -.41286740E+03 F= -.41319861E+03 E0= -.41317734E+03  EK= 0.33121E+00 SP= 0.00E+00 SK= 0.00E+00
       N       E                     dE             d eps       ncg     rms          rms(c)
RMM:   1    -0.413212786106E+03   -0.14180E-01   -0.68196E+00  4310   0.720E-01    0.947E-01
RMM:   2    -0.413209424006E+03    0.33621E-02   -0.95669E-02  4261   0.120E-01    0.695E-01
RMM:   3    -0.413203076744E+03    0.63473E-02   -0.52697E-02  4365   0.945E-02    0.233E-01
RMM:   4    -0.413202278494E+03    0.79825E-03   -0.28827E-03  4940   0.377E-02    0.106E-01
RMM:   5    -0.413201747109E+03    0.53138E-03   -0.36222E-04  4718   0.192E-02    0.373E-02
RMM:   6    -0.413201780398E+03   -0.33289E-04   -0.34649E-04  5265   0.181E-02    0.303E-02
RMM:   7    -0.413201786315E+03   -0.59169E-05   -0.15747E-04  4789   0.140E-02    0.200E-02
RMM:   8    -0.413201778719E+03    0.75963E-05   -0.28912E-05  4422   0.537E-03    0.555E-03
RMM:   9    -0.413201779693E+03   -0.97407E-06   -0.63365E-06  2477   0.230E-03
   37 T=    68. E= -.41286776E+03 F= -.41320178E+03 E0= -.41318056E+03  EK= 0.33402E+00 SP= 0.00E+00 SK= 0.00E+00
       N       E                     dE             d eps       ncg     rms          rms(c)
RMM:   1    -0.413216040480E+03   -0.14262E-01   -0.68770E+00  4308   0.743E-01    0.965E-01
RMM:   2    -0.413212324625E+03    0.37159E-02   -0.95693E-02  4267   0.115E-01    0.701E-01
RMM:   3    -0.413205592500E+03    0.67321E-02   -0.51468E-02  4373   0.870E-02    0.216E-01
RMM:   4    -0.413204414138E+03    0.11784E-02   -0.20739E-03  4625   0.299E-02    0.464E-02
RMM:   5    -0.413204475105E+03   -0.60967E-04   -0.23841E-04  4975   0.134E-02    0.541E-02
RMM:   6    -0.413204407599E+03    0.67506E-04   -0.29154E-04  5104   0.164E-02    0.316E-02
RMM:   7    -0.413204413847E+03   -0.62484E-05   -0.16739E-04  4797   0.144E-02    0.220E-02
RMM:   8    -0.413204402580E+03    0.11267E-04   -0.25978E-05  4290   0.540E-03    0.730E-03
RMM:   9    -0.413204402116E+03    0.46389E-06   -0.12051E-05  2421   0.234E-03    0.400E-03
RMM:  10    -0.413204396840E+03    0.52764E-05   -0.15465E-06  2310   0.142E-03    0.151E-03
RMM:  11    -0.413204393305E+03    0.35346E-05   -0.56120E-07  1434   0.810E-04    0.477E-04
RMM:  12    -0.413204388294E+03    0.50113E-05   -0.22126E-07  1233   0.714E-04    0.273E-04
RMM:  13    -0.413204381658E+03    0.66364E-05   -0.18154E-07  1223   0.688E-04    0.182E-04
RMM:  14    -0.413204373535E+03    0.81224E-05   -0.15015E-07  1099   0.656E-04    0.199E-04
RMM:  15    -0.413204366530E+03    0.70054E-05   -0.84116E-08  1065   0.615E-04    0.113E-04
RMM:  16    -0.413204363172E+03    0.33578E-05   -0.42453E-08   808   0.536E-04    0.560E-05
RMM:  17    -0.413204361847E+03    0.13254E-05   -0.18614E-08   617   0.495E-04    0.367E-05
RMM:  18    -0.413204359895E+03    0.19514E-05   -0.19963E-08   664   0.513E-04    0.166E-05
RMM:  19    -0.413204359400E+03    0.49508E-06   -0.91851E-09   509   0.477E-04
   38 T=    69. E= -.41286759E+03 F= -.41320436E+03 E0= -.41318318E+03  EK= 0.33677E+00 SP= 0.00E+00 SK= 0.00E+00
       N       E                     dE             d eps       ncg     rms          rms(c)
RMM:   1    -0.413219372090E+03   -0.15012E-01   -0.68745E+00  4308   0.783E-01    0.974E-01
RMM:   2    -0.413214903053E+03    0.44690E-02   -0.96433E-02  4264   0.113E-01    0.699E-01
RMM:   3    -0.413208443242E+03    0.64598E-02   -0.49400E-02  4654   0.841E-02    0.203E-01
RMM:   4    -0.413222198506E+03   -0.13755E-01   -0.16368E-02  5133   0.109E-01    0.516E-01
RMM:   5    -0.413207083571E+03    0.15115E-01   -0.75203E-03  4798   0.859E-02    0.424E-02
RMM:   6    -0.413207106301E+03   -0.22730E-04   -0.13171E-03  5717   0.358E-02    0.313E-02
RMM:   7    -0.413207126193E+03   -0.19892E-04   -0.28903E-04  5437   0.172E-02    0.210E-02
RMM:   8    -0.413207114751E+03    0.11442E-04   -0.45772E-05  5044   0.780E-03    0.939E-03
RMM:   9    -0.413207113352E+03    0.13991E-05   -0.88673E-06  3230   0.355E-03    0.487E-03
RMM:  10    -0.413207110274E+03    0.30775E-05   -0.16495E-06  2528   0.213E-03    0.266E-03
RMM:  11    -0.413207106415E+03    0.38590E-05   -0.10371E-06  2493   0.160E-03    0.133E-03
RMM:  12    -0.413207101669E+03    0.47456E-05   -0.69327E-07  2385   0.132E-03    0.816E-04
RMM:  13    -0.413207099034E+03    0.26352E-05   -0.27662E-07  1982   0.916E-04    0.429E-04
RMM:  14    -0.413207096688E+03    0.23463E-05   -0.14475E-07  1367   0.711E-04    0.231E-04
RMM:  15    -0.413207090825E+03    0.58625E-05   -0.11509E-07  1254   0.692E-04    0.159E-04
RMM:  16    -0.413207086519E+03    0.43064E-05   -0.74125E-08  1064   0.635E-04    0.136E-04
RMM:  17    -0.413207081959E+03    0.45603E-05   -0.60714E-08  1099   0.621E-04    0.105E-04
RMM:  18    -0.413207077578E+03    0.43811E-05   -0.51151E-08  1132   0.610E-04    0.498E-05
RMM:  19    -0.413207076545E+03    0.10329E-05   -0.24863E-08   833   0.545E-04    0.231E-05
RMM:  20    -0.413207076013E+03    0.53170E-06   -0.15896E-08   725   0.527E-04
   39 T=    69. E= -.41286744E+03 F= -.41320708E+03 E0= -.41318594E+03  EK= 0.33963E+00 SP= 0.00E+00 SK= 0.00E+00
       N       E                     dE             d eps       ncg     rms          rms(c)
RMM:   1    -0.413222626542E+03   -0.15550E-01   -0.69531E+00  4313   0.811E-01    0.958E-01
RMM:   2    -0.413218506617E+03    0.41199E-02   -0.98767E-02  4263   0.114E-01    0.701E-01
RMM:   3    -0.413212297058E+03    0.62096E-02   -0.52267E-02  4738   0.893E-02    0.242E-01
RMM:   4    -0.413231752199E+03   -0.19455E-01   -0.23569E-02  5115   0.131E-01    0.611E-01
RMM:   5    -0.413210334906E+03    0.21417E-01   -0.10548E-02  4793   0.102E-01    0.442E-02
RMM:   6    -0.413210366839E+03   -0.31933E-04   -0.17635E-03  5771   0.405E-02    0.301E-02
RMM:   7    -0.413210398695E+03   -0.31856E-04   -0.30704E-04  5563   0.170E-02    0.204E-02
RMM:   8    -0.413210389917E+03    0.87784E-05   -0.56672E-05  5070   0.821E-03    0.993E-03
RMM:   9    -0.413210390544E+03   -0.62725E-06   -0.11240E-05  3639   0.409E-03    0.538E-03
RMM:  10    -0.413210390027E+03    0.51639E-06   -0.20265E-06  2584   0.226E-03
   40 T=    70. E= -.41286773E+03 F= -.41321039E+03 E0= -.41318929E+03  EK= 0.34266E+00 SP= 0.00E+00 SK= 0.00E+00
       N       E                     dE             d eps       ncg     rms          rms(c)
RMM:   1    -0.413225772594E+03   -0.15382E-01   -0.70620E+00  4314   0.839E-01    0.970E-01
RMM:   2    -0.413221134929E+03    0.46377E-02   -0.10383E-01  4288   0.115E-01    0.711E-01
RMM:   3    -0.413217128380E+03    0.40065E-02   -0.53378E-02  4979   0.101E-01    0.314E-01
RMM:   4    -0.413243304467E+03   -0.26176E-01   -0.39281E-02  5082   0.170E-01    0.729E-01
RMM:   5    -0.413212677581E+03    0.30627E-01   -0.14238E-02  4748   0.122E-01    0.496E-02
RMM:   6    -0.413212746475E+03   -0.68894E-04   -0.24599E-03  5773   0.466E-02    0.310E-02
RMM:   7    -0.413212768258E+03   -0.21783E-04   -0.30143E-04  5653   0.168E-02    0.196E-02
RMM:   8    -0.413212772243E+03   -0.39847E-05   -0.75163E-05  5105   0.888E-03    0.114E-02
RMM:   9    -0.413212765686E+03    0.65570E-05   -0.16446E-05  4227   0.486E-03    0.574E-03
RMM:  10    -0.413212763410E+03    0.22762E-05   -0.28509E-06  2671   0.256E-03    0.333E-03
RMM:  11    -0.413212761076E+03    0.23341E-05   -0.12016E-06  2501   0.175E-03    0.190E-03
RMM:  12    -0.413212755285E+03    0.57910E-05   -0.12896E-06  2508   0.171E-03    0.983E-04
RMM:  13    -0.413212750756E+03    0.45286E-05   -0.50953E-07  2302   0.117E-03    0.621E-04
RMM:  14    -0.413212749269E+03    0.14873E-05   -0.21783E-07  1683   0.799E-04    0.346E-04
RMM:  15    -0.413212743043E+03    0.62257E-05   -0.17722E-07  1478   0.758E-04    0.280E-04
RMM:  16    -0.413212737296E+03    0.57469E-05   -0.12659E-07  1403   0.690E-04    0.335E-04
RMM:  17    -0.413212734317E+03    0.29794E-05   -0.66461E-08  1030   0.587E-04    0.231E-04
RMM:  18    -0.413212728763E+03    0.55542E-05   -0.75255E-08  1286   0.631E-04    0.138E-04
RMM:  19    -0.413212726925E+03    0.18372E-05   -0.38335E-08   954   0.559E-04    0.431E-05
RMM:  20    -0.413212725854E+03    0.10713E-05   -0.24440E-08   843   0.540E-04    0.615E-05
RMM:  21    -0.413212725519E+03    0.33555E-06   -0.15085E-08   732   0.517E-04
   41 T=    70. E= -.41286744E+03 F= -.41321273E+03 E0= -.41319166E+03  EK= 0.34529E+00 SP= 0.00E+00 SK= 0.00E+00
       N       E                     dE             d eps       ncg     rms          rms(c)
RMM:   1    -0.413231111910E+03   -0.18386E-01   -0.70621E+00  4313   0.915E-01    0.986E-01
RMM:   2    -0.413223644198E+03    0.74677E-02   -0.10640E-01  4310   0.124E-01    0.710E-01
RMM:   3    -0.413217900214E+03    0.57440E-02   -0.48309E-02  4910   0.877E-02    0.230E-01
RMM:   4    -0.413247853130E+03   -0.29953E-01   -0.36851E-02  5109   0.163E-01    0.745E-01
RMM:   5    -0.413215459535E+03    0.32394E-01   -0.15352E-02  4777   0.124E-01    0.500E-02
RMM:   6    -0.413215539464E+03   -0.79929E-04   -0.25936E-03  5782   0.480E-02    0.316E-02
RMM:   7    -0.413215569401E+03   -0.29937E-04   -0.31910E-04  5692   0.169E-02    0.189E-02
RMM:   8    -0.413215566935E+03    0.24656E-05   -0.53962E-05  5009   0.763E-03    0.100E-02
RMM:   9    -0.413215566786E+03    0.14907E-06   -0.19348E-05  4438   0.479E-03    0.663E-03
RMM:  10    -0.413215562138E+03    0.46485E-05   -0.28286E-06  2643   0.269E-03    0.367E-03
RMM:  11    -0.413215559541E+03    0.25966E-05   -0.12430E-06  2493   0.182E-03    0.217E-03
RMM:  12    -0.413215552963E+03    0.65783E-05   -0.13928E-06  2498   0.187E-03    0.120E-03
RMM:  13    -0.413215549003E+03    0.39594E-05   -0.52101E-07  2358   0.127E-03    0.786E-04
RMM:  14    -0.413215547781E+03    0.12225E-05   -0.21671E-07  1829   0.837E-04    0.443E-04
RMM:  15    -0.413215543712E+03    0.40687E-05   -0.12714E-07  1405   0.718E-04    0.194E-04
RMM:  16    -0.413215538709E+03    0.50027E-05   -0.99271E-08  1397   0.680E-04    0.329E-04
RMM:  17    -0.413215535808E+03    0.29015E-05   -0.53544E-08  1015   0.585E-04    0.285E-04
RMM:  18    -0.413215529644E+03    0.61637E-05   -0.60317E-08  1203   0.614E-04    0.160E-04
RMM:  19    -0.413215527676E+03    0.19678E-05   -0.30671E-08   905   0.548E-04    0.659E-05
RMM:  20    -0.413215526528E+03    0.11483E-05   -0.21866E-08   836   0.537E-04    0.438E-05
RMM:  21    -0.413215526148E+03    0.38019E-06   -0.14924E-08   749   0.521E-04
   42 T=    71. E= -.41286758E+03 F= -.41321553E+03 E0= -.41319449E+03  EK= 0.34795E+00 SP= 0.00E+00 SK= 0.00E+00
       N       E                     dE             d eps       ncg     rms          rms(c)
RMM:   1    -0.413232627847E+03   -0.17101E-01   -0.70802E+00  4313   0.946E-01    0.969E-01
RMM:   2    -0.413226166255E+03    0.64616E-02   -0.10412E-01  4368   0.120E-01    0.707E-01
RMM:   3    -0.413220839097E+03    0.53272E-02   -0.51286E-02  4937   0.932E-02    0.266E-01
RMM:   4    -0.413249698866E+03   -0.28860E-01   -0.37700E-02  5101   0.165E-01    0.742E-01
RMM:   5    -0.413217734460E+03    0.31964E-01   -0.15101E-02  4773   0.124E-01    0.499E-02
RMM:   6    -0.413217807348E+03   -0.72888E-04   -0.25526E-03  5765   0.474E-02    0.306E-02
RMM:   7    -0.413217838958E+03   -0.31611E-04   -0.30318E-04  5706   0.165E-02    0.180E-02
RMM:   8    -0.413217837300E+03    0.16579E-05   -0.49147E-05  4947   0.727E-03    0.915E-03
RMM:   9    -0.413217838736E+03   -0.14354E-05   -0.18281E-05  4349   0.461E-03    0.639E-03
RMM:  10    -0.413217835318E+03    0.34175E-05   -0.29002E-06  2658   0.268E-03    0.355E-03
RMM:  11    -0.413217833646E+03    0.16719E-05   -0.12552E-06  2500   0.181E-03    0.208E-03
RMM:  12    -0.413217828957E+03    0.46890E-05   -0.14024E-06  2509   0.184E-03    0.116E-03
RMM:  13    -0.413217825938E+03    0.30197E-05   -0.51683E-07  2360   0.124E-03    0.741E-04
RMM:  14    -0.413217824736E+03    0.12013E-05   -0.20978E-07  1747   0.817E-04    0.405E-04
RMM:  15    -0.413217820599E+03    0.41377E-05   -0.13826E-07  1459   0.734E-04    0.218E-04
RMM:  16    -0.413217816762E+03    0.38366E-05   -0.87174E-08  1239   0.654E-04    0.261E-04
RMM:  17    -0.413217813559E+03    0.32029E-05   -0.56279E-08  1038   0.597E-04    0.228E-04
RMM:  18    -0.413217808753E+03    0.48066E-05   -0.59182E-08  1173   0.611E-04    0.101E-04
RMM:  19    -0.413217806560E+03    0.21925E-05   -0.32904E-08   962   0.564E-04    0.410E-05
RMM:  20    -0.413217805808E+03    0.75202E-06   -0.16586E-08   761   0.525E-04
   43 T=    71. E= -.41286762E+03 F= -.41321781E+03 E0= -.41319679E+03  EK= 0.35018E+00 SP= 0.00E+00 SK= 0.00E+00
       N       E                     dE             d eps       ncg     rms          rms(c)
RMM:   1    -0.413235657856E+03   -0.17851E-01   -0.72149E+00  4314   0.102E+00    0.972E-01
RMM:   2    -0.413227728857E+03    0.79290E-02   -0.11142E-01  4395   0.133E-01    0.717E-01
RMM:   3    -0.413222909320E+03    0.48195E-02   -0.52045E-02  4959   0.982E-02    0.293E-01
RMM:   4    -0.413253401923E+03   -0.30493E-01   -0.42459E-02  5094   0.176E-01    0.770E-01
RMM:   5    -0.413218930469E+03    0.34471E-01   -0.15929E-02  4761   0.129E-01    0.514E-02
RMM:   6    -0.413219006739E+03   -0.76270E-04   -0.27236E-03  5775   0.488E-02    0.301E-02
RMM:   7    -0.413219034547E+03   -0.27808E-04   -0.29946E-04  5703   0.162E-02    0.175E-02
RMM:   8    -0.413219040316E+03   -0.57691E-05   -0.49572E-05  4961   0.713E-03    0.868E-03
RMM:   9    -0.413219038296E+03    0.20201E-05   -0.16835E-05  4278   0.443E-03    0.590E-03
RMM:  10    -0.413219037726E+03    0.57040E-06   -0.37301E-06  2793   0.273E-03
   44 T=    72. E= -.41286747E+03 F= -.41321904E+03 E0= -.41319805E+03  EK= 0.35157E+00 SP= 0.00E+00 SK= 0.00E+00
       N       E                     dE             d eps       ncg     rms          rms(c)
RMM:   1    -0.413238155413E+03   -0.19117E-01   -0.71640E+00  4314   0.107E+00    0.992E-01
RMM:   2    -0.413228933000E+03    0.92224E-02   -0.10981E-01  4445   0.136E-01    0.716E-01
RMM:   3    -0.413230998208E+03   -0.20652E-02   -0.54261E-02  5083   0.126E-01    0.439E-01
RMM:   4    -0.413241062857E+03   -0.10065E-01   -0.39364E-02  5042   0.174E-01    0.603E-01
RMM:   5    -0.413220389991E+03    0.20673E-01   -0.81379E-03  4628   0.101E-01    0.497E-02
RMM:   6    -0.413220391863E+03   -0.18718E-05   -0.16010E-03  5604   0.381E-02    0.298E-02
RMM:   7    -0.413220401727E+03   -0.98639E-05   -0.26522E-04  5497   0.164E-02    0.213E-02
RMM:   8    -0.413220398711E+03    0.30164E-05   -0.78274E-05  5029   0.975E-03    0.999E-03
RMM:   9    -0.413220390928E+03    0.77824E-05   -0.96809E-06  3508   0.434E-03    0.425E-03
RMM:  10    -0.413220385822E+03    0.51060E-05   -0.19608E-06  2594   0.216E-03    0.240E-03
RMM:  11    -0.413220380342E+03    0.54801E-05   -0.10075E-06  2482   0.157E-03    0.123E-03
RMM:  12    -0.413220371851E+03    0.84913E-05   -0.73376E-07  2378   0.130E-03    0.625E-04
RMM:  13    -0.413220367139E+03    0.47119E-05   -0.30229E-07  1912   0.915E-04    0.363E-04
RMM:  14    -0.413220363135E+03    0.40043E-05   -0.16293E-07  1303   0.720E-04    0.183E-04
RMM:  15    -0.413220351801E+03    0.11333E-04   -0.18258E-07  1609   0.771E-04    0.239E-04
RMM:  16    -0.413220347559E+03    0.42423E-05   -0.93508E-08  1243   0.635E-04    0.140E-04
RMM:  17    -0.413220341963E+03    0.55956E-05   -0.79658E-08  1295   0.632E-04    0.639E-05
RMM:  18    -0.413220338016E+03    0.39478E-05   -0.52847E-08  1158   0.584E-04    0.655E-05
RMM:  19    -0.413220337646E+03    0.36997E-06   -0.26244E-08   793   0.513E-04
   45 T=    72. E= -.41286792E+03 F= -.41322034E+03 E0= -.41319937E+03  EK= 0.35242E+00 SP= 0.00E+00 SK= 0.00E+00
       N       E                     dE             d eps       ncg     rms          rms(c)
RMM:   1    -0.413237937787E+03   -0.17600E-01   -0.71134E+00  4313   0.114E+00    0.974E-01
RMM:   2    -0.413228368906E+03    0.95689E-02   -0.11087E-01  4435   0.143E-01    0.710E-01
RMM:   3    -0.413226444553E+03    0.19244E-02   -0.50519E-02  5021   0.114E-01    0.351E-01
RMM:   4    -0.413248608605E+03   -0.22164E-01   -0.42169E-02  5069   0.178E-01    0.705E-01
RMM:   5    -0.413219865764E+03    0.28743E-01   -0.12301E-02  4714   0.118E-01    0.517E-02
RMM:   6    -0.413219891573E+03   -0.25809E-04   -0.21609E-03  5701   0.442E-02    0.292E-02
RMM:   7    -0.413219915149E+03   -0.23576E-04   -0.26352E-04  5707   0.159E-02    0.181E-02
RMM:   8    -0.413219924210E+03   -0.90615E-05   -0.83928E-05  5143   0.940E-03    0.114E-02
RMM:   9    -0.413219915223E+03    0.89873E-05   -0.17214E-05  4301   0.516E-03    0.484E-03
RMM:  10    -0.413219912504E+03    0.27186E-05   -0.33041E-06  2735   0.262E-03    0.300E-03
RMM:  11    -0.413219909719E+03    0.27847E-05   -0.11926E-06  2492   0.178E-03    0.157E-03
RMM:  12    -0.413219904324E+03    0.53953E-05   -0.82212E-07  2460   0.146E-03    0.809E-04
RMM:  13    -0.413219899767E+03    0.45571E-05   -0.36122E-07  2074   0.100E-03    0.377E-04
RMM:  14    -0.413219897272E+03    0.24951E-05   -0.17641E-07  1446   0.744E-04    0.188E-04
RMM:  15    -0.413219891134E+03    0.61380E-05   -0.13783E-07  1273   0.712E-04    0.162E-04
RMM:  16    -0.413219887474E+03    0.36601E-05   -0.93104E-08  1244   0.662E-04    0.127E-04
RMM:  17    -0.413219883524E+03    0.39497E-05   -0.76366E-08  1293   0.640E-04    0.717E-05
RMM:  18    -0.413219879742E+03    0.37824E-05   -0.54409E-08  1156   0.596E-04    0.381E-05
RMM:  19    -0.413219877954E+03    0.17879E-05   -0.32071E-08   909   0.547E-04    0.337E-05
RMM:  20    -0.413219877737E+03    0.21657E-06   -0.16905E-08   718   0.517E-04
   46 T=    72. E= -.41286783E+03 F= -.41321988E+03 E0= -.41319893E+03  EK= 0.35205E+00 SP= 0.00E+00 SK= 0.00E+00
       N       E                     dE             d eps       ncg     rms          rms(c)
RMM:   1    -0.413240500969E+03   -0.20623E-01   -0.72163E+00  4313   0.127E+00    0.964E-01
RMM:   2    -0.413227540216E+03    0.12961E-01   -0.11555E-01  4462   0.158E-01    0.716E-01
RMM:   3    -0.413228859344E+03   -0.13191E-02   -0.55190E-02  5048   0.132E-01    0.437E-01
RMM:   4    -0.413242962027E+03   -0.14103E-01   -0.42697E-02  5043   0.182E-01    0.655E-01
RMM:   5    -0.413218566256E+03    0.24396E-01   -0.10194E-02  4663   0.111E-01    0.510E-02
RMM:   6    -0.413218549078E+03    0.17178E-04   -0.17311E-03  5614   0.404E-02    0.269E-02
RMM:   7    -0.413218572489E+03   -0.23410E-04   -0.23943E-04  5665   0.155E-02    0.180E-02
RMM:   8    -0.413218580105E+03   -0.76159E-05   -0.88147E-05  5110   0.990E-03    0.102E-02
RMM:   9    -0.413218575150E+03    0.49550E-05   -0.12120E-05  3906   0.479E-03    0.423E-03
RMM:  10    -0.413218573572E+03    0.15773E-05   -0.29615E-06  2716   0.239E-03    0.259E-03
RMM:  11    -0.413218571439E+03    0.21336E-05   -0.12302E-06  2492   0.172E-03    0.124E-03
RMM:  12    -0.413218567902E+03    0.35369E-05   -0.75694E-07  2379   0.134E-03    0.639E-04
RMM:  13    -0.413218564850E+03    0.30520E-05   -0.35260E-07  1848   0.946E-04    0.285E-04
RMM:  14    -0.413218562050E+03    0.28004E-05   -0.20196E-07  1414   0.762E-04    0.151E-04
RMM:  15    -0.413218557484E+03    0.45652E-05   -0.17486E-07  1406   0.742E-04    0.122E-04
RMM:  16    -0.413218554195E+03    0.32892E-05   -0.12429E-07  1372   0.678E-04    0.915E-05
RMM:  17    -0.413218549276E+03    0.49190E-05   -0.11093E-07  1415   0.662E-04    0.500E-05
RMM:  18    -0.413218547268E+03    0.20077E-05   -0.55725E-08  1002   0.563E-04    0.370E-05
RMM:  19    -0.413218546367E+03    0.90168E-06   -0.31329E-08   810   0.527E-04
   47 T=    71. E= -.41286790E+03 F= -.41321855E+03 E0= -.41319761E+03  EK= 0.35065E+00 SP= 0.00E+00 SK= 0.00E+00
       N       E                     dE             d eps       ncg     rms          rms(c)
RMM:   1    -0.413240037456E+03   -0.21490E-01   -0.71220E+00  4311   0.134E+00    0.978E-01
RMM:   2    -0.413224780963E+03    0.15256E-01   -0.11576E-01  4510   0.169E-01    0.713E-01
RMM:   3    -0.413230669244E+03   -0.58883E-02   -0.53839E-02  5088   0.144E-01    0.505E-01
RMM:   4    -0.413234523014E+03   -0.38538E-02   -0.40950E-02  5011   0.181E-01    0.566E-01
RMM:   5    -0.413216258738E+03    0.18264E-01   -0.68982E-03  4606   0.982E-02    0.512E-02
RMM:   6    -0.413216216344E+03    0.42395E-04   -0.12155E-03  5335   0.347E-02    0.265E-02
RMM:   7    -0.413216241871E+03   -0.25527E-04   -0.17966E-04  5622   0.137E-02    0.162E-02
RMM:   8    -0.413216247286E+03   -0.54151E-05   -0.85542E-05  5176   0.965E-03    0.105E-02
RMM:   9    -0.413216237243E+03    0.10043E-04   -0.11850E-05  3921   0.480E-03    0.399E-03
RMM:  10    -0.413216234341E+03    0.29021E-05   -0.28104E-06  2700   0.240E-03    0.236E-03
RMM:  11    -0.413216229937E+03    0.44037E-05   -0.12538E-06  2488   0.181E-03    0.119E-03
RMM:  12    -0.413216225479E+03    0.44576E-05   -0.58661E-07  2323   0.128E-03    0.666E-04
RMM:  13    -0.413216221391E+03    0.40887E-05   -0.27690E-07  1765   0.900E-04    0.307E-04
RMM:  14    -0.413216216824E+03    0.45671E-05   -0.16845E-07  1436   0.744E-04    0.161E-04
RMM:  15    -0.413216212035E+03    0.47884E-05   -0.11701E-07  1270   0.686E-04    0.117E-04
RMM:  16    -0.413216208111E+03    0.39246E-05   -0.84469E-08  1216   0.643E-04    0.833E-05
RMM:  17    -0.413216201234E+03    0.68769E-05   -0.92383E-08  1488   0.668E-04    0.710E-05
RMM:  18    -0.413216200107E+03    0.11273E-05   -0.32758E-08   827   0.522E-04    0.485E-05
RMM:  19    -0.413216198321E+03    0.17856E-05   -0.29359E-08   874   0.528E-04    0.197E-05
RMM:  20    -0.413216197819E+03    0.50206E-06   -0.14873E-08   676   0.496E-04
   48 T=    71. E= -.41286818E+03 F= -.41321620E+03 E0= -.41319527E+03  EK= 0.34802E+00 SP= 0.00E+00 SK= 0.00E+00
       N       E                     dE             d eps       ncg     rms          rms(c)
RMM:   1    -0.413235741222E+03   -0.19543E-01   -0.69807E+00  4309   0.143E+00    0.964E-01
RMM:   2    -0.413219805459E+03    0.15936E-01   -0.11629E-01  4568   0.175E-01    0.703E-01
RMM:   3    -0.413233689571E+03   -0.13884E-01   -0.56486E-02  5108   0.164E-01    0.621E-01
RMM:   4    -0.413223797139E+03    0.98924E-02   -0.41000E-02  4976   0.184E-01    0.468E-01
RMM:   5    -0.413211444164E+03    0.12353E-01   -0.47845E-03  4569   0.886E-02    0.520E-02
RMM:   6    -0.413211353069E+03    0.91095E-04   -0.64629E-04  4864   0.288E-02    0.265E-02
RMM:   7    -0.413211379607E+03   -0.26537E-04   -0.14753E-04  5688   0.133E-02    0.123E-02
RMM:   8    -0.413211378041E+03    0.15656E-05   -0.33713E-05  5140   0.713E-03    0.718E-03
RMM:   9    -0.413211376044E+03    0.19975E-05   -0.93383E-06  3665   0.362E-03    0.350E-03
RMM:  10    -0.413211372349E+03    0.36945E-05   -0.17225E-06  2545   0.216E-03    0.237E-03
RMM:  11    -0.413211367268E+03    0.50811E-05   -0.10142E-06  2461   0.171E-03    0.147E-03
RMM:  12    -0.413211363846E+03    0.34226E-05   -0.41031E-07  2374   0.113E-03    0.790E-04
RMM:  13    -0.413211359292E+03    0.45533E-05   -0.25906E-07  1838   0.877E-04    0.373E-04
RMM:  14    -0.413211353242E+03    0.60500E-05   -0.20448E-07  1716   0.785E-04    0.433E-04
RMM:  15    -0.413211348674E+03    0.45682E-05   -0.92024E-08  1021   0.605E-04    0.189E-04
RMM:  16    -0.413211345089E+03    0.35852E-05   -0.69642E-08  1092   0.603E-04    0.967E-05
RMM:  17    -0.413211341044E+03    0.40449E-05   -0.57374E-08  1099   0.591E-04    0.107E-04
RMM:  18    -0.413211339508E+03    0.15363E-05   -0.29531E-08   807   0.534E-04    0.750E-05
RMM:  19    -0.413211335501E+03    0.40069E-05   -0.40482E-08  1050   0.578E-04    0.452E-05
RMM:  20    -0.413211334200E+03    0.13009E-05   -0.17568E-08   726   0.513E-04    0.356E-05
RMM:  21    -0.413211333847E+03    0.35302E-06   -0.10900E-08   629   0.493E-04
   49 T=    70. E= -.41286786E+03 F= -.41321133E+03 E0= -.41319041E+03  EK= 0.34347E+00 SP= 0.00E+00 SK= 0.00E+00
       N       E                     dE             d eps       ncg     rms          rms(c)
RMM:   1    -0.413231618351E+03   -0.20284E-01   -0.69428E+00  4308   0.157E+00    0.934E-01
RMM:   2    -0.413214176448E+03    0.17442E-01   -0.12445E-01  4704   0.189E-01    0.701E-01
RMM:   3    -0.413239420507E+03   -0.25244E-01   -0.63512E-02  5126   0.192E-01    0.760E-01
RMM:   4    -0.413214965318E+03    0.24455E-01   -0.46281E-02  4932   0.199E-01    0.413E-01
RMM:   5    -0.413205634900E+03    0.93304E-02   -0.48914E-03  4669   0.920E-02    0.577E-02
RMM:   6    -0.413205490184E+03    0.14472E-03   -0.49913E-04  4708   0.286E-02    0.274E-02
RMM:   7    -0.413205528159E+03   -0.37975E-04   -0.24084E-04  5655   0.174E-02    0.202E-02
RMM:   8    -0.413205509993E+03    0.18166E-04   -0.61366E-05  5035   0.913E-03    0.975E-03
RMM:   9    -0.413205508509E+03    0.14843E-05   -0.18926E-05  4903   0.546E-03    0.432E-03
RMM:  10    -0.413205505718E+03    0.27909E-05   -0.26013E-06  2702   0.248E-03    0.263E-03
RMM:  11    -0.413205501768E+03    0.39494E-05   -0.12885E-06  2499   0.191E-03    0.195E-03
RMM:  12    -0.413205498518E+03    0.32505E-05   -0.48373E-07  2353   0.119E-03    0.976E-04
RMM:  13    -0.413205495309E+03    0.32092E-05   -0.31663E-07  2038   0.912E-04    0.391E-04
RMM:  14    -0.413205491171E+03    0.41377E-05   -0.24674E-07  1748   0.805E-04    0.337E-04
RMM:  15    -0.413205486036E+03    0.51348E-05   -0.17377E-07  1299   0.696E-04    0.139E-04
RMM:  16    -0.413205483085E+03    0.29514E-05   -0.10331E-07  1165   0.625E-04    0.919E-05
RMM:  17    -0.413205479110E+03    0.39751E-05   -0.96215E-08  1251   0.628E-04    0.704E-05
RMM:  18    -0.413205476327E+03    0.27828E-05   -0.64206E-08  1117   0.578E-04    0.559E-05
RMM:  19    -0.413205474775E+03    0.15513E-05   -0.37134E-08   882   0.530E-04    0.279E-05
RMM:  20    -0.413205473585E+03    0.11901E-05   -0.30728E-08   910   0.523E-04    0.277E-05
RMM:  21    -0.413205473291E+03    0.29440E-06   -0.14977E-08   717   0.484E-04
   50 T=    69. E= -.41286816E+03 F= -.41320547E+03 E0= -.41318456E+03  EK= 0.33731E+00 SP= 0.00E+00 SK= 0.00E+00
       N       E                     dE             d eps       ncg     rms          rms(c)
RMM:   1    -0.413224339029E+03   -0.18865E-01   -0.67848E+00  4307   0.164E+00    0.934E-01
RMM:   2    -0.413205285769E+03    0.19053E-01   -0.12630E-01  4794   0.198E-01    0.696E-01
RMM:   3    -0.413241488537E+03   -0.36203E-01   -0.68125E-02  5147   0.210E-01    0.870E-01
RMM:   4    -0.413203314822E+03    0.38174E-01   -0.49138E-02  4919   0.208E-01    0.341E-01
RMM:   5    -0.413197040856E+03    0.62740E-02   -0.53082E-03  4996   0.956E-02    0.696E-02
[...]
RMM:  14    -0.413588861112E+03   -0.20208E-05   -0.88003E-07  2498   0.147E-03    0.719E-04
RMM:  15    -0.413588862792E+03   -0.16801E-05   -0.65491E-07  2294   0.119E-03    0.408E-04
RMM:  16    -0.413588864615E+03   -0.18230E-05   -0.75710E-07  2316   0.115E-03    0.299E-04
RMM:  17    -0.413588865801E+03   -0.11866E-05   -0.49373E-07  1745   0.907E-04    0.173E-04
RMM:  18    -0.413588866631E+03   -0.82915E-06   -0.36747E-07  1711   0.827E-04
  137 T=   149. E= -.41285784E+03 F= -.41358887E+03 E0= -.41357079E+03  EK= 0.73102E+00 SP= 0.00E+00 SK= 0.00E+00
       N       E                     dE             d eps       ncg     rms          rms(c)
RMM:   1    -0.413984155844E+03   -0.39529E+00   -0.17626E+01  4277   0.764E+00    0.151E+00
RMM:   2    -0.413974010809E+03    0.10145E-01   -0.72197E-01  5409   0.104E+00    0.178E+00
RMM:   3    -0.413887579521E+03    0.86431E-01   -0.19907E-01  5338   0.507E-01    0.135E+00
RMM:   4    -0.413850187001E+03    0.37393E-01   -0.11236E-01  5292   0.398E-01    0.702E-01
RMM:   5    -0.413848460385E+03    0.17266E-02   -0.48905E-02  5024   0.285E-01    0.342E-01
RMM:   6    -0.413844697702E+03    0.37627E-02   -0.29006E-02  4997   0.206E-01    0.178E-01
RMM:   7    -0.413843165491E+03    0.15322E-02   -0.32228E-03  4665   0.859E-02    0.746E-02
RMM:   8    -0.413843114614E+03    0.50877E-04   -0.68167E-04  5263   0.346E-02    0.457E-02
RMM:   9    -0.413843104457E+03    0.10157E-04   -0.32225E-04  5024   0.228E-02    0.232E-02
RMM:  10    -0.413843097795E+03    0.66627E-05   -0.77245E-05  5370   0.108E-02    0.117E-02
RMM:  11    -0.413843098081E+03   -0.28633E-06   -0.36773E-05  5451   0.694E-03    0.616E-03
RMM:  12    -0.413843099678E+03   -0.15968E-05   -0.73756E-06  3415   0.369E-03    0.478E-03
RMM:  13    -0.413843100423E+03   -0.74512E-06   -0.31074E-06  2763   0.283E-03
  138 T=   195. E= -.41288451E+03 F= -.41384310E+03 E0= -.41382405E+03  EK= 0.95859E+00 SP= 0.00E+00 SK= 0.00E+00
       N       E                     dE             d eps       ncg     rms          rms(c)
RMM:   1    -0.414202143847E+03   -0.35904E+00   -0.24604E+01  4285   0.879E+00    0.193E+00
RMM:   2    -0.414136781812E+03    0.65362E-01   -0.10168E+00  5428   0.121E+00    0.217E+00
RMM:   3    -0.414041379773E+03    0.95402E-01   -0.26449E-01  5409   0.585E-01    0.174E+00
RMM:   4    -0.413994093526E+03    0.47286E-01   -0.14526E-01  5336   0.455E-01    0.956E-01
RMM:   5    -0.413992963450E+03    0.11301E-02   -0.91003E-02  4927   0.388E-01    0.427E-01
RMM:   6    -0.413985234172E+03    0.77293E-02   -0.47329E-02  4971   0.263E-01    0.209E-01
RMM:   7    -0.413982810388E+03    0.24238E-02   -0.44674E-03  4597   0.104E-01    0.863E-02
RMM:   8    -0.413982718768E+03    0.91620E-04   -0.10123E-03  5155   0.423E-02    0.537E-02
RMM:   9    -0.413982701808E+03    0.16960E-04   -0.45384E-04  4859   0.270E-02    0.241E-02
RMM:  10    -0.413982701594E+03    0.21408E-06   -0.12097E-04  5598   0.131E-02    0.127E-02
RMM:  11    -0.413982704609E+03   -0.30149E-05   -0.45601E-05  5497   0.785E-03    0.762E-03
RMM:  12    -0.413982706633E+03   -0.20238E-05   -0.86504E-06  3576   0.396E-03    0.548E-03
RMM:  13    -0.413982708571E+03   -0.19380E-05   -0.52554E-06  3148   0.337E-03    0.268E-03
RMM:  14    -0.413982709154E+03   -0.58355E-06   -0.16456E-06  2579   0.214E-03
  139 T=   221. E= -.41289614E+03 F= -.41398271E+03 E0= -.41396260E+03  EK= 0.10866E+01 SP= 0.00E+00 SK= 0.00E+00
       N       E                     dE             d eps       ncg     rms          rms(c)
RMM:   1    -0.414017088731E+03   -0.34380E-01   -0.24390E+01  4280   0.876E+00    0.177E+00
RMM:   2    -0.413897447956E+03    0.11964E+00   -0.92571E-01  5425   0.112E+00    0.182E+00
RMM:   3    -0.413884340924E+03    0.13107E-01   -0.20642E-01  5571   0.503E-01    0.169E+00
RMM:   4    -0.413837472765E+03    0.46868E-01   -0.96744E-02  5286   0.377E-01    0.970E-01
RMM:   5    -0.413837041488E+03    0.43128E-03   -0.80029E-02  4693   0.377E-01    0.363E-01
RMM:   6    -0.413831272326E+03    0.57692E-02   -0.36377E-02  4925   0.232E-01    0.200E-01
RMM:   7    -0.413828775147E+03    0.24972E-02   -0.43330E-03  4621   0.993E-02    0.807E-02
RMM:   8    -0.413828705871E+03    0.69276E-04   -0.12435E-03  5494   0.436E-02    0.517E-02
RMM:   9    -0.413828676745E+03    0.29125E-04   -0.44015E-04  4739   0.268E-02    0.205E-02
RMM:  10    -0.413828680852E+03   -0.41061E-05   -0.11966E-04  5731   0.128E-02    0.121E-02
RMM:  11    -0.413828683467E+03   -0.26152E-05   -0.34373E-05  5174   0.701E-03    0.747E-03
RMM:  12    -0.413828684976E+03   -0.15089E-05   -0.70184E-06  3280   0.366E-03    0.455E-03
RMM:  13    -0.413828686843E+03   -0.18675E-05   -0.31854E-06  2803   0.268E-03    0.193E-03
RMM:  14    -0.413828687508E+03   -0.66481E-06   -0.13724E-06  2547   0.186E-03
  140 T=   193. E= -.41288203E+03 F= -.41382869E+03 E0= -.41380736E+03  EK= 0.94666E+00 SP= 0.00E+00 SK= 0.00E+00
       N       E                     dE             d eps       ncg     rms          rms(c)
RMM:   1    -0.413654488144E+03    0.17420E+00   -0.17359E+01  4265   0.754E+00    0.126E+00
RMM:   2    -0.413599788195E+03    0.54700E-01   -0.62250E-01  5463   0.877E-01    0.120E+00
RMM:   3    -0.413622303599E+03   -0.22515E-01   -0.11780E-01  5712   0.369E-01    0.127E+00
RMM:   4    -0.413586867810E+03    0.35436E-01   -0.50545E-02  5196   0.270E-01    0.719E-01
RMM:   5    -0.413584880168E+03    0.19876E-02   -0.38508E-02  4397   0.276E-01    0.220E-01
RMM:   6    -0.413583160953E+03    0.17192E-02   -0.11568E-02  5019   0.137E-01    0.129E-01
RMM:   7    -0.413582246381E+03    0.91457E-03   -0.23752E-03  4910   0.655E-02    0.620E-02
RMM:   8    -0.413582193445E+03    0.52936E-04   -0.65281E-04  5459   0.317E-02    0.417E-02
RMM:   9    -0.413582182227E+03    0.11218E-04   -0.27411E-04  4642   0.218E-02    0.179E-02
RMM:  10    -0.413582183077E+03   -0.85060E-06   -0.73659E-05  5633   0.102E-02    0.995E-03
RMM:  11    -0.413582184373E+03   -0.12957E-05   -0.22506E-05  4722   0.560E-03    0.589E-03
RMM:  12    -0.413582185584E+03   -0.12111E-05   -0.46865E-06  3005   0.321E-03    0.331E-03
RMM:  13    -0.413582186815E+03   -0.12306E-05   -0.17323E-06  2601   0.208E-03    0.158E-03
RMM:  14    -0.413582187598E+03   -0.78382E-06   -0.94005E-07  2494   0.153E-03
  141 T=   147. E= -.41285803E+03 F= -.41358219E+03 E0= -.41356004E+03  EK= 0.72416E+00 SP= 0.00E+00 SK= 0.00E+00
       N       E                     dE             d eps       ncg     rms          rms(c)
RMM:   1    -0.413582864154E+03   -0.67734E-03   -0.12969E+01  4265   0.662E+00    0.103E+00
RMM:   2    -0.413555622409E+03    0.27242E-01   -0.44394E-01  5451   0.740E-01    0.953E-01
RMM:   3    -0.413579244867E+03   -0.23622E-01   -0.87934E-02  5724   0.317E-01    0.104E+00
RMM:   4    -0.413548677549E+03    0.30567E-01   -0.44704E-02  5171   0.249E-01    0.507E-01
RMM:   5    -0.413545688557E+03    0.29890E-02   -0.19822E-02  4401   0.203E-01    0.144E-01
RMM:   6    -0.413545392270E+03    0.29629E-03   -0.62445E-03  5296   0.977E-02    0.101E-01
RMM:   7    -0.413544917799E+03    0.47447E-03   -0.16037E-03  5054   0.502E-02    0.518E-02
RMM:   8    -0.413544894956E+03    0.22843E-04   -0.42211E-04  5432   0.256E-02    0.334E-02
RMM:   9    -0.413544896009E+03   -0.10525E-05   -0.19842E-04  4763   0.183E-02    0.172E-02
RMM:  10    -0.413544892875E+03    0.31333E-05   -0.46031E-05  5336   0.816E-03    0.903E-03
RMM:  11    -0.413544893721E+03   -0.84548E-06   -0.21611E-05  4816   0.553E-03    0.518E-03
RMM:  12    -0.413544894897E+03   -0.11759E-05   -0.33229E-06  2840   0.282E-03    0.268E-03
RMM:  13    -0.413544895739E+03   -0.84221E-06   -0.13019E-06  2539   0.185E-03
  142 T=   138. E= -.41286828E+03 F= -.41354490E+03 E0= -.41352231E+03  EK= 0.67661E+00 SP= 0.00E+00 SK= 0.00E+00
       N       E                     dE             d eps       ncg     rms          rms(c)
RMM:   1    -0.413681357377E+03   -0.13646E+00   -0.14576E+01  4280   0.682E+00    0.156E+00
RMM:   2    -0.413613653932E+03    0.67703E-01   -0.53232E-01  5422   0.828E-01    0.136E+00
RMM:   3    -0.413694923758E+03   -0.81270E-01   -0.16765E-01  5546   0.431E-01    0.161E+00
RMM:   4    -0.413611648635E+03    0.83275E-01   -0.11373E-01  5130   0.382E-01    0.662E-01
RMM:   5    -0.413601097229E+03    0.10551E-01   -0.36980E-02  4609   0.271E-01    0.172E-01
RMM:   6    -0.413600643042E+03    0.45419E-03   -0.78315E-03  5428   0.110E-01    0.110E-01
RMM:   7    -0.413600260455E+03    0.38259E-03   -0.22155E-03  5136   0.561E-02    0.630E-02
RMM:   8    -0.413600152470E+03    0.10798E-03   -0.60411E-04  5083   0.328E-02    0.347E-02
RMM:   9    -0.413600167112E+03   -0.14641E-04   -0.27302E-04  5742   0.199E-02    0.247E-02
RMM:  10    -0.413600155769E+03    0.11343E-04   -0.64266E-05  5308   0.101E-02    0.113E-02
RMM:  11    -0.413600158951E+03   -0.31821E-05   -0.54130E-05  5598   0.811E-03    0.782E-03
RMM:  12    -0.413600158543E+03    0.40785E-06   -0.62835E-06  3236   0.371E-03
  143 T=   146. E= -.41288344E+03 F= -.41360016E+03 E0= -.41357752E+03  EK= 0.71672E+00 SP= 0.00E+00 SK= 0.00E+00
       N       E                     dE             d eps       ncg     rms          rms(c)
RMM:   1    -0.413635500425E+03   -0.35341E-01   -0.14820E+01  4282   0.661E+00    0.138E+00
RMM:   2    -0.413535325706E+03    0.10017E+00   -0.54166E-01  5425   0.818E-01    0.125E+00
RMM:   3    -0.413583756673E+03   -0.48431E-01   -0.11894E-01  5597   0.372E-01    0.130E+00
RMM:   4    -0.413544522358E+03    0.39234E-01   -0.79478E-02  5156   0.304E-01    0.760E-01
RMM:   5    -0.413529682667E+03    0.14840E-01   -0.37222E-02  4410   0.271E-01    0.188E-01
RMM:   6    -0.413528441824E+03    0.12408E-02   -0.39793E-03  4809   0.943E-02    0.817E-02
RMM:   7    -0.413528352653E+03    0.89171E-04   -0.10557E-03  5130   0.406E-02    0.490E-02
RMM:   8    -0.413528341996E+03    0.10657E-04   -0.65589E-04  5400   0.299E-02    0.365E-02
RMM:   9    -0.413528317273E+03    0.24723E-04   -0.23430E-04  5277   0.190E-02    0.199E-02
RMM:  10    -0.413528312461E+03    0.48120E-05   -0.63139E-05  5555   0.981E-03    0.104E-02
RMM:  11    -0.413528314334E+03   -0.18730E-05   -0.29288E-05  5182   0.622E-03    0.590E-03
RMM:  12    -0.413528314947E+03   -0.61301E-06   -0.36864E-06  2869   0.287E-03
  144 T=   132. E= -.41287978E+03 F= -.41352831E+03 E0= -.41350587E+03  EK= 0.64853E+00 SP= 0.00E+00 SK= 0.00E+00
       N       E                     dE             d eps       ncg     rms          rms(c)
RMM:   1    -0.413418871061E+03    0.10944E+00   -0.10997E+01  4277   0.559E+00    0.115E+00
RMM:   2    -0.413363404145E+03    0.55467E-01   -0.41257E-01  5452   0.678E-01    0.104E+00
RMM:   3    -0.413362691183E+03    0.71296E-03   -0.52040E-02  5197   0.268E-01    0.626E-01
RMM:   4    -0.413364560823E+03   -0.18696E-02   -0.33500E-02  4411   0.248E-01    0.286E-01
RMM:   5    -0.413376218362E+03   -0.11658E-01   -0.20954E-02  5255   0.146E-01    0.527E-01
RMM:   6    -0.413360516488E+03    0.15702E-01   -0.84244E-03  4937   0.108E-01    0.746E-02
RMM:   7    -0.413360525324E+03   -0.88353E-05   -0.19339E-03  5732   0.495E-02    0.440E-02
RMM:   8    -0.413360561066E+03   -0.35742E-04   -0.60514E-04  5475   0.272E-02    0.277E-02
RMM:   9    -0.413360536584E+03    0.24482E-04   -0.17956E-04  5409   0.157E-02    0.140E-02
RMM:  10    -0.413360541678E+03   -0.50941E-05   -0.49116E-05  5629   0.796E-03    0.103E-02
RMM:  11    -0.413360541088E+03    0.59032E-06   -0.10279E-05  3883   0.424E-03    0.492E-03
RMM:  12    -0.413360543056E+03   -0.19680E-05   -0.33066E-06  2779   0.277E-03    0.224E-03
RMM:  13    -0.413360544778E+03   -0.17220E-05   -0.12734E-06  2512   0.191E-03    0.113E-03
RMM:  14    -0.413360546104E+03   -0.13260E-05   -0.63324E-07  2441   0.137E-03    0.650E-04
RMM:  15    -0.413360547030E+03   -0.92622E-06   -0.33374E-07  2030   0.964E-04
  145 T=   100. E= -.41286932E+03 F= -.41336055E+03 E0= -.41333834E+03  EK= 0.49122E+00 SP= 0.00E+00 SK= 0.00E+00
       N       E                     dE             d eps       ncg     rms          rms(c)
RMM:   1    -0.413258106369E+03    0.10244E+00   -0.64828E+00  4283   0.445E+00    0.766E-01
RMM:   2    -0.413246533564E+03    0.11573E-01   -0.22246E-01  5475   0.482E-01    0.683E-01
RMM:   3    -0.413249132124E+03   -0.25986E-02   -0.29427E-02  5446   0.198E-01    0.464E-01
RMM:   4    -0.413286105094E+03   -0.36973E-01   -0.55085E-02  5234   0.220E-01    0.827E-01
RMM:   5    -0.413245647183E+03    0.40458E-01   -0.27440E-02  4789   0.200E-01    0.147E-01
RMM:   6    -0.413245178289E+03    0.46889E-03   -0.46404E-03  5438   0.819E-02    0.590E-02
RMM:   7    -0.413245193794E+03   -0.15505E-04   -0.11012E-03  5810   0.342E-02    0.375E-02
RMM:   8    -0.413245190815E+03    0.29797E-05   -0.36496E-04  5369   0.213E-02    0.263E-02
RMM:   9    -0.413245186569E+03    0.42456E-05   -0.11257E-04  5080   0.134E-02    0.122E-02
RMM:  10    -0.413245188555E+03   -0.19864E-05   -0.32260E-05  5275   0.687E-03    0.722E-03
RMM:  11    -0.413245190376E+03   -0.18207E-05   -0.78004E-06  3388   0.354E-03    0.399E-03
RMM:  12    -0.413245192060E+03   -0.16838E-05   -0.19255E-06  2597   0.231E-03    0.193E-03
RMM:  13    -0.413245193954E+03   -0.18940E-05   -0.10904E-06  2520   0.172E-03    0.100E-03
RMM:  14    -0.413245195211E+03   -0.12567E-05   -0.55117E-07  2373   0.121E-03    0.454E-04
RMM:  15    -0.413245196144E+03   -0.93361E-06   -0.34847E-07  1915   0.942E-04
  146 T=    78. E= -.41286356E+03 F= -.41324520E+03 E0= -.41322330E+03  EK= 0.38163E+00 SP= 0.00E+00 SK= 0.00E+00
       N       E                     dE             d eps       ncg     rms          rms(c)
RMM:   1    -0.413258202149E+03   -0.13007E-01   -0.50755E+00  4296   0.419E+00    0.704E-01
RMM:   2    -0.413258335774E+03   -0.13363E-03   -0.14381E-01  5428   0.408E-01    0.613E-01
RMM:   3    -0.413268882861E+03   -0.10547E-01   -0.36606E-02  5620   0.200E-01    0.706E-01
RMM:   4    -0.413255198118E+03    0.13685E-01   -0.24585E-02  5215   0.183E-01    0.288E-01
RMM:   5    -0.413254072773E+03    0.11253E-02   -0.16327E-02  4987   0.158E-01    0.130E-01
RMM:   6    -0.413253116377E+03    0.95640E-03   -0.38283E-03  5113   0.798E-02    0.619E-02
RMM:   7    -0.413252983093E+03    0.13328E-03   -0.39741E-04  4652   0.293E-02    0.344E-02
RMM:   8    -0.413252979077E+03    0.40164E-05   -0.16409E-04  5355   0.156E-02    0.202E-02
RMM:   9    -0.413252988665E+03   -0.95884E-05   -0.78203E-05  4988   0.109E-02    0.112E-02
RMM:  10    -0.413252992160E+03   -0.34948E-05   -0.21468E-05  4687   0.561E-03    0.617E-03
RMM:  11    -0.413252996773E+03   -0.46133E-05   -0.96682E-06  3882   0.404E-03    0.398E-03
RMM:  12    -0.413253000534E+03   -0.37605E-05   -0.24644E-06  2690   0.256E-03    0.211E-03
RMM:  13    -0.413253002146E+03   -0.16124E-05   -0.10701E-06  2528   0.163E-03    0.108E-03
RMM:  14    -0.413253003765E+03   -0.16190E-05   -0.78839E-07  2373   0.134E-03    0.476E-04
RMM:  15    -0.413253004543E+03   -0.77812E-06   -0.56278E-07  2073   0.103E-03
  147 T=    78. E= -.41287131E+03 F= -.41325300E+03 E0= -.41323152E+03  EK= 0.38170E+00 SP= 0.00E+00 SK= 0.00E+00
       N       E                     dE             d eps       ncg     rms          rms(c)
RMM:   1    -0.413293752086E+03   -0.40748E-01   -0.59373E+00  4298   0.463E+00    0.938E-01
RMM:   2    -0.413297992758E+03   -0.42407E-02   -0.15722E-01  5406   0.471E-01    0.883E-01
RMM:   3    -0.413299858160E+03   -0.18654E-02   -0.50667E-02  5488   0.244E-01    0.866E-01
RMM:   4    -0.413285968525E+03    0.13890E-01   -0.39052E-02  5314   0.226E-01    0.382E-01
RMM:   5    -0.413284286256E+03    0.16823E-02   -0.29187E-02  5063   0.206E-01    0.187E-01
RMM:   6    -0.413282121569E+03    0.21647E-02   -0.72351E-03  5066   0.111E-01    0.740E-02
RMM:   7    -0.413281947572E+03    0.17400E-03   -0.68520E-04  5006   0.385E-02    0.357E-02
RMM:   8    -0.413281936808E+03    0.10764E-04   -0.16590E-04  5322   0.162E-02    0.213E-02
RMM:   9    -0.413281951095E+03   -0.14287E-04   -0.92320E-05  5188   0.122E-02    0.127E-02
RMM:  10    -0.413281955182E+03   -0.40867E-05   -0.23931E-05  4760   0.606E-03    0.751E-03
RMM:  11    -0.413281960170E+03   -0.49874E-05   -0.15941E-05  4615   0.498E-03    0.418E-03
RMM:  12    -0.413281966114E+03   -0.59442E-05   -0.43144E-06  2934   0.322E-03    0.290E-03
RMM:  13    -0.413281968332E+03   -0.22183E-05   -0.16671E-06  2594   0.203E-03    0.163E-03
RMM:  14    -0.413281970071E+03   -0.17385E-05   -0.11253E-06  2517   0.157E-03    0.671E-04
RMM:  15    -0.413281970608E+03   -0.53760E-06   -0.98859E-07  2371   0.130E-03
  148 T=    83. E= -.41287553E+03 F= -.41328197E+03 E0= -.41326085E+03  EK= 0.40644E+00 SP= 0.00E+00 SK= 0.00E+00
       N       E                     dE             d eps       ncg     rms          rms(c)
RMM:   1    -0.413271900638E+03    0.10069E-01   -0.59184E+00  4298   0.470E+00    0.785E-01
RMM:   2    -0.413279860838E+03   -0.79602E-02   -0.15248E-01  5396   0.473E-01    0.826E-01
RMM:   3    -0.413272239642E+03    0.76212E-02   -0.38439E-02  5549   0.217E-01    0.721E-01
RMM:   4    -0.413264298923E+03    0.79407E-02   -0.22235E-02  5335   0.175E-01    0.372E-01
RMM:   5    -0.413264946173E+03   -0.64725E-03   -0.20721E-02  5057   0.176E-01    0.199E-01
RMM:   6    -0.413262754983E+03    0.21912E-02   -0.78146E-03  4999   0.110E-01    0.776E-02
RMM:   7    -0.413262555876E+03    0.19911E-03   -0.76381E-04  5069   0.407E-02    0.381E-02
RMM:   8    -0.413262543301E+03    0.12575E-04   -0.15756E-04  5258   0.161E-02    0.240E-02
RMM:   9    -0.413262557108E+03   -0.13807E-04   -0.86538E-05  4572   0.123E-02    0.111E-02
RMM:  10    -0.413262561277E+03   -0.41696E-05   -0.23586E-05  4663   0.611E-03    0.669E-03
RMM:  11    -0.413262564663E+03   -0.33855E-05   -0.11593E-05  4154   0.433E-03    0.362E-03
RMM:  12    -0.413262570386E+03   -0.57227E-05   -0.41588E-06  2923   0.322E-03    0.253E-03
RMM:  13    -0.413262573054E+03   -0.26689E-05   -0.18496E-06  2613   0.205E-03    0.153E-03
RMM:  14    -0.413262574255E+03   -0.12003E-05   -0.12161E-06  2518   0.152E-03    0.659E-04
RMM:  15    -0.413262574345E+03   -0.89836E-07   -0.10613E-06  2336   0.129E-03
  149 T=    80. E= -.41287178E+03 F= -.41326257E+03 E0= -.41324162E+03  EK= 0.39080E+00 SP= 0.00E+00 SK= 0.00E+00
       N       E                     dE             d eps       ncg     rms          rms(c)
RMM:   1    -0.413239461758E+03    0.23112E-01   -0.50630E+00  4298   0.440E+00    0.569E-01
RMM:   2    -0.413247589873E+03   -0.81281E-02   -0.12207E-01  5401   0.422E-01    0.626E-01
RMM:   3    -0.413243181668E+03    0.44082E-02   -0.25926E-02  5615   0.176E-01    0.545E-01
RMM:   4    -0.413237890698E+03    0.52910E-02   -0.11182E-02  5363   0.128E-01    0.296E-01
RMM:   5    -0.413238351161E+03   -0.46046E-03   -0.99761E-03  4929   0.128E-01    0.149E-01
RMM:   6    -0.413237310524E+03    0.10406E-02   -0.49304E-03  4967   0.852E-02    0.645E-02
RMM:   7    -0.413237143626E+03    0.16690E-03   -0.54945E-04  4986   0.341E-02    0.336E-02
RMM:   8    -0.413237133417E+03    0.10209E-04   -0.10012E-04  4861   0.134E-02    0.198E-02
RMM:   9    -0.413237145537E+03   -0.12120E-04   -0.63097E-05  4689   0.106E-02    0.918E-03
RMM:  10    -0.413237147288E+03   -0.17508E-05   -0.15351E-05  4209   0.486E-03    0.550E-03
RMM:  11    -0.413237149622E+03   -0.23345E-05   -0.79125E-06  3687   0.370E-03    0.292E-03
RMM:  12    -0.413237153393E+03   -0.37707E-05   -0.27298E-06  2716   0.270E-03    0.185E-03
RMM:  13    -0.413237155389E+03   -0.19959E-05   -0.14591E-06  2569   0.177E-03    0.113E-03
RMM:  14    -0.413237155931E+03   -0.54159E-06   -0.89273E-07  2368   0.130E-03
  150 T=    75. E= -.41286800E+03 F= -.41323716E+03 E0= -.41321614E+03  EK= 0.36915E+00 SP= 0.00E+00 SK= 0.00E+00
