       N       E                     dE             d eps       ncg     rms          rms(c)
RMM:   1     0.220121475952E+04    0.22012E+04   -0.52440E+04  2132   0.654E+02
RMM:   2     0.705492835466E+03   -0.14957E+04   -0.16261E+04  2132   0.177E+02
RMM:   3     0.137738572908E+03   -0.56775E+03   -0.65742E+03  2132   0.117E+02
RMM:   4    -0.159472571664E+03   -0.29721E+03   -0.27859E+03  2132   0.936E+01
RMM:   5    -0.287515750030E+03   -0.12804E+03   -0.11449E+03  2132   0.595E+01
RMM:   6    -0.349839914482E+03   -0.62324E+02   -0.55097E+02  2132   0.423E+01
RMM:   7    -0.382687872176E+03   -0.32848E+02   -0.30380E+02  2132   0.293E+01
RMM:   8    -0.404164681770E+03   -0.21477E+02   -0.18442E+02  2132   0.233E+01
RMM:   9    -0.436007332003E+03   -0.31843E+02   -0.30684E+02  6107   0.173E+01
RMM:  10    -0.441306726266E+03   -0.52994E+01   -0.63259E+01  6389   0.539E+00
RMM:  11    -0.442502456581E+03   -0.11957E+01   -0.11184E+01  6201   0.173E+00
RMM:  12    -0.442865378455E+03   -0.36292E+00   -0.25456E+00  6367   0.598E-01    0.134E+02
RMM:  13    -0.425600696381E+03    0.17265E+02   -0.81395E+01  4678   0.119E+01    0.712E+01
RMM:  14    -0.498757531509E+03   -0.73157E+02   -0.53959E+02  5416   0.232E+01    0.306E+01
RMM:  15    -0.412316281814E+03    0.86441E+02   -0.18933E+02  5046   0.161E+01    0.461E+00
RMM:  16    -0.414249090306E+03   -0.19328E+01   -0.38430E+01  6073   0.591E+00    0.445E+00
RMM:  17    -0.413329184754E+03    0.91991E+00   -0.20237E+00  5332   0.167E+00    0.275E+00
RMM:  18    -0.413149891389E+03    0.17929E+00   -0.13084E+00  5790   0.120E+00    0.159E+00
RMM:  19    -0.413170732004E+03   -0.20841E-01   -0.28839E-01  5850   0.548E-01    0.953E-01
RMM:  20    -0.413214986392E+03   -0.44254E-01   -0.33962E-01  5392   0.639E-01    0.925E-01
RMM:  21    -0.413176956902E+03    0.38029E-01   -0.43024E-02  4877   0.281E-01    0.526E-01
RMM:  22    -0.413166487321E+03    0.10470E-01   -0.43163E-02  5703   0.213E-01    0.227E-01
RMM:  23    -0.413164382306E+03    0.21050E-02   -0.15894E-02  6156   0.117E-01    0.863E-02
RMM:  24    -0.413163245290E+03    0.11370E-02   -0.32088E-03  5928   0.582E-02    0.514E-02
RMM:  25    -0.413162904359E+03    0.34093E-03   -0.72475E-04  5262   0.274E-02    0.340E-02
RMM:  26    -0.413162939320E+03   -0.34961E-04   -0.76132E-04  5839   0.293E-02    0.281E-02
RMM:  27    -0.413163411513E+03   -0.47219E-03   -0.28398E-04  5163   0.217E-02    0.236E-02
RMM:  28    -0.413163766466E+03   -0.35495E-03   -0.12869E-04  4946   0.148E-02    0.132E-02
RMM:  29    -0.413164277592E+03   -0.51113E-03   -0.14738E-04  4568   0.194E-02    0.425E-03
RMM:  30    -0.413164520957E+03   -0.24336E-03   -0.94280E-05  4520   0.112E-02    0.292E-03
RMM:  31    -0.413164633535E+03   -0.11258E-03   -0.49508E-05  3200   0.654E-03    0.212E-03
RMM:  32    -0.413164655732E+03   -0.22197E-04   -0.17941E-05  2932   0.279E-03    0.122E-03
RMM:  33    -0.413164669168E+03   -0.13435E-04   -0.77170E-06  2783   0.214E-03    0.742E-04
RMM:  34    -0.413164671093E+03   -0.19256E-05   -0.49500E-06  2618   0.151E-03    0.881E-04
RMM:  35    -0.413164671263E+03   -0.17023E-06   -0.21529E-06  1751   0.960E-04
    1 T=    61. E= -.41286685E+03 F= -.41316467E+03 E0= -.41314217E+03  EK= 0.29782E+00 SP= 0.00E+00 SK= 0.00E+00
       N       E                     dE             d eps       ncg     rms          rms(c)
RMM:   1    -0.413158658100E+03    0.60130E-02   -0.10184E+01  4001   0.661E-01    0.885E-01
RMM:   2    -0.413167166771E+03   -0.85087E-02   -0.12482E-01  3879   0.924E-02    0.645E-01
RMM:   3    -0.413164593253E+03    0.25735E-02   -0.99205E-03  4756   0.404E-02    0.117E-01
RMM:   4    -0.413184694957E+03   -0.20102E-01   -0.21178E-02  5212   0.121E-01    0.593E-01
RMM:   5    -0.413164253713E+03    0.20441E-01   -0.10149E-02  4854   0.996E-02    0.403E-02
RMM:   6    -0.413164395584E+03   -0.14187E-03   -0.17308E-03  5803   0.403E-02    0.269E-02
RMM:   7    -0.413164404215E+03   -0.86308E-05   -0.30394E-04  5727   0.158E-02    0.168E-02
RMM:   8    -0.413164405515E+03   -0.12998E-05   -0.43495E-05  4890   0.702E-03    0.743E-03
RMM:   9    -0.413164408865E+03   -0.33505E-05   -0.92584E-06  3426   0.332E-03    0.583E-03
RMM:  10    -0.413164413935E+03   -0.50694E-05   -0.16264E-06  2566   0.193E-03    0.371E-03
RMM:  11    -0.413164420179E+03   -0.62443E-05   -0.13424E-06  2536   0.170E-03    0.179E-03
RMM:  12    -0.413164427399E+03   -0.72194E-05   -0.13490E-06  2518   0.161E-03    0.765E-04
RMM:  13    -0.413164428368E+03   -0.96948E-06   -0.45908E-07  2161   0.103E-03
    2 T=    61. E= -.41286665E+03 F= -.41316443E+03 E0= -.41314193E+03  EK= 0.29778E+00 SP= 0.00E+00 SK= 0.00E+00
       N       E                     dE             d eps       ncg     rms          rms(c)
RMM:   1    -0.413159709080E+03    0.47183E-02   -0.10199E+01  4188   0.667E-01    0.907E-01
RMM:   2    -0.413167180328E+03   -0.74712E-02   -0.12278E-01  3889   0.915E-02    0.640E-01
RMM:   3    -0.413165126959E+03    0.20534E-02   -0.98907E-03  4806   0.386E-02    0.130E-01
RMM:   4    -0.413186895254E+03   -0.21768E-01   -0.22286E-02  5181   0.125E-01    0.617E-01
RMM:   5    -0.413164807362E+03    0.22088E-01   -0.10724E-02  4837   0.103E-01    0.421E-02
RMM:   6    -0.413164957335E+03   -0.14997E-03   -0.18777E-03  5803   0.417E-02    0.277E-02
RMM:   7    -0.413164958723E+03   -0.13882E-05   -0.31026E-04  5725   0.164E-02    0.174E-02
RMM:   8    -0.413164952984E+03    0.57390E-05   -0.49196E-05  4950   0.755E-03    0.817E-03
RMM:   9    -0.413164952069E+03    0.91539E-06   -0.99339E-06  3619   0.358E-03
    3 T=    61. E= -.41286697E+03 F= -.41316495E+03 E0= -.41314246E+03  EK= 0.29798E+00 SP= 0.00E+00 SK= 0.00E+00
       N       E                     dE             d eps       ncg     rms          rms(c)
RMM:   1    -0.413159165929E+03    0.57871E-02   -0.10116E+01  4222   0.669E-01    0.891E-01
RMM:   2    -0.413167019295E+03   -0.78534E-02   -0.12206E-01  4356   0.947E-02    0.634E-01
RMM:   3    -0.413173713412E+03   -0.66941E-02   -0.16877E-02  5198   0.934E-02    0.418E-01
RMM:   4    -0.413181078798E+03   -0.73654E-02   -0.34249E-02  5090   0.161E-01    0.532E-01
RMM:   5    -0.413164794082E+03    0.16285E-01   -0.55666E-03  4635   0.893E-02    0.573E-02
RMM:   6    -0.413164712180E+03    0.81901E-04   -0.11212E-03  5272   0.344E-02    0.275E-02
RMM:   7    -0.413164729814E+03   -0.17634E-04   -0.26862E-04  5980   0.162E-02    0.172E-02
RMM:   8    -0.413164726690E+03    0.31240E-05   -0.51891E-05  5196   0.838E-03    0.693E-03
RMM:   9    -0.413164725908E+03    0.78117E-06   -0.10603E-05  3976   0.408E-03    0.365E-03
RMM:  10    -0.413164727073E+03   -0.11642E-05   -0.11852E-06  2520   0.194E-03    0.225E-03
RMM:  11    -0.413164729271E+03   -0.21985E-05   -0.11938E-06  2523   0.174E-03    0.138E-03
RMM:  12    -0.413164730482E+03   -0.12112E-05   -0.60002E-07  2438   0.124E-03    0.497E-04
RMM:  13    -0.413164731232E+03   -0.74927E-06   -0.29349E-07  1641   0.813E-04
    4 T=    61. E= -.41286675E+03 F= -.41316473E+03 E0= -.41314224E+03  EK= 0.29798E+00 SP= 0.00E+00 SK= 0.00E+00
       N       E                     dE             d eps       ncg     rms          rms(c)
RMM:   1    -0.413159116000E+03    0.56145E-02   -0.10165E+01  4236   0.675E-01    0.883E-01
RMM:   2    -0.413167618623E+03   -0.85026E-02   -0.12479E-01  4050   0.941E-02    0.644E-01
RMM:   3    -0.413165235267E+03    0.23834E-02   -0.99825E-03  4881   0.428E-02    0.129E-01
RMM:   4    -0.413195068132E+03   -0.29833E-01   -0.30805E-02  5164   0.146E-01    0.720E-01
RMM:   5    -0.413164699655E+03    0.30368E-01   -0.14561E-02  4811   0.120E-01    0.449E-02
RMM:   6    -0.413164895555E+03   -0.19590E-03   -0.24826E-03  5757   0.483E-02    0.283E-02
RMM:   7    -0.413164906646E+03   -0.11092E-04   -0.37128E-04  5805   0.170E-02    0.181E-02
RMM:   8    -0.413164908279E+03   -0.16330E-05   -0.56093E-05  5027   0.779E-03    0.841E-03
RMM:   9    -0.413164910387E+03   -0.21083E-05   -0.11661E-05  3773   0.385E-03    0.622E-03
RMM:  10    -0.413164914757E+03   -0.43699E-05   -0.17064E-06  2569   0.202E-03    0.405E-03
RMM:  11    -0.413164920228E+03   -0.54705E-05   -0.14763E-06  2553   0.185E-03    0.191E-03
RMM:  12    -0.413164926081E+03   -0.58529E-05   -0.14604E-06  2548   0.174E-03    0.812E-04
RMM:  13    -0.413164926639E+03   -0.55838E-06   -0.39625E-07  2213   0.108E-03
    5 T=    61. E= -.41286682E+03 F= -.41316493E+03 E0= -.41314245E+03  EK= 0.29810E+00 SP= 0.00E+00 SK= 0.00E+00
       N       E                     dE             d eps       ncg     rms          rms(c)
RMM:   1    -0.413160050444E+03    0.48756E-02   -0.10193E+01  4250   0.680E-01    0.903E-01
RMM:   2    -0.413167657252E+03   -0.76068E-02   -0.12297E-01  4090   0.950E-02    0.641E-01
RMM:   3    -0.413165558453E+03    0.20988E-02   -0.99123E-03  4731   0.409E-02    0.127E-01
RMM:   4    -0.413186199576E+03   -0.20641E-01   -0.20896E-02  5160   0.121E-01    0.602E-01
RMM:   5    -0.413165239312E+03    0.20960E-01   -0.10208E-02  4826   0.999E-02    0.411E-02
RMM:   6    -0.413165376395E+03   -0.13708E-03   -0.17665E-03  5797   0.402E-02    0.266E-02
RMM:   7    -0.413165378574E+03   -0.21797E-05   -0.28399E-04  5710   0.159E-02    0.168E-02
RMM:   8    -0.413165373191E+03    0.53831E-05   -0.49145E-05  4914   0.751E-03    0.812E-03
RMM:   9    -0.413165372254E+03    0.93773E-06   -0.96556E-06  3617   0.359E-03
    6 T=    61. E= -.41286701E+03 F= -.41316537E+03 E0= -.41314291E+03  EK= 0.29836E+00 SP= 0.00E+00 SK= 0.00E+00
       N       E                     dE             d eps       ncg     rms          rms(c)
RMM:   1    -0.413159754964E+03    0.56182E-02   -0.10137E+01  4272   0.682E-01    0.898E-01
RMM:   2    -0.413167323603E+03   -0.75686E-02   -0.12220E-01  4381   0.927E-02    0.635E-01
RMM:   3    -0.413173903126E+03   -0.65795E-02   -0.16843E-02  5169   0.924E-02    0.415E-01
RMM:   4    -0.413181554197E+03   -0.76511E-02   -0.34037E-02  5071   0.160E-01    0.534E-01
RMM:   5    -0.413165219275E+03    0.16335E-01   -0.56182E-03  4629   0.892E-02    0.571E-02
RMM:   6    -0.413165142567E+03    0.76708E-04   -0.11398E-03  5279   0.343E-02    0.278E-02
RMM:   7    -0.413165156554E+03   -0.13987E-04   -0.26358E-04  5965   0.160E-02    0.171E-02
RMM:   8    -0.413165152185E+03    0.43691E-05   -0.52312E-05  5174   0.839E-03    0.685E-03
RMM:   9    -0.413165149569E+03    0.26161E-05   -0.98536E-06  3844   0.398E-03    0.361E-03
RMM:  10    -0.413165149814E+03   -0.24484E-06   -0.11870E-06  2515   0.195E-03
    7 T=    61. E= -.41286666E+03 F= -.41316515E+03 E0= -.41314270E+03  EK= 0.29849E+00 SP= 0.00E+00 SK= 0.00E+00
       N       E                     dE             d eps       ncg     rms          rms(c)
RMM:   1    -0.413159979815E+03    0.51698E-02   -0.10146E+01  4274   0.690E-01    0.882E-01
RMM:   2    -0.413168321194E+03   -0.83414E-02   -0.12430E-01  4089   0.931E-02    0.642E-01
RMM:   3    -0.413166003985E+03    0.23172E-02   -0.99305E-03  4872   0.424E-02    0.129E-01
RMM:   4    -0.413194706654E+03   -0.28703E-01   -0.29561E-02  5145   0.143E-01    0.707E-01
RMM:   5    -0.413165483589E+03    0.29223E-01   -0.14080E-02  4815   0.118E-01    0.448E-02
RMM:   6    -0.413165666656E+03   -0.18307E-03   -0.23652E-03  5761   0.473E-02    0.284E-02
RMM:   7    -0.413165674613E+03   -0.79568E-05   -0.36599E-04  5825   0.168E-02    0.178E-02
RMM:   8    -0.413165674551E+03    0.61504E-07   -0.50681E-05  4985   0.742E-03    0.788E-03
RMM:   9    -0.413165675903E+03   -0.13517E-05   -0.10785E-05  3629   0.364E-03    0.594E-03
RMM:  10    -0.413165678975E+03   -0.30714E-05   -0.16169E-06  2560   0.198E-03    0.383E-03
RMM:  11    -0.413165682740E+03   -0.37650E-05   -0.13976E-06  2543   0.181E-03    0.178E-03
RMM:  12    -0.413165686467E+03   -0.37272E-05   -0.14244E-06  2542   0.169E-03    0.807E-04
RMM:  13    -0.413165686663E+03   -0.19662E-06   -0.37551E-07  2179   0.105E-03
    8 T=    61. E= -.41286683E+03 F= -.41316569E+03 E0= -.41314326E+03  EK= 0.29886E+00 SP= 0.00E+00 SK= 0.00E+00
       N       E                     dE             d eps       ncg     rms          rms(c)
RMM:   1    -0.413160399514E+03    0.52870E-02   -0.10195E+01  4286   0.693E-01    0.898E-01
RMM:   2    -0.413168467229E+03   -0.80677E-02   -0.12370E-01  4190   0.943E-02    0.644E-01
RMM:   3    -0.413166120096E+03    0.23471E-02   -0.10014E-02  4766   0.413E-02    0.125E-01
RMM:   4    -0.413188877591E+03   -0.22757E-01   -0.23202E-02  5146   0.127E-01    0.631E-01
RMM:   5    -0.413165735154E+03    0.23142E-01   -0.11280E-02  4814   0.105E-01    0.417E-02
RMM:   6    -0.413165885975E+03   -0.15082E-03   -0.19406E-03  5810   0.420E-02    0.269E-02
RMM:   7    -0.413165890609E+03   -0.46343E-05   -0.29502E-04  5705   0.161E-02    0.170E-02
RMM:   8    -0.413165885990E+03    0.46189E-05   -0.53391E-05  4945   0.770E-03    0.845E-03
RMM:   9    -0.413165884643E+03    0.13471E-05   -0.10383E-05  3701   0.373E-03    0.651E-03
RMM:  10    -0.413165885564E+03   -0.92133E-06   -0.14514E-06  2540   0.201E-03
    9 T=    61. E= -.41286679E+03 F= -.41316589E+03 E0= -.41314348E+03  EK= 0.29909E+00 SP= 0.00E+00 SK= 0.00E+00
       N       E                     dE             d eps       ncg     rms          rms(c)
RMM:   1    -0.413160764549E+03    0.51201E-02   -0.10169E+01  4296   0.695E-01    0.905E-01
RMM:   2    -0.413168143710E+03   -0.73792E-02   -0.12224E-01  4264   0.933E-02    0.637E-01
RMM:   3    -0.413168819929E+03   -0.67622E-03   -0.12035E-02  5089   0.651E-02    0.256E-01
RMM:   4    -0.413199372610E+03   -0.30553E-01   -0.43074E-02  5113   0.175E-01    0.756E-01
RMM:   5    -0.413165846088E+03    0.33527E-01   -0.14386E-02  4747   0.125E-01    0.573E-02
RMM:   6    -0.413165951759E+03   -0.10567E-03   -0.25351E-03  5602   0.497E-02    0.287E-02
RMM:   7    -0.413165965181E+03   -0.13422E-04   -0.38252E-04  6004   0.168E-02    0.179E-02
RMM:   8    -0.413165961287E+03    0.38933E-05   -0.65461E-05  5238   0.864E-03    0.794E-03
RMM:   9    -0.413165956681E+03    0.46068E-05   -0.10084E-05  3499   0.372E-03    0.398E-03
RMM:  10    -0.413165955732E+03    0.94865E-06   -0.23893E-06  2605   0.223E-03
   10 T=    61. E= -.41286665E+03 F= -.41316596E+03 E0= -.41314357E+03  EK= 0.29930E+00 SP= 0.00E+00 SK= 0.00E+00
       N       E                     dE             d eps       ncg     rms          rms(c)
RMM:   1    -0.413161438214E+03    0.45185E-02   -0.10129E+01  4289   0.709E-01    0.882E-01
RMM:   2    -0.413169241889E+03   -0.78037E-02   -0.12384E-01  4233   0.939E-02    0.640E-01
RMM:   3    -0.413167783181E+03    0.14587E-02   -0.10404E-02  5022   0.510E-02    0.174E-01
RMM:   4    -0.413209484291E+03   -0.41701E-01   -0.46578E-02  5136   0.180E-01    0.852E-01
RMM:   5    -0.413166484903E+03    0.42999E-01   -0.20130E-02  4797   0.142E-01    0.527E-02
RMM:   6    -0.413166700783E+03   -0.21588E-03   -0.33239E-03  5740   0.567E-02    0.297E-02
RMM:   7    -0.413166716315E+03   -0.15532E-04   -0.47361E-04  5931   0.186E-02    0.199E-02
RMM:   8    -0.413166715661E+03    0.65390E-06   -0.75162E-05  5244   0.876E-03    0.951E-03
RMM:   9    -0.413166713561E+03    0.21003E-05   -0.14836E-05  4033   0.425E-03    0.585E-03
RMM:  10    -0.413166715145E+03   -0.15844E-05   -0.26151E-06  2632   0.222E-03    0.390E-03
RMM:  11    -0.413166716574E+03   -0.14290E-05   -0.11968E-06  2515   0.172E-03    0.206E-03
RMM:  12    -0.413166718129E+03   -0.15553E-05   -0.14190E-06  2547   0.174E-03    0.682E-04
RMM:  13    -0.413166718455E+03   -0.32564E-06   -0.54615E-07  2296   0.120E-03
   11 T=    61. E= -.41286697E+03 F= -.41316672E+03 E0= -.41314436E+03  EK= 0.29975E+00 SP= 0.00E+00 SK= 0.00E+00
       N       E                     dE             d eps       ncg     rms          rms(c)
RMM:   1    -0.413164870327E+03    0.18478E-02   -0.10233E+01  4297   0.731E-01    0.893E-01
RMM:   2    -0.413169312006E+03   -0.44417E-02   -0.12856E-01  4229   0.976E-02    0.647E-01
RMM:   3    -0.413166958769E+03    0.23532E-02   -0.99218E-03  4832   0.426E-02    0.133E-01
RMM:   4    -0.413194533479E+03   -0.27575E-01   -0.28419E-02  5145   0.140E-01    0.693E-01
RMM:   5    -0.413166503087E+03    0.28030E-01   -0.13666E-02  4802   0.115E-01    0.437E-02
RMM:   6    -0.413166681560E+03   -0.17847E-03   -0.23183E-03  5795   0.461E-02    0.279E-02
RMM:   7    -0.413166687777E+03   -0.62174E-05   -0.33730E-04  5746   0.168E-02    0.178E-02
RMM:   8    -0.413166684246E+03    0.35314E-05   -0.60645E-05  5013   0.809E-03    0.892E-03
RMM:   9    -0.413166682559E+03    0.16871E-05   -0.12329E-05  3898   0.401E-03    0.666E-03
RMM:  10    -0.413166683668E+03   -0.11092E-05   -0.16421E-06  2562   0.203E-03    0.430E-03
RMM:  11    -0.413166685209E+03   -0.15411E-05   -0.16441E-06  2556   0.198E-03    0.200E-03
RMM:  12    -0.413166686434E+03   -0.12248E-05   -0.13643E-06  2529   0.175E-03    0.786E-04
RMM:  13    -0.413166686475E+03   -0.41349E-07   -0.39331E-07  2213   0.109E-03
   12 T=    61. E= -.41286670E+03 F= -.41316669E+03 E0= -.41314435E+03  EK= 0.29999E+00 SP= 0.00E+00 SK= 0.00E+00
       N       E                     dE             d eps       ncg     rms          rms(c)
RMM:   1    -0.413162170073E+03    0.45164E-02   -0.10194E+01  4295   0.708E-01    0.910E-01
RMM:   2    -0.413169250979E+03   -0.70809E-02   -0.12259E-01  4240   0.940E-02    0.639E-01
RMM:   3    -0.413167504665E+03    0.17463E-02   -0.10145E-02  4823   0.412E-02    0.136E-01
RMM:   4    -0.413193553799E+03   -0.26049E-01   -0.26794E-02  5148   0.136E-01    0.674E-01
RMM:   5    -0.413167054813E+03    0.26499E-01   -0.12932E-02  4803   0.112E-01    0.445E-02
RMM:   6    -0.413167221663E+03   -0.16685E-03   -0.22317E-03  5812   0.452E-02    0.289E-02
RMM:   7    -0.413167219132E+03    0.25313E-05   -0.33486E-04  5721   0.171E-02    0.182E-02
RMM:   8    -0.413167209655E+03    0.94767E-05   -0.58397E-05  4975   0.805E-03    0.903E-03
RMM:   9    -0.413167204986E+03    0.46689E-05   -0.11547E-05  3840   0.391E-03    0.688E-03
RMM:  10    -0.413167202308E+03    0.26780E-05   -0.16018E-06  2549   0.207E-03    0.436E-03
RMM:  11    -0.413167199268E+03    0.30396E-05   -0.14454E-06  2543   0.190E-03    0.215E-03
RMM:  12    -0.413167195240E+03    0.40283E-05   -0.14349E-06  2540   0.180E-03    0.805E-04
RMM:  13    -0.413167194364E+03    0.87641E-06   -0.42106E-07  2249   0.113E-03
   13 T=    61. E= -.41286676E+03 F= -.41316719E+03 E0= -.41314489E+03  EK= 0.30044E+00 SP= 0.00E+00 SK= 0.00E+00
       N       E                     dE             d eps       ncg     rms          rms(c)
RMM:   1    -0.413162288336E+03    0.49069E-02   -0.10119E+01  4292   0.714E-01    0.886E-01
RMM:   2    -0.413170347106E+03   -0.80588E-02   -0.12337E-01  4243   0.932E-02    0.638E-01
RMM:   3    -0.413168147024E+03    0.22001E-02   -0.98778E-03  4817   0.415E-02    0.128E-01
RMM:   4    -0.413193367332E+03   -0.25220E-01   -0.25971E-02  5138   0.134E-01    0.663E-01
RMM:   5    -0.413167725831E+03    0.25642E-01   -0.12529E-02  4805   0.110E-01    0.430E-02
RMM:   6    -0.413167889136E+03   -0.16331E-03   -0.21321E-03  5801   0.441E-02    0.275E-02
RMM:   7    -0.413167893411E+03   -0.42749E-05   -0.31482E-04  5716   0.165E-02    0.174E-02
RMM:   8    -0.413167887863E+03    0.55478E-05   -0.57664E-05  4973   0.797E-03    0.868E-03
RMM:   9    -0.413167885257E+03    0.26068E-05   -0.11627E-05  3841   0.392E-03    0.662E-03
RMM:  10    -0.413167885046E+03    0.21019E-06   -0.15463E-06  2548   0.203E-03
   14 T=    61. E= -.41286684E+03 F= -.41316789E+03 E0= -.41314562E+03  EK= 0.30104E+00 SP= 0.00E+00 SK= 0.00E+00
       N       E                     dE             d eps       ncg     rms          rms(c)
RMM:   1    -0.413162430799E+03    0.54545E-02   -0.10208E+01  4307   0.718E-01    0.891E-01
RMM:   2    -0.413170752047E+03   -0.83212E-02   -0.12526E-01  4278   0.958E-02    0.649E-01
RMM:   3    -0.413171290040E+03   -0.53799E-03   -0.12632E-02  5107   0.681E-02    0.267E-01
RMM:   4    -0.413203666422E+03   -0.32376E-01   -0.47135E-02  5104   0.183E-01    0.779E-01
RMM:   5    -0.413167795153E+03    0.35871E-01   -0.15258E-02  4737   0.128E-01    0.574E-02
RMM:   6    -0.413167900978E+03   -0.10583E-03   -0.26043E-03  5609   0.508E-02    0.274E-02
RMM:   7    -0.413167921147E+03   -0.20169E-04   -0.38730E-04  6009   0.168E-02    0.176E-02
RMM:   8    -0.413167922555E+03   -0.14082E-05   -0.70159E-05  5245   0.882E-03    0.806E-03
RMM:   9    -0.413167920482E+03    0.20730E-05   -0.11195E-05  3593   0.388E-03    0.378E-03
RMM:  10    -0.413167921843E+03   -0.13607E-05   -0.24776E-06  2615   0.222E-03    0.261E-03
RMM:  11    -0.413167923278E+03   -0.14347E-05   -0.13574E-06  2522   0.180E-03    0.142E-03
RMM:  12    -0.413167923898E+03   -0.62045E-06   -0.76969E-07  2478   0.139E-03
   15 T=    61. E= -.41286646E+03 F= -.41316792E+03 E0= -.41314569E+03  EK= 0.30146E+00 SP= 0.00E+00 SK= 0.00E+00
       N       E                     dE             d eps       ncg     rms          rms(c)
RMM:   1    -0.413163957679E+03    0.39656E-02   -0.10221E+01  4300   0.721E-01    0.912E-01
RMM:   2    -0.413171291639E+03   -0.73340E-02   -0.12328E-01  4248   0.952E-02    0.642E-01
RMM:   3    -0.413169539327E+03    0.17523E-02   -0.10452E-02  4939   0.457E-02    0.152E-01
RMM:   4    -0.413205439030E+03   -0.35900E-01   -0.38048E-02  5139   0.162E-01    0.789E-01
RMM:   5    -0.413168771036E+03    0.36668E-01   -0.17777E-02  4795   0.132E-01    0.491E-02
RMM:   6    -0.413168980247E+03   -0.20921E-03   -0.29718E-03  5762   0.530E-02    0.314E-02
RMM:   7    -0.413168979490E+03    0.75708E-06   -0.43271E-04  5774   0.187E-02    0.202E-02
RMM:   8    -0.413168970861E+03    0.86287E-05   -0.70976E-05  5142   0.871E-03    0.996E-03
RMM:   9    -0.413168964437E+03    0.64235E-05   -0.14331E-05  4065   0.427E-03    0.698E-03
RMM:  10    -0.413168960869E+03    0.35689E-05   -0.20700E-06  2586   0.216E-03    0.447E-03
RMM:  11    -0.413168957599E+03    0.32700E-05   -0.13436E-06  2524   0.182E-03    0.235E-03
RMM:  12    -0.413168952322E+03    0.52766E-05   -0.17124E-06  2572   0.195E-03    0.909E-04
RMM:  13    -0.413168950709E+03    0.16133E-05   -0.49193E-07  2339   0.124E-03    0.637E-04
RMM:  14    -0.413168950762E+03   -0.53475E-07   -0.22019E-07  1845   0.830E-04
   16 T=    62. E= -.41286683E+03 F= -.41316895E+03 E0= -.41314675E+03  EK= 0.30212E+00 SP= 0.00E+00 SK= 0.00E+00
       N       E                     dE             d eps       ncg     rms          rms(c)
RMM:   1    -0.413164059915E+03    0.48908E-02   -0.10137E+01  4297   0.722E-01    0.892E-01
RMM:   2    -0.413171898268E+03   -0.78384E-02   -0.12333E-01  4257   0.935E-02    0.638E-01
RMM:   3    -0.413169741049E+03    0.21572E-02   -0.99475E-03  4874   0.414E-02    0.135E-01
RMM:   4    -0.413198232146E+03   -0.28491E-01   -0.29609E-02  5137   0.143E-01    0.704E-01
RMM:   5    -0.413169231395E+03    0.29001E-01   -0.14143E-02  4795   0.117E-01    0.452E-02
RMM:   6    -0.413169410093E+03   -0.17870E-03   -0.24415E-03  5802   0.471E-02    0.292E-02
RMM:   7    -0.413169411733E+03   -0.16396E-05   -0.35733E-04  5717   0.173E-02    0.185E-02
RMM:   8    -0.413169404084E+03    0.76484E-05   -0.61924E-05  5023   0.820E-03    0.919E-03
RMM:   9    -0.413169399455E+03    0.46299E-05   -0.12625E-05  3942   0.405E-03    0.682E-03
RMM:  10    -0.413169397382E+03    0.20729E-05   -0.16649E-06  2554   0.205E-03    0.437E-03
RMM:  11    -0.413169395021E+03    0.23609E-05   -0.14281E-06  2533   0.188E-03    0.215E-03
RMM:  12    -0.413169391815E+03    0.32057E-05   -0.14276E-06  2537   0.181E-03    0.811E-04
RMM:  13    -0.413169391094E+03    0.72073E-06   -0.40947E-07  2239   0.113E-03
   17 T=    62. E= -.41286679E+03 F= -.41316939E+03 E0= -.41314723E+03  EK= 0.30260E+00 SP= 0.00E+00 SK= 0.00E+00
       N       E                     dE             d eps       ncg     rms          rms(c)
RMM:   1    -0.413164359239E+03    0.50326E-02   -0.10210E+01  4297   0.729E-01    0.889E-01
RMM:   2    -0.413172667705E+03   -0.83085E-02   -0.12572E-01  4259   0.957E-02    0.650E-01
RMM:   3    -0.413170202298E+03    0.24654E-02   -0.10392E-02  4861   0.432E-02    0.128E-01
RMM:   4    -0.413199535802E+03   -0.29334E-01   -0.30548E-02  5132   0.145E-01    0.714E-01
RMM:   5    -0.413169662482E+03    0.29873E-01   -0.14586E-02  4795   0.119E-01    0.447E-02
RMM:   6    -0.413169845120E+03   -0.18264E-03   -0.24976E-03  5805   0.475E-02    0.282E-02
RMM:   7    -0.413169851918E+03   -0.67981E-05   -0.34922E-04  5755   0.171E-02    0.180E-02
RMM:   8    -0.413169847816E+03    0.41013E-05   -0.65211E-05  5027   0.827E-03    0.931E-03
RMM:   9    -0.413169844829E+03    0.29872E-05   -0.13262E-05  4039   0.416E-03    0.684E-03
RMM:  10    -0.413169845084E+03   -0.25459E-06   -0.17675E-06  2562   0.206E-03
   18 T=    62. E= -.41286668E+03 F= -.41316985E+03 E0= -.41314773E+03  EK= 0.30317E+00 SP= 0.00E+00 SK= 0.00E+00
       N       E                     dE             d eps       ncg     rms          rms(c)
RMM:   1    -0.413166517014E+03    0.33278E-02   -0.10244E+01  4302   0.739E-01    0.911E-01
RMM:   2    -0.413173487608E+03   -0.69706E-02   -0.12385E-01  4302   0.993E-02    0.646E-01
RMM:   3    -0.413175132037E+03   -0.16444E-02   -0.13335E-02  5111   0.720E-02    0.293E-01
RMM:   4    -0.413201228561E+03   -0.26097E-01   -0.42645E-02  5085   0.174E-01    0.717E-01
RMM:   5    -0.413171046108E+03    0.30182E-01   -0.12448E-02  4709   0.118E-01    0.564E-02
RMM:   6    -0.413171115288E+03   -0.69180E-04   -0.22395E-03  5544   0.468E-02    0.287E-02
RMM:   7    -0.413171123909E+03   -0.86217E-05   -0.35391E-04  6000   0.165E-02    0.180E-02
RMM:   8    -0.413171117794E+03    0.61152E-05   -0.65225E-05  5204   0.874E-03    0.790E-03
RMM:   9    -0.413171110920E+03    0.68741E-05   -0.97285E-06  3487   0.377E-03    0.383E-03
RMM:  10    -0.413171108575E+03    0.23453E-05   -0.21198E-06  2577   0.216E-03    0.258E-03
RMM:  11    -0.413171104684E+03    0.38912E-05   -0.12230E-06  2514   0.177E-03    0.144E-03
RMM:  12    -0.413171101155E+03    0.35286E-05   -0.66545E-07  2451   0.135E-03    0.466E-04
RMM:  13    -0.413171099224E+03    0.19310E-05   -0.32543E-07  1997   0.954E-04    0.283E-04
RMM:  14    -0.413171097512E+03    0.17124E-05   -0.19037E-07  1536   0.774E-04    0.199E-04
RMM:  15    -0.413171094739E+03    0.27722E-05   -0.16217E-07  1386   0.727E-04    0.101E-04
RMM:  16    -0.413171092364E+03    0.23756E-05   -0.12736E-07  1327   0.678E-04    0.103E-04
RMM:  17    -0.413171089546E+03    0.28179E-05   -0.12044E-07  1398   0.663E-04    0.568E-05
RMM:  18    -0.413171088007E+03    0.15389E-05   -0.63081E-08   989   0.570E-04    0.326E-05
RMM:  19    -0.413171087317E+03    0.68962E-06   -0.33264E-08   829   0.539E-04
   19 T=    62. E= -.41286704E+03 F= -.41317109E+03 E0= -.41314901E+03  EK= 0.30405E+00 SP= 0.00E+00 SK= 0.00E+00
       N       E                     dE             d eps       ncg     rms          rms(c)
RMM:   1    -0.413166354988E+03    0.47330E-02   -0.10177E+01  4296   0.733E-01    0.901E-01
RMM:   2    -0.413173750477E+03   -0.73955E-02   -0.12353E-01  4260   0.982E-02    0.640E-01
RMM:   3    -0.413172089845E+03    0.16606E-02   -0.10346E-02  4919   0.466E-02    0.153E-01
RMM:   4    -0.413208724759E+03   -0.36635E-01   -0.39121E-02  5139   0.164E-01    0.796E-01
RMM:   5    -0.413171284344E+03    0.37440E-01   -0.18151E-02  4786   0.133E-01    0.499E-02
RMM:   6    -0.413171494248E+03   -0.20990E-03   -0.31301E-03  5755   0.540E-02    0.316E-02
RMM:   7    -0.413171493800E+03    0.44840E-06   -0.45103E-04  5751   0.188E-02    0.204E-02
RMM:   8    -0.413171485057E+03    0.87423E-05   -0.72649E-05  5168   0.882E-03    0.101E-02
RMM:   9    -0.413171478446E+03    0.66115E-05   -0.15036E-05  4152   0.436E-03    0.702E-03
RMM:  10    -0.413171474906E+03    0.35404E-05   -0.21300E-06  2587   0.217E-03    0.455E-03
RMM:  11    -0.413171471816E+03    0.30891E-05   -0.12786E-06  2512   0.179E-03    0.245E-03
RMM:  12    -0.413171466846E+03    0.49708E-05   -0.15573E-06  2539   0.194E-03    0.870E-04
RMM:  13    -0.413171465140E+03    0.17055E-05   -0.50431E-07  2339   0.126E-03    0.658E-04
RMM:  14    -0.413171465265E+03   -0.12528E-06   -0.22829E-07  1870   0.844E-04
   20 T=    62. E= -.41286676E+03 F= -.41317147E+03 E0= -.41314943E+03  EK= 0.30470E+00 SP= 0.00E+00 SK= 0.00E+00
       N       E                     dE             d eps       ncg     rms          rms(c)
RMM:   1    -0.413172037958E+03   -0.57282E-03   -0.10270E+01  4297   0.776E-01    0.887E-01
RMM:   2    -0.413175518138E+03   -0.34802E-02   -0.13732E-01  4273   0.101E-01    0.651E-01
RMM:   3    -0.413172839956E+03    0.26782E-02   -0.98042E-03  4797   0.418E-02    0.135E-01
RMM:   4    -0.413197404849E+03   -0.24565E-01   -0.25392E-02  5139   0.132E-01    0.655E-01
RMM:   5    -0.413172450684E+03    0.24954E-01   -0.12355E-02  4805   0.109E-01    0.427E-02
RMM:   6    -0.413172593444E+03   -0.14276E-03   -0.20774E-03  5809   0.435E-02    0.266E-02
RMM:   7    -0.413172600072E+03   -0.66283E-05   -0.29190E-04  5707   0.159E-02    0.162E-02
RMM:   8    -0.413172595676E+03    0.43958E-05   -0.61704E-05  4998   0.808E-03    0.893E-03
RMM:   9    -0.413172591871E+03    0.38052E-05   -0.12421E-05  4010   0.408E-03    0.669E-03
RMM:  10    -0.413172591396E+03    0.47462E-06   -0.15402E-06  2548   0.201E-03
   21 T=    62. E= -.41286687E+03 F= -.41317259E+03 E0= -.41315060E+03  EK= 0.30572E+00 SP= 0.00E+00 SK= 0.00E+00
       N       E                     dE             d eps       ncg     rms          rms(c)
RMM:   1    -0.413169102477E+03    0.34894E-02   -0.10282E+01  4296   0.759E-01    0.909E-01
RMM:   2    -0.413176250238E+03   -0.71478E-02   -0.12544E-01  4297   0.978E-02    0.650E-01
RMM:   3    -0.413176726109E+03   -0.47587E-03   -0.12647E-02  5084   0.661E-02    0.261E-01
RMM:   4    -0.413209588940E+03   -0.32863E-01   -0.46801E-02  5104   0.181E-01    0.781E-01
RMM:   5    -0.413173529539E+03    0.36059E-01   -0.15658E-02  4734   0.130E-01    0.566E-02
RMM:   6    -0.413173642257E+03   -0.11272E-03   -0.27066E-03  5633   0.518E-02    0.293E-02
RMM:   7    -0.413173652113E+03   -0.98562E-05   -0.40015E-04  5956   0.173E-02    0.187E-02
RMM:   8    -0.413173646753E+03    0.53596E-05   -0.70456E-05  5211   0.889E-03    0.840E-03
RMM:   9    -0.413173640001E+03    0.67529E-05   -0.11741E-05  3690   0.397E-03    0.420E-03
RMM:  10    -0.413173637400E+03    0.26002E-05   -0.24781E-06  2613   0.224E-03    0.292E-03
RMM:  11    -0.413173633930E+03    0.34707E-05   -0.11133E-06  2502   0.171E-03    0.150E-03
RMM:  12    -0.413173629966E+03    0.39635E-05   -0.73007E-07  2465   0.139E-03    0.457E-04
RMM:  13    -0.413173627889E+03    0.20774E-05   -0.35361E-07  2069   0.993E-04    0.291E-04
RMM:  14    -0.413173626549E+03    0.13398E-05   -0.19318E-07  1569   0.776E-04    0.197E-04
RMM:  15    -0.413173623986E+03    0.25631E-05   -0.14904E-07  1346   0.717E-04    0.990E-05
RMM:  16    -0.413173621385E+03    0.26007E-05   -0.12545E-07  1367   0.690E-04    0.127E-04
RMM:  17    -0.413173619532E+03    0.18532E-05   -0.84438E-08  1190   0.626E-04    0.740E-05
RMM:  18    -0.413173617102E+03    0.24294E-05   -0.77133E-08  1200   0.611E-04    0.456E-05
RMM:  19    -0.413173616174E+03    0.92791E-06   -0.33662E-08   827   0.541E-04
   22 T=    62. E= -.41286684E+03 F= -.41317362E+03 E0= -.41315167E+03  EK= 0.30677E+00 SP= 0.00E+00 SK= 0.00E+00
       N       E                     dE             d eps       ncg     rms          rms(c)
RMM:   1    -0.413169260248E+03    0.43569E-02   -0.10247E+01  4295   0.746E-01    0.910E-01
RMM:   2    -0.413176848266E+03   -0.75880E-02   -0.12464E-01  4276   0.986E-02    0.644E-01
RMM:   3    -0.413174832547E+03    0.20157E-02   -0.10564E-02  4878   0.471E-02    0.149E-01
RMM:   4    -0.413209473736E+03   -0.34641E-01   -0.36591E-02  5136   0.159E-01    0.775E-01
RMM:   5    -0.413174128426E+03    0.35345E-01   -0.17273E-02  4785   0.130E-01    0.491E-02
RMM:   6    -0.413174329886E+03   -0.20146E-03   -0.29946E-03  5773   0.525E-02    0.316E-02
RMM:   7    -0.413174330349E+03   -0.46344E-06   -0.42331E-04  5725   0.188E-02    0.200E-02
RMM:   8    -0.413174320667E+03    0.96827E-05   -0.74963E-05  5150   0.897E-03    0.105E-02
RMM:   9    -0.413174312841E+03    0.78257E-05   -0.15234E-05  4180   0.444E-03    0.743E-03
RMM:  10    -0.413174308034E+03    0.48071E-05   -0.20475E-06  2580   0.220E-03    0.479E-03
RMM:  11    -0.413174303534E+03    0.44999E-05   -0.14296E-06  2526   0.189E-03    0.253E-03
RMM:  12    -0.413174296841E+03    0.66928E-05   -0.16263E-06  2536   0.198E-03    0.899E-04
RMM:  13    -0.413174294782E+03    0.20595E-05   -0.50670E-07  2335   0.127E-03    0.636E-04
RMM:  14    -0.413174294834E+03   -0.51972E-07   -0.23753E-07  1885   0.853E-04
   23 T=    63. E= -.41286665E+03 F= -.41317429E+03 E0= -.41315240E+03  EK= 0.30764E+00 SP= 0.00E+00 SK= 0.00E+00
       N       E                     dE             d eps       ncg     rms          rms(c)
RMM:   1    -0.413170886874E+03    0.34079E-02   -0.10250E+01  4298   0.772E-01    0.891E-01
RMM:   2    -0.413178935673E+03   -0.80488E-02   -0.12692E-01  4282   0.102E-01    0.650E-01
RMM:   3    -0.413176140725E+03    0.27949E-02   -0.10385E-02  4727   0.448E-02    0.121E-01
RMM:   4    -0.413198166755E+03   -0.22026E-01   -0.22635E-02  5140   0.125E-01    0.621E-01
RMM:   5    -0.413175777568E+03    0.22389E-01   -0.11123E-02  4803   0.103E-01    0.419E-02
RMM:   6    -0.413175900200E+03   -0.12263E-03   -0.18766E-03  5810   0.412E-02    0.257E-02
RMM:   7    -0.413175902924E+03   -0.27236E-05   -0.24138E-04  5692   0.150E-02    0.140E-02
RMM:   8    -0.413175899739E+03    0.31846E-05   -0.53452E-05  4984   0.744E-03    0.904E-03
RMM:   9    -0.413175895077E+03    0.46619E-05   -0.11066E-05  3896   0.387E-03    0.675E-03
RMM:  10    -0.413175893577E+03    0.15003E-05   -0.14985E-06  2544   0.206E-03    0.431E-03
RMM:  11    -0.413175891414E+03    0.21631E-05   -0.16742E-06  2542   0.205E-03    0.205E-03
RMM:  12    -0.413175888716E+03    0.26975E-05   -0.10990E-06  2472   0.167E-03    0.667E-04
RMM:  13    -0.413175888166E+03    0.54992E-06   -0.36566E-07  2135   0.104E-03
   24 T=    63. E= -.41286703E+03 F= -.41317589E+03 E0= -.41315404E+03  EK= 0.30886E+00 SP= 0.00E+00 SK= 0.00E+00
       N       E                     dE             d eps       ncg     rms          rms(c)
RMM:   1    -0.413175437147E+03    0.45157E-03   -0.10363E+01  4296   0.821E-01    0.907E-01
RMM:   2    -0.413179845443E+03   -0.44083E-02   -0.12955E-01  4279   0.105E-01    0.656E-01
RMM:   3    -0.413177024828E+03    0.28206E-02   -0.10481E-02  4629   0.441E-02    0.119E-01
RMM:   4    -0.413192454855E+03   -0.15430E-01   -0.15831E-02  5144   0.105E-01    0.522E-01
RMM:   5    -0.413176801731E+03    0.15653E-01   -0.78036E-03  4818   0.866E-02    0.395E-02
RMM:   6    -0.413176873690E+03   -0.71959E-04   -0.13437E-03  5818   0.343E-02    0.230E-02
RMM:   7    -0.413176875650E+03   -0.19597E-05   -0.16879E-04  5613   0.127E-02    0.116E-02
RMM:   8    -0.413176867686E+03    0.79641E-05   -0.31937E-05  4760   0.589E-03    0.758E-03
RMM:   9    -0.413176866630E+03    0.10561E-05   -0.76674E-06  3477   0.326E-03    0.622E-03
RMM:  10    -0.413176863670E+03    0.29596E-05   -0.11319E-06  2513   0.192E-03    0.380E-03
RMM:  11    -0.413176860193E+03    0.34765E-05   -0.12787E-06  2508   0.183E-03    0.189E-03
RMM:  12    -0.413176856389E+03    0.38050E-05   -0.85583E-07  2432   0.148E-03    0.672E-04
RMM:  13    -0.413176855446E+03    0.94209E-06   -0.30242E-07  2051   0.954E-04
   25 T=    63. E= -.41286686E+03 F= -.41317686E+03 E0= -.41315506E+03  EK= 0.31000E+00 SP= 0.00E+00 SK= 0.00E+00
       N       E                     dE             d eps       ncg     rms          rms(c)
RMM:   1    -0.413173413422E+03    0.34430E-02   -0.10332E+01  4293   0.764E-01    0.920E-01
RMM:   2    -0.413180590440E+03   -0.71770E-02   -0.12590E-01  4279   0.103E-01    0.649E-01
RMM:   3    -0.413178311824E+03    0.22786E-02   -0.10550E-02  4529   0.446E-02    0.125E-01
RMM:   4    -0.413190548214E+03   -0.12236E-01   -0.12575E-02  5143   0.937E-02    0.465E-01
RMM:   5    -0.413178182571E+03    0.12366E-01   -0.62532E-03  4825   0.770E-02    0.395E-02
RMM:   6    -0.413178221559E+03   -0.38987E-04   -0.10687E-03  5813   0.306E-02    0.221E-02
RMM:   7    -0.413178217820E+03    0.37386E-05   -0.15255E-04  5574   0.125E-02    0.123E-02
RMM:   8    -0.413178206438E+03    0.11382E-04   -0.29515E-05  4680   0.580E-03    0.721E-03
RMM:   9    -0.413178203365E+03    0.30725E-05   -0.56701E-06  3114   0.299E-03    0.572E-03
RMM:  10    -0.413178198171E+03    0.51937E-05   -0.10975E-06  2498   0.189E-03    0.331E-03
RMM:  11    -0.413178191112E+03    0.70594E-05   -0.11082E-06  2501   0.172E-03    0.165E-03
RMM:  12    -0.413178184390E+03    0.67223E-05   -0.62971E-07  2376   0.131E-03    0.633E-04
RMM:  13    -0.413178182918E+03    0.14720E-05   -0.25691E-07  1925   0.880E-04    0.396E-04
RMM:  14    -0.413178181458E+03    0.14596E-05   -0.12619E-07  1349   0.696E-04    0.303E-04
RMM:  15    -0.413178176230E+03    0.52280E-05   -0.16369E-07  1829   0.768E-04    0.275E-04
RMM:  16    -0.413178174719E+03    0.15109E-05   -0.53974E-08   972   0.582E-04    0.207E-04
RMM:  17    -0.413178171127E+03    0.35919E-05   -0.62999E-08  1044   0.600E-04    0.148E-04
RMM:  18    -0.413178169271E+03    0.18565E-05   -0.37821E-08   871   0.562E-04    0.367E-05
RMM:  19    -0.413178167771E+03    0.14996E-05   -0.28779E-08   852   0.563E-04    0.416E-05
RMM:  20    -0.413178167528E+03    0.24342E-06   -0.11221E-08   680   0.534E-04
   26 T=    63. E= -.41286688E+03 F= -.41317817E+03 E0= -.41315642E+03  EK= 0.31129E+00 SP= 0.00E+00 SK= 0.00E+00
       N       E                     dE             d eps       ncg     rms          rms(c)
RMM:   1    -0.413174835082E+03    0.33327E-02   -0.10296E+01  4291   0.785E-01    0.897E-01
RMM:   2    -0.413182579889E+03   -0.77448E-02   -0.12745E-01  4274   0.103E-01    0.651E-01
RMM:   3    -0.413180162068E+03    0.24178E-02   -0.10583E-02  4692   0.474E-02    0.125E-01
RMM:   4    -0.413202581795E+03   -0.22420E-01   -0.22959E-02  5148   0.126E-01    0.626E-01
RMM:   5    -0.413179826956E+03    0.22755E-01   -0.11407E-02  4816   0.104E-01    0.424E-02
RMM:   6    -0.413179944267E+03   -0.11731E-03   -0.18560E-03  5825   0.408E-02    0.263E-02
RMM:   7    -0.413179946349E+03   -0.20825E-05   -0.24243E-04  5666   0.153E-02    0.140E-02
RMM:   8    -0.413179942514E+03    0.38349E-05   -0.52578E-05  4980   0.744E-03    0.901E-03
RMM:   9    -0.413179937393E+03    0.51215E-05   -0.11015E-05  3904   0.386E-03    0.666E-03
RMM:  10    -0.413179935309E+03    0.20840E-05   -0.14866E-06  2543   0.205E-03    0.423E-03
RMM:  11    -0.413179932378E+03    0.29306E-05   -0.15434E-06  2526   0.199E-03    0.199E-03
RMM:  12    -0.413179929019E+03    0.33589E-05   -0.10633E-06  2467   0.166E-03    0.709E-04
RMM:  13    -0.413179928301E+03    0.71861E-06   -0.36019E-07  2156   0.105E-03
   27 T=    64. E= -.41286711E+03 F= -.41317993E+03 E0= -.41315823E+03  EK= 0.31281E+00 SP= 0.00E+00 SK= 0.00E+00
       N       E                     dE             d eps       ncg     rms          rms(c)
RMM:   1    -0.413178775587E+03    0.11534E-02   -0.10431E+01  4292   0.817E-01    0.906E-01
RMM:   2    -0.413183970388E+03   -0.51948E-02   -0.13579E-01  4272   0.109E-01    0.662E-01
RMM:   3    -0.413181159848E+03    0.28105E-02   -0.10552E-02  4435   0.446E-02    0.117E-01
RMM:   4    -0.413187849650E+03   -0.66898E-02   -0.71967E-03  5153   0.716E-02    0.346E-01
RMM:   5    -0.413181097624E+03    0.67520E-02   -0.34116E-03  4828   0.569E-02    0.361E-02
RMM:   6    -0.413181116976E+03   -0.19351E-04   -0.65640E-04  5803   0.240E-02    0.220E-02
RMM:   7    -0.413181116270E+03    0.70551E-06   -0.20149E-04  5360   0.141E-02    0.152E-02
RMM:   8    -0.413181102046E+03    0.14225E-04   -0.17043E-05  4143   0.545E-03    0.618E-03
RMM:   9    -0.413181100351E+03    0.16941E-05   -0.41116E-06  2866   0.255E-03    0.415E-03
RMM:  10    -0.413181098218E+03    0.21336E-05   -0.13774E-06  2489   0.193E-03    0.230E-03
RMM:  11    -0.413181095583E+03    0.26352E-05   -0.78016E-07  2456   0.150E-03    0.107E-03
RMM:  12    -0.413181093475E+03    0.21081E-05   -0.38921E-07  2155   0.105E-03    0.500E-04
RMM:  13    -0.413181092143E+03    0.13312E-05   -0.21139E-07  1669   0.800E-04    0.245E-04
RMM:  14    -0.413181090294E+03    0.18495E-05   -0.13255E-07  1345   0.709E-04    0.170E-04
RMM:  15    -0.413181087493E+03    0.28012E-05   -0.11172E-07  1289   0.681E-04    0.832E-05
RMM:  16    -0.413181086335E+03    0.11581E-05   -0.54692E-08   995   0.599E-04    0.570E-05
RMM:  17    -0.413181083495E+03    0.28392E-05   -0.69842E-08  1148   0.622E-04    0.480E-05
RMM:  18    -0.413181082810E+03    0.68531E-06   -0.25603E-08   788   0.544E-04
   28 T=    64. E= -.41286680E+03 F= -.41318108E+03 E0= -.41315943E+03  EK= 0.31429E+00 SP= 0.00E+00 SK= 0.00E+00
       N       E                     dE             d eps       ncg     rms          rms(c)
RMM:   1    -0.413178461722E+03    0.26218E-02   -0.10436E+01  4291   0.789E-01    0.928E-01
RMM:   2    -0.413185630622E+03   -0.71689E-02   -0.12803E-01  4275   0.106E-01    0.655E-01
RMM:   3    -0.413183238737E+03    0.23919E-02   -0.11022E-02  4597   0.483E-02    0.129E-01
RMM:   4    -0.413200039156E+03   -0.16800E-01   -0.17059E-02  5149   0.110E-01    0.543E-01
RMM:   5    -0.413183066008E+03    0.16973E-01   -0.85199E-03  4813   0.896E-02    0.416E-02
RMM:   6    -0.413183133754E+03   -0.67746E-04   -0.14222E-03  5853   0.352E-02    0.251E-02
RMM:   7    -0.413183132008E+03    0.17462E-05   -0.19477E-04  5573   0.141E-02    0.132E-02
RMM:   8    -0.413183120474E+03    0.11534E-04   -0.35234E-05  4784   0.636E-03    0.780E-03
RMM:   9    -0.413183117826E+03    0.26479E-05   -0.85981E-06  3626   0.346E-03    0.628E-03
RMM:  10    -0.413183112388E+03    0.54386E-05   -0.12421E-06  2517   0.201E-03    0.368E-03
RMM:  11    -0.413183107035E+03    0.53521E-05   -0.10149E-06  2495   0.168E-03    0.192E-03
RMM:  12    -0.413183100151E+03    0.68840E-05   -0.95244E-07  2463   0.156E-03    0.847E-04
RMM:  13    -0.413183098058E+03    0.20931E-05   -0.33504E-07  2153   0.102E-03    0.461E-04
RMM:  14    -0.413183096984E+03    0.10743E-05   -0.15212E-07  1500   0.732E-04    0.376E-04
RMM:  15    -0.413183092849E+03    0.41351E-05   -0.13308E-07  1622   0.733E-04    0.207E-04
RMM:  16    -0.413183090859E+03    0.19901E-05   -0.59967E-08  1073   0.610E-04    0.172E-04
RMM:  17    -0.413183088422E+03    0.24369E-05   -0.46109E-08   972   0.582E-04    0.147E-04
RMM:  18    -0.413183085324E+03    0.30978E-05   -0.47597E-08   993   0.581E-04    0.634E-05
RMM:  19    -0.413183084148E+03    0.11758E-05   -0.24967E-08   792   0.543E-04    0.207E-05
RMM:  20    -0.413183083603E+03    0.54534E-06   -0.14454E-08   720   0.534E-04
   29 T=    64. E= -.41286696E+03 F= -.41318308E+03 E0= -.41316149E+03  EK= 0.31612E+00 SP= 0.00E+00 SK= 0.00E+00
       N       E                     dE             d eps       ncg     rms          rms(c)
RMM:   1    -0.413180033903E+03    0.30502E-02   -0.10388E+01  4287   0.799E-01    0.907E-01
RMM:   2    -0.413187941153E+03   -0.79072E-02   -0.12934E-01  4267   0.113E-01    0.654E-01
RMM:   3    -0.413185142981E+03    0.27982E-02   -0.10850E-02  4475   0.504E-02    0.119E-01
RMM:   4    -0.413195015419E+03   -0.98724E-02   -0.10255E-02  5154   0.851E-02    0.419E-01
RMM:   5    -0.413185043273E+03    0.99721E-02   -0.50837E-03  4828   0.689E-02    0.383E-02
RMM:   6    -0.413185073408E+03   -0.30135E-04   -0.90237E-04  5840   0.280E-02    0.238E-02
RMM:   7    -0.413185074042E+03   -0.63383E-06   -0.21673E-04  5426   0.146E-02    0.157E-02
RMM:   8    -0.413185057860E+03    0.16182E-04   -0.26854E-05  4589   0.628E-03    0.685E-03
RMM:   9    -0.413185055746E+03    0.21131E-05   -0.50113E-06  3000   0.282E-03    0.499E-03
RMM:  10    -0.413185052240E+03    0.35065E-05   -0.13471E-06  2493   0.194E-03    0.278E-03
RMM:  11    -0.413185048511E+03    0.37292E-05   -0.86872E-07  2470   0.157E-03    0.139E-03
RMM:  12    -0.413185044964E+03    0.35467E-05   -0.53963E-07  2332   0.122E-03    0.701E-04
RMM:  13    -0.413185043422E+03    0.15420E-05   -0.23717E-07  1887   0.859E-04    0.301E-04
RMM:  14    -0.413185041674E+03    0.17484E-05   -0.12924E-07  1347   0.696E-04    0.185E-04
RMM:  15    -0.413185038893E+03    0.27810E-05   -0.91093E-08  1178   0.656E-04    0.797E-05
RMM:  16    -0.413185037312E+03    0.15812E-05   -0.52506E-08   968   0.612E-04    0.672E-05
RMM:  17    -0.413185035562E+03    0.17498E-05   -0.43511E-08   961   0.599E-04    0.463E-05
RMM:  18    -0.413185032965E+03    0.25965E-05   -0.51060E-08  1099   0.606E-04    0.316E-05
RMM:  19    -0.413185032432E+03    0.53350E-06   -0.17282E-08   715   0.538E-04
   30 T=    65. E= -.41286706E+03 F= -.41318503E+03 E0= -.41316348E+03  EK= 0.31797E+00 SP= 0.00E+00 SK= 0.00E+00
       N       E                     dE             d eps       ncg     rms          rms(c)
RMM:   1    -0.413183262423E+03    0.17705E-02   -0.10525E+01  4293   0.838E-01    0.909E-01
RMM:   2    -0.413190161058E+03   -0.68986E-02   -0.13617E-01  4272   0.120E-01    0.667E-01
RMM:   3    -0.413186701445E+03    0.34596E-02   -0.11194E-02  4467   0.542E-02    0.115E-01
RMM:   4    -0.413196899869E+03   -0.10198E-01   -0.10526E-02  5152   0.863E-02    0.425E-01
RMM:   5    -0.413186641431E+03    0.10258E-01   -0.52091E-03  4831   0.696E-02    0.378E-02
RMM:   6    -0.413186675402E+03   -0.33970E-04   -0.90570E-04  5847   0.280E-02    0.235E-02
RMM:   7    -0.413186680138E+03   -0.47366E-05   -0.21253E-04  5436   0.144E-02    0.154E-02
RMM:   8    -0.413186665416E+03    0.14722E-04   -0.27582E-05  4614   0.631E-03    0.675E-03
RMM:   9    -0.413186664301E+03    0.11154E-05   -0.50483E-06  2998   0.285E-03    0.492E-03
RMM:  10    -0.413186662422E+03    0.18791E-05   -0.13368E-06  2497   0.193E-03    0.276E-03
RMM:  11    -0.413186660422E+03    0.19998E-05   -0.85631E-07  2467   0.155E-03    0.139E-03
RMM:  12    -0.413186658301E+03    0.21209E-05   -0.57261E-07  2341   0.123E-03    0.713E-04
RMM:  13    -0.413186657279E+03    0.10221E-05   -0.23879E-07  1871   0.860E-04    0.312E-04
RMM:  14    -0.413186656103E+03    0.11760E-05   -0.12971E-07  1311   0.693E-04    0.194E-04
RMM:  15    -0.413186654036E+03    0.20672E-05   -0.99242E-08  1199   0.661E-04    0.836E-05
RMM:  16    -0.413186652820E+03    0.12159E-05   -0.56180E-08   958   0.609E-04    0.704E-05
RMM:  17    -0.413186651385E+03    0.14347E-05   -0.45306E-08   941   0.596E-04    0.443E-05
RMM:  18    -0.413186649449E+03    0.19363E-05   -0.45101E-08   988   0.594E-04    0.272E-05
RMM:  19    -0.413186648901E+03    0.54767E-06   -0.17419E-08   711   0.545E-04
   31 T=    65. E= -.41286681E+03 F= -.41318665E+03 E0= -.41316515E+03  EK= 0.31984E+00 SP= 0.00E+00 SK= 0.00E+00
       N       E                     dE             d eps       ncg     rms          rms(c)
RMM:   1    -0.413184767508E+03    0.18819E-02   -0.10564E+01  4292   0.823E-01    0.934E-01
RMM:   2    -0.413192148248E+03   -0.73807E-02   -0.13195E-01  4278   0.122E-01    0.663E-01
RMM:   3    -0.413189315515E+03    0.28327E-02   -0.11351E-02  4397   0.542E-02    0.122E-01
RMM:   4    -0.413194721731E+03   -0.54062E-02   -0.59658E-03  5165   0.651E-02    0.311E-01
RMM:   5    -0.413189303128E+03    0.54186E-02   -0.27767E-03  4832   0.512E-02    0.381E-02
RMM:   6    -0.413189322278E+03   -0.19150E-04   -0.62255E-04  5752   0.238E-02    0.267E-02
RMM:   7    -0.413189303945E+03    0.18333E-04   -0.22603E-04  5241   0.149E-02    0.151E-02
RMM:   8    -0.413189292553E+03    0.11392E-04   -0.17177E-05  4154   0.535E-03    0.640E-03
RMM:   9    -0.413189289656E+03    0.28971E-05   -0.25530E-06  2653   0.222E-03    0.410E-03
RMM:  10    -0.413189283836E+03    0.58199E-05   -0.11522E-06  2478   0.176E-03    0.211E-03
RMM:  11    -0.413189278725E+03    0.51104E-05   -0.67674E-07  2417   0.135E-03    0.101E-03
RMM:  12    -0.413189274123E+03    0.46026E-05   -0.37602E-07  2124   0.104E-03    0.435E-04
RMM:  13    -0.413189271391E+03    0.27318E-05   -0.19850E-07  1615   0.790E-04    0.231E-04
RMM:  14    -0.413189268226E+03    0.31652E-05   -0.10947E-07  1226   0.680E-04    0.148E-04
RMM:  15    -0.413189263569E+03    0.46572E-05   -0.93385E-08  1247   0.666E-04    0.774E-05
RMM:  16    -0.413189261854E+03    0.17148E-05   -0.48817E-08   956   0.593E-04    0.646E-05
RMM:  17    -0.413189258164E+03    0.36897E-05   -0.60293E-08  1166   0.615E-04    0.346E-05
RMM:  18    -0.413189256443E+03    0.17210E-05   -0.32446E-08   886   0.556E-04    0.210E-05
RMM:  19    -0.413189256079E+03    0.36380E-06   -0.13575E-08   666   0.523E-04
   32 T=    66. E= -.41286717E+03 F= -.41318926E+03 E0= -.41316781E+03  EK= 0.32209E+00 SP= 0.00E+00 SK= 0.00E+00
       N       E                     dE             d eps       ncg     rms          rms(c)
RMM:   1    -0.413186427445E+03    0.28290E-02   -0.10526E+01  4290   0.835E-01    0.920E-01
RMM:   2    -0.413194181589E+03   -0.77541E-02   -0.13277E-01  4278   0.126E-01    0.659E-01
RMM:   3    -0.413191134912E+03    0.30467E-02   -0.11084E-02  4230   0.524E-02    0.120E-01
RMM:   4    -0.413191256778E+03   -0.12187E-03   -0.94783E-04  4677   0.207E-02    0.382E-02
RMM:   5    -0.413191372586E+03   -0.11581E-03   -0.19747E-04  5056   0.132E-02    0.588E-02
RMM:   6    -0.413191251322E+03    0.12126E-03   -0.24296E-04  5194   0.152E-02    0.278E-02
RMM:   7    -0.413191211847E+03    0.39475E-04   -0.16979E-04  4924   0.130E-02    0.116E-02
RMM:   8    -0.413191209169E+03    0.26778E-05   -0.14921E-05  3937   0.449E-03    0.420E-03
RMM:   9    -0.413191207655E+03    0.15136E-05   -0.20877E-06  2455   0.198E-03    0.182E-03
RMM:  10    -0.413191201029E+03    0.66265E-05   -0.68249E-07  2351   0.133E-03    0.883E-04
RMM:  11    -0.413191196587E+03    0.44422E-05   -0.22409E-07  1619   0.788E-04    0.459E-04
RMM:  12    -0.413191193001E+03    0.35861E-05   -0.11438E-07  1179   0.658E-04    0.262E-04
RMM:  13    -0.413191189847E+03    0.31537E-05   -0.86327E-08  1143   0.636E-04    0.142E-04
RMM:  14    -0.413191184295E+03    0.55522E-05   -0.11136E-07  1398   0.677E-04    0.181E-04
RMM:  15    -0.413191183910E+03    0.38438E-06   -0.22772E-08   621   0.532E-04
   33 T=    66. E= -.41286700E+03 F= -.41319118E+03 E0= -.41316978E+03  EK= 0.32418E+00 SP= 0.00E+00 SK= 0.00E+00
       N       E                     dE             d eps       ncg     rms          rms(c)
RMM:   1    -0.413197327173E+03   -0.61429E-02   -0.10718E+01  4298   0.915E-01    0.912E-01
RMM:   2    -0.413196812418E+03    0.51476E-03   -0.15324E-01  4273   0.134E-01    0.674E-01
RMM:   3    -0.413193547897E+03    0.32645E-02   -0.10600E-02  4250   0.553E-02    0.135E-01
RMM:   4    -0.413194256173E+03   -0.70828E-03   -0.17364E-03  5072   0.333E-02    0.113E-01
RMM:   5    -0.413193607386E+03    0.64879E-03   -0.37304E-04  4745   0.197E-02    0.363E-02
RMM:   6    -0.413193611756E+03   -0.43693E-05   -0.26007E-04  5411   0.162E-02    0.257E-02
RMM:   7    -0.413193590497E+03    0.21258E-04   -0.17713E-04  4871   0.127E-02    0.156E-02
RMM:   8    -0.413193585416E+03    0.50814E-05   -0.15691E-05  3646   0.435E-03    0.493E-03
RMM:   9    -0.413193584699E+03    0.71720E-06   -0.22436E-06  2425   0.202E-03
   34 T=    66. E= -.41286700E+03 F= -.41319358E+03 E0= -.41317223E+03  EK= 0.32658E+00 SP= 0.00E+00 SK= 0.00E+00
       N       E                     dE             d eps       ncg     rms          rms(c)
RMM:   1    -0.413193709618E+03   -0.12420E-03   -0.10732E+01  4300   0.890E-01    0.938E-01
RMM:   2    -0.413199112378E+03   -0.54028E-02   -0.13819E-01  4265   0.129E-01    0.673E-01
RMM:   3    -0.413196239835E+03    0.28725E-02   -0.11415E-02  4309   0.563E-02    0.121E-01
RMM:   4    -0.413196551021E+03   -0.31119E-03   -0.12192E-03  5066   0.251E-02    0.722E-02
RMM:   5    -0.413196338044E+03    0.21298E-03   -0.21292E-04  4810   0.148E-02    0.426E-02
RMM:   6    -0.413196313831E+03    0.24213E-04   -0.23885E-04  5247   0.157E-02    0.291E-02
RMM:   7    -0.413196285575E+03    0.28256E-04   -0.19040E-04  4737   0.123E-02    0.162E-02
RMM:   8    -0.413196279901E+03    0.56743E-05   -0.14912E-05  3876   0.447E-03    0.606E-03
RMM:   9    -0.413196278332E+03    0.15684E-05   -0.35792E-06  2360   0.199E-03    0.208E-03
RMM:  10    -0.413196267013E+03    0.11320E-04   -0.11663E-06  2303   0.151E-03    0.599E-04
RMM:  11    -0.413196262809E+03    0.42040E-05   -0.27566E-07  1720   0.882E-04    0.322E-04
RMM:  12    -0.413196259101E+03    0.37079E-05   -0.15518E-07  1388   0.736E-04    0.215E-04
RMM:  13    -0.413196251725E+03    0.73757E-05   -0.12657E-07  1143   0.679E-04    0.127E-04
RMM:  14    -0.413196246440E+03    0.52848E-05   -0.73099E-08   988   0.625E-04    0.119E-04
RMM:  15    -0.413196241264E+03    0.51764E-05   -0.72146E-08  1070   0.619E-04    0.904E-05
RMM:  16    -0.413196239221E+03    0.20423E-05   -0.27644E-08   674   0.531E-04    0.387E-05
RMM:  17    -0.413196238408E+03    0.81357E-06   -0.11589E-08   490   0.501E-04
   35 T=    67. E= -.41286709E+03 F= -.41319624E+03 E0= -.41317493E+03  EK= 0.32915E+00 SP= 0.00E+00 SK= 0.00E+00
       N       E                     dE             d eps       ncg     rms          rms(c)
RMM:   1    -0.413198709014E+03   -0.24698E-02   -0.10756E+01  4297   0.932E-01    0.937E-01
RMM:   2    -0.413200859863E+03   -0.21508E-02   -0.13741E-01  4255   0.131E-01    0.667E-01
RMM:   3    -0.413198413899E+03    0.24460E-02   -0.11613E-02  4604   0.583E-02    0.138E-01
RMM:   4    -0.413219435699E+03   -0.21022E-01   -0.21258E-02  5160   0.123E-01    0.608E-01
RMM:   5    -0.413198231976E+03    0.21204E-01   -0.10769E-02  4808   0.101E-01    0.446E-02
RMM:   6    -0.413198254077E+03   -0.22101E-04   -0.17735E-03  5837   0.404E-02    0.287E-02
RMM:   7    -0.413198261162E+03   -0.70850E-05   -0.30009E-04  5586   0.167E-02    0.171E-02
RMM:   8    -0.413198245482E+03    0.15680E-04   -0.52926E-05  4985   0.792E-03    0.877E-03
RMM:   9    -0.413198242324E+03    0.31582E-05   -0.11232E-05  3882   0.404E-03    0.623E-03
RMM:  10    -0.413198236147E+03    0.61766E-05   -0.16181E-06  2553   0.220E-03    0.351E-03
RMM:  11    -0.413198231632E+03    0.45152E-05   -0.91247E-07  2490   0.158E-03    0.204E-03
RMM:  12    -0.413198222844E+03    0.87882E-05   -0.11740E-06  2496   0.176E-03    0.105E-03
RMM:  13    -0.413198219001E+03    0.38433E-05   -0.42885E-07  2247   0.116E-03    0.572E-04
RMM:  14    -0.413198218257E+03    0.74321E-06   -0.18981E-07  1703   0.790E-04
   36 T=    67. E= -.41286672E+03 F= -.41319822E+03 E0= -.41317696E+03  EK= 0.33150E+00 SP= 0.00E+00 SK= 0.00E+00
       N       E                     dE             d eps       ncg     rms          rms(c)
RMM:   1    -0.413212644453E+03   -0.14425E-01   -0.10932E+01  4303   0.104E+00    0.920E-01
RMM:   2    -0.413204731833E+03    0.79126E-02   -0.16123E-01  4253   0.143E-01    0.679E-01
RMM:   3    -0.413201420799E+03    0.33110E-02   -0.10659E-02  4579   0.570E-02    0.154E-01
RMM:   4    -0.413220108556E+03   -0.18688E-01   -0.19141E-02  5157   0.117E-01    0.574E-01
RMM:   5    -0.413201265633E+03    0.18843E-01   -0.95224E-03  4801   0.951E-02    0.436E-02
RMM:   6    -0.413201281323E+03   -0.15690E-04   -0.16220E-03  5834   0.382E-02    0.282E-02
RMM:   7    -0.413201291091E+03   -0.97676E-05   -0.29603E-04  5570   0.164E-02    0.170E-02
RMM:   8    -0.413201275742E+03    0.15349E-04   -0.52897E-05  4979   0.797E-03    0.827E-03
RMM:   9    -0.413201273914E+03    0.18277E-05   -0.10196E-05  3744   0.392E-03    0.567E-03
RMM:  10    -0.413201270088E+03    0.38263E-05   -0.15402E-06  2550   0.210E-03    0.329E-03
RMM:  11    -0.413201266725E+03    0.33630E-05   -0.92908E-07  2496   0.157E-03    0.180E-03
RMM:  12    -0.413201261119E+03    0.56056E-05   -0.10202E-06  2477   0.158E-03    0.886E-04
RMM:  13    -0.413201258612E+03    0.25071E-05   -0.38766E-07  2170   0.106E-03    0.489E-04
RMM:  14    -0.413201257825E+03    0.78648E-06   -0.17595E-07  1521   0.755E-04
   37 T=    68. E= -.41286709E+03 F= -.41320126E+03 E0= -.41318004E+03  EK= 0.33416E+00 SP= 0.00E+00 SK= 0.00E+00
       N       E                     dE             d eps       ncg     rms          rms(c)
RMM:   1    -0.413217217609E+03   -0.15959E-01   -0.11054E+01  4305   0.106E+00    0.941E-01
RMM:   2    -0.413207410464E+03    0.98071E-02   -0.16179E-01  4256   0.135E-01    0.684E-01
RMM:   3    -0.413204060417E+03    0.33500E-02   -0.11027E-02  4765   0.556E-02    0.169E-01
RMM:   4    -0.413238394862E+03   -0.34334E-01   -0.35192E-02  5151   0.157E-01    0.771E-01
RMM:   5    -0.413203617556E+03    0.34777E-01   -0.17642E-02  4802   0.129E-01    0.497E-02
RMM:   6    -0.413203689905E+03   -0.72349E-04   -0.28014E-03  5847   0.498E-02    0.312E-02
RMM:   7    -0.413203698775E+03   -0.88701E-05   -0.35759E-04  5704   0.176E-02    0.166E-02
RMM:   8    -0.413203689177E+03    0.95981E-05   -0.62580E-05  5037   0.814E-03    0.990E-03
RMM:   9    -0.413203686823E+03    0.23542E-05   -0.20891E-05  4561   0.499E-03    0.712E-03
RMM:  10    -0.413203680896E+03    0.59269E-05   -0.26446E-06  2650   0.256E-03    0.414E-03
RMM:  11    -0.413203677483E+03    0.34129E-05   -0.12681E-06  2494   0.183E-03    0.257E-03
RMM:  12    -0.413203668832E+03    0.86509E-05   -0.17107E-06  2528   0.213E-03    0.123E-03
RMM:  13    -0.413203665090E+03    0.37420E-05   -0.63115E-07  2374   0.141E-03    0.823E-04
RMM:  14    -0.413203664896E+03    0.19424E-06   -0.24916E-07  1977   0.901E-04
   38 T=    69. E= -.41286697E+03 F= -.41320366E+03 E0= -.41318249E+03  EK= 0.33669E+00 SP= 0.00E+00 SK= 0.00E+00
       N       E                     dE             d eps       ncg     rms          rms(c)
RMM:   1    -0.413203977022E+03   -0.31193E-03   -0.10917E+01  4305   0.101E+00    0.953E-01
RMM:   2    -0.413209594433E+03   -0.56174E-02   -0.14304E-01  4260   0.124E-01    0.677E-01
RMM:   3    -0.413206771633E+03    0.28228E-02   -0.12036E-02  4900   0.553E-02    0.167E-01
RMM:   4    -0.413247380200E+03   -0.40609E-01   -0.42722E-02  5139   0.172E-01    0.837E-01
RMM:   5    -0.413206116017E+03    0.41264E-01   -0.20655E-02  4799   0.140E-01    0.533E-02
RMM:   6    -0.413206219139E+03   -0.10312E-03   -0.33363E-03  5831   0.540E-02    0.329E-02
RMM:   7    -0.413206226181E+03   -0.70428E-05   -0.39585E-04  5703   0.184E-02    0.172E-02
RMM:   8    -0.413206215189E+03    0.10992E-04   -0.54531E-05  4905   0.754E-03    0.935E-03
RMM:   9    -0.413206212879E+03    0.23100E-05   -0.22252E-05  4595   0.483E-03    0.781E-03
RMM:  10    -0.413206204695E+03    0.81840E-05   -0.36964E-06  2792   0.281E-03    0.437E-03
RMM:  11    -0.413206199519E+03    0.51761E-05   -0.17055E-06  2525   0.207E-03    0.265E-03
RMM:  12    -0.413206187436E+03    0.12083E-04   -0.18802E-06  2541   0.225E-03    0.121E-03
RMM:  13    -0.413206183145E+03    0.42903E-05   -0.61153E-07  2417   0.144E-03    0.791E-04
RMM:  14    -0.413206183056E+03    0.89283E-07   -0.25016E-07  2019   0.907E-04
   39 T=    69. E= -.41286691E+03 F= -.41320618E+03 E0= -.41318504E+03  EK= 0.33928E+00 SP= 0.00E+00 SK= 0.00E+00
       N       E                     dE             d eps       ncg     rms          rms(c)
RMM:   1    -0.413228051884E+03   -0.21869E-01   -0.11143E+01  4309   0.116E+00    0.931E-01
RMM:   2    -0.413213038071E+03    0.15014E-01   -0.16818E-01  4263   0.135E-01    0.684E-01
RMM:   3    -0.413210012786E+03    0.30253E-02   -0.11098E-02  4964   0.570E-02    0.205E-01
RMM:   4    -0.413262785573E+03   -0.52773E-01   -0.57148E-02  5134   0.199E-01    0.951E-01
RMM:   5    -0.413208851687E+03    0.53934E-01   -0.26539E-02  4784   0.160E-01    0.587E-02
RMM:   6    -0.413209036720E+03   -0.18503E-03   -0.45007E-03  5826   0.616E-02    0.346E-02
RMM:   7    -0.413209051473E+03   -0.14753E-04   -0.50260E-04  5793   0.200E-02    0.196E-02
RMM:   8    -0.413209051000E+03    0.47320E-06   -0.96998E-05  5211   0.952E-03    0.126E-02
RMM:   9    -0.413209040159E+03    0.10840E-04   -0.29089E-05  4746   0.583E-03    0.744E-03
RMM:  10    -0.413209035658E+03    0.45014E-05   -0.47075E-06  2856   0.303E-03    0.451E-03
RMM:  11    -0.413209031936E+03    0.37223E-05   -0.18041E-06  2515   0.219E-03    0.273E-03
RMM:  12    -0.413209024059E+03    0.78764E-05   -0.16398E-06  2517   0.214E-03    0.930E-04
RMM:  13    -0.413209020167E+03    0.38926E-05   -0.67611E-07  2422   0.145E-03    0.728E-04
RMM:  14    -0.413209019557E+03    0.60979E-06   -0.28758E-07  2092   0.953E-04
   40 T=    70. E= -.41286713E+03 F= -.41320902E+03 E0= -.41318792E+03  EK= 0.34189E+00 SP= 0.00E+00 SK= 0.00E+00
       N       E                     dE             d eps       ncg     rms          rms(c)
RMM:   1    -0.413227899809E+03   -0.18880E-01   -0.11245E+01  4310   0.119E+00    0.944E-01
RMM:   2    -0.413215007763E+03    0.12892E-01   -0.17497E-01  4270   0.142E-01    0.695E-01
RMM:   3    -0.413212483352E+03    0.25244E-02   -0.11729E-02  5014   0.614E-02    0.235E-01
RMM:   4    -0.413269561928E+03   -0.57079E-01   -0.64799E-02  5128   0.212E-01    0.991E-01
RMM:   5    -0.413210743568E+03    0.58818E-01   -0.28441E-02  4775   0.167E-01    0.621E-02
RMM:   6    -0.413210944295E+03   -0.20073E-03   -0.48410E-03  5816   0.642E-02    0.355E-02
RMM:   7    -0.413210961333E+03   -0.17038E-04   -0.57416E-04  5833   0.211E-02    0.225E-02
RMM:   8    -0.413210962408E+03   -0.10750E-05   -0.12870E-04  5273   0.111E-02    0.142E-02
RMM:   9    -0.413210948131E+03    0.14277E-04   -0.28130E-05  4717   0.618E-03    0.679E-03
RMM:  10    -0.413210943904E+03    0.42277E-05   -0.58349E-06  3019   0.308E-03    0.421E-03
RMM:  11    -0.413210940502E+03    0.34020E-05   -0.16098E-06  2507   0.209E-03    0.251E-03
RMM:  12    -0.413210933816E+03    0.66855E-05   -0.13462E-06  2498   0.195E-03    0.850E-04
RMM:  13    -0.413210930037E+03    0.37787E-05   -0.61652E-07  2410   0.137E-03    0.576E-04
RMM:  14    -0.413210929141E+03    0.89681E-06   -0.27815E-07  2038   0.929E-04
   41 T=    70. E= -.41286687E+03 F= -.41321093E+03 E0= -.41318986E+03  EK= 0.34406E+00 SP= 0.00E+00 SK= 0.00E+00
       N       E                     dE             d eps       ncg     rms          rms(c)
RMM:   1    -0.413219026105E+03   -0.80961E-02   -0.11152E+01  4310   0.119E+00    0.967E-01
RMM:   2    -0.413216649167E+03    0.23769E-02   -0.14942E-01  4292   0.136E-01    0.686E-01
RMM:   3    -0.413216512996E+03    0.13617E-03   -0.14580E-02  5071   0.737E-02    0.278E-01
RMM:   4    -0.413256063410E+03   -0.39550E-01   -0.54028E-02  5093   0.195E-01    0.851E-01
RMM:   5    -0.413213243639E+03    0.42820E-01   -0.19275E-02  4746   0.142E-01    0.597E-02
RMM:   6    -0.413213335131E+03   -0.91492E-04   -0.33814E-03  5778   0.547E-02    0.346E-02
RMM:   7    -0.413213342169E+03   -0.70382E-05   -0.45993E-04  5770   0.195E-02    0.218E-02
RMM:   8    -0.413213338570E+03    0.35991E-05   -0.12504E-04  5213   0.113E-02    0.130E-02
RMM:   9    -0.413213322813E+03    0.15757E-04   -0.21467E-05  4500   0.574E-03    0.547E-03
RMM:  10    -0.413213316854E+03    0.59591E-05   -0.46489E-06  2897   0.277E-03    0.345E-03
RMM:  11    -0.413213311184E+03    0.56695E-05   -0.12608E-06  2497   0.191E-03    0.191E-03
RMM:  12    -0.413213301811E+03    0.93730E-05   -0.85986E-07  2464   0.161E-03    0.720E-04
RMM:  13    -0.413213296511E+03    0.53002E-05   -0.41061E-07  2263   0.113E-03    0.373E-04
RMM:  14    -0.413213294319E+03    0.21921E-05   -0.21073E-07  1790   0.822E-04    0.254E-04
RMM:  15    -0.413213288941E+03    0.53784E-05   -0.13066E-07  1395   0.715E-04    0.140E-04
RMM:  16    -0.413213284751E+03    0.41900E-05   -0.87731E-08  1230   0.660E-04    0.131E-04
RMM:  17    -0.413213281106E+03    0.36442E-05   -0.66110E-08  1168   0.634E-04    0.887E-05
RMM:  18    -0.413213277613E+03    0.34933E-05   -0.55366E-08  1213   0.616E-04    0.548E-05
RMM:  19    -0.413213274941E+03    0.26717E-05   -0.40770E-08  1093   0.585E-04    0.397E-05
RMM:  20    -0.413213274541E+03    0.40025E-06   -0.17816E-08   770   0.530E-04
   42 T=    70. E= -.41286708E+03 F= -.41321327E+03 E0= -.41319224E+03  EK= 0.34620E+00 SP= 0.00E+00 SK= 0.00E+00
       N       E                     dE             d eps       ncg     rms          rms(c)
RMM:   1    -0.413235667463E+03   -0.22393E-01   -0.11245E+01  4311   0.133E+00    0.943E-01
RMM:   2    -0.413218669975E+03    0.16997E-01   -0.16645E-01  4306   0.149E-01    0.688E-01
RMM:   3    -0.413219798230E+03   -0.11283E-02   -0.14814E-02  5082   0.822E-02    0.328E-01
RMM:   4    -0.413255028304E+03   -0.35230E-01   -0.54335E-02  5086   0.197E-01    0.824E-01
RMM:   5    -0.413215147485E+03    0.39881E-01   -0.17384E-02  4722   0.137E-01    0.607E-02
RMM:   6    -0.413215207475E+03   -0.59990E-04   -0.30955E-03  5742   0.527E-02    0.340E-02
RMM:   7    -0.413215212006E+03   -0.45309E-05   -0.44856E-04  5782   0.192E-02    0.226E-02
RMM:   8    -0.413215208120E+03    0.38859E-05   -0.12091E-04  5191   0.112E-02    0.119E-02
RMM:   9    -0.413215195539E+03    0.12581E-04   -0.20494E-05  4476   0.565E-03    0.467E-03
RMM:  10    -0.413215192230E+03    0.33089E-05   -0.42026E-06  2816   0.259E-03    0.294E-03
RMM:  11    -0.413215188153E+03    0.40763E-05   -0.12878E-06  2500   0.186E-03    0.160E-03
RMM:  12    -0.413215182891E+03    0.52621E-05   -0.72500E-07  2439   0.145E-03    0.637E-04
RMM:  13    -0.413215179797E+03    0.30947E-05   -0.35882E-07  2083   0.102E-03    0.288E-04
RMM:  14    -0.413215177527E+03    0.22692E-05   -0.19557E-07  1577   0.786E-04    0.180E-04
RMM:  15    -0.413215173371E+03    0.41561E-05   -0.13866E-07  1313   0.716E-04    0.112E-04
RMM:  16    -0.413215171382E+03    0.19894E-05   -0.85329E-08  1119   0.655E-04    0.804E-05
RMM:  17    -0.413215168521E+03    0.28612E-05   -0.72774E-08  1179   0.650E-04    0.490E-05
RMM:  18    -0.413215166204E+03    0.23166E-05   -0.54385E-08  1124   0.617E-04    0.371E-05
RMM:  19    -0.413215164796E+03    0.14078E-05   -0.34472E-08   923   0.572E-04    0.215E-05
RMM:  20    -0.413215164183E+03    0.61340E-06   -0.20633E-08   791   0.549E-04
   43 T=    71. E= -.41286722E+03 F= -.41321516E+03 E0= -.41319416E+03  EK= 0.34794E+00 SP= 0.00E+00 SK= 0.00E+00
       N       E                     dE             d eps       ncg     rms          rms(c)
RMM:   1    -0.413232741916E+03   -0.17577E-01   -0.11306E+01  4311   0.136E+00    0.947E-01
RMM:   2    -0.413219914137E+03    0.12828E-01   -0.16767E-01  4306   0.162E-01    0.700E-01
RMM:   3    -0.413221987217E+03   -0.20731E-02   -0.16458E-02  5079   0.912E-02    0.357E-01
RMM:   4    -0.413254106618E+03   -0.32119E-01   -0.54643E-02  5063   0.199E-01    0.803E-01
RMM:   5    -0.413216137783E+03    0.37969E-01   -0.15976E-02  4711   0.134E-01    0.604E-02
RMM:   6    -0.413216179565E+03   -0.41781E-04   -0.28793E-03  5723   0.509E-02    0.333E-02
RMM:   7    -0.413216181178E+03   -0.16133E-05   -0.41653E-04  5777   0.188E-02    0.223E-02
RMM:   8    -0.413216176937E+03    0.42409E-05   -0.11399E-04  5171   0.110E-02    0.113E-02
RMM:   9    -0.413216166280E+03    0.10657E-04   -0.19718E-05  4427   0.557E-03    0.441E-03
RMM:  10    -0.413216163918E+03    0.23620E-05   -0.37863E-06  2780   0.250E-03    0.273E-03
RMM:  11    -0.413216160766E+03    0.31515E-05   -0.13160E-06  2506   0.185E-03    0.149E-03
RMM:  12    -0.413216156956E+03    0.38106E-05   -0.70547E-07  2434   0.141E-03    0.622E-04
RMM:  13    -0.413216154571E+03    0.23844E-05   -0.35337E-07  2002   0.986E-04    0.280E-04
RMM:  14    -0.413216152514E+03    0.20575E-05   -0.20255E-07  1513   0.779E-04    0.167E-04
RMM:  15    -0.413216149170E+03    0.33439E-05   -0.15370E-07  1312   0.720E-04    0.101E-04
RMM:  16    -0.413216147393E+03    0.17772E-05   -0.93234E-08  1114   0.658E-04    0.752E-05
RMM:  17    -0.413216144685E+03    0.27073E-05   -0.82600E-08  1211   0.655E-04    0.459E-05
RMM:  18    -0.413216142905E+03    0.17802E-05   -0.56054E-08  1074   0.611E-04    0.375E-05
RMM:  19    -0.413216141791E+03    0.11143E-05   -0.35927E-08   920   0.571E-04    0.203E-05
RMM:  20    -0.413216141186E+03    0.60445E-06   -0.21158E-08   764   0.546E-04
   44 T=    71. E= -.41286700E+03 F= -.41321614E+03 E0= -.41319516E+03  EK= 0.34915E+00 SP= 0.00E+00 SK= 0.00E+00
       N       E                     dE             d eps       ncg     rms          rms(c)
RMM:   1    -0.413248156962E+03   -0.32015E-01   -0.11429E+01  4309   0.150E+00    0.973E-01
RMM:   2    -0.413220431507E+03    0.27725E-01   -0.16628E-01  4336   0.168E-01    0.695E-01
RMM:   3    -0.413227111533E+03   -0.66800E-02   -0.20224E-02  5120   0.108E-01    0.449E-01
RMM:   4    -0.413240718542E+03   -0.13607E-01   -0.44368E-02  5040   0.182E-01    0.639E-01
RMM:   5    -0.413217337727E+03    0.23381E-01   -0.88084E-03  4639   0.108E-01    0.571E-02
RMM:   6    -0.413217312121E+03    0.25606E-04   -0.17908E-03  5568   0.409E-02    0.324E-02
RMM:   7    -0.413217308774E+03    0.33466E-05   -0.30696E-04  5627   0.169E-02    0.214E-02
RMM:   8    -0.413217299493E+03    0.92808E-05   -0.11573E-04  5079   0.112E-02    0.102E-02
RMM:   9    -0.413217286117E+03    0.13377E-04   -0.15413E-05  4269   0.536E-03    0.414E-03
RMM:  10    -0.413217282285E+03    0.38315E-05   -0.26852E-06  2691   0.227E-03    0.241E-03
RMM:  11    -0.413217276129E+03    0.61561E-05   -0.11511E-06  2481   0.177E-03    0.131E-03
RMM:  12    -0.413217269957E+03    0.61726E-05   -0.58548E-07  2410   0.133E-03    0.631E-04
RMM:  13    -0.413217266275E+03    0.36813E-05   -0.27640E-07  1858   0.910E-04    0.296E-04
RMM:  14    -0.413217262745E+03    0.35305E-05   -0.15568E-07  1372   0.723E-04    0.159E-04
RMM:  15    -0.413217257604E+03    0.51403E-05   -0.12125E-07  1279   0.692E-04    0.122E-04
RMM:  16    -0.413217254830E+03    0.27744E-05   -0.77224E-08  1091   0.635E-04    0.975E-05
RMM:  17    -0.413217249850E+03    0.49798E-05   -0.82121E-08  1347   0.655E-04    0.708E-05
RMM:  18    -0.413217247757E+03    0.20929E-05   -0.44557E-08  1004   0.570E-04    0.434E-05
RMM:  19    -0.413217246522E+03    0.12357E-05   -0.30018E-08   864   0.541E-04    0.249E-05
RMM:  20    -0.413217245988E+03    0.53382E-06   -0.17852E-08   733   0.521E-04
   45 T=    71. E= -.41286728E+03 F= -.41321725E+03 E0= -.41319629E+03  EK= 0.34996E+00 SP= 0.00E+00 SK= 0.00E+00
       N       E                     dE             d eps       ncg     rms          rms(c)
RMM:   1    -0.413252349204E+03   -0.35103E-01   -0.11351E+01  4309   0.159E+00    0.952E-01
RMM:   2    -0.413220035525E+03    0.32314E-01   -0.17793E-01  4359   0.183E-01    0.691E-01
RMM:   3    -0.413228764348E+03   -0.87288E-02   -0.21068E-02  5118   0.116E-01    0.499E-01
RMM:   4    -0.413236992127E+03   -0.82278E-02   -0.43120E-02  5024   0.181E-01    0.600E-01
RMM:   5    -0.413216835169E+03    0.20157E-01   -0.75603E-03  4609   0.103E-01    0.571E-02
RMM:   6    -0.413216788609E+03    0.46561E-04   -0.14899E-03  5453   0.380E-02    0.315E-02
RMM:   7    -0.413216785418E+03    0.31904E-05   -0.26220E-04  5630   0.158E-02    0.212E-02
RMM:   8    -0.413216775683E+03    0.97349E-05   -0.12325E-04  5079   0.115E-02    0.102E-02
RMM:   9    -0.413216762175E+03    0.13508E-04   -0.16186E-05  4321   0.556E-03    0.407E-03
RMM:  10    -0.413216759144E+03    0.30308E-05   -0.28064E-06  2712   0.223E-03    0.233E-03
RMM:  11    -0.413216753424E+03    0.57199E-05   -0.12362E-06  2485   0.180E-03    0.129E-03
RMM:  12    -0.413216748783E+03    0.46417E-05   -0.56521E-07  2416   0.132E-03    0.680E-04
RMM:  13    -0.413216745268E+03    0.35147E-05   -0.26726E-07  1817   0.899E-04    0.325E-04
RMM:  14    -0.413216741780E+03    0.34884E-05   -0.14789E-07  1356   0.714E-04    0.169E-04
RMM:  15    -0.413216737792E+03    0.39875E-05   -0.10862E-07  1215   0.671E-04    0.116E-04
RMM:  16    -0.413216735095E+03    0.26973E-05   -0.74145E-08  1113   0.628E-04    0.103E-04
RMM:  17    -0.413216731121E+03    0.39738E-05   -0.70563E-08  1248   0.634E-04    0.636E-05
RMM:  18    -0.413216728670E+03    0.24507E-05   -0.45811E-08  1046   0.575E-04    0.485E-05
RMM:  19    -0.413216727760E+03    0.91058E-06   -0.24195E-08   805   0.527E-04
   46 T=    71. E= -.41286711E+03 F= -.41321673E+03 E0= -.41319579E+03  EK= 0.34961E+00 SP= 0.00E+00 SK= 0.00E+00
       N       E                     dE             d eps       ncg     rms          rms(c)
RMM:   1    -0.413238680061E+03   -0.21951E-01   -0.11224E+01  4309   0.161E+00    0.940E-01
RMM:   2    -0.413219112616E+03    0.19567E-01   -0.18484E-01  4379   0.192E-01    0.703E-01
RMM:   3    -0.413228756259E+03   -0.96436E-02   -0.22069E-02  5119   0.123E-01    0.526E-01
RMM:   4    -0.413236208408E+03   -0.74521E-02   -0.45822E-02  5026   0.187E-01    0.608E-01
RMM:   5    -0.413215336030E+03    0.20872E-01   -0.78039E-03  4607   0.105E-01    0.587E-02
RMM:   6    -0.413215273902E+03    0.62128E-04   -0.14960E-03  5422   0.385E-02    0.313E-02
RMM:   7    -0.413215269201E+03    0.47005E-05   -0.25934E-04  5660   0.158E-02    0.217E-02
RMM:   8    -0.413215259870E+03    0.93317E-05   -0.12714E-04  5117   0.116E-02    0.104E-02
RMM:   9    -0.413215247311E+03    0.12558E-04   -0.17866E-05  4388   0.578E-03    0.410E-03
RMM:  10    -0.413215245325E+03    0.19865E-05   -0.30189E-06  2735   0.229E-03    0.236E-03
RMM:  11    -0.413215241501E+03    0.38237E-05   -0.14123E-06  2504   0.188E-03    0.134E-03
RMM:  12    -0.413215238521E+03    0.29803E-05   -0.61353E-07  2436   0.136E-03    0.723E-04
RMM:  13    -0.413215235862E+03    0.26588E-05   -0.30388E-07  1847   0.938E-04    0.345E-04
RMM:  14    -0.413215233293E+03    0.25691E-05   -0.17297E-07  1394   0.740E-04    0.175E-04
RMM:  15    -0.413215230618E+03    0.26750E-05   -0.12320E-07  1206   0.679E-04    0.105E-04
RMM:  16    -0.413215228471E+03    0.21474E-05   -0.87663E-08  1162   0.643E-04    0.940E-05
RMM:  17    -0.413215226152E+03    0.23188E-05   -0.70458E-08  1165   0.623E-04    0.513E-05
RMM:  18    -0.413215223674E+03    0.24774E-05   -0.58478E-08  1105   0.602E-04    0.454E-05
RMM:  19    -0.413215223200E+03    0.47452E-06   -0.23740E-08   754   0.531E-04
   47 T=    71. E= -.41286709E+03 F= -.41321522E+03 E0= -.41319430E+03  EK= 0.34814E+00 SP= 0.00E+00 SK= 0.00E+00
       N       E                     dE             d eps       ncg     rms          rms(c)
RMM:   1    -0.413243523011E+03   -0.28299E-01   -0.11181E+01  4304   0.174E+00    0.962E-01
RMM:   2    -0.413215935529E+03    0.27587E-01   -0.17750E-01  4421   0.201E-01    0.696E-01
RMM:   3    -0.413233646192E+03   -0.17711E-01   -0.29267E-02  5142   0.145E-01    0.639E-01
RMM:   4    -0.413224778116E+03    0.88681E-02   -0.41260E-02  4983   0.181E-01    0.475E-01
RMM:   5    -0.413212726411E+03    0.12052E-01   -0.46525E-03  4543   0.900E-02    0.580E-02
RMM:   6    -0.413212607246E+03    0.11916E-03   -0.65926E-04  4856   0.298E-02    0.301E-02
RMM:   7    -0.413212592510E+03    0.14736E-04   -0.18086E-04  5900   0.133E-02    0.130E-02
RMM:   8    -0.413212584699E+03    0.78111E-05   -0.60015E-05  5189   0.918E-03    0.992E-03
RMM:   9    -0.413212579384E+03    0.53157E-05   -0.15666E-05  4272   0.475E-03    0.406E-03
RMM:  10    -0.413212575874E+03    0.35096E-05   -0.21989E-06  2563   0.238E-03    0.235E-03
RMM:  11    -0.413212570265E+03    0.56092E-05   -0.15830E-06  2470   0.207E-03    0.149E-03
RMM:  12    -0.413212566182E+03    0.40824E-05   -0.60721E-07  2398   0.143E-03    0.886E-04
RMM:  13    -0.413212562399E+03    0.37836E-05   -0.26326E-07  1991   0.927E-04    0.486E-04
RMM:  14    -0.413212556447E+03    0.59513E-05   -0.22460E-07  1839   0.838E-04    0.453E-04
RMM:  15    -0.413212552461E+03    0.39868E-05   -0.99148E-08  1041   0.612E-04    0.174E-04
RMM:  16    -0.413212550524E+03    0.19371E-05   -0.60957E-08   927   0.578E-04    0.916E-05
RMM:  17    -0.413212546717E+03    0.38070E-05   -0.66922E-08  1094   0.610E-04    0.113E-04
RMM:  18    -0.413212545388E+03    0.13283E-05   -0.31339E-08   794   0.547E-04    0.783E-05
RMM:  19    -0.413212544307E+03    0.10809E-05   -0.24318E-08   783   0.531E-04    0.459E-05
RMM:  20    -0.413212542355E+03    0.19528E-05   -0.28603E-08   899   0.539E-04    0.375E-05
RMM:  21    -0.413212542021E+03    0.33375E-06   -0.11103E-08   593   0.478E-04
   48 T=    70. E= -.41286735E+03 F= -.41321254E+03 E0= -.41319163E+03  EK= 0.34520E+00 SP= 0.00E+00 SK= 0.00E+00
       N       E                     dE             d eps       ncg     rms          rms(c)
RMM:   1    -0.413241834034E+03   -0.29292E-01   -0.10963E+01  4304   0.185E+00    0.949E-01
RMM:   2    -0.413210314224E+03    0.31520E-01   -0.17605E-01  4486   0.211E-01    0.685E-01
RMM:   3    -0.413235160736E+03   -0.24847E-01   -0.35050E-02  5157   0.162E-01    0.730E-01
RMM:   4    -0.413215325215E+03    0.19836E-01   -0.40310E-02  4951   0.182E-01    0.400E-01
RMM:   5    -0.413207305543E+03    0.80197E-02   -0.42862E-03  4628   0.883E-02    0.647E-02
RMM:   6    -0.413207113689E+03    0.19185E-03   -0.46518E-04  4657   0.294E-02    0.327E-02
RMM:   7    -0.413207120753E+03   -0.70642E-05   -0.28943E-04  5752   0.179E-02    0.245E-02
RMM:   8    -0.413207085524E+03    0.35230E-04   -0.96695E-05  4994   0.113E-02    0.947E-03
RMM:   9    -0.413207078735E+03    0.67888E-05   -0.20023E-05  4864   0.565E-03    0.469E-03
RMM:  10    -0.413207074533E+03    0.42022E-05   -0.24327E-06  2649   0.243E-03    0.262E-03
RMM:  11    -0.413207068513E+03    0.60192E-05   -0.12821E-06  2488   0.189E-03    0.181E-03
RMM:  12    -0.413207064709E+03    0.38043E-05   -0.41493E-07  2391   0.120E-03    0.941E-04
RMM:  13    -0.413207060099E+03    0.46099E-05   -0.27315E-07  2004   0.887E-04    0.432E-04
RMM:  14    -0.413207054922E+03    0.51774E-05   -0.20525E-07  1738   0.775E-04    0.354E-04
RMM:  15    -0.413207050105E+03    0.48167E-05   -0.11423E-07  1144   0.636E-04    0.140E-04
RMM:  16    -0.413207047434E+03    0.26709E-05   -0.71344E-08  1074   0.597E-04    0.873E-05
RMM:  17    -0.413207043894E+03    0.35407E-05   -0.65305E-08  1134   0.607E-04    0.695E-05
RMM:  18    -0.413207042428E+03    0.14655E-05   -0.36795E-08   930   0.554E-04    0.572E-05
RMM:  19    -0.413207040312E+03    0.21160E-05   -0.34067E-08   974   0.550E-04    0.317E-05
RMM:  20    -0.413207039575E+03    0.73664E-06   -0.18848E-08   780   0.506E-04
   49 T=    69. E= -.41286703E+03 F= -.41320704E+03 E0= -.41318613E+03  EK= 0.34001E+00 SP= 0.00E+00 SK= 0.00E+00
       N       E                     dE             d eps       ncg     rms          rms(c)
RMM:   1    -0.413224304873E+03   -0.17265E-01   -0.10635E+01  4304   0.189E+00    0.919E-01
RMM:   2    -0.413203891342E+03    0.20414E-01   -0.17507E-01  4505   0.219E-01    0.688E-01
RMM:   3    -0.413229565608E+03   -0.25674E-01   -0.35849E-02  5163   0.167E-01    0.748E-01
RMM:   4    -0.413208353372E+03    0.21212E-01   -0.41614E-02  4947   0.186E-01    0.399E-01
RMM:   5    -0.413200261783E+03    0.80916E-02   -0.46962E-03  4700   0.923E-02    0.688E-02
RMM:   6    -0.413200028968E+03    0.23281E-03   -0.48706E-04  4634   0.310E-02    0.332E-02
RMM:   7    -0.413200035183E+03   -0.62150E-05   -0.28454E-04  5752   0.179E-02    0.245E-02
RMM:   8    -0.413200002937E+03    0.32246E-04   -0.92238E-05  5035   0.109E-02    0.103E-02
RMM:   9    -0.413199997103E+03    0.58342E-05   -0.21162E-05  4911   0.583E-03    0.462E-03
RMM:  10    -0.413199993804E+03    0.32991E-05   -0.28115E-06  2678   0.251E-03    0.270E-03
RMM:  11    -0.413199989524E+03    0.42797E-05   -0.11675E-06  2487   0.184E-03    0.179E-03
RMM:  12    -0.413199986694E+03    0.28302E-05   -0.41215E-07  2398   0.117E-03    0.923E-04
[...]
RMM:   1    -0.413160992152E+03   -0.10518E-03   -0.77778E+00  4264   0.736E-01    0.827E-01
RMM:   2    -0.413164108405E+03   -0.31163E-02   -0.86589E-02  4292   0.868E-02    0.587E-01
RMM:   3    -0.413161732778E+03    0.23756E-02   -0.16085E-02  4981   0.536E-02    0.136E-01
RMM:   4    -0.413188401295E+03   -0.26669E-01   -0.30734E-02  5123   0.147E-01    0.688E-01
RMM:   5    -0.413160811598E+03    0.27590E-01   -0.13065E-02  4792   0.114E-01    0.546E-02
RMM:   6    -0.413160849019E+03   -0.37422E-04   -0.23771E-03  5662   0.465E-02    0.326E-02
RMM:   7    -0.413160887807E+03   -0.38788E-04   -0.37956E-04  5806   0.170E-02    0.183E-02
RMM:   8    -0.413160894663E+03   -0.68558E-05   -0.58226E-05  5262   0.823E-03    0.886E-03
RMM:   9    -0.413160898917E+03   -0.42543E-05   -0.84548E-06  3291   0.346E-03    0.480E-03
RMM:  10    -0.413160908445E+03   -0.95279E-05   -0.26881E-06  2615   0.228E-03    0.296E-03
RMM:  11    -0.413160916686E+03   -0.82410E-05   -0.15103E-06  2521   0.178E-03    0.145E-03
RMM:  12    -0.413160924954E+03   -0.82676E-05   -0.14262E-06  2515   0.155E-03    0.677E-04
RMM:  13    -0.413160928614E+03   -0.36598E-05   -0.60024E-07  2173   0.111E-03    0.428E-04
RMM:  14    -0.413160931198E+03   -0.25845E-05   -0.34055E-07  1758   0.872E-04    0.281E-04
RMM:  15    -0.413160935891E+03   -0.46925E-05   -0.56170E-07  1954   0.934E-04    0.285E-04
RMM:  16    -0.413160938513E+03   -0.26226E-05   -0.34745E-07  1508   0.767E-04    0.198E-04
RMM:  17    -0.413160939469E+03   -0.95619E-06   -0.14546E-07  1162   0.639E-04
  138 T=    60. E= -.41286726E+03 F= -.41316094E+03 E0= -.41314021E+03  EK= 0.29368E+00 SP= 0.00E+00 SK= 0.00E+00
       N       E                     dE             d eps       ncg     rms          rms(c)
RMM:   1    -0.413158836614E+03    0.21019E-02   -0.82044E+00  4264   0.768E-01    0.817E-01
RMM:   2    -0.413163005209E+03   -0.41686E-02   -0.90542E-02  4293   0.876E-02    0.578E-01
RMM:   3    -0.413160817599E+03    0.21876E-02   -0.12840E-02  4935   0.471E-02    0.110E-01
RMM:   4    -0.413184508742E+03   -0.23691E-01   -0.25571E-02  5140   0.134E-01    0.645E-01
RMM:   5    -0.413160356329E+03    0.24152E-01   -0.11794E-02  4813   0.107E-01    0.513E-02
RMM:   6    -0.413160384821E+03   -0.28491E-04   -0.21015E-03  5682   0.439E-02    0.321E-02
RMM:   7    -0.413160415390E+03   -0.30570E-04   -0.34876E-04  5786   0.164E-02    0.170E-02
RMM:   8    -0.413160423204E+03   -0.78137E-05   -0.50998E-05  5191   0.765E-03    0.834E-03
RMM:   9    -0.413160427507E+03   -0.43027E-05   -0.74189E-06  3202   0.323E-03    0.470E-03
RMM:  10    -0.413160437607E+03   -0.10100E-04   -0.24812E-06  2584   0.222E-03    0.283E-03
RMM:  11    -0.413160446127E+03   -0.85201E-05   -0.14913E-06  2524   0.172E-03    0.131E-03
RMM:  12    -0.413160453924E+03   -0.77969E-05   -0.12853E-06  2468   0.147E-03    0.637E-04
RMM:  13    -0.413160457905E+03   -0.39814E-05   -0.59523E-07  2115   0.107E-03    0.395E-04
RMM:  14    -0.413160460270E+03   -0.23646E-05   -0.31309E-07  1695   0.843E-04    0.264E-04
RMM:  15    -0.413160465205E+03   -0.49349E-05   -0.61668E-07  2062   0.963E-04    0.284E-04
RMM:  16    -0.413160467250E+03   -0.20447E-05   -0.28019E-07  1361   0.707E-04    0.198E-04
RMM:  17    -0.413160468034E+03   -0.78408E-06   -0.12596E-07  1096   0.613E-04
  139 T=    60. E= -.41286704E+03 F= -.41316047E+03 E0= -.41313975E+03  EK= 0.29343E+00 SP= 0.00E+00 SK= 0.00E+00
       N       E                     dE             d eps       ncg     rms          rms(c)
RMM:   1    -0.413158002845E+03    0.24644E-02   -0.86840E+00  4264   0.782E-01    0.809E-01
RMM:   2    -0.413164037457E+03   -0.60346E-02   -0.97036E-02  4298   0.904E-02    0.583E-01
RMM:   3    -0.413161861423E+03    0.21760E-02   -0.10867E-02  4820   0.449E-02    0.925E-02
RMM:   4    -0.413179206640E+03   -0.17345E-01   -0.18062E-02  5136   0.112E-01    0.553E-01
RMM:   5    -0.413161647040E+03    0.17560E-01   -0.87335E-03  4819   0.918E-02    0.457E-02
RMM:   6    -0.413161662213E+03   -0.15173E-04   -0.15715E-03  5676   0.379E-02    0.291E-02
RMM:   7    -0.413161695622E+03   -0.33409E-04   -0.27520E-04  5709   0.144E-02    0.144E-02
RMM:   8    -0.413161707349E+03   -0.11728E-04   -0.40282E-05  4995   0.680E-03    0.739E-03
RMM:   9    -0.413161713238E+03   -0.58884E-05   -0.52683E-06  3000   0.284E-03    0.420E-03
RMM:  10    -0.413161726382E+03   -0.13144E-04   -0.21810E-06  2562   0.209E-03    0.250E-03
RMM:  11    -0.413161737900E+03   -0.11518E-04   -0.13633E-06  2511   0.163E-03    0.108E-03
RMM:  12    -0.413161746776E+03   -0.88763E-05   -0.96217E-07  2375   0.130E-03    0.554E-04
RMM:  13    -0.413161752269E+03   -0.54930E-05   -0.52210E-07  2005   0.991E-04    0.340E-04
RMM:  14    -0.413161755398E+03   -0.31288E-05   -0.27670E-07  1538   0.797E-04    0.223E-04
RMM:  15    -0.413161760648E+03   -0.52504E-05   -0.44872E-07  1789   0.870E-04    0.183E-04
RMM:  16    -0.413161762810E+03   -0.21619E-05   -0.19943E-07  1377   0.690E-04    0.132E-04
RMM:  17    -0.413161763300E+03   -0.49038E-06   -0.85809E-08  1047   0.576E-04
  140 T=    60. E= -.41286713E+03 F= -.41316176E+03 E0= -.41314106E+03  EK= 0.29464E+00 SP= 0.00E+00 SK= 0.00E+00
       N       E                     dE             d eps       ncg     rms          rms(c)
RMM:   1    -0.413157236618E+03    0.45262E-02   -0.91195E+00  4264   0.811E-01    0.826E-01
RMM:   2    -0.413163602617E+03   -0.63660E-02   -0.10086E-01  4297   0.964E-02    0.580E-01
RMM:   3    -0.413161982442E+03    0.16202E-02   -0.88480E-03  4757   0.415E-02    0.104E-01
RMM:   4    -0.413172857533E+03   -0.10875E-01   -0.11281E-02  5156   0.892E-02    0.438E-01
RMM:   5    -0.413161936111E+03    0.10921E-01   -0.55551E-03  4832   0.731E-02    0.412E-02
RMM:   6    -0.413161936831E+03   -0.71965E-06   -0.10309E-03  5646   0.313E-02    0.269E-02
RMM:   7    -0.413161964209E+03   -0.27378E-04   -0.19980E-04  5630   0.122E-02    0.119E-02
RMM:   8    -0.413161972063E+03   -0.78540E-05   -0.32012E-05  4821   0.610E-03    0.655E-03
RMM:   9    -0.413161975782E+03   -0.37195E-05   -0.33325E-06  2784   0.240E-03    0.359E-03
RMM:  10    -0.413161985432E+03   -0.96501E-05   -0.20006E-06  2555   0.198E-03    0.205E-03
RMM:  11    -0.413161992553E+03   -0.71202E-05   -0.11738E-06  2482   0.150E-03    0.925E-04
RMM:  12    -0.413161998070E+03   -0.55177E-05   -0.82333E-07  2243   0.118E-03    0.482E-04
RMM:  13    -0.413162002397E+03   -0.43263E-05   -0.59056E-07  1955   0.966E-04    0.282E-04
RMM:  14    -0.413162004538E+03   -0.21411E-05   -0.28752E-07  1444   0.773E-04    0.213E-04
RMM:  15    -0.413162007350E+03   -0.28124E-05   -0.39149E-07  1762   0.839E-04    0.140E-04
RMM:  16    -0.413162008746E+03   -0.13962E-05   -0.20179E-07  1313   0.679E-04    0.919E-05
RMM:  17    -0.413162009121E+03   -0.37422E-06   -0.83412E-08   996   0.570E-04
  141 T=    60. E= -.41286724E+03 F= -.41316201E+03 E0= -.41314132E+03  EK= 0.29476E+00 SP= 0.00E+00 SK= 0.00E+00
       N       E                     dE             d eps       ncg     rms          rms(c)
RMM:   1    -0.413155002893E+03    0.70059E-02   -0.94139E+00  4264   0.814E-01    0.826E-01
RMM:   2    -0.413162283258E+03   -0.72804E-02   -0.10386E-01  4297   0.943E-02    0.571E-01
RMM:   3    -0.413161068476E+03    0.12148E-02   -0.74759E-03  4652   0.367E-02    0.114E-01
RMM:   4    -0.413163309509E+03   -0.22410E-02   -0.28404E-03  5173   0.458E-02    0.201E-01
RMM:   5    -0.413161081014E+03    0.22285E-02   -0.12123E-03  4840   0.348E-02    0.356E-02
RMM:   6    -0.413161068110E+03    0.12903E-04   -0.32203E-04  5399   0.189E-02    0.236E-02
RMM:   7    -0.413161085352E+03   -0.17242E-04   -0.10865E-04  5256   0.934E-03    0.102E-02
RMM:   8    -0.413161087500E+03   -0.21482E-05   -0.16198E-05  4250   0.479E-03    0.525E-03
RMM:   9    -0.413161090638E+03   -0.31372E-05   -0.20376E-06  2575   0.196E-03    0.255E-03
RMM:  10    -0.413161098595E+03   -0.79579E-05   -0.19285E-06  2536   0.181E-03    0.121E-03
RMM:  11    -0.413161103141E+03   -0.45453E-05   -0.10481E-06  2407   0.136E-03    0.566E-04
RMM:  12    -0.413161106197E+03   -0.30561E-05   -0.59579E-07  1974   0.102E-03    0.369E-04
RMM:  13    -0.413161109354E+03   -0.31574E-05   -0.62674E-07  1908   0.938E-04    0.235E-04
RMM:  14    -0.413161110697E+03   -0.13428E-05   -0.30444E-07  1472   0.742E-04    0.190E-04
RMM:  15    -0.413161111743E+03   -0.10463E-05   -0.19980E-07  1241   0.677E-04    0.897E-05
RMM:  16    -0.413161112595E+03   -0.85175E-06   -0.17615E-07  1311   0.665E-04
  142 T=    60. E= -.41286700E+03 F= -.41316111E+03 E0= -.41314043E+03  EK= 0.29411E+00 SP= 0.00E+00 SK= 0.00E+00
       N       E                     dE             d eps       ncg     rms          rms(c)
RMM:   1    -0.413155056968E+03    0.60548E-02   -0.96347E+00  4264   0.834E-01    0.807E-01
RMM:   2    -0.413163374333E+03   -0.83174E-02   -0.11010E-01  4296   0.963E-02    0.576E-01
RMM:   3    -0.413162325057E+03    0.10493E-02   -0.63124E-03  4681   0.340E-02    0.116E-01
RMM:   4    -0.413162412074E+03   -0.87016E-04   -0.79605E-04  5065   0.235E-02    0.325E-02
RMM:   5    -0.413162382741E+03    0.29332E-04   -0.14161E-04  4872   0.136E-02    0.188E-02
RMM:   6    -0.413162489229E+03   -0.10649E-03   -0.11507E-04  5443   0.983E-03    0.398E-02
RMM:   7    -0.413162422838E+03    0.66391E-04   -0.65587E-05  4874   0.811E-03    0.109E-02
RMM:   8    -0.413162424996E+03   -0.21583E-05   -0.13564E-05  4215   0.474E-03    0.509E-03
RMM:   9    -0.413162428076E+03   -0.30794E-05   -0.30820E-06  2684   0.239E-03    0.243E-03
RMM:  10    -0.413162438260E+03   -0.10184E-04   -0.21456E-06  2526   0.211E-03    0.120E-03
RMM:  11    -0.413162447664E+03   -0.94043E-05   -0.17626E-06  2473   0.177E-03    0.570E-04
RMM:  12    -0.413162451484E+03   -0.38195E-05   -0.72387E-07  2329   0.123E-03    0.420E-04
RMM:  13    -0.413162455002E+03   -0.35183E-05   -0.50955E-07  1909   0.974E-04    0.337E-04
RMM:  14    -0.413162458650E+03   -0.36482E-05   -0.56012E-07  1821   0.905E-04    0.114E-04
RMM:  15    -0.413162459650E+03   -0.99934E-06   -0.16753E-07  1240   0.647E-04
  143 T=    60. E= -.41286727E+03 F= -.41316246E+03 E0= -.41314179E+03  EK= 0.29519E+00 SP= 0.00E+00 SK= 0.00E+00
       N       E                     dE             d eps       ncg     rms          rms(c)
RMM:   1    -0.413154788771E+03    0.76699E-02   -0.98518E+00  4264   0.836E-01    0.819E-01
RMM:   2    -0.413164045152E+03   -0.92564E-02   -0.11243E-01  4309   0.943E-02    0.579E-01
RMM:   3    -0.413162913182E+03    0.11320E-02   -0.57880E-03  4808   0.339E-02    0.131E-01
RMM:   4    -0.413168652661E+03   -0.57395E-02   -0.61912E-03  5180   0.678E-02    0.319E-01
RMM:   5    -0.413162925987E+03    0.57267E-02   -0.29218E-03  4837   0.531E-02    0.314E-02
RMM:   6    -0.413162906175E+03    0.19812E-04   -0.53976E-04  5595   0.231E-02    0.149E-02
RMM:   7    -0.413162932279E+03   -0.26103E-04   -0.83344E-05  5302   0.852E-03    0.839E-03
RMM:   8    -0.413162943224E+03   -0.10946E-04   -0.16962E-05  4089   0.452E-03    0.431E-03
RMM:   9    -0.413162950952E+03   -0.77275E-05   -0.21699E-06  2576   0.215E-03    0.214E-03
RMM:  10    -0.413162959769E+03   -0.88169E-05   -0.16072E-06  2539   0.169E-03    0.112E-03
RMM:  11    -0.413162967107E+03   -0.73386E-05   -0.13301E-06  2430   0.138E-03    0.489E-04
RMM:  12    -0.413162969723E+03   -0.26153E-05   -0.50237E-07  1938   0.946E-04    0.281E-04
RMM:  13    -0.413162972225E+03   -0.25024E-05   -0.45059E-07  1613   0.874E-04    0.169E-04
RMM:  14    -0.413162974040E+03   -0.18150E-05   -0.40933E-07  1721   0.841E-04    0.119E-04
RMM:  15    -0.413162974484E+03   -0.44416E-06   -0.14486E-07  1171   0.630E-04
  144 T=    60. E= -.41286717E+03 F= -.41316297E+03 E0= -.41314231E+03  EK= 0.29580E+00 SP= 0.00E+00 SK= 0.00E+00
       N       E                     dE             d eps       ncg     rms          rms(c)
RMM:   1    -0.413154152856E+03    0.88212E-02   -0.99010E+00  4264   0.839E-01    0.830E-01
RMM:   2    -0.413162553298E+03   -0.84004E-02   -0.11278E-01  4303   0.980E-02    0.571E-01
RMM:   3    -0.413162265399E+03    0.28790E-03   -0.59299E-03  4908   0.361E-02    0.144E-01
RMM:   4    -0.413176239303E+03   -0.13974E-01   -0.14274E-02  5162   0.101E-01    0.496E-01
RMM:   5    -0.413162149634E+03    0.14090E-01   -0.71008E-03  4830   0.822E-02    0.378E-02
RMM:   6    -0.413162147765E+03    0.18691E-05   -0.12173E-03  5708   0.328E-02    0.148E-02
RMM:   7    -0.413162167553E+03   -0.19787E-04   -0.15061E-04  5561   0.105E-02    0.947E-03
RMM:   8    -0.413162173494E+03   -0.59409E-05   -0.19156E-05  3878   0.437E-03    0.555E-03
RMM:   9    -0.413162178555E+03   -0.50613E-05   -0.36528E-06  2631   0.259E-03    0.237E-03
RMM:  10    -0.413162182430E+03   -0.38757E-05   -0.19058E-06  2554   0.181E-03    0.121E-03
RMM:  11    -0.413162184903E+03   -0.24722E-05   -0.12400E-06  2480   0.142E-03    0.584E-04
RMM:  12    -0.413162185944E+03   -0.10418E-05   -0.67858E-07  2063   0.106E-03    0.274E-04
RMM:  13    -0.413162186200E+03   -0.25538E-06   -0.44411E-07  1755   0.904E-04
  145 T=    60. E= -.41286692E+03 F= -.41316219E+03 E0= -.41314153E+03  EK= 0.29526E+00 SP= 0.00E+00 SK= 0.00E+00
       N       E                     dE             d eps       ncg     rms          rms(c)
RMM:   1    -0.413154608697E+03    0.75772E-02   -0.97848E+00  4267   0.838E-01    0.805E-01
RMM:   2    -0.413163874882E+03   -0.92662E-02   -0.11455E-01  4305   0.955E-02    0.574E-01
RMM:   3    -0.413163448498E+03    0.42638E-03   -0.55272E-03  4988   0.378E-02    0.148E-01
RMM:   4    -0.413187316655E+03   -0.23868E-01   -0.24605E-02  5152   0.131E-01    0.644E-01
RMM:   5    -0.413163183886E+03    0.24133E-01   -0.12058E-02  4822   0.107E-01    0.440E-02
RMM:   6    -0.413163212602E+03   -0.28716E-04   -0.19770E-03  5708   0.417E-02    0.128E-02
RMM:   7    -0.413163244152E+03   -0.31550E-04   -0.23872E-04  5770   0.125E-02    0.991E-03
RMM:   8    -0.413163254156E+03   -0.10004E-04   -0.28059E-05  4117   0.488E-03    0.621E-03
RMM:   9    -0.413163263696E+03   -0.95401E-05   -0.49959E-06  2766   0.276E-03    0.285E-03
RMM:  10    -0.413163271096E+03   -0.74005E-05   -0.22716E-06  2567   0.192E-03    0.145E-03
RMM:  11    -0.413163276214E+03   -0.51179E-05   -0.13240E-06  2484   0.145E-03    0.743E-04
RMM:  12    -0.413163279376E+03   -0.31613E-05   -0.87488E-07  2214   0.116E-03    0.303E-04
RMM:  13    -0.413163280640E+03   -0.12641E-05   -0.46035E-07  1759   0.914E-04    0.216E-04
RMM:  14    -0.413163281510E+03   -0.87003E-06   -0.58663E-07  1956   0.954E-04
  146 T=    60. E= -.41286722E+03 F= -.41316328E+03 E0= -.41314263E+03  EK= 0.29606E+00 SP= 0.00E+00 SK= 0.00E+00
       N       E                     dE             d eps       ncg     rms          rms(c)
RMM:   1    -0.413155730961E+03    0.75497E-02   -0.97087E+00  4264   0.836E-01    0.808E-01
RMM:   2    -0.413165195622E+03   -0.94647E-02   -0.11514E-01  4302   0.991E-02    0.584E-01
RMM:   3    -0.413164289332E+03    0.90629E-03   -0.59742E-03  4974   0.432E-02    0.151E-01
RMM:   4    -0.413194760344E+03   -0.30471E-01   -0.32017E-02  5148   0.149E-01    0.726E-01
RMM:   5    -0.413163787608E+03    0.30973E-01   -0.15353E-02  4824   0.121E-01    0.493E-02
RMM:   6    -0.413163836841E+03   -0.49232E-04   -0.25015E-03  5695   0.471E-02    0.151E-02
RMM:   7    -0.413163872103E+03   -0.35262E-04   -0.30442E-04  5877   0.140E-02    0.112E-02
RMM:   8    -0.413163884088E+03   -0.11985E-04   -0.39323E-05  4719   0.591E-03    0.663E-03
RMM:   9    -0.413163892302E+03   -0.82142E-05   -0.73313E-06  3011   0.312E-03    0.307E-03
RMM:  10    -0.413163898970E+03   -0.66680E-05   -0.25201E-06  2581   0.204E-03    0.179E-03
RMM:  11    -0.413163904621E+03   -0.56511E-05   -0.14422E-06  2513   0.155E-03    0.103E-03
RMM:  12    -0.413163908374E+03   -0.37523E-05   -0.10695E-06  2357   0.127E-03    0.379E-04
RMM:  13    -0.413163909430E+03   -0.10559E-05   -0.44432E-07  1777   0.905E-04    0.258E-04
RMM:  14    -0.413163910265E+03   -0.83524E-06   -0.59635E-07  1910   0.965E-04
  147 T=    60. E= -.41286684E+03 F= -.41316391E+03 E0= -.41314327E+03  EK= 0.29707E+00 SP= 0.00E+00 SK= 0.00E+00
       N       E                     dE             d eps       ncg     rms          rms(c)
RMM:   1    -0.413156921578E+03    0.69879E-02   -0.94752E+00  4269   0.830E-01    0.825E-01
RMM:   2    -0.413165058386E+03   -0.81368E-02   -0.11154E-01  4297   0.981E-02    0.579E-01
RMM:   3    -0.413164369512E+03    0.68887E-03   -0.69192E-03  5026   0.428E-02    0.157E-01
RMM:   4    -0.413196114153E+03   -0.31745E-01   -0.33779E-02  5143   0.153E-01    0.742E-01
RMM:   5    -0.413163833424E+03    0.32281E-01   -0.15945E-02  4820   0.124E-01    0.540E-02
RMM:   6    -0.413163876386E+03   -0.42963E-04   -0.26218E-03  5673   0.486E-02    0.209E-02
RMM:   7    -0.413163905889E+03   -0.29502E-04   -0.34181E-04  5971   0.149E-02    0.133E-02
RMM:   8    -0.413163911316E+03   -0.54271E-05   -0.50735E-05  5239   0.708E-03    0.748E-03
RMM:   9    -0.413163911703E+03   -0.38660E-06   -0.94156E-06  3333   0.347E-03
  148 T=    60. E= -.41286707E+03 F= -.41316391E+03 E0= -.41314328E+03  EK= 0.29684E+00 SP= 0.00E+00 SK= 0.00E+00
       N       E                     dE             d eps       ncg     rms          rms(c)
RMM:   1    -0.413157899812E+03    0.60115E-02   -0.90805E+00  4266   0.818E-01    0.804E-01
RMM:   2    -0.413165772422E+03   -0.78726E-02   -0.10884E-01  4309   0.957E-02    0.579E-01
RMM:   3    -0.413166024916E+03   -0.25249E-03   -0.88457E-03  5107   0.573E-02    0.215E-01
RMM:   4    -0.413196445431E+03   -0.30421E-01   -0.39566E-02  5111   0.166E-01    0.743E-01
RMM:   5    -0.413164151662E+03    0.32294E-01   -0.15060E-02  4800   0.125E-01    0.643E-02
RMM:   6    -0.413164083554E+03    0.68108E-04   -0.24539E-03  5507   0.486E-02    0.237E-02
RMM:   7    -0.413164122342E+03   -0.38788E-04   -0.41394E-04  6078   0.176E-02    0.158E-02
RMM:   8    -0.413164128807E+03   -0.64652E-05   -0.71603E-05  5495   0.877E-03    0.845E-03
RMM:   9    -0.413164130606E+03   -0.17987E-05   -0.13365E-05  3888   0.425E-03    0.378E-03
RMM:  10    -0.413164132780E+03   -0.21739E-05   -0.23118E-06  2580   0.218E-03    0.239E-03
RMM:  11    -0.413164135093E+03   -0.23130E-05   -0.20988E-06  2559   0.206E-03    0.156E-03
RMM:  12    -0.413164134875E+03    0.21803E-06   -0.12738E-06  2527   0.157E-03
  149 T=    60. E= -.41286697E+03 F= -.41316413E+03 E0= -.41314350E+03  EK= 0.29717E+00 SP= 0.00E+00 SK= 0.00E+00
       N       E                     dE             d eps       ncg     rms          rms(c)
RMM:   1    -0.413160365751E+03    0.37693E-02   -0.87569E+00  4268   0.806E-01    0.802E-01
RMM:   2    -0.413167835521E+03   -0.74698E-02   -0.10680E-01  4306   0.943E-02    0.592E-01
RMM:   3    -0.413166324282E+03    0.15112E-02   -0.99413E-03  5078   0.509E-02    0.160E-01
RMM:   4    -0.413201624877E+03   -0.35301E-01   -0.40747E-02  5124   0.168E-01    0.785E-01
RMM:   5    -0.413165221480E+03    0.36403E-01   -0.17434E-02  4812   0.131E-01    0.604E-02
RMM:   6    -0.413165246665E+03   -0.25186E-04   -0.28271E-03  5631   0.513E-02    0.253E-02
RMM:   7    -0.413165287398E+03   -0.40733E-04   -0.41519E-04  6068   0.167E-02    0.156E-02
RMM:   8    -0.413165297530E+03   -0.10132E-04   -0.71706E-05  5442   0.876E-03    0.869E-03
RMM:   9    -0.413165299842E+03   -0.23119E-05   -0.12106E-05  3658   0.402E-03    0.364E-03
RMM:  10    -0.413165303760E+03   -0.39176E-05   -0.32568E-06  2677   0.242E-03    0.247E-03
RMM:  11    -0.413165307784E+03   -0.40238E-05   -0.19847E-06  2538   0.203E-03    0.155E-03
RMM:  12    -0.413165309147E+03   -0.13632E-05   -0.11491E-06  2520   0.153E-03    0.608E-04
RMM:  13    -0.413165309087E+03    0.60136E-07   -0.46962E-07  2090   0.102E-03
  150 T=    61. E= -.41286690E+03 F= -.41316531E+03 E0= -.41314468E+03  EK= 0.29841E+00 SP= 0.00E+00 SK= 0.00E+00
