       N       E                     dE             d eps       ncg     rms          rms(c)
RMM:   1     0.220124434227E+04    0.22012E+04   -0.52438E+04  2132   0.654E+02
RMM:   2     0.705374212376E+03   -0.14959E+04   -0.16260E+04  2132   0.177E+02
RMM:   3     0.137543547801E+03   -0.56783E+03   -0.65741E+03  2132   0.117E+02
RMM:   4    -0.159310068974E+03   -0.29685E+03   -0.27841E+03  2132   0.936E+01
RMM:   5    -0.287527947482E+03   -0.12822E+03   -0.11440E+03  2132   0.595E+01
RMM:   6    -0.349851401160E+03   -0.62323E+02   -0.55125E+02  2132   0.423E+01
RMM:   7    -0.382731992114E+03   -0.32881E+02   -0.30401E+02  2132   0.293E+01
RMM:   8    -0.404203684905E+03   -0.21472E+02   -0.18445E+02  2132   0.233E+01
RMM:   9    -0.436078530085E+03   -0.31875E+02   -0.30772E+02  6110   0.173E+01
RMM:  10    -0.441331302848E+03   -0.52528E+01   -0.62899E+01  6386   0.538E+00
RMM:  11    -0.442490297098E+03   -0.11590E+01   -0.10943E+01  6202   0.172E+00
RMM:  12    -0.442859481118E+03   -0.36918E+00   -0.25373E+00  6362   0.594E-01    0.134E+02
RMM:  13    -0.425559014659E+03    0.17300E+02   -0.80981E+01  4674   0.119E+01    0.712E+01
RMM:  14    -0.498970463756E+03   -0.73411E+02   -0.53709E+02  5420   0.232E+01    0.306E+01
RMM:  15    -0.415409498033E+03    0.83561E+02   -0.19756E+02  5071   0.163E+01    0.666E+00
RMM:  16    -0.414033122112E+03    0.13764E+01   -0.39054E+01  6075   0.607E+00    0.427E+00
RMM:  17    -0.413218041289E+03    0.81508E+00   -0.24629E+00  5371   0.185E+00    0.246E+00
RMM:  18    -0.413169564479E+03    0.48477E-01   -0.84411E-01  5979   0.936E-01    0.164E+00
RMM:  19    -0.413168152773E+03    0.14117E-02   -0.27880E-01  5695   0.562E-01    0.867E-01
RMM:  20    -0.413185741329E+03   -0.17589E-01   -0.24185E-01  5481   0.526E-01    0.582E-01
RMM:  21    -0.413167300106E+03    0.18441E-01   -0.33181E-02  4997   0.233E-01    0.269E-01
RMM:  22    -0.413165152440E+03    0.21477E-02   -0.16616E-02  6011   0.116E-01    0.143E-01
RMM:  23    -0.413163994305E+03    0.11581E-02   -0.60709E-03  5968   0.724E-02    0.868E-02
RMM:  24    -0.413162861942E+03    0.11324E-02   -0.15265E-03  5276   0.409E-02    0.434E-02
RMM:  25    -0.413162548174E+03    0.31377E-03   -0.77685E-04  5357   0.263E-02    0.344E-02
RMM:  26    -0.413162746397E+03   -0.19822E-03   -0.78214E-04  5797   0.290E-02    0.316E-02
RMM:  27    -0.413163197804E+03   -0.45141E-03   -0.16969E-04  4526   0.191E-02    0.189E-02
RMM:  28    -0.413163679791E+03   -0.48199E-03   -0.17028E-04  5157   0.189E-02    0.911E-03
RMM:  29    -0.413164087288E+03   -0.40750E-03   -0.11053E-04  4444   0.158E-02    0.421E-03
RMM:  30    -0.413164314536E+03   -0.22725E-03   -0.80166E-05  4217   0.103E-02    0.338E-03
RMM:  31    -0.413164416978E+03   -0.10244E-03   -0.43743E-05  3170   0.591E-03    0.305E-03
RMM:  32    -0.413164441633E+03   -0.24655E-04   -0.17550E-05  2936   0.286E-03    0.172E-03
RMM:  33    -0.413164452038E+03   -0.10405E-04   -0.75036E-06  2779   0.216E-03    0.539E-04
RMM:  34    -0.413164454862E+03   -0.28239E-05   -0.42298E-06  2648   0.162E-03    0.747E-04
RMM:  35    -0.413164455481E+03   -0.61913E-06   -0.44882E-06  2275   0.119E-03
    1 T=    61. E= -.41286666E+03 F= -.41316446E+03 E0= -.41314196E+03  EK= 0.29780E+00 SP= 0.00E+00 SK= 0.00E+00
       N       E                     dE             d eps       ncg     rms          rms(c)
RMM:   1    -0.413154983686E+03    0.94712E-02   -0.11046E+01  3996   0.695E-01    0.886E-01
RMM:   2    -0.413165740364E+03   -0.10757E-01   -0.13599E-01  3998   0.999E-02    0.641E-01
RMM:   3    -0.413164135853E+03    0.16045E-02   -0.66656E-03  4644   0.362E-02    0.148E-01
RMM:   4    -0.413178177194E+03   -0.14041E-01   -0.14746E-02  5215   0.101E-01    0.497E-01
RMM:   5    -0.413163895449E+03    0.14282E-01   -0.71247E-03  4863   0.830E-02    0.280E-02
RMM:   6    -0.413163980558E+03   -0.85109E-04   -0.11396E-03  5818   0.325E-02    0.170E-02
RMM:   7    -0.413163993198E+03   -0.12640E-04   -0.15687E-04  5678   0.108E-02    0.113E-02
RMM:   8    -0.413164000479E+03   -0.72810E-05   -0.19947E-05  3917   0.450E-03    0.529E-03
RMM:   9    -0.413164006595E+03   -0.61153E-05   -0.42604E-06  2797   0.246E-03    0.368E-03
RMM:  10    -0.413164012527E+03   -0.59327E-05   -0.12741E-06  2524   0.161E-03    0.233E-03
RMM:  11    -0.413164020418E+03   -0.78907E-05   -0.12216E-06  2528   0.150E-03    0.884E-04
RMM:  12    -0.413164024594E+03   -0.41757E-05   -0.66225E-07  2254   0.111E-03    0.349E-04
RMM:  13    -0.413164025512E+03   -0.91828E-06   -0.33324E-07  1626   0.800E-04
    2 T=    61. E= -.41286637E+03 F= -.41316403E+03 E0= -.41314153E+03  EK= 0.29766E+00 SP= 0.00E+00 SK= 0.00E+00
       N       E                     dE             d eps       ncg     rms          rms(c)
RMM:   1    -0.413156863560E+03    0.71610E-02   -0.11084E+01  4201   0.710E-01    0.911E-01
RMM:   2    -0.413165726795E+03   -0.88632E-02   -0.13288E-01  4062   0.980E-02    0.634E-01
RMM:   3    -0.413164871994E+03    0.85480E-03   -0.71427E-03  4843   0.384E-02    0.162E-01
RMM:   4    -0.413190646759E+03   -0.25775E-01   -0.26124E-02  5189   0.135E-01    0.669E-01
RMM:   5    -0.413164538971E+03    0.26108E-01   -0.12777E-02  4831   0.112E-01    0.365E-02
RMM:   6    -0.413164699751E+03   -0.16078E-03   -0.20525E-03  5819   0.440E-02    0.205E-02
RMM:   7    -0.413164709839E+03   -0.10088E-04   -0.26030E-04  5889   0.137E-02    0.142E-02
RMM:   8    -0.413164710274E+03   -0.43566E-06   -0.36297E-05  4635   0.568E-03    0.779E-03
RMM:   9    -0.413164709725E+03    0.54973E-06   -0.71470E-06  3161   0.302E-03
    3 T=    61. E= -.41286688E+03 F= -.41316471E+03 E0= -.41314221E+03  EK= 0.29783E+00 SP= 0.00E+00 SK= 0.00E+00
       N       E                     dE             d eps       ncg     rms          rms(c)
RMM:   1    -0.413155753934E+03    0.89563E-02   -0.10987E+01  4228   0.702E-01    0.894E-01
RMM:   2    -0.413165726793E+03   -0.99729E-02   -0.13209E-01  4245   0.981E-02    0.628E-01
RMM:   3    -0.413169510606E+03   -0.37838E-02   -0.10843E-02  5186   0.743E-02    0.337E-01
RMM:   4    -0.413188138388E+03   -0.18628E-01   -0.37071E-02  5127   0.164E-01    0.643E-01
RMM:   5    -0.413164426700E+03    0.23712E-01   -0.94521E-03  4711   0.107E-01    0.535E-02
RMM:   6    -0.413164424911E+03    0.17884E-05   -0.16376E-03  5501   0.406E-02    0.192E-02
RMM:   7    -0.413164443853E+03   -0.18942E-04   -0.25840E-04  6012   0.146E-02    0.129E-02
RMM:   8    -0.413164446215E+03   -0.23612E-05   -0.37649E-05  5006   0.615E-03    0.694E-03
RMM:   9    -0.413164447510E+03   -0.12955E-05   -0.86080E-06  3405   0.380E-03    0.362E-03
RMM:  10    -0.413164448887E+03   -0.13771E-05   -0.14585E-06  2537   0.200E-03    0.217E-03
RMM:  11    -0.413164451053E+03   -0.21654E-05   -0.12102E-06  2544   0.170E-03    0.126E-03
RMM:  12    -0.413164452056E+03   -0.10031E-05   -0.54573E-07  2351   0.118E-03    0.467E-04
RMM:  13    -0.413164453014E+03   -0.95804E-06   -0.36374E-07  1688   0.867E-04
    4 T=    61. E= -.41286668E+03 F= -.41316445E+03 E0= -.41314197E+03  EK= 0.29778E+00 SP= 0.00E+00 SK= 0.00E+00
       N       E                     dE             d eps       ncg     rms          rms(c)
RMM:   1    -0.413155535466E+03    0.89166E-02   -0.11027E+01  4235   0.706E-01    0.884E-01
RMM:   2    -0.413166090362E+03   -0.10555E-01   -0.13610E-01  3980   0.943E-02    0.640E-01
RMM:   3    -0.413164888784E+03    0.12016E-02   -0.67585E-03  4949   0.378E-02    0.160E-01
RMM:   4    -0.413196399927E+03   -0.31511E-01   -0.32310E-02  5168   0.150E-01    0.740E-01
RMM:   5    -0.413164346566E+03    0.32053E-01   -0.15549E-02  4813   0.124E-01    0.383E-02
RMM:   6    -0.413164542508E+03   -0.19594E-03   -0.25188E-03  5789   0.484E-02    0.192E-02
RMM:   7    -0.413164562006E+03   -0.19497E-04   -0.30565E-04  5907   0.144E-02    0.142E-02
RMM:   8    -0.413164567195E+03   -0.51888E-05   -0.40805E-05  4697   0.587E-03    0.812E-03
RMM:   9    -0.413164571286E+03   -0.40918E-05   -0.80450E-06  3218   0.315E-03    0.541E-03
RMM:  10    -0.413164576859E+03   -0.55728E-05   -0.19596E-06  2559   0.201E-03    0.314E-03
RMM:  11    -0.413164582826E+03   -0.59674E-05   -0.15184E-06  2553   0.180E-03    0.154E-03
RMM:  12    -0.413164586995E+03   -0.41687E-05   -0.88296E-07  2467   0.142E-03    0.473E-04
RMM:  13    -0.413164587875E+03   -0.87969E-06   -0.33568E-07  2035   0.952E-04
    5 T=    61. E= -.41286665E+03 F= -.41316459E+03 E0= -.41314211E+03  EK= 0.29794E+00 SP= 0.00E+00 SK= 0.00E+00
       N       E                     dE             d eps       ncg     rms          rms(c)
RMM:   1    -0.413156429119E+03    0.81579E-02   -0.11079E+01  4250   0.713E-01    0.906E-01
RMM:   2    -0.413166319068E+03   -0.98899E-02   -0.13333E-01  4106   0.972E-02    0.636E-01
RMM:   3    -0.413165362983E+03    0.95608E-03   -0.69768E-03  4817   0.386E-02    0.162E-01
RMM:   4    -0.413192244782E+03   -0.26882E-01   -0.27155E-02  5163   0.138E-01    0.684E-01
RMM:   5    -0.413164962948E+03    0.27282E-01   -0.13293E-02  4820   0.114E-01    0.365E-02
RMM:   6    -0.413165127482E+03   -0.16453E-03   -0.21289E-03  5797   0.445E-02    0.202E-02
RMM:   7    -0.413165136737E+03   -0.92555E-05   -0.26097E-04  5882   0.137E-02    0.142E-02
RMM:   8    -0.413165137085E+03   -0.34758E-06   -0.36745E-05  4652   0.574E-03    0.794E-03
RMM:   9    -0.413165136375E+03    0.70984E-06   -0.72268E-06  3160   0.308E-03
    6 T=    61. E= -.41286683E+03 F= -.41316514E+03 E0= -.41314267E+03  EK= 0.29831E+00 SP= 0.00E+00 SK= 0.00E+00
       N       E                     dE             d eps       ncg     rms          rms(c)
RMM:   1    -0.413156363780E+03    0.87733E-02   -0.11027E+01  4271   0.725E-01    0.901E-01
RMM:   2    -0.413165752378E+03   -0.93886E-02   -0.13291E-01  4286   0.101E-01    0.629E-01
RMM:   3    -0.413169725064E+03   -0.39727E-02   -0.10968E-02  5159   0.738E-02    0.336E-01
RMM:   4    -0.413188379823E+03   -0.18655E-01   -0.36741E-02  5106   0.163E-01    0.642E-01
RMM:   5    -0.413164731077E+03    0.23649E-01   -0.94111E-03  4706   0.107E-01    0.531E-02
RMM:   6    -0.413164733424E+03   -0.23469E-05   -0.16467E-03  5492   0.405E-02    0.193E-02
RMM:   7    -0.413164750930E+03   -0.17506E-04   -0.25219E-04  6015   0.145E-02    0.130E-02
RMM:   8    -0.413164751641E+03   -0.71079E-06   -0.36950E-05  4984   0.615E-03    0.692E-03
RMM:   9    -0.413164749763E+03    0.18778E-05   -0.82647E-06  3328   0.375E-03    0.359E-03
RMM:  10    -0.413164749842E+03   -0.78595E-07   -0.14318E-06  2536   0.199E-03
    7 T=    61. E= -.41286631E+03 F= -.41316475E+03 E0= -.41314230E+03  EK= 0.29844E+00 SP= 0.00E+00 SK= 0.00E+00
       N       E                     dE             d eps       ncg     rms          rms(c)
RMM:   1    -0.413156245536E+03    0.85042E-02   -0.11025E+01  4265   0.720E-01    0.883E-01
RMM:   2    -0.413166929405E+03   -0.10684E-01   -0.13547E-01  4149   0.954E-02    0.637E-01
RMM:   3    -0.413165747611E+03    0.11818E-02   -0.67843E-03  4966   0.389E-02    0.165E-01
RMM:   4    -0.413200000244E+03   -0.34253E-01   -0.35180E-02  5155   0.156E-01    0.769E-01
RMM:   5    -0.413165220773E+03    0.34779E-01   -0.16926E-02  4815   0.128E-01    0.402E-02
RMM:   6    -0.413165408588E+03   -0.18782E-03   -0.25897E-03  5766   0.501E-02    0.191E-02
RMM:   7    -0.413165428675E+03   -0.20087E-04   -0.32516E-04  5922   0.148E-02    0.140E-02
RMM:   8    -0.413165433403E+03   -0.47284E-05   -0.40184E-05  4593   0.580E-03    0.756E-03
RMM:   9    -0.413165436754E+03   -0.33511E-05   -0.80987E-06  3197   0.308E-03    0.496E-03
RMM:  10    -0.413165440972E+03   -0.42176E-05   -0.20070E-06  2556   0.199E-03    0.286E-03
RMM:  11    -0.413165445264E+03   -0.42924E-05   -0.14080E-06  2545   0.172E-03    0.133E-03
RMM:  12    -0.413165447948E+03   -0.26832E-05   -0.81843E-07  2451   0.135E-03    0.399E-04
RMM:  13    -0.413165448611E+03   -0.66372E-06   -0.32983E-07  1965   0.922E-04
    8 T=    61. E= -.41286665E+03 F= -.41316545E+03 E0= -.41314302E+03  EK= 0.29880E+00 SP= 0.00E+00 SK= 0.00E+00
       N       E                     dE             d eps       ncg     rms          rms(c)
RMM:   1    -0.413156737052E+03    0.87109E-02   -0.11088E+01  4285   0.725E-01    0.900E-01
RMM:   2    -0.413166804970E+03   -0.10068E-01   -0.13465E-01  4196   0.101E-01    0.639E-01
RMM:   3    -0.413165768183E+03    0.10368E-02   -0.69064E-03  4794   0.381E-02    0.159E-01
RMM:   4    -0.413190894356E+03   -0.25126E-01   -0.25485E-02  5152   0.133E-01    0.662E-01
RMM:   5    -0.413165344531E+03    0.25550E-01   -0.12600E-02  4820   0.110E-01    0.344E-02
RMM:   6    -0.413165493951E+03   -0.14942E-03   -0.19020E-03  5803   0.428E-02    0.193E-02
RMM:   7    -0.413165503520E+03   -0.95686E-05   -0.24089E-04  5846   0.133E-02    0.136E-02
RMM:   8    -0.413165504750E+03   -0.12302E-05   -0.34228E-05  4595   0.562E-03    0.761E-03
RMM:   9    -0.413165504505E+03    0.24468E-06   -0.68505E-06  3124   0.304E-03
    9 T=    61. E= -.41286656E+03 F= -.41316550E+03 E0= -.41314310E+03  EK= 0.29894E+00 SP= 0.00E+00 SK= 0.00E+00
       N       E                     dE             d eps       ncg     rms          rms(c)
RMM:   1    -0.413157225915E+03    0.82788E-02   -0.11070E+01  4296   0.732E-01    0.909E-01
RMM:   2    -0.413166520933E+03   -0.92950E-02   -0.13279E-01  4293   0.990E-02    0.630E-01
RMM:   3    -0.413170437516E+03   -0.39166E-02   -0.11007E-02  5154   0.736E-02    0.332E-01
RMM:   4    -0.413189358937E+03   -0.18921E-01   -0.36696E-02  5099   0.163E-01    0.645E-01
RMM:   5    -0.413165647741E+03    0.23711E-01   -0.94888E-03  4709   0.107E-01    0.526E-02
RMM:   6    -0.413165658379E+03   -0.10638E-04   -0.16668E-03  5518   0.402E-02    0.197E-02
RMM:   7    -0.413165673136E+03   -0.14757E-04   -0.25294E-04  6012   0.143E-02    0.132E-02
RMM:   8    -0.413165671994E+03    0.11416E-05   -0.37485E-05  5001   0.614E-03    0.695E-03
RMM:   9    -0.413165667492E+03    0.45024E-05   -0.78330E-06  3190   0.363E-03    0.352E-03
RMM:  10    -0.413165666604E+03    0.88787E-06   -0.14349E-06  2535   0.197E-03
   10 T=    61. E= -.41286654E+03 F= -.41316567E+03 E0= -.41314328E+03  EK= 0.29913E+00 SP= 0.00E+00 SK= 0.00E+00
       N       E                     dE             d eps       ncg     rms          rms(c)
RMM:   1    -0.413157339299E+03    0.83282E-02   -0.11016E+01  4297   0.730E-01    0.884E-01
RMM:   2    -0.413167939647E+03   -0.10600E-01   -0.13435E-01  4224   0.970E-02    0.634E-01
RMM:   3    -0.413166917576E+03    0.10221E-02   -0.67834E-03  4964   0.414E-02    0.171E-01
RMM:   4    -0.413203890128E+03   -0.36973E-01   -0.38390E-02  5147   0.162E-01    0.800E-01
RMM:   5    -0.413166187365E+03    0.37703E-01   -0.18413E-02  4806   0.134E-01    0.421E-02
RMM:   6    -0.413166387937E+03   -0.20057E-03   -0.28437E-03  5763   0.521E-02    0.199E-02
RMM:   7    -0.413166406092E+03   -0.18156E-04   -0.35435E-04  5941   0.154E-02    0.147E-02
RMM:   8    -0.413166408066E+03   -0.19738E-05   -0.43892E-05  4712   0.603E-03    0.805E-03
RMM:   9    -0.413166408585E+03   -0.51843E-06   -0.89097E-06  3259   0.320E-03
   11 T=    61. E= -.41286685E+03 F= -.41316641E+03 E0= -.41314405E+03  EK= 0.29956E+00 SP= 0.00E+00 SK= 0.00E+00
       N       E                     dE             d eps       ncg     rms          rms(c)
RMM:   1    -0.413157421996E+03    0.89861E-02   -0.11096E+01  4302   0.738E-01    0.895E-01
RMM:   2    -0.413167683556E+03   -0.10262E-01   -0.13594E-01  4286   0.977E-02    0.642E-01
RMM:   3    -0.413170862024E+03   -0.31785E-02   -0.10468E-02  5153   0.715E-02    0.323E-01
RMM:   4    -0.413194931643E+03   -0.24070E-01   -0.42132E-02  5100   0.173E-01    0.704E-01
RMM:   5    -0.413166203533E+03    0.28728E-01   -0.11732E-02  4714   0.116E-01    0.542E-02
RMM:   6    -0.413166242000E+03   -0.38467E-04   -0.20432E-03  5548   0.443E-02    0.179E-02
RMM:   7    -0.413166264424E+03   -0.22424E-04   -0.28787E-04  6033   0.151E-02    0.128E-02
RMM:   8    -0.413166267512E+03   -0.30878E-05   -0.41696E-05  5036   0.628E-03    0.703E-03
RMM:   9    -0.413166268874E+03   -0.13620E-05   -0.84974E-06  3228   0.371E-03    0.366E-03
RMM:  10    -0.413166270310E+03   -0.14361E-05   -0.17222E-06  2552   0.204E-03    0.216E-03
RMM:  11    -0.413166272147E+03   -0.18367E-05   -0.13058E-06  2552   0.171E-03    0.131E-03
RMM:  12    -0.413166272761E+03   -0.61403E-06   -0.56815E-07  2368   0.119E-03
   12 T=    61. E= -.41286646E+03 F= -.41316627E+03 E0= -.41314394E+03  EK= 0.29981E+00 SP= 0.00E+00 SK= 0.00E+00
       N       E                     dE             d eps       ncg     rms          rms(c)
RMM:   1    -0.413158473433E+03    0.77987E-02   -0.11116E+01  4297   0.746E-01    0.914E-01
RMM:   2    -0.413167832332E+03   -0.93589E-02   -0.13296E-01  4225   0.953E-02    0.632E-01
RMM:   3    -0.413167426662E+03    0.40567E-03   -0.73649E-03  5020   0.399E-02    0.180E-01
RMM:   4    -0.413206079985E+03   -0.38653E-01   -0.40477E-02  5150   0.167E-01    0.817E-01
RMM:   5    -0.413166714553E+03    0.39365E-01   -0.19132E-02  4797   0.137E-01    0.441E-02
RMM:   6    -0.413166917742E+03   -0.20319E-03   -0.29871E-03  5768   0.532E-02    0.222E-02
RMM:   7    -0.413166929892E+03   -0.12149E-04   -0.37238E-04  5937   0.160E-02    0.161E-02
RMM:   8    -0.413166926888E+03    0.30034E-05   -0.50042E-05  4926   0.649E-03    0.923E-03
RMM:   9    -0.413166921445E+03    0.54436E-05   -0.93838E-06  3326   0.333E-03    0.582E-03
RMM:  10    -0.413166917667E+03    0.37773E-05   -0.22073E-06  2562   0.212E-03    0.328E-03
RMM:  11    -0.413166914226E+03    0.34414E-05   -0.15571E-06  2539   0.187E-03    0.152E-03
RMM:  12    -0.413166911248E+03    0.29778E-05   -0.87075E-07  2461   0.147E-03    0.457E-04
RMM:  13    -0.413166910500E+03    0.74810E-06   -0.35157E-07  2108   0.996E-04
   13 T=    61. E= -.41286655E+03 F= -.41316691E+03 E0= -.41314461E+03  EK= 0.30036E+00 SP= 0.00E+00 SK= 0.00E+00
       N       E                     dE             d eps       ncg     rms          rms(c)
RMM:   1    -0.413158484034E+03    0.84272E-02   -0.11034E+01  4293   0.742E-01    0.888E-01
RMM:   2    -0.413168704329E+03   -0.10220E-01   -0.13467E-01  4245   0.955E-02    0.633E-01
RMM:   3    -0.413167810422E+03    0.89391E-03   -0.67725E-03  4911   0.378E-02    0.165E-01
RMM:   4    -0.413198495278E+03   -0.30685E-01   -0.31496E-02  5143   0.148E-01    0.730E-01
RMM:   5    -0.413167250400E+03    0.31245E-01   -0.15346E-02  4799   0.122E-01    0.374E-02
RMM:   6    -0.413167430057E+03   -0.17966E-03   -0.23841E-03  5790   0.475E-02    0.201E-02
RMM:   7    -0.413167440476E+03   -0.10419E-04   -0.28878E-04  5879   0.144E-02    0.144E-02
RMM:   8    -0.413167439978E+03    0.49790E-06   -0.41536E-05  4739   0.602E-03    0.845E-03
RMM:   9    -0.413167437571E+03    0.24069E-05   -0.82102E-06  3250   0.324E-03    0.564E-03
RMM:  10    -0.413167437031E+03    0.54048E-06   -0.18837E-06  2551   0.202E-03
   14 T=    61. E= -.41286649E+03 F= -.41316744E+03 E0= -.41314517E+03  EK= 0.30095E+00 SP= 0.00E+00 SK= 0.00E+00
       N       E                     dE             d eps       ncg     rms          rms(c)
RMM:   1    -0.413158500488E+03    0.89371E-02   -0.11127E+01  4308   0.753E-01    0.892E-01
RMM:   2    -0.413169399623E+03   -0.10899E-01   -0.13721E-01  4286   0.990E-02    0.644E-01
RMM:   3    -0.413170698058E+03   -0.12984E-02   -0.91513E-03  5120   0.632E-02    0.279E-01
RMM:   4    -0.413204328896E+03   -0.33631E-01   -0.47445E-02  5113   0.182E-01    0.792E-01
RMM:   5    -0.413167474504E+03    0.36854E-01   -0.16006E-02  4738   0.131E-01    0.518E-02
RMM:   6    -0.413167588617E+03   -0.11411E-03   -0.26076E-03  5640   0.503E-02    0.173E-02
RMM:   7    -0.413167614722E+03   -0.26105E-04   -0.34119E-04  6016   0.155E-02    0.132E-02
RMM:   8    -0.413167617962E+03   -0.32401E-05   -0.45960E-05  4994   0.641E-03    0.714E-03
RMM:   9    -0.413167618358E+03   -0.39559E-06   -0.80850E-06  3070   0.330E-03
   15 T=    61. E= -.41286625E+03 F= -.41316762E+03 E0= -.41314539E+03  EK= 0.30136E+00 SP= 0.00E+00 SK= 0.00E+00
       N       E                     dE             d eps       ncg     rms          rms(c)
RMM:   1    -0.413163157434E+03    0.44605E-02   -0.11194E+01  4300   0.785E-01    0.915E-01
RMM:   2    -0.413169671275E+03   -0.65138E-02   -0.13879E-01  4261   0.103E-01    0.636E-01
RMM:   3    -0.413168837404E+03    0.83387E-03   -0.70843E-03  4854   0.384E-02    0.169E-01
RMM:   4    -0.413194666450E+03   -0.25829E-01   -0.26201E-02  5148   0.135E-01    0.671E-01
RMM:   5    -0.413168410892E+03    0.26256E-01   -0.12921E-02  4809   0.111E-01    0.360E-02
RMM:   6    -0.413168559488E+03   -0.14860E-03   -0.20105E-03  5848   0.435E-02    0.207E-02
RMM:   7    -0.413168562821E+03   -0.33339E-05   -0.25064E-04  5887   0.138E-02    0.143E-02
RMM:   8    -0.413168558204E+03    0.46173E-05   -0.35033E-05  4601   0.575E-03    0.776E-03
RMM:   9    -0.413168553021E+03    0.51832E-05   -0.73790E-06  3175   0.313E-03    0.529E-03
RMM:  10    -0.413168549500E+03    0.35207E-05   -0.15548E-06  2539   0.191E-03    0.317E-03
RMM:  11    -0.413168545064E+03    0.44363E-05   -0.15163E-06  2542   0.186E-03    0.145E-03
RMM:  12    -0.413168541374E+03    0.36896E-05   -0.83294E-07  2452   0.141E-03    0.533E-04
RMM:  13    -0.413168540794E+03    0.58045E-06   -0.27566E-07  1926   0.890E-04
   16 T=    61. E= -.41286657E+03 F= -.41316854E+03 E0= -.41314634E+03  EK= 0.30198E+00 SP= 0.00E+00 SK= 0.00E+00
       N       E                     dE             d eps       ncg     rms          rms(c)
RMM:   1    -0.413160162347E+03    0.83790E-02   -0.11077E+01  4296   0.754E-01    0.895E-01
RMM:   2    -0.413170369595E+03   -0.10207E-01   -0.13489E-01  4259   0.996E-02    0.632E-01
RMM:   3    -0.413169348173E+03    0.10214E-02   -0.69074E-03  4899   0.425E-02    0.171E-01
RMM:   4    -0.413203872738E+03   -0.34525E-01   -0.35514E-02  5140   0.156E-01    0.772E-01
RMM:   5    -0.413168798552E+03    0.35074E-01   -0.17236E-02  4797   0.129E-01    0.400E-02
RMM:   6    -0.413168991459E+03   -0.19291E-03   -0.26756E-03  5798   0.501E-02    0.213E-02
RMM:   7    -0.413169000604E+03   -0.91448E-05   -0.32334E-04  5920   0.152E-02    0.152E-02
RMM:   8    -0.413168997882E+03    0.27217E-05   -0.44980E-05  4808   0.622E-03    0.884E-03
RMM:   9    -0.413168993271E+03    0.46109E-05   -0.89758E-06  3319   0.329E-03    0.582E-03
RMM:  10    -0.413168990407E+03    0.28640E-05   -0.19769E-06  2546   0.205E-03    0.335E-03
RMM:  11    -0.413168987396E+03    0.30109E-05   -0.16357E-06  2540   0.193E-03    0.157E-03
RMM:  12    -0.413168984898E+03    0.24988E-05   -0.83673E-07  2465   0.147E-03    0.503E-04
RMM:  13    -0.413168984320E+03    0.57763E-06   -0.32397E-07  2086   0.966E-04
   17 T=    62. E= -.41286652E+03 F= -.41316898E+03 E0= -.41314683E+03  EK= 0.30246E+00 SP= 0.00E+00 SK= 0.00E+00
       N       E                     dE             d eps       ncg     rms          rms(c)
RMM:   1    -0.413160441390E+03    0.85435E-02   -0.11151E+01  4300   0.765E-01    0.890E-01
RMM:   2    -0.413171337337E+03   -0.10896E-01   -0.13748E-01  4273   0.102E-01    0.644E-01
RMM:   3    -0.413170021118E+03    0.13162E-02   -0.68678E-03  4937   0.411E-02    0.169E-01
RMM:   4    -0.413207043886E+03   -0.37023E-01   -0.38546E-02  5139   0.163E-01    0.800E-01
RMM:   5    -0.413169304519E+03    0.37739E-01   -0.18521E-02  4791   0.134E-01    0.408E-02
RMM:   6    -0.413169510907E+03   -0.20639E-03   -0.28810E-03  5784   0.520E-02    0.207E-02
RMM:   7    -0.413169526013E+03   -0.15106E-04   -0.34604E-04  5916   0.155E-02    0.151E-02
RMM:   8    -0.413169526702E+03   -0.68919E-06   -0.48177E-05  4875   0.638E-03    0.894E-03
RMM:   9    -0.413169525017E+03    0.16859E-05   -0.95263E-06  3363   0.339E-03    0.583E-03
RMM:  10    -0.413169525359E+03   -0.34283E-06   -0.21987E-06  2553   0.213E-03
   18 T=    62. E= -.41286646E+03 F= -.41316953E+03 E0= -.41314741E+03  EK= 0.30307E+00 SP= 0.00E+00 SK= 0.00E+00
       N       E                     dE             d eps       ncg     rms          rms(c)
RMM:   1    -0.413162105884E+03    0.74191E-02   -0.11205E+01  4301   0.766E-01    0.914E-01
RMM:   2    -0.413171752577E+03   -0.96467E-02   -0.13594E-01  4313   0.980E-02    0.640E-01
RMM:   3    -0.413174547763E+03   -0.27952E-02   -0.10129E-02  5121   0.683E-02    0.307E-01
RMM:   4    -0.413200026018E+03   -0.25478E-01   -0.41495E-02  5089   0.171E-01    0.713E-01
RMM:   5    -0.413170534997E+03    0.29491E-01   -0.12313E-02  4712   0.118E-01    0.504E-02
RMM:   6    -0.413170605208E+03   -0.70210E-04   -0.20796E-03  5597   0.447E-02    0.191E-02
RMM:   7    -0.413170618081E+03   -0.12873E-04   -0.27423E-04  5989   0.143E-02    0.132E-02
RMM:   8    -0.413170615022E+03    0.30586E-05   -0.40081E-05  4959   0.623E-03    0.692E-03
RMM:   9    -0.413170607637E+03    0.73851E-05   -0.73276E-06  3003   0.331E-03    0.311E-03
RMM:  10    -0.413170604861E+03    0.27761E-05   -0.17422E-06  2545   0.191E-03    0.186E-03
RMM:  11    -0.413170600831E+03    0.40298E-05   -0.97543E-07  2509   0.151E-03    0.108E-03
RMM:  12    -0.413170598155E+03    0.26757E-05   -0.48273E-07  2154   0.110E-03    0.511E-04
RMM:  13    -0.413170595707E+03    0.24483E-05   -0.29684E-07  1804   0.886E-04    0.228E-04
RMM:  14    -0.413170594009E+03    0.16985E-05   -0.18053E-07  1426   0.740E-04    0.143E-04
RMM:  15    -0.413170590749E+03    0.32600E-05   -0.21580E-07  1674   0.767E-04    0.146E-04
RMM:  16    -0.413170589070E+03    0.16783E-05   -0.11915E-07  1272   0.635E-04    0.129E-04
RMM:  17    -0.413170587181E+03    0.18892E-05   -0.91210E-08  1143   0.599E-04    0.453E-05
RMM:  18    -0.413170585803E+03    0.13785E-05   -0.62807E-08  1016   0.563E-04    0.343E-05
RMM:  19    -0.413170584981E+03    0.82112E-06   -0.34921E-08   843   0.532E-04
   19 T=    62. E= -.41286665E+03 F= -.41317058E+03 E0= -.41314851E+03  EK= 0.30394E+00 SP= 0.00E+00 SK= 0.00E+00
       N       E                     dE             d eps       ncg     rms          rms(c)
RMM:   1    -0.413170093524E+03    0.49228E-03   -0.11228E+01  4296   0.815E-01    0.904E-01
RMM:   2    -0.413172317161E+03   -0.22236E-02   -0.14283E-01  4268   0.102E-01    0.634E-01
RMM:   3    -0.413171584570E+03    0.73259E-03   -0.69917E-03  4956   0.410E-02    0.186E-01
RMM:   4    -0.413210493600E+03   -0.38909E-01   -0.40584E-02  5143   0.167E-01    0.819E-01
RMM:   5    -0.413170888403E+03    0.39605E-01   -0.19346E-02  4793   0.137E-01    0.437E-02
RMM:   6    -0.413171108441E+03   -0.22004E-03   -0.31410E-03  5789   0.535E-02    0.223E-02
RMM:   7    -0.413171118783E+03   -0.10342E-04   -0.37464E-04  5894   0.160E-02    0.161E-02
RMM:   8    -0.413171114504E+03    0.42795E-05   -0.50972E-05  4946   0.659E-03    0.939E-03
RMM:   9    -0.413171107827E+03    0.66768E-05   -0.10130E-05  3449   0.346E-03    0.609E-03
RMM:  10    -0.413171103161E+03    0.46658E-05   -0.21597E-06  2549   0.214E-03    0.349E-03
RMM:  11    -0.413171098821E+03    0.43404E-05   -0.15772E-06  2526   0.193E-03    0.166E-03
RMM:  12    -0.413171095401E+03    0.34204E-05   -0.83316E-07  2466   0.150E-03    0.491E-04
RMM:  13    -0.413171094622E+03    0.77817E-06   -0.34323E-07  2140   0.101E-03
   20 T=    62. E= -.41286642E+03 F= -.41317109E+03 E0= -.41314906E+03  EK= 0.30467E+00 SP= 0.00E+00 SK= 0.00E+00
       N       E                     dE             d eps       ncg     rms          rms(c)
RMM:   1    -0.413162999676E+03    0.80957E-02   -0.11193E+01  4301   0.777E-01    0.890E-01
RMM:   2    -0.413173780118E+03   -0.10780E-01   -0.13883E-01  4276   0.101E-01    0.645E-01
RMM:   3    -0.413172544442E+03    0.12357E-02   -0.68991E-03  4938   0.413E-02    0.170E-01
RMM:   4    -0.413209331973E+03   -0.36788E-01   -0.38314E-02  5140   0.162E-01    0.797E-01
RMM:   5    -0.413171813087E+03    0.37519E-01   -0.18336E-02  4791   0.134E-01    0.411E-02
RMM:   6    -0.413172036354E+03   -0.22327E-03   -0.30368E-03  5799   0.522E-02    0.209E-02
RMM:   7    -0.413172051930E+03   -0.15576E-04   -0.34733E-04  5912   0.156E-02    0.153E-02
RMM:   8    -0.413172051501E+03    0.42874E-06   -0.49753E-05  4894   0.651E-03    0.932E-03
RMM:   9    -0.413172048218E+03    0.32837E-05   -0.10030E-05  3437   0.349E-03    0.614E-03
RMM:  10    -0.413172047127E+03    0.10910E-05   -0.22565E-06  2563   0.218E-03    0.354E-03
RMM:  11    -0.413172046084E+03    0.10423E-05   -0.19561E-06  2569   0.207E-03    0.166E-03
RMM:  12    -0.413172045043E+03    0.10415E-05   -0.85036E-07  2471   0.151E-03    0.536E-04
RMM:  13    -0.413172044758E+03    0.28458E-06   -0.33026E-07  2114   0.982E-04
   21 T=    62. E= -.41286642E+03 F= -.41317204E+03 E0= -.41315006E+03  EK= 0.30562E+00 SP= 0.00E+00 SK= 0.00E+00
       N       E                     dE             d eps       ncg     rms          rms(c)
RMM:   1    -0.413164350334E+03    0.76947E-02   -0.11269E+01  4297   0.782E-01    0.912E-01
RMM:   2    -0.413174552568E+03   -0.10202E-01   -0.13775E-01  4278   0.992E-02    0.644E-01
RMM:   3    -0.413173600163E+03    0.95240E-03   -0.71181E-03  4921   0.407E-02    0.173E-01
RMM:   4    -0.413208938702E+03   -0.35339E-01   -0.36561E-02  5144   0.159E-01    0.781E-01
RMM:   5    -0.413173004499E+03    0.35934E-01   -0.17586E-02  4789   0.130E-01    0.411E-02
RMM:   6    -0.413173213741E+03   -0.20924E-03   -0.29178E-03  5799   0.511E-02    0.218E-02
RMM:   7    -0.413173225279E+03   -0.11538E-04   -0.33557E-04  5900   0.155E-02    0.156E-02
RMM:   8    -0.413173221635E+03    0.36439E-05   -0.48685E-05  4906   0.652E-03    0.939E-03
RMM:   9    -0.413173215128E+03    0.65066E-05   -0.97758E-06  3442   0.348E-03    0.618E-03
RMM:  10    -0.413173210790E+03    0.43381E-05   -0.20799E-06  2556   0.213E-03    0.361E-03
RMM:  11    -0.413173206006E+03    0.47845E-05   -0.18260E-06  2555   0.206E-03    0.169E-03
RMM:  12    -0.413173202330E+03    0.36759E-05   -0.84432E-07  2470   0.153E-03    0.537E-04
RMM:  13    -0.413173201583E+03    0.74631E-06   -0.32812E-07  2124   0.989E-04
   22 T=    62. E= -.41286659E+03 F= -.41317320E+03 E0= -.41315126E+03  EK= 0.30661E+00 SP= 0.00E+00 SK= 0.00E+00
       N       E                     dE             d eps       ncg     rms          rms(c)
RMM:   1    -0.413171603655E+03    0.15987E-02   -0.11318E+01  4296   0.822E-01    0.914E-01
RMM:   2    -0.413175014076E+03   -0.34104E-02   -0.13905E-01  4281   0.108E-01    0.637E-01
RMM:   3    -0.413174252987E+03    0.76109E-03   -0.72132E-03  4877   0.428E-02    0.177E-01
RMM:   4    -0.413208482075E+03   -0.34229E-01   -0.35208E-02  5152   0.156E-01    0.769E-01
RMM:   5    -0.413173666050E+03    0.34816E-01   -0.17021E-02  4792   0.129E-01    0.410E-02
RMM:   6    -0.413173861542E+03   -0.19549E-03   -0.28437E-03  5802   0.503E-02    0.225E-02
RMM:   7    -0.413173868953E+03   -0.74108E-05   -0.31764E-04  5879   0.154E-02    0.155E-02
RMM:   8    -0.413173863459E+03    0.54932E-05   -0.49266E-05  4922   0.656E-03    0.960E-03
RMM:   9    -0.413173854559E+03    0.89004E-05   -0.10122E-05  3501   0.358E-03    0.633E-03
RMM:  10    -0.413173848137E+03    0.64221E-05   -0.20730E-06  2557   0.218E-03    0.371E-03
RMM:  11    -0.413173840752E+03    0.73852E-05   -0.19397E-06  2569   0.213E-03    0.175E-03
RMM:  12    -0.413173835140E+03    0.56114E-05   -0.85710E-07  2473   0.157E-03    0.566E-04
RMM:  13    -0.413173834062E+03    0.10789E-05   -0.33356E-07  2130   0.100E-03    0.403E-04
RMM:  14    -0.413173832824E+03    0.12372E-05   -0.16435E-07  1594   0.756E-04    0.250E-04
RMM:  15    -0.413173828034E+03    0.47898E-05   -0.21158E-07  1945   0.815E-04    0.336E-04
RMM:  16    -0.413173827561E+03    0.47338E-06   -0.63298E-08  1000   0.580E-04
   23 T=    63. E= -.41286638E+03 F= -.41317383E+03 E0= -.41315193E+03  EK= 0.30745E+00 SP= 0.00E+00 SK= 0.00E+00
       N       E                     dE             d eps       ncg     rms          rms(c)
RMM:   1    -0.413166271294E+03    0.75567E-02   -0.11246E+01  4296   0.790E-01    0.893E-01
RMM:   2    -0.413177198854E+03   -0.10928E-01   -0.13953E-01  4277   0.104E-01    0.644E-01
RMM:   3    -0.413175697300E+03    0.15016E-02   -0.68212E-03  4827   0.420E-02    0.166E-01
RMM:   4    -0.413206081759E+03   -0.30384E-01   -0.31125E-02  5150   0.146E-01    0.725E-01
RMM:   5    -0.413175219901E+03    0.30862E-01   -0.15213E-02  4799   0.121E-01    0.375E-02
RMM:   6    -0.413175395951E+03   -0.17605E-03   -0.24863E-03  5806   0.469E-02    0.206E-02
RMM:   7    -0.413175405678E+03   -0.97274E-05   -0.27761E-04  5845   0.144E-02    0.143E-02
RMM:   8    -0.413175403990E+03    0.16882E-05   -0.43880E-05  4848   0.622E-03    0.878E-03
RMM:   9    -0.413175399197E+03    0.47928E-05   -0.92900E-06  3444   0.345E-03    0.583E-03
RMM:  10    -0.413175397062E+03    0.21351E-05   -0.18444E-06  2541   0.206E-03    0.348E-03
RMM:  11    -0.413175394618E+03    0.24436E-05   -0.17450E-06  2545   0.201E-03    0.165E-03
RMM:  12    -0.413175392561E+03    0.20571E-05   -0.80249E-07  2460   0.149E-03    0.545E-04
RMM:  13    -0.413175392139E+03    0.42191E-06   -0.30209E-07  2069   0.953E-04
   24 T=    63. E= -.41286675E+03 F= -.41317539E+03 E0= -.41315355E+03  EK= 0.30864E+00 SP= 0.00E+00 SK= 0.00E+00
       N       E                     dE             d eps       ncg     rms          rms(c)
RMM:   1    -0.413167440771E+03    0.79518E-02   -0.11349E+01  4298   0.796E-01    0.909E-01
RMM:   2    -0.413178197672E+03   -0.10757E-01   -0.13941E-01  4283   0.107E-01    0.649E-01
RMM:   3    -0.413176802529E+03    0.13951E-02   -0.70091E-03  4854   0.429E-02    0.170E-01
RMM:   4    -0.413209350856E+03   -0.32548E-01   -0.33341E-02  5148   0.152E-01    0.750E-01
RMM:   5    -0.413176261955E+03    0.33089E-01   -0.16233E-02  4798   0.125E-01    0.389E-02
RMM:   6    -0.413176448478E+03   -0.18652E-03   -0.26890E-03  5813   0.489E-02    0.214E-02
RMM:   7    -0.413176458116E+03   -0.96374E-05   -0.29105E-04  5860   0.147E-02    0.145E-02
RMM:   8    -0.413176455483E+03    0.26323E-05   -0.47679E-05  4899   0.642E-03    0.938E-03
RMM:   9    -0.413176449010E+03    0.64736E-05   -0.10337E-05  3589   0.361E-03    0.620E-03
RMM:  10    -0.413176445414E+03    0.35957E-05   -0.20225E-06  2549   0.218E-03    0.368E-03
RMM:  11    -0.413176441238E+03    0.41757E-05   -0.19794E-06  2568   0.213E-03    0.175E-03
RMM:  12    -0.413176437885E+03    0.33535E-05   -0.82699E-07  2470   0.155E-03    0.559E-04
RMM:  13    -0.413176437174E+03    0.71134E-06   -0.32193E-07  2117   0.984E-04
   25 T=    63. E= -.41286664E+03 F= -.41317644E+03 E0= -.41315464E+03  EK= 0.30980E+00 SP= 0.00E+00 SK= 0.00E+00
       N       E                     dE             d eps       ncg     rms          rms(c)
RMM:   1    -0.413169129737E+03    0.73081E-02   -0.11376E+01  4296   0.808E-01    0.924E-01
RMM:   2    -0.413178741515E+03   -0.96118E-02   -0.13831E-01  4280   0.107E-01    0.642E-01
RMM:   3    -0.413177939361E+03    0.80215E-03   -0.72965E-03  4847   0.427E-02    0.174E-01
RMM:   4    -0.413209324092E+03   -0.31385E-01   -0.32047E-02  5152   0.149E-01    0.737E-01
RMM:   5    -0.413177491201E+03    0.31833E-01   -0.15735E-02  4799   0.123E-01    0.395E-02
RMM:   6    -0.413177661138E+03   -0.16994E-03   -0.25775E-03  5815   0.479E-02    0.223E-02
RMM:   7    -0.413177665288E+03   -0.41506E-05   -0.27889E-04  5839   0.145E-02    0.145E-02
RMM:   8    -0.413177659421E+03    0.58674E-05   -0.47584E-05  4910   0.643E-03    0.945E-03
RMM:   9    -0.413177650076E+03    0.93448E-05   -0.10475E-05  3651   0.366E-03    0.629E-03
RMM:  10    -0.413177643181E+03    0.68946E-05   -0.18975E-06  2542   0.216E-03    0.377E-03
RMM:  11    -0.413177634710E+03    0.84710E-05   -0.19256E-06  2558   0.213E-03    0.178E-03
RMM:  12    -0.413177627913E+03    0.67974E-05   -0.83622E-07  2472   0.157E-03    0.550E-04
RMM:  13    -0.413177626586E+03    0.13274E-05   -0.32107E-07  2125   0.993E-04    0.405E-04
RMM:  14    -0.413177624998E+03    0.15876E-05   -0.15212E-07  1543   0.742E-04    0.234E-04
RMM:  15    -0.413177619205E+03    0.57929E-05   -0.18561E-07  1933   0.800E-04    0.354E-04
RMM:  16    -0.413177618881E+03    0.32401E-06   -0.56087E-08   961   0.570E-04
   26 T=    63. E= -.41286650E+03 F= -.41317762E+03 E0= -.41315587E+03  EK= 0.31112E+00 SP= 0.00E+00 SK= 0.00E+00
       N       E                     dE             d eps       ncg     rms          rms(c)
RMM:   1    -0.413170287112E+03    0.73321E-02   -0.11338E+01  4294   0.806E-01    0.899E-01
RMM:   2    -0.413180896046E+03   -0.10609E-01   -0.13995E-01  4278   0.104E-01    0.644E-01
RMM:   3    -0.413179860565E+03    0.10355E-02   -0.69412E-03  4838   0.429E-02    0.171E-01
RMM:   4    -0.413211305674E+03   -0.31445E-01   -0.32039E-02  5151   0.149E-01    0.737E-01
RMM:   5    -0.413179386561E+03    0.31919E-01   -0.15889E-02  4801   0.123E-01    0.383E-02
RMM:   6    -0.413179556286E+03   -0.16972E-03   -0.25291E-03  5814   0.479E-02    0.214E-02
RMM:   7    -0.413179564498E+03   -0.82123E-05   -0.29302E-04  5863   0.147E-02    0.147E-02
RMM:   8    -0.413179560831E+03    0.36671E-05   -0.45998E-05  4889   0.643E-03    0.902E-03
RMM:   9    -0.413179554220E+03    0.66109E-05   -0.97167E-06  3499   0.356E-03    0.590E-03
RMM:  10    -0.413179550334E+03    0.38854E-05   -0.19172E-06  2545   0.210E-03    0.352E-03
RMM:  11    -0.413179545885E+03    0.44499E-05   -0.17724E-06  2545   0.204E-03    0.162E-03
RMM:  12    -0.413179542450E+03    0.34341E-05   -0.77374E-07  2461   0.150E-03    0.526E-04
RMM:  13    -0.413179541810E+03    0.63999E-06   -0.29724E-07  2071   0.952E-04
   27 T=    64. E= -.41286682E+03 F= -.41317954E+03 E0= -.41315784E+03  EK= 0.31272E+00 SP= 0.00E+00 SK= 0.00E+00
       N       E                     dE             d eps       ncg     rms          rms(c)
RMM:   1    -0.413171773342E+03    0.77691E-02   -0.11468E+01  4296   0.839E-01    0.908E-01
RMM:   2    -0.413182114860E+03   -0.10342E-01   -0.14316E-01  4281   0.109E-01    0.655E-01
RMM:   3    -0.413180842062E+03    0.12728E-02   -0.70582E-03  4714   0.437E-02    0.164E-01
RMM:   4    -0.413204070261E+03   -0.23228E-01   -0.23576E-02  5148   0.129E-01    0.637E-01
RMM:   5    -0.413180422172E+03    0.23648E-01   -0.11745E-02  4804   0.106E-01    0.333E-02
RMM:   6    -0.413180543498E+03   -0.12133E-03   -0.18569E-03  5826   0.406E-02    0.191E-02
RMM:   7    -0.413180547844E+03   -0.43461E-05   -0.18586E-04  5654   0.122E-02    0.110E-02
RMM:   8    -0.413180544278E+03    0.35654E-05   -0.29325E-05  4472   0.520E-03    0.729E-03
RMM:   9    -0.413180539690E+03    0.45884E-05   -0.83844E-06  3416   0.326E-03    0.529E-03
RMM:  10    -0.413180537345E+03    0.23449E-05   -0.16610E-06  2551   0.205E-03    0.335E-03
RMM:  11    -0.413180533027E+03    0.43178E-05   -0.18304E-06  2569   0.205E-03    0.156E-03
RMM:  12    -0.413180529490E+03    0.35368E-05   -0.72850E-07  2442   0.146E-03    0.616E-04
RMM:  13    -0.413180528922E+03    0.56868E-06   -0.23869E-07  1998   0.892E-04
   28 T=    64. E= -.41286633E+03 F= -.41318053E+03 E0= -.41315888E+03  EK= 0.31420E+00 SP= 0.00E+00 SK= 0.00E+00
       N       E                     dE             d eps       ncg     rms          rms(c)
RMM:   1    -0.413174885237E+03    0.56443E-02   -0.11544E+01  4293   0.845E-01    0.932E-01
RMM:   2    -0.413183762085E+03   -0.88768E-02   -0.14164E-01  4273   0.109E-01    0.648E-01
RMM:   3    -0.413182755003E+03    0.10071E-02   -0.73816E-03  4509   0.414E-02    0.165E-01
RMM:   4    -0.413193966566E+03   -0.11212E-01   -0.11392E-02  5165   0.900E-02    0.443E-01
RMM:   5    -0.413182750505E+03    0.11216E-01   -0.55967E-03  4828   0.727E-02    0.290E-02
RMM:   6    -0.413182788579E+03   -0.38074E-04   -0.91165E-04  5868   0.280E-02    0.182E-02
RMM:   7    -0.413182786296E+03    0.22832E-05   -0.12323E-04  5552   0.106E-02    0.112E-02
RMM:   8    -0.413182774157E+03    0.12139E-04   -0.20927E-05  4303   0.503E-03    0.536E-03
RMM:   9    -0.413182768771E+03    0.53855E-05   -0.41786E-06  2871   0.268E-03    0.408E-03
RMM:  10    -0.413182763159E+03    0.56128E-05   -0.79068E-07  2490   0.159E-03    0.254E-03
RMM:  11    -0.413182755090E+03    0.80689E-05   -0.74425E-07  2475   0.144E-03    0.119E-03
RMM:  12    -0.413182748424E+03    0.66653E-05   -0.43080E-07  2237   0.109E-03    0.421E-04
RMM:  13    -0.413182746755E+03    0.16694E-05   -0.16399E-07  1500   0.740E-04    0.235E-04
RMM:  14    -0.413182744653E+03    0.21020E-05   -0.93277E-08  1162   0.651E-04    0.150E-04
RMM:  15    -0.413182738909E+03    0.57441E-05   -0.11144E-07  1450   0.703E-04    0.180E-04
RMM:  16    -0.413182738467E+03    0.44178E-06   -0.41329E-08   872   0.568E-04
   29 T=    64. E= -.41286660E+03 F= -.41318274E+03 E0= -.41316114E+03  EK= 0.31614E+00 SP= 0.00E+00 SK= 0.00E+00
       N       E                     dE             d eps       ncg     rms          rms(c)
RMM:   1    -0.413175195418E+03    0.75435E-02   -0.11488E+01  4291   0.834E-01    0.910E-01
RMM:   2    -0.413185926823E+03   -0.10731E-01   -0.14317E-01  4271   0.109E-01    0.647E-01
RMM:   3    -0.413184548227E+03    0.13786E-02   -0.70766E-03  4422   0.450E-02    0.162E-01
RMM:   4    -0.413191572059E+03   -0.70238E-02   -0.75419E-03  5141   0.753E-02    0.353E-01
RMM:   5    -0.413184481080E+03    0.70910E-02   -0.35265E-03  4828   0.579E-02    0.256E-02
RMM:   6    -0.413184494518E+03   -0.13438E-04   -0.56088E-04  5802   0.227E-02    0.176E-02
RMM:   7    -0.413184489728E+03    0.47900E-05   -0.10042E-04  5343   0.988E-03    0.958E-03
RMM:   8    -0.413184480633E+03    0.90950E-05   -0.12409E-05  3733   0.423E-03    0.405E-03
RMM:   9    -0.413184477440E+03    0.31928E-05   -0.23461E-06  2674   0.216E-03    0.302E-03
RMM:  10    -0.413184473539E+03    0.39010E-05   -0.71229E-07  2460   0.143E-03    0.181E-03
RMM:  11    -0.413184468489E+03    0.50500E-05   -0.56945E-07  2396   0.123E-03    0.780E-04
RMM:  12    -0.413184464923E+03    0.35658E-05   -0.29142E-07  1911   0.910E-04    0.307E-04
RMM:  13    -0.413184463410E+03    0.15132E-05   -0.13780E-07  1293   0.699E-04    0.166E-04
RMM:  14    -0.413184460891E+03    0.25187E-05   -0.10137E-07  1187   0.665E-04    0.895E-05
RMM:  15    -0.413184457700E+03    0.31910E-05   -0.91847E-08  1270   0.660E-04    0.103E-04
RMM:  16    -0.413184456363E+03    0.13370E-05   -0.48643E-08   954   0.585E-04    0.514E-05
RMM:  17    -0.413184453432E+03    0.29314E-05   -0.63877E-08  1212   0.616E-04    0.396E-05
RMM:  18    -0.413184452963E+03    0.46907E-06   -0.22559E-08   761   0.523E-04
   30 T=    65. E= -.41286644E+03 F= -.41318445E+03 E0= -.41316291E+03  EK= 0.31801E+00 SP= 0.00E+00 SK= 0.00E+00
       N       E                     dE             d eps       ncg     rms          rms(c)
RMM:   1    -0.413177292364E+03    0.71611E-02   -0.11627E+01  4290   0.872E-01    0.911E-01
RMM:   2    -0.413188442375E+03   -0.11150E-01   -0.14864E-01  4275   0.122E-01    0.662E-01
RMM:   3    -0.413186140336E+03    0.23020E-02   -0.69994E-03  4248   0.433E-02    0.158E-01
RMM:   4    -0.413187262901E+03   -0.11226E-02   -0.20438E-03  5077   0.370E-02    0.142E-01
RMM:   5    -0.413186135602E+03    0.11273E-02   -0.55100E-04  4775   0.238E-02    0.220E-02
RMM:   6    -0.413186130567E+03    0.50353E-05   -0.13475E-04  5547   0.121E-02    0.167E-02
RMM:   7    -0.413186123394E+03    0.71734E-05   -0.57523E-05  4744   0.751E-03    0.594E-03
RMM:   8    -0.413186120653E+03    0.27411E-05   -0.43076E-06  2876   0.292E-03    0.336E-03
RMM:   9    -0.413186119885E+03    0.76738E-06   -0.66938E-07  2455   0.153E-03
   31 T=    65. E= -.41286628E+03 F= -.41318612E+03 E0= -.41316462E+03  EK= 0.31984E+00 SP= 0.00E+00 SK= 0.00E+00
       N       E                     dE             d eps       ncg     rms          rms(c)
RMM:   1    -0.413188144401E+03   -0.20237E-02   -0.11795E+01  4288   0.924E-01    0.937E-01
RMM:   2    -0.413190183548E+03   -0.20391E-02   -0.15629E-01  4283   0.125E-01    0.657E-01
RMM:   3    -0.413188771579E+03    0.14120E-02   -0.73758E-03  4367   0.477E-02    0.178E-01
RMM:   4    -0.413192400889E+03   -0.36293E-02   -0.43408E-03  5119   0.600E-02    0.252E-01
RMM:   5    -0.413188864784E+03    0.35361E-02   -0.17162E-03  4803   0.416E-02    0.270E-02
RMM:   6    -0.413188845582E+03    0.19202E-04   -0.31849E-04  5672   0.186E-02    0.195E-02
RMM:   7    -0.413188831863E+03    0.13719E-04   -0.78968E-05  5129   0.890E-03    0.763E-03
RMM:   8    -0.413188823434E+03    0.84292E-05   -0.12599E-05  3913   0.426E-03    0.404E-03
RMM:   9    -0.413188820292E+03    0.31415E-05   -0.12110E-06  2534   0.186E-03    0.226E-03
RMM:  10    -0.413188812734E+03    0.75578E-05   -0.71369E-07  2438   0.133E-03    0.119E-03
RMM:  11    -0.413188805412E+03    0.73219E-05   -0.39522E-07  2155   0.102E-03    0.509E-04
RMM:  12    -0.413188800891E+03    0.45213E-05   -0.19725E-07  1505   0.780E-04    0.249E-04
RMM:  13    -0.413188797132E+03    0.37588E-05   -0.12240E-07  1109   0.681E-04    0.146E-04
RMM:  14    -0.413188792625E+03    0.45077E-05   -0.10367E-07  1226   0.672E-04    0.102E-04
RMM:  15    -0.413188787041E+03    0.55833E-05   -0.10286E-07  1352   0.667E-04    0.807E-05
RMM:  16    -0.413188785398E+03    0.16431E-05   -0.49634E-08   895   0.550E-04    0.625E-05
RMM:  17    -0.413188782613E+03    0.27856E-05   -0.44233E-08   849   0.549E-04    0.251E-05
RMM:  18    -0.413188781935E+03    0.67819E-06   -0.25055E-08   666   0.513E-04
   32 T=    66. E= -.41286679E+03 F= -.41318878E+03 E0= -.41316733E+03  EK= 0.32199E+00 SP= 0.00E+00 SK= 0.00E+00
       N       E                     dE             d eps       ncg     rms          rms(c)
RMM:   1    -0.413199877508E+03   -0.11095E-01   -0.11862E+01  4284   0.969E-01    0.923E-01
RMM:   2    -0.413192394093E+03    0.74834E-02   -0.16849E-01  4275   0.133E-01    0.654E-01
RMM:   3    -0.413190808796E+03    0.15853E-02   -0.68833E-03  4505   0.414E-02    0.195E-01
RMM:   4    -0.413200449269E+03   -0.96405E-02   -0.10234E-02  5153   0.870E-02    0.415E-01
RMM:   5    -0.413190709690E+03    0.97396E-02   -0.48553E-03  4810   0.684E-02    0.290E-02
RMM:   6    -0.413190696204E+03    0.13486E-04   -0.79764E-04  5801   0.275E-02    0.192E-02
RMM:   7    -0.413190692313E+03    0.38913E-05   -0.12871E-04  5478   0.107E-02    0.108E-02
RMM:   8    -0.413190682098E+03    0.10214E-04   -0.19453E-05  4232   0.495E-03    0.489E-03
RMM:   9    -0.413190678197E+03    0.39015E-05   -0.34781E-06  2807   0.254E-03    0.329E-03
RMM:  10    -0.413190673137E+03    0.50603E-05   -0.74555E-07  2485   0.150E-03    0.200E-03
RMM:  11    -0.413190666760E+03    0.63768E-05   -0.59173E-07  2439   0.126E-03    0.960E-04
RMM:  12    -0.413190661478E+03    0.52820E-05   -0.35878E-07  2122   0.984E-04    0.395E-04
RMM:  13    -0.413190659154E+03    0.23238E-05   -0.15165E-07  1394   0.719E-04    0.212E-04
RMM:  14    -0.413190656722E+03    0.24317E-05   -0.92414E-08  1100   0.647E-04    0.115E-04
RMM:  15    -0.413190652509E+03    0.42133E-05   -0.87628E-08  1246   0.662E-04    0.941E-05
RMM:  16    -0.413190651571E+03    0.93749E-06   -0.43169E-08   902   0.586E-04
   33 T=    66. E= -.41286663E+03 F= -.41319065E+03 E0= -.41316925E+03  EK= 0.32402E+00 SP= 0.00E+00 SK= 0.00E+00
       N       E                     dE             d eps       ncg     rms          rms(c)
RMM:   1    -0.413192547334E+03   -0.18948E-02   -0.11878E+01  4296   0.963E-01    0.915E-01
RMM:   2    -0.413195028469E+03   -0.24811E-02   -0.15461E-01  4273   0.130E-01    0.666E-01
RMM:   3    -0.413193328726E+03    0.16997E-02   -0.70728E-03  4464   0.484E-02    0.167E-01
RMM:   4    -0.413202317412E+03   -0.89887E-02   -0.93707E-03  5151   0.843E-02    0.399E-01
RMM:   5    -0.413193314263E+03    0.90031E-02   -0.44420E-03  4812   0.656E-02    0.278E-02
RMM:   6    -0.413193299815E+03    0.14448E-04   -0.70439E-04  5803   0.264E-02    0.185E-02
RMM:   7    -0.413193300482E+03   -0.66704E-06   -0.11631E-04  5411   0.105E-02    0.100E-02
RMM:   8    -0.413193293539E+03    0.69439E-05   -0.18584E-05  4169   0.486E-03    0.461E-03
RMM:   9    -0.413193291660E+03    0.18781E-05   -0.31403E-06  2768   0.244E-03    0.303E-03
RMM:  10    -0.413193288775E+03    0.28854E-05   -0.75156E-07  2468   0.147E-03    0.185E-03
RMM:  11    -0.413193284789E+03    0.39864E-05   -0.62191E-07  2435   0.125E-03    0.852E-04
RMM:  12    -0.413193281754E+03    0.30342E-05   -0.33904E-07  1935   0.935E-04    0.349E-04
RMM:  13    -0.413193280306E+03    0.14482E-05   -0.15458E-07  1297   0.712E-04    0.189E-04
RMM:  14    -0.413193278630E+03    0.16766E-05   -0.10344E-07  1115   0.659E-04    0.988E-05
RMM:  15    -0.413193275909E+03    0.27206E-05   -0.96675E-08  1196   0.666E-04    0.950E-05
RMM:  16    -0.413193275328E+03    0.58081E-06   -0.48481E-08   917   0.596E-04
   34 T=    66. E= -.41286682E+03 F= -.41319328E+03 E0= -.41317192E+03  EK= 0.32645E+00 SP= 0.00E+00 SK= 0.00E+00
       N       E                     dE             d eps       ncg     rms          rms(c)
RMM:   1    -0.413187200157E+03    0.60758E-02   -0.11913E+01  4299   0.923E-01    0.941E-01
RMM:   2    -0.413197692477E+03   -0.10492E-01   -0.15364E-01  4264   0.133E-01    0.666E-01
RMM:   3    -0.413196149886E+03    0.15426E-02   -0.72864E-03  4400   0.454E-02    0.172E-01
RMM:   4    -0.413200077640E+03   -0.39278E-02   -0.47191E-03  5160   0.584E-02    0.268E-01
RMM:   5    -0.413196069775E+03    0.40079E-02   -0.20127E-03  4817   0.444E-02    0.268E-02
RMM:   6    -0.413196055201E+03    0.14573E-04   -0.36635E-04  5720   0.192E-02    0.193E-02
RMM:   7    -0.413196044723E+03    0.10479E-04   -0.87266E-05  5182   0.906E-03    0.757E-03
RMM:   8    -0.413196037297E+03    0.74254E-05   -0.10683E-05  3549   0.388E-03    0.388E-03
RMM:   9    -0.413196034440E+03    0.28568E-05   -0.13213E-06  2550   0.189E-03    0.239E-03
RMM:  10    -0.413196028007E+03    0.64338E-05   -0.66743E-07  2427   0.131E-03    0.124E-03
RMM:  11    -0.413196021814E+03    0.61926E-05   -0.40023E-07  2169   0.102E-03    0.536E-04
RMM:  12    -0.413196016994E+03    0.48204E-05   -0.21455E-07  1618   0.807E-04    0.214E-04
RMM:  13    -0.413196014303E+03    0.26904E-05   -0.11767E-07  1154   0.679E-04    0.131E-04
RMM:  14    -0.413196010757E+03    0.35462E-05   -0.89626E-08  1169   0.653E-04    0.903E-05
RMM:  15    -0.413196004748E+03    0.60089E-05   -0.97771E-08  1426   0.677E-04    0.781E-05
RMM:  16    -0.413196003646E+03    0.11024E-05   -0.42108E-08   902   0.557E-04    0.600E-05
RMM:  17    -0.413196000674E+03    0.29715E-05   -0.45755E-08  1066   0.575E-04    0.254E-05
RMM:  18    -0.413196000068E+03    0.60603E-06   -0.20062E-08   737   0.512E-04
   35 T=    67. E= -.41286697E+03 F= -.41319600E+03 E0= -.41317469E+03  EK= 0.32903E+00 SP= 0.00E+00 SK= 0.00E+00
       N       E                     dE             d eps       ncg     rms          rms(c)
RMM:   1    -0.413191369217E+03    0.46315E-02   -0.11950E+01  4299   0.967E-01    0.941E-01
RMM:   2    -0.413199621586E+03   -0.82524E-02   -0.15405E-01  4255   0.124E-01    0.659E-01
RMM:   3    -0.413198399837E+03    0.12217E-02   -0.75371E-03  4771   0.459E-02    0.186E-01
RMM:   4    -0.413226071681E+03   -0.27672E-01   -0.27882E-02  5159   0.140E-01    0.694E-01
RMM:   5    -0.413198136665E+03    0.27935E-01   -0.14072E-02  4801   0.116E-01    0.390E-02
RMM:   6    -0.413198167646E+03   -0.30981E-04   -0.22506E-03  5851   0.446E-02    0.222E-02
RMM:   7    -0.413198176152E+03   -0.85058E-05   -0.25572E-04  5803   0.141E-02    0.141E-02
RMM:   8    -0.413198166413E+03    0.97388E-05   -0.43242E-05  4896   0.651E-03    0.857E-03
RMM:   9    -0.413198160755E+03    0.56582E-05   -0.12061E-05  3903   0.402E-03    0.546E-03
RMM:  10    -0.413198153412E+03    0.73427E-05   -0.19880E-06  2558   0.225E-03    0.315E-03
RMM:  11    -0.413198146883E+03    0.65292E-05   -0.13010E-06  2506   0.180E-03    0.171E-03
RMM:  12    -0.413198137479E+03    0.94041E-05   -0.89111E-07  2469   0.161E-03    0.654E-04
RMM:  13    -0.413198134695E+03    0.27841E-05   -0.33186E-07  2165   0.104E-03    0.468E-04
RMM:  14    -0.413198133591E+03    0.11037E-05   -0.14525E-07  1494   0.732E-04    0.295E-04
RMM:  15    -0.413198127310E+03    0.62806E-05   -0.12550E-07  1626   0.735E-04    0.246E-04
RMM:  16    -0.413198126715E+03    0.59550E-06   -0.50281E-08   951   0.574E-04
   36 T=    67. E= -.41286669E+03 F= -.41319813E+03 E0= -.41317686E+03  EK= 0.33144E+00 SP= 0.00E+00 SK= 0.00E+00
       N       E                     dE             d eps       ncg     rms          rms(c)
RMM:   1    -0.413193820269E+03    0.43070E-02   -0.12014E+01  4304   0.989E-01    0.923E-01
RMM:   2    -0.413203315686E+03   -0.94954E-02   -0.16008E-01  4257   0.134E-01    0.671E-01
RMM:   3    -0.413201539786E+03    0.17759E-02   -0.72964E-03  4758   0.517E-02    0.189E-01
RMM:   4    -0.413235730222E+03   -0.34190E-01   -0.34694E-02  5158   0.156E-01    0.770E-01
RMM:   5    -0.413201077613E+03    0.34653E-01   -0.17456E-02  4800   0.129E-01    0.409E-02
RMM:   6    -0.413201141860E+03   -0.64247E-04   -0.27791E-03  5858   0.491E-02    0.222E-02
RMM:   7    -0.413201155872E+03   -0.14012E-04   -0.29005E-04  5793   0.147E-02    0.140E-02
RMM:   8    -0.413201149829E+03    0.60433E-05   -0.44773E-05  4892   0.641E-03    0.899E-03
RMM:   9    -0.413201146963E+03    0.28657E-05   -0.15931E-05  4190   0.431E-03    0.591E-03
RMM:  10    -0.413201141463E+03    0.55009E-05   -0.25905E-06  2603   0.247E-03    0.327E-03
RMM:  11    -0.413201137462E+03    0.40008E-05   -0.15801E-06  2516   0.196E-03    0.183E-03
RMM:  12    -0.413201131613E+03    0.58484E-05   -0.10016E-06  2480   0.169E-03    0.676E-04
RMM:  13    -0.413201129802E+03    0.18117E-05   -0.37066E-07  2243   0.109E-03    0.484E-04
RMM:  14    -0.413201129147E+03    0.65420E-06   -0.15731E-07  1549   0.754E-04
   37 T=    68. E= -.41286688E+03 F= -.41320113E+03 E0= -.41317991E+03  EK= 0.33425E+00 SP= 0.00E+00 SK= 0.00E+00
       N       E                     dE             d eps       ncg     rms          rms(c)
RMM:   1    -0.413195361113E+03    0.57687E-02   -0.12153E+01  4307   0.101E+00    0.945E-01
RMM:   2    -0.413205955978E+03   -0.10595E-01   -0.15971E-01  4259   0.128E-01    0.675E-01
RMM:   3    -0.413203924487E+03    0.20315E-02   -0.75860E-03  4724   0.503E-02    0.188E-01
RMM:   4    -0.413232777930E+03   -0.28853E-01   -0.29145E-02  5155   0.143E-01    0.709E-01
RMM:   5    -0.413203572964E+03    0.29205E-01   -0.14755E-02  4808   0.118E-01    0.395E-02
RMM:   6    -0.413203617106E+03   -0.44142E-04   -0.23400E-03  5842   0.454E-02    0.222E-02
RMM:   7    -0.413203628063E+03   -0.10956E-04   -0.27352E-04  5811   0.144E-02    0.144E-02
RMM:   8    -0.413203619034E+03    0.90291E-05   -0.46112E-05  4959   0.672E-03    0.864E-03
RMM:   9    -0.413203614249E+03    0.47850E-05   -0.11932E-05  3859   0.398E-03    0.513E-03
RMM:  10    -0.413203608181E+03    0.60679E-05   -0.20819E-06  2566   0.220E-03    0.302E-03
RMM:  11    -0.413203602560E+03    0.56207E-05   -0.12603E-06  2506   0.177E-03    0.159E-03
RMM:  12    -0.413203595123E+03    0.74373E-05   -0.82281E-07  2457   0.152E-03    0.581E-04
RMM:  13    -0.413203592699E+03    0.24235E-05   -0.32196E-07  2141   0.101E-03    0.420E-04
RMM:  14    -0.413203591636E+03    0.10634E-05   -0.14707E-07  1454   0.728E-04    0.266E-04
RMM:  15    -0.413203586054E+03    0.55813E-05   -0.12538E-07  1499   0.725E-04    0.198E-04
RMM:  16    -0.413203585258E+03    0.79658E-06   -0.55686E-08   977   0.594E-04
   38 T=    69. E= -.41286679E+03 F= -.41320359E+03 E0= -.41318240E+03  EK= 0.33679E+00 SP= 0.00E+00 SK= 0.00E+00
       N       E                     dE             d eps       ncg     rms          rms(c)
RMM:   1    -0.413201571367E+03    0.20147E-02   -0.12236E+01  4304   0.108E+00    0.958E-01
RMM:   2    -0.413207590352E+03   -0.60190E-02   -0.16211E-01  4271   0.125E-01    0.669E-01
RMM:   3    -0.413206864037E+03    0.72631E-03   -0.83623E-03  5021   0.549E-02    0.228E-01
RMM:   4    -0.413257853090E+03   -0.50989E-01   -0.55693E-02  5130   0.196E-01    0.938E-01
RMM:   5    -0.413205646118E+03    0.52207E-01   -0.25583E-02  4782   0.158E-01    0.522E-02
RMM:   6    -0.413205798699E+03   -0.15258E-03   -0.41939E-03  5820   0.603E-02    0.260E-02
RMM:   7    -0.413205816604E+03   -0.17905E-04   -0.44167E-04  5839   0.179E-02    0.170E-02
RMM:   8    -0.413205813994E+03    0.26102E-05   -0.74170E-05  5138   0.782E-03    0.117E-02
RMM:   9    -0.413205801814E+03    0.12180E-04   -0.20418E-05  4406   0.493E-03    0.638E-03
RMM:  10    -0.413205793618E+03    0.81965E-05   -0.41584E-06  2718   0.289E-03    0.346E-03
RMM:  11    -0.413205787120E+03    0.64975E-05   -0.16192E-06  2500   0.208E-03    0.201E-03
RMM:  12    -0.413205777829E+03    0.92916E-05   -0.93570E-07  2479   0.170E-03    0.668E-04
RMM:  13    -0.413205773577E+03    0.42514E-05   -0.41041E-07  2302   0.115E-03    0.408E-04
RMM:  14    -0.413205770890E+03    0.26873E-05   -0.19288E-07  1799   0.814E-04    0.270E-04
RMM:  15    -0.413205764056E+03    0.68337E-05   -0.13636E-07  1562   0.738E-04    0.217E-04
RMM:  16    -0.413205762900E+03    0.11563E-05   -0.66466E-08  1048   0.601E-04    0.116E-04
RMM:  17    -0.413205759850E+03    0.30497E-05   -0.53748E-08  1036   0.603E-04    0.734E-05
RMM:  18    -0.413205756133E+03    0.37173E-05   -0.55469E-08  1201   0.622E-04    0.341E-05
RMM:  19    -0.413205754730E+03    0.14024E-05   -0.32000E-08   960   0.570E-04    0.297E-05
RMM:  20    -0.413205754095E+03    0.63552E-06   -0.19804E-08   818   0.541E-04
   39 T=    69. E= -.41286649E+03 F= -.41320575E+03 E0= -.41318461E+03  EK= 0.33927E+00 SP= 0.00E+00 SK= 0.00E+00
       N       E                     dE             d eps       ncg     rms          rms(c)
RMM:   1    -0.413202046216E+03    0.37085E-02   -0.12224E+01  4310   0.110E+00    0.935E-01
RMM:   2    -0.413211171186E+03   -0.91250E-02   -0.16425E-01  4269   0.130E-01    0.675E-01
RMM:   3    -0.413210224298E+03    0.94689E-03   -0.81749E-03  5022   0.565E-02    0.237E-01
RMM:   4    -0.413263924654E+03   -0.53700E-01   -0.59964E-02  5128   0.203E-01    0.963E-01
RMM:   5    -0.413208702638E+03    0.55222E-01   -0.26905E-02  4773   0.162E-01    0.533E-02
RMM:   6    -0.413208870252E+03   -0.16761E-03   -0.44144E-03  5810   0.618E-02    0.256E-02
RMM:   7    -0.413208892201E+03   -0.21949E-04   -0.47281E-04  5902   0.184E-02    0.176E-02
RMM:   8    -0.413208892256E+03   -0.55079E-07   -0.81652E-05  5206   0.817E-03    0.121E-02
RMM:   9    -0.413208881942E+03    0.10314E-04   -0.19043E-05  4330   0.487E-03    0.611E-03
RMM:  10    -0.413208876671E+03    0.52716E-05   -0.43266E-06  2719   0.284E-03    0.332E-03
RMM:  11    -0.413208872734E+03    0.39364E-05   -0.16264E-06  2508   0.205E-03    0.191E-03
RMM:  12    -0.413208867300E+03    0.54341E-05   -0.89366E-07  2470   0.163E-03    0.671E-04
RMM:  13    -0.413208864666E+03    0.26337E-05   -0.40357E-07  2287   0.112E-03    0.379E-04
RMM:  14    -0.413208862609E+03    0.20575E-05   -0.19997E-07  1780   0.811E-04    0.242E-04
RMM:  15    -0.413208858173E+03    0.44361E-05   -0.13920E-07  1437   0.726E-04    0.186E-04
RMM:  16    -0.413208857519E+03    0.65404E-06   -0.70709E-08  1050   0.614E-04
   40 T=    70. E= -.41286688E+03 F= -.41320886E+03 E0= -.41318775E+03  EK= 0.34198E+00 SP= 0.00E+00 SK= 0.00E+00
       N       E                     dE             d eps       ncg     rms          rms(c)
RMM:   1    -0.413225791008E+03   -0.16933E-01   -0.12594E+01  4307   0.127E+00    0.948E-01
RMM:   2    -0.413212761514E+03    0.13029E-01   -0.17328E-01  4273   0.139E-01    0.686E-01
RMM:   3    -0.413212300814E+03    0.46070E-03   -0.87140E-03  5046   0.603E-02    0.258E-01
RMM:   4    -0.413266648985E+03   -0.54348E-01   -0.62860E-02  5125   0.208E-01    0.972E-01
RMM:   5    -0.413210341095E+03    0.56308E-01   -0.27221E-02  4771   0.164E-01    0.549E-02
RMM:   6    -0.413210499196E+03   -0.15810E-03   -0.43379E-03  5804   0.621E-02    0.256E-02
RMM:   7    -0.413210520825E+03   -0.21629E-04   -0.48436E-04  5926   0.188E-02    0.183E-02
RMM:   8    -0.413210520513E+03    0.31213E-06   -0.85919E-05  5272   0.846E-03    0.121E-02
RMM:   9    -0.413210509673E+03    0.10840E-04   -0.18035E-05  4237   0.487E-03    0.556E-03
RMM:  10    -0.413210504370E+03    0.53029E-05   -0.44788E-06  2738   0.282E-03    0.307E-03
RMM:  11    -0.413210500332E+03    0.40377E-05   -0.14806E-06  2507   0.196E-03    0.170E-03
RMM:  12    -0.413210495079E+03    0.52530E-05   -0.77810E-07  2456   0.152E-03    0.638E-04
RMM:  13    -0.413210492152E+03    0.29274E-05   -0.36554E-07  2207   0.106E-03    0.329E-04
RMM:  14    -0.413210489473E+03    0.26784E-05   -0.19310E-07  1628   0.797E-04    0.205E-04
RMM:  15    -0.413210485533E+03    0.39405E-05   -0.13174E-07  1344   0.712E-04    0.119E-04
RMM:  16    -0.413210484117E+03    0.14155E-05   -0.79866E-08  1133   0.639E-04    0.647E-05
RMM:  17    -0.413210481994E+03    0.21228E-05   -0.63663E-08  1109   0.625E-04    0.496E-05
RMM:  18    -0.413210478842E+03    0.31528E-05   -0.61924E-08  1189   0.628E-04    0.362E-05
RMM:  19    -0.413210478177E+03    0.66461E-06   -0.29265E-08   876   0.566E-04
   41 T=    70. E= -.41286642E+03 F= -.41321048E+03 E0= -.41318941E+03  EK= 0.34406E+00 SP= 0.00E+00 SK= 0.00E+00
       N       E                     dE             d eps       ncg     rms          rms(c)
RMM:   1    -0.413230199669E+03   -0.19721E-01   -0.12671E+01  4311   0.130E+00    0.972E-01
RMM:   2    -0.413214717744E+03    0.15482E-01   -0.18016E-01  4296   0.146E-01    0.679E-01
RMM:   3    -0.413216894900E+03   -0.21772E-02   -0.10808E-02  5123   0.735E-02    0.332E-01
RMM:   4    -0.413252111725E+03   -0.35217E-01   -0.51515E-02  5093   0.191E-01    0.822E-01
RMM:   5    -0.413213040986E+03    0.39071E-01   -0.17607E-02  4730   0.137E-01    0.538E-02
RMM:   6    -0.413213091877E+03   -0.50891E-04   -0.29393E-03  5745   0.516E-02    0.248E-02
RMM:   7    -0.413213102239E+03   -0.10362E-04   -0.36692E-04  5876   0.167E-02    0.180E-02
RMM:   8    -0.413213097801E+03    0.44378E-05   -0.75250E-05  5185   0.822E-03    0.106E-02
RMM:   9    -0.413213083908E+03    0.13893E-04   -0.15568E-05  4038   0.479E-03    0.415E-03
RMM:  10    -0.413213077592E+03    0.63153E-05   -0.33690E-06  2671   0.243E-03    0.239E-03
RMM:  11    -0.413213070776E+03    0.68168E-05   -0.11719E-06  2505   0.173E-03    0.124E-03
RMM:  12    -0.413213064348E+03    0.64272E-05   -0.51901E-07  2384   0.126E-03    0.557E-04
RMM:  13    -0.413213059981E+03    0.43671E-05   -0.26932E-07  1794   0.896E-04    0.246E-04
RMM:  14    -0.413213055929E+03    0.40520E-05   -0.16559E-07  1401   0.750E-04    0.142E-04
RMM:  15    -0.413213049420E+03    0.65097E-05   -0.14044E-07  1478   0.729E-04    0.108E-04
RMM:  16    -0.413213047765E+03    0.16543E-05   -0.82520E-08  1142   0.630E-04    0.764E-05
RMM:  17    -0.413213043082E+03    0.46836E-05   -0.82546E-08  1337   0.650E-04    0.601E-05
RMM:  18    -0.413213041019E+03    0.20627E-05   -0.50191E-08  1067   0.582E-04    0.453E-05
RMM:  19    -0.413213040390E+03    0.62962E-06   -0.31218E-08   862   0.538E-04
   42 T=    71. E= -.41286673E+03 F= -.41321304E+03 E0= -.41319200E+03  EK= 0.34631E+00 SP= 0.00E+00 SK= 0.00E+00
       N       E                     dE             d eps       ncg     rms          rms(c)
RMM:   1    -0.413220438740E+03   -0.73977E-02   -0.12510E+01  4312   0.133E+00    0.947E-01
RMM:   2    -0.413216798845E+03    0.36399E-02   -0.17013E-01  4297   0.151E-01    0.679E-01
RMM:   3    -0.413219939627E+03   -0.31408E-02   -0.11510E-02  5100   0.805E-02    0.352E-01
RMM:   4    -0.413250320979E+03   -0.30381E-01   -0.49423E-02  5066   0.188E-01    0.781E-01
RMM:   5    -0.413215108867E+03    0.35212E-01   -0.15373E-02  4707   0.131E-01    0.517E-02
RMM:   6    -0.413215143158E+03   -0.34291E-04   -0.25948E-03  5733   0.485E-02    0.239E-02
RMM:   7    -0.413215150612E+03   -0.74537E-05   -0.31914E-04  5853   0.159E-02    0.175E-02
RMM:   8    -0.413215146954E+03    0.36581E-05   -0.68025E-05  5135   0.797E-03    0.984E-03
RMM:   9    -0.413215135813E+03    0.11141E-04   -0.14633E-05  3941   0.470E-03    0.389E-03
RMM:  10    -0.413215131296E+03    0.45170E-05   -0.30376E-06  2664   0.234E-03    0.222E-03
RMM:  11    -0.413215126055E+03    0.52412E-05   -0.11670E-06  2504   0.170E-03    0.118E-03
RMM:  12    -0.413215121502E+03    0.45529E-05   -0.50948E-07  2371   0.123E-03    0.519E-04
RMM:  13    -0.413215118275E+03    0.32275E-05   -0.26975E-07  1683   0.871E-04    0.237E-04
RMM:  14    -0.413215115362E+03    0.29127E-05   -0.17049E-07  1339   0.742E-04    0.130E-04
RMM:  15    -0.413215110400E+03    0.49621E-05   -0.14978E-07  1393   0.727E-04    0.933E-05
RMM:  16    -0.413215108962E+03    0.14381E-05   -0.87700E-08  1128   0.641E-04    0.712E-05
RMM:  17    -0.413215105900E+03    0.30618E-05   -0.77249E-08  1209   0.637E-04    0.485E-05
RMM:  18    -0.413215103494E+03    0.24057E-05   -0.60537E-08  1148   0.598E-04    0.454E-05
RMM:  19    -0.413215102973E+03    0.52110E-06   -0.31034E-08   816   0.537E-04
   43 T=    71. E= -.41286684E+03 F= -.41321510E+03 E0= -.41319409E+03  EK= 0.34827E+00 SP= 0.00E+00 SK= 0.00E+00
       N       E                     dE             d eps       ncg     rms          rms(c)
RMM:   1    -0.413252949596E+03   -0.37846E-01   -0.12946E+01  4312   0.154E+00    0.948E-01
RMM:   2    -0.413218321283E+03    0.34628E-01   -0.20922E-01  4304   0.172E-01    0.698E-01
RMM:   3    -0.413222371297E+03   -0.40500E-02   -0.12139E-02  5109   0.881E-02    0.410E-01
RMM:   4    -0.413251093697E+03   -0.28722E-01   -0.51650E-02  5057   0.193E-01    0.785E-01
RMM:   5    -0.413216241627E+03    0.34852E-01   -0.15366E-02  4691   0.133E-01    0.561E-02
RMM:   6    -0.413216255014E+03   -0.13388E-04   -0.25805E-03  5689   0.486E-02    0.247E-02
RMM:   7    -0.413216263760E+03   -0.87457E-05   -0.32613E-04  5906   0.163E-02    0.184E-02
RMM:   8    -0.413216260135E+03    0.36248E-05   -0.65740E-05  5160   0.792E-03    0.101E-02
RMM:   9    -0.413216250510E+03    0.96250E-05   -0.16875E-05  4060   0.508E-03    0.423E-03
RMM:  10    -0.413216247232E+03    0.32783E-05   -0.33344E-06  2701   0.241E-03    0.243E-03
RMM:  11    -0.413216243419E+03    0.38123E-05   -0.16123E-06  2545   0.190E-03    0.133E-03
RMM:  12    -0.413216240599E+03    0.28201E-05   -0.55379E-07  2449   0.132E-03    0.631E-04
RMM:  13    -0.413216237909E+03    0.26902E-05   -0.31336E-07  1662   0.906E-04    0.313E-04
RMM:  14    -0.413216235594E+03    0.23155E-05   -0.20319E-07  1401   0.779E-04    0.164E-04
RMM:  15    -0.413216232965E+03    0.26291E-05   -0.15030E-07  1325   0.723E-04    0.875E-05
RMM:  16    -0.413216230661E+03    0.23041E-05   -0.11264E-07  1275   0.676E-04    0.563E-05
RMM:  17    -0.413216229004E+03    0.16562E-05   -0.77874E-08  1140   0.621E-04    0.472E-05
RMM:  18    -0.413216226840E+03    0.21647E-05   -0.63335E-08  1082   0.597E-04    0.328E-05
RMM:  19    -0.413216226141E+03    0.69817E-06   -0.38245E-08   890   0.553E-04
   44 T=    71. E= -.41286663E+03 F= -.41321623E+03 E0= -.41319524E+03  EK= 0.34960E+00 SP= 0.00E+00 SK= 0.00E+00
       N       E                     dE             d eps       ncg     rms          rms(c)
RMM:   1    -0.413234328775E+03   -0.18102E-01   -0.12785E+01  4308   0.154E+00    0.978E-01
RMM:   2    -0.413219123448E+03    0.15205E-01   -0.17811E-01  4362   0.179E-01    0.687E-01
RMM:   3    -0.413230482878E+03   -0.11359E-01   -0.19014E-02  5135   0.116E-01    0.517E-01
RMM:   4    -0.413234767249E+03   -0.42844E-02   -0.38994E-02  5015   0.172E-01    0.558E-01
RMM:   5    -0.413218056852E+03    0.16710E-01   -0.63227E-03  4584   0.961E-02    0.470E-02
RMM:   6    -0.413218015435E+03    0.41417E-04   -0.11798E-03  5394   0.335E-02    0.225E-02
RMM:   7    -0.413218013433E+03    0.20016E-05   -0.15199E-04  5629   0.120E-02    0.160E-02
RMM:   8    -0.413218006585E+03    0.68480E-05   -0.62958E-05  5097   0.803E-03    0.860E-03
RMM:   9    -0.413217991846E+03    0.14739E-04   -0.13395E-05  3971   0.482E-03    0.355E-03
RMM:  10    -0.413217987868E+03    0.39777E-05   -0.19111E-06  2591   0.205E-03    0.194E-03
RMM:  11    -0.413217980556E+03    0.73123E-05   -0.11377E-06  2495   0.167E-03    0.115E-03
RMM:  12    -0.413217975296E+03    0.52598E-05   -0.44987E-07  2369   0.119E-03    0.547E-04
RMM:  13    -0.413217971255E+03    0.40417E-05   -0.21962E-07  1591   0.810E-04    0.254E-04
RMM:  14    -0.413217967492E+03    0.37631E-05   -0.13218E-07  1239   0.685E-04    0.137E-04
RMM:  15    -0.413217961533E+03    0.59586E-05   -0.12029E-07  1280   0.689E-04    0.111E-04
RMM:  16    -0.413217959098E+03    0.24349E-05   -0.70485E-08  1053   0.612E-04    0.976E-05
RMM:  17    -0.413217956155E+03    0.29429E-05   -0.58186E-08  1079   0.595E-04    0.555E-05
RMM:  18    -0.413217952791E+03    0.33641E-05   -0.54535E-08  1133   0.592E-04    0.475E-05
RMM:  19    -0.413217952460E+03    0.33123E-06   -0.21942E-08   720   0.507E-04
   45 T=    71. E= -.41286714E+03 F= -.41321795E+03 E0= -.41319698E+03  EK= 0.35081E+00 SP= 0.00E+00 SK= 0.00E+00
       N       E                     dE             d eps       ncg     rms          rms(c)
RMM:   1    -0.413236514464E+03   -0.18562E-01   -0.12705E+01  4307   0.164E+00    0.959E-01
RMM:   2    -0.413219347287E+03    0.17167E-01   -0.17943E-01  4389   0.188E-01    0.683E-01
RMM:   3    -0.413233764955E+03   -0.14418E-01   -0.21644E-02  5130   0.126E-01    0.569E-01
RMM:   4    -0.413231996122E+03    0.17688E-02   -0.38302E-02  4994   0.172E-01    0.512E-01
RMM:   5    -0.413218254225E+03    0.13742E-01   -0.52513E-03  4551   0.916E-02    0.470E-02
RMM:   6    -0.413218187401E+03    0.66824E-04   -0.86387E-04  5143   0.301E-02    0.220E-02
RMM:   7    -0.413218183461E+03    0.39402E-05   -0.11858E-04  5694   0.105E-02    0.135E-02
RMM:   8    -0.413218181861E+03    0.16002E-05   -0.69314E-05  5215   0.828E-03    0.984E-03
RMM:   9    -0.413218166604E+03    0.15257E-04   -0.19299E-05  4378   0.544E-03    0.390E-03
RMM:  10    -0.413218163639E+03    0.29655E-05   -0.24409E-06  2625   0.224E-03    0.208E-03
RMM:  11    -0.413218157858E+03    0.57805E-05   -0.13479E-06  2471   0.186E-03    0.122E-03
RMM:  12    -0.413218153206E+03    0.46523E-05   -0.53870E-07  2376   0.132E-03    0.670E-04
RMM:  13    -0.413218149528E+03    0.36782E-05   -0.23829E-07  1684   0.878E-04    0.340E-04
RMM:  14    -0.413218145762E+03    0.37657E-05   -0.13236E-07  1351   0.711E-04    0.166E-04
RMM:  15    -0.413218140920E+03    0.48423E-05   -0.10675E-07  1231   0.660E-04    0.144E-04
RMM:  16    -0.413218138978E+03    0.19420E-05   -0.53058E-08   864   0.559E-04    0.108E-04
RMM:  17    -0.413218135626E+03    0.33519E-05   -0.55189E-08   960   0.576E-04    0.709E-05
RMM:  18    -0.413218133046E+03    0.25802E-05   -0.40078E-08   898   0.564E-04    0.476E-05
RMM:  19    -0.413218132405E+03    0.64084E-06   -0.19331E-08   650   0.515E-04
   46 T=    71. E= -.41286711E+03 F= -.41321813E+03 E0= -.41319718E+03  EK= 0.35103E+00 SP= 0.00E+00 SK= 0.00E+00
       N       E                     dE             d eps       ncg     rms          rms(c)
RMM:   1    -0.413251042718E+03   -0.32910E-01   -0.12885E+01  4310   0.176E+00    0.946E-01
RMM:   2    -0.413219510301E+03    0.31532E-01   -0.20828E-01  4384   0.212E-01    0.699E-01
RMM:   3    -0.413233665441E+03   -0.14155E-01   -0.21365E-02  5130   0.129E-01    0.591E-01
RMM:   4    -0.413233188683E+03    0.47676E-03   -0.40834E-02  5004   0.177E-01    0.548E-01
RMM:   5    -0.413217770336E+03    0.15418E-01   -0.64364E-03  4550   0.997E-02    0.513E-02
RMM:   6    -0.413217691906E+03    0.78430E-04   -0.10163E-03  5187   0.328E-02    0.235E-02
RMM:   7    -0.413217688523E+03    0.33826E-05   -0.14533E-04  5789   0.115E-02    0.161E-02
RMM:   8    -0.413217684921E+03    0.36018E-05   -0.71361E-05  5213   0.836E-03    0.100E-02
RMM:   9    -0.413217670621E+03    0.14300E-04   -0.19633E-05  4395   0.565E-03    0.426E-03
RMM:  10    -0.413217668182E+03    0.24387E-05   -0.26820E-06  2659   0.227E-03    0.227E-03
RMM:  11    -0.413217664459E+03    0.37227E-05   -0.16704E-06  2514   0.198E-03    0.144E-03
RMM:  12    -0.413217661462E+03    0.29973E-05   -0.54837E-07  2406   0.138E-03    0.737E-04
RMM:  13    -0.413217658642E+03    0.28200E-05   -0.26444E-07  1756   0.899E-04    0.332E-04
RMM:  14    -0.413217656083E+03    0.25590E-05   -0.15932E-07  1366   0.725E-04    0.172E-04
RMM:  15    -0.413217652808E+03    0.32755E-05   -0.13431E-07  1231   0.680E-04    0.110E-04
RMM:  16    -0.413217650961E+03    0.18467E-05   -0.78462E-08  1000   0.597E-04    0.807E-05
RMM:  17    -0.413217648982E+03    0.19786E-05   -0.66233E-08  1025   0.587E-04    0.539E-05
RMM:  18    -0.413217647478E+03    0.15044E-05   -0.44361E-08   867   0.553E-04    0.308E-05
RMM:  19    -0.413217646995E+03    0.48273E-06   -0.23060E-08   680   0.520E-04
   47 T=    71. E= -.41286722E+03 F= -.41321765E+03 E0= -.41319671E+03  EK= 0.35042E+00 SP= 0.00E+00 SK= 0.00E+00
       N       E                     dE             d eps       ncg     rms          rms(c)
RMM:   1    -0.413276059713E+03   -0.58412E-01   -0.13111E+01  4303   0.197E+00    0.973E-01
RMM:   2    -0.413217779019E+03    0.58281E-01   -0.20993E-01  4494   0.213E-01    0.694E-01
RMM:   3    -0.413241421409E+03   -0.23642E-01   -0.30058E-02  5150   0.155E-01    0.712E-01
RMM:   4    -0.413225262871E+03    0.16159E-01   -0.38568E-02  4959   0.177E-01    0.438E-01
RMM:   5    -0.413216678845E+03    0.85840E-02   -0.47753E-03  4568   0.911E-02    0.585E-02
RMM:   6    -0.413216503327E+03    0.17552E-03   -0.46351E-04  4709   0.287E-02    0.263E-02
RMM:   7    -0.413216504551E+03   -0.12233E-05   -0.16528E-04  5897   0.131E-02    0.184E-02
RMM:   8    -0.413216487529E+03    0.17022E-04   -0.54515E-05  5058   0.806E-03    0.994E-03
RMM:   9    -0.413216475009E+03    0.12520E-04   -0.14003E-05  3903   0.474E-03    0.480E-03
RMM:  10    -0.413216470015E+03    0.49943E-05   -0.23909E-06  2597   0.243E-03    0.243E-03
RMM:  11    -0.413216464488E+03    0.55263E-05   -0.15962E-06  2494   0.200E-03    0.169E-03
RMM:  12    -0.413216460244E+03    0.42449E-05   -0.53460E-07  2399   0.136E-03    0.839E-04
RMM:  13    -0.413216455755E+03    0.44880E-05   -0.26677E-07  1827   0.891E-04    0.406E-04
RMM:  14    -0.413216450993E+03    0.47626E-05   -0.18537E-07  1642   0.757E-04    0.250E-04
RMM:  15    -0.413216446171E+03    0.48215E-05   -0.13577E-07  1239   0.645E-04    0.125E-04
RMM:  16    -0.413216443621E+03    0.25505E-05   -0.82965E-08  1101   0.593E-04    0.931E-05
RMM:  17    -0.413216441186E+03    0.24353E-05   -0.63161E-08  1040   0.575E-04    0.514E-05
RMM:  18    -0.413216439128E+03    0.20573E-05   -0.48093E-08   979   0.559E-04    0.388E-05
RMM:  19    -0.413216438479E+03    0.64949E-06   -0.24893E-08   764   0.518E-04
   48 T=    71. E= -.41286761E+03 F= -.41321644E+03 E0= -.41319551E+03  EK= 0.34883E+00 SP= 0.00E+00 SK= 0.00E+00
       N       E                     dE             d eps       ncg     rms          rms(c)
RMM:   1    -0.413276234155E+03   -0.59795E-01   -0.12957E+01  4304   0.209E+00    0.964E-01
RMM:   2    -0.413214121944E+03    0.62112E-01   -0.20805E-01  4508   0.226E-01    0.684E-01
RMM:   3    -0.413244654801E+03   -0.30533E-01   -0.36355E-02  5160   0.170E-01    0.792E-01
RMM:   4    -0.413218862317E+03    0.25792E-01   -0.38644E-02  4926   0.180E-01    0.384E-01
RMM:   5    -0.413213162811E+03    0.56995E-02   -0.52623E-03  4847   0.937E-02    0.729E-02
RMM:   6    -0.413212864504E+03    0.29831E-03   -0.56707E-04  4671   0.330E-02    0.308E-02
RMM:   7    -0.413212859528E+03    0.49759E-05   -0.16388E-04  5720   0.138E-02    0.204E-02
RMM:   8    -0.413212840294E+03    0.19233E-04   -0.40185E-05  4921   0.704E-03    0.101E-02
RMM:   9    -0.413212826789E+03    0.13505E-04   -0.14027E-05  3507   0.441E-03    0.434E-03
RMM:  10    -0.413212820757E+03    0.60325E-05   -0.25288E-06  2629   0.248E-03    0.247E-03
RMM:  11    -0.413212813664E+03    0.70925E-05   -0.12490E-06  2503   0.182E-03    0.148E-03
RMM:  12    -0.413212809153E+03    0.45118E-05   -0.48034E-07  2427   0.124E-03    0.691E-04
RMM:  13    -0.413212803883E+03    0.52699E-05   -0.30584E-07  1825   0.903E-04    0.377E-04
RMM:  14    -0.413212799561E+03    0.43219E-05   -0.19933E-07  1483   0.769E-04    0.253E-04
RMM:  15    -0.413212794316E+03    0.52446E-05   -0.18121E-07  1448   0.738E-04    0.129E-04
RMM:  16    -0.413212792347E+03    0.19692E-05   -0.97881E-08  1191   0.631E-04    0.944E-05
RMM:  17    -0.413212789201E+03    0.31456E-05   -0.92670E-08  1250   0.630E-04    0.542E-05
RMM:  18    -0.413212788318E+03    0.88392E-06   -0.43974E-08   916   0.558E-04
   49 T=    70. E= -.41286729E+03 F= -.41321279E+03 E0= -.41319187E+03  EK= 0.34550E+00 SP= 0.00E+00 SK= 0.00E+00
       N       E                     dE             d eps       ncg     rms          rms(c)
RMM:   1    -0.413242745387E+03   -0.29956E-01   -0.12502E+01  4304   0.208E+00    0.932E-01
RMM:   2    -0.413210232335E+03    0.32513E-01   -0.21602E-01  4516   0.237E-01    0.692E-01
RMM:   3    -0.413238603828E+03   -0.28371E-01   -0.34229E-02  5159   0.169E-01    0.784E-01
RMM:   4    -0.413215208416E+03    0.23395E-01   -0.38922E-02  4935   0.180E-01    0.406E-01
RMM:   5    -0.413208637286E+03    0.65711E-02   -0.59288E-03  4817   0.982E-02    0.757E-02
RMM:   6    -0.413208320272E+03    0.31701E-03   -0.59059E-04  4651   0.342E-02    0.317E-02
RMM:   7    -0.413208316056E+03    0.42154E-05   -0.17070E-04  5750   0.140E-02    0.210E-02
RMM:   8    -0.413208297469E+03    0.18587E-04   -0.43669E-05  4987   0.719E-03    0.106E-02
RMM:   9    -0.413208285658E+03    0.11811E-04   -0.16264E-05  3665   0.472E-03    0.452E-03
RMM:  10    -0.413208280636E+03    0.50219E-05   -0.31852E-06  2692   0.270E-03    0.264E-03
RMM:  11    -0.413208275798E+03    0.48386E-05   -0.14610E-06  2522   0.196E-03    0.161E-03
RMM:  12    -0.413208272552E+03    0.32458E-05   -0.52688E-07  2452   0.131E-03    0.757E-04
RMM:  13    -0.413208268782E+03    0.37698E-05   -0.34557E-07  1920   0.942E-04    0.412E-04
RMM:  14    -0.413208265728E+03    0.30537E-05   -0.23629E-07  1576   0.792E-04    0.285E-04
RMM:  15    -0.413208262328E+03    0.34005E-05   -0.21395E-07  1448   0.750E-04    0.132E-04
RMM:  16    -0.413208260970E+03    0.13581E-05   -0.11402E-07  1239   0.646E-04    0.917E-05
RMM:  17    -0.413208259242E+03    0.17278E-05   -0.10511E-07  1230   0.636E-04    0.552E-05
RMM:  18    -0.413208258838E+03    0.40391E-06   -0.51407E-08   953   0.561E-04
   50 T=    69. E= -.41286752E+03 F= -.41320826E+03 E0= -.41318734E+03  EK= 0.34074E+00 SP= 0.00E+00 SK= 0.00E+00
       N       E                     dE             d eps       ncg     rms          rms(c)
RMM:   1    -0.413238536044E+03   -0.30277E-01   -0.12343E+01  4301   0.221E+00    0.946E-01
RMM:   2    -0.413203099275E+03    0.35437E-01   -0.21170E-01  4576   0.250E-01    0.687E-01
RMM:   3    -0.413241978307E+03   -0.38879E-01   -0.44511E-02  5170   0.192E-01    0.893E-01
RMM:   4    -0.413205486337E+03    0.36492E-01   -0.40882E-02  4912   0.189E-01    0.351E-01
RMM:   5    -0.413201833289E+03    0.36530E-02   -0.76929E-03  5171   0.108E-01    0.101E-01
RMM:   6    -0.413201238043E+03    0.59525E-03   -0.11334E-03  4726   0.449E-02    0.375E-02
RMM:   7    -0.413201232029E+03    0.60147E-05   -0.28148E-04  5755   0.180E-02    0.234E-02
RMM:   8    -0.413201211850E+03    0.20178E-04   -0.45447E-05  5037   0.754E-03    0.118E-02
RMM:   9    -0.413201198164E+03    0.13686E-04   -0.18669E-05  3922   0.508E-03    0.488E-03
RMM:  10    -0.413201191009E+03    0.71557E-05   -0.47173E-06  2884   0.313E-03    0.316E-03
RMM:  11    -0.413201184396E+03    0.66127E-05   -0.19757E-06  2577   0.230E-03    0.182E-03
[...]
RMM:  10    -0.413831587972E+03    0.26955E-05   -0.12123E-04  5854   0.133E-02    0.133E-02
RMM:  11    -0.413831587852E+03    0.11992E-06   -0.36728E-05  5337   0.742E-03    0.824E-03
RMM:  12    -0.413831589534E+03   -0.16822E-05   -0.98542E-06  3791   0.432E-03    0.459E-03
RMM:  13    -0.413831591127E+03   -0.15927E-05   -0.33807E-06  2831   0.277E-03    0.193E-03
RMM:  14    -0.413831592533E+03   -0.14063E-05   -0.13447E-06  2515   0.190E-03    0.118E-03
RMM:  15    -0.413831593922E+03   -0.13891E-05   -0.85110E-07  2476   0.153E-03    0.625E-04
RMM:  16    -0.413831594516E+03   -0.59434E-06   -0.42268E-07  2043   0.101E-03
  138 T=   191. E= -.41289364E+03 F= -.41383159E+03 E0= -.41380776E+03  EK= 0.93796E+00 SP= 0.00E+00 SK= 0.00E+00
       N       E                     dE             d eps       ncg     rms          rms(c)
RMM:   1    -0.413734213592E+03    0.97380E-01   -0.20417E+01  4287   0.839E+00    0.161E+00
RMM:   2    -0.413650585192E+03    0.83628E-01   -0.67300E-01  5393   0.977E-01    0.145E+00
RMM:   3    -0.413727655668E+03   -0.77070E-01   -0.16837E-01  5594   0.441E-01    0.166E+00
RMM:   4    -0.413649418630E+03    0.78237E-01   -0.97365E-02  5152   0.349E-01    0.846E-01
RMM:   5    -0.413640087826E+03    0.93308E-02   -0.50282E-02  4559   0.307E-01    0.223E-01
RMM:   6    -0.413638323999E+03    0.17638E-02   -0.50251E-03  4820   0.107E-01    0.110E-01
RMM:   7    -0.413638141258E+03    0.18274E-03   -0.14699E-03  5345   0.479E-02    0.616E-02
RMM:   8    -0.413638075462E+03    0.65795E-04   -0.76967E-04  5258   0.339E-02    0.337E-02
RMM:   9    -0.413638078496E+03   -0.30336E-05   -0.26944E-04  5691   0.192E-02    0.215E-02
RMM:  10    -0.413638065056E+03    0.13440E-04   -0.79343E-05  5511   0.105E-02    0.123E-02
RMM:  11    -0.413638066589E+03   -0.15328E-05   -0.35544E-05  5341   0.706E-03    0.779E-03
RMM:  12    -0.413638066322E+03    0.26661E-06   -0.58279E-06  3174   0.361E-03
  139 T=   153. E= -.41288852E+03 F= -.41363807E+03 E0= -.41361415E+03  EK= 0.74954E+00 SP= 0.00E+00 SK= 0.00E+00
       N       E                     dE             d eps       ncg     rms          rms(c)
RMM:   1    -0.413335249769E+03    0.30282E+00   -0.12529E+01  4277   0.666E+00    0.136E+00
RMM:   2    -0.413319264749E+03    0.15985E-01   -0.42859E-01  5384   0.729E-01    0.114E+00
RMM:   3    -0.413322079982E+03   -0.28152E-02   -0.75022E-02  5395   0.328E-01    0.663E-01
RMM:   4    -0.413413144880E+03   -0.91065E-01   -0.11208E-01  5175   0.345E-01    0.130E+00
RMM:   5    -0.413320674985E+03    0.92470E-01   -0.53746E-02  5081   0.255E-01    0.249E-01
RMM:   6    -0.413318370015E+03    0.23050E-02   -0.12725E-02  5469   0.136E-01    0.104E-01
RMM:   7    -0.413318017733E+03    0.35228E-03   -0.29006E-03  5650   0.612E-02    0.592E-02
RMM:   8    -0.413317977761E+03    0.39973E-04   -0.57136E-04  5230   0.302E-02    0.333E-02
RMM:   9    -0.413317978544E+03   -0.78352E-06   -0.18584E-04  5257   0.170E-02    0.148E-02
RMM:  10    -0.413317980308E+03   -0.17640E-05   -0.58696E-05  5934   0.842E-03    0.882E-03
RMM:  11    -0.413317980471E+03   -0.16289E-06   -0.14361E-05  4220   0.461E-03    0.519E-03
RMM:  12    -0.413317980938E+03   -0.46731E-06   -0.41567E-06  2932   0.311E-03
  140 T=    94. E= -.41285587E+03 F= -.41331798E+03 E0= -.41329415E+03  EK= 0.46211E+00 SP= 0.00E+00 SK= 0.00E+00
       N       E                     dE             d eps       ncg     rms          rms(c)
RMM:   1    -0.413337183504E+03   -0.19203E-01   -0.68941E+00  4264   0.503E+00    0.656E-01
RMM:   2    -0.413334209843E+03    0.29737E-02   -0.21007E-01  5450   0.538E-01    0.640E-01
RMM:   3    -0.413345460324E+03   -0.11250E-01   -0.41508E-02  5692   0.211E-01    0.704E-01
RMM:   4    -0.413330669749E+03    0.14791E-01   -0.16140E-02  5220   0.146E-01    0.381E-01
RMM:   5    -0.413329494998E+03    0.11748E-02   -0.11890E-02  4362   0.156E-01    0.123E-01
RMM:   6    -0.413329193831E+03    0.30117E-03   -0.34470E-03  5201   0.739E-02    0.739E-02
RMM:   7    -0.413329034994E+03    0.15884E-03   -0.90139E-04  5271   0.371E-02    0.492E-02
RMM:   8    -0.413328967406E+03    0.67588E-04   -0.19671E-04  4612   0.192E-02    0.284E-02
RMM:   9    -0.413328970765E+03   -0.33591E-05   -0.17838E-04  4889   0.166E-02    0.111E-02
RMM:  10    -0.413328972563E+03   -0.17981E-05   -0.38540E-05  5393   0.730E-03    0.867E-03
RMM:  11    -0.413328971483E+03    0.10799E-05   -0.85119E-06  3584   0.391E-03    0.384E-03
RMM:  12    -0.413328972411E+03   -0.92758E-06   -0.44607E-06  2988   0.297E-03
  141 T=    96. E= -.41285857E+03 F= -.41332897E+03 E0= -.41330519E+03  EK= 0.47040E+00 SP= 0.00E+00 SK= 0.00E+00
       N       E                     dE             d eps       ncg     rms          rms(c)
RMM:   1    -0.413704530145E+03   -0.37556E+00   -0.13136E+01  4274   0.667E+00    0.178E+00
RMM:   2    -0.413668285298E+03    0.36245E-01   -0.53278E-01  5401   0.905E-01    0.165E+00
RMM:   3    -0.413748293604E+03   -0.80008E-01   -0.18754E-01  5451   0.459E-01    0.180E+00
RMM:   4    -0.413654800298E+03    0.93493E-01   -0.13153E-01  5208   0.406E-01    0.864E-01
RMM:   5    -0.413643237794E+03    0.11563E-01   -0.48734E-02  4614   0.310E-01    0.264E-01
RMM:   6    -0.413640518960E+03    0.27188E-02   -0.12776E-02  4956   0.146E-01    0.134E-01
RMM:   7    -0.413639826338E+03    0.69262E-03   -0.23997E-03  5013   0.670E-02    0.707E-02
RMM:   8    -0.413639691566E+03    0.13477E-03   -0.48613E-04  4613   0.306E-02    0.405E-02
RMM:   9    -0.413639683496E+03    0.80701E-05   -0.30506E-04  4879   0.219E-02    0.170E-02
RMM:  10    -0.413639686886E+03   -0.33894E-05   -0.91348E-05  5876   0.107E-02    0.106E-02
RMM:  11    -0.413639688131E+03   -0.12457E-05   -0.18360E-05  4483   0.525E-03    0.517E-03
RMM:  12    -0.413639692259E+03   -0.41279E-05   -0.71917E-06  3384   0.372E-03    0.314E-03
RMM:  13    -0.413639695112E+03   -0.28529E-05   -0.16481E-06  2603   0.212E-03    0.173E-03
RMM:  14    -0.413639697919E+03   -0.28066E-05   -0.80227E-07  2483   0.144E-03    0.922E-04
RMM:  15    -0.413639700516E+03   -0.25966E-05   -0.62741E-07  2258   0.117E-03    0.421E-04
RMM:  16    -0.413639702450E+03   -0.19340E-05   -0.42696E-07  1866   0.953E-04    0.257E-04
RMM:  17    -0.413639704640E+03   -0.21907E-05   -0.40826E-07  1892   0.918E-04    0.182E-04
RMM:  18    -0.413639706405E+03   -0.17651E-05   -0.30741E-07  1587   0.786E-04    0.116E-04
RMM:  19    -0.413639707768E+03   -0.13622E-05   -0.22656E-07  1412   0.714E-04    0.744E-05
RMM:  20    -0.413639708890E+03   -0.11221E-05   -0.16500E-07  1256   0.659E-04    0.536E-05
RMM:  21    -0.413639709538E+03   -0.64876E-06   -0.10385E-07  1108   0.608E-04
  142 T=   153. E= -.41288977E+03 F= -.41363971E+03 E0= -.41361601E+03  EK= 0.74994E+00 SP= 0.00E+00 SK= 0.00E+00
       N       E                     dE             d eps       ncg     rms          rms(c)
RMM:   1    -0.413955842018E+03   -0.31613E+00   -0.20344E+01  4284   0.819E+00    0.190E+00
RMM:   2    -0.413823474785E+03    0.13237E+00   -0.72704E-01  5386   0.108E+00    0.181E+00
RMM:   3    -0.413875427008E+03   -0.51952E-01   -0.16334E-01  5533   0.459E-01    0.166E+00
RMM:   4    -0.413848372790E+03    0.27054E-01   -0.13777E-01  5247   0.382E-01    0.123E+00
RMM:   5    -0.413809672184E+03    0.38701E-01   -0.67826E-02  4458   0.368E-01    0.323E-01
RMM:   6    -0.413805667348E+03    0.40048E-02   -0.11744E-02  4698   0.152E-01    0.130E-01
RMM:   7    -0.413805453509E+03    0.21384E-03   -0.36773E-03  5667   0.720E-02    0.870E-02
RMM:   8    -0.413805187200E+03    0.26631E-03   -0.10284E-03  5015   0.395E-02    0.513E-02
RMM:   9    -0.413805146283E+03    0.40917E-04   -0.40675E-04  4599   0.270E-02    0.201E-02
RMM:  10    -0.413805150856E+03   -0.45726E-05   -0.13878E-04  5775   0.139E-02    0.119E-02
RMM:  11    -0.413805154814E+03   -0.39580E-05   -0.34246E-05  5375   0.683E-03    0.736E-03
RMM:  12    -0.413805158512E+03   -0.36989E-05   -0.74160E-06  3402   0.378E-03    0.403E-03
RMM:  13    -0.413805164369E+03   -0.58561E-05   -0.40834E-06  2887   0.316E-03    0.290E-03
RMM:  14    -0.413805169642E+03   -0.52738E-05   -0.13871E-06  2559   0.205E-03    0.136E-03
RMM:  15    -0.413805173097E+03   -0.34543E-05   -0.67503E-07  2494   0.131E-03    0.598E-04
RMM:  16    -0.413805176817E+03   -0.37207E-05   -0.54207E-07  2068   0.104E-03    0.383E-04
RMM:  17    -0.413805181777E+03   -0.49597E-05   -0.69568E-07  2235   0.107E-03    0.300E-04
RMM:  18    -0.413805184459E+03   -0.26824E-05   -0.37825E-07  1627   0.810E-04    0.168E-04
RMM:  19    -0.413805188066E+03   -0.36065E-05   -0.46351E-07  1811   0.857E-04    0.144E-04
RMM:  20    -0.413805189848E+03   -0.17817E-05   -0.22180E-07  1258   0.672E-04    0.943E-05
RMM:  21    -0.413805191743E+03   -0.18953E-05   -0.17923E-07  1264   0.658E-04    0.473E-05
RMM:  22    -0.413805192355E+03   -0.61257E-06   -0.90070E-08  1039   0.589E-04
  143 T=   186. E= -.41288939E+03 F= -.41380519E+03 E0= -.41378193E+03  EK= 0.91580E+00 SP= 0.00E+00 SK= 0.00E+00
       N       E                     dE             d eps       ncg     rms          rms(c)
RMM:   1    -0.413886599568E+03   -0.81408E-01   -0.21058E+01  4283   0.842E+00    0.158E+00
RMM:   2    -0.413757774959E+03    0.12882E+00   -0.65284E-01  5365   0.102E+00    0.153E+00
RMM:   3    -0.413759156644E+03   -0.13817E-02   -0.79987E-02  5526   0.341E-01    0.113E+00
RMM:   4    -0.413960255812E+03   -0.20110E+00   -0.22143E-01  5238   0.432E-01    0.201E+00
RMM:   5    -0.413755957068E+03    0.20430E+00   -0.13617E-01  4811   0.430E-01    0.354E-01
RMM:   6    -0.413751926675E+03    0.40304E-02   -0.29670E-02  5402   0.203E-01    0.135E-01
RMM:   7    -0.413751702823E+03    0.22385E-03   -0.58894E-03  5784   0.820E-02    0.831E-02
RMM:   8    -0.413751471386E+03    0.23144E-03   -0.10663E-03  4993   0.384E-02    0.454E-02
RMM:   9    -0.413751457947E+03    0.13440E-04   -0.41458E-04  5051   0.260E-02    0.211E-02
RMM:  10    -0.413751457962E+03   -0.15578E-07   -0.13393E-04  5705   0.135E-02    0.131E-02
RMM:  11    -0.413751459645E+03   -0.16830E-05   -0.39749E-05  5403   0.700E-03    0.682E-03
RMM:  12    -0.413751463556E+03   -0.39112E-05   -0.84344E-06  3479   0.375E-03    0.418E-03
RMM:  13    -0.413751467305E+03   -0.37491E-05   -0.21453E-06  2646   0.244E-03    0.203E-03
RMM:  14    -0.413751471992E+03   -0.46865E-05   -0.12771E-06  2556   0.182E-03    0.105E-03
RMM:  15    -0.413751476474E+03   -0.44818E-05   -0.79820E-07  2467   0.137E-03    0.482E-04
RMM:  16    -0.413751479807E+03   -0.33327E-05   -0.52611E-07  2055   0.103E-03    0.307E-04
RMM:  17    -0.413751483978E+03   -0.41715E-05   -0.58102E-07  2145   0.103E-03    0.227E-04
RMM:  18    -0.413751488004E+03   -0.40263E-05   -0.54109E-07  1866   0.925E-04    0.149E-04
RMM:  19    -0.413751491276E+03   -0.32721E-05   -0.41053E-07  1659   0.824E-04    0.123E-04
RMM:  20    -0.413751493227E+03   -0.19506E-05   -0.23314E-07  1363   0.697E-04    0.954E-05
RMM:  21    -0.413751494354E+03   -0.11271E-05   -0.12591E-07  1115   0.611E-04    0.439E-05
RMM:  22    -0.413751495296E+03   -0.94153E-06   -0.80910E-08  1041   0.581E-04
  144 T=   177. E= -.41288038E+03 F= -.41375150E+03 E0= -.41372891E+03  EK= 0.87111E+00 SP= 0.00E+00 SK= 0.00E+00
       N       E                     dE             d eps       ncg     rms          rms(c)
RMM:   1    -0.413695761571E+03    0.55733E-01   -0.17226E+01  4283   0.775E+00    0.113E+00
RMM:   2    -0.413619838839E+03    0.75923E-01   -0.45236E-01  5370   0.803E-01    0.101E+00
RMM:   3    -0.413621106942E+03   -0.12681E-02   -0.51194E-02  5631   0.273E-01    0.647E-01
RMM:   4    -0.413623307650E+03   -0.22007E-02   -0.36671E-02  4667   0.251E-01    0.280E-01
RMM:   5    -0.413635260088E+03   -0.11952E-01   -0.21675E-02  5158   0.158E-01    0.515E-01
RMM:   6    -0.413619809398E+03    0.15451E-01   -0.76194E-03  5107   0.994E-02    0.782E-02
RMM:   7    -0.413619827708E+03   -0.18310E-04   -0.22000E-03  5871   0.520E-02    0.576E-02
RMM:   8    -0.413619745095E+03    0.82613E-04   -0.56742E-04  5196   0.279E-02    0.316E-02
RMM:   9    -0.413619741017E+03    0.40781E-05   -0.19500E-04  5246   0.179E-02    0.139E-02
RMM:  10    -0.413619741674E+03   -0.65707E-06   -0.43198E-05  5448   0.766E-03    0.880E-03
RMM:  11    -0.413619742365E+03   -0.69057E-06   -0.10147E-05  3861   0.419E-03    0.458E-03
RMM:  12    -0.413619744448E+03   -0.20829E-05   -0.30315E-06  2787   0.283E-03    0.255E-03
RMM:  13    -0.413619746242E+03   -0.17946E-05   -0.10239E-06  2514   0.177E-03    0.117E-03
RMM:  14    -0.413619747937E+03   -0.16941E-05   -0.66888E-07  2464   0.131E-03    0.585E-04
RMM:  15    -0.413619749449E+03   -0.15127E-05   -0.44978E-07  2143   0.103E-03    0.381E-04
RMM:  16    -0.413619750919E+03   -0.14694E-05   -0.32421E-07  1677   0.873E-04    0.194E-04
RMM:  17    -0.413619752040E+03   -0.11214E-05   -0.23761E-07  1537   0.779E-04    0.112E-04
RMM:  18    -0.413619753503E+03   -0.14633E-05   -0.25652E-07  1699   0.773E-04    0.103E-04
RMM:  19    -0.413619754131E+03   -0.62790E-06   -0.13073E-07  1214   0.622E-04
  145 T=   155. E= -.41286055E+03 F= -.41361975E+03 E0= -.41359760E+03  EK= 0.75920E+00 SP= 0.00E+00 SK= 0.00E+00
       N       E                     dE             d eps       ncg     rms          rms(c)
RMM:   1    -0.413725190014E+03   -0.10544E+00   -0.15122E+01  4289   0.738E+00    0.101E+00
RMM:   2    -0.413686604315E+03    0.38586E-01   -0.37580E-01  5377   0.733E-01    0.934E-01
RMM:   3    -0.413693754136E+03   -0.71498E-02   -0.85337E-02  5592   0.316E-01    0.964E-01
RMM:   4    -0.413668663345E+03    0.25091E-01   -0.45442E-02  5077   0.254E-01    0.425E-01
RMM:   5    -0.413667447905E+03    0.12154E-02   -0.21050E-02  4751   0.194E-01    0.192E-01
RMM:   6    -0.413666841959E+03    0.60595E-03   -0.10398E-02  5038   0.125E-01    0.126E-01
RMM:   7    -0.413666156790E+03    0.68517E-03   -0.14732E-03  4703   0.552E-02    0.589E-02
RMM:   8    -0.413666141149E+03    0.15642E-04   -0.45601E-04  5472   0.255E-02    0.343E-02
RMM:   9    -0.413666136760E+03    0.43889E-05   -0.23277E-04  4917   0.193E-02    0.194E-02
RMM:  10    -0.413666133126E+03    0.36334E-05   -0.50557E-05  5383   0.886E-03    0.115E-02
RMM:  11    -0.413666132958E+03    0.16875E-06   -0.31636E-05  5000   0.683E-03    0.606E-03
RMM:  12    -0.413666133876E+03   -0.91800E-06   -0.48950E-06  3047   0.329E-03
  146 T=   163. E= -.41286581E+03 F= -.41366613E+03 E0= -.41364392E+03  EK= 0.80032E+00 SP= 0.00E+00 SK= 0.00E+00
       N       E                     dE             d eps       ncg     rms          rms(c)
RMM:   1    -0.413939640580E+03   -0.27351E+00   -0.18705E+01  4296   0.816E+00    0.175E+00
RMM:   2    -0.413925544404E+03    0.14096E-01   -0.65247E-01  5336   0.101E+00    0.183E+00
RMM:   3    -0.413894643946E+03    0.30900E-01   -0.19968E-01  5431   0.495E-01    0.164E+00
RMM:   4    -0.413835381768E+03    0.59262E-01   -0.11758E-01  5082   0.409E-01    0.750E-01
RMM:   5    -0.413835372348E+03    0.94201E-05   -0.53165E-02  5026   0.298E-01    0.351E-01
RMM:   6    -0.413830599298E+03    0.47731E-02   -0.26453E-02  4950   0.198E-01    0.164E-01
RMM:   7    -0.413829544153E+03    0.10551E-02   -0.32923E-03  4981   0.838E-02    0.762E-02
RMM:   8    -0.413829466400E+03    0.77753E-04   -0.49935E-04  4783   0.307E-02    0.445E-02
RMM:   9    -0.413829462397E+03    0.40026E-05   -0.33482E-04  4905   0.234E-02    0.234E-02
RMM:  10    -0.413829459563E+03    0.28341E-05   -0.90450E-05  5528   0.115E-02    0.123E-02
RMM:  11    -0.413829461488E+03   -0.19249E-05   -0.53313E-05  5758   0.844E-03    0.790E-03
RMM:  12    -0.413829462217E+03   -0.72965E-06   -0.10027E-05  3951   0.434E-03    0.461E-03
RMM:  13    -0.413829462621E+03   -0.40342E-06   -0.40989E-06  2907   0.300E-03
  147 T=   193. E= -.41288193E+03 F= -.41382946E+03 E0= -.41380700E+03  EK= 0.94753E+00 SP= 0.00E+00 SK= 0.00E+00
       N       E                     dE             d eps       ncg     rms          rms(c)
RMM:   1    -0.414040330726E+03   -0.21087E+00   -0.21454E+01  4296   0.870E+00    0.168E+00
RMM:   2    -0.413994649653E+03    0.45681E-01   -0.77573E-01  5355   0.111E+00    0.188E+00
RMM:   3    -0.413952746265E+03    0.41903E-01   -0.20447E-01  5463   0.509E-01    0.164E+00
RMM:   4    -0.413894633855E+03    0.58112E-01   -0.98459E-02  5106   0.381E-01    0.828E-01
RMM:   5    -0.413895867137E+03   -0.12333E-02   -0.52244E-02  5061   0.298E-01    0.372E-01
RMM:   6    -0.413892282924E+03    0.35842E-02   -0.33282E-02  5037   0.216E-01    0.187E-01
RMM:   7    -0.413890472698E+03    0.18102E-02   -0.49324E-03  4935   0.990E-02    0.865E-02
RMM:   8    -0.413890334774E+03    0.13792E-03   -0.68835E-04  4898   0.369E-02    0.514E-02
RMM:   9    -0.413890312439E+03    0.22335E-04   -0.44616E-04  4999   0.267E-02    0.263E-02
RMM:  10    -0.413890310625E+03    0.18146E-05   -0.13280E-04  5623   0.139E-02    0.142E-02
RMM:  11    -0.413890311084E+03   -0.45919E-06   -0.60855E-05  5837   0.909E-03    0.841E-03
RMM:  12    -0.413890310720E+03    0.36375E-06   -0.11879E-05  4217   0.459E-03    0.504E-03
RMM:  13    -0.413890310478E+03    0.24160E-06   -0.50423E-06  3077   0.324E-03
  148 T=   206. E= -.41287789E+03 F= -.41389031E+03 E0= -.41386777E+03  EK= 0.10124E+01 SP= 0.00E+00 SK= 0.00E+00
       N       E                     dE             d eps       ncg     rms          rms(c)
RMM:   1    -0.414006879305E+03   -0.11657E+00   -0.21173E+01  4291   0.865E+00    0.121E+00
RMM:   2    -0.413930623643E+03    0.76256E-01   -0.67603E-01  5383   0.104E+00    0.142E+00
RMM:   3    -0.413913112758E+03    0.17511E-01   -0.14275E-01  5563   0.427E-01    0.128E+00
RMM:   4    -0.413873388360E+03    0.39724E-01   -0.52671E-02  5160   0.284E-01    0.681E-01
RMM:   5    -0.413872679261E+03    0.70910E-03   -0.30105E-02  4772   0.238E-01    0.289E-01
RMM:   6    -0.413872467747E+03    0.21151E-03   -0.23080E-02  5166   0.179E-01    0.169E-01
RMM:   7    -0.413870811676E+03    0.16561E-02   -0.48254E-03  5022   0.908E-02    0.813E-02
RMM:   8    -0.413870687502E+03    0.12417E-03   -0.72787E-04  5316   0.359E-02    0.520E-02
RMM:   9    -0.413870638655E+03    0.48846E-04   -0.38738E-04  4622   0.254E-02    0.207E-02
RMM:  10    -0.413870644529E+03   -0.58734E-05   -0.14025E-04  5701   0.139E-02    0.133E-02
RMM:  11    -0.413870642375E+03    0.21540E-05   -0.29509E-05  5101   0.667E-03    0.634E-03
RMM:  12    -0.413870641741E+03    0.63421E-06   -0.85923E-06  3579   0.389E-03
  149 T=   203. E= -.41287195E+03 F= -.41387064E+03 E0= -.41384815E+03  EK= 0.99869E+00 SP= 0.00E+00 SK= 0.00E+00
       N       E                     dE             d eps       ncg     rms          rms(c)
RMM:   1    -0.413958719903E+03   -0.88078E-01   -0.20256E+01  4273   0.846E+00    0.101E+00
RMM:   2    -0.413874318305E+03    0.84402E-01   -0.60683E-01  5403   0.969E-01    0.109E+00
RMM:   3    -0.413884118557E+03   -0.98003E-02   -0.10823E-01  5682   0.367E-01    0.111E+00
RMM:   4    -0.413850364505E+03    0.33754E-01   -0.38965E-02  5233   0.240E-01    0.593E-01
RMM:   5    -0.413848254109E+03    0.21104E-02   -0.18451E-02  4392   0.198E-01    0.211E-01
RMM:   6    -0.413848577991E+03   -0.32388E-03   -0.10858E-02  5309   0.128E-01    0.114E-01
RMM:   7    -0.413848003401E+03    0.57459E-03   -0.29484E-03  5320   0.661E-02    0.705E-02
RMM:   8    -0.413847862447E+03    0.14095E-03   -0.46097E-04  5076   0.289E-02    0.450E-02
RMM:   9    -0.413847826925E+03    0.35522E-04   -0.32834E-04  4614   0.235E-02    0.165E-02
RMM:  10    -0.413847832771E+03   -0.58462E-05   -0.11005E-04  5757   0.123E-02    0.125E-02
RMM:  11    -0.413847829979E+03    0.27915E-05   -0.21409E-05  4502   0.598E-03    0.524E-03
RMM:  12    -0.413847830380E+03   -0.40047E-06   -0.64787E-06  3180   0.337E-03
  150 T=   199. E= -.41287153E+03 F= -.41384783E+03 E0= -.41382539E+03  EK= 0.97630E+00 SP= 0.00E+00 SK= 0.00E+00
