       N       E                     dE             d eps       ncg     rms          rms(c)
RMM:   1     0.220140521023E+04    0.22014E+04   -0.52441E+04  2132   0.654E+02
RMM:   2     0.705654200506E+03   -0.14958E+04   -0.16259E+04  2132   0.177E+02
RMM:   3     0.137628478991E+03   -0.56803E+03   -0.65707E+03  2132   0.117E+02
RMM:   4    -0.159232765534E+03   -0.29686E+03   -0.27838E+03  2132   0.936E+01
RMM:   5    -0.287522970667E+03   -0.12829E+03   -0.11445E+03  2132   0.595E+01
RMM:   6    -0.349838724619E+03   -0.62316E+02   -0.55117E+02  2132   0.423E+01
RMM:   7    -0.382736946550E+03   -0.32898E+02   -0.30403E+02  2132   0.293E+01
RMM:   8    -0.404132036926E+03   -0.21395E+02   -0.18444E+02  2132   0.233E+01
RMM:   9    -0.435993758050E+03   -0.31862E+02   -0.30788E+02  6106   0.173E+01
RMM:  10    -0.441274291019E+03   -0.52805E+01   -0.63112E+01  6395   0.540E+00
RMM:  11    -0.442499275125E+03   -0.12250E+01   -0.11273E+01  6212   0.174E+00
RMM:  12    -0.442877850121E+03   -0.37857E+00   -0.27104E+00  6364   0.606E-01    0.134E+02
RMM:  13    -0.425609718209E+03    0.17268E+02   -0.81491E+01  4679   0.120E+01    0.712E+01
RMM:  14    -0.499208314361E+03   -0.73599E+02   -0.54175E+02  5426   0.232E+01    0.306E+01
RMM:  15    -0.414977010180E+03    0.84231E+02   -0.19807E+02  5062   0.163E+01    0.647E+00
RMM:  16    -0.414033918521E+03    0.94309E+00   -0.39562E+01  6078   0.608E+00    0.428E+00
RMM:  17    -0.413211561409E+03    0.82236E+00   -0.24180E+00  5383   0.185E+00    0.244E+00
RMM:  18    -0.413172899047E+03    0.38662E-01   -0.83160E-01  5974   0.928E-01    0.164E+00
RMM:  19    -0.413166960131E+03    0.59389E-02   -0.32007E-01  5714   0.597E-01    0.846E-01
RMM:  20    -0.413179989931E+03   -0.13030E-01   -0.18885E-01  5461   0.468E-01    0.488E-01
RMM:  21    -0.413167577632E+03    0.12412E-01   -0.32431E-02  5012   0.213E-01    0.234E-01
RMM:  22    -0.413166164956E+03    0.14127E-02   -0.13547E-02  6102   0.922E-02    0.143E-01
RMM:  23    -0.413164557343E+03    0.16076E-02   -0.55080E-03  5800   0.668E-02    0.819E-02
RMM:  24    -0.413163051949E+03    0.15054E-02   -0.18330E-03  5482   0.403E-02    0.367E-02
RMM:  25    -0.413162769448E+03    0.28250E-03   -0.92483E-04  5764   0.247E-02    0.284E-02
RMM:  26    -0.413162971396E+03   -0.20195E-03   -0.62111E-04  5883   0.249E-02    0.321E-02
RMM:  27    -0.413163394008E+03   -0.42261E-03   -0.21676E-04  4578   0.201E-02    0.154E-02
RMM:  28    -0.413163894777E+03   -0.50077E-03   -0.21060E-04  5298   0.204E-02    0.933E-03
RMM:  29    -0.413164222390E+03   -0.32761E-03   -0.94060E-05  4340   0.135E-02    0.458E-03
RMM:  30    -0.413164435182E+03   -0.21279E-03   -0.72076E-05  4073   0.997E-03    0.268E-03
RMM:  31    -0.413164536835E+03   -0.10165E-03   -0.48759E-05  3146   0.624E-03    0.237E-03
RMM:  32    -0.413164558590E+03   -0.21756E-04   -0.20744E-05  2927   0.302E-03    0.115E-03
RMM:  33    -0.413164563754E+03   -0.51639E-05   -0.84480E-06  2745   0.194E-03    0.440E-04
RMM:  34    -0.413164563370E+03    0.38425E-06   -0.42088E-06  2654   0.158E-03
    1 T=    61. E= -.41286676E+03 F= -.41316456E+03 E0= -.41314207E+03  EK= 0.29781E+00 SP= 0.00E+00 SK= 0.00E+00
       N       E                     dE             d eps       ncg     rms          rms(c)
RMM:   1    -0.413168559442E+03   -0.39957E-02   -0.75878E+00  3981   0.554E-01    0.893E-01
RMM:   2    -0.413170047447E+03   -0.14880E-02   -0.94713E-02  3939   0.806E-02    0.658E-01
RMM:   3    -0.413165878985E+03    0.41685E-02   -0.31046E-02  5002   0.660E-02    0.196E-01
RMM:   4    -0.413194203024E+03   -0.28324E-01   -0.35022E-02  5181   0.157E-01    0.715E-01
RMM:   5    -0.413164051787E+03    0.30151E-01   -0.14083E-02  4816   0.121E-01    0.528E-02
RMM:   6    -0.413164247521E+03   -0.19573E-03   -0.26332E-03  5720   0.504E-02    0.347E-02
RMM:   7    -0.413164255735E+03   -0.82137E-05   -0.46765E-04  5806   0.192E-02    0.222E-02
RMM:   8    -0.413164253492E+03    0.22427E-05   -0.57068E-05  5225   0.838E-03    0.906E-03
RMM:   9    -0.413164255838E+03   -0.23457E-05   -0.12245E-05  3675   0.365E-03    0.631E-03
RMM:  10    -0.413164261222E+03   -0.53843E-05   -0.24773E-06  2613   0.228E-03    0.377E-03
RMM:  11    -0.413164264958E+03   -0.37359E-05   -0.12052E-06  2516   0.161E-03    0.209E-03
RMM:  12    -0.413164271349E+03   -0.63910E-05   -0.15202E-06  2542   0.173E-03    0.959E-04
RMM:  13    -0.413164274868E+03   -0.35185E-05   -0.75916E-07  2396   0.126E-03    0.725E-04
RMM:  14    -0.413164274864E+03    0.35761E-08   -0.37287E-07  1907   0.859E-04
    2 T=    61. E= -.41286655E+03 F= -.41316427E+03 E0= -.41314177E+03  EK= 0.29772E+00 SP= 0.00E+00 SK= 0.00E+00
       N       E                     dE             d eps       ncg     rms          rms(c)
RMM:   1    -0.413169525646E+03   -0.52508E-02   -0.75579E+00  4191   0.556E-01    0.908E-01
RMM:   2    -0.413170267812E+03   -0.74217E-03   -0.94573E-02  3953   0.803E-02    0.656E-01
RMM:   3    -0.413166039265E+03    0.42285E-02   -0.28417E-02  4975   0.590E-02    0.162E-01
RMM:   4    -0.413194194061E+03   -0.28155E-01   -0.32351E-02  5152   0.151E-01    0.710E-01
RMM:   5    -0.413164664302E+03    0.29530E-01   -0.13735E-02  4807   0.119E-01    0.506E-02
RMM:   6    -0.413164868016E+03   -0.20371E-03   -0.25751E-03  5736   0.498E-02    0.367E-02
RMM:   7    -0.413164853576E+03    0.14440E-04   -0.46270E-04  5631   0.204E-02    0.232E-02
RMM:   8    -0.413164843298E+03    0.10278E-04   -0.61227E-05  5230   0.898E-03    0.106E-02
RMM:   9    -0.413164841410E+03    0.18875E-05   -0.12438E-05  3816   0.392E-03    0.749E-03
RMM:  10    -0.413164841653E+03   -0.24241E-06   -0.22785E-06  2594   0.240E-03
    3 T=    61. E= -.41286693E+03 F= -.41316484E+03 E0= -.41314235E+03  EK= 0.29791E+00 SP= 0.00E+00 SK= 0.00E+00
       N       E                     dE             d eps       ncg     rms          rms(c)
RMM:   1    -0.413168939829E+03   -0.40984E-02   -0.75039E+00  4220   0.560E-01    0.894E-01
RMM:   2    -0.413169863127E+03   -0.92330E-03   -0.94131E-02  4261   0.799E-02    0.650E-01
RMM:   3    -0.413173879493E+03   -0.40164E-02   -0.34031E-02  5172   0.101E-01    0.411E-01
RMM:   4    -0.413181384822E+03   -0.75053E-02   -0.34943E-02  5082   0.163E-01    0.540E-01
RMM:   5    -0.413164602387E+03    0.16782E-01   -0.60496E-03  4611   0.902E-02    0.553E-02
RMM:   6    -0.413164594889E+03    0.74976E-05   -0.12856E-03  5320   0.362E-02    0.319E-02
RMM:   7    -0.413164605995E+03   -0.11106E-04   -0.26968E-04  5814   0.156E-02    0.184E-02
RMM:   8    -0.413164602802E+03    0.31923E-05   -0.44613E-05  5039   0.806E-03    0.718E-03
RMM:   9    -0.413164601668E+03    0.11339E-05   -0.50068E-06  2964   0.307E-03    0.369E-03
RMM:  10    -0.413164602781E+03   -0.11128E-05   -0.14026E-06  2529   0.198E-03    0.223E-03
RMM:  11    -0.413164604024E+03   -0.12427E-05   -0.10621E-06  2500   0.160E-03    0.114E-03
RMM:  12    -0.413164604833E+03   -0.80870E-06   -0.73320E-07  2441   0.129E-03
    4 T=    61. E= -.41286671E+03 F= -.41316460E+03 E0= -.41314212E+03  EK= 0.29789E+00 SP= 0.00E+00 SK= 0.00E+00
       N       E                     dE             d eps       ncg     rms          rms(c)
RMM:   1    -0.413169013046E+03   -0.44090E-02   -0.75784E+00  4234   0.568E-01    0.890E-01
RMM:   2    -0.413170302758E+03   -0.12897E-02   -0.94939E-02  3987   0.784E-02    0.657E-01
RMM:   3    -0.413166473191E+03    0.38296E-02   -0.31069E-02  4993   0.635E-02    0.199E-01
RMM:   4    -0.413194994151E+03   -0.28521E-01   -0.34557E-02  5136   0.157E-01    0.721E-01
RMM:   5    -0.413164554354E+03    0.30440E-01   -0.14098E-02  4784   0.121E-01    0.507E-02
RMM:   6    -0.413164764261E+03   -0.20991E-03   -0.25608E-03  5725   0.500E-02    0.351E-02
RMM:   7    -0.413164759042E+03    0.52192E-05   -0.45170E-04  5685   0.199E-02    0.226E-02
RMM:   8    -0.413164756054E+03    0.29876E-05   -0.58727E-05  5162   0.886E-03    0.100E-02
RMM:   9    -0.413164757137E+03   -0.10835E-05   -0.11702E-05  3748   0.388E-03    0.696E-03
RMM:  10    -0.413164761598E+03   -0.44603E-05   -0.20794E-06  2578   0.232E-03    0.413E-03
RMM:  11    -0.413164764870E+03   -0.32726E-05   -0.11037E-06  2525   0.168E-03    0.232E-03
RMM:  12    -0.413164770415E+03   -0.55441E-05   -0.17216E-06  2571   0.191E-03    0.108E-03
RMM:  13    -0.413164773152E+03   -0.27374E-05   -0.72562E-07  2422   0.135E-03    0.874E-04
RMM:  14    -0.413164772845E+03    0.30721E-06   -0.25976E-07  1928   0.874E-04
    5 T=    61. E= -.41286676E+03 F= -.41316477E+03 E0= -.41314230E+03  EK= 0.29802E+00 SP= 0.00E+00 SK= 0.00E+00
       N       E                     dE             d eps       ncg     rms          rms(c)
RMM:   1    -0.413169848530E+03   -0.50754E-02   -0.75650E+00  4244   0.569E-01    0.906E-01
RMM:   2    -0.413170518219E+03   -0.66969E-03   -0.94697E-02  4014   0.776E-02    0.657E-01
RMM:   3    -0.413166466911E+03    0.40513E-02   -0.28879E-02  4974   0.572E-02    0.164E-01
RMM:   4    -0.413194094290E+03   -0.27627E-01   -0.31701E-02  5132   0.150E-01    0.704E-01
RMM:   5    -0.413165076034E+03    0.29018E-01   -0.13589E-02  4801   0.117E-01    0.499E-02
RMM:   6    -0.413165278287E+03   -0.20225E-03   -0.24558E-03  5729   0.490E-02    0.360E-02
RMM:   7    -0.413165260976E+03    0.17311E-04   -0.44076E-04  5612   0.202E-02    0.227E-02
RMM:   8    -0.413165252798E+03    0.81785E-05   -0.58752E-05  5169   0.879E-03    0.104E-02
RMM:   9    -0.413165250815E+03    0.19821E-05   -0.11613E-05  3743   0.383E-03    0.734E-03
RMM:  10    -0.413165251016E+03   -0.20063E-06   -0.21369E-06  2574   0.235E-03
    6 T=    61. E= -.41286696E+03 F= -.41316525E+03 E0= -.41314279E+03  EK= 0.29829E+00 SP= 0.00E+00 SK= 0.00E+00
       N       E                     dE             d eps       ncg     rms          rms(c)
RMM:   1    -0.413169512376E+03   -0.42616E-02   -0.75197E+00  4259   0.573E-01    0.900E-01
RMM:   2    -0.413170249594E+03   -0.73722E-03   -0.94290E-02  4289   0.792E-02    0.651E-01
RMM:   3    -0.413173397682E+03   -0.31481E-02   -0.33152E-02  5153   0.971E-02    0.391E-01
RMM:   4    -0.413182948123E+03   -0.95504E-02   -0.35201E-02  5074   0.163E-01    0.557E-01
RMM:   5    -0.413164999126E+03    0.17949E-01   -0.65749E-03  4637   0.926E-02    0.555E-02
RMM:   6    -0.413165002815E+03   -0.36885E-05   -0.13716E-03  5365   0.373E-02    0.324E-02
RMM:   7    -0.413165014084E+03   -0.11269E-04   -0.27983E-04  5825   0.158E-02    0.188E-02
RMM:   8    -0.413165007792E+03    0.62920E-05   -0.45831E-05  5031   0.823E-03    0.732E-03
RMM:   9    -0.413165005471E+03    0.23210E-05   -0.55364E-06  2987   0.313E-03    0.378E-03
RMM:  10    -0.413165005204E+03    0.26635E-06   -0.14314E-06  2515   0.200E-03
    7 T=    61. E= -.41286662E+03 F= -.41316501E+03 E0= -.41314256E+03  EK= 0.29838E+00 SP= 0.00E+00 SK= 0.00E+00
       N       E                     dE             d eps       ncg     rms          rms(c)
RMM:   1    -0.413169709398E+03   -0.47039E-02   -0.75628E+00  4269   0.580E-01    0.889E-01
RMM:   2    -0.413171304823E+03   -0.15954E-02   -0.94539E-02  4099   0.805E-02    0.655E-01
RMM:   3    -0.413167559235E+03    0.37456E-02   -0.30847E-02  4988   0.674E-02    0.208E-01
RMM:   4    -0.413196709617E+03   -0.29150E-01   -0.36196E-02  5123   0.161E-01    0.731E-01
RMM:   5    -0.413165399484E+03    0.31310E-01   -0.14340E-02  4782   0.122E-01    0.515E-02
RMM:   6    -0.413165605146E+03   -0.20566E-03   -0.26044E-03  5695   0.504E-02    0.352E-02
RMM:   7    -0.413165601894E+03    0.32523E-05   -0.45448E-04  5689   0.198E-02    0.227E-02
RMM:   8    -0.413165595535E+03    0.63590E-05   -0.60106E-05  5189   0.891E-03    0.997E-03
RMM:   9    -0.413165595097E+03    0.43705E-06   -0.11662E-05  3727   0.384E-03    0.676E-03
RMM:  10    -0.413165597700E+03   -0.26024E-05   -0.20845E-06  2568   0.232E-03    0.402E-03
RMM:  11    -0.413165599702E+03   -0.20018E-05   -0.10429E-06  2514   0.165E-03    0.227E-03
RMM:  12    -0.413165603018E+03   -0.33166E-05   -0.16400E-06  2556   0.187E-03    0.106E-03
RMM:  13    -0.413165604502E+03   -0.14833E-05   -0.76431E-07  2426   0.135E-03    0.892E-04
RMM:  14    -0.413165604248E+03    0.25322E-06   -0.26517E-07  1943   0.880E-04
    8 T=    61. E= -.41286688E+03 F= -.41316560E+03 E0= -.41314317E+03  EK= 0.29872E+00 SP= 0.00E+00 SK= 0.00E+00
       N       E                     dE             d eps       ncg     rms          rms(c)
RMM:   1    -0.413170293635E+03   -0.46891E-02   -0.75808E+00  4279   0.583E-01    0.902E-01
RMM:   2    -0.413171409500E+03   -0.11159E-02   -0.94587E-02  4133   0.808E-02    0.658E-01
RMM:   3    -0.413167134545E+03    0.42750E-02   -0.29688E-02  4939   0.629E-02    0.176E-01
RMM:   4    -0.413195389108E+03   -0.28255E-01   -0.32843E-02  5124   0.152E-01    0.713E-01
RMM:   5    -0.413165578425E+03    0.29811E-01   -0.13953E-02  4789   0.119E-01    0.499E-02
RMM:   6    -0.413165779072E+03   -0.20065E-03   -0.25011E-03  5731   0.494E-02    0.358E-02
RMM:   7    -0.413165767641E+03    0.11430E-04   -0.43806E-04  5619   0.201E-02    0.226E-02
RMM:   8    -0.413165759327E+03    0.83141E-05   -0.58899E-05  5168   0.881E-03    0.103E-02
RMM:   9    -0.413165757570E+03    0.17577E-05   -0.11643E-05  3749   0.385E-03    0.724E-03
RMM:  10    -0.413165758352E+03   -0.78230E-06   -0.20877E-06  2575   0.234E-03
    9 T=    61. E= -.41286684E+03 F= -.41316576E+03 E0= -.41314335E+03  EK= 0.29892E+00 SP= 0.00E+00 SK= 0.00E+00
       N       E                     dE             d eps       ncg     rms          rms(c)
RMM:   1    -0.413170498613E+03   -0.47410E-02   -0.75439E+00  4287   0.587E-01    0.906E-01
RMM:   2    -0.413171297282E+03   -0.79867E-03   -0.94660E-02  4332   0.825E-02    0.654E-01
RMM:   3    -0.413174197354E+03   -0.29001E-02   -0.33175E-02  5134   0.981E-02    0.389E-01
RMM:   4    -0.413183873847E+03   -0.96765E-02   -0.35198E-02  5065   0.162E-01    0.558E-01
RMM:   5    -0.413165855604E+03    0.18018E-01   -0.65561E-03  4634   0.923E-02    0.554E-02
RMM:   6    -0.413165859423E+03   -0.38188E-05   -0.14018E-03  5367   0.373E-02    0.327E-02
RMM:   7    -0.413165864406E+03   -0.49835E-05   -0.28409E-04  5781   0.159E-02    0.189E-02
RMM:   8    -0.413165857514E+03    0.68921E-05   -0.46589E-05  5049   0.808E-03    0.740E-03
RMM:   9    -0.413165853962E+03    0.35517E-05   -0.52918E-06  2970   0.307E-03    0.386E-03
RMM:  10    -0.413165852487E+03    0.14752E-05   -0.14617E-06  2514   0.201E-03    0.233E-03
RMM:  11    -0.413165850566E+03    0.19211E-05   -0.10240E-06  2484   0.159E-03    0.117E-03
RMM:  12    -0.413165848340E+03    0.22264E-05   -0.74046E-07  2449   0.131E-03    0.511E-04
RMM:  13    -0.413165846984E+03    0.13559E-05   -0.36301E-07  1997   0.965E-04    0.314E-04
RMM:  14    -0.413165845440E+03    0.15437E-05   -0.23671E-07  1546   0.787E-04    0.189E-04
RMM:  15    -0.413165842734E+03    0.27064E-05   -0.30393E-07  1771   0.807E-04    0.256E-04
RMM:  16    -0.413165840310E+03    0.24237E-05   -0.20284E-07  1325   0.685E-04    0.163E-04
RMM:  17    -0.413165838879E+03    0.14313E-05   -0.11488E-07  1125   0.615E-04    0.785E-05
RMM:  18    -0.413165837259E+03    0.16199E-05   -0.93865E-08  1082   0.600E-04    0.505E-05
RMM:  19    -0.413165836906E+03    0.35253E-06   -0.36202E-08   770   0.536E-04
   10 T=    61. E= -.41286670E+03 F= -.41316584E+03 E0= -.41314345E+03  EK= 0.29914E+00 SP= 0.00E+00 SK= 0.00E+00
       N       E                     dE             d eps       ncg     rms          rms(c)
RMM:   1    -0.413170834477E+03   -0.49972E-02   -0.75464E+00  4292   0.592E-01    0.889E-01
RMM:   2    -0.413172079555E+03   -0.12451E-02   -0.94457E-02  4204   0.832E-02    0.653E-01
RMM:   3    -0.413168458925E+03    0.36206E-02   -0.30181E-02  4983   0.654E-02    0.200E-01
RMM:   4    -0.413197840177E+03   -0.29381E-01   -0.36298E-02  5118   0.160E-01    0.732E-01
RMM:   5    -0.413166418274E+03    0.31422E-01   -0.14483E-02  4771   0.122E-01    0.515E-02
RMM:   6    -0.413166618346E+03   -0.20007E-03   -0.26065E-03  5695   0.504E-02    0.356E-02
RMM:   7    -0.413166615661E+03    0.26849E-05   -0.45162E-04  5598   0.198E-02    0.226E-02
RMM:   8    -0.413166608817E+03    0.68432E-05   -0.60328E-05  5202   0.887E-03    0.996E-03
RMM:   9    -0.413166607295E+03    0.15221E-05   -0.11826E-05  3801   0.389E-03    0.677E-03
RMM:  10    -0.413166608941E+03   -0.16458E-05   -0.20512E-06  2567   0.229E-03    0.405E-03
RMM:  11    -0.413166610093E+03   -0.11515E-05   -0.97458E-07  2493   0.161E-03    0.231E-03
RMM:  12    -0.413166611961E+03   -0.18683E-05   -0.14443E-06  2527   0.182E-03    0.107E-03
RMM:  13    -0.413166612636E+03   -0.67510E-06   -0.65562E-07  2412   0.132E-03
   11 T=    61. E= -.41286700E+03 F= -.41316661E+03 E0= -.41314425E+03  EK= 0.29961E+00 SP= 0.00E+00 SK= 0.00E+00
       N       E                     dE             d eps       ncg     rms          rms(c)
RMM:   1    -0.413171070271E+03   -0.44583E-02   -0.76024E+00  4289   0.596E-01    0.900E-01
RMM:   2    -0.413172041854E+03   -0.97158E-03   -0.95135E-02  4223   0.796E-02    0.660E-01
RMM:   3    -0.413168081902E+03    0.39600E-02   -0.30488E-02  4956   0.621E-02    0.186E-01
RMM:   4    -0.413196511008E+03   -0.28429E-01   -0.33687E-02  5120   0.154E-01    0.717E-01
RMM:   5    -0.413166380172E+03    0.30131E-01   -0.14058E-02  4778   0.119E-01    0.499E-02
RMM:   6    -0.413166584905E+03   -0.20473E-03   -0.25572E-03  5740   0.495E-02    0.352E-02
RMM:   7    -0.413166577720E+03    0.71846E-05   -0.43504E-04  5646   0.201E-02    0.226E-02
RMM:   8    -0.413166568797E+03    0.89237E-05   -0.60687E-05  5095   0.887E-03    0.104E-02
RMM:   9    -0.413166566810E+03    0.19870E-05   -0.11792E-05  3751   0.393E-03    0.733E-03
RMM:  10    -0.413166567885E+03   -0.10757E-05   -0.20773E-06  2570   0.233E-03    0.433E-03
RMM:  11    -0.413166568764E+03   -0.87853E-06   -0.11088E-06  2497   0.172E-03
   12 T=    61. E= -.41286675E+03 F= -.41316657E+03 E0= -.41314424E+03  EK= 0.29982E+00 SP= 0.00E+00 SK= 0.00E+00
       N       E                     dE             d eps       ncg     rms          rms(c)
RMM:   1    -0.413171955255E+03   -0.53874E-02   -0.75709E+00  4291   0.600E-01    0.911E-01
RMM:   2    -0.413172327709E+03   -0.37245E-03   -0.95075E-02  4241   0.784E-02    0.656E-01
RMM:   3    -0.413168167140E+03    0.41606E-02   -0.28083E-02  4947   0.542E-02    0.147E-01
RMM:   4    -0.413194590827E+03   -0.26424E-01   -0.29651E-02  5122   0.144E-01    0.686E-01
RMM:   5    -0.413167020749E+03    0.27570E-01   -0.13044E-02  4795   0.114E-01    0.492E-02
RMM:   6    -0.413167204415E+03   -0.18367E-03   -0.23822E-03  5761   0.477E-02    0.352E-02
RMM:   7    -0.413167188814E+03    0.15602E-04   -0.41555E-04  5635   0.199E-02    0.226E-02
RMM:   8    -0.413167176433E+03    0.12381E-04   -0.57552E-05  4986   0.879E-03    0.106E-02
RMM:   9    -0.413167171708E+03    0.47251E-05   -0.11877E-05  3742   0.390E-03    0.770E-03
RMM:  10    -0.413167168269E+03    0.34393E-05   -0.21975E-06  2576   0.242E-03    0.445E-03
RMM:  11    -0.413167165757E+03    0.25121E-05   -0.12831E-06  2512   0.183E-03    0.246E-03
RMM:  12    -0.413167161266E+03    0.44902E-05   -0.17452E-06  2571   0.198E-03    0.113E-03
RMM:  13    -0.413167158480E+03    0.27862E-05   -0.59930E-07  2394   0.133E-03    0.816E-04
RMM:  14    -0.413167158472E+03    0.83310E-08   -0.24060E-07  1899   0.854E-04
   13 T=    61. E= -.41286690E+03 F= -.41316716E+03 E0= -.41314486E+03  EK= 0.30026E+00 SP= 0.00E+00 SK= 0.00E+00
       N       E                     dE             d eps       ncg     rms          rms(c)
RMM:   1    -0.413172082935E+03   -0.49245E-02   -0.75404E+00  4296   0.602E-01    0.891E-01
RMM:   2    -0.413173182567E+03   -0.10996E-02   -0.94479E-02  4244   0.789E-02    0.652E-01
RMM:   3    -0.413169297219E+03    0.38853E-02   -0.29503E-02  4969   0.608E-02    0.182E-01
RMM:   4    -0.413198158182E+03   -0.28861E-01   -0.34322E-02  5118   0.155E-01    0.722E-01
RMM:   5    -0.413167600735E+03    0.30557E-01   -0.14250E-02  4783   0.120E-01    0.506E-02
RMM:   6    -0.413167796452E+03   -0.19572E-03   -0.25601E-03  5723   0.498E-02    0.359E-02
RMM:   7    -0.413167784115E+03    0.12337E-04   -0.44579E-04  5614   0.200E-02    0.229E-02
RMM:   8    -0.413167774379E+03    0.97357E-05   -0.60384E-05  5179   0.885E-03    0.103E-02
RMM:   9    -0.413167771543E+03    0.28365E-05   -0.11623E-05  3747   0.388E-03    0.714E-03
RMM:  10    -0.413167771091E+03    0.45178E-06   -0.21094E-06  2566   0.233E-03
   14 T=    61. E= -.41286701E+03 F= -.41316777E+03 E0= -.41314550E+03  EK= 0.30076E+00 SP= 0.00E+00 SK= 0.00E+00
       N       E                     dE             d eps       ncg     rms          rms(c)
RMM:   1    -0.413174293350E+03   -0.65218E-02   -0.76467E+00  4299   0.626E-01    0.897E-01
RMM:   2    -0.413173641187E+03    0.65216E-03   -0.97261E-02  4339   0.820E-02    0.661E-01
RMM:   3    -0.413177362431E+03   -0.37212E-02   -0.36204E-02  5128   0.103E-01    0.417E-01
RMM:   4    -0.413186107036E+03   -0.87446E-02   -0.37012E-02  5058   0.167E-01    0.564E-01
RMM:   5    -0.413167844705E+03    0.18262E-01   -0.68637E-03  4604   0.948E-02    0.544E-02
RMM:   6    -0.413167864762E+03   -0.20058E-04   -0.14190E-03  5368   0.369E-02    0.314E-02
RMM:   7    -0.413167869752E+03   -0.49897E-05   -0.27468E-04  5770   0.155E-02    0.182E-02
RMM:   8    -0.413167866432E+03    0.33203E-05   -0.44339E-05  4990   0.805E-03    0.698E-03
RMM:   9    -0.413167865408E+03    0.10231E-05   -0.51757E-06  2928   0.304E-03    0.372E-03
RMM:  10    -0.413167866534E+03   -0.11252E-05   -0.13881E-06  2504   0.194E-03    0.226E-03
RMM:  11    -0.413167867391E+03   -0.85746E-06   -0.91643E-07  2458   0.152E-03
   15 T=    61. E= -.41286675E+03 F= -.41316787E+03 E0= -.41314563E+03  EK= 0.30112E+00 SP= 0.00E+00 SK= 0.00E+00
       N       E                     dE             d eps       ncg     rms          rms(c)
RMM:   1    -0.413173885173E+03   -0.60186E-02   -0.76003E+00  4296   0.617E-01    0.913E-01
RMM:   2    -0.413174427147E+03   -0.54197E-03   -0.95290E-02  4255   0.822E-02    0.658E-01
RMM:   3    -0.413171023615E+03    0.34035E-02   -0.29134E-02  5013   0.668E-02    0.204E-01
RMM:   4    -0.413201354497E+03   -0.30331E-01   -0.38727E-02  5113   0.165E-01    0.744E-01
RMM:   5    -0.413168753232E+03    0.32601E-01   -0.14757E-02  4771   0.123E-01    0.531E-02
RMM:   6    -0.413168946696E+03   -0.19346E-03   -0.27229E-03  5705   0.515E-02    0.371E-02
RMM:   7    -0.413168927899E+03    0.18797E-04   -0.47302E-04  5671   0.205E-02    0.238E-02
RMM:   8    -0.413168914394E+03    0.13505E-04   -0.65117E-05  5205   0.934E-03    0.106E-02
RMM:   9    -0.413168908944E+03    0.54501E-05   -0.12239E-05  3792   0.400E-03    0.698E-03
RMM:  10    -0.413168905126E+03    0.38186E-05   -0.22164E-06  2578   0.240E-03    0.412E-03
RMM:  11    -0.413168902679E+03    0.24471E-05   -0.10231E-06  2501   0.167E-03    0.238E-03
RMM:  12    -0.413168897490E+03    0.51888E-05   -0.15918E-06  2545   0.192E-03    0.112E-03
RMM:  13    -0.413168893486E+03    0.40034E-05   -0.73942E-07  2426   0.139E-03    0.946E-04
RMM:  14    -0.413168893453E+03    0.33629E-07   -0.27455E-07  1994   0.913E-04
   16 T=    61. E= -.41286708E+03 F= -.41316889E+03 E0= -.41314670E+03  EK= 0.30181E+00 SP= 0.00E+00 SK= 0.00E+00
       N       E                     dE             d eps       ncg     rms          rms(c)
RMM:   1    -0.413173845507E+03   -0.49520E-02   -0.75566E+00  4295   0.618E-01    0.896E-01
RMM:   2    -0.413174924339E+03   -0.10788E-02   -0.94926E-02  4259   0.825E-02    0.653E-01
RMM:   3    -0.413170964028E+03    0.39603E-02   -0.29195E-02  4971   0.633E-02    0.184E-01
RMM:   4    -0.413200704842E+03   -0.29741E-01   -0.35725E-02  5109   0.158E-01    0.732E-01
RMM:   5    -0.413169203044E+03    0.31502E-01   -0.14656E-02  4779   0.122E-01    0.511E-02
RMM:   6    -0.413169396680E+03   -0.19364E-03   -0.26447E-03  5725   0.505E-02    0.363E-02
RMM:   7    -0.413169373443E+03    0.23237E-04   -0.45432E-04  5605   0.203E-02    0.232E-02
RMM:   8    -0.413169361964E+03    0.11479E-04   -0.63791E-05  5177   0.910E-03    0.106E-02
RMM:   9    -0.413169357498E+03    0.44667E-05   -0.12163E-05  3808   0.399E-03    0.730E-03
RMM:  10    -0.413169355322E+03    0.21760E-05   -0.21627E-06  2570   0.236E-03    0.430E-03
RMM:  11    -0.413169353825E+03    0.14968E-05   -0.10572E-06  2499   0.168E-03    0.247E-03
RMM:  12    -0.413169350705E+03    0.31194E-05   -0.16536E-06  2554   0.194E-03    0.116E-03
RMM:  13    -0.413169348134E+03    0.25714E-05   -0.66030E-07  2411   0.136E-03    0.979E-04
RMM:  14    -0.413169348151E+03   -0.17004E-07   -0.25252E-07  1976   0.888E-04
   17 T=    62. E= -.41286693E+03 F= -.41316935E+03 E0= -.41314719E+03  EK= 0.30242E+00 SP= 0.00E+00 SK= 0.00E+00
       N       E                     dE             d eps       ncg     rms          rms(c)
RMM:   1    -0.413174422030E+03   -0.50739E-02   -0.76493E+00  4295   0.625E-01    0.897E-01
RMM:   2    -0.413175585528E+03   -0.11635E-02   -0.96139E-02  4264   0.835E-02    0.662E-01
RMM:   3    -0.413171609660E+03    0.39759E-02   -0.31497E-02  4951   0.660E-02    0.200E-01
RMM:   4    -0.413200776511E+03   -0.29167E-01   -0.35379E-02  5106   0.158E-01    0.728E-01
RMM:   5    -0.413169707789E+03    0.31069E-01   -0.14548E-02  4776   0.121E-01    0.504E-02
RMM:   6    -0.413169895395E+03   -0.18761E-03   -0.26034E-03  5722   0.500E-02    0.351E-02
RMM:   7    -0.413169885547E+03    0.98476E-05   -0.44090E-04  5611   0.200E-02    0.226E-02
RMM:   8    -0.413169877677E+03    0.78699E-05   -0.62450E-05  5132   0.912E-03    0.103E-02
RMM:   9    -0.413169875274E+03    0.24028E-05   -0.12285E-05  3799   0.402E-03    0.714E-03
RMM:  10    -0.413169875869E+03   -0.59478E-06   -0.20975E-06  2573   0.232E-03
   18 T=    62. E= -.41286683E+03 F= -.41316988E+03 E0= -.41314776E+03  EK= 0.30305E+00 SP= 0.00E+00 SK= 0.00E+00
       N       E                     dE             d eps       ncg     rms          rms(c)
RMM:   1    -0.413176107159E+03   -0.62319E-02   -0.76383E+00  4304   0.632E-01    0.913E-01
RMM:   2    -0.413176451720E+03   -0.34456E-03   -0.96089E-02  4332   0.833E-02    0.661E-01
RMM:   3    -0.413179966570E+03   -0.35149E-02   -0.34510E-02  5133   0.100E-01    0.403E-01
RMM:   4    -0.413189055372E+03   -0.90888E-02   -0.36294E-02  5050   0.165E-01    0.558E-01
RMM:   5    -0.413171028882E+03    0.18026E-01   -0.65258E-03  4603   0.925E-02    0.546E-02
RMM:   6    -0.413171041191E+03   -0.12309E-04   -0.14359E-03  5370   0.369E-02    0.327E-02
RMM:   7    -0.413171037835E+03    0.33561E-05   -0.28007E-04  5698   0.161E-02    0.189E-02
RMM:   8    -0.413171029419E+03    0.84152E-05   -0.45173E-05  4999   0.817E-03    0.730E-03
RMM:   9    -0.413171025129E+03    0.42904E-05   -0.55300E-06  2979   0.311E-03    0.388E-03
RMM:  10    -0.413171022524E+03    0.26055E-05   -0.14287E-06  2509   0.199E-03    0.233E-03
RMM:  11    -0.413171019469E+03    0.30550E-05   -0.90091E-07  2467   0.154E-03    0.117E-03
RMM:  12    -0.413171015601E+03    0.38677E-05   -0.66228E-07  2436   0.128E-03    0.509E-04
RMM:  13    -0.413171013261E+03    0.23402E-05   -0.32284E-07  1970   0.940E-04    0.318E-04
RMM:  14    -0.413171011075E+03    0.21860E-05   -0.18308E-07  1463   0.745E-04    0.198E-04
RMM:  15    -0.413171006539E+03    0.45351E-05   -0.20810E-07  1563   0.753E-04    0.243E-04
RMM:  16    -0.413171003191E+03    0.33489E-05   -0.12232E-07  1145   0.640E-04    0.166E-04
RMM:  17    -0.413171000804E+03    0.23867E-05   -0.83286E-08  1046   0.605E-04    0.791E-05
RMM:  18    -0.413170998217E+03    0.25868E-05   -0.69954E-08  1067   0.598E-04    0.410E-05
RMM:  19    -0.413170997393E+03    0.82407E-06   -0.31880E-08   807   0.548E-04
   19 T=    62. E= -.41286711E+03 F= -.41317100E+03 E0= -.41314892E+03  EK= 0.30389E+00 SP= 0.00E+00 SK= 0.00E+00
       N       E                     dE             d eps       ncg     rms          rms(c)
RMM:   1    -0.413176226279E+03   -0.52281E-02   -0.75972E+00  4295   0.635E-01    0.904E-01
RMM:   2    -0.413176690517E+03   -0.46424E-03   -0.95879E-02  4254   0.821E-02    0.656E-01
RMM:   3    -0.413173394256E+03    0.32963E-02   -0.29085E-02  5029   0.632E-02    0.196E-01
RMM:   4    -0.413203996137E+03   -0.30602E-01   -0.38401E-02  5112   0.164E-01    0.745E-01
RMM:   5    -0.413171304291E+03    0.32692E-01   -0.15057E-02  4772   0.124E-01    0.528E-02
RMM:   6    -0.413171498207E+03   -0.19392E-03   -0.27178E-03  5700   0.517E-02    0.369E-02
RMM:   7    -0.413171488934E+03    0.92733E-05   -0.47329E-04  5611   0.207E-02    0.236E-02
RMM:   8    -0.413171475699E+03    0.13235E-04   -0.66607E-05  5191   0.958E-03    0.106E-02
RMM:   9    -0.413171470291E+03    0.54083E-05   -0.13171E-05  3863   0.415E-03    0.700E-03
RMM:  10    -0.413171467169E+03    0.31221E-05   -0.22473E-06  2583   0.241E-03    0.416E-03
RMM:  11    -0.413171465245E+03    0.19241E-05   -0.10002E-06  2498   0.165E-03    0.243E-03
RMM:  12    -0.413171461212E+03    0.40324E-05   -0.15122E-06  2535   0.189E-03    0.113E-03
RMM:  13    -0.413171458392E+03    0.28202E-05   -0.67459E-07  2400   0.137E-03    0.906E-04
RMM:  14    -0.413171458139E+03    0.25295E-06   -0.27252E-07  1998   0.914E-04
   20 T=    62. E= -.41286689E+03 F= -.41317146E+03 E0= -.41314942E+03  EK= 0.30457E+00 SP= 0.00E+00 SK= 0.00E+00
       N       E                     dE             d eps       ncg     rms          rms(c)
RMM:   1    -0.413176970306E+03   -0.55119E-02   -0.76681E+00  4296   0.633E-01    0.897E-01
RMM:   2    -0.413178162059E+03   -0.11918E-02   -0.96282E-02  4256   0.821E-02    0.662E-01
RMM:   3    -0.413174214311E+03    0.39477E-02   -0.31326E-02  4972   0.621E-02    0.192E-01
RMM:   4    -0.413202806768E+03   -0.28592E-01   -0.34254E-02  5112   0.155E-01    0.720E-01
RMM:   5    -0.413172406061E+03    0.30401E-01   -0.14336E-02  4781   0.120E-01    0.499E-02
RMM:   6    -0.413172590497E+03   -0.18444E-03   -0.25568E-03  5731   0.496E-02    0.347E-02
RMM:   7    -0.413172586611E+03    0.38861E-05   -0.42969E-04  5604   0.200E-02    0.225E-02
RMM:   8    -0.413172579120E+03    0.74903E-05   -0.63986E-05  5099   0.911E-03    0.106E-02
RMM:   9    -0.413172576237E+03    0.28837E-05   -0.12293E-05  3786   0.405E-03    0.734E-03
RMM:  10    -0.413172576108E+03    0.12897E-06   -0.21159E-06  2567   0.236E-03
   21 T=    62. E= -.41286705E+03 F= -.41317258E+03 E0= -.41315059E+03  EK= 0.30552E+00 SP= 0.00E+00 SK= 0.00E+00
       N       E                     dE             d eps       ncg     rms          rms(c)
RMM:   1    -0.413178392604E+03   -0.58164E-02   -0.76840E+00  4302   0.634E-01    0.913E-01
RMM:   2    -0.413179352618E+03   -0.96001E-03   -0.96426E-02  4347   0.833E-02    0.665E-01
RMM:   3    -0.413182518905E+03   -0.31663E-02   -0.35073E-02  5132   0.100E-01    0.401E-01
RMM:   4    -0.413192515890E+03   -0.99970E-02   -0.36960E-02  5051   0.166E-01    0.570E-01
RMM:   5    -0.413173676700E+03    0.18839E-01   -0.69190E-03  4614   0.951E-02    0.542E-02
RMM:   6    -0.413173705583E+03   -0.28883E-04   -0.15127E-03  5393   0.377E-02    0.325E-02
RMM:   7    -0.413173705398E+03    0.18453E-06   -0.28837E-04  5691   0.161E-02    0.191E-02
RMM:   8    -0.413173698232E+03    0.71658E-05   -0.45804E-05  5026   0.810E-03    0.737E-03
RMM:   9    -0.413173694000E+03    0.42322E-05   -0.56754E-06  2978   0.312E-03    0.395E-03
RMM:  10    -0.413173691566E+03    0.24338E-05   -0.14358E-06  2503   0.200E-03    0.238E-03
RMM:  11    -0.413173688786E+03    0.27800E-05   -0.86466E-07  2460   0.152E-03    0.120E-03
RMM:  12    -0.413173685077E+03    0.37094E-05   -0.66003E-07  2429   0.128E-03    0.518E-04
RMM:  13    -0.413173682812E+03    0.22652E-05   -0.32068E-07  1979   0.941E-04    0.327E-04
RMM:  14    -0.413173680898E+03    0.19141E-05   -0.17633E-07  1464   0.741E-04    0.211E-04
RMM:  15    -0.413173676495E+03    0.44029E-05   -0.18752E-07  1520   0.740E-04    0.238E-04
RMM:  16    -0.413173672866E+03    0.36292E-05   -0.11553E-07  1122   0.641E-04    0.175E-04
RMM:  17    -0.413173670489E+03    0.23771E-05   -0.74988E-08  1027   0.601E-04    0.856E-05
RMM:  18    -0.413173667651E+03    0.28373E-05   -0.64962E-08  1032   0.595E-04    0.420E-05
RMM:  19    -0.413173666643E+03    0.10086E-05   -0.31211E-08   826   0.554E-04    0.324E-05
RMM:  20    -0.413173666078E+03    0.56483E-06   -0.17366E-08   738   0.540E-04
   22 T=    62. E= -.41286713E+03 F= -.41317367E+03 E0= -.41315172E+03  EK= 0.30654E+00 SP= 0.00E+00 SK= 0.00E+00
       N       E                     dE             d eps       ncg     rms          rms(c)
RMM:   1    -0.413179335619E+03   -0.56690E-02   -0.76571E+00  4294   0.646E-01    0.912E-01
RMM:   2    -0.413180008107E+03   -0.67249E-03   -0.96682E-02  4280   0.840E-02    0.660E-01
RMM:   3    -0.413176005230E+03    0.40029E-02   -0.28944E-02  4970   0.637E-02    0.181E-01
RMM:   4    -0.413206953762E+03   -0.30949E-01   -0.37228E-02  5108   0.162E-01    0.745E-01
RMM:   5    -0.413174229841E+03    0.32724E-01   -0.15271E-02  4783   0.124E-01    0.522E-02
RMM:   6    -0.413174418535E+03   -0.18869E-03   -0.27650E-03  5724   0.517E-02    0.373E-02
RMM:   7    -0.413174403757E+03    0.14779E-04   -0.47216E-04  5590   0.208E-02    0.238E-02
RMM:   8    -0.413174391145E+03    0.12612E-04   -0.67968E-05  5199   0.943E-03    0.111E-02
RMM:   9    -0.413174385137E+03    0.60076E-05   -0.12912E-05  3882   0.413E-03    0.750E-03
RMM:  10    -0.413174380985E+03    0.41526E-05   -0.22615E-06  2584   0.242E-03    0.445E-03
RMM:  11    -0.413174378331E+03    0.26537E-05   -0.10778E-06  2502   0.169E-03    0.260E-03
RMM:  12    -0.413174373006E+03    0.53246E-05   -0.16824E-06  2557   0.198E-03    0.119E-03
RMM:  13    -0.413174369365E+03    0.36409E-05   -0.70631E-07  2411   0.141E-03    0.974E-04
RMM:  14    -0.413174369217E+03    0.14858E-06   -0.27858E-07  2032   0.922E-04
   23 T=    63. E= -.41286686E+03 F= -.41317437E+03 E0= -.41315247E+03  EK= 0.30751E+00 SP= 0.00E+00 SK= 0.00E+00
       N       E                     dE             d eps       ncg     rms          rms(c)
RMM:   1    -0.413180448794E+03   -0.60794E-02   -0.76983E+00  4295   0.648E-01    0.899E-01
RMM:   2    -0.413181953279E+03   -0.15045E-02   -0.97120E-02  4287   0.854E-02    0.663E-01
RMM:   3    -0.413177259721E+03    0.46936E-02   -0.30956E-02  4891   0.645E-02    0.175E-01
RMM:   4    -0.413204118306E+03   -0.26859E-01   -0.30842E-02  5118   0.148E-01    0.696E-01
RMM:   5    -0.413175791050E+03    0.28327E-01   -0.13488E-02  4787   0.116E-01    0.488E-02
RMM:   6    -0.413175967246E+03   -0.17620E-03   -0.24562E-03  5782   0.477E-02    0.332E-02
RMM:   7    -0.413175969209E+03   -0.19630E-05   -0.38050E-04  5623   0.192E-02    0.214E-02
RMM:   8    -0.413175958577E+03    0.10632E-04   -0.65692E-05  5015   0.900E-03    0.109E-02
RMM:   9    -0.413175954287E+03    0.42895E-05   -0.12573E-05  3886   0.412E-03    0.773E-03
RMM:  10    -0.413175952938E+03    0.13492E-05   -0.20656E-06  2563   0.236E-03    0.456E-03
RMM:  11    -0.413175951795E+03    0.11432E-05   -0.13599E-06  2516   0.187E-03    0.243E-03
RMM:  12    -0.413175949751E+03    0.20437E-05   -0.15936E-06  2533   0.194E-03    0.114E-03
RMM:  13    -0.413175948403E+03    0.13480E-05   -0.51969E-07  2347   0.128E-03    0.735E-04
RMM:  14    -0.413175948020E+03    0.38266E-06   -0.23394E-07  1884   0.847E-04
   24 T=    63. E= -.41286710E+03 F= -.41317595E+03 E0= -.41315410E+03  EK= 0.30885E+00 SP= 0.00E+00 SK= 0.00E+00
       N       E                     dE             d eps       ncg     rms          rms(c)
RMM:   1    -0.413182051218E+03   -0.61028E-02   -0.77570E+00  4293   0.662E-01    0.913E-01
RMM:   2    -0.413182876375E+03   -0.82516E-03   -0.98171E-02  4287   0.876E-02    0.669E-01
RMM:   3    -0.413178241802E+03    0.46346E-02   -0.30678E-02  4892   0.644E-02    0.170E-01
RMM:   4    -0.413205741837E+03   -0.27500E-01   -0.31370E-02  5118   0.149E-01    0.702E-01
RMM:   5    -0.413176837349E+03    0.28904E-01   -0.13701E-02  4787   0.117E-01    0.495E-02
RMM:   6    -0.413177021574E+03   -0.18423E-03   -0.25302E-03  5781   0.484E-02    0.349E-02
RMM:   7    -0.413177013556E+03    0.80186E-05   -0.41592E-04  5581   0.201E-02    0.225E-02
RMM:   8    -0.413177001467E+03    0.12089E-04   -0.63325E-05  5055   0.915E-03    0.109E-02
RMM:   9    -0.413176996796E+03    0.46706E-05   -0.12438E-05  3819   0.407E-03    0.768E-03
RMM:  10    -0.413176994310E+03    0.24864E-05   -0.21235E-06  2573   0.237E-03    0.453E-03
RMM:  11    -0.413176992354E+03    0.19560E-05   -0.12879E-06  2511   0.183E-03    0.245E-03
RMM:  12    -0.413176988931E+03    0.34226E-05   -0.16305E-06  2536   0.196E-03    0.113E-03
RMM:  13    -0.413176986898E+03    0.20336E-05   -0.55049E-07  2367   0.131E-03    0.784E-04
RMM:  14    -0.413176986533E+03    0.36497E-06   -0.24364E-07  1916   0.863E-04
   25 T=    63. E= -.41286691E+03 F= -.41317699E+03 E0= -.41315519E+03  EK= 0.31008E+00 SP= 0.00E+00 SK= 0.00E+00
       N       E                     dE             d eps       ncg     rms          rms(c)
RMM:   1    -0.413184180485E+03   -0.71936E-02   -0.77461E+00  4294   0.675E-01    0.921E-01
RMM:   2    -0.413183929928E+03    0.25056E-03   -0.10010E-01  4287   0.907E-02    0.666E-01
RMM:   3    -0.413179283666E+03    0.46463E-02   -0.28520E-02  4884   0.609E-02    0.144E-01
RMM:   4    -0.413206342547E+03   -0.27059E-01   -0.30050E-02  5122   0.145E-01    0.693E-01
RMM:   5    -0.413178182620E+03    0.28160E-01   -0.13509E-02  4786   0.115E-01    0.496E-02
RMM:   6    -0.413178349505E+03   -0.16689E-03   -0.24724E-03  5800   0.477E-02    0.351E-02
RMM:   7    -0.413178347042E+03    0.24629E-05   -0.39839E-04  5596   0.200E-02    0.223E-02
RMM:   8    -0.413178334195E+03    0.12847E-04   -0.64430E-05  5043   0.917E-03    0.113E-02
RMM:   9    -0.413178327644E+03    0.65517E-05   -0.12653E-05  3875   0.412E-03    0.801E-03
RMM:  10    -0.413178322406E+03    0.52378E-05   -0.21905E-06  2574   0.244E-03    0.467E-03
RMM:  11    -0.413178317879E+03    0.45265E-05   -0.14007E-06  2524   0.190E-03    0.251E-03
RMM:  12    -0.413178310787E+03    0.70929E-05   -0.17035E-06  2555   0.201E-03    0.114E-03
RMM:  13    -0.413178307094E+03    0.36928E-05   -0.56582E-07  2368   0.132E-03    0.775E-04
RMM:  14    -0.413178306683E+03    0.41086E-06   -0.25405E-07  1927   0.872E-04
   26 T=    63. E= -.41286684E+03 F= -.41317831E+03 E0= -.41315656E+03  EK= 0.31147E+00 SP= 0.00E+00 SK= 0.00E+00
       N       E                     dE             d eps       ncg     rms          rms(c)
RMM:   1    -0.413184728389E+03   -0.64213E-02   -0.77469E+00  4292   0.661E-01    0.904E-01
RMM:   2    -0.413185775456E+03   -0.10471E-02   -0.98188E-02  4285   0.928E-02    0.664E-01
RMM:   3    -0.413181155794E+03    0.46197E-02   -0.30286E-02  4854   0.630E-02    0.157E-01
RMM:   4    -0.413205851393E+03   -0.24696E-01   -0.27431E-02  5119   0.140E-01    0.665E-01
RMM:   5    -0.413179999825E+03    0.25852E-01   -0.12396E-02  4789   0.111E-01    0.478E-02
RMM:   6    -0.413180148547E+03   -0.14872E-03   -0.22469E-03  5821   0.453E-02    0.328E-02
RMM:   7    -0.413180147234E+03    0.13134E-05   -0.35077E-04  5596   0.190E-02    0.207E-02
RMM:   8    -0.413180138396E+03    0.88379E-05   -0.60565E-05  4964   0.888E-03    0.107E-02
RMM:   9    -0.413180133632E+03    0.47636E-05   -0.11717E-05  3783   0.403E-03    0.760E-03
RMM:  10    -0.413180130986E+03    0.26463E-05   -0.20313E-06  2558   0.239E-03    0.442E-03
RMM:  11    -0.413180128500E+03    0.24860E-05   -0.14441E-06  2525   0.193E-03    0.227E-03
RMM:  12    -0.413180124811E+03    0.36894E-05   -0.14385E-06  2513   0.189E-03    0.107E-03
RMM:  13    -0.413180122971E+03    0.18394E-05   -0.49366E-07  2325   0.124E-03    0.676E-04
RMM:  14    -0.413180122355E+03    0.61690E-06   -0.22790E-07  1824   0.837E-04
   27 T=    64. E= -.41286706E+03 F= -.41318012E+03 E0= -.41315842E+03  EK= 0.31307E+00 SP= 0.00E+00 SK= 0.00E+00
       N       E                     dE             d eps       ncg     rms          rms(c)
RMM:   1    -0.413186143182E+03   -0.60202E-02   -0.78432E+00  4291   0.671E-01    0.914E-01
RMM:   2    -0.413187048023E+03   -0.90484E-03   -0.99627E-02  4284   0.923E-02    0.673E-01
RMM:   3    -0.413182382066E+03    0.46660E-02   -0.31724E-02  4889   0.633E-02    0.168E-01
RMM:   4    -0.413207910706E+03   -0.25529E-01   -0.28798E-02  5126   0.143E-01    0.678E-01
RMM:   5    -0.413181037983E+03    0.26873E-01   -0.12785E-02  4784   0.113E-01    0.484E-02
RMM:   6    -0.413181209404E+03   -0.17142E-03   -0.23431E-03  5816   0.463E-02    0.338E-02
RMM:   7    -0.413181210657E+03   -0.12532E-05   -0.37665E-04  5584   0.195E-02    0.216E-02
RMM:   8    -0.413181202936E+03    0.77204E-05   -0.61365E-05  5010   0.911E-03    0.108E-02
RMM:   9    -0.413181199473E+03    0.34632E-05   -0.11985E-05  3777   0.411E-03    0.761E-03
RMM:  10    -0.413181197975E+03    0.14985E-05   -0.22472E-06  2593   0.252E-03    0.442E-03
RMM:  11    -0.413181196408E+03    0.15669E-05   -0.14130E-06  2525   0.192E-03    0.229E-03
RMM:  12    -0.413181193825E+03    0.25830E-05   -0.15700E-06  2524   0.198E-03    0.110E-03
RMM:  13    -0.413181192292E+03    0.15326E-05   -0.51910E-07  2345   0.127E-03    0.708E-04
RMM:  14    -0.413181191791E+03    0.50158E-06   -0.23580E-07  1869   0.849E-04
   28 T=    64. E= -.41286670E+03 F= -.41318119E+03 E0= -.41315954E+03  EK= 0.31449E+00 SP= 0.00E+00 SK= 0.00E+00
       N       E                     dE             d eps       ncg     rms          rms(c)
RMM:   1    -0.413188915156E+03   -0.77229E-02   -0.78379E+00  4293   0.692E-01    0.930E-01
RMM:   2    -0.413189149839E+03   -0.23468E-03   -0.10059E-01  4285   0.962E-02    0.672E-01
RMM:   3    -0.413184046009E+03    0.51038E-02   -0.29156E-02  4797   0.604E-02    0.131E-01
RMM:   4    -0.413206422428E+03   -0.22376E-01   -0.23992E-02  5136   0.131E-01    0.632E-01
RMM:   5    -0.413183180614E+03    0.23242E-01   -0.11261E-02  4795   0.104E-01    0.476E-02
RMM:   6    -0.413183309943E+03   -0.12933E-03   -0.20464E-03  5840   0.428E-02    0.327E-02
RMM:   7    -0.413183305894E+03    0.40495E-05   -0.28984E-04  5578   0.179E-02    0.190E-02
RMM:   8    -0.413183296792E+03    0.91012E-05   -0.56310E-05  4966   0.833E-03    0.108E-02
RMM:   9    -0.413183290552E+03    0.62409E-05   -0.10975E-05  3736   0.392E-03    0.765E-03
RMM:  10    -0.413183285534E+03    0.50177E-05   -0.20567E-06  2570   0.243E-03    0.432E-03
RMM:  11    -0.413183280462E+03    0.50716E-05   -0.15507E-06  2536   0.198E-03    0.222E-03
RMM:  12    -0.413183273840E+03    0.66225E-05   -0.14243E-06  2520   0.188E-03    0.112E-03
RMM:  13    -0.413183271258E+03    0.25821E-05   -0.50523E-07  2330   0.124E-03    0.687E-04
RMM:  14    -0.413183270097E+03    0.11609E-05   -0.23493E-07  1827   0.844E-04    0.495E-04
RMM:  15    -0.413183265592E+03    0.45053E-05   -0.20147E-07  1977   0.817E-04    0.372E-04
RMM:  16    -0.413183261353E+03    0.42385E-05   -0.13056E-07  1523   0.690E-04    0.404E-04
RMM:  17    -0.413183259253E+03    0.21006E-05   -0.51137E-08   914   0.556E-04    0.316E-04
RMM:  18    -0.413183254822E+03    0.44302E-05   -0.70478E-08  1054   0.606E-04    0.743E-05
RMM:  19    -0.413183252553E+03    0.22689E-05   -0.40941E-08   945   0.582E-04    0.110E-04
RMM:  20    -0.413183252508E+03    0.45606E-07   -0.13633E-08   695   0.536E-04
   29 T=    64. E= -.41286691E+03 F= -.41318325E+03 E0= -.41316165E+03  EK= 0.31635E+00 SP= 0.00E+00 SK= 0.00E+00
       N       E                     dE             d eps       ncg     rms          rms(c)
RMM:   1    -0.413191031391E+03   -0.77788E-02   -0.78291E+00  4294   0.701E-01    0.913E-01
RMM:   2    -0.413191282317E+03   -0.25093E-03   -0.99853E-02  4285   0.979E-02    0.668E-01
RMM:   3    -0.413186173500E+03    0.51088E-02   -0.30337E-02  4827   0.658E-02    0.153E-01
RMM:   4    -0.413211460782E+03   -0.25287E-01   -0.27792E-02  5125   0.141E-01    0.672E-01
RMM:   5    -0.413185016354E+03    0.26444E-01   -0.12739E-02  4787   0.111E-01    0.482E-02
RMM:   6    -0.413185171971E+03   -0.15562E-03   -0.22865E-03  5840   0.451E-02    0.331E-02
RMM:   7    -0.413185173776E+03   -0.18053E-05   -0.32328E-04  5620   0.181E-02    0.198E-02
RMM:   8    -0.413185166845E+03    0.69310E-05   -0.61810E-05  5008   0.856E-03    0.111E-02
RMM:   9    -0.413185161279E+03    0.55658E-05   -0.11744E-05  3847   0.406E-03    0.770E-03
RMM:  10    -0.413185158629E+03    0.26508E-05   -0.20840E-06  2567   0.239E-03    0.442E-03
RMM:  11    -0.413185156231E+03    0.23979E-05   -0.14152E-06  2520   0.191E-03    0.235E-03
RMM:  12    -0.413185152506E+03    0.37251E-05   -0.15719E-06  2530   0.194E-03    0.118E-03
RMM:  13    -0.413185150784E+03    0.17213E-05   -0.53134E-07  2351   0.129E-03    0.726E-04
RMM:  14    -0.413185150110E+03    0.67423E-06   -0.23997E-07  1901   0.857E-04
   30 T=    65. E= -.41286692E+03 F= -.41318515E+03 E0= -.41316360E+03  EK= 0.31823E+00 SP= 0.00E+00 SK= 0.00E+00
       N       E                     dE             d eps       ncg     rms          rms(c)
RMM:   1    -0.413193992542E+03   -0.88418E-02   -0.79626E+00  4296   0.709E-01    0.918E-01
RMM:   2    -0.413193356834E+03    0.63571E-03   -0.10351E-01  4280   0.102E-01    0.679E-01
RMM:   3    -0.413187728767E+03    0.56281E-02   -0.32181E-02  4729   0.679E-02    0.152E-01
RMM:   4    -0.413207714791E+03   -0.19986E-01   -0.21629E-02  5128   0.125E-01    0.602E-01
RMM:   5    -0.413186727250E+03    0.20988E-01   -0.10264E-02  4802   0.991E-02    0.457E-02
RMM:   6    -0.413186850323E+03   -0.12307E-03   -0.18322E-03  5857   0.399E-02    0.302E-02
RMM:   7    -0.413186854144E+03   -0.38213E-05   -0.21812E-04  5559   0.157E-02    0.156E-02
RMM:   8    -0.413186852042E+03    0.21017E-05   -0.41165E-05  4864   0.688E-03    0.971E-03
RMM:   9    -0.413186848405E+03    0.36371E-05   -0.94189E-06  3606   0.353E-03    0.701E-03
RMM:  10    -0.413186847461E+03    0.94386E-06   -0.17818E-06  2538   0.228E-03
   31 T=    65. E= -.41286679E+03 F= -.41318685E+03 E0= -.41316535E+03  EK= 0.32006E+00 SP= 0.00E+00 SK= 0.00E+00
       N       E                     dE             d eps       ncg     rms          rms(c)
RMM:   1    -0.413196171109E+03   -0.93227E-02   -0.79546E+00  4296   0.729E-01    0.937E-01
RMM:   2    -0.413195704789E+03    0.46632E-03   -0.10331E-01  4298   0.106E-01    0.679E-01
RMM:   3    -0.413192884222E+03    0.28206E-02   -0.31799E-02  4994   0.873E-02    0.254E-01
RMM:   4    -0.413222353266E+03   -0.29469E-01   -0.42375E-02  5089   0.174E-01    0.748E-01
RMM:   5    -0.413189269331E+03    0.33084E-01   -0.14476E-02  4742   0.123E-01    0.553E-02
RMM:   6    -0.413189434322E+03   -0.16499E-03   -0.28314E-03  5746   0.504E-02    0.375E-02
RMM:   7    -0.413189432555E+03    0.17661E-05   -0.46866E-04  5608   0.204E-02    0.241E-02
RMM:   8    -0.413189425503E+03    0.70520E-05   -0.68922E-05  5194   0.967E-03    0.106E-02
RMM:   9    -0.413189418821E+03    0.66823E-05   -0.12559E-05  3826   0.421E-03    0.631E-03
RMM:  10    -0.413189413277E+03    0.55442E-05   -0.24705E-06  2609   0.251E-03    0.386E-03
RMM:  11    -0.413189409273E+03    0.40037E-05   -0.10586E-06  2503   0.170E-03    0.219E-03
RMM:  12    -0.413189401410E+03    0.78629E-05   -0.13175E-06  2510   0.179E-03    0.980E-04
RMM:  13    -0.413189396772E+03    0.46388E-05   -0.62765E-07  2394   0.130E-03    0.682E-04
RMM:  14    -0.413189395086E+03    0.16857E-05   -0.28584E-07  1991   0.913E-04    0.468E-04
RMM:  15    -0.413189392691E+03    0.23948E-05   -0.14825E-07  1465   0.719E-04    0.256E-04
RMM:  16    -0.413189385929E+03    0.67616E-05   -0.16847E-07  1763   0.757E-04    0.392E-04
RMM:  17    -0.413189382404E+03    0.35256E-05   -0.76124E-08  1083   0.599E-04    0.319E-04
RMM:  18    -0.413189376889E+03    0.55151E-05   -0.78024E-08  1123   0.603E-04    0.214E-04
RMM:  19    -0.413189375289E+03    0.15997E-05   -0.44354E-08   926   0.561E-04    0.475E-05
RMM:  20    -0.413189373749E+03    0.15406E-05   -0.32716E-08   931   0.569E-04    0.106E-04
RMM:  21    -0.413189373668E+03    0.80494E-07   -0.12913E-08   690   0.532E-04
   32 T=    66. E= -.41286716E+03 F= -.41318937E+03 E0= -.41316792E+03  EK= 0.32221E+00 SP= 0.00E+00 SK= 0.00E+00
       N       E                     dE             d eps       ncg     rms          rms(c)
RMM:   1    -0.413200953664E+03   -0.11580E-01   -0.79661E+00  4300   0.758E-01    0.926E-01
RMM:   2    -0.413197282307E+03    0.36714E-02   -0.10654E-01  4275   0.111E-01    0.675E-01
RMM:   3    -0.413191777883E+03    0.55044E-02   -0.29584E-02  4596   0.712E-02    0.113E-01
RMM:   4    -0.413205961587E+03   -0.14184E-01   -0.14742E-02  5134   0.103E-01    0.507E-01
RMM:   5    -0.413191202678E+03    0.14759E-01   -0.73831E-03  4817   0.829E-02    0.444E-02
RMM:   6    -0.413191282121E+03   -0.79442E-04   -0.13672E-03  5830   0.343E-02    0.297E-02
RMM:   7    -0.413191286315E+03   -0.41947E-05   -0.22892E-04  5464   0.159E-02    0.179E-02
RMM:   8    -0.413191270828E+03    0.15487E-04   -0.35407E-05  4767   0.683E-03    0.886E-03
RMM:   9    -0.413191268869E+03    0.19586E-05   -0.71404E-06  3230   0.327E-03    0.636E-03
RMM:  10    -0.413191265152E+03    0.37171E-05   -0.16843E-06  2517   0.222E-03    0.337E-03
RMM:  11    -0.413191261709E+03    0.34430E-05   -0.11628E-06  2504   0.175E-03    0.176E-03
RMM:  12    -0.413191257534E+03    0.41750E-05   -0.88235E-07  2459   0.150E-03    0.982E-04
RMM:  13    -0.413191255595E+03    0.19398E-05   -0.34629E-07  2145   0.102E-03    0.481E-04
RMM:  14    -0.413191254090E+03    0.15048E-05   -0.17396E-07  1559   0.755E-04    0.310E-04
RMM:  15    -0.413191250170E+03    0.39200E-05   -0.13973E-07  1570   0.722E-04    0.185E-04
RMM:  16    -0.413191247181E+03    0.29887E-05   -0.72603E-08  1084   0.624E-04    0.152E-04
RMM:  17    -0.413191244173E+03    0.30079E-05   -0.49677E-08   937   0.589E-04    0.109E-04
RMM:  18    -0.413191239734E+03    0.44394E-05   -0.54943E-08  1038   0.606E-04    0.371E-05
RMM:  19    -0.413191238689E+03    0.10445E-05   -0.23308E-08   807   0.559E-04    0.304E-05
RMM:  20    -0.413191238151E+03    0.53797E-06   -0.13151E-08   706   0.544E-04
   33 T=    66. E= -.41286700E+03 F= -.41319124E+03 E0= -.41316984E+03  EK= 0.32424E+00 SP= 0.00E+00 SK= 0.00E+00
       N       E                     dE             d eps       ncg     rms          rms(c)
RMM:   1    -0.413199937336E+03   -0.86986E-02   -0.80483E+00  4307   0.742E-01    0.924E-01
RMM:   2    -0.413199815283E+03    0.12205E-03   -0.10567E-01  4260   0.113E-01    0.683E-01
RMM:   3    -0.413194204029E+03    0.56113E-02   -0.32844E-02  4491   0.769E-02    0.134E-01
RMM:   4    -0.413202304641E+03   -0.81006E-02   -0.88229E-03  5142   0.812E-02    0.393E-01
RMM:   5    -0.413193578082E+03    0.87266E-02   -0.43988E-03  4829   0.642E-02    0.416E-02
RMM:   6    -0.413193638718E+03   -0.60637E-04   -0.94844E-04  5776   0.285E-02    0.292E-02
RMM:   7    -0.413193637677E+03    0.10414E-05   -0.24251E-04  5304   0.162E-02    0.188E-02
RMM:   8    -0.413193624310E+03    0.13367E-04   -0.24748E-05  4497   0.632E-03    0.788E-03
RMM:   9    -0.413193623693E+03    0.61742E-06   -0.43870E-06  2849   0.268E-03
   34 T=    66. E= -.41286703E+03 F= -.41319362E+03 E0= -.41317227E+03  EK= 0.32659E+00 SP= 0.00E+00 SK= 0.00E+00
       N       E                     dE             d eps       ncg     rms          rms(c)
RMM:   1    -0.413202375618E+03   -0.87513E-02   -0.80710E+00  4303   0.760E-01    0.943E-01
RMM:   2    -0.413202021459E+03    0.35416E-03   -0.10587E-01  4294   0.120E-01    0.687E-01
RMM:   3    -0.413198151028E+03    0.38704E-02   -0.32068E-02  4825   0.921E-02    0.192E-01
RMM:   4    -0.413231679731E+03   -0.33529E-01   -0.39307E-02  5100   0.168E-01    0.775E-01
RMM:   5    -0.413196129707E+03    0.35550E-01   -0.16690E-02  4786   0.128E-01    0.527E-02
RMM:   6    -0.413196307498E+03   -0.17779E-03   -0.30213E-03  5808   0.517E-02    0.354E-02
RMM:   7    -0.413196318564E+03   -0.11067E-04   -0.35966E-04  5638   0.187E-02    0.192E-02
RMM:   8    -0.413196314321E+03    0.42436E-05   -0.65108E-05  5062   0.836E-03    0.119E-02
RMM:   9    -0.413196306514E+03    0.78063E-05   -0.16356E-05  4266   0.448E-03    0.786E-03
RMM:  10    -0.413196301865E+03    0.46491E-05   -0.28982E-06  2663   0.277E-03    0.466E-03
RMM:  11    -0.413196298250E+03    0.36150E-05   -0.13970E-06  2505   0.194E-03    0.276E-03
RMM:  12    -0.413196290283E+03    0.79670E-05   -0.17790E-06  2526   0.215E-03    0.119E-03
RMM:  13    -0.413196285757E+03    0.45260E-05   -0.70641E-07  2406   0.145E-03    0.854E-04
RMM:  14    -0.413196284798E+03    0.95883E-06   -0.28891E-07  2077   0.944E-04
   35 T=    67. E= -.41286710E+03 F= -.41319628E+03 E0= -.41317498E+03  EK= 0.32918E+00 SP= 0.00E+00 SK= 0.00E+00
       N       E                     dE             d eps       ncg     rms          rms(c)
RMM:   1    -0.413207466084E+03   -0.11180E-01   -0.80939E+00  4300   0.819E-01    0.941E-01
RMM:   2    -0.413204097909E+03    0.33682E-02   -0.11243E-01  4262   0.131E-01    0.684E-01
RMM:   3    -0.413198749172E+03    0.53487E-02   -0.29716E-02  4439   0.819E-02    0.930E-02
RMM:   4    -0.413205136804E+03   -0.63876E-02   -0.67440E-03  5169   0.704E-02    0.347E-01
RMM:   5    -0.413198420745E+03    0.67161E-02   -0.34388E-03  4821   0.571E-02    0.428E-02
RMM:   6    -0.413198464223E+03   -0.43478E-04   -0.88118E-04  5657   0.293E-02    0.331E-02
RMM:   7    -0.413198443459E+03    0.20765E-04   -0.27355E-04  5202   0.175E-02    0.197E-02
RMM:   8    -0.413198430690E+03    0.12768E-04   -0.30428E-05  4831   0.648E-03    0.832E-03
RMM:   9    -0.413198427928E+03    0.27624E-05   -0.43804E-06  2808   0.266E-03    0.491E-03
RMM:  10    -0.413198422351E+03    0.55776E-05   -0.14672E-06  2500   0.204E-03    0.248E-03
RMM:  11    -0.413198416932E+03    0.54185E-05   -0.86765E-07  2446   0.155E-03    0.127E-03
RMM:  12    -0.413198411256E+03    0.56760E-05   -0.52931E-07  2304   0.122E-03    0.642E-04
RMM:  13    -0.413198407293E+03    0.39630E-05   -0.26528E-07  1859   0.888E-04    0.319E-04
RMM:  14    -0.413198403072E+03    0.42209E-05   -0.13782E-07  1319   0.710E-04    0.233E-04
RMM:  15    -0.413198396831E+03    0.62409E-05   -0.93455E-08  1080   0.658E-04    0.140E-04
RMM:  16    -0.413198391362E+03    0.54698E-05   -0.76166E-08  1092   0.636E-04    0.102E-04
RMM:  17    -0.413198387646E+03    0.37159E-05   -0.46419E-08   931   0.594E-04    0.647E-05
RMM:  18    -0.413198383252E+03    0.43935E-05   -0.46210E-08  1049   0.599E-04    0.355E-05
RMM:  19    -0.413198382537E+03    0.71546E-06   -0.14694E-08   627   0.518E-04
   36 T=    68. E= -.41286673E+03 F= -.41319838E+03 E0= -.41317712E+03  EK= 0.33165E+00 SP= 0.00E+00 SK= 0.00E+00
       N       E                     dE             d eps       ncg     rms          rms(c)
RMM:   1    -0.413207344957E+03   -0.89617E-02   -0.81549E+00  4306   0.804E-01    0.932E-01
RMM:   2    -0.413207658367E+03   -0.31341E-03   -0.10923E-01  4253   0.125E-01    0.689E-01
RMM:   3    -0.413201905280E+03    0.57531E-02   -0.32959E-02  4449   0.828E-02    0.124E-01
RMM:   4    -0.413207618139E+03   -0.57129E-02   -0.64570E-03  5157   0.704E-02    0.335E-01
RMM:   5    -0.413201373641E+03    0.62445E-02   -0.31267E-03  4810   0.551E-02    0.419E-02
RMM:   6    -0.413201411802E+03   -0.38161E-04   -0.81932E-04  5629   0.284E-02    0.324E-02
RMM:   7    -0.413201405599E+03    0.62027E-05   -0.27086E-04  5193   0.174E-02    0.193E-02
RMM:   8    -0.413201396126E+03    0.94727E-05   -0.31654E-05  4923   0.659E-03    0.843E-03
RMM:   9    -0.413201395407E+03    0.71920E-06   -0.45524E-06  2796   0.264E-03
   37 T=    68. E= -.41286693E+03 F= -.41320140E+03 E0= -.41318018E+03  EK= 0.33447E+00 SP= 0.00E+00 SK= 0.00E+00
       N       E                     dE             d eps       ncg     rms          rms(c)
RMM:   1    -0.413215313097E+03   -0.13917E-01   -0.82747E+00  4311   0.866E-01    0.947E-01
RMM:   2    -0.413210708929E+03    0.46042E-02   -0.12185E-01  4276   0.125E-01    0.698E-01
RMM:   3    -0.413206159379E+03    0.45496E-02   -0.31160E-02  4917   0.854E-02    0.197E-01
RMM:   4    -0.413245275888E+03   -0.39117E-01   -0.46991E-02  5110   0.182E-01    0.836E-01
RMM:   5    -0.413203951686E+03    0.41324E-01   -0.19252E-02  4774   0.139E-01    0.560E-02
RMM:   6    -0.413204079430E+03   -0.12774E-03   -0.34653E-03  5808   0.551E-02    0.363E-02
RMM:   7    -0.413204099577E+03   -0.20147E-04   -0.42239E-04  5674   0.199E-02    0.209E-02
RMM:   8    -0.413204099018E+03    0.55859E-06   -0.85357E-05  5166   0.942E-03    0.132E-02
RMM:   9    -0.413204090065E+03    0.89527E-05   -0.21679E-05  4515   0.523E-03    0.785E-03
RMM:  10    -0.413204086147E+03    0.39188E-05   -0.38915E-06  2794   0.302E-03    0.439E-03
RMM:  11    -0.413204083212E+03    0.29343E-05   -0.14660E-06  2503   0.203E-03    0.271E-03
RMM:  12    -0.413204075924E+03    0.72884E-05   -0.18314E-06  2538   0.217E-03    0.125E-03
RMM:  13    -0.413204070823E+03    0.51004E-05   -0.78450E-07  2450   0.150E-03    0.843E-04
RMM:  14    -0.413204069911E+03    0.91230E-06   -0.31719E-07  2148   0.983E-04
   38 T=    69. E= -.41286685E+03 F= -.41320407E+03 E0= -.41318289E+03  EK= 0.33722E+00 SP= 0.00E+00 SK= 0.00E+00
       N       E                     dE             d eps       ncg     rms          rms(c)
RMM:   1    -0.413221111199E+03   -0.17040E-01   -0.83030E+00  4309   0.927E-01    0.956E-01
RMM:   2    -0.413213381268E+03    0.77299E-02   -0.12336E-01  4255   0.123E-01    0.694E-01
RMM:   3    -0.413207228811E+03    0.61525E-02   -0.28358E-02  4695   0.682E-02    0.102E-01
RMM:   4    -0.413227322336E+03   -0.20094E-01   -0.20847E-02  5137   0.122E-01    0.599E-01
RMM:   5    -0.413206746560E+03    0.20576E-01   -0.10302E-02  4818   0.987E-02    0.483E-02
RMM:   6    -0.413206780367E+03   -0.33807E-04   -0.18251E-03  5781   0.412E-02    0.342E-02
RMM:   7    -0.413206789405E+03   -0.90376E-05   -0.37727E-04  5484   0.192E-02    0.220E-02
RMM:   8    -0.413206770493E+03    0.18911E-04   -0.54998E-05  5122   0.847E-03    0.105E-02
RMM:   9    -0.413206767238E+03    0.32548E-05   -0.10000E-05  3518   0.385E-03    0.648E-03
RMM:  10    -0.413206761066E+03    0.61728E-05   -0.21094E-06  2597   0.238E-03    0.349E-03
RMM:  11    -0.413206755659E+03    0.54064E-05   -0.11356E-06  2493   0.176E-03    0.185E-03
RMM:  12    -0.413206747968E+03    0.76914E-05   -0.10337E-06  2483   0.163E-03    0.989E-04
RMM:  13    -0.413206743936E+03    0.40314E-05   -0.41625E-07  2226   0.112E-03    0.535E-04
RMM:  14    -0.413206742111E+03    0.18259E-05   -0.20328E-07  1733   0.802E-04    0.359E-04
RMM:  15    -0.413206735452E+03    0.66583E-05   -0.15034E-07  1606   0.745E-04    0.211E-04
RMM:  16    -0.413206730959E+03    0.44931E-05   -0.83677E-08  1186   0.644E-04    0.191E-04
RMM:  17    -0.413206725924E+03    0.50353E-05   -0.62530E-08  1119   0.617E-04    0.159E-04
RMM:  18    -0.413206720466E+03    0.54582E-05   -0.60856E-08  1244   0.624E-04    0.540E-05
RMM:  19    -0.413206719071E+03    0.13945E-05   -0.28037E-08   893   0.552E-04    0.397E-05
RMM:  20    -0.413206718578E+03    0.49370E-06   -0.17959E-08   789   0.528E-04
   39 T=    69. E= -.41286676E+03 F= -.41320672E+03 E0= -.41318558E+03  EK= 0.33996E+00 SP= 0.00E+00 SK= 0.00E+00
       N       E                     dE             d eps       ncg     rms          rms(c)
RMM:   1    -0.413219578483E+03   -0.12859E-01   -0.83067E+00  4311   0.927E-01    0.941E-01
RMM:   2    -0.413216827574E+03    0.27509E-02   -0.12024E-01  4262   0.125E-01    0.696E-01
RMM:   3    -0.413211363225E+03    0.54643E-02   -0.31581E-02  4879   0.786E-02    0.170E-01
RMM:   4    -0.413247648943E+03   -0.36286E-01   -0.41252E-02  5125   0.170E-01    0.802E-01
RMM:   5    -0.413209795701E+03    0.37853E-01   -0.18111E-02  4786   0.133E-01    0.541E-02
RMM:   6    -0.413209907699E+03   -0.11200E-03   -0.31491E-03  5816   0.526E-02    0.348E-02
RMM:   7    -0.413209923765E+03   -0.16066E-04   -0.37756E-04  5631   0.186E-02    0.188E-02
RMM:   8    -0.413209921700E+03    0.20657E-05   -0.47325E-05  4775   0.700E-03    0.976E-03
RMM:   9    -0.413209919277E+03    0.24222E-05   -0.14254E-05  4022   0.406E-03    0.647E-03
RMM:  10    -0.413209918103E+03    0.11748E-05   -0.40638E-06  2863   0.270E-03    0.408E-03
RMM:  11    -0.413209916065E+03    0.20381E-05   -0.13872E-06  2491   0.198E-03    0.244E-03
RMM:  12    -0.413209911432E+03    0.46328E-05   -0.16025E-06  2509   0.200E-03    0.106E-03
RMM:  13    -0.413209909119E+03    0.23124E-05   -0.56905E-07  2401   0.133E-03    0.762E-04
RMM:  14    -0.413209908649E+03    0.47090E-06   -0.24946E-07  1980   0.886E-04
   40 T=    70. E= -.41286708E+03 F= -.41320991E+03 E0= -.41318881E+03  EK= 0.34283E+00 SP= 0.00E+00 SK= 0.00E+00
       N       E                     dE             d eps       ncg     rms          rms(c)
RMM:   1    -0.413221515328E+03   -0.11606E-01   -0.84057E+00  4305   0.943E-01    0.956E-01
RMM:   2    -0.413219289377E+03    0.22260E-02   -0.11719E-01  4263   0.125E-01    0.705E-01
RMM:   3    -0.413213699436E+03    0.55899E-02   -0.33420E-02  4872   0.784E-02    0.173E-01
RMM:   4    -0.413248299122E+03   -0.34600E-01   -0.39365E-02  5129   0.167E-01    0.785E-01
RMM:   5    -0.413212132590E+03    0.36167E-01   -0.17336E-02  4795   0.130E-01    0.539E-02
RMM:   6    -0.413212232386E+03   -0.99797E-04   -0.29909E-03  5811   0.514E-02    0.341E-02
RMM:   7    -0.413212250175E+03   -0.17788E-04   -0.37720E-04  5642   0.186E-02    0.192E-02
RMM:   8    -0.413212243555E+03    0.66195E-05   -0.58362E-05  5001   0.794E-03    0.104E-02
RMM:   9    -0.413212243796E+03   -0.24099E-06   -0.21085E-05  4536   0.489E-03    0.768E-03
RMM:  10    -0.413212239088E+03    0.47078E-05   -0.30918E-06  2689   0.279E-03    0.418E-03
RMM:  11    -0.413212236909E+03    0.21795E-05   -0.13882E-06  2504   0.191E-03    0.254E-03
RMM:  12    -0.413212231109E+03    0.58002E-05   -0.18451E-06  2545   0.213E-03    0.133E-03
RMM:  13    -0.413212227801E+03    0.33076E-05   -0.68367E-07  2425   0.144E-03    0.868E-04
RMM:  14    -0.413212227042E+03    0.75896E-06   -0.26840E-07  2025   0.924E-04
   41 T=    70. E= -.41286687E+03 F= -.41321223E+03 E0= -.41319116E+03  EK= 0.34536E+00 SP= 0.00E+00 SK= 0.00E+00
       N       E                     dE             d eps       ncg     rms          rms(c)
RMM:   1    -0.413232955215E+03   -0.20727E-01   -0.84777E+00  4311   0.106E+00    0.971E-01
RMM:   2    -0.413221728340E+03    0.11227E-01   -0.12733E-01  4303   0.132E-01    0.704E-01
RMM:   3    -0.413217142133E+03    0.45862E-02   -0.30225E-02  4984   0.790E-02    0.201E-01
RMM:   4    -0.413258421507E+03   -0.41279E-01   -0.50679E-02  5117   0.189E-01    0.857E-01
RMM:   5    -0.413214814228E+03    0.43607E-01   -0.20161E-02  4777   0.142E-01    0.585E-02
RMM:   6    -0.413214950922E+03   -0.13669E-03   -0.36024E-03  5801   0.561E-02    0.368E-02
RMM:   7    -0.413214961791E+03   -0.10869E-04   -0.44214E-04  5718   0.200E-02    0.213E-02
RMM:   8    -0.413214962304E+03   -0.51368E-06   -0.92963E-05  5186   0.974E-03    0.134E-02
RMM:   9    -0.413214951046E+03    0.11258E-04   -0.22829E-05  4556   0.544E-03    0.750E-03
RMM:  10    -0.413214945700E+03    0.53460E-05   -0.40029E-06  2789   0.297E-03    0.436E-03
RMM:  11    -0.413214941921E+03    0.37793E-05   -0.13857E-06  2501   0.199E-03    0.265E-03
RMM:  12    -0.413214933020E+03    0.89009E-05   -0.15208E-06  2511   0.202E-03    0.120E-03
RMM:  13    -0.413214926839E+03    0.61815E-05   -0.68302E-07  2438   0.143E-03    0.766E-04
RMM:  14    -0.413214925772E+03    0.10664E-05   -0.29507E-07  2101   0.958E-04    0.495E-04
RMM:  15    -0.413214923535E+03    0.22371E-05   -0.14395E-07  1498   0.724E-04    0.345E-04
RMM:  16    -0.413214915282E+03    0.82534E-05   -0.16973E-07  1971   0.788E-04    0.552E-04
RMM:  17    -0.413214913417E+03    0.18653E-05   -0.53875E-08   965   0.563E-04    0.427E-04
RMM:  18    -0.413214906731E+03    0.66861E-05   -0.63161E-08  1131   0.604E-04    0.280E-04
RMM:  19    -0.413214905774E+03    0.95607E-06   -0.31010E-08   865   0.554E-04
   42 T=    71. E= -.41286706E+03 F= -.41321491E+03 E0= -.41319387E+03  EK= 0.34784E+00 SP= 0.00E+00 SK= 0.00E+00
       N       E                     dE             d eps       ncg     rms          rms(c)
RMM:   1    -0.413228402623E+03   -0.13496E-01   -0.84029E+00  4313   0.107E+00    0.953E-01
RMM:   2    -0.413224087139E+03    0.43155E-02   -0.12225E-01  4349   0.131E-01    0.702E-01
RMM:   3    -0.413220945716E+03    0.31414E-02   -0.33486E-02  5028   0.906E-02    0.261E-01
RMM:   4    -0.413256627668E+03   -0.35682E-01   -0.50435E-02  5100   0.190E-01    0.817E-01
RMM:   5    -0.413217097955E+03    0.39530E-01   -0.17383E-02  4756   0.135E-01    0.580E-02
RMM:   6    -0.413217195560E+03   -0.97605E-04   -0.32120E-03  5767   0.530E-02    0.355E-02
RMM:   7    -0.413217208311E+03   -0.12752E-04   -0.41828E-04  5686   0.198E-02    0.217E-02
RMM:   8    -0.413217210095E+03   -0.17842E-05   -0.10734E-04  5202   0.107E-02    0.133E-02
RMM:   9    -0.413217200055E+03    0.10040E-04   -0.19245E-05  4405   0.540E-03    0.638E-03
RMM:  10    -0.413217197152E+03    0.29032E-05   -0.39442E-06  2814   0.278E-03    0.379E-03
RMM:  11    -0.413217194837E+03    0.23145E-05   -0.12243E-06  2495   0.187E-03    0.219E-03
RMM:  12    -0.413217189490E+03    0.53478E-05   -0.12287E-06  2498   0.180E-03    0.102E-03
RMM:  13    -0.413217185496E+03    0.39940E-05   -0.56189E-07  2371   0.128E-03    0.589E-04
RMM:  14    -0.413217184505E+03    0.99037E-06   -0.25863E-07  1932   0.880E-04
   43 T=    71. E= -.41286722E+03 F= -.41321718E+03 E0= -.41319618E+03  EK= 0.34996E+00 SP= 0.00E+00 SK= 0.00E+00
       N       E                     dE             d eps       ncg     rms          rms(c)
RMM:   1    -0.413231003445E+03   -0.13818E-01   -0.85166E+00  4315   0.111E+00    0.958E-01
RMM:   2    -0.413225749494E+03    0.52540E-02   -0.12605E-01  4369   0.139E-01    0.712E-01
RMM:   3    -0.413222885627E+03    0.28639E-02   -0.35191E-02  5030   0.950E-02    0.283E-01
RMM:   4    -0.413258269953E+03   -0.35384E-01   -0.52130E-02  5103   0.194E-01    0.820E-01
RMM:   5    -0.413218387822E+03    0.39882E-01   -0.17252E-02  4744   0.136E-01    0.583E-02
RMM:   6    -0.413218476288E+03   -0.88467E-04   -0.31909E-03  5778   0.529E-02    0.344E-02
RMM:   7    -0.413218488492E+03   -0.12204E-04   -0.40704E-04  5708   0.195E-02    0.212E-02
RMM:   8    -0.413218492101E+03   -0.36083E-05   -0.11075E-04  5202   0.108E-02    0.131E-02
RMM:   9    -0.413218481600E+03    0.10501E-04   -0.19406E-05  4414   0.549E-03    0.600E-03
RMM:  10    -0.413218478963E+03    0.26366E-05   -0.40861E-06  2828   0.278E-03    0.362E-03
RMM:  11    -0.413218476703E+03    0.22604E-05   -0.12626E-06  2507   0.187E-03    0.206E-03
RMM:  12    -0.413218471577E+03    0.51259E-05   -0.11927E-06  2497   0.174E-03    0.971E-04
RMM:  13    -0.413218467591E+03    0.39861E-05   -0.54664E-07  2344   0.123E-03    0.533E-04
RMM:  14    -0.413218466224E+03    0.13670E-05   -0.24690E-07  1845   0.851E-04    0.330E-04
RMM:  15    -0.413218462524E+03    0.37001E-05   -0.15331E-07  1404   0.727E-04    0.163E-04
RMM:  16    -0.413218458235E+03    0.42885E-05   -0.11822E-07  1348   0.689E-04    0.193E-04
RMM:  17    -0.413218455110E+03    0.31253E-05   -0.75204E-08  1137   0.627E-04    0.145E-04
RMM:  18    -0.413218451727E+03    0.33830E-05   -0.61979E-08  1174   0.615E-04    0.867E-05
RMM:  19    -0.413218448960E+03    0.27668E-05   -0.44560E-08  1077   0.586E-04    0.421E-05
RMM:  20    -0.413218448323E+03    0.63738E-06   -0.21176E-08   796   0.535E-04
   44 T=    72. E= -.41286699E+03 F= -.41321845E+03 E0= -.41319746E+03  EK= 0.35146E+00 SP= 0.00E+00 SK= 0.00E+00
       N       E                     dE             d eps       ncg     rms          rms(c)
RMM:   1    -0.413236367655E+03   -0.17919E-01   -0.85028E+00  4312   0.121E+00    0.976E-01
RMM:   2    -0.413226902127E+03    0.94655E-02   -0.12888E-01  4381   0.149E-01    0.711E-01
RMM:   3    -0.413226641459E+03    0.26067E-03   -0.34738E-02  5065   0.106E-01    0.347E-01
RMM:   4    -0.413251886579E+03   -0.25245E-01   -0.48967E-02  5068   0.190E-01    0.736E-01
RMM:   5    -0.413219835051E+03    0.32052E-01   -0.12647E-02  4709   0.121E-01    0.586E-02
RMM:   6    -0.413219865723E+03   -0.30672E-04   -0.25069E-03  5709   0.476E-02    0.344E-02
RMM:   7    -0.413219875258E+03   -0.95347E-05   -0.39046E-04  5639   0.193E-02    0.227E-02
RMM:   8    -0.413219871001E+03    0.42571E-05   -0.11360E-04  5131   0.114E-02    0.122E-02
RMM:   9    -0.413219860725E+03    0.10276E-04   -0.14514E-05  4167   0.517E-03    0.516E-03
RMM:  10    -0.413219856625E+03    0.41001E-05   -0.33207E-06  2761   0.251E-03    0.307E-03
RMM:  11    -0.413219852829E+03    0.37953E-05   -0.10812E-06  2489   0.174E-03    0.165E-03
RMM:  12    -0.413219846153E+03    0.66766E-05   -0.83111E-07  2455   0.150E-03    0.787E-04
RMM:  13    -0.413219841924E+03    0.42284E-05   -0.38123E-07  2152   0.106E-03    0.359E-04
RMM:  14    -0.413219839659E+03    0.22652E-05   -0.19673E-07  1617   0.786E-04    0.222E-04
RMM:  15    -0.413219833342E+03    0.63169E-05   -0.14243E-07  1370   0.726E-04    0.177E-04
RMM:  16    -0.413219830770E+03    0.25722E-05   -0.83322E-08  1124   0.646E-04    0.118E-04
RMM:  17    -0.413219827363E+03    0.34075E-05   -0.67050E-08  1152   0.634E-04    0.722E-05
RMM:  18    -0.413219823523E+03    0.38400E-05   -0.59923E-08  1232   0.622E-04    0.442E-05
RMM:  19    -0.413219821269E+03    0.22534E-05   -0.36932E-08  1014   0.572E-04    0.373E-05
RMM:  20    -0.413219820760E+03    0.50957E-06   -0.19137E-08   770   0.532E-04
   45 T=    72. E= -.41286726E+03 F= -.41321982E+03 E0= -.41319886E+03  EK= 0.35256E+00 SP= 0.00E+00 SK= 0.00E+00
       N       E                     dE             d eps       ncg     rms          rms(c)
RMM:   1    -0.413240672920E+03   -0.20852E-01   -0.84706E+00  4311   0.132E+00    0.959E-01
RMM:   2    -0.413226655075E+03    0.14018E-01   -0.13643E-01  4410   0.159E-01    0.706E-01
RMM:   3    -0.413228662156E+03   -0.20071E-02   -0.34519E-02  5072   0.116E-01    0.403E-01
RMM:   4    -0.413247751214E+03   -0.19089E-01   -0.48698E-02  5061   0.191E-01    0.691E-01
RMM:   5    -0.413219547280E+03    0.28204E-01   -0.10467E-02  4675   0.114E-01    0.586E-02
RMM:   6    -0.413219541362E+03    0.59178E-05   -0.21367E-03  5636   0.444E-02    0.330E-02
RMM:   7    -0.413219552386E+03   -0.11024E-04   -0.36298E-04  5615   0.187E-02    0.226E-02
RMM:   8    -0.413219546460E+03    0.59266E-05   -0.11495E-04  5094   0.115E-02    0.112E-02
RMM:   9    -0.413219536893E+03    0.95661E-05   -0.13259E-05  4063   0.512E-03    0.457E-03
RMM:  10    -0.413219533500E+03    0.33935E-05   -0.30611E-06  2745   0.238E-03    0.271E-03
RMM:  11    -0.413219529491E+03    0.40087E-05   -0.10840E-06  2488   0.170E-03    0.141E-03
RMM:  12    -0.413219523906E+03    0.55849E-05   -0.70029E-07  2413   0.137E-03    0.688E-04
RMM:  13    -0.413219520210E+03    0.36966E-05   -0.33330E-07  1958   0.977E-04    0.302E-04
RMM:  14    -0.413219517269E+03    0.29412E-05   -0.18407E-07  1474   0.763E-04    0.173E-04
RMM:  15    -0.413219511795E+03    0.54739E-05   -0.14158E-07  1311   0.721E-04    0.129E-04
RMM:  16    -0.413219509054E+03    0.27403E-05   -0.89663E-08  1186   0.659E-04    0.860E-05
RMM:  17    -0.413219503922E+03    0.51327E-05   -0.90123E-08  1425   0.672E-04    0.610E-05
RMM:  18    -0.413219501642E+03    0.22800E-05   -0.48867E-08  1054   0.578E-04    0.339E-05
RMM:  19    -0.413219499925E+03    0.17165E-05   -0.33611E-08   937   0.552E-04    0.226E-05
RMM:  20    -0.413219499670E+03    0.25546E-06   -0.18119E-08   739   0.521E-04
   46 T=    72. E= -.41286698E+03 F= -.41321950E+03 E0= -.41319855E+03  EK= 0.35252E+00 SP= 0.00E+00 SK= 0.00E+00
       N       E                     dE             d eps       ncg     rms          rms(c)
RMM:   1    -0.413235637299E+03   -0.16137E-01   -0.84645E+00  4313   0.136E+00    0.952E-01
RMM:   2    -0.413225684603E+03    0.99527E-02   -0.13390E-01  4441   0.168E-01    0.712E-01
RMM:   3    -0.413230720674E+03   -0.50361E-02   -0.39218E-02  5078   0.130E-01    0.467E-01
RMM:   4    -0.413242288395E+03   -0.11568E-01   -0.47707E-02  5037   0.192E-01    0.639E-01
RMM:   5    -0.413218307622E+03    0.23981E-01   -0.83249E-03  4639   0.107E-01    0.569E-02
RMM:   6    -0.413218274145E+03    0.33477E-04   -0.17640E-03  5523   0.406E-02    0.304E-02
RMM:   7    -0.413218282510E+03   -0.83651E-05   -0.30556E-04  5580   0.174E-02    0.211E-02
RMM:   8    -0.413218278720E+03    0.37902E-05   -0.11216E-04  5061   0.114E-02    0.101E-02
RMM:   9    -0.413218271528E+03    0.71922E-05   -0.11751E-05  3920   0.493E-03    0.427E-03
RMM:  10    -0.413218269452E+03    0.20760E-05   -0.26652E-06  2687   0.229E-03    0.250E-03
RMM:  11    -0.413218266561E+03    0.28911E-05   -0.11433E-06  2494   0.170E-03    0.126E-03
RMM:  12    -0.413218262912E+03    0.36493E-05   -0.67992E-07  2362   0.131E-03    0.657E-04
RMM:  13    -0.413218260089E+03    0.28226E-05   -0.33070E-07  1878   0.942E-04    0.293E-04
RMM:  14    -0.413218257356E+03    0.27326E-05   -0.19423E-07  1384   0.757E-04    0.160E-04
RMM:  15    -0.413218253443E+03    0.39139E-05   -0.16098E-07  1385   0.728E-04    0.117E-04
RMM:  16    -0.413218250887E+03    0.25553E-05   -0.10151E-07  1192   0.656E-04    0.787E-05
RMM:  17    -0.413218245991E+03    0.48961E-05   -0.11070E-07  1450   0.681E-04    0.565E-05
RMM:  18    -0.413218244446E+03    0.15448E-05   -0.49220E-08   982   0.561E-04    0.321E-05
RMM:  19    -0.413218243080E+03    0.13661E-05   -0.32422E-08   874   0.542E-04    0.169E-05
RMM:  20    -0.413218242663E+03    0.41740E-06   -0.19793E-08   750   0.522E-04
   47 T=    72. E= -.41286689E+03 F= -.41321824E+03 E0= -.41319731E+03  EK= 0.35136E+00 SP= 0.00E+00 SK= 0.00E+00
       N       E                     dE             d eps       ncg     rms          rms(c)
RMM:   1    -0.413234928312E+03   -0.16685E-01   -0.83622E+00  4311   0.143E+00    0.967E-01
RMM:   2    -0.413223016994E+03    0.11911E-01   -0.13222E-01  4483   0.177E-01    0.710E-01
RMM:   3    -0.413234707928E+03   -0.11691E-01   -0.42926E-02  5104   0.148E-01    0.572E-01
RMM:   4    -0.413231959399E+03    0.27485E-02   -0.44471E-02  4996   0.189E-01    0.522E-01
RMM:   5    -0.413216000219E+03    0.15959E-01   -0.49673E-03  4579   0.911E-02    0.561E-02
RMM:   6    -0.413215921504E+03    0.78715E-04   -0.97377E-04  5112   0.326E-02    0.289E-02
RMM:   7    -0.413215932617E+03   -0.11113E-04   -0.18405E-04  5508   0.139E-02    0.159E-02
RMM:   8    -0.413215936111E+03   -0.34939E-05   -0.10192E-04  5202   0.104E-02    0.109E-02
RMM:   9    -0.413215923537E+03    0.12574E-04   -0.13920E-05  4174   0.515E-03    0.417E-03
RMM:  10    -0.413215920675E+03    0.28612E-05   -0.30107E-06  2705   0.236E-03    0.231E-03
RMM:  11    -0.413215915675E+03    0.50009E-05   -0.12088E-06  2453   0.180E-03    0.122E-03
RMM:  12    -0.413215911583E+03    0.40913E-05   -0.56301E-07  2290   0.128E-03    0.705E-04
RMM:  13    -0.413215907223E+03    0.43602E-05   -0.28422E-07  1768   0.923E-04    0.329E-04
RMM:  14    -0.413215902765E+03    0.44579E-05   -0.15597E-07  1333   0.733E-04    0.170E-04
RMM:  15    -0.413215898374E+03    0.43915E-05   -0.11318E-07  1239   0.684E-04    0.124E-04
RMM:  16    -0.413215895210E+03    0.31640E-05   -0.75374E-08  1104   0.629E-04    0.942E-05
RMM:  17    -0.413215889427E+03    0.57824E-05   -0.84606E-08  1345   0.650E-04    0.671E-05
RMM:  18    -0.413215888029E+03    0.13980E-05   -0.31057E-08   789   0.526E-04    0.538E-05
RMM:  19    -0.413215886567E+03    0.14624E-05   -0.23482E-08   757   0.520E-04    0.250E-05
RMM:  20    -0.413215885447E+03    0.11204E-05   -0.17436E-08   703   0.515E-04    0.148E-05
RMM:  21    -0.413215885228E+03    0.21910E-06   -0.96774E-09   592   0.497E-04
   48 T=    71. E= -.41286702E+03 F= -.41321589E+03 E0= -.41319496E+03  EK= 0.34886E+00 SP= 0.00E+00 SK= 0.00E+00
       N       E                     dE             d eps       ncg     rms          rms(c)
RMM:   1    -0.413233223539E+03   -0.17338E-01   -0.82072E+00  4306   0.155E+00    0.955E-01
RMM:   2    -0.413218203308E+03    0.15020E-01   -0.13338E-01  4552   0.190E-01    0.699E-01
RMM:   3    -0.413238271508E+03   -0.20068E-01   -0.47456E-02  5137   0.168E-01    0.686E-01
RMM:   4    -0.413221930743E+03    0.16341E-01   -0.44159E-02  4971   0.191E-01    0.427E-01
RMM:   5    -0.413211354663E+03    0.10576E-01   -0.36231E-03  4575   0.844E-02    0.585E-02
RMM:   6    -0.413211219501E+03    0.13516E-03   -0.50746E-04  4747   0.280E-02    0.296E-02
RMM:   7    -0.413211231387E+03   -0.11886E-04   -0.21338E-04  5783   0.158E-02    0.172E-02
RMM:   8    -0.413211216978E+03    0.14409E-04   -0.68628E-05  5110   0.931E-03    0.920E-03
RMM:   9    -0.413211212215E+03    0.47624E-05   -0.11937E-05  4182   0.467E-03    0.412E-03
RMM:  10    -0.413211208786E+03    0.34292E-05   -0.17105E-06  2584   0.217E-03    0.232E-03
RMM:  11    -0.413211203004E+03    0.57821E-05   -0.10102E-06  2481   0.166E-03    0.147E-03
RMM:  12    -0.413211199472E+03    0.35324E-05   -0.42265E-07  2270   0.112E-03    0.766E-04
RMM:  13    -0.413211194115E+03    0.53568E-05   -0.36175E-07  2255   0.977E-04    0.486E-04
RMM:  14    -0.413211190043E+03    0.40725E-05   -0.16063E-07  1331   0.715E-04    0.290E-04
RMM:  15    -0.413211185031E+03    0.50120E-05   -0.11774E-07  1158   0.663E-04    0.133E-04
RMM:  16    -0.413211181671E+03    0.33593E-05   -0.77649E-08  1075   0.626E-04    0.838E-05
RMM:  17    -0.413211175429E+03    0.62427E-05   -0.93379E-08  1466   0.672E-04    0.138E-04
RMM:  18    -0.413211174116E+03    0.13124E-05   -0.39661E-08   918   0.527E-04    0.100E-04
RMM:  19    -0.413211172368E+03    0.17482E-05   -0.31487E-08   892   0.517E-04    0.407E-05
RMM:  20    -0.413211170941E+03    0.14265E-05   -0.25459E-08   867   0.517E-04    0.319E-05
RMM:  21    -0.413211170697E+03    0.24424E-06   -0.14443E-08   680   0.488E-04
   49 T=    70. E= -.41286670E+03 F= -.41321117E+03 E0= -.41319026E+03  EK= 0.34448E+00 SP= 0.00E+00 SK= 0.00E+00
       N       E                     dE             d eps       ncg     rms          rms(c)
RMM:   1    -0.413228868537E+03   -0.17698E-01   -0.81086E+00  4309   0.168E+00    0.927E-01
RMM:   2    -0.413212638671E+03    0.16230E-01   -0.13937E-01  4637   0.204E-01    0.698E-01
RMM:   3    -0.413239832786E+03   -0.27194E-01   -0.52204E-02  5144   0.185E-01    0.772E-01
RMM:   4    -0.413214291522E+03    0.25541E-01   -0.47336E-02  4934   0.201E-01    0.390E-01
RMM:   5    -0.413205545994E+03    0.87455E-02   -0.39199E-03  4698   0.882E-02    0.639E-02
RMM:   6    -0.413205357623E+03    0.18837E-03   -0.44718E-04  4650   0.286E-02    0.303E-02
RMM:   7    -0.413205389186E+03   -0.31563E-04   -0.31010E-04  5692   0.191E-02    0.242E-02
RMM:   8    -0.413205357416E+03    0.31770E-04   -0.83605E-05  4998   0.108E-02    0.105E-02
RMM:   9    -0.413205354285E+03    0.31311E-05   -0.27099E-05  5404   0.630E-03    0.480E-03
RMM:  10    -0.413205351508E+03    0.27767E-05   -0.32744E-06  2778   0.266E-03    0.280E-03
RMM:  11    -0.413205347649E+03    0.38595E-05   -0.16431E-06  2501   0.214E-03    0.216E-03
RMM:  12    -0.413205344430E+03    0.32194E-05   -0.52205E-07  2439   0.133E-03    0.110E-03
RMM:  13    -0.413205341475E+03    0.29543E-05   -0.29586E-07  2110   0.911E-04    0.492E-04
RMM:  14    -0.413205337167E+03    0.43079E-05   -0.25820E-07  1722   0.824E-04    0.330E-04
RMM:  15    -0.413205332384E+03    0.47834E-05   -0.18331E-07  1388   0.722E-04    0.175E-04
[...]
RMM:  17    -0.413154896127E+03   -0.30278E-05   -0.98786E-08  1272   0.646E-04    0.762E-05
RMM:  18    -0.413154898163E+03   -0.20356E-05   -0.65603E-08  1076   0.598E-04    0.605E-05
RMM:  19    -0.413154899010E+03   -0.84715E-06   -0.36377E-08   881   0.557E-04
  140 T=    58. E= -.41286808E+03 F= -.41315490E+03 E0= -.41313395E+03  EK= 0.28682E+00 SP= 0.00E+00 SK= 0.00E+00
       N       E                     dE             d eps       ncg     rms          rms(c)
RMM:   1    -0.413151974452E+03    0.29237E-02   -0.78472E+00  4264   0.105E+00    0.799E-01
RMM:   2    -0.413155570729E+03   -0.35963E-02   -0.85991E-02  4434   0.114E-01    0.565E-01
RMM:   3    -0.413155602729E+03   -0.32000E-04   -0.11648E-02  5130   0.774E-02    0.222E-01
RMM:   4    -0.413177131366E+03   -0.21529E-01   -0.31005E-02  5122   0.151E-01    0.642E-01
RMM:   5    -0.413153248248E+03    0.23883E-01   -0.11023E-02  4798   0.112E-01    0.658E-02
RMM:   6    -0.413153144099E+03    0.10415E-03   -0.19704E-03  5458   0.460E-02    0.286E-02
RMM:   7    -0.413153168320E+03   -0.24222E-04   -0.40786E-04  5892   0.192E-02    0.216E-02
RMM:   8    -0.413153170480E+03   -0.21597E-05   -0.98271E-05  5225   0.102E-02    0.831E-03
RMM:   9    -0.413153173244E+03   -0.27642E-05   -0.19203E-05  4451   0.503E-03    0.432E-03
RMM:  10    -0.413153175868E+03   -0.26235E-05   -0.25853E-06  2683   0.233E-03    0.262E-03
RMM:  11    -0.413153179165E+03   -0.32970E-05   -0.95928E-07  2500   0.165E-03    0.156E-03
RMM:  12    -0.413153185705E+03   -0.65404E-05   -0.85477E-07  2476   0.150E-03    0.110E-03
RMM:  13    -0.413153187393E+03   -0.16882E-05   -0.29710E-07  2031   0.968E-04    0.370E-04
RMM:  14    -0.413153189733E+03   -0.23399E-05   -0.17678E-07  1413   0.738E-04    0.204E-04
RMM:  15    -0.413153192601E+03   -0.28676E-05   -0.14115E-07  1356   0.701E-04    0.122E-04
RMM:  16    -0.413153194355E+03   -0.17548E-05   -0.98346E-08  1200   0.642E-04    0.805E-05
RMM:  17    -0.413153197074E+03   -0.27189E-05   -0.92506E-08  1261   0.640E-04    0.688E-05
RMM:  18    -0.413153199048E+03   -0.19735E-05   -0.64244E-08  1086   0.597E-04    0.573E-05
RMM:  19    -0.413153199801E+03   -0.75282E-06   -0.35804E-08   888   0.554E-04
  141 T=    58. E= -.41286782E+03 F= -.41315320E+03 E0= -.41313229E+03  EK= 0.28538E+00 SP= 0.00E+00 SK= 0.00E+00
       N       E                     dE             d eps       ncg     rms          rms(c)
RMM:   1    -0.413149620151E+03    0.35789E-02   -0.79238E+00  4264   0.104E+00    0.784E-01
RMM:   2    -0.413154782798E+03   -0.51626E-02   -0.86822E-02  4429   0.113E-01    0.569E-01
RMM:   3    -0.413154520511E+03    0.26229E-03   -0.11308E-02  5127   0.762E-02    0.215E-01
RMM:   4    -0.413178184092E+03   -0.23664E-01   -0.33124E-02  5125   0.156E-01    0.668E-01
RMM:   5    -0.413152201140E+03    0.25983E-01   -0.11895E-02  4792   0.116E-01    0.634E-02
RMM:   6    -0.413152120609E+03    0.80531E-04   -0.21177E-03  5513   0.471E-02    0.267E-02
RMM:   7    -0.413152149258E+03   -0.28649E-04   -0.40241E-04  5904   0.187E-02    0.202E-02
RMM:   8    -0.413152158638E+03   -0.93805E-05   -0.91580E-05  5231   0.976E-03    0.803E-03
RMM:   9    -0.413152165430E+03   -0.67913E-05   -0.18603E-05  4351   0.490E-03    0.419E-03
RMM:  10    -0.413152170051E+03   -0.46214E-05   -0.25051E-06  2664   0.230E-03    0.254E-03
RMM:  11    -0.413152175652E+03   -0.56011E-05   -0.98040E-07  2503   0.165E-03    0.151E-03
RMM:  12    -0.413152185844E+03   -0.10192E-04   -0.85976E-07  2477   0.150E-03    0.103E-03
RMM:  13    -0.413152188541E+03   -0.26966E-05   -0.30284E-07  1992   0.960E-04    0.374E-04
RMM:  14    -0.413152191879E+03   -0.33375E-05   -0.18619E-07  1457   0.755E-04    0.206E-04
RMM:  15    -0.413152196077E+03   -0.41988E-05   -0.15867E-07  1472   0.725E-04    0.149E-04
RMM:  16    -0.413152198556E+03   -0.24785E-05   -0.10558E-07  1233   0.647E-04    0.103E-04
RMM:  17    -0.413152201935E+03   -0.33790E-05   -0.98580E-08  1317   0.643E-04    0.714E-05
RMM:  18    -0.413152204319E+03   -0.23844E-05   -0.69398E-08  1145   0.596E-04    0.561E-05
RMM:  19    -0.413152205002E+03   -0.68254E-06   -0.37229E-08   896   0.541E-04
  142 T=    58. E= -.41286796E+03 F= -.41315221E+03 E0= -.41313134E+03  EK= 0.28424E+00 SP= 0.00E+00 SK= 0.00E+00
       N       E                     dE             d eps       ncg     rms          rms(c)
RMM:   1    -0.413148094442E+03    0.41099E-02   -0.80263E+00  4264   0.104E+00    0.796E-01
RMM:   2    -0.413153154179E+03   -0.50597E-02   -0.86766E-02  4433   0.112E-01    0.568E-01
RMM:   3    -0.413152884354E+03    0.26982E-03   -0.10449E-02  5133   0.719E-02    0.203E-01
RMM:   4    -0.413177238523E+03   -0.24354E-01   -0.32670E-02  5129   0.154E-01    0.673E-01
RMM:   5    -0.413150917465E+03    0.26321E-01   -0.12177E-02  4795   0.116E-01    0.627E-02
RMM:   6    -0.413150843322E+03    0.74143E-04   -0.21675E-03  5521   0.476E-02    0.264E-02
RMM:   7    -0.413150870680E+03   -0.27358E-04   -0.40551E-04  5934   0.187E-02    0.200E-02
RMM:   8    -0.413150877582E+03   -0.69016E-05   -0.88738E-05  5224   0.958E-03    0.801E-03
RMM:   9    -0.413150882540E+03   -0.49580E-05   -0.17837E-05  4283   0.478E-03    0.419E-03
RMM:  10    -0.413150886225E+03   -0.36850E-05   -0.23748E-06  2639   0.227E-03    0.255E-03
RMM:  11    -0.413150891044E+03   -0.48191E-05   -0.99821E-07  2507   0.166E-03    0.149E-03
RMM:  12    -0.413150898781E+03   -0.77368E-05   -0.75574E-07  2452   0.142E-03    0.952E-04
RMM:  13    -0.413150901036E+03   -0.22555E-05   -0.28182E-07  1942   0.929E-04    0.336E-04
RMM:  14    -0.413150904021E+03   -0.29845E-05   -0.17719E-07  1440   0.747E-04    0.177E-04
RMM:  15    -0.413150907287E+03   -0.32658E-05   -0.13899E-07  1386   0.705E-04    0.134E-04
RMM:  16    -0.413150909405E+03   -0.21187E-05   -0.97865E-08  1229   0.648E-04    0.928E-05
RMM:  17    -0.413150912638E+03   -0.32328E-05   -0.95175E-08  1328   0.649E-04    0.644E-05
RMM:  18    -0.413150914737E+03   -0.20985E-05   -0.64775E-08  1136   0.591E-04    0.498E-05
RMM:  19    -0.413150915353E+03   -0.61582E-06   -0.34156E-08   879   0.540E-04
  143 T=    58. E= -.41286805E+03 F= -.41315092E+03 E0= -.41313009E+03  EK= 0.28287E+00 SP= 0.00E+00 SK= 0.00E+00
       N       E                     dE             d eps       ncg     rms          rms(c)
RMM:   1    -0.413151125149E+03   -0.21041E-03   -0.81196E+00  4264   0.108E+00    0.798E-01
RMM:   2    -0.413151020931E+03    0.10422E-03   -0.96597E-02  4439   0.115E-01    0.560E-01
RMM:   3    -0.413150768751E+03    0.25218E-03   -0.91652E-03  5157   0.648E-02    0.196E-01
RMM:   4    -0.413177566938E+03   -0.26798E-01   -0.33701E-02  5143   0.156E-01    0.698E-01
RMM:   5    -0.413149253114E+03    0.28314E-01   -0.13286E-02  4804   0.120E-01    0.631E-02
RMM:   6    -0.413149191221E+03    0.61892E-04   -0.23420E-03  5577   0.494E-02    0.267E-02
RMM:   7    -0.413149217928E+03   -0.26707E-04   -0.42283E-04  5966   0.189E-02    0.201E-02
RMM:   8    -0.413149221854E+03   -0.39253E-05   -0.89165E-05  5225   0.958E-03    0.817E-03
RMM:   9    -0.413149225054E+03   -0.32002E-05   -0.17673E-05  4223   0.472E-03    0.424E-03
RMM:  10    -0.413149227714E+03   -0.26607E-05   -0.23729E-06  2628   0.226E-03    0.261E-03
RMM:  11    -0.413149231843E+03   -0.41284E-05   -0.11252E-06  2506   0.175E-03    0.150E-03
RMM:  12    -0.413149236771E+03   -0.49278E-05   -0.66507E-07  2425   0.135E-03    0.820E-04
RMM:  13    -0.413149238555E+03   -0.17844E-05   -0.27141E-07  1875   0.901E-04    0.321E-04
RMM:  14    -0.413149240971E+03   -0.24156E-05   -0.17681E-07  1437   0.759E-04    0.154E-04
RMM:  15    -0.413149243137E+03   -0.21668E-05   -0.12973E-07  1355   0.703E-04    0.123E-04
RMM:  16    -0.413149244735E+03   -0.15978E-05   -0.92879E-08  1231   0.655E-04    0.894E-05
RMM:  17    -0.413149247037E+03   -0.23023E-05   -0.86330E-08  1319   0.648E-04    0.629E-05
RMM:  18    -0.413149248958E+03   -0.19210E-05   -0.63388E-08  1173   0.597E-04    0.417E-05
RMM:  19    -0.413149249465E+03   -0.50620E-06   -0.30860E-08   858   0.539E-04
  144 T=    57. E= -.41286792E+03 F= -.41314925E+03 E0= -.41312846E+03  EK= 0.28133E+00 SP= 0.00E+00 SK= 0.00E+00
       N       E                     dE             d eps       ncg     rms          rms(c)
RMM:   1    -0.413144568765E+03    0.46802E-02   -0.80966E+00  4264   0.104E+00    0.779E-01
RMM:   2    -0.413150466768E+03   -0.58980E-02   -0.87612E-02  4436   0.112E-01    0.560E-01
RMM:   3    -0.413150073746E+03    0.39302E-03   -0.92293E-03  5129   0.684E-02    0.192E-01
RMM:   4    -0.413175524559E+03   -0.25451E-01   -0.32917E-02  5139   0.154E-01    0.683E-01
RMM:   5    -0.413148344484E+03    0.27180E-01   -0.12521E-02  4796   0.117E-01    0.589E-02
RMM:   6    -0.413148292484E+03    0.52001E-04   -0.22242E-03  5587   0.477E-02    0.244E-02
RMM:   7    -0.413148319772E+03   -0.27288E-04   -0.38167E-04  5964   0.179E-02    0.183E-02
RMM:   8    -0.413148329414E+03   -0.96423E-05   -0.78286E-05  5210   0.887E-03    0.763E-03
RMM:   9    -0.413148336453E+03   -0.70384E-05   -0.16074E-05  4071   0.448E-03    0.399E-03
RMM:  10    -0.413148341105E+03   -0.46520E-05   -0.21535E-06  2600   0.219E-03    0.241E-03
RMM:  11    -0.413148347893E+03   -0.67889E-05   -0.10924E-06  2507   0.171E-03    0.142E-03
RMM:  12    -0.413148355883E+03   -0.79899E-05   -0.66475E-07  2408   0.134E-03    0.795E-04
RMM:  13    -0.413148358518E+03   -0.26350E-05   -0.26857E-07  1848   0.888E-04    0.340E-04
RMM:  14    -0.413148362009E+03   -0.34907E-05   -0.18114E-07  1469   0.766E-04    0.167E-04
RMM:  15    -0.413148365453E+03   -0.34437E-05   -0.13978E-07  1441   0.718E-04    0.136E-04
RMM:  16    -0.413148367604E+03   -0.21514E-05   -0.97275E-08  1263   0.648E-04    0.104E-04
RMM:  17    -0.413148370580E+03   -0.29757E-05   -0.89706E-08  1335   0.639E-04    0.659E-05
RMM:  18    -0.413148373178E+03   -0.25982E-05   -0.69421E-08  1206   0.594E-04    0.389E-05
RMM:  19    -0.413148373401E+03   -0.22282E-06   -0.30665E-08   839   0.524E-04
  145 T=    57. E= -.41286818E+03 F= -.41314837E+03 E0= -.41312762E+03  EK= 0.28019E+00 SP= 0.00E+00 SK= 0.00E+00
       N       E                     dE             d eps       ncg     rms          rms(c)
RMM:   1    -0.413142772841E+03    0.56003E-02   -0.82053E+00  4264   0.104E+00    0.787E-01
RMM:   2    -0.413148538408E+03   -0.57656E-02   -0.88581E-02  4445   0.112E-01    0.563E-01
RMM:   3    -0.413148288915E+03    0.24949E-03   -0.88571E-03  5149   0.652E-02    0.184E-01
RMM:   4    -0.413174937960E+03   -0.26649E-01   -0.33439E-02  5141   0.155E-01    0.695E-01
RMM:   5    -0.413146761332E+03    0.28177E-01   -0.13076E-02  4797   0.119E-01    0.581E-02
RMM:   6    -0.413146715217E+03    0.46114E-04   -0.23079E-03  5609   0.483E-02    0.237E-02
RMM:   7    -0.413146742940E+03   -0.27723E-04   -0.38107E-04  5973   0.177E-02    0.177E-02
RMM:   8    -0.413146752426E+03   -0.94857E-05   -0.74676E-05  5222   0.855E-03    0.766E-03
RMM:   9    -0.413146759404E+03   -0.69788E-05   -0.15074E-05  3981   0.436E-03    0.396E-03
RMM:  10    -0.413146764060E+03   -0.46554E-05   -0.20972E-06  2592   0.217E-03    0.237E-03
RMM:  11    -0.413146771093E+03   -0.70327E-05   -0.11331E-06  2507   0.173E-03    0.141E-03
RMM:  12    -0.413146778227E+03   -0.71347E-05   -0.60764E-07  2397   0.130E-03    0.742E-04
RMM:  13    -0.413146780848E+03   -0.26204E-05   -0.25730E-07  1809   0.872E-04    0.341E-04
RMM:  14    -0.413146784301E+03   -0.34530E-05   -0.17961E-07  1532   0.769E-04    0.163E-04
RMM:  15    -0.413146787662E+03   -0.33609E-05   -0.13429E-07  1397   0.709E-04    0.130E-04
RMM:  16    -0.413146789918E+03   -0.22560E-05   -0.97233E-08  1287   0.652E-04    0.981E-05
RMM:  17    -0.413146792796E+03   -0.28788E-05   -0.87025E-08  1341   0.641E-04    0.636E-05
RMM:  18    -0.413146795429E+03   -0.26321E-05   -0.69537E-08  1225   0.596E-04    0.351E-05
RMM:  19    -0.413146795532E+03   -0.10307E-06   -0.29555E-08   828   0.520E-04
  146 T=    57. E= -.41286795E+03 F= -.41314680E+03 E0= -.41312608E+03  EK= 0.27884E+00 SP= 0.00E+00 SK= 0.00E+00
       N       E                     dE             d eps       ncg     rms          rms(c)
RMM:   1    -0.413146992527E+03   -0.19710E-03   -0.83152E+00  4264   0.109E+00    0.799E-01
RMM:   2    -0.413146717874E+03    0.27465E-03   -0.93460E-02  4447   0.113E-01    0.555E-01
RMM:   3    -0.413146752457E+03   -0.34584E-04   -0.81548E-03  5169   0.602E-02    0.181E-01
RMM:   4    -0.413173675606E+03   -0.26923E-01   -0.32537E-02  5148   0.153E-01    0.696E-01
RMM:   5    -0.413145523489E+03    0.28152E-01   -0.13294E-02  4804   0.119E-01    0.582E-02
RMM:   6    -0.413145479249E+03    0.44240E-04   -0.23062E-03  5631   0.485E-02    0.243E-02
RMM:   7    -0.413145502798E+03   -0.23549E-04   -0.38136E-04  5989   0.177E-02    0.181E-02
RMM:   8    -0.413145507551E+03   -0.47526E-05   -0.73202E-05  5207   0.848E-03    0.785E-03
RMM:   9    -0.413145511054E+03   -0.35027E-05   -0.14218E-05  3880   0.426E-03    0.397E-03
RMM:  10    -0.413145513810E+03   -0.27566E-05   -0.21021E-06  2591   0.218E-03    0.239E-03
RMM:  11    -0.413145518412E+03   -0.46018E-05   -0.12011E-06  2509   0.178E-03    0.144E-03
RMM:  12    -0.413145522134E+03   -0.37216E-05   -0.53487E-07  2388   0.125E-03    0.662E-04
RMM:  13    -0.413145523826E+03   -0.16921E-05   -0.24495E-07  1750   0.853E-04    0.313E-04
RMM:  14    -0.413145526067E+03   -0.22409E-05   -0.17515E-07  1534   0.768E-04    0.153E-04
RMM:  15    -0.413145528080E+03   -0.20129E-05   -0.12008E-07  1315   0.696E-04    0.116E-04
RMM:  16    -0.413145529662E+03   -0.15823E-05   -0.91046E-08  1281   0.658E-04    0.812E-05
RMM:  17    -0.413145531622E+03   -0.19601E-05   -0.78612E-08  1316   0.642E-04    0.556E-05
RMM:  18    -0.413145533555E+03   -0.19327E-05   -0.60066E-08  1158   0.596E-04    0.342E-05
RMM:  19    -0.413145533819E+03   -0.26487E-06   -0.26643E-08   828   0.533E-04
  147 T=    56. E= -.41286802E+03 F= -.41314553E+03 E0= -.41312485E+03  EK= 0.27752E+00 SP= 0.00E+00 SK= 0.00E+00
       N       E                     dE             d eps       ncg     rms          rms(c)
RMM:   1    -0.413139833245E+03    0.57003E-02   -0.82427E+00  4264   0.104E+00    0.777E-01
RMM:   2    -0.413145965297E+03   -0.61321E-02   -0.88352E-02  4444   0.111E-01    0.552E-01
RMM:   3    -0.413145707700E+03    0.25760E-03   -0.77782E-03  5140   0.607E-02    0.174E-01
RMM:   4    -0.413172337766E+03   -0.26630E-01   -0.32309E-02  5148   0.152E-01    0.692E-01
RMM:   5    -0.413144431903E+03    0.27906E-01   -0.13034E-02  4795   0.118E-01    0.543E-02
RMM:   6    -0.413144399095E+03    0.32808E-04   -0.22536E-03  5652   0.477E-02    0.221E-02
RMM:   7    -0.413144423168E+03   -0.24073E-04   -0.34959E-04  5988   0.169E-02    0.165E-02
RMM:   8    -0.413144431483E+03   -0.83142E-05   -0.64556E-05  5183   0.788E-03    0.753E-03
RMM:   9    -0.413144438224E+03   -0.67409E-05   -0.12875E-05  3737   0.406E-03    0.377E-03
RMM:  10    -0.413144442802E+03   -0.45788E-05   -0.19714E-06  2577   0.212E-03    0.224E-03
RMM:  11    -0.413144450127E+03   -0.73250E-05   -0.11793E-06  2508   0.176E-03    0.140E-03
RMM:  12    -0.413144455562E+03   -0.54350E-05   -0.51704E-07  2375   0.124E-03    0.640E-04
RMM:  13    -0.413144457983E+03   -0.24205E-05   -0.24313E-07  1715   0.848E-04    0.324E-04
RMM:  14    -0.413144461123E+03   -0.31400E-05   -0.18322E-07  1597   0.787E-04    0.164E-04
RMM:  15    -0.413144464055E+03   -0.29321E-05   -0.13134E-07  1413   0.708E-04    0.127E-04
RMM:  16    -0.413144466110E+03   -0.20548E-05   -0.95551E-08  1310   0.651E-04    0.903E-05
RMM:  17    -0.413144468780E+03   -0.26701E-05   -0.86356E-08  1358   0.638E-04    0.492E-05
RMM:  18    -0.413144470642E+03   -0.18623E-05   -0.58357E-08  1123   0.578E-04    0.368E-05
RMM:  19    -0.413144470846E+03   -0.20421E-06   -0.27934E-08   834   0.523E-04
  148 T=    56. E= -.41286810E+03 F= -.41314447E+03 E0= -.41312382E+03  EK= 0.27637E+00 SP= 0.00E+00 SK= 0.00E+00
       N       E                     dE             d eps       ncg     rms          rms(c)
RMM:   1    -0.413137917698E+03    0.65529E-02   -0.83439E+00  4264   0.104E+00    0.779E-01
RMM:   2    -0.413144316689E+03   -0.63990E-02   -0.90264E-02  4442   0.112E-01    0.560E-01
RMM:   3    -0.413144113791E+03    0.20290E-03   -0.76767E-03  5156   0.596E-02    0.168E-01
RMM:   4    -0.413172291939E+03   -0.28178E-01   -0.33581E-02  5146   0.155E-01    0.709E-01
RMM:   5    -0.413142899215E+03    0.29393E-01   -0.13763E-02  4795   0.120E-01    0.526E-02
RMM:   6    -0.413142880175E+03    0.19040E-04   -0.23481E-03  5668   0.484E-02    0.206E-02
RMM:   7    -0.413142907098E+03   -0.26923E-04   -0.34717E-04  5995   0.166E-02    0.156E-02
RMM:   8    -0.413142917582E+03   -0.10484E-04   -0.60328E-05  5159   0.754E-03    0.750E-03
RMM:   9    -0.413142926428E+03   -0.88453E-05   -0.11829E-05  3595   0.390E-03    0.371E-03
RMM:  10    -0.413142932257E+03   -0.58298E-05   -0.19876E-06  2577   0.211E-03    0.218E-03
RMM:  11    -0.413142941336E+03   -0.90781E-05   -0.12083E-06  2512   0.176E-03    0.141E-03
RMM:  12    -0.413142947194E+03   -0.58580E-05   -0.50167E-07  2383   0.122E-03    0.614E-04
RMM:  13    -0.413142950104E+03   -0.29106E-05   -0.24813E-07  1693   0.848E-04    0.328E-04
RMM:  14    -0.413142953671E+03   -0.35663E-05   -0.19520E-07  1682   0.800E-04    0.186E-04
RMM:  15    -0.413142957174E+03   -0.35039E-05   -0.14041E-07  1457   0.717E-04    0.138E-04
RMM:  16    -0.413142959769E+03   -0.25941E-05   -0.10452E-07  1343   0.657E-04    0.858E-05
RMM:  17    -0.413142962643E+03   -0.28747E-05   -0.91693E-08  1368   0.639E-04    0.448E-05
RMM:  18    -0.413142964102E+03   -0.14583E-05   -0.56462E-08  1102   0.568E-04    0.419E-05
RMM:  19    -0.413142964634E+03   -0.53279E-06   -0.31546E-08   875   0.524E-04
  149 T=    56. E= -.41286780E+03 F= -.41314296E+03 E0= -.41312233E+03  EK= 0.27517E+00 SP= 0.00E+00 SK= 0.00E+00
       N       E                     dE             d eps       ncg     rms          rms(c)
RMM:   1    -0.413137749250E+03    0.52149E-02   -0.84038E+00  4264   0.105E+00    0.796E-01
RMM:   2    -0.413143211413E+03   -0.54622E-02   -0.89394E-02  4447   0.112E-01    0.552E-01
RMM:   3    -0.413143243961E+03   -0.32547E-04   -0.74114E-03  5163   0.575E-02    0.171E-01
RMM:   4    -0.413169609179E+03   -0.26365E-01   -0.31318E-02  5148   0.150E-01    0.688E-01
RMM:   5    -0.413142141676E+03    0.27468E-01   -0.12876E-02  4797   0.117E-01    0.520E-02
RMM:   6    -0.413142122560E+03    0.19116E-04   -0.22128E-03  5669   0.470E-02    0.214E-02
RMM:   7    -0.413142144540E+03   -0.21980E-04   -0.32992E-04  5988   0.163E-02    0.158E-02
RMM:   8    -0.413142150188E+03   -0.56472E-05   -0.56455E-05  5130   0.730E-03    0.756E-03
RMM:   9    -0.413142154407E+03   -0.42195E-05   -0.10728E-05  3500   0.375E-03    0.373E-03
RMM:  10    -0.413142157466E+03   -0.30584E-05   -0.18688E-06  2566   0.208E-03    0.217E-03
RMM:  11    -0.413142162380E+03   -0.49144E-05   -0.11409E-06  2510   0.172E-03    0.137E-03
RMM:  12    -0.413142165531E+03   -0.31512E-05   -0.47607E-07  2360   0.119E-03    0.554E-04
RMM:  13    -0.413142167219E+03   -0.16882E-05   -0.23811E-07  1689   0.840E-04    0.288E-04
RMM:  14    -0.413142169121E+03   -0.19015E-05   -0.17542E-07  1577   0.772E-04    0.151E-04
RMM:  15    -0.413142171369E+03   -0.22486E-05   -0.13161E-07  1414   0.712E-04    0.112E-04
RMM:  16    -0.413142172746E+03   -0.13762E-05   -0.89821E-08  1274   0.648E-04    0.745E-05
RMM:  17    -0.413142174480E+03   -0.17340E-05   -0.76396E-08  1278   0.632E-04    0.391E-05
RMM:  18    -0.413142176120E+03   -0.16409E-05   -0.61696E-08  1214   0.595E-04    0.303E-05
RMM:  19    -0.413142176384E+03   -0.26313E-06   -0.25631E-08   831   0.526E-04
  150 T=    56. E= -.41286811E+03 F= -.41314218E+03 E0= -.41312157E+03  EK= 0.27406E+00 SP= 0.00E+00 SK= 0.00E+00
