       N       E                     dE             d eps       ncg     rms          rms(c)
RMM:   1     0.220088779618E+04    0.22009E+04   -0.52444E+04  2132   0.654E+02
RMM:   2     0.705467078150E+03   -0.14954E+04   -0.16261E+04  2132   0.177E+02
RMM:   3     0.137520153815E+03   -0.56795E+03   -0.65706E+03  2132   0.117E+02
RMM:   4    -0.159312766991E+03   -0.29683E+03   -0.27873E+03  2132   0.936E+01
RMM:   5    -0.287523052689E+03   -0.12821E+03   -0.11444E+03  2132   0.595E+01
RMM:   6    -0.349772654284E+03   -0.62250E+02   -0.55141E+02  2132   0.423E+01
RMM:   7    -0.382719277757E+03   -0.32947E+02   -0.30449E+02  2132   0.293E+01
RMM:   8    -0.404199047918E+03   -0.21480E+02   -0.18421E+02  2132   0.233E+01
RMM:   9    -0.435995842236E+03   -0.31797E+02   -0.30730E+02  6096   0.173E+01
RMM:  10    -0.441243047605E+03   -0.52472E+01   -0.63150E+01  6389   0.539E+00
RMM:  11    -0.442524651074E+03   -0.12816E+01   -0.11153E+01  6228   0.174E+00
RMM:  12    -0.442895374914E+03   -0.37072E+00   -0.27987E+00  6381   0.610E-01    0.134E+02
RMM:  13    -0.425638523485E+03    0.17257E+02   -0.81018E+01  4670   0.119E+01    0.712E+01
RMM:  14    -0.499527694747E+03   -0.73889E+02   -0.54172E+02  5422   0.233E+01    0.307E+01
RMM:  15    -0.415418758794E+03    0.84109E+02   -0.19915E+02  5075   0.163E+01    0.667E+00
RMM:  16    -0.414045229485E+03    0.13735E+01   -0.39509E+01  6085   0.608E+00    0.429E+00
RMM:  17    -0.413215255111E+03    0.82997E+00   -0.24130E+00  5381   0.185E+00    0.245E+00
RMM:  18    -0.413170829037E+03    0.44426E-01   -0.81512E-01  5974   0.929E-01    0.164E+00
RMM:  19    -0.413167473934E+03    0.33551E-02   -0.28492E-01  5717   0.568E-01    0.854E-01
RMM:  20    -0.413182920086E+03   -0.15446E-01   -0.21945E-01  5486   0.501E-01    0.543E-01
RMM:  21    -0.413167021018E+03    0.15899E-01   -0.32229E-02  5019   0.224E-01    0.251E-01
RMM:  22    -0.413165190960E+03    0.18301E-02   -0.15357E-02  6050   0.107E-01    0.136E-01
RMM:  23    -0.413164047460E+03    0.11435E-02   -0.51872E-03  5921   0.652E-02    0.814E-02
RMM:  24    -0.413162931922E+03    0.11155E-02   -0.15403E-03  5274   0.382E-02    0.412E-02
RMM:  25    -0.413162683541E+03    0.24838E-03   -0.85815E-04  5594   0.262E-02    0.309E-02
RMM:  26    -0.413162925470E+03   -0.24193E-03   -0.76224E-04  5897   0.274E-02    0.339E-02
RMM:  27    -0.413163349086E+03   -0.42362E-03   -0.19373E-04  4593   0.192E-02    0.183E-02
RMM:  28    -0.413163837482E+03   -0.48840E-03   -0.20488E-04  5302   0.197E-02    0.854E-03
RMM:  29    -0.413164206549E+03   -0.36907E-03   -0.10102E-04  4359   0.143E-02    0.450E-03
RMM:  30    -0.413164433751E+03   -0.22720E-03   -0.77847E-05  4105   0.101E-02    0.327E-03
RMM:  31    -0.413164547127E+03   -0.11338E-03   -0.48018E-05  3143   0.617E-03    0.290E-03
RMM:  32    -0.413164574223E+03   -0.27096E-04   -0.20714E-05  2944   0.299E-03    0.139E-03
RMM:  33    -0.413164584846E+03   -0.10623E-04   -0.85768E-06  2781   0.214E-03    0.493E-04
RMM:  34    -0.413164588014E+03   -0.31683E-05   -0.46602E-06  2668   0.172E-03    0.979E-04
RMM:  35    -0.413164587824E+03    0.19051E-06   -0.42564E-06  2223   0.113E-03
    1 T=    61. E= -.41286679E+03 F= -.41316459E+03 E0= -.41314209E+03  EK= 0.29780E+00 SP= 0.00E+00 SK= 0.00E+00
       N       E                     dE             d eps       ncg     rms          rms(c)
RMM:   1    -0.413154537728E+03    0.10050E-01   -0.11183E+01  4003   0.700E-01    0.886E-01
RMM:   2    -0.413165595528E+03   -0.11058E-01   -0.13810E-01  3930   0.101E-01    0.641E-01
RMM:   3    -0.413164127689E+03    0.14678E-02   -0.62341E-03  4543   0.342E-02    0.151E-01
RMM:   4    -0.413173470880E+03   -0.93432E-02   -0.10021E-02  5221   0.837E-02    0.407E-01
RMM:   5    -0.413163959649E+03    0.95112E-02   -0.47644E-03  4873   0.676E-02    0.218E-02
RMM:   6    -0.413164010395E+03   -0.50747E-04   -0.76276E-04  5837   0.264E-02    0.134E-02
RMM:   7    -0.413164021333E+03   -0.10937E-04   -0.99403E-05  5411   0.878E-03    0.936E-03
RMM:   8    -0.413164028770E+03   -0.74366E-05   -0.11476E-05  3351   0.357E-03    0.494E-03
RMM:   9    -0.413164036224E+03   -0.74547E-05   -0.27055E-06  2637   0.215E-03    0.305E-03
RMM:  10    -0.413164043702E+03   -0.74781E-05   -0.13259E-06  2525   0.161E-03    0.170E-03
RMM:  11    -0.413164050955E+03   -0.72527E-05   -0.10176E-06  2463   0.135E-03    0.610E-04
RMM:  12    -0.413164053893E+03   -0.29379E-05   -0.52809E-07  2070   0.980E-04    0.267E-04
RMM:  13    -0.413164055743E+03   -0.18502E-05   -0.34117E-07  1494   0.779E-04    0.171E-04
RMM:  14    -0.413164058218E+03   -0.24754E-05   -0.29589E-07  1390   0.738E-04    0.117E-04
RMM:  15    -0.413164059446E+03   -0.12280E-05   -0.22065E-07  1286   0.679E-04    0.595E-05
RMM:  16    -0.413164060221E+03   -0.77413E-06   -0.17276E-07  1217   0.639E-04
    2 T=    61. E= -.41286637E+03 F= -.41316406E+03 E0= -.41314156E+03  EK= 0.29769E+00 SP= 0.00E+00 SK= 0.00E+00
       N       E                     dE             d eps       ncg     rms          rms(c)
RMM:   1    -0.413155844669E+03    0.82148E-02   -0.11219E+01  4193   0.706E-01    0.912E-01
RMM:   2    -0.413165626822E+03   -0.97822E-02   -0.13520E-01  4034   0.976E-02    0.633E-01
RMM:   3    -0.413165050341E+03    0.57648E-03   -0.68127E-03  4887   0.389E-02    0.171E-01
RMM:   4    -0.413195346194E+03   -0.30296E-01   -0.30862E-02  5188   0.147E-01    0.724E-01
RMM:   5    -0.413164627823E+03    0.30718E-01   -0.14921E-02  4825   0.121E-01    0.375E-02
RMM:   6    -0.413164813433E+03   -0.18561E-03   -0.24289E-03  5801   0.474E-02    0.186E-02
RMM:   7    -0.413164827340E+03   -0.13907E-04   -0.28628E-04  5889   0.139E-02    0.138E-02
RMM:   8    -0.413164828096E+03   -0.75629E-06   -0.36512E-05  4394   0.524E-03    0.871E-03
RMM:   9    -0.413164827488E+03    0.60817E-06   -0.56990E-06  2943   0.270E-03
    3 T=    61. E= -.41286685E+03 F= -.41316483E+03 E0= -.41314233E+03  EK= 0.29797E+00 SP= 0.00E+00 SK= 0.00E+00
       N       E                     dE             d eps       ncg     rms          rms(c)
RMM:   1    -0.413155237691E+03    0.95904E-02   -0.11132E+01  4230   0.705E-01    0.894E-01
RMM:   2    -0.413165791062E+03   -0.10553E-01   -0.13408E-01  4203   0.994E-02    0.627E-01
RMM:   3    -0.413168015102E+03   -0.22240E-02   -0.91103E-03  5163   0.657E-02    0.294E-01
RMM:   4    -0.413194409966E+03   -0.26395E-01   -0.40768E-02  5135   0.170E-01    0.720E-01
RMM:   5    -0.413164427466E+03    0.29983E-01   -0.12642E-02  4737   0.120E-01    0.535E-02
RMM:   6    -0.413164480759E+03   -0.53293E-04   -0.21428E-03  5587   0.460E-02    0.161E-02
RMM:   7    -0.413164504977E+03   -0.24218E-04   -0.30190E-04  6038   0.149E-02    0.118E-02
RMM:   8    -0.413164508008E+03   -0.30311E-05   -0.38141E-05  4662   0.546E-03    0.740E-03
RMM:   9    -0.413164510110E+03   -0.21022E-05   -0.67957E-06  3076   0.355E-03    0.357E-03
RMM:  10    -0.413164512054E+03   -0.19433E-05   -0.19353E-06  2559   0.217E-03    0.215E-03
RMM:  11    -0.413164514255E+03   -0.22011E-05   -0.99730E-07  2539   0.155E-03    0.100E-03
RMM:  12    -0.413164515345E+03   -0.10908E-05   -0.46118E-07  2127   0.104E-03    0.457E-04
RMM:  13    -0.413164516598E+03   -0.12524E-05   -0.38078E-07  1796   0.890E-04    0.224E-04
RMM:  14    -0.413164517139E+03   -0.54146E-06   -0.20250E-07  1355   0.722E-04
    4 T=    61. E= -.41286653E+03 F= -.41316452E+03 E0= -.41314203E+03  EK= 0.29799E+00 SP= 0.00E+00 SK= 0.00E+00
       N       E                     dE             d eps       ncg     rms          rms(c)
RMM:   1    -0.413155007718E+03    0.95089E-02   -0.11174E+01  4235   0.711E-01    0.884E-01
RMM:   2    -0.413165966731E+03   -0.10959E-01   -0.13833E-01  4026   0.968E-02    0.639E-01
RMM:   3    -0.413164933028E+03    0.10337E-02   -0.63561E-03  4943   0.365E-02    0.165E-01
RMM:   4    -0.413196167573E+03   -0.31235E-01   -0.31981E-02  5165   0.149E-01    0.736E-01
RMM:   5    -0.413164384926E+03    0.31783E-01   -0.15401E-02  4816   0.123E-01    0.364E-02
RMM:   6    -0.413164571457E+03   -0.18653E-03   -0.24719E-03  5781   0.479E-02    0.165E-02
RMM:   7    -0.413164591275E+03   -0.19818E-04   -0.28701E-04  5865   0.139E-02    0.130E-02
RMM:   8    -0.413164596437E+03   -0.51622E-05   -0.35794E-05  4344   0.517E-03    0.823E-03
RMM:   9    -0.413164600743E+03   -0.43060E-05   -0.55385E-06  2908   0.269E-03    0.561E-03
RMM:  10    -0.413164607747E+03   -0.70040E-05   -0.22339E-06  2576   0.217E-03    0.272E-03
RMM:  11    -0.413164613534E+03   -0.57872E-05   -0.14483E-06  2542   0.177E-03    0.136E-03
RMM:  12    -0.413164616927E+03   -0.33929E-05   -0.72816E-07  2430   0.133E-03    0.488E-04
RMM:  13    -0.413164618345E+03   -0.14182E-05   -0.33413E-07  2001   0.932E-04    0.299E-04
RMM:  14    -0.413164620005E+03   -0.16596E-05   -0.23471E-07  1542   0.787E-04    0.180E-04
RMM:  15    -0.413164621666E+03   -0.16610E-05   -0.21479E-07  1493   0.745E-04    0.136E-04
RMM:  16    -0.413164622036E+03   -0.37033E-06   -0.10050E-07  1109   0.634E-04
    5 T=    61. E= -.41286646E+03 F= -.41316462E+03 E0= -.41314215E+03  EK= 0.29817E+00 SP= 0.00E+00 SK= 0.00E+00
       N       E                     dE             d eps       ncg     rms          rms(c)
RMM:   1    -0.413155994765E+03    0.86269E-02   -0.11229E+01  4248   0.716E-01    0.907E-01
RMM:   2    -0.413166308772E+03   -0.10314E-01   -0.13527E-01  4062   0.973E-02    0.635E-01
RMM:   3    -0.413165470680E+03    0.83809E-03   -0.66042E-03  4850   0.375E-02    0.168E-01
RMM:   4    -0.413193661849E+03   -0.28191E-01   -0.28519E-02  5163   0.141E-01    0.700E-01
RMM:   5    -0.413165057119E+03    0.28605E-01   -0.13961E-02  4820   0.116E-01    0.355E-02
RMM:   6    -0.413165226276E+03   -0.16916E-03   -0.22047E-03  5791   0.453E-02    0.179E-02
RMM:   7    -0.413165237940E+03   -0.11665E-04   -0.25997E-04  5847   0.133E-02    0.133E-02
RMM:   8    -0.413165239014E+03   -0.10734E-05   -0.33053E-05  4322   0.507E-03    0.835E-03
RMM:   9    -0.413165238761E+03    0.25308E-06   -0.53242E-06  2899   0.267E-03
    6 T=    61. E= -.41286673E+03 F= -.41316524E+03 E0= -.41314277E+03  EK= 0.29851E+00 SP= 0.00E+00 SK= 0.00E+00
       N       E                     dE             d eps       ncg     rms          rms(c)
RMM:   1    -0.413155649390E+03    0.95896E-02   -0.11169E+01  4268   0.722E-01    0.902E-01
RMM:   2    -0.413165580993E+03   -0.99316E-02   -0.13467E-01  4236   0.998E-02    0.628E-01
RMM:   3    -0.413167888678E+03   -0.23077E-02   -0.89947E-03  5133   0.630E-02    0.283E-01
RMM:   4    -0.413196220796E+03   -0.28332E-01   -0.41355E-02  5123   0.171E-01    0.737E-01
RMM:   5    -0.413164688854E+03    0.31532E-01   -0.13494E-02  4754   0.122E-01    0.530E-02
RMM:   6    -0.413164755289E+03   -0.66435E-04   -0.22452E-03  5612   0.470E-02    0.162E-02
RMM:   7    -0.413164779708E+03   -0.24418E-04   -0.31021E-04  6039   0.150E-02    0.120E-02
RMM:   8    -0.413164781527E+03   -0.18192E-05   -0.38723E-05  4645   0.550E-03    0.749E-03
RMM:   9    -0.413164780623E+03    0.90369E-06   -0.63894E-06  2957   0.344E-03
    7 T=    61. E= -.41286631E+03 F= -.41316478E+03 E0= -.41314233E+03  EK= 0.29847E+00 SP= 0.00E+00 SK= 0.00E+00
       N       E                     dE             d eps       ncg     rms          rms(c)
RMM:   1    -0.413156385273E+03    0.83963E-02   -0.11170E+01  4287   0.736E-01    0.883E-01
RMM:   2    -0.413166857079E+03   -0.10472E-01   -0.13741E-01  4136   0.960E-02    0.637E-01
RMM:   3    -0.413165557763E+03    0.12993E-02   -0.61488E-03  4156   0.319E-02    0.151E-01
RMM:   4    -0.413168724246E+03   -0.31665E-02   -0.36472E-03  5177   0.502E-02    0.239E-01
RMM:   5    -0.413165545745E+03    0.31785E-02   -0.15815E-03  4827   0.394E-02    0.168E-02
RMM:   6    -0.413165554352E+03   -0.86065E-05   -0.26101E-04  5740   0.167E-02    0.107E-02
RMM:   7    -0.413165564734E+03   -0.10382E-04   -0.31717E-05  4537   0.566E-03    0.588E-03
RMM:   8    -0.413165568547E+03   -0.38133E-05   -0.47547E-06  2904   0.269E-03    0.374E-03
RMM:   9    -0.413165572930E+03   -0.43827E-05   -0.14782E-06  2539   0.188E-03    0.255E-03
RMM:  10    -0.413165576798E+03   -0.38680E-05   -0.78111E-07  2451   0.141E-03    0.129E-03
RMM:  11    -0.413165579974E+03   -0.31758E-05   -0.68960E-07  2408   0.119E-03    0.640E-04
RMM:  12    -0.413165582911E+03   -0.29376E-05   -0.60127E-07  2172   0.104E-03    0.370E-04
RMM:  13    -0.413165583516E+03   -0.60480E-06   -0.19015E-07  1314   0.710E-04
    8 T=    61. E= -.41286685E+03 F= -.41316558E+03 E0= -.41314315E+03  EK= 0.29873E+00 SP= 0.00E+00 SK= 0.00E+00
       N       E                     dE             d eps       ncg     rms          rms(c)
RMM:   1    -0.413156309742E+03    0.92732E-02   -0.11230E+01  4285   0.729E-01    0.901E-01
RMM:   2    -0.413166731590E+03   -0.10422E-01   -0.13657E-01  4182   0.102E-01    0.638E-01
RMM:   3    -0.413165993068E+03    0.73852E-03   -0.66261E-03  4879   0.404E-02    0.172E-01
RMM:   4    -0.413200466296E+03   -0.34473E-01   -0.35414E-02  5161   0.156E-01    0.773E-01
RMM:   5    -0.413165354380E+03    0.35112E-01   -0.17115E-02  4808   0.129E-01    0.386E-02
RMM:   6    -0.413165555383E+03   -0.20100E-03   -0.27081E-03  5794   0.503E-02    0.179E-02
RMM:   7    -0.413165571226E+03   -0.15844E-04   -0.32021E-04  5910   0.146E-02    0.138E-02
RMM:   8    -0.413165572609E+03   -0.13828E-05   -0.39459E-05  4422   0.543E-03    0.891E-03
RMM:   9    -0.413165572506E+03    0.10361E-06   -0.62059E-06  2962   0.278E-03
    9 T=    61. E= -.41286665E+03 F= -.41316557E+03 E0= -.41314316E+03  EK= 0.29892E+00 SP= 0.00E+00 SK= 0.00E+00
       N       E                     dE             d eps       ncg     rms          rms(c)
RMM:   1    -0.413156778909E+03    0.87937E-02   -0.11214E+01  4289   0.734E-01    0.909E-01
RMM:   2    -0.413166356562E+03   -0.95777E-02   -0.13465E-01  4280   0.992E-02    0.629E-01
RMM:   3    -0.413169527664E+03   -0.31711E-02   -0.97756E-03  5135   0.684E-02    0.306E-01
RMM:   4    -0.413193086167E+03   -0.23559E-01   -0.38618E-02  5106   0.166E-01    0.691E-01
RMM:   5    -0.413165705140E+03    0.27381E-01   -0.11411E-02  4727   0.114E-01    0.522E-02
RMM:   6    -0.413165744898E+03   -0.39757E-04   -0.19371E-03  5558   0.433E-02    0.170E-02
RMM:   7    -0.413165763527E+03   -0.18629E-04   -0.27338E-04  6031   0.144E-02    0.120E-02
RMM:   8    -0.413165763871E+03   -0.34375E-06   -0.34591E-05  4600   0.534E-03    0.737E-03
RMM:   9    -0.413165760017E+03    0.38541E-05   -0.67389E-06  3043   0.361E-03    0.357E-03
RMM:  10    -0.413165758716E+03    0.13001E-05   -0.18302E-06  2550   0.215E-03    0.212E-03
RMM:  11    -0.413165757347E+03    0.13694E-05   -0.97370E-07  2529   0.155E-03    0.989E-04
RMM:  12    -0.413165756476E+03    0.87118E-06   -0.46345E-07  2164   0.105E-03
   10 T=    61. E= -.41286656E+03 F= -.41316576E+03 E0= -.41314337E+03  EK= 0.29919E+00 SP= 0.00E+00 SK= 0.00E+00
       N       E                     dE             d eps       ncg     rms          rms(c)
RMM:   1    -0.413156849417E+03    0.89079E-02   -0.11166E+01  4296   0.736E-01    0.884E-01
RMM:   2    -0.413167909518E+03   -0.11060E-01   -0.13645E-01  4208   0.969E-02    0.634E-01
RMM:   3    -0.413166849310E+03    0.10602E-02   -0.62540E-03  4886   0.393E-02    0.168E-01
RMM:   4    -0.413198157141E+03   -0.31308E-01   -0.31981E-02  5149   0.148E-01    0.738E-01
RMM:   5    -0.413166256690E+03    0.31900E-01   -0.15609E-02  4808   0.123E-01    0.362E-02
RMM:   6    -0.413166449079E+03   -0.19239E-03   -0.24853E-03  5793   0.477E-02    0.174E-02
RMM:   7    -0.413166465141E+03   -0.16062E-04   -0.28991E-04  5868   0.139E-02    0.134E-02
RMM:   8    -0.413166467185E+03   -0.20441E-05   -0.36770E-05  4417   0.529E-03    0.878E-03
RMM:   9    -0.413166467666E+03   -0.48019E-06   -0.58859E-06  2941   0.276E-03
   11 T=    61. E= -.41286678E+03 F= -.41316647E+03 E0= -.41314411E+03  EK= 0.29968E+00 SP= 0.00E+00 SK= 0.00E+00
       N       E                     dE             d eps       ncg     rms          rms(c)
RMM:   1    -0.413156878920E+03    0.95883E-02   -0.11249E+01  4299   0.744E-01    0.896E-01
RMM:   2    -0.413167525288E+03   -0.10646E-01   -0.13820E-01  4271   0.100E-01    0.641E-01
RMM:   3    -0.413170247096E+03   -0.27218E-02   -0.95091E-03  5139   0.682E-02    0.308E-01
RMM:   4    -0.413197549791E+03   -0.27303E-01   -0.43507E-02  5109   0.175E-01    0.734E-01
RMM:   5    -0.413166199826E+03    0.31350E-01   -0.13135E-02  4723   0.122E-01    0.532E-02
RMM:   6    -0.413166263470E+03   -0.63644E-04   -0.22267E-03  5593   0.463E-02    0.149E-02
RMM:   7    -0.413166288831E+03   -0.25361E-04   -0.30408E-04  6033   0.150E-02    0.115E-02
RMM:   8    -0.413166292145E+03   -0.33138E-05   -0.38213E-05  4648   0.546E-03    0.718E-03
RMM:   9    -0.413166294260E+03   -0.21153E-05   -0.68593E-06  3079   0.360E-03    0.372E-03
RMM:  10    -0.413166296040E+03   -0.17798E-05   -0.20546E-06  2553   0.221E-03    0.223E-03
RMM:  11    -0.413166297702E+03   -0.16618E-05   -0.11464E-06  2545   0.160E-03    0.102E-03
RMM:  12    -0.413166298439E+03   -0.73689E-06   -0.48665E-07  2222   0.108E-03
   12 T=    61. E= -.41286630E+03 F= -.41316630E+03 E0= -.41314397E+03  EK= 0.29999E+00 SP= 0.00E+00 SK= 0.00E+00
       N       E                     dE             d eps       ncg     rms          rms(c)
RMM:   1    -0.413157944388E+03    0.83533E-02   -0.11275E+01  4300   0.747E-01    0.915E-01
RMM:   2    -0.413167798615E+03   -0.98542E-02   -0.13488E-01  4222   0.947E-02    0.632E-01
RMM:   3    -0.413167344551E+03    0.45406E-03   -0.68407E-03  4939   0.378E-02    0.175E-01
RMM:   4    -0.413200258089E+03   -0.32914E-01   -0.33581E-02  5150   0.152E-01    0.755E-01
RMM:   5    -0.413166828764E+03    0.33429E-01   -0.16366E-02  4801   0.126E-01    0.388E-02
RMM:   6    -0.413167024024E+03   -0.19526E-03   -0.26159E-03  5808   0.489E-02    0.195E-02
RMM:   7    -0.413167035441E+03   -0.11417E-04   -0.30090E-04  5872   0.143E-02    0.143E-02
RMM:   8    -0.413167033576E+03    0.18649E-05   -0.38890E-05  4474   0.544E-03    0.935E-03
RMM:   9    -0.413167029232E+03    0.43434E-05   -0.62751E-06  2984   0.280E-03    0.638E-03
RMM:  10    -0.413167024995E+03    0.42371E-05   -0.22062E-06  2554   0.219E-03    0.312E-03
RMM:  11    -0.413167021870E+03    0.31247E-05   -0.16008E-06  2541   0.190E-03    0.152E-03
RMM:  12    -0.413167019432E+03    0.24382E-05   -0.77688E-07  2449   0.142E-03    0.510E-04
RMM:  13    -0.413167018553E+03    0.87883E-06   -0.33902E-07  2102   0.968E-04
   13 T=    61. E= -.41286648E+03 F= -.41316702E+03 E0= -.41314472E+03  EK= 0.30054E+00 SP= 0.00E+00 SK= 0.00E+00
       N       E                     dE             d eps       ncg     rms          rms(c)
RMM:   1    -0.413157947772E+03    0.90717E-02   -0.11190E+01  4299   0.748E-01    0.889E-01
RMM:   2    -0.413168596787E+03   -0.10649E-01   -0.13694E-01  4230   0.970E-02    0.632E-01
RMM:   3    -0.413167812652E+03    0.78414E-03   -0.63217E-03  4858   0.367E-02    0.168E-01
RMM:   4    -0.413195879267E+03   -0.28067E-01   -0.28589E-02  5144   0.141E-01    0.699E-01
RMM:   5    -0.413167295641E+03    0.28584E-01   -0.14026E-02  4809   0.116E-01    0.343E-02
RMM:   6    -0.413167464779E+03   -0.16914E-03   -0.22113E-03  5802   0.451E-02    0.171E-02
RMM:   7    -0.413167476608E+03   -0.11829E-04   -0.25614E-04  5835   0.133E-02    0.130E-02
RMM:   8    -0.413167476522E+03    0.86628E-07   -0.33014E-05  4341   0.511E-03    0.843E-03
RMM:   9    -0.413167474754E+03    0.17673E-05   -0.52299E-06  2885   0.269E-03    0.578E-03
RMM:  10    -0.413167474051E+03    0.70301E-06   -0.20466E-06  2556   0.212E-03
   14 T=    61. E= -.41286652E+03 F= -.41316747E+03 E0= -.41314521E+03  EK= 0.30096E+00 SP= 0.00E+00 SK= 0.00E+00
       N       E                     dE             d eps       ncg     rms          rms(c)
RMM:   1    -0.413157961542E+03    0.95132E-02   -0.11278E+01  4307   0.757E-01    0.892E-01
RMM:   2    -0.413169319111E+03   -0.11358E-01   -0.13937E-01  4297   0.100E-01    0.643E-01
RMM:   3    -0.413171116945E+03   -0.17978E-02   -0.89542E-03  5125   0.650E-02    0.291E-01
RMM:   4    -0.413202861460E+03   -0.31745E-01   -0.46282E-02  5110   0.180E-01    0.776E-01
RMM:   5    -0.413167621378E+03    0.35240E-01   -0.15109E-02  4738   0.128E-01    0.509E-02
RMM:   6    -0.413167717675E+03   -0.96296E-04   -0.24559E-03  5628   0.489E-02    0.141E-02
RMM:   7    -0.413167744361E+03   -0.26686E-04   -0.31707E-04  6014   0.149E-02    0.114E-02
RMM:   8    -0.413167747613E+03   -0.32521E-05   -0.38512E-05  4571   0.544E-03    0.696E-03
RMM:   9    -0.413167749236E+03   -0.16227E-05   -0.59525E-06  2872   0.320E-03    0.341E-03
RMM:  10    -0.413167750952E+03   -0.17158E-05   -0.22301E-06  2558   0.214E-03    0.200E-03
RMM:  11    -0.413167752120E+03   -0.11680E-05   -0.10101E-06  2532   0.149E-03    0.859E-04
RMM:  12    -0.413167752731E+03   -0.61119E-06   -0.49500E-07  1978   0.104E-03
   15 T=    61. E= -.41286650E+03 F= -.41316775E+03 E0= -.41314552E+03  EK= 0.30125E+00 SP= 0.00E+00 SK= 0.00E+00
       N       E                     dE             d eps       ncg     rms          rms(c)
RMM:   1    -0.413160012352E+03    0.77398E-02   -0.11324E+01  4305   0.773E-01    0.916E-01
RMM:   2    -0.413169562569E+03   -0.95502E-02   -0.13628E-01  4247   0.101E-01    0.635E-01
RMM:   3    -0.413169053587E+03    0.50898E-03   -0.68350E-03  4910   0.396E-02    0.176E-01
RMM:   4    -0.413202152119E+03   -0.33099E-01   -0.33838E-02  5143   0.153E-01    0.757E-01
RMM:   5    -0.413168451473E+03    0.33701E-01   -0.16429E-02  4804   0.126E-01    0.384E-02
RMM:   6    -0.413168646134E+03   -0.19466E-03   -0.26149E-03  5799   0.493E-02    0.192E-02
RMM:   7    -0.413168656389E+03   -0.10255E-04   -0.30257E-04  5883   0.144E-02    0.143E-02
RMM:   8    -0.413168653513E+03    0.28762E-05   -0.38937E-05  4509   0.549E-03    0.941E-03
RMM:   9    -0.413168648127E+03    0.53857E-05   -0.61722E-06  2960   0.284E-03    0.643E-03
RMM:  10    -0.413168642793E+03    0.53335E-05   -0.22280E-06  2555   0.225E-03    0.316E-03
RMM:  11    -0.413168638751E+03    0.40422E-05   -0.16470E-06  2538   0.193E-03    0.153E-03
RMM:  12    -0.413168635807E+03    0.29439E-05   -0.76895E-07  2447   0.143E-03    0.519E-04
RMM:  13    -0.413168634724E+03    0.10838E-05   -0.33867E-07  2112   0.970E-04    0.326E-04
RMM:  14    -0.413168633233E+03    0.14903E-05   -0.20545E-07  1621   0.783E-04    0.185E-04
RMM:  15    -0.413168630738E+03    0.24957E-05   -0.19886E-07  1584   0.760E-04    0.155E-04
RMM:  16    -0.413168630103E+03    0.63439E-06   -0.79778E-08  1069   0.615E-04
   16 T=    61. E= -.41286675E+03 F= -.41316863E+03 E0= -.41314643E+03  EK= 0.30188E+00 SP= 0.00E+00 SK= 0.00E+00
       N       E                     dE             d eps       ncg     rms          rms(c)
RMM:   1    -0.413159722472E+03    0.89083E-02   -0.11234E+01  4294   0.760E-01    0.895E-01
RMM:   2    -0.413170228597E+03   -0.10506E-01   -0.13705E-01  4256   0.999E-02    0.631E-01
RMM:   3    -0.413169412974E+03    0.81562E-03   -0.64800E-03  4890   0.417E-02    0.177E-01
RMM:   4    -0.413204549704E+03   -0.35137E-01   -0.36003E-02  5144   0.157E-01    0.779E-01
RMM:   5    -0.413168877462E+03    0.35672E-01   -0.17444E-02  4795   0.130E-01    0.389E-02
RMM:   6    -0.413169084078E+03   -0.20662E-03   -0.27985E-03  5795   0.504E-02    0.187E-02
RMM:   7    -0.413169096907E+03   -0.12830E-04   -0.31967E-04  5875   0.147E-02    0.141E-02
RMM:   8    -0.413169095507E+03    0.14005E-05   -0.40105E-05  4476   0.546E-03    0.923E-03
RMM:   9    -0.413169091802E+03    0.37052E-05   -0.64833E-06  2987   0.279E-03    0.636E-03
RMM:  10    -0.413169088393E+03    0.34087E-05   -0.21995E-06  2550   0.221E-03    0.309E-03
RMM:  11    -0.413169086077E+03    0.23155E-05   -0.15772E-06  2531   0.189E-03    0.152E-03
RMM:  12    -0.413169084331E+03    0.17468E-05   -0.75802E-07  2445   0.141E-03    0.517E-04
RMM:  13    -0.413169083678E+03    0.65269E-06   -0.33772E-07  2109   0.970E-04
   17 T=    62. E= -.41286661E+03 F= -.41316908E+03 E0= -.41314692E+03  EK= 0.30247E+00 SP= 0.00E+00 SK= 0.00E+00
       N       E                     dE             d eps       ncg     rms          rms(c)
RMM:   1    -0.413159831214E+03    0.92531E-02   -0.11318E+01  4299   0.769E-01    0.890E-01
RMM:   2    -0.413171327163E+03   -0.11496E-01   -0.13977E-01  4266   0.102E-01    0.644E-01
RMM:   3    -0.413170000619E+03    0.13265E-02   -0.63003E-03  4871   0.395E-02    0.170E-01
RMM:   4    -0.413202886297E+03   -0.32886E-01   -0.33761E-02  5146   0.153E-01    0.755E-01
RMM:   5    -0.413169390356E+03    0.33496E-01   -0.16421E-02  4798   0.126E-01    0.368E-02
RMM:   6    -0.413169589377E+03   -0.19902E-03   -0.26316E-03  5788   0.490E-02    0.174E-02
RMM:   7    -0.413169604075E+03   -0.14698E-04   -0.30032E-04  5863   0.143E-02    0.134E-02
RMM:   8    -0.413169604928E+03   -0.85282E-06   -0.38146E-05  4444   0.536E-03    0.887E-03
RMM:   9    -0.413169603794E+03    0.11338E-05   -0.61713E-06  2966   0.280E-03    0.612E-03
RMM:  10    -0.413169604302E+03   -0.50799E-06   -0.22955E-06  2564   0.223E-03
   18 T=    62. E= -.41286644E+03 F= -.41316960E+03 E0= -.41314749E+03  EK= 0.30317E+00 SP= 0.00E+00 SK= 0.00E+00
       N       E                     dE             d eps       ncg     rms          rms(c)
RMM:   1    -0.413161589102E+03    0.80147E-02   -0.11381E+01  4303   0.773E-01    0.915E-01
RMM:   2    -0.413171607604E+03   -0.10019E-01   -0.13830E-01  4301   0.101E-01    0.639E-01
RMM:   3    -0.413174665486E+03   -0.30579E-02   -0.97801E-03  5126   0.683E-02    0.312E-01
RMM:   4    -0.413199423241E+03   -0.24758E-01   -0.40878E-02  5089   0.170E-01    0.707E-01
RMM:   5    -0.413170572462E+03    0.28851E-01   -0.12038E-02  4709   0.117E-01    0.497E-02
RMM:   6    -0.413170629264E+03   -0.56802E-04   -0.20108E-03  5590   0.437E-02    0.161E-02
RMM:   7    -0.413170643563E+03   -0.14300E-04   -0.25952E-04  6003   0.139E-02    0.115E-02
RMM:   8    -0.413170641355E+03    0.22083E-05   -0.32416E-05  4474   0.518E-03    0.697E-03
RMM:   9    -0.413170633734E+03    0.76210E-05   -0.54968E-06  2816   0.327E-03    0.330E-03
RMM:  10    -0.413170629991E+03    0.37432E-05   -0.17984E-06  2532   0.204E-03    0.188E-03
RMM:  11    -0.413170626300E+03    0.36905E-05   -0.85113E-07  2513   0.144E-03    0.876E-04
RMM:  12    -0.413170624133E+03    0.21672E-05   -0.42736E-07  1954   0.101E-03    0.451E-04
RMM:  13    -0.413170621340E+03    0.27936E-05   -0.34392E-07  1918   0.912E-04    0.249E-04
RMM:  14    -0.413170619974E+03    0.13654E-05   -0.17560E-07  1397   0.714E-04    0.150E-04
RMM:  15    -0.413170617038E+03    0.29359E-05   -0.20702E-07  1619   0.757E-04    0.104E-04
RMM:  16    -0.413170615448E+03    0.15901E-05   -0.11469E-07  1235   0.637E-04    0.878E-05
RMM:  17    -0.413170613314E+03    0.21342E-05   -0.10641E-07  1270   0.634E-04    0.472E-05
RMM:  18    -0.413170611613E+03    0.17015E-05   -0.66473E-08  1008   0.571E-04    0.253E-05
RMM:  19    -0.413170611140E+03    0.47201E-06   -0.32639E-08   805   0.528E-04
   19 T=    62. E= -.41286649E+03 F= -.41317061E+03 E0= -.41314853E+03  EK= 0.30412E+00 SP= 0.00E+00 SK= 0.00E+00
       N       E                     dE             d eps       ncg     rms          rms(c)
RMM:   1    -0.413162189181E+03    0.84224E-02   -0.11336E+01  4298   0.788E-01    0.905E-01
RMM:   2    -0.413172263196E+03   -0.10074E-01   -0.13742E-01  4259   0.101E-01    0.632E-01
RMM:   3    -0.413171734483E+03    0.52871E-03   -0.66746E-03  4958   0.417E-02    0.186E-01
RMM:   4    -0.413211447385E+03   -0.39713E-01   -0.41521E-02  5136   0.169E-01    0.827E-01
RMM:   5    -0.413171009612E+03    0.40438E-01   -0.19729E-02  4791   0.138E-01    0.423E-02
RMM:   6    -0.413171223633E+03   -0.21402E-03   -0.31205E-03  5771   0.536E-02    0.194E-02
RMM:   7    -0.413171237331E+03   -0.13698E-04   -0.36264E-04  5868   0.156E-02    0.147E-02
RMM:   8    -0.413171234773E+03    0.25585E-05   -0.45221E-05  4584   0.578E-03    0.960E-03
RMM:   9    -0.413171229325E+03    0.54473E-05   -0.70388E-06  3023   0.288E-03    0.651E-03
RMM:  10    -0.413171223566E+03    0.57590E-05   -0.24011E-06  2556   0.230E-03    0.310E-03
RMM:  11    -0.413171219596E+03    0.39707E-05   -0.15429E-06  2522   0.190E-03    0.151E-03
RMM:  12    -0.413171216734E+03    0.28618E-05   -0.75809E-07  2446   0.144E-03    0.498E-04
RMM:  13    -0.413171215692E+03    0.10418E-05   -0.34318E-07  2137   0.993E-04    0.325E-04
RMM:  14    -0.413171214465E+03    0.12266E-05   -0.19107E-07  1641   0.782E-04    0.189E-04
RMM:  15    -0.413171212084E+03    0.23818E-05   -0.17523E-07  1564   0.751E-04    0.137E-04
RMM:  16    -0.413171211533E+03    0.55050E-06   -0.72956E-08  1064   0.616E-04
   20 T=    62. E= -.41286631E+03 F= -.41317121E+03 E0= -.41314918E+03  EK= 0.30490E+00 SP= 0.00E+00 SK= 0.00E+00
       N       E                     dE             d eps       ncg     rms          rms(c)
RMM:   1    -0.413162419366E+03    0.87927E-02   -0.11376E+01  4298   0.786E-01    0.891E-01
RMM:   2    -0.413173571917E+03   -0.11153E-01   -0.14160E-01  4272   0.103E-01    0.644E-01
RMM:   3    -0.413172590562E+03    0.98136E-03   -0.64275E-03  4923   0.405E-02    0.177E-01
RMM:   4    -0.413210439161E+03   -0.37849E-01   -0.39292E-02  5134   0.164E-01    0.808E-01
RMM:   5    -0.413171813937E+03    0.38625E-01   -0.18898E-02  4794   0.135E-01    0.396E-02
RMM:   6    -0.413172032835E+03   -0.21890E-03   -0.30420E-03  5794   0.526E-02    0.180E-02
RMM:   7    -0.413172050278E+03   -0.17444E-04   -0.34619E-04  5872   0.153E-02    0.141E-02
RMM:   8    -0.413172050480E+03   -0.20138E-06   -0.43917E-05  4545   0.568E-03    0.938E-03
RMM:   9    -0.413172048136E+03    0.23436E-05   -0.68775E-06  3009   0.289E-03    0.653E-03
RMM:  10    -0.413172046864E+03    0.12718E-05   -0.24435E-06  2568   0.233E-03    0.319E-03
RMM:  11    -0.413172046227E+03    0.63708E-06   -0.17359E-06  2543   0.197E-03
   21 T=    62. E= -.41286634E+03 F= -.41317205E+03 E0= -.41315006E+03  EK= 0.30571E+00 SP= 0.00E+00 SK= 0.00E+00
       N       E                     dE             d eps       ncg     rms          rms(c)
RMM:   1    -0.413163634654E+03    0.84122E-02   -0.11451E+01  4301   0.788E-01    0.913E-01
RMM:   2    -0.413174390446E+03   -0.10756E-01   -0.14028E-01  4294   0.999E-02    0.643E-01
RMM:   3    -0.413174456137E+03   -0.65691E-04   -0.72082E-03  5039   0.486E-02    0.213E-01
RMM:   4    -0.413219933090E+03   -0.45477E-01   -0.50732E-02  5133   0.187E-01    0.888E-01
RMM:   5    -0.413173114076E+03    0.46819E-01   -0.22255E-02  4781   0.149E-01    0.469E-02
RMM:   6    -0.413173334098E+03   -0.22002E-03   -0.35409E-03  5752   0.576E-02    0.187E-02
RMM:   7    -0.413173354541E+03   -0.20443E-04   -0.41991E-04  5952   0.167E-02    0.150E-02
RMM:   8    -0.413173352701E+03    0.18395E-05   -0.51477E-05  4739   0.608E-03    0.974E-03
RMM:   9    -0.413173347117E+03    0.55842E-05   -0.76304E-06  3049   0.296E-03    0.622E-03
RMM:  10    -0.413173341509E+03    0.56078E-05   -0.26967E-06  2578   0.239E-03    0.288E-03
RMM:  11    -0.413173337488E+03    0.40212E-05   -0.14512E-06  2516   0.185E-03    0.138E-03
RMM:  12    -0.413173334302E+03    0.31861E-05   -0.75778E-07  2458   0.140E-03    0.455E-04
RMM:  13    -0.413173332641E+03    0.16610E-05   -0.34284E-07  2099   0.981E-04    0.305E-04
RMM:  14    -0.413173330245E+03    0.23957E-05   -0.22763E-07  1690   0.809E-04    0.205E-04
RMM:  15    -0.413173327998E+03    0.22478E-05   -0.15204E-07  1432   0.716E-04    0.107E-04
RMM:  16    -0.413173327162E+03    0.83580E-06   -0.81138E-08  1122   0.624E-04
   22 T=    62. E= -.41286678E+03 F= -.41317333E+03 E0= -.41315138E+03  EK= 0.30655E+00 SP= 0.00E+00 SK= 0.00E+00
       N       E                     dE             d eps       ncg     rms          rms(c)
RMM:   1    -0.413164699413E+03    0.86286E-02   -0.11440E+01  4297   0.791E-01    0.915E-01
RMM:   2    -0.413174909917E+03   -0.10211E-01   -0.13869E-01  4278   0.108E-01    0.635E-01
RMM:   3    -0.413174405524E+03    0.50439E-03   -0.67884E-03  4883   0.438E-02    0.183E-01
RMM:   4    -0.413211154313E+03   -0.36749E-01   -0.37831E-02  5141   0.162E-01    0.796E-01
RMM:   5    -0.413173734425E+03    0.37420E-01   -0.18271E-02  4794   0.134E-01    0.403E-02
RMM:   6    -0.413173938242E+03   -0.20382E-03   -0.29962E-03  5789   0.520E-02    0.200E-02
RMM:   7    -0.413173948560E+03   -0.10318E-04   -0.33177E-04  5875   0.153E-02    0.148E-02
RMM:   8    -0.413173944606E+03    0.39537E-05   -0.43319E-05  4595   0.579E-03    0.995E-03
RMM:   9    -0.413173937193E+03    0.74135E-05   -0.69949E-06  3027   0.302E-03    0.682E-03
RMM:  10    -0.413173929320E+03    0.78731E-05   -0.23778E-06  2564   0.239E-03    0.339E-03
RMM:  11    -0.413173922957E+03    0.63627E-05   -0.16928E-06  2526   0.201E-03    0.170E-03
RMM:  12    -0.413173918445E+03    0.45122E-05   -0.80948E-07  2455   0.149E-03    0.564E-04
RMM:  13    -0.413173916858E+03    0.15867E-05   -0.35342E-07  2149   0.101E-03    0.352E-04
RMM:  14    -0.413173914922E+03    0.19357E-05   -0.19495E-07  1669   0.788E-04    0.200E-04
RMM:  15    -0.413173911032E+03    0.38908E-05   -0.18363E-07  1695   0.766E-04    0.182E-04
RMM:  16    -0.413173910346E+03    0.68538E-06   -0.71883E-08  1051   0.603E-04
   23 T=    63. E= -.41286657E+03 F= -.41317391E+03 E0= -.41315202E+03  EK= 0.30734E+00 SP= 0.00E+00 SK= 0.00E+00
       N       E                     dE             d eps       ncg     rms          rms(c)
RMM:   1    -0.413165453331E+03    0.84577E-02   -0.11432E+01  4295   0.795E-01    0.893E-01
RMM:   2    -0.413177013694E+03   -0.11560E-01   -0.14231E-01  4277   0.106E-01    0.643E-01
RMM:   3    -0.413175723676E+03    0.12900E-02   -0.62269E-03  4754   0.401E-02    0.169E-01
RMM:   4    -0.413201403452E+03   -0.25680E-01   -0.25942E-02  5144   0.134E-01    0.668E-01
RMM:   5    -0.413175347257E+03    0.26056E-01   -0.12818E-02  4808   0.111E-01    0.319E-02
RMM:   6    -0.413175495380E+03   -0.14812E-03   -0.20457E-03  5807   0.425E-02    0.165E-02
RMM:   7    -0.413175504252E+03   -0.88717E-05   -0.20746E-04  5721   0.123E-02    0.116E-02
RMM:   8    -0.413175503486E+03    0.76627E-06   -0.29796E-05  4324   0.489E-03    0.841E-03
RMM:   9    -0.413175499265E+03    0.42207E-05   -0.54972E-06  2970   0.282E-03    0.572E-03
RMM:  10    -0.413175496511E+03    0.27541E-05   -0.17828E-06  2534   0.210E-03    0.296E-03
RMM:  11    -0.413175494315E+03    0.21956E-05   -0.14734E-06  2526   0.185E-03    0.150E-03
RMM:  12    -0.413175492588E+03    0.17270E-05   -0.65386E-07  2417   0.134E-03    0.547E-04
RMM:  13    -0.413175492007E+03    0.58112E-06   -0.27690E-07  1994   0.903E-04
   24 T=    63. E= -.41286692E+03 F= -.41317549E+03 E0= -.41315364E+03  EK= 0.30857E+00 SP= 0.00E+00 SK= 0.00E+00
       N       E                     dE             d eps       ncg     rms          rms(c)
RMM:   1    -0.413171086959E+03    0.44056E-02   -0.11591E+01  4295   0.824E-01    0.910E-01
RMM:   2    -0.413178086315E+03   -0.69994E-02   -0.13943E-01  4273   0.107E-01    0.648E-01
RMM:   3    -0.413176774750E+03    0.13116E-02   -0.64841E-03  4802   0.423E-02    0.168E-01
RMM:   4    -0.413205684008E+03   -0.28909E-01   -0.29158E-02  5145   0.143E-01    0.707E-01
RMM:   5    -0.413176384826E+03    0.29299E-01   -0.14417E-02  4806   0.118E-01    0.340E-02
RMM:   6    -0.413176548511E+03   -0.16368E-03   -0.22950E-03  5812   0.454E-02    0.177E-02
RMM:   7    -0.413176556534E+03   -0.80236E-05   -0.24014E-04  5769   0.132E-02    0.125E-02
RMM:   8    -0.413176554089E+03    0.24456E-05   -0.33762E-05  4453   0.518E-03    0.896E-03
RMM:   9    -0.413176548210E+03    0.58793E-05   -0.60786E-06  3023   0.290E-03    0.610E-03
RMM:  10    -0.413176543352E+03    0.48579E-05   -0.19701E-06  2552   0.221E-03    0.310E-03
RMM:  11    -0.413176539274E+03    0.40779E-05   -0.15456E-06  2527   0.191E-03    0.154E-03
RMM:  12    -0.413176536440E+03    0.28336E-05   -0.68168E-07  2429   0.138E-03    0.537E-04
RMM:  13    -0.413176535415E+03    0.10248E-05   -0.29380E-07  2035   0.926E-04    0.329E-04
RMM:  14    -0.413176534013E+03    0.14027E-05   -0.16248E-07  1528   0.746E-04    0.185E-04
RMM:  15    -0.413176531284E+03    0.27288E-05   -0.16055E-07  1642   0.747E-04    0.197E-04
RMM:  16    -0.413176530696E+03    0.58780E-06   -0.58725E-08   967   0.588E-04
   25 T=    63. E= -.41286677E+03 F= -.41317653E+03 E0= -.41315473E+03  EK= 0.30976E+00 SP= 0.00E+00 SK= 0.00E+00
       N       E                     dE             d eps       ncg     rms          rms(c)
RMM:   1    -0.413168208843E+03    0.83224E-02   -0.11581E+01  4292   0.811E-01    0.925E-01
RMM:   2    -0.413178465160E+03   -0.10256E-01   -0.14120E-01  4274   0.111E-01    0.640E-01
RMM:   3    -0.413177826118E+03    0.63904E-03   -0.66973E-03  4728   0.413E-02    0.175E-01
RMM:   4    -0.413202656459E+03   -0.24830E-01   -0.24956E-02  5145   0.132E-01    0.657E-01
RMM:   5    -0.413177493752E+03    0.25163E-01   -0.12509E-02  4807   0.109E-01    0.331E-02
RMM:   6    -0.413177631945E+03   -0.13819E-03   -0.19759E-03  5813   0.418E-02    0.179E-02
RMM:   7    -0.413177636044E+03   -0.40995E-05   -0.19876E-04  5644   0.121E-02    0.117E-02
RMM:   8    -0.413177631323E+03    0.47210E-05   -0.28142E-05  4245   0.478E-03    0.852E-03
RMM:   9    -0.413177623626E+03    0.76974E-05   -0.58154E-06  3019   0.285E-03    0.584E-03
RMM:  10    -0.413177615901E+03    0.77250E-05   -0.16746E-06  2530   0.211E-03    0.307E-03
RMM:  11    -0.413177608110E+03    0.77905E-05   -0.14375E-06  2515   0.188E-03    0.153E-03
RMM:  12    -0.413177602955E+03    0.51553E-05   -0.62128E-07  2409   0.135E-03    0.531E-04
RMM:  13    -0.413177601320E+03    0.16356E-05   -0.26607E-07  2006   0.903E-04    0.330E-04
RMM:  14    -0.413177599183E+03    0.21367E-05   -0.13987E-07  1469   0.724E-04    0.183E-04
RMM:  15    -0.413177594431E+03    0.47517E-05   -0.15758E-07  1758   0.758E-04    0.247E-04
RMM:  16    -0.413177593649E+03    0.78220E-06   -0.50765E-08   939   0.570E-04
   26 T=    63. E= -.41286647E+03 F= -.41317759E+03 E0= -.41315585E+03  EK= 0.31112E+00 SP= 0.00E+00 SK= 0.00E+00
       N       E                     dE             d eps       ncg     rms          rms(c)
RMM:   1    -0.413169550698E+03    0.80437E-02   -0.11554E+01  4293   0.814E-01    0.900E-01
RMM:   2    -0.413180778215E+03   -0.11228E-01   -0.14289E-01  4275   0.103E-01    0.643E-01
RMM:   3    -0.413179888858E+03    0.88936E-03   -0.63230E-03  4752   0.419E-02    0.175E-01
RMM:   4    -0.413206572849E+03   -0.26684E-01   -0.26860E-02  5150   0.137E-01    0.681E-01
RMM:   5    -0.413179504040E+03    0.27069E-01   -0.13434E-02  4807   0.113E-01    0.326E-02
RMM:   6    -0.413179654434E+03   -0.15039E-03   -0.21303E-03  5821   0.435E-02    0.172E-02
RMM:   7    -0.413179662239E+03   -0.78049E-05   -0.21823E-04  5734   0.127E-02    0.120E-02
RMM:   8    -0.413179660002E+03    0.22364E-05   -0.31017E-05  4348   0.500E-03    0.865E-03
RMM:   9    -0.413179654443E+03    0.55588E-05   -0.57500E-06  3002   0.287E-03    0.593E-03
RMM:  10    -0.413179649654E+03    0.47895E-05   -0.18186E-06  2537   0.216E-03    0.305E-03
RMM:  11    -0.413179645642E+03    0.40121E-05   -0.14657E-06  2522   0.187E-03    0.155E-03
RMM:  12    -0.413179642730E+03    0.29117E-05   -0.65046E-07  2423   0.136E-03    0.537E-04
RMM:  13    -0.413179641723E+03    0.10070E-05   -0.27616E-07  2009   0.911E-04    0.320E-04
RMM:  14    -0.413179640369E+03    0.13541E-05   -0.15027E-07  1501   0.734E-04    0.175E-04
RMM:  15    -0.413179637881E+03    0.24879E-05   -0.13636E-07  1541   0.723E-04    0.177E-04
RMM:  16    -0.413179637303E+03    0.57804E-06   -0.52213E-08   951   0.588E-04
   27 T=    64. E= -.41286680E+03 F= -.41317964E+03 E0= -.41315794E+03  EK= 0.31284E+00 SP= 0.00E+00 SK= 0.00E+00
       N       E                     dE             d eps       ncg     rms          rms(c)
RMM:   1    -0.413173042142E+03    0.65957E-02   -0.11713E+01  4295   0.839E-01    0.909E-01
RMM:   2    -0.413181846978E+03   -0.88048E-02   -0.14707E-01  4273   0.109E-01    0.654E-01
RMM:   3    -0.413180758100E+03    0.10889E-02   -0.64224E-03  4664   0.422E-02    0.172E-01
RMM:   4    -0.413202953204E+03   -0.22195E-01   -0.22469E-02  5154   0.126E-01    0.624E-01
RMM:   5    -0.413180326921E+03    0.22626E-01   -0.11257E-02  4807   0.103E-01    0.296E-02
RMM:   6    -0.413180443600E+03   -0.11668E-03   -0.17606E-03  5831   0.394E-02    0.158E-02
RMM:   7    -0.413180449925E+03   -0.63249E-05   -0.17109E-04  5556   0.113E-02    0.104E-02
RMM:   8    -0.413180447682E+03    0.22427E-05   -0.23484E-05  4018   0.444E-03    0.763E-03
RMM:   9    -0.413180443046E+03    0.46360E-05   -0.54955E-06  3000   0.282E-03    0.524E-03
RMM:  10    -0.413180439552E+03    0.34940E-05   -0.16325E-06  2525   0.209E-03    0.284E-03
RMM:  11    -0.413180435740E+03    0.38124E-05   -0.13854E-06  2517   0.182E-03    0.144E-03
RMM:  12    -0.413180433140E+03    0.26003E-05   -0.56436E-07  2389   0.128E-03    0.531E-04
RMM:  13    -0.413180432184E+03    0.95536E-06   -0.23622E-07  1905   0.861E-04
   28 T=    64. E= -.41286617E+03 F= -.41318043E+03 E0= -.41315878E+03  EK= 0.31426E+00 SP= 0.00E+00 SK= 0.00E+00
       N       E                     dE             d eps       ncg     rms          rms(c)
RMM:   1    -0.413173217569E+03    0.72156E-02   -0.11767E+01  4292   0.839E-01    0.933E-01
RMM:   2    -0.413183614608E+03   -0.10397E-01   -0.14425E-01  4272   0.111E-01    0.647E-01
RMM:   3    -0.413182833532E+03    0.78108E-03   -0.68061E-03  4509   0.425E-02    0.174E-01
RMM:   4    -0.413195664630E+03   -0.12831E-01   -0.12867E-02  5159   0.956E-02    0.474E-01
RMM:   5    -0.413182786510E+03    0.12878E-01   -0.64008E-03  4827   0.776E-02    0.261E-02
RMM:   6    -0.413182832857E+03   -0.46347E-04   -0.10128E-03  5854   0.294E-02    0.157E-02
RMM:   7    -0.413182832574E+03    0.28346E-06   -0.10761E-04  5444   0.939E-03    0.104E-02
RMM:   8    -0.413182824178E+03    0.83956E-05   -0.15489E-05  3816   0.408E-03    0.627E-03
RMM:   9    -0.413182817129E+03    0.70488E-05   -0.32448E-06  2705   0.252E-03    0.403E-03
RMM:  10    -0.413182809460E+03    0.76693E-05   -0.10326E-06  2499   0.172E-03    0.217E-03
RMM:  11    -0.413182802030E+03    0.74300E-05   -0.83457E-07  2477   0.146E-03    0.106E-03
RMM:  12    -0.413182796320E+03    0.57096E-05   -0.42166E-07  2278   0.109E-03    0.391E-04
RMM:  13    -0.413182794656E+03    0.16644E-05   -0.17614E-07  1562   0.761E-04    0.235E-04
RMM:  14    -0.413182791823E+03    0.28328E-05   -0.10996E-07  1269   0.682E-04    0.134E-04
RMM:  15    -0.413182787231E+03    0.45917E-05   -0.10494E-07  1426   0.691E-04    0.138E-04
RMM:  16    -0.413182786295E+03    0.93659E-06   -0.45397E-08   924   0.575E-04
   29 T=    64. E= -.41286671E+03 F= -.41318279E+03 E0= -.41316119E+03  EK= 0.31608E+00 SP= 0.00E+00 SK= 0.00E+00
       N       E                     dE             d eps       ncg     rms          rms(c)
RMM:   1    -0.413174606211E+03    0.81810E-02   -0.11724E+01  4293   0.847E-01    0.910E-01
RMM:   2    -0.413185667885E+03   -0.11062E-01   -0.14679E-01  4273   0.110E-01    0.646E-01
RMM:   3    -0.413184589061E+03    0.10788E-02   -0.64508E-03  4409   0.439E-02    0.171E-01
RMM:   4    -0.413191532136E+03   -0.69431E-02   -0.74511E-03  5143   0.758E-02    0.353E-01
RMM:   5    -0.413184466341E+03    0.70658E-02   -0.34753E-03  4826   0.574E-02    0.207E-02
RMM:   6    -0.413184478859E+03   -0.12518E-04   -0.53292E-04  5827   0.220E-02    0.140E-02
RMM:   7    -0.413184475044E+03    0.38147E-05   -0.67754E-05  5207   0.804E-03    0.853E-03
RMM:   8    -0.413184467704E+03    0.73405E-05   -0.80979E-06  3132   0.348E-03    0.418E-03
RMM:   9    -0.413184462828E+03    0.48765E-05   -0.18025E-06  2568   0.209E-03    0.253E-03
RMM:  10    -0.413184457801E+03    0.50268E-05   -0.78550E-07  2472   0.144E-03    0.140E-03
RMM:  11    -0.413184453312E+03    0.44887E-05   -0.49294E-07  2299   0.114E-03    0.570E-04
RMM:  12    -0.413184449998E+03    0.33146E-05   -0.26858E-07  1854   0.882E-04    0.207E-04
RMM:  13    -0.413184447878E+03    0.21193E-05   -0.14053E-07  1311   0.709E-04    0.131E-04
RMM:  14    -0.413184445017E+03    0.28609E-05   -0.11030E-07  1327   0.684E-04    0.865E-05
RMM:  15    -0.413184442380E+03    0.26369E-05   -0.85490E-08  1248   0.642E-04    0.725E-05
RMM:  16    -0.413184440743E+03    0.16377E-05   -0.53549E-08  1022   0.584E-04    0.452E-05
RMM:  17    -0.413184438431E+03    0.23118E-05   -0.51856E-08  1050   0.584E-04    0.222E-05
RMM:  18    -0.413184437959E+03    0.47218E-06   -0.22383E-08   750   0.526E-04
   30 T=    65. E= -.41286676E+03 F= -.41318444E+03 E0= -.41316289E+03  EK= 0.31768E+00 SP= 0.00E+00 SK= 0.00E+00
       N       E                     dE             d eps       ncg     rms          rms(c)
RMM:   1    -0.413179245780E+03    0.51927E-02   -0.11883E+01  4291   0.901E-01    0.911E-01
RMM:   2    -0.413188219222E+03   -0.89734E-02   -0.15151E-01  4275   0.124E-01    0.660E-01
RMM:   3    -0.413186246775E+03    0.19724E-02   -0.62758E-03  4301   0.413E-02    0.168E-01
RMM:   4    -0.413188636291E+03   -0.23895E-02   -0.31729E-03  5123   0.479E-02    0.206E-01
RMM:   5    -0.413186240638E+03    0.23957E-02   -0.11676E-03  4808   0.337E-02    0.168E-02
RMM:   6    -0.413186237817E+03    0.28215E-05   -0.20166E-04  5679   0.142E-02    0.124E-02
RMM:   7    -0.413186234294E+03    0.35230E-05   -0.33154E-05  4636   0.619E-03    0.563E-03
RMM:   8    -0.413186229612E+03    0.46817E-05   -0.51714E-06  2919   0.302E-03    0.272E-03
RMM:   9    -0.413186227853E+03    0.17588E-05   -0.86366E-07  2487   0.166E-03    0.159E-03
RMM:  10    -0.413186225057E+03    0.27958E-05   -0.53851E-07  2300   0.115E-03    0.894E-04
RMM:  11    -0.413186222780E+03    0.22775E-05   -0.32342E-07  1837   0.898E-04    0.377E-04
RMM:  12    -0.413186220598E+03    0.21824E-05   -0.21551E-07  1603   0.790E-04    0.176E-04
RMM:  13    -0.413186218819E+03    0.17790E-05   -0.13257E-07  1265   0.685E-04    0.957E-05
RMM:  14    -0.413186217287E+03    0.15320E-05   -0.91516E-08  1153   0.636E-04    0.560E-05
RMM:  15    -0.413186215266E+03    0.20208E-05   -0.80400E-08  1147   0.623E-04    0.438E-05
RMM:  16    -0.413186214301E+03    0.96517E-06   -0.41347E-08   861   0.562E-04
   31 T=    65. E= -.41286682E+03 F= -.41318621E+03 E0= -.41316472E+03  EK= 0.31939E+00 SP= 0.00E+00 SK= 0.00E+00
       N       E                     dE             d eps       ncg     rms          rms(c)
RMM:   1    -0.413186284687E+03   -0.69421E-04   -0.12033E+01  4288   0.925E-01    0.939E-01
RMM:   2    -0.413189837401E+03   -0.35527E-02   -0.15307E-01  4271   0.121E-01    0.654E-01
RMM:   3    -0.413188809995E+03    0.10274E-02   -0.68294E-03  4178   0.477E-02    0.177E-01
RMM:   4    -0.413188910998E+03   -0.10100E-03   -0.10372E-03  4545   0.277E-02    0.234E-02
RMM:   5    -0.413188926058E+03   -0.15060E-04   -0.62074E-05  4868   0.826E-03    0.299E-02
RMM:   6    -0.413188888184E+03    0.37874E-04   -0.43865E-05  5005   0.696E-03    0.138E-02
RMM:   7    -0.413188872947E+03    0.15238E-04   -0.20275E-05  3954   0.553E-03    0.390E-03
RMM:   8    -0.413188865424E+03    0.75230E-05   -0.27921E-06  2595   0.261E-03    0.237E-03
RMM:   9    -0.413188861766E+03    0.36574E-05   -0.51379E-07  2279   0.137E-03    0.126E-03
RMM:  10    -0.413188856331E+03    0.54355E-05   -0.25068E-07  1619   0.836E-04    0.534E-04
RMM:  11    -0.413188849880E+03    0.64506E-05   -0.17911E-07  1462   0.745E-04    0.239E-04
RMM:  12    -0.413188846897E+03    0.29830E-05   -0.63802E-08  1053   0.572E-04    0.153E-04
RMM:  13    -0.413188840536E+03    0.63618E-05   -0.88724E-08  1152   0.629E-04    0.897E-05
RMM:  14    -0.413188836983E+03    0.35530E-05   -0.45494E-08   899   0.558E-04    0.619E-05
RMM:  15    -0.413188835792E+03    0.11902E-05   -0.17672E-08   610   0.487E-04    0.426E-05
RMM:  16    -0.413188832210E+03    0.35823E-05   -0.43323E-08  1004   0.557E-04    0.347E-05
RMM:  17    -0.413188831961E+03    0.24915E-06   -0.90687E-09   512   0.441E-04
   32 T=    65. E= -.41286726E+03 F= -.41318883E+03 E0= -.41316738E+03  EK= 0.32157E+00 SP= 0.00E+00 SK= 0.00E+00
       N       E                     dE             d eps       ncg     rms          rms(c)
RMM:   1    -0.413190793931E+03   -0.19617E-02   -0.12033E+01  4284   0.944E-01    0.925E-01
RMM:   2    -0.413192092886E+03   -0.12990E-02   -0.15681E-01  4280   0.131E-01    0.651E-01
RMM:   3    -0.413190770275E+03    0.13226E-02   -0.63766E-03  4302   0.405E-02    0.182E-01
RMM:   4    -0.413192665776E+03   -0.18955E-02   -0.27538E-03  5104   0.467E-02    0.187E-01
RMM:   5    -0.413190729769E+03    0.19360E-02   -0.93926E-04  4789   0.308E-02    0.195E-02
RMM:   6    -0.413190716658E+03    0.13111E-04   -0.17972E-04  5588   0.141E-02    0.137E-02
RMM:   7    -0.413190707480E+03    0.91775E-05   -0.31763E-05  4547   0.609E-03    0.560E-03
RMM:   8    -0.413190699582E+03    0.78985E-05   -0.53590E-06  2994   0.310E-03    0.283E-03
RMM:   9    -0.413190695341E+03    0.42407E-05   -0.82396E-07  2472   0.168E-03    0.149E-03
RMM:  10    -0.413190689353E+03    0.59884E-05   -0.49155E-07  2337   0.115E-03    0.804E-04
RMM:  11    -0.413190684700E+03    0.46531E-05   -0.27623E-07  1851   0.871E-04    0.360E-04
RMM:  12    -0.413190679796E+03    0.49033E-05   -0.18385E-07  1547   0.770E-04    0.161E-04
RMM:  13    -0.413190676846E+03    0.29505E-05   -0.10361E-07  1191   0.666E-04    0.102E-04
RMM:  14    -0.413190672870E+03    0.39758E-05   -0.86933E-08  1204   0.644E-04    0.609E-05
RMM:  15    -0.413190668826E+03    0.40439E-05   -0.71690E-08  1159   0.624E-04    0.467E-05
RMM:  16    -0.413190667194E+03    0.16323E-05   -0.37715E-08   832   0.557E-04    0.339E-05
RMM:  17    -0.413190665767E+03    0.14265E-05   -0.28746E-08   781   0.540E-04    0.156E-05
RMM:  18    -0.413190665328E+03    0.43935E-06   -0.15856E-08   585   0.508E-04
   33 T=    66. E= -.41286699E+03 F= -.41319067E+03 E0= -.41316927E+03  EK= 0.32368E+00 SP= 0.00E+00 SK= 0.00E+00
       N       E                     dE             d eps       ncg     rms          rms(c)
RMM:   1    -0.413184862266E+03    0.58035E-02   -0.12082E+01  4295   0.923E-01    0.916E-01
RMM:   2    -0.413194794144E+03   -0.99319E-02   -0.15714E-01  4268   0.126E-01    0.664E-01
RMM:   3    -0.413193370536E+03    0.14236E-02   -0.63091E-03  4536   0.450E-02    0.180E-01
RMM:   4    -0.413206579526E+03   -0.13209E-01   -0.13341E-02  5163   0.100E-01    0.483E-01
RMM:   5    -0.413193315609E+03    0.13264E-01   -0.65336E-03  4809   0.794E-02    0.251E-02
RMM:   6    -0.413193308574E+03    0.70353E-05   -0.10169E-03  5827   0.312E-02    0.143E-02
RMM:   7    -0.413193313094E+03   -0.45208E-05   -0.11913E-04  5490   0.100E-02    0.102E-02
RMM:   8    -0.413193307755E+03    0.53394E-05   -0.15570E-05  3804   0.415E-03    0.592E-03
RMM:   9    -0.413193304201E+03    0.35542E-05   -0.31899E-06  2711   0.260E-03    0.339E-03
RMM:  10    -0.413193300206E+03    0.39944E-05   -0.11489E-06  2508   0.174E-03    0.171E-03
RMM:  11    -0.413193296806E+03    0.34004E-05   -0.72707E-07  2466   0.134E-03    0.891E-04
RMM:  12    -0.413193293574E+03    0.32317E-05   -0.42613E-07  2241   0.106E-03    0.346E-04
RMM:  13    -0.413193292374E+03    0.11999E-05   -0.17917E-07  1487   0.758E-04    0.197E-04
RMM:  14    -0.413193290666E+03    0.17088E-05   -0.11372E-07  1196   0.676E-04    0.119E-04
RMM:  15    -0.413193288508E+03    0.21579E-05   -0.92036E-08  1189   0.658E-04    0.685E-05
RMM:  16    -0.413193287947E+03    0.56043E-06   -0.47183E-08   904   0.595E-04
   34 T=    66. E= -.41286706E+03 F= -.41319329E+03 E0= -.41317193E+03  EK= 0.32623E+00 SP= 0.00E+00 SK= 0.00E+00
       N       E                     dE             d eps       ncg     rms          rms(c)
RMM:   1    -0.413186933761E+03    0.63547E-02   -0.12207E+01  4299   0.945E-01    0.942E-01
RMM:   2    -0.413197210081E+03   -0.10276E-01   -0.15895E-01  4263   0.134E-01    0.664E-01
RMM:   3    -0.413196115984E+03    0.10941E-02   -0.65834E-03  4475   0.441E-02    0.184E-01
RMM:   4    -0.413202944196E+03   -0.68282E-02   -0.74662E-03  5152   0.746E-02    0.354E-01
RMM:   5    -0.413195913209E+03    0.70310E-02   -0.35328E-03  4808   0.583E-02    0.230E-02
RMM:   6    -0.413195900776E+03    0.12433E-04   -0.57253E-04  5759   0.236E-02    0.146E-02
RMM:   7    -0.413195896671E+03    0.41043E-05   -0.76854E-05  5189   0.827E-03    0.835E-03
RMM:   8    -0.413195888480E+03    0.81915E-05   -0.10170E-05  3352   0.365E-03    0.421E-03
RMM:   9    -0.413195882385E+03    0.60951E-05   -0.18682E-06  2561   0.213E-03    0.230E-03
RMM:  10    -0.413195875728E+03    0.66568E-05   -0.77526E-07  2470   0.141E-03    0.125E-03
RMM:  11    -0.413195869204E+03    0.65244E-05   -0.48123E-07  2311   0.112E-03    0.546E-04
RMM:  12    -0.413195863769E+03    0.54343E-05   -0.27657E-07  1916   0.891E-04    0.196E-04
RMM:  13    -0.413195860999E+03    0.27702E-05   -0.14037E-07  1290   0.709E-04    0.138E-04
RMM:  14    -0.413195857092E+03    0.39067E-05   -0.10424E-07  1225   0.676E-04    0.846E-05
RMM:  15    -0.413195852514E+03    0.45786E-05   -0.91522E-08  1336   0.668E-04    0.740E-05
RMM:  16    -0.413195851252E+03    0.12614E-05   -0.46817E-08   936   0.583E-04    0.560E-05
RMM:  17    -0.413195847334E+03    0.39186E-05   -0.59560E-08  1241   0.620E-04    0.289E-05
RMM:  18    -0.413195846836E+03    0.49749E-06   -0.22602E-08   748   0.526E-04
   35 T=    67. E= -.41286693E+03 F= -.41319585E+03 E0= -.41317454E+03  EK= 0.32892E+00 SP= 0.00E+00 SK= 0.00E+00
       N       E                     dE             d eps       ncg     rms          rms(c)
RMM:   1    -0.413189392115E+03    0.64552E-02   -0.12249E+01  4298   0.965E-01    0.942E-01
RMM:   2    -0.413199209301E+03   -0.98172E-02   -0.15730E-01  4262   0.119E-01    0.658E-01
RMM:   3    -0.413198420845E+03    0.78846E-03   -0.68370E-03  4827   0.445E-02    0.197E-01
RMM:   4    -0.413230268639E+03   -0.31848E-01   -0.31994E-02  5154   0.150E-01    0.743E-01
RMM:   5    -0.413198070754E+03    0.32198E-01   -0.16169E-02  4796   0.124E-01    0.375E-02
RMM:   6    -0.413198121408E+03   -0.50654E-04   -0.25363E-03  5856   0.474E-02    0.187E-02
RMM:   7    -0.413198133559E+03   -0.12151E-04   -0.25878E-04  5748   0.136E-02    0.129E-02
RMM:   8    -0.413198127012E+03    0.65468E-05   -0.33399E-05  4388   0.520E-03    0.896E-03
RMM:   9    -0.413198121170E+03    0.58417E-05   -0.84780E-06  3341   0.339E-03    0.597E-03
RMM:  10    -0.413198111260E+03    0.99099E-05   -0.23077E-06  2556   0.255E-03    0.271E-03
RMM:  11    -0.413198103813E+03    0.74476E-05   -0.15030E-06  2513   0.193E-03    0.150E-03
RMM:  12    -0.413198096574E+03    0.72389E-05   -0.69895E-07  2447   0.148E-03    0.559E-04
RMM:  13    -0.413198094097E+03    0.24768E-05   -0.29174E-07  2125   0.970E-04    0.393E-04
RMM:  14    -0.413198091907E+03    0.21899E-05   -0.13434E-07  1487   0.728E-04    0.226E-04
RMM:  15    -0.413198085514E+03    0.63932E-05   -0.13154E-07  1745   0.747E-04    0.258E-04
RMM:  16    -0.413198084781E+03    0.73252E-06   -0.42520E-08   914   0.568E-04
   36 T=    67. E= -.41286677E+03 F= -.41319808E+03 E0= -.41317682E+03  EK= 0.33131E+00 SP= 0.00E+00 SK= 0.00E+00
       N       E                     dE             d eps       ncg     rms          rms(c)
RMM:   1    -0.413190852775E+03    0.72327E-02   -0.12308E+01  4300   0.990E-01    0.924E-01
RMM:   2    -0.413202664287E+03   -0.11812E-01   -0.16401E-01  4261   0.135E-01    0.670E-01
RMM:   3    -0.413201396450E+03    0.12678E-02   -0.65966E-03  4807   0.511E-02    0.203E-01
RMM:   4    -0.413241467986E+03   -0.40072E-01   -0.40670E-02  5157   0.169E-01    0.832E-01
RMM:   5    -0.413200743721E+03    0.40724E-01   -0.20355E-02  4791   0.139E-01    0.402E-02
RMM:   6    -0.413200846581E+03   -0.10286E-03   -0.32224E-03  5859   0.529E-02    0.188E-02
RMM:   7    -0.413200864925E+03   -0.18344E-04   -0.31766E-04  5724   0.148E-02    0.130E-02
RMM:   8    -0.413200860422E+03    0.45035E-05   -0.35092E-05  4015   0.498E-03    0.871E-03
RMM:   9    -0.413200856003E+03    0.44190E-05   -0.98362E-06  3461   0.351E-03    0.552E-03
RMM:  10    -0.413200850393E+03    0.56096E-05   -0.27528E-06  2616   0.252E-03    0.282E-03
RMM:  11    -0.413200844334E+03    0.60590E-05   -0.16488E-06  2505   0.204E-03    0.150E-03
RMM:  12    -0.413200840410E+03    0.39238E-05   -0.69082E-07  2454   0.144E-03    0.593E-04
RMM:  13    -0.413200839011E+03    0.13987E-05   -0.29349E-07  2107   0.953E-04    0.395E-04
RMM:  14    -0.413200837055E+03    0.19563E-05   -0.14722E-07  1511   0.739E-04    0.206E-04
RMM:  15    -0.413200832936E+03    0.41192E-05   -0.14053E-07  1619   0.734E-04    0.219E-04
RMM:  16    -0.413200832270E+03    0.66595E-06   -0.50563E-08   962   0.583E-04
   37 T=    68. E= -.41286688E+03 F= -.41320083E+03 E0= -.41317961E+03  EK= 0.33395E+00 SP= 0.00E+00 SK= 0.00E+00
       N       E                     dE             d eps       ncg     rms          rms(c)
RMM:   1    -0.413200311546E+03    0.52139E-03   -0.12538E+01  4307   0.106E+00    0.946E-01
RMM:   2    -0.413205524663E+03   -0.52131E-02   -0.16239E-01  4258   0.129E-01    0.673E-01
RMM:   3    -0.413204032957E+03    0.14917E-02   -0.68369E-03  4733   0.501E-02    0.197E-01
RMM:   4    -0.413234520661E+03   -0.30488E-01   -0.30539E-02  5154   0.147E-01    0.728E-01
RMM:   5    -0.413203632728E+03    0.30888E-01   -0.15627E-02  4806   0.121E-01    0.356E-02
RMM:   6    -0.413203684686E+03   -0.51958E-04   -0.23562E-03  5844   0.459E-02    0.178E-02
RMM:   7    -0.413203698434E+03   -0.13749E-04   -0.25285E-04  5784   0.135E-02    0.128E-02
RMM:   8    -0.413203692433E+03    0.60007E-05   -0.33090E-05  4417   0.519E-03    0.864E-03
RMM:   9    -0.413203687501E+03    0.49320E-05   -0.74980E-06  3220   0.319E-03    0.558E-03
RMM:  10    -0.413203679308E+03    0.81930E-05   -0.20982E-06  2541   0.234E-03    0.258E-03
RMM:  11    -0.413203673013E+03    0.62958E-05   -0.13698E-06  2508   0.183E-03    0.137E-03
RMM:  12    -0.413203667403E+03    0.56101E-05   -0.62134E-07  2426   0.137E-03    0.521E-04
RMM:  13    -0.413203665361E+03    0.20420E-05   -0.27246E-07  2066   0.927E-04    0.347E-04
RMM:  14    -0.413203663136E+03    0.22244E-05   -0.13283E-07  1458   0.719E-04    0.192E-04
RMM:  15    -0.413203657954E+03    0.51817E-05   -0.11853E-07  1552   0.713E-04    0.180E-04
RMM:  16    -0.413203656962E+03    0.99249E-06   -0.44999E-08   920   0.582E-04
   38 T=    68. E= -.41286726E+03 F= -.41320366E+03 E0= -.41318248E+03  EK= 0.33640E+00 SP= 0.00E+00 SK= 0.00E+00
       N       E                     dE             d eps       ncg     rms          rms(c)
RMM:   1    -0.413201092325E+03    0.25656E-02   -0.12575E+01  4304   0.108E+00    0.958E-01
RMM:   2    -0.413206932665E+03   -0.58403E-02   -0.16696E-01  4264   0.127E-01    0.667E-01
RMM:   3    -0.413206437253E+03    0.49541E-03   -0.74153E-03  4966   0.545E-02    0.230E-01
RMM:   4    -0.413257372655E+03   -0.50935E-01   -0.54044E-02  5135   0.193E-01    0.937E-01
RMM:   5    -0.413205324194E+03    0.52048E-01   -0.25767E-02  4784   0.158E-01    0.477E-02
RMM:   6    -0.413205473006E+03   -0.14881E-03   -0.40664E-03  5838   0.597E-02    0.217E-02
RMM:   7    -0.413205493474E+03   -0.20468E-04   -0.40940E-04  5816   0.170E-02    0.150E-02
RMM:   8    -0.413205491300E+03    0.21738E-05   -0.56771E-05  4755   0.622E-03    0.112E-02
RMM:   9    -0.413205481476E+03    0.98242E-05   -0.11654E-05  3650   0.371E-03    0.708E-03
RMM:  10    -0.413205470610E+03    0.10866E-04   -0.36156E-06  2652   0.293E-03    0.321E-03
RMM:  11    -0.413205462761E+03    0.78488E-05   -0.17073E-06  2505   0.212E-03    0.183E-03
RMM:  12    -0.413205454377E+03    0.83841E-05   -0.88590E-07  2466   0.165E-03    0.635E-04
RMM:  13    -0.413205450538E+03    0.38395E-05   -0.37009E-07  2276   0.109E-03    0.437E-04
RMM:  14    -0.413205447466E+03    0.30714E-05   -0.18135E-07  1755   0.795E-04    0.296E-04
RMM:  15    -0.413205439054E+03    0.84120E-05   -0.16196E-07  1852   0.779E-04    0.286E-04
RMM:  16    -0.413205438527E+03    0.52749E-06   -0.57853E-08  1020   0.578E-04
   39 T=    69. E= -.41286679E+03 F= -.41320544E+03 E0= -.41318430E+03  EK= 0.33865E+00 SP= 0.00E+00 SK= 0.00E+00
       N       E                     dE             d eps       ncg     rms          rms(c)
RMM:   1    -0.413202398200E+03    0.30409E-02   -0.12582E+01  4310   0.113E+00    0.935E-01
RMM:   2    -0.413210572698E+03   -0.81745E-02   -0.16858E-01  4265   0.135E-01    0.673E-01
RMM:   3    -0.413209882504E+03    0.69019E-03   -0.71155E-03  4992   0.545E-02    0.237E-01
RMM:   4    -0.413264246618E+03   -0.54364E-01   -0.58715E-02  5129   0.201E-01    0.967E-01
RMM:   5    -0.413208589668E+03    0.55657E-01   -0.27453E-02  4786   0.163E-01    0.489E-02
RMM:   6    -0.413208745456E+03   -0.15579E-03   -0.42670E-03  5825   0.614E-02    0.210E-02
RMM:   7    -0.413208769986E+03   -0.24530E-04   -0.44211E-04  5876   0.175E-02    0.151E-02
RMM:   8    -0.413208770056E+03   -0.69878E-07   -0.62028E-05  4867   0.651E-03    0.114E-02
RMM:   9    -0.413208761958E+03    0.80982E-05   -0.11412E-05  3587   0.369E-03    0.689E-03
RMM:  10    -0.413208754433E+03    0.75247E-05   -0.37510E-06  2667   0.289E-03    0.311E-03
RMM:  11    -0.413208749217E+03    0.52163E-05   -0.16857E-06  2506   0.210E-03    0.171E-03
RMM:  12    -0.413208743800E+03    0.54174E-05   -0.87191E-07  2463   0.160E-03    0.624E-04
RMM:  13    -0.413208741301E+03    0.24986E-05   -0.37075E-07  2257   0.108E-03    0.424E-04
RMM:  14    -0.413208738882E+03    0.24187E-05   -0.19036E-07  1749   0.798E-04    0.278E-04
RMM:  15    -0.413208733637E+03    0.52454E-05   -0.15311E-07  1602   0.745E-04    0.205E-04
RMM:  16    -0.413208733102E+03    0.53504E-06   -0.62794E-08  1032   0.598E-04
   40 T=    69. E= -.41286744E+03 F= -.41320873E+03 E0= -.41318763E+03  EK= 0.34129E+00 SP= 0.00E+00 SK= 0.00E+00
       N       E                     dE             d eps       ncg     rms          rms(c)
RMM:   1    -0.413205653333E+03    0.30803E-02   -0.12763E+01  4305   0.119E+00    0.948E-01
RMM:   2    -0.413211814162E+03   -0.61608E-02   -0.17482E-01  4265   0.140E-01    0.683E-01
RMM:   3    -0.413211490897E+03    0.32327E-03   -0.74872E-03  5033   0.563E-02    0.255E-01
RMM:   4    -0.413267776922E+03   -0.56286E-01   -0.62635E-02  5129   0.208E-01    0.986E-01
RMM:   5    -0.413209820197E+03    0.57957E-01   -0.28088E-02  4769   0.166E-01    0.520E-02
RMM:   6    -0.413210005327E+03   -0.18513E-03   -0.46158E-03  5814   0.630E-02    0.211E-02
RMM:   7    -0.413210031646E+03   -0.26319E-04   -0.47474E-04  5922   0.182E-02    0.158E-02
RMM:   8    -0.413210031831E+03   -0.18429E-06   -0.67978E-05  4980   0.686E-03    0.118E-02
RMM:   9    -0.413210023336E+03    0.84946E-05   -0.10836E-05  3484   0.373E-03    0.676E-03
RMM:  10    -0.413210015822E+03    0.75140E-05   -0.40036E-06  2693   0.297E-03    0.303E-03
RMM:  11    -0.413210010523E+03    0.52993E-05   -0.17549E-06  2519   0.212E-03    0.160E-03
RMM:  12    -0.413210005371E+03    0.51517E-05   -0.86104E-07  2465   0.158E-03    0.609E-04
RMM:  13    -0.413210002917E+03    0.24543E-05   -0.37296E-07  2233   0.107E-03    0.415E-04
RMM:  14    -0.413210000007E+03    0.29100E-05   -0.20512E-07  1765   0.813E-04    0.281E-04
RMM:  15    -0.413209995460E+03    0.45465E-05   -0.14698E-07  1489   0.730E-04    0.167E-04
RMM:  16    -0.413209994505E+03    0.95554E-06   -0.69842E-08  1050   0.613E-04
   41 T=    70. E= -.41286681E+03 F= -.41320999E+03 E0= -.41318893E+03  EK= 0.34319E+00 SP= 0.00E+00 SK= 0.00E+00
       N       E                     dE             d eps       ncg     rms          rms(c)
RMM:   1    -0.413214814303E+03   -0.48188E-02   -0.12899E+01  4311   0.127E+00    0.972E-01
RMM:   2    -0.413213596530E+03    0.12178E-02   -0.17835E-01  4281   0.147E-01    0.676E-01
RMM:   3    -0.413216255923E+03   -0.26594E-02   -0.98818E-03  5113   0.725E-02    0.331E-01
RMM:   4    -0.413250926024E+03   -0.34670E-01   -0.50130E-02  5093   0.188E-01    0.817E-01
RMM:   5    -0.413212521004E+03    0.38405E-01   -0.17299E-02  4732   0.136E-01    0.498E-02
RMM:   6    -0.413212568205E+03   -0.47201E-04   -0.28190E-03  5756   0.504E-02    0.188E-02
RMM:   7    -0.413212581989E+03   -0.13784E-04   -0.33415E-04  5899   0.156E-02    0.145E-02
RMM:   8    -0.413212579260E+03    0.27283E-05   -0.51169E-05  4861   0.623E-03    0.954E-03
RMM:   9    -0.413212566899E+03    0.12361E-04   -0.81653E-06  3196   0.378E-03    0.449E-03
RMM:  10    -0.413212557271E+03    0.96284E-05   -0.27426E-06  2569   0.249E-03    0.227E-03
RMM:  11    -0.413212549247E+03    0.80242E-05   -0.10246E-06  2512   0.163E-03    0.987E-04
RMM:  12    -0.413212543576E+03    0.56703E-05   -0.41549E-07  2307   0.111E-03    0.497E-04
RMM:  13    -0.413212538138E+03    0.54379E-05   -0.24630E-07  1687   0.851E-04    0.249E-04
RMM:  14    -0.413212534120E+03    0.40180E-05   -0.15399E-07  1376   0.735E-04    0.153E-04
RMM:  15    -0.413212528495E+03    0.56250E-05   -0.12805E-07  1451   0.715E-04    0.969E-05
RMM:  16    -0.413212524013E+03    0.44826E-05   -0.94567E-08  1355   0.656E-04    0.566E-05
RMM:  17    -0.413212519607E+03    0.44061E-05   -0.76281E-08  1300   0.627E-04    0.491E-05
RMM:  18    -0.413212518279E+03    0.13274E-05   -0.42742E-08   935   0.547E-04    0.333E-05
RMM:  19    -0.413212517517E+03    0.76241E-06   -0.28870E-08   836   0.533E-04
   42 T=    70. E= -.41286727E+03 F= -.41321252E+03 E0= -.41319148E+03  EK= 0.34525E+00 SP= 0.00E+00 SK= 0.00E+00
       N       E                     dE             d eps       ncg     rms          rms(c)
RMM:   1    -0.413216887410E+03   -0.43691E-02   -0.12875E+01  4311   0.135E+00    0.947E-01
RMM:   2    -0.413215501949E+03    0.13855E-02   -0.17612E-01  4286   0.156E-01    0.676E-01
RMM:   3    -0.413219158078E+03   -0.36561E-02   -0.10596E-02  5100   0.807E-02    0.361E-01
RMM:   4    -0.413248743386E+03   -0.29585E-01   -0.48198E-02  5066   0.185E-01    0.776E-01
RMM:   5    -0.413214366074E+03    0.34377E-01   -0.15098E-02  4710   0.130E-01    0.482E-02
RMM:   6    -0.413214392016E+03   -0.25942E-04   -0.24714E-03  5734   0.476E-02    0.177E-02
RMM:   7    -0.413214402422E+03   -0.10406E-04   -0.28766E-04  5895   0.150E-02    0.139E-02
RMM:   8    -0.413214400026E+03    0.23956E-05   -0.45516E-05  4808   0.598E-03    0.884E-03
RMM:   9    -0.413214390083E+03    0.99435E-05   -0.78283E-06  3169   0.385E-03    0.421E-03
RMM:  10    -0.413214383260E+03    0.68223E-05   -0.25100E-06  2564   0.244E-03    0.227E-03
RMM:  11    -0.413214377831E+03    0.54296E-05   -0.10087E-06  2507   0.159E-03    0.100E-03
RMM:  12    -0.413214374084E+03    0.37463E-05   -0.42938E-07  2287   0.110E-03    0.493E-04
RMM:  13    -0.413214369730E+03    0.43542E-05   -0.29282E-07  1723   0.882E-04    0.257E-04
RMM:  14    -0.413214367467E+03    0.22634E-05   -0.17030E-07  1319   0.733E-04    0.145E-04
RMM:  15    -0.413214363805E+03    0.36614E-05   -0.13410E-07  1258   0.701E-04    0.786E-05
RMM:  16    -0.413214360205E+03    0.36007E-05   -0.10932E-07  1282   0.678E-04    0.491E-05
RMM:  17    -0.413214357388E+03    0.28172E-05   -0.83012E-08  1275   0.642E-04    0.400E-05
RMM:  18    -0.413214355601E+03    0.17866E-05   -0.55490E-08  1051   0.581E-04    0.300E-05
RMM:  19    -0.413214354881E+03    0.72032E-06   -0.34105E-08   841   0.538E-04
   43 T=    71. E= -.41286731E+03 F= -.41321435E+03 E0= -.41319335E+03  EK= 0.34705E+00 SP= 0.00E+00 SK= 0.00E+00
       N       E                     dE             d eps       ncg     rms          rms(c)
RMM:   1    -0.413242454973E+03   -0.28099E-01   -0.13252E+01  4312   0.152E+00    0.949E-01
RMM:   2    -0.413216556857E+03    0.25898E-01   -0.20159E-01  4284   0.176E-01    0.693E-01
RMM:   3    -0.413221641336E+03   -0.50845E-02   -0.11856E-02  5097   0.906E-02    0.414E-01
RMM:   4    -0.413247329080E+03   -0.25688E-01   -0.48855E-02  5057   0.188E-01    0.756E-01
RMM:   5    -0.413215194244E+03    0.32135E-01   -0.13929E-02  4691   0.129E-01    0.508E-02
RMM:   6    -0.413215194844E+03   -0.59936E-06   -0.23449E-03  5677   0.462E-02    0.181E-02
RMM:   7    -0.413215205619E+03   -0.10775E-04   -0.28039E-04  5917   0.150E-02    0.143E-02
RMM:   8    -0.413215203247E+03    0.23718E-05   -0.42914E-05  4801   0.594E-03    0.894E-03
RMM:   9    -0.413215194464E+03    0.87836E-05   -0.91336E-06  3365   0.428E-03    0.444E-03
RMM:  10    -0.413215189012E+03    0.54512E-05   -0.27565E-06  2597   0.257E-03    0.261E-03
RMM:  11    -0.413215184914E+03    0.40986E-05   -0.12484E-06  2522   0.175E-03    0.112E-03
RMM:  12    -0.413215182289E+03    0.26246E-05   -0.52008E-07  2431   0.121E-03    0.601E-04
RMM:  13    -0.413215178613E+03    0.36762E-05   -0.38636E-07  1889   0.980E-04    0.369E-04
RMM:  14    -0.413215176979E+03    0.16333E-05   -0.20205E-07  1404   0.777E-04    0.195E-04
RMM:  15    -0.413215174595E+03    0.23841E-05   -0.15271E-07  1276   0.722E-04    0.110E-04
RMM:  16    -0.413215171537E+03    0.30588E-05   -0.12796E-07  1296   0.696E-04    0.590E-05
RMM:  17    -0.413215170091E+03    0.14451E-05   -0.79413E-08  1093   0.634E-04    0.430E-05
RMM:  18    -0.413215168013E+03    0.20788E-05   -0.68608E-08  1113   0.616E-04    0.372E-05
RMM:  19    -0.413215167080E+03    0.93314E-06   -0.40954E-08   885   0.565E-04
   44 T=    71. E= -.41286692E+03 F= -.41321517E+03 E0= -.41319419E+03  EK= 0.34825E+00 SP= 0.00E+00 SK= 0.00E+00
       N       E                     dE             d eps       ncg     rms          rms(c)
RMM:   1    -0.413235441182E+03   -0.20273E-01   -0.13240E+01  4305   0.157E+00    0.979E-01
RMM:   2    -0.413217130193E+03    0.18311E-01   -0.18901E-01  4354   0.182E-01    0.683E-01
RMM:   3    -0.413229787718E+03   -0.12658E-01   -0.18614E-02  5135   0.118E-01    0.536E-01
RMM:   4    -0.413232007942E+03   -0.22202E-02   -0.37416E-02  5015   0.169E-01    0.543E-01
RMM:   5    -0.413216781938E+03    0.15226E-01   -0.58975E-03  4564   0.949E-02    0.429E-02
RMM:   6    -0.413216735043E+03    0.46895E-04   -0.10325E-03  5321   0.317E-02    0.166E-02
RMM:   7    -0.413216734791E+03    0.25196E-06   -0.11773E-04  5666   0.104E-02    0.125E-02
RMM:   8    -0.413216730370E+03    0.44213E-05   -0.27967E-05  4770   0.524E-03    0.792E-03
RMM:   9    -0.413216714948E+03    0.15422E-04   -0.78653E-06  3290   0.421E-03    0.399E-03
RMM:  10    -0.413216709018E+03    0.59292E-05   -0.15002E-06  2537   0.208E-03    0.182E-03
RMM:  11    -0.413216702933E+03    0.60852E-05   -0.87958E-07  2485   0.149E-03    0.892E-04
RMM:  12    -0.413216697624E+03    0.53089E-05   -0.40906E-07  2362   0.110E-03    0.472E-04
RMM:  13    -0.413216692609E+03    0.50152E-05   -0.23358E-07  1554   0.811E-04    0.246E-04
RMM:  14    -0.413216689749E+03    0.28602E-05   -0.13087E-07  1190   0.691E-04    0.159E-04
RMM:  15    -0.413216684387E+03    0.53620E-05   -0.11541E-07  1291   0.693E-04    0.864E-05
RMM:  16    -0.413216680637E+03    0.37503E-05   -0.82754E-08  1191   0.641E-04    0.882E-05
RMM:  17    -0.413216678083E+03    0.25542E-05   -0.53348E-08  1001   0.583E-04    0.586E-05
RMM:  18    -0.413216675360E+03    0.27221E-05   -0.50201E-08  1051   0.575E-04    0.336E-05
RMM:  19    -0.413216674774E+03    0.58676E-06   -0.24376E-08   759   0.519E-04
   45 T=    71. E= -.41286725E+03 F= -.41321667E+03 E0= -.41319572E+03  EK= 0.34942E+00 SP= 0.00E+00 SK= 0.00E+00
       N       E                     dE             d eps       ncg     rms          rms(c)
RMM:   1    -0.413238373710E+03   -0.21698E-01   -0.13184E+01  4305   0.167E+00    0.960E-01
RMM:   2    -0.413216974293E+03    0.21399E-01   -0.18605E-01  4364   0.195E-01    0.680E-01
RMM:   3    -0.413232301203E+03   -0.15327E-01   -0.20911E-02  5131   0.127E-01    0.578E-01
RMM:   4    -0.413229534132E+03    0.27671E-02   -0.36825E-02  4988   0.169E-01    0.504E-01
RMM:   5    -0.413216598978E+03    0.12935E-01   -0.50751E-03  4553   0.911E-02    0.432E-02
RMM:   6    -0.413216529835E+03    0.69142E-04   -0.77560E-04  5077   0.288E-02    0.162E-02
RMM:   7    -0.413216529914E+03   -0.79050E-07   -0.97414E-05  5651   0.936E-03    0.107E-02
RMM:   8    -0.413216525673E+03    0.42407E-05   -0.27422E-05  4850   0.542E-03    0.735E-03
RMM:   9    -0.413216513201E+03    0.12472E-04   -0.12413E-05  3961   0.442E-03    0.447E-03
RMM:  10    -0.413216508620E+03    0.45816E-05   -0.17615E-06  2507   0.222E-03    0.190E-03
RMM:  11    -0.413216503513E+03    0.51064E-05   -0.13447E-06  2484   0.180E-03    0.107E-03
RMM:  12    -0.413216498611E+03    0.49027E-05   -0.49210E-07  2364   0.128E-03    0.618E-04
RMM:  13    -0.413216494943E+03    0.36674E-05   -0.22090E-07  1709   0.838E-04    0.326E-04
RMM:  14    -0.413216491247E+03    0.36961E-05   -0.12506E-07  1187   0.684E-04    0.170E-04
RMM:  15    -0.413216485731E+03    0.55160E-05   -0.12639E-07  1357   0.692E-04    0.122E-04
RMM:  16    -0.413216483210E+03    0.25212E-05   -0.62210E-08   950   0.576E-04    0.108E-04
RMM:  17    -0.413216479427E+03    0.37828E-05   -0.62530E-08  1017   0.580E-04    0.450E-05
RMM:  18    -0.413216477801E+03    0.16261E-05   -0.33455E-08   782   0.532E-04    0.391E-05
RMM:  19    -0.413216477166E+03    0.63530E-06   -0.20153E-08   674   0.513E-04
   46 T=    71. E= -.41286690E+03 F= -.41321648E+03 E0= -.41319554E+03  EK= 0.34957E+00 SP= 0.00E+00 SK= 0.00E+00
       N       E                     dE             d eps       ncg     rms          rms(c)
RMM:   1    -0.413259906878E+03   -0.43429E-01   -0.13460E+01  4308   0.182E+00    0.946E-01
RMM:   2    -0.413216712630E+03    0.43194E-01   -0.22336E-01  4381   0.213E-01    0.697E-01
RMM:   3    -0.413231282585E+03   -0.14570E-01   -0.20305E-02  5135   0.127E-01    0.598E-01
RMM:   4    -0.413230312267E+03    0.97032E-03   -0.39081E-02  5002   0.174E-01    0.547E-01
RMM:   5    -0.413215684315E+03    0.14628E-01   -0.63994E-03  4548   0.995E-02    0.486E-02
RMM:   6    -0.413215601621E+03    0.82694E-04   -0.95056E-04  5132   0.320E-02    0.181E-02
RMM:   7    -0.413215601904E+03   -0.28302E-06   -0.12918E-04  5816   0.107E-02    0.129E-02
RMM:   8    -0.413215599344E+03    0.25608E-05   -0.32136E-05  4953   0.547E-03    0.881E-03
RMM:   9    -0.413215587128E+03    0.12216E-04   -0.12846E-05  3987   0.484E-03    0.503E-03
RMM:  10    -0.413215582713E+03    0.44149E-05   -0.21029E-06  2539   0.231E-03    0.237E-03
RMM:  11    -0.413215579102E+03    0.36111E-05   -0.18286E-06  2551   0.201E-03    0.133E-03
RMM:  12    -0.413215576195E+03    0.29075E-05   -0.53535E-07  2412   0.137E-03    0.730E-04
RMM:  13    -0.413215573577E+03    0.26175E-05   -0.26748E-07  1883   0.888E-04    0.371E-04
RMM:  14    -0.413215571037E+03    0.25406E-05   -0.15844E-07  1237   0.705E-04    0.206E-04
RMM:  15    -0.413215568241E+03    0.27953E-05   -0.12990E-07  1212   0.673E-04    0.942E-05
RMM:  16    -0.413215566118E+03    0.21238E-05   -0.94300E-08  1136   0.630E-04    0.900E-05
RMM:  17    -0.413215564370E+03    0.17477E-05   -0.66800E-08  1026   0.587E-04    0.780E-05
RMM:  18    -0.413215563303E+03    0.10669E-05   -0.39486E-08   799   0.538E-04    0.376E-05
RMM:  19    -0.413215562906E+03    0.39678E-06   -0.22529E-08   668   0.516E-04
   47 T=    71. E= -.41286685E+03 F= -.41321556E+03 E0= -.41319464E+03  EK= 0.34871E+00 SP= 0.00E+00 SK= 0.00E+00
       N       E                     dE             d eps       ncg     rms          rms(c)
RMM:   1    -0.413265726372E+03   -0.50163E-01   -0.13511E+01  4304   0.196E+00    0.974E-01
RMM:   2    -0.413214059680E+03    0.51667E-01   -0.21312E-01  4476   0.213E-01    0.690E-01
RMM:   3    -0.413238986699E+03   -0.24927E-01   -0.29718E-02  5152   0.155E-01    0.720E-01
RMM:   4    -0.413221829239E+03    0.17157E-01   -0.37355E-02  4954   0.174E-01    0.431E-01
RMM:   5    -0.413213797883E+03    0.80314E-02   -0.46330E-03  4592   0.908E-02    0.569E-02
RMM:   6    -0.413213611272E+03    0.18661E-03   -0.45625E-04  4676   0.285E-02    0.217E-02
RMM:   7    -0.413213612143E+03   -0.87123E-06   -0.11776E-04  5854   0.109E-02    0.144E-02
RMM:   8    -0.413213603306E+03    0.88371E-05   -0.23370E-05  4580   0.518E-03    0.101E-02
RMM:   9    -0.413213588081E+03    0.15225E-04   -0.91814E-06  3393   0.425E-03    0.521E-03
RMM:  10    -0.413213580634E+03    0.74463E-05   -0.27840E-06  2646   0.272E-03    0.236E-03
RMM:  11    -0.413213574775E+03    0.58592E-05   -0.20941E-06  2573   0.221E-03    0.149E-03
RMM:  12    -0.413213569221E+03    0.55540E-05   -0.75462E-07  2440   0.154E-03    0.759E-04
RMM:  13    -0.413213565046E+03    0.41747E-05   -0.35475E-07  2238   0.101E-03    0.427E-04
RMM:  14    -0.413213561090E+03    0.39560E-05   -0.19299E-07  1503   0.747E-04    0.228E-04
RMM:  15    -0.413213555810E+03    0.52803E-05   -0.15929E-07  1440   0.721E-04    0.126E-04
RMM:  16    -0.413213552942E+03    0.28685E-05   -0.91130E-08  1163   0.630E-04    0.107E-04
RMM:  17    -0.413213550335E+03    0.26070E-05   -0.66496E-08  1068   0.598E-04    0.641E-05
RMM:  18    -0.413213548462E+03    0.18724E-05   -0.47170E-08   994   0.575E-04    0.390E-05
RMM:  19    -0.413213547653E+03    0.80874E-06   -0.25390E-08   793   0.540E-04
   48 T=    71. E= -.41286688E+03 F= -.41321355E+03 E0= -.41319264E+03  EK= 0.34666E+00 SP= 0.00E+00 SK= 0.00E+00
       N       E                     dE             d eps       ncg     rms          rms(c)
RMM:   1    -0.413266614949E+03   -0.53066E-01   -0.13375E+01  4304   0.209E+00    0.963E-01
RMM:   2    -0.413209628714E+03    0.56986E-01   -0.21148E-01  4482   0.227E-01    0.679E-01
RMM:   3    -0.413240066878E+03   -0.30438E-01   -0.34723E-02  5161   0.168E-01    0.784E-01
RMM:   4    -0.413215135045E+03    0.24932E-01   -0.37184E-02  4926   0.176E-01    0.387E-01
RMM:   5    -0.413209655063E+03    0.54800E-02   -0.51064E-03  4851   0.931E-02    0.707E-02
RMM:   6    -0.413209346472E+03    0.30859E-03   -0.55761E-04  4665   0.327E-02    0.260E-02
RMM:   7    -0.413209342636E+03    0.38365E-05   -0.13376E-04  5726   0.123E-02    0.161E-02
RMM:   8    -0.413209332466E+03    0.10170E-04   -0.19665E-05  4266   0.490E-03    0.107E-02
RMM:   9    -0.413209316639E+03    0.15827E-04   -0.10101E-05  3500   0.430E-03    0.490E-03
RMM:  10    -0.413209307756E+03    0.88834E-05   -0.38047E-06  2796   0.302E-03    0.254E-03
RMM:  11    -0.413209300377E+03    0.73792E-05   -0.25109E-06  2646   0.243E-03    0.174E-03
RMM:  12    -0.413209295990E+03    0.43863E-05   -0.70580E-07  2450   0.155E-03    0.842E-04
RMM:  13    -0.413209292043E+03    0.39476E-05   -0.34136E-07  2241   0.101E-03    0.510E-04
RMM:  14    -0.413209287076E+03    0.49670E-05   -0.22684E-07  1749   0.811E-04    0.252E-04
RMM:  15    -0.413209282394E+03    0.46821E-05   -0.16261E-07  1478   0.725E-04    0.163E-04
RMM:  16    -0.413209280493E+03    0.19004E-05   -0.80858E-08  1133   0.618E-04    0.110E-04
RMM:  17    -0.413209277422E+03    0.30713E-05   -0.79787E-08  1241   0.626E-04    0.451E-05
RMM:  18    -0.413209276252E+03    0.11703E-05   -0.40208E-08   952   0.564E-04    0.352E-05
RMM:  19    -0.413209275541E+03    0.71081E-06   -0.24747E-08   837   0.544E-04
   49 T=    70. E= -.41286686E+03 F= -.41320928E+03 E0= -.41318838E+03  EK= 0.34242E+00 SP= 0.00E+00 SK= 0.00E+00
       N       E                     dE             d eps       ncg     rms          rms(c)
RMM:   1    -0.413249683082E+03   -0.40407E-01   -0.13064E+01  4304   0.214E+00    0.929E-01
RMM:   2    -0.413204158991E+03    0.45524E-01   -0.23705E-01  4515   0.242E-01    0.689E-01
RMM:   3    -0.413230465191E+03   -0.26306E-01   -0.30972E-02  5158   0.163E-01    0.762E-01
[...]
       N       E                     dE             d eps       ncg     rms          rms(c)
RMM:   1    -0.413714664157E+03    0.64398E-01   -0.21000E+01  4270   0.845E+00    0.152E+00
RMM:   2    -0.413617155962E+03    0.97508E-01   -0.63237E-01  5320   0.917E-01    0.128E+00
RMM:   3    -0.413723700315E+03   -0.10654E+00   -0.18856E-01  5617   0.443E-01    0.159E+00
RMM:   4    -0.413620059355E+03    0.10364E+00   -0.97262E-02  4905   0.362E-01    0.431E-01
RMM:   5    -0.413620052616E+03    0.67392E-05   -0.51180E-02  5354   0.268E-01    0.278E-01
RMM:   6    -0.413615643742E+03    0.44089E-02   -0.11607E-02  5023   0.138E-01    0.110E-01
RMM:   7    -0.413615383202E+03    0.26054E-03   -0.23224E-03  5590   0.600E-02    0.563E-02
RMM:   8    -0.413615328838E+03    0.54364E-04   -0.59676E-04  5646   0.295E-02    0.296E-02
RMM:   9    -0.413615311146E+03    0.17693E-04   -0.18671E-04  5153   0.172E-02    0.165E-02
RMM:  10    -0.413615308947E+03    0.21981E-05   -0.50948E-05  5644   0.854E-03    0.933E-03
RMM:  11    -0.413615311987E+03   -0.30394E-05   -0.14046E-05  4396   0.483E-03    0.551E-03
RMM:  12    -0.413615320130E+03   -0.81427E-05   -0.50965E-06  3058   0.372E-03    0.279E-03
RMM:  13    -0.413615328499E+03   -0.83691E-05   -0.21934E-06  2683   0.236E-03    0.147E-03
RMM:  14    -0.413615335638E+03   -0.71391E-05   -0.12396E-06  2575   0.173E-03    0.929E-04
RMM:  15    -0.413615344574E+03   -0.89367E-05   -0.14440E-06  2627   0.167E-03    0.668E-04
RMM:  16    -0.413615351675E+03   -0.71009E-05   -0.12187E-06  2453   0.135E-03    0.428E-04
RMM:  17    -0.413615357795E+03   -0.61200E-05   -0.11693E-06  2209   0.122E-03    0.265E-04
RMM:  18    -0.413615362828E+03   -0.50323E-05   -0.10413E-06  2177   0.115E-03    0.182E-04
RMM:  19    -0.413615365333E+03   -0.25052E-05   -0.45702E-07  1577   0.799E-04    0.138E-04
RMM:  20    -0.413615367602E+03   -0.22694E-05   -0.26371E-07  1367   0.689E-04    0.863E-05
RMM:  21    -0.413615369047E+03   -0.14450E-05   -0.14764E-07  1200   0.613E-04    0.528E-05
RMM:  22    -0.413615369944E+03   -0.89739E-06   -0.83007E-08  1055   0.572E-04
  138 T=   149. E= -.41288357E+03 F= -.41361537E+03 E0= -.41359421E+03  EK= 0.73180E+00 SP= 0.00E+00 SK= 0.00E+00
       N       E                     dE             d eps       ncg     rms          rms(c)
RMM:   1    -0.413513045417E+03    0.10232E+00   -0.15338E+01  4270   0.730E+00    0.972E-01
RMM:   2    -0.413472987290E+03    0.40058E-01   -0.46814E-01  5316   0.729E-01    0.771E-01
RMM:   3    -0.413528256755E+03   -0.55269E-01   -0.97726E-02  5557   0.332E-01    0.117E+00
RMM:   4    -0.413475067564E+03    0.53189E-01   -0.47107E-02  5052   0.257E-01    0.441E-01
RMM:   5    -0.413473517718E+03    0.15498E-02   -0.22876E-02  5026   0.196E-01    0.148E-01
RMM:   6    -0.413472882190E+03    0.63553E-03   -0.36389E-03  5344   0.783E-02    0.693E-02
RMM:   7    -0.413472809844E+03    0.72346E-04   -0.11744E-03  5536   0.384E-02    0.423E-02
RMM:   8    -0.413472762867E+03    0.46977E-04   -0.35043E-04  5496   0.227E-02    0.244E-02
RMM:   9    -0.413472758577E+03    0.42900E-05   -0.93724E-05  5374   0.123E-02    0.147E-02
RMM:  10    -0.413472755660E+03    0.29175E-05   -0.37559E-05  5286   0.757E-03    0.662E-03
RMM:  11    -0.413472758785E+03   -0.31250E-05   -0.13359E-05  4059   0.417E-03    0.506E-03
RMM:  12    -0.413472761267E+03   -0.24822E-05   -0.30197E-06  2768   0.292E-03    0.210E-03
RMM:  13    -0.413472764052E+03   -0.27851E-05   -0.14226E-06  2580   0.188E-03    0.110E-03
RMM:  14    -0.413472766894E+03   -0.28423E-05   -0.78752E-07  2459   0.141E-03    0.527E-04
RMM:  15    -0.413472769328E+03   -0.24342E-05   -0.58230E-07  2159   0.109E-03    0.378E-04
RMM:  16    -0.413472771858E+03   -0.25298E-05   -0.59768E-07  2099   0.104E-03    0.221E-04
RMM:  17    -0.413472773779E+03   -0.19208E-05   -0.46785E-07  1804   0.891E-04    0.165E-04
RMM:  18    -0.413472775179E+03   -0.14001E-05   -0.34621E-07  1593   0.785E-04    0.108E-04
RMM:  19    -0.413472776067E+03   -0.88808E-06   -0.20208E-07  1313   0.670E-04
  139 T=   125. E= -.41285643E+03 F= -.41347278E+03 E0= -.41345142E+03  EK= 0.61635E+00 SP= 0.00E+00 SK= 0.00E+00
       N       E                     dE             d eps       ncg     rms          rms(c)
RMM:   1    -0.413754118319E+03   -0.28134E+00   -0.16379E+01  4284   0.751E+00    0.138E+00
RMM:   2    -0.413746211822E+03    0.79065E-02   -0.57553E-01  5386   0.885E-01    0.147E+00
RMM:   3    -0.413714238904E+03    0.31973E-01   -0.15186E-01  5363   0.437E-01    0.123E+00
RMM:   4    -0.413680067411E+03    0.34171E-01   -0.10474E-01  5221   0.376E-01    0.616E-01
RMM:   5    -0.413675308397E+03    0.47590E-02   -0.31882E-02  4885   0.243E-01    0.257E-01
RMM:   6    -0.413673776636E+03    0.15318E-02   -0.17567E-02  5043   0.162E-01    0.153E-01
RMM:   7    -0.413672748019E+03    0.10286E-02   -0.25521E-03  4887   0.724E-02    0.662E-02
RMM:   8    -0.413672730296E+03    0.17722E-04   -0.59849E-04  5443   0.308E-02    0.372E-02
RMM:   9    -0.413672720188E+03    0.10108E-04   -0.21493E-04  5241   0.182E-02    0.171E-02
RMM:  10    -0.413672716630E+03    0.35586E-05   -0.49437E-05  5520   0.847E-03    0.968E-03
RMM:  11    -0.413672717031E+03   -0.40155E-06   -0.22317E-05  4963   0.547E-03    0.492E-03
RMM:  12    -0.413672717745E+03   -0.71402E-06   -0.31061E-06  2784   0.268E-03
  140 T=   160. E= -.41288529E+03 F= -.41367272E+03 E0= -.41365111E+03  EK= 0.78743E+00 SP= 0.00E+00 SK= 0.00E+00
       N       E                     dE             d eps       ncg     rms          rms(c)
RMM:   1    -0.414095573999E+03   -0.42286E+00   -0.23753E+01  4292   0.875E+00    0.202E+00
RMM:   2    -0.413993475762E+03    0.10210E+00   -0.88787E-01  5393   0.113E+00    0.205E+00
RMM:   3    -0.413965690430E+03    0.27785E-01   -0.27200E-01  5388   0.581E-01    0.183E+00
RMM:   4    -0.413897551448E+03    0.68139E-01   -0.19695E-01  5237   0.511E-01    0.917E-01
RMM:   5    -0.413886275244E+03    0.11276E-01   -0.69695E-02  4788   0.360E-01    0.348E-01
RMM:   6    -0.413883122774E+03    0.31525E-02   -0.35033E-02  5061   0.227E-01    0.208E-01
RMM:   7    -0.413880893329E+03    0.22294E-02   -0.48232E-03  4764   0.100E-01    0.849E-02
RMM:   8    -0.413880838362E+03    0.54967E-04   -0.10445E-03  5359   0.416E-02    0.492E-02
RMM:   9    -0.413880821845E+03    0.16517E-04   -0.39482E-04  5085   0.252E-02    0.229E-02
RMM:  10    -0.413880817532E+03    0.43127E-05   -0.92742E-05  5608   0.117E-02    0.133E-02
RMM:  11    -0.413880817555E+03   -0.22308E-07   -0.39135E-05  5368   0.729E-03    0.635E-03
RMM:  12    -0.413880819545E+03   -0.19907E-05   -0.83364E-06  3446   0.369E-03    0.488E-03
RMM:  13    -0.413880819937E+03   -0.39121E-06   -0.26088E-06  2690   0.262E-03
  141 T=   200. E= -.41289744E+03 F= -.41388082E+03 E0= -.41385909E+03  EK= 0.98338E+00 SP= 0.00E+00 SK= 0.00E+00
       N       E                     dE             d eps       ncg     rms          rms(c)
RMM:   1    -0.414134840378E+03   -0.25402E+00   -0.26221E+01  4291   0.903E+00    0.154E+00
RMM:   2    -0.413923691550E+03    0.21115E+00   -0.83950E-01  5409   0.107E+00    0.152E+00
RMM:   3    -0.413935574508E+03   -0.11883E-01   -0.18744E-01  5595   0.475E-01    0.149E+00
RMM:   4    -0.413887882736E+03    0.47692E-01   -0.95130E-02  5227   0.362E-01    0.789E-01
RMM:   5    -0.413883599275E+03    0.42835E-02   -0.51428E-02  4620   0.313E-01    0.302E-01
RMM:   6    -0.413881996110E+03    0.16032E-02   -0.24435E-02  5071   0.190E-01    0.188E-01
RMM:   7    -0.413879975257E+03    0.20209E-02   -0.44862E-03  4804   0.927E-02    0.799E-02
RMM:   8    -0.413879929823E+03    0.45434E-04   -0.11536E-03  5530   0.417E-02    0.501E-02
RMM:   9    -0.413879907179E+03    0.22644E-04   -0.44096E-04  4909   0.268E-02    0.224E-02
RMM:  10    -0.413879903119E+03    0.40598E-05   -0.10432E-04  5668   0.126E-02    0.130E-02
RMM:  11    -0.413879903318E+03   -0.19874E-06   -0.36512E-05  5224   0.731E-03    0.749E-03
RMM:  12    -0.413879904330E+03   -0.10125E-05   -0.72986E-06  3268   0.363E-03    0.458E-03
RMM:  13    -0.413879904617E+03   -0.28652E-06   -0.31076E-06  2779   0.263E-03
  142 T=   203. E= -.41288447E+03 F= -.41387990E+03 E0= -.41385814E+03  EK= 0.99543E+00 SP= 0.00E+00 SK= 0.00E+00
       N       E                     dE             d eps       ncg     rms          rms(c)
RMM:   1    -0.414013860857E+03   -0.13396E+00   -0.24187E+01  4287   0.868E+00    0.116E+00
RMM:   2    -0.413814795591E+03    0.19907E+00   -0.69594E-01  5426   0.941E-01    0.997E-01
RMM:   3    -0.413866880418E+03   -0.52085E-01   -0.14067E-01  5727   0.396E-01    0.124E+00
RMM:   4    -0.413816078719E+03    0.50802E-01   -0.58991E-02  5134   0.277E-01    0.573E-01
RMM:   5    -0.413812817399E+03    0.32613E-02   -0.36528E-02  4743   0.253E-01    0.218E-01
RMM:   6    -0.413811777021E+03    0.10404E-02   -0.86637E-03  5202   0.119E-01    0.116E-01
RMM:   7    -0.413811222380E+03    0.55464E-03   -0.23056E-03  5100   0.611E-02    0.631E-02
RMM:   8    -0.413811171196E+03    0.51184E-04   -0.72873E-04  5569   0.335E-02    0.409E-02
RMM:   9    -0.413811173645E+03   -0.24490E-05   -0.30610E-04  5070   0.224E-02    0.256E-02
RMM:  10    -0.413811163474E+03    0.10171E-04   -0.80911E-05  5541   0.113E-02    0.125E-02
RMM:  11    -0.413811164270E+03   -0.79541E-06   -0.39799E-05  5347   0.712E-03    0.748E-03
RMM:  12    -0.413811164173E+03    0.96734E-07   -0.64094E-06  3255   0.375E-03
  143 T=   191. E= -.41287337E+03 F= -.41381116E+03 E0= -.41378961E+03  EK= 0.93780E+00 SP= 0.00E+00 SK= 0.00E+00
       N       E                     dE             d eps       ncg     rms          rms(c)
RMM:   1    -0.413996669885E+03   -0.18551E+00   -0.23020E+01  4285   0.849E+00    0.985E-01
RMM:   2    -0.413810686239E+03    0.18598E+00   -0.62721E-01  5424   0.887E-01    0.782E-01
RMM:   3    -0.413851294527E+03   -0.40608E-01   -0.10799E-01  5755   0.355E-01    0.947E-01
RMM:   4    -0.413819171091E+03    0.32123E-01   -0.45877E-02  5178   0.227E-01    0.492E-01
RMM:   5    -0.413814659795E+03    0.45113E-02   -0.29014E-02  5048   0.221E-01    0.210E-01
RMM:   6    -0.413813243702E+03    0.14161E-02   -0.34350E-03  4576   0.892E-02    0.794E-02
RMM:   7    -0.413813227045E+03    0.16657E-04   -0.15219E-03  5750   0.460E-02    0.453E-02
RMM:   8    -0.413813236167E+03   -0.91214E-05   -0.43199E-04  5460   0.239E-02    0.306E-02
RMM:   9    -0.413813223706E+03    0.12461E-04   -0.12690E-04  5140   0.142E-02    0.160E-02
RMM:  10    -0.413813221248E+03    0.24580E-05   -0.57763E-05  5711   0.840E-03    0.830E-03
RMM:  11    -0.413813223501E+03   -0.22537E-05   -0.12875E-05  4204   0.427E-03    0.501E-03
RMM:  12    -0.413813222228E+03    0.12735E-05   -0.40832E-06  2937   0.302E-03    0.243E-03
RMM:  13    -0.413813223050E+03   -0.82225E-06   -0.10753E-06  2480   0.191E-03
  144 T=   191. E= -.41287702E+03 F= -.41381322E+03 E0= -.41379225E+03  EK= 0.93621E+00 SP= 0.00E+00 SK= 0.00E+00
       N       E                     dE             d eps       ncg     rms          rms(c)
RMM:   1    -0.414055887864E+03   -0.24267E+00   -0.24093E+01  4285   0.866E+00    0.120E+00
RMM:   2    -0.413841197307E+03    0.21469E+00   -0.65206E-01  5409   0.934E-01    0.996E-01
RMM:   3    -0.413892595543E+03   -0.51398E-01   -0.12668E-01  5719   0.386E-01    0.111E+00
RMM:   4    -0.413853619068E+03    0.38976E-01   -0.66142E-02  5154   0.271E-01    0.622E-01
RMM:   5    -0.413844237250E+03    0.93818E-02   -0.38311E-02  4858   0.258E-01    0.234E-01
RMM:   6    -0.413842495338E+03    0.17419E-02   -0.44876E-03  4637   0.100E-01    0.987E-02
RMM:   7    -0.413842351774E+03    0.14356E-03   -0.14023E-03  5492   0.469E-02    0.563E-02
RMM:   8    -0.413842356198E+03   -0.44243E-05   -0.86392E-04  5634   0.333E-02    0.406E-02
RMM:   9    -0.413842318092E+03    0.38106E-04   -0.28796E-04  5343   0.205E-02    0.249E-02
RMM:  10    -0.413842310999E+03    0.70933E-05   -0.10091E-04  5574   0.126E-02    0.127E-02
RMM:  11    -0.413842310867E+03    0.13163E-06   -0.38181E-05  5465   0.682E-03    0.777E-03
RMM:  12    -0.413842311545E+03   -0.67754E-06   -0.95423E-06  3977   0.439E-03
  145 T=   195. E= -.41288512E+03 F= -.41384231E+03 E0= -.41382180E+03  EK= 0.95719E+00 SP= 0.00E+00 SK= 0.00E+00
       N       E                     dE             d eps       ncg     rms          rms(c)
RMM:   1    -0.414012045270E+03   -0.16973E+00   -0.23903E+01  4285   0.867E+00    0.123E+00
RMM:   2    -0.413798979138E+03    0.21307E+00   -0.64023E-01  5397   0.948E-01    0.108E+00
RMM:   3    -0.413826154016E+03   -0.27175E-01   -0.98899E-02  5758   0.350E-01    0.973E-01
RMM:   4    -0.413823630920E+03    0.25231E-02   -0.68278E-02  5212   0.262E-01    0.815E-01
RMM:   5    -0.413802017522E+03    0.21613E-01   -0.47031E-02  4755   0.283E-01    0.262E-01
RMM:   6    -0.413799630845E+03    0.23867E-02   -0.75213E-03  4821   0.122E-01    0.116E-01
RMM:   7    -0.413799338802E+03    0.29204E-03   -0.21553E-03  5485   0.565E-02    0.722E-02
RMM:   8    -0.413799266043E+03    0.72759E-04   -0.91661E-04  5594   0.355E-02    0.460E-02
RMM:   9    -0.413799234338E+03    0.31705E-04   -0.36943E-04  5022   0.239E-02    0.220E-02
RMM:  10    -0.413799234404E+03   -0.65564E-07   -0.10188E-04  5741   0.124E-02    0.134E-02
RMM:  11    -0.413799232825E+03    0.15786E-05   -0.27753E-05  5069   0.635E-03    0.724E-03
RMM:  12    -0.413799234604E+03   -0.17789E-05   -0.75410E-06  3623   0.394E-03    0.358E-03
RMM:  13    -0.413799236828E+03   -0.22235E-05   -0.19197E-06  2617   0.233E-03    0.210E-03
RMM:  14    -0.413799238912E+03   -0.20839E-05   -0.94357E-07  2486   0.164E-03    0.931E-04
RMM:  15    -0.413799240586E+03   -0.16743E-05   -0.52182E-07  2241   0.117E-03    0.511E-04
RMM:  16    -0.413799242575E+03   -0.19890E-05   -0.39726E-07  2028   0.974E-04    0.331E-04
RMM:  17    -0.413799244090E+03   -0.15149E-05   -0.24280E-07  1419   0.787E-04    0.189E-04
RMM:  18    -0.413799245843E+03   -0.17527E-05   -0.23172E-07  1501   0.767E-04    0.133E-04
RMM:  19    -0.413799247212E+03   -0.13699E-05   -0.17414E-07  1330   0.691E-04    0.808E-05
RMM:  20    -0.413799248535E+03   -0.13230E-05   -0.14064E-07  1234   0.649E-04    0.796E-05
RMM:  21    -0.413799249739E+03   -0.12031E-05   -0.11609E-07  1186   0.617E-04    0.618E-05
RMM:  22    -0.413799250026E+03   -0.28782E-06   -0.58364E-08   963   0.559E-04
  146 T=   187. E= -.41288211E+03 F= -.41379925E+03 E0= -.41377894E+03  EK= 0.91714E+00 SP= 0.00E+00 SK= 0.00E+00
       N       E                     dE             d eps       ncg     rms          rms(c)
RMM:   1    -0.413880327581E+03   -0.81078E-01   -0.21279E+01  4285   0.832E+00    0.994E-01
RMM:   2    -0.413714978184E+03    0.16535E+00   -0.53825E-01  5352   0.873E-01    0.874E-01
RMM:   3    -0.413746832298E+03   -0.31854E-01   -0.86278E-02  5822   0.318E-01    0.996E-01
RMM:   4    -0.413718386361E+03    0.28446E-01   -0.34005E-02  5107   0.202E-01    0.567E-01
RMM:   5    -0.413716802818E+03    0.15835E-02   -0.32362E-02  4683   0.241E-01    0.247E-01
RMM:   6    -0.413714930309E+03    0.18725E-02   -0.46684E-03  4529   0.103E-01    0.104E-01
RMM:   7    -0.413714830539E+03    0.99770E-04   -0.22573E-03  5791   0.551E-02    0.642E-02
RMM:   8    -0.413714769494E+03    0.61045E-04   -0.56118E-04  5133   0.288E-02    0.334E-02
RMM:   9    -0.413714749057E+03    0.20437E-04   -0.23452E-04  5364   0.191E-02    0.171E-02
RMM:  10    -0.413714750153E+03   -0.10965E-05   -0.73935E-05  5848   0.980E-03    0.111E-02
RMM:  11    -0.413714748274E+03    0.18788E-05   -0.17343E-05  4454   0.545E-03    0.618E-03
RMM:  12    -0.413714749675E+03   -0.14009E-05   -0.65245E-06  3372   0.337E-03    0.451E-03
RMM:  13    -0.413714750061E+03   -0.38553E-06   -0.14206E-06  2554   0.219E-03
  147 T=   171. E= -.41287609E+03 F= -.41371475E+03 E0= -.41369437E+03  EK= 0.83866E+00 SP= 0.00E+00 SK= 0.00E+00
       N       E                     dE             d eps       ncg     rms          rms(c)
RMM:   1    -0.413787534797E+03   -0.72785E-01   -0.18624E+01  4286   0.793E+00    0.843E-01
RMM:   2    -0.413676436300E+03    0.11110E+00   -0.46119E-01  5327   0.812E-01    0.784E-01
RMM:   3    -0.413684397868E+03   -0.79616E-02   -0.76725E-02  5701   0.305E-01    0.842E-01
RMM:   4    -0.413665630840E+03    0.18767E-01   -0.23320E-02  5172   0.185E-01    0.453E-01
RMM:   5    -0.413666417675E+03   -0.78683E-03   -0.20903E-02  4854   0.189E-01    0.256E-01
RMM:   6    -0.413665584038E+03    0.83364E-03   -0.10781E-02  4905   0.134E-01    0.136E-01
RMM:   7    -0.413664943534E+03    0.64050E-03   -0.20808E-03  5213   0.607E-02    0.780E-02
RMM:   8    -0.413664855783E+03    0.87751E-04   -0.87615E-04  5543   0.355E-02    0.372E-02
RMM:   9    -0.413664829964E+03    0.25819E-04   -0.26110E-04  5044   0.197E-02    0.198E-02
RMM:  10    -0.413664826627E+03    0.33367E-05   -0.81482E-05  5692   0.110E-02    0.105E-02
RMM:  11    -0.413664827762E+03   -0.11354E-05   -0.17742E-05  4550   0.512E-03    0.639E-03
RMM:  12    -0.413664829215E+03   -0.14532E-05   -0.50638E-06  3093   0.344E-03    0.304E-03
RMM:  13    -0.413664829596E+03   -0.38104E-06   -0.10726E-06  2511   0.187E-03
  148 T=   160. E= -.41287660E+03 F= -.41366483E+03 E0= -.41364389E+03  EK= 0.78823E+00 SP= 0.00E+00 SK= 0.00E+00
       N       E                     dE             d eps       ncg     rms          rms(c)
RMM:   1    -0.413749047424E+03   -0.84218E-01   -0.17271E+01  4285   0.771E+00    0.933E-01
RMM:   2    -0.413697342290E+03    0.51705E-01   -0.47813E-01  5367   0.832E-01    0.107E+00
RMM:   3    -0.413665715254E+03    0.31627E-01   -0.92744E-02  5505   0.346E-01    0.812E-01
RMM:   4    -0.413652640435E+03    0.13075E-01   -0.37495E-02  5316   0.229E-01    0.464E-01
RMM:   5    -0.413651923590E+03    0.71684E-03   -0.19668E-02  4890   0.183E-01    0.274E-01
RMM:   6    -0.413652082547E+03   -0.15896E-03   -0.14932E-02  5109   0.151E-01    0.175E-01
RMM:   7    -0.413650739562E+03    0.13430E-02   -0.28370E-03  4766   0.751E-02    0.764E-02
RMM:   8    -0.413650732777E+03    0.67851E-05   -0.13982E-03  5809   0.414E-02    0.418E-02
RMM:   9    -0.413650698195E+03    0.34582E-04   -0.30997E-04  5137   0.211E-02    0.256E-02
RMM:  10    -0.413650683331E+03    0.14864E-04   -0.93780E-05  5501   0.122E-02    0.115E-02
RMM:  11    -0.413650684796E+03   -0.14647E-05   -0.37108E-05  5410   0.675E-03    0.713E-03
RMM:  12    -0.413650685730E+03   -0.93342E-06   -0.66670E-06  3408   0.370E-03
  149 T=   157. E= -.41287972E+03 F= -.41365069E+03 E0= -.41362876E+03  EK= 0.77097E+00 SP= 0.00E+00 SK= 0.00E+00
       N       E                     dE             d eps       ncg     rms          rms(c)
RMM:   1    -0.413716865631E+03   -0.66181E-01   -0.16506E+01  4282   0.756E+00    0.982E-01
RMM:   2    -0.413707923723E+03    0.89419E-02   -0.51574E-01  5384   0.854E-01    0.126E+00
RMM:   3    -0.413648739637E+03    0.59184E-01   -0.10558E-01  5424   0.371E-01    0.824E-01
RMM:   4    -0.413638222866E+03    0.10517E-01   -0.42936E-02  5379   0.245E-01    0.487E-01
RMM:   5    -0.413637401483E+03    0.82138E-03   -0.22513E-02  4955   0.193E-01    0.286E-01
RMM:   6    -0.413637234024E+03    0.16746E-03   -0.16286E-02  5126   0.156E-01    0.179E-01
RMM:   7    -0.413635770722E+03    0.14633E-02   -0.30441E-03  4738   0.784E-02    0.707E-02
RMM:   8    -0.413635788813E+03   -0.18091E-04   -0.14118E-03  5851   0.411E-02    0.407E-02
RMM:   9    -0.413635760497E+03    0.28316E-04   -0.29553E-04  5215   0.207E-02    0.249E-02
RMM:  10    -0.413635746845E+03    0.13652E-04   -0.83303E-05  5517   0.116E-02    0.113E-02
RMM:  11    -0.413635747300E+03   -0.45506E-06   -0.34840E-05  5359   0.660E-03    0.672E-03
RMM:  12    -0.413635747616E+03   -0.31618E-06   -0.57603E-06  3167   0.344E-03
  150 T=   154. E= -.41288075E+03 F= -.41363575E+03 E0= -.41361291E+03  EK= 0.75499E+00 SP= 0.00E+00 SK= 0.00E+00
