       N       E                     dE             d eps       ncg     rms          rms(c)
RMM:   1     0.220142887241E+04    0.22014E+04   -0.52441E+04  2132   0.654E+02
RMM:   2     0.705554540793E+03   -0.14959E+04   -0.16261E+04  2132   0.177E+02
RMM:   3     0.137668564698E+03   -0.56789E+03   -0.65756E+03  2132   0.117E+02
RMM:   4    -0.159529781746E+03   -0.29720E+03   -0.27857E+03  2132   0.936E+01
RMM:   5    -0.287464557660E+03   -0.12793E+03   -0.11435E+03  2132   0.595E+01
RMM:   6    -0.349851399644E+03   -0.62387E+02   -0.55149E+02  2132   0.423E+01
RMM:   7    -0.382683075969E+03   -0.32832E+02   -0.30375E+02  2132   0.293E+01
RMM:   8    -0.404154972559E+03   -0.21472E+02   -0.18448E+02  2132   0.233E+01
RMM:   9    -0.436033734147E+03   -0.31879E+02   -0.30728E+02  6109   0.173E+01
RMM:  10    -0.441313086938E+03   -0.52794E+01   -0.63215E+01  6392   0.539E+00
RMM:  11    -0.442499360537E+03   -0.11863E+01   -0.11142E+01  6210   0.173E+00
RMM:  12    -0.442856603583E+03   -0.35724E+00   -0.25389E+00  6368   0.596E-01    0.134E+02
RMM:  13    -0.425533600027E+03    0.17323E+02   -0.80774E+01  4679   0.119E+01    0.712E+01
RMM:  14    -0.499005976083E+03   -0.73472E+02   -0.53774E+02  5418   0.232E+01    0.306E+01
RMM:  15    -0.414074718625E+03    0.84931E+02   -0.19404E+02  5057   0.162E+01    0.597E+00
RMM:  16    -0.414076406366E+03   -0.16877E-02   -0.39093E+01  6079   0.602E+00    0.431E+00
RMM:  17    -0.413228134449E+03    0.84827E+00   -0.22668E+00  5321   0.180E+00    0.248E+00
RMM:  18    -0.413162181640E+03    0.65953E-01   -0.96147E-01  5944   0.101E+00    0.156E+00
RMM:  19    -0.413168944936E+03   -0.67633E-02   -0.29407E-01  5758   0.569E-01    0.858E-01
RMM:  20    -0.413181219181E+03   -0.12274E-01   -0.17087E-01  5254   0.469E-01    0.488E-01
RMM:  21    -0.413168494297E+03    0.12725E-01   -0.30987E-02  5040   0.213E-01    0.239E-01
RMM:  22    -0.413167006278E+03    0.14880E-02   -0.12042E-02  6125   0.907E-02    0.153E-01
RMM:  23    -0.413164984473E+03    0.20218E-02   -0.49757E-03  5776   0.664E-02    0.798E-02
RMM:  24    -0.413163245578E+03    0.17389E-02   -0.22059E-03  5768   0.464E-02    0.331E-02
RMM:  25    -0.413163007243E+03    0.23833E-03   -0.71975E-04  5769   0.221E-02    0.263E-02
RMM:  26    -0.413163178141E+03   -0.17090E-03   -0.41281E-04  5658   0.223E-02    0.256E-02
RMM:  27    -0.413163568267E+03   -0.39013E-03   -0.17496E-04  4543   0.186E-02    0.127E-02
RMM:  28    -0.413164058879E+03   -0.49061E-03   -0.15863E-04  4851   0.195E-02    0.864E-03
RMM:  29    -0.413164377166E+03   -0.31829E-03   -0.98049E-05  4412   0.137E-02    0.352E-03
RMM:  30    -0.413164571841E+03   -0.19467E-03   -0.72254E-05  3935   0.955E-03    0.227E-03
RMM:  31    -0.413164643121E+03   -0.71281E-04   -0.40155E-05  3119   0.512E-03    0.182E-03
RMM:  32    -0.413164660542E+03   -0.17420E-04   -0.16310E-05  2918   0.267E-03    0.897E-04
RMM:  33    -0.413164663266E+03   -0.27243E-05   -0.74359E-06  2690   0.160E-03    0.462E-04
RMM:  34    -0.413164662646E+03    0.61953E-06   -0.28698E-06  2365   0.128E-03
    1 T=    61. E= -.41286685E+03 F= -.41316466E+03 E0= -.41314217E+03  EK= 0.29781E+00 SP= 0.00E+00 SK= 0.00E+00
       N       E                     dE             d eps       ncg     rms          rms(c)
RMM:   1    -0.413172953207E+03   -0.82899E-02   -0.64927E+00  3986   0.502E-01    0.905E-01
RMM:   2    -0.413171311168E+03    0.16420E-02   -0.83475E-02  4078   0.771E-02    0.663E-01
RMM:   3    -0.413168072595E+03    0.32386E-02   -0.47862E-02  5082   0.813E-02    0.311E-01
RMM:   4    -0.413187773168E+03   -0.19701E-01   -0.31972E-02  5162   0.152E-01    0.643E-01
RMM:   5    -0.413164197658E+03    0.23576E-01   -0.11527E-02  4748   0.109E-01    0.482E-02
RMM:   6    -0.413164353415E+03   -0.15576E-03   -0.20095E-03  5649   0.439E-02    0.313E-02
RMM:   7    -0.413164368504E+03   -0.15089E-04   -0.35764E-04  5719   0.171E-02    0.208E-02
RMM:   8    -0.413164368997E+03   -0.49309E-06   -0.46456E-05  5103   0.770E-03    0.781E-03
RMM:   9    -0.413164372536E+03   -0.35388E-05   -0.91520E-06  3326   0.331E-03    0.495E-03
RMM:  10    -0.413164378294E+03   -0.57588E-05   -0.19563E-06  2568   0.207E-03    0.300E-03
RMM:  11    -0.413164382423E+03   -0.41283E-05   -0.10550E-06  2508   0.148E-03    0.154E-03
RMM:  12    -0.413164388427E+03   -0.60040E-05   -0.11182E-06  2509   0.146E-03    0.759E-04
RMM:  13    -0.413164391537E+03   -0.31102E-05   -0.59741E-07  2204   0.108E-03    0.499E-04
RMM:  14    -0.413164391827E+03   -0.29000E-06   -0.31304E-07  1652   0.780E-04
    2 T=    61. E= -.41286659E+03 F= -.41316439E+03 E0= -.41314189E+03  EK= 0.29781E+00 SP= 0.00E+00 SK= 0.00E+00
       N       E                     dE             d eps       ncg     rms          rms(c)
RMM:   1    -0.413174056204E+03   -0.96647E-02   -0.64479E+00  4187   0.501E-01    0.921E-01
RMM:   2    -0.413171529822E+03    0.25264E-02   -0.83758E-02  4099   0.762E-02    0.662E-01
RMM:   3    -0.413168118101E+03    0.34117E-02   -0.43936E-02  5084   0.752E-02    0.273E-01
RMM:   4    -0.413189790487E+03   -0.21672E-01   -0.32014E-02  5139   0.152E-01    0.658E-01
RMM:   5    -0.413164805311E+03    0.24985E-01   -0.11653E-02  4746   0.111E-01    0.481E-02
RMM:   6    -0.413164964964E+03   -0.15965E-03   -0.20762E-03  5662   0.450E-02    0.334E-02
RMM:   7    -0.413164958188E+03    0.67761E-05   -0.37233E-04  5665   0.181E-02    0.221E-02
RMM:   8    -0.413164951700E+03    0.64878E-05   -0.50468E-05  5145   0.833E-03    0.894E-03
RMM:   9    -0.413164950312E+03    0.13881E-05   -0.97464E-06  3450   0.358E-03    0.555E-03
RMM:  10    -0.413164950563E+03   -0.25106E-06   -0.18107E-06  2549   0.217E-03
    3 T=    61. E= -.41286689E+03 F= -.41316495E+03 E0= -.41314245E+03  EK= 0.29806E+00 SP= 0.00E+00 SK= 0.00E+00
       N       E                     dE             d eps       ncg     rms          rms(c)
RMM:   1    -0.413173410116E+03   -0.84598E-02   -0.64056E+00  4216   0.507E-01    0.906E-01
RMM:   2    -0.413171153021E+03    0.22571E-02   -0.83152E-02  4195   0.748E-02    0.656E-01
RMM:   3    -0.413172837442E+03   -0.16844E-02   -0.47235E-02  5173   0.981E-02    0.402E-01
RMM:   4    -0.413180661787E+03   -0.78243E-02   -0.30681E-02  5086   0.153E-01    0.538E-01
RMM:   5    -0.413164684468E+03    0.15977E-01   -0.71914E-03  4624   0.893E-02    0.482E-02
RMM:   6    -0.413164724090E+03   -0.39621E-04   -0.12480E-03  5405   0.347E-02    0.302E-02
RMM:   7    -0.413164730469E+03   -0.63792E-05   -0.24018E-04  5644   0.146E-02    0.185E-02
RMM:   8    -0.413164726965E+03    0.35037E-05   -0.35718E-05  4909   0.714E-03    0.661E-03
RMM:   9    -0.413164726770E+03    0.19479E-06   -0.47713E-06  2863   0.274E-03
    4 T=    61. E= -.41286669E+03 F= -.41316473E+03 E0= -.41314224E+03  EK= 0.29804E+00 SP= 0.00E+00 SK= 0.00E+00
       N       E                     dE             d eps       ncg     rms          rms(c)
RMM:   1    -0.413173350389E+03   -0.86234E-02   -0.64917E+00  4240   0.515E-01    0.903E-01
RMM:   2    -0.413171525690E+03    0.18247E-02   -0.83627E-02  4130   0.720E-02    0.662E-01
RMM:   3    -0.413172036212E+03   -0.51052E-03   -0.49755E-02  5147   0.937E-02    0.395E-01
RMM:   4    -0.413182585221E+03   -0.10549E-01   -0.30961E-02  5091   0.153E-01    0.571E-01
RMM:   5    -0.413164792660E+03    0.17793E-01   -0.85705E-03  4646   0.950E-02    0.476E-02
RMM:   6    -0.413164856145E+03   -0.63484E-04   -0.13766E-03  5518   0.367E-02    0.295E-02
RMM:   7    -0.413164872202E+03   -0.16058E-04   -0.26130E-04  5669   0.149E-02    0.184E-02
RMM:   8    -0.413164873984E+03   -0.17817E-05   -0.35715E-05  4905   0.702E-03    0.642E-03
RMM:   9    -0.413164876649E+03   -0.26653E-05   -0.51291E-06  2919   0.277E-03    0.376E-03
RMM:  10    -0.413164881642E+03   -0.49930E-05   -0.13838E-06  2538   0.185E-03    0.229E-03
RMM:  11    -0.413164885314E+03   -0.36721E-05   -0.80634E-07  2429   0.137E-03    0.111E-03
RMM:  12    -0.413164889815E+03   -0.45010E-05   -0.85809E-07  2481   0.127E-03    0.569E-04
RMM:  13    -0.413164892053E+03   -0.22374E-05   -0.45815E-07  1941   0.953E-04    0.340E-04
RMM:  14    -0.413164892750E+03   -0.69679E-06   -0.23300E-07  1458   0.757E-04
    5 T=    61. E= -.41286671E+03 F= -.41316489E+03 E0= -.41314242E+03  EK= 0.29818E+00 SP= 0.00E+00 SK= 0.00E+00
       N       E                     dE             d eps       ncg     rms          rms(c)
RMM:   1    -0.413174373266E+03   -0.94812E-02   -0.64622E+00  4246   0.515E-01    0.918E-01
RMM:   2    -0.413171889800E+03    0.24835E-02   -0.83605E-02  4076   0.726E-02    0.663E-01
RMM:   3    -0.413169047078E+03    0.28427E-02   -0.44865E-02  5099   0.753E-02    0.293E-01
RMM:   4    -0.413189280150E+03   -0.20233E-01   -0.32049E-02  5116   0.153E-01    0.648E-01
RMM:   5    -0.413165224529E+03    0.24056E-01   -0.11211E-02  4717   0.109E-01    0.482E-02
RMM:   6    -0.413165365522E+03   -0.14099E-03   -0.19711E-03  5632   0.439E-02    0.326E-02
RMM:   7    -0.413165361290E+03    0.42321E-05   -0.34842E-04  5655   0.175E-02    0.215E-02
RMM:   8    -0.413165358095E+03    0.31946E-05   -0.47996E-05  5103   0.808E-03    0.849E-03
RMM:   9    -0.413165357394E+03    0.70134E-06   -0.86431E-06  3334   0.345E-03
    6 T=    61. E= -.41286693E+03 F= -.41316536E+03 E0= -.41314289E+03  EK= 0.29843E+00 SP= 0.00E+00 SK= 0.00E+00
       N       E                     dE             d eps       ncg     rms          rms(c)
RMM:   1    -0.413173885650E+03   -0.85276E-02   -0.64173E+00  4273   0.519E-01    0.912E-01
RMM:   2    -0.413171638734E+03    0.22469E-02   -0.83329E-02  4278   0.739E-02    0.657E-01
RMM:   3    -0.413175714075E+03   -0.40753E-02   -0.48274E-02  5165   0.107E-01    0.450E-01
RMM:   4    -0.413178313813E+03   -0.25997E-02   -0.30408E-02  5056   0.153E-01    0.491E-01
RMM:   5    -0.413165128363E+03    0.13185E-01   -0.58577E-03  4564   0.831E-02    0.480E-02
RMM:   6    -0.413165134011E+03   -0.56482E-05   -0.99382E-04  5314   0.313E-02    0.301E-02
RMM:   7    -0.413165146922E+03   -0.12911E-04   -0.20546E-04  5483   0.142E-02    0.175E-02
RMM:   8    -0.413165142926E+03    0.39955E-05   -0.32055E-05  4795   0.711E-03    0.594E-03
RMM:   9    -0.413165141932E+03    0.99391E-06   -0.41820E-06  2778   0.258E-03
    7 T=    61. E= -.41286666E+03 F= -.41316514E+03 E0= -.41314270E+03  EK= 0.29848E+00 SP= 0.00E+00 SK= 0.00E+00
       N       E                     dE             d eps       ncg     rms          rms(c)
RMM:   1    -0.413174156625E+03   -0.90137E-02   -0.64790E+00  4272   0.531E-01    0.901E-01
RMM:   2    -0.413172567887E+03    0.15887E-02   -0.83409E-02  4180   0.749E-02    0.660E-01
RMM:   3    -0.413172160889E+03    0.40700E-03   -0.48861E-02  5094   0.933E-02    0.377E-01
RMM:   4    -0.413184500122E+03   -0.12339E-01   -0.31008E-02  5075   0.152E-01    0.585E-01
RMM:   5    -0.413165639306E+03    0.18861E-01   -0.90083E-03  4672   0.971E-02    0.472E-02
RMM:   6    -0.413165721354E+03   -0.82048E-04   -0.14876E-03  5566   0.380E-02    0.302E-02
RMM:   7    -0.413165724682E+03   -0.33275E-05   -0.27844E-04  5627   0.158E-02    0.191E-02
RMM:   8    -0.413165720807E+03    0.38747E-05   -0.37352E-05  4908   0.725E-03    0.672E-03
RMM:   9    -0.413165722234E+03   -0.14276E-05   -0.59194E-06  2982   0.287E-03    0.401E-03
RMM:  10    -0.413165725487E+03   -0.32526E-05   -0.13934E-06  2521   0.190E-03    0.244E-03
RMM:  11    -0.413165727741E+03   -0.22536E-05   -0.78090E-07  2447   0.138E-03    0.119E-03
RMM:  12    -0.413165730403E+03   -0.26620E-05   -0.84868E-07  2476   0.130E-03    0.613E-04
RMM:  13    -0.413165731478E+03   -0.10748E-05   -0.47298E-07  1997   0.984E-04    0.376E-04
RMM:  14    -0.413165731439E+03    0.38657E-07   -0.20294E-07  1445   0.744E-04
    8 T=    61. E= -.41286689E+03 F= -.41316573E+03 E0= -.41314330E+03  EK= 0.29884E+00 SP= 0.00E+00 SK= 0.00E+00
       N       E                     dE             d eps       ncg     rms          rms(c)
RMM:   1    -0.413174838009E+03   -0.91065E-02   -0.64858E+00  4284   0.534E-01    0.915E-01
RMM:   2    -0.413172692073E+03    0.21459E-02   -0.83560E-02  4183   0.771E-02    0.664E-01
RMM:   3    -0.413169791303E+03    0.29008E-02   -0.46030E-02  5051   0.814E-02    0.305E-01
RMM:   4    -0.413189437534E+03   -0.19646E-01   -0.31747E-02  5096   0.152E-01    0.645E-01
RMM:   5    -0.413165767057E+03    0.23670E-01   -0.11141E-02  4710   0.107E-01    0.476E-02
RMM:   6    -0.413165905749E+03   -0.13869E-03   -0.19307E-03  5626   0.432E-02    0.323E-02
RMM:   7    -0.413165903079E+03    0.26700E-05   -0.34082E-04  5611   0.172E-02    0.211E-02
RMM:   8    -0.413165898268E+03    0.48116E-05   -0.45770E-05  5058   0.790E-03    0.817E-03
RMM:   9    -0.413165897884E+03    0.38357E-06   -0.83294E-06  3285   0.340E-03
    9 T=    61. E= -.41286680E+03 F= -.41316590E+03 E0= -.41314349E+03  EK= 0.29910E+00 SP= 0.00E+00 SK= 0.00E+00
       N       E                     dE             d eps       ncg     rms          rms(c)
RMM:   1    -0.413174960825E+03   -0.90626E-02   -0.64427E+00  4296   0.533E-01    0.918E-01
RMM:   2    -0.413172466765E+03    0.24941E-02   -0.83939E-02  4294   0.763E-02    0.660E-01
RMM:   3    -0.413176139919E+03   -0.36732E-02   -0.47920E-02  5134   0.108E-01    0.441E-01
RMM:   4    -0.413179638572E+03   -0.34987E-02   -0.30593E-02  5044   0.153E-01    0.499E-01
RMM:   5    -0.413165951776E+03    0.13687E-01   -0.59520E-03  4578   0.835E-02    0.482E-02
RMM:   6    -0.413165959100E+03   -0.73243E-05   -0.10500E-03  5359   0.317E-02    0.304E-02
RMM:   7    -0.413165956885E+03    0.22152E-05   -0.20994E-04  5511   0.144E-02    0.178E-02
RMM:   8    -0.413165953533E+03    0.33525E-05   -0.32503E-05  4807   0.710E-03    0.612E-03
RMM:   9    -0.413165951373E+03    0.21593E-05   -0.44373E-06  2791   0.263E-03    0.324E-03
RMM:  10    -0.413165949769E+03    0.16045E-05   -0.11824E-06  2504   0.174E-03    0.192E-03
RMM:  11    -0.413165947919E+03    0.18497E-05   -0.77391E-07  2393   0.131E-03    0.927E-04
RMM:  12    -0.413165945263E+03    0.26566E-05   -0.64202E-07  2332   0.115E-03    0.462E-04
RMM:  13    -0.413165943282E+03    0.19808E-05   -0.31903E-07  1789   0.860E-04    0.304E-04
RMM:  14    -0.413165941181E+03    0.21003E-05   -0.22075E-07  1413   0.743E-04    0.178E-04
RMM:  15    -0.413165937351E+03    0.38301E-05   -0.35342E-07  1866   0.832E-04    0.331E-04
RMM:  16    -0.413165933529E+03    0.38220E-05   -0.27869E-07  1394   0.707E-04    0.163E-04
RMM:  17    -0.413165932597E+03    0.93271E-06   -0.85468E-08   924   0.558E-04
   10 T=    61. E= -.41286661E+03 F= -.41316593E+03 E0= -.41314355E+03  EK= 0.29933E+00 SP= 0.00E+00 SK= 0.00E+00
       N       E                     dE             d eps       ncg     rms          rms(c)
RMM:   1    -0.413175270293E+03   -0.93368E-02   -0.64648E+00  4292   0.541E-01    0.901E-01
RMM:   2    -0.413173442062E+03    0.18282E-02   -0.83457E-02  4223   0.768E-02    0.659E-01
RMM:   3    -0.413170517279E+03    0.29248E-02   -0.46644E-02  5059   0.780E-02    0.307E-01
RMM:   4    -0.413190346308E+03   -0.19829E-01   -0.31565E-02  5097   0.151E-01    0.646E-01
RMM:   5    -0.413166568036E+03    0.23778E-01   -0.11369E-02  4709   0.107E-01    0.468E-02
RMM:   6    -0.413166724803E+03   -0.15677E-03   -0.19660E-03  5640   0.432E-02    0.322E-02
RMM:   7    -0.413166724542E+03    0.26124E-06   -0.34428E-04  5560   0.175E-02    0.212E-02
RMM:   8    -0.413166724769E+03   -0.22713E-06   -0.46143E-05  5056   0.790E-03    0.832E-03
RMM:   9    -0.413166725162E+03   -0.39292E-06   -0.85532E-06  3317   0.341E-03
   11 T=    61. E= -.41286690E+03 F= -.41316673E+03 E0= -.41314437E+03  EK= 0.29983E+00 SP= 0.00E+00 SK= 0.00E+00
       N       E                     dE             d eps       ncg     rms          rms(c)
RMM:   1    -0.413175397019E+03   -0.86722E-02   -0.65145E+00  4297   0.544E-01    0.912E-01
RMM:   2    -0.413173374654E+03    0.20224E-02   -0.84036E-02  4282   0.778E-02    0.665E-01
RMM:   3    -0.413179109079E+03   -0.57344E-02   -0.52435E-02  5153   0.115E-01    0.492E-01
RMM:   4    -0.413178875750E+03    0.23333E-03   -0.30866E-02  5031   0.155E-01    0.482E-01
RMM:   5    -0.413166675154E+03    0.12201E-01   -0.59864E-03  4531   0.807E-02    0.467E-02
RMM:   6    -0.413166681929E+03   -0.67746E-05   -0.90257E-04  5259   0.294E-02    0.291E-02
RMM:   7    -0.413166692849E+03   -0.10920E-04   -0.18952E-04  5375   0.136E-02    0.165E-02
RMM:   8    -0.413166692195E+03    0.65402E-06   -0.29266E-05  4722   0.661E-03    0.535E-03
RMM:   9    -0.413166692955E+03   -0.75964E-06   -0.34506E-06  2707   0.242E-03
   12 T=    61. E= -.41286662E+03 F= -.41316669E+03 E0= -.41314436E+03  EK= 0.30008E+00 SP= 0.00E+00 SK= 0.00E+00
       N       E                     dE             d eps       ncg     rms          rms(c)
RMM:   1    -0.413176442228E+03   -0.97500E-02   -0.64709E+00  4297   0.545E-01    0.923E-01
RMM:   2    -0.413173685599E+03    0.27566E-02   -0.84168E-02  4254   0.734E-02    0.662E-01
RMM:   3    -0.413173278100E+03    0.40750E-03   -0.45204E-02  5127   0.875E-02    0.349E-01
RMM:   4    -0.413186739339E+03   -0.13461E-01   -0.31930E-02  5076   0.154E-01    0.587E-01
RMM:   5    -0.413167228717E+03    0.19511E-01   -0.85714E-03  4669   0.980E-02    0.484E-02
RMM:   6    -0.413167306618E+03   -0.77902E-04   -0.15594E-03  5562   0.385E-02    0.319E-02
RMM:   7    -0.413167301094E+03    0.55244E-05   -0.28857E-04  5607   0.164E-02    0.203E-02
RMM:   8    -0.413167294236E+03    0.68576E-05   -0.40410E-05  4953   0.769E-03    0.743E-03
RMM:   9    -0.413167290928E+03    0.33077E-05   -0.65946E-06  3046   0.307E-03    0.420E-03
RMM:  10    -0.413167288242E+03    0.26860E-05   -0.15118E-06  2521   0.199E-03    0.253E-03
RMM:  11    -0.413167285780E+03    0.24620E-05   -0.80340E-07  2464   0.143E-03    0.127E-03
RMM:  12    -0.413167281395E+03    0.43859E-05   -0.85962E-07  2484   0.136E-03    0.651E-04
RMM:  13    -0.413167278173E+03    0.32215E-05   -0.42128E-07  2073   0.101E-03    0.419E-04
RMM:  14    -0.413167276682E+03    0.14911E-05   -0.19279E-07  1503   0.757E-04    0.259E-04
RMM:  15    -0.413167271972E+03    0.47097E-05   -0.29269E-07  1912   0.839E-04    0.397E-04
RMM:  16    -0.413167266674E+03    0.52984E-05   -0.27623E-07  1412   0.729E-04    0.294E-04
RMM:  17    -0.413167265618E+03    0.10555E-05   -0.77676E-08   930   0.566E-04    0.198E-04
RMM:  18    -0.413167263422E+03    0.21962E-05   -0.84842E-08  1125   0.605E-04    0.408E-05
RMM:  19    -0.413167262717E+03    0.70533E-06   -0.41956E-08   890   0.547E-04
   13 T=    61. E= -.41286676E+03 F= -.41316726E+03 E0= -.41314496E+03  EK= 0.30050E+00 SP= 0.00E+00 SK= 0.00E+00
       N       E                     dE             d eps       ncg     rms          rms(c)
RMM:   1    -0.413176509675E+03   -0.92463E-02   -0.64557E+00  4293   0.551E-01    0.903E-01
RMM:   2    -0.413174562650E+03    0.19470E-02   -0.83372E-02  4244   0.730E-02    0.658E-01
RMM:   3    -0.413171825490E+03    0.27372E-02   -0.45838E-02  5068   0.769E-02    0.305E-01
RMM:   4    -0.413191624460E+03   -0.19799E-01   -0.32094E-02  5089   0.152E-01    0.646E-01
RMM:   5    -0.413167832840E+03    0.23792E-01   -0.11212E-02  4703   0.108E-01    0.471E-02
RMM:   6    -0.413167982461E+03   -0.14962E-03   -0.19613E-03  5628   0.430E-02    0.325E-02
RMM:   7    -0.413167983698E+03   -0.12374E-05   -0.34310E-04  5529   0.178E-02    0.213E-02
RMM:   8    -0.413167976919E+03    0.67791E-05   -0.46523E-05  5059   0.807E-03    0.842E-03
RMM:   9    -0.413167975683E+03    0.12363E-05   -0.88199E-06  3324   0.346E-03    0.520E-03
RMM:  10    -0.413167976612E+03   -0.92945E-06   -0.15977E-06  2526   0.208E-03
   14 T=    61. E= -.41286697E+03 F= -.41316798E+03 E0= -.41314571E+03  EK= 0.30100E+00 SP= 0.00E+00 SK= 0.00E+00
       N       E                     dE             d eps       ncg     rms          rms(c)
RMM:   1    -0.413176689743E+03   -0.87141E-02   -0.65443E+00  4298   0.558E-01    0.910E-01
RMM:   2    -0.413174886135E+03    0.18036E-02   -0.84252E-02  4293   0.749E-02    0.666E-01
RMM:   3    -0.413176761819E+03   -0.18757E-02   -0.51011E-02  5119   0.103E-01    0.428E-01
RMM:   4    -0.413183807506E+03   -0.70457E-02   -0.31104E-02  5051   0.153E-01    0.542E-01
RMM:   5    -0.413167924786E+03    0.15883E-01   -0.76193E-03  4592   0.901E-02    0.470E-02
RMM:   6    -0.413167977997E+03   -0.53212E-04   -0.12675E-03  5416   0.341E-02    0.296E-02
RMM:   7    -0.413167980838E+03   -0.28406E-05   -0.23718E-04  5473   0.151E-02    0.181E-02
RMM:   8    -0.413167979335E+03    0.15028E-05   -0.33659E-05  4817   0.708E-03    0.620E-03
RMM:   9    -0.413167979770E+03   -0.43484E-06   -0.48320E-06  2857   0.271E-03
   15 T=    61. E= -.41286662E+03 F= -.41316798E+03 E0= -.41314575E+03  EK= 0.30136E+00 SP= 0.00E+00 SK= 0.00E+00
       N       E                     dE             d eps       ncg     rms          rms(c)
RMM:   1    -0.413178166756E+03   -0.10187E-01   -0.64986E+00  4303   0.556E-01    0.925E-01
RMM:   2    -0.413175732513E+03    0.24342E-02   -0.84564E-02  4268   0.788E-02    0.665E-01
RMM:   3    -0.413176235494E+03   -0.50298E-03   -0.46442E-02  5105   0.966E-02    0.379E-01
RMM:   4    -0.413186646917E+03   -0.10411E-01   -0.31513E-02  5063   0.153E-01    0.561E-01
RMM:   5    -0.413168989099E+03    0.17658E-01   -0.77348E-03  4637   0.930E-02    0.482E-02
RMM:   6    -0.413169051698E+03   -0.62600E-04   -0.14124E-03  5511   0.363E-02    0.314E-02
RMM:   7    -0.413169053263E+03   -0.15642E-05   -0.26166E-04  5554   0.158E-02    0.194E-02
RMM:   8    -0.413169046875E+03    0.63875E-05   -0.37770E-05  4917   0.733E-03    0.694E-03
RMM:   9    -0.413169043458E+03    0.34171E-05   -0.56488E-06  2950   0.290E-03    0.387E-03
RMM:  10    -0.413169040505E+03    0.29528E-05   -0.14277E-06  2519   0.194E-03    0.234E-03
RMM:  11    -0.413169037755E+03    0.27504E-05   -0.76605E-07  2448   0.139E-03    0.116E-03
RMM:  12    -0.413169032999E+03    0.47556E-05   -0.77735E-07  2469   0.129E-03    0.605E-04
RMM:  13    -0.413169029119E+03    0.38797E-05   -0.38101E-07  1968   0.960E-04    0.375E-04
RMM:  14    -0.413169027233E+03    0.18866E-05   -0.17444E-07  1419   0.728E-04    0.226E-04
RMM:  15    -0.413169021023E+03    0.62096E-05   -0.29794E-07  1892   0.839E-04    0.405E-04
RMM:  16    -0.413169015734E+03    0.52897E-05   -0.19287E-07  1250   0.665E-04    0.273E-04
RMM:  17    -0.413169014671E+03    0.10627E-05   -0.68256E-08   894   0.553E-04    0.187E-04
RMM:  18    -0.413169012302E+03    0.23692E-05   -0.67311E-08   995   0.585E-04    0.548E-05
RMM:  19    -0.413169011358E+03    0.94324E-06   -0.42351E-08   936   0.568E-04
   16 T=    62. E= -.41286693E+03 F= -.41316901E+03 E0= -.41314681E+03  EK= 0.30208E+00 SP= 0.00E+00 SK= 0.00E+00
       N       E                     dE             d eps       ncg     rms          rms(c)
RMM:   1    -0.413179306767E+03   -0.10294E-01   -0.64770E+00  4298   0.580E-01    0.907E-01
RMM:   2    -0.413176268018E+03    0.30387E-02   -0.87346E-02  4244   0.826E-02    0.660E-01
RMM:   3    -0.413173200530E+03    0.30675E-02   -0.44388E-02  5030   0.806E-02    0.292E-01
RMM:   4    -0.413194743297E+03   -0.21543E-01   -0.33535E-02  5085   0.156E-01    0.664E-01
RMM:   5    -0.413169350518E+03    0.25393E-01   -0.11801E-02  4720   0.111E-01    0.477E-02
RMM:   6    -0.413169501466E+03   -0.15095E-03   -0.20691E-03  5655   0.443E-02    0.332E-02
RMM:   7    -0.413169493833E+03    0.76326E-05   -0.35713E-04  5568   0.181E-02    0.218E-02
RMM:   8    -0.413169488063E+03    0.57696E-05   -0.49266E-05  5067   0.833E-03    0.872E-03
RMM:   9    -0.413169485682E+03    0.23815E-05   -0.95412E-06  3414   0.363E-03    0.535E-03
RMM:  10    -0.413169485116E+03    0.56585E-06   -0.17214E-06  2533   0.216E-03
   17 T=    62. E= -.41286683E+03 F= -.41316949E+03 E0= -.41314733E+03  EK= 0.30266E+00 SP= 0.00E+00 SK= 0.00E+00
       N       E                     dE             d eps       ncg     rms          rms(c)
RMM:   1    -0.413178845921E+03   -0.93602E-02   -0.65707E+00  4300   0.576E-01    0.909E-01
RMM:   2    -0.413176987569E+03    0.18584E-02   -0.85754E-02  4285   0.812E-02    0.667E-01
RMM:   3    -0.413179037207E+03   -0.20496E-02   -0.51435E-02  5113   0.105E-01    0.433E-01
RMM:   4    -0.413185974079E+03   -0.69369E-02   -0.31513E-02  5045   0.154E-01    0.545E-01
RMM:   5    -0.413169936301E+03    0.16038E-01   -0.77169E-03  4590   0.902E-02    0.469E-02
RMM:   6    -0.413169995909E+03   -0.59608E-04   -0.12849E-03  5442   0.340E-02    0.296E-02
RMM:   7    -0.413169993809E+03    0.20996E-05   -0.23688E-04  5475   0.149E-02    0.181E-02
RMM:   8    -0.413169992868E+03    0.94128E-06   -0.34116E-05  4797   0.721E-03    0.617E-03
RMM:   9    -0.413169992694E+03    0.17371E-06   -0.48604E-06  2854   0.274E-03
   18 T=    62. E= -.41286671E+03 F= -.41316999E+03 E0= -.41314787E+03  EK= 0.30329E+00 SP= 0.00E+00 SK= 0.00E+00
       N       E                     dE             d eps       ncg     rms          rms(c)
RMM:   1    -0.413180503220E+03   -0.10510E-01   -0.65344E+00  4298   0.574E-01    0.926E-01
RMM:   2    -0.413177836890E+03    0.26663E-02   -0.85267E-02  4290   0.777E-02    0.667E-01
RMM:   3    -0.413178561726E+03   -0.72484E-03   -0.47144E-02  5121   0.950E-02    0.383E-01
RMM:   4    -0.413189073945E+03   -0.10512E-01   -0.31944E-02  5062   0.154E-01    0.565E-01
RMM:   5    -0.413171190754E+03    0.17883E-01   -0.78740E-03  4631   0.937E-02    0.482E-02
RMM:   6    -0.413171257747E+03   -0.66993E-04   -0.14209E-03  5527   0.363E-02    0.312E-02
RMM:   7    -0.413171250108E+03    0.76387E-05   -0.26347E-04  5567   0.156E-02    0.196E-02
RMM:   8    -0.413171243828E+03    0.62804E-05   -0.37844E-05  4906   0.742E-03    0.696E-03
RMM:   9    -0.413171240524E+03    0.33044E-05   -0.56459E-06  2945   0.295E-03    0.386E-03
RMM:  10    -0.413171237565E+03    0.29585E-05   -0.14009E-06  2520   0.192E-03    0.232E-03
RMM:  11    -0.413171234736E+03    0.28289E-05   -0.75979E-07  2445   0.138E-03    0.117E-03
RMM:  12    -0.413171229788E+03    0.49485E-05   -0.77277E-07  2467   0.128E-03    0.607E-04
RMM:  13    -0.413171225868E+03    0.39200E-05   -0.35949E-07  1944   0.942E-04    0.373E-04
RMM:  14    -0.413171223948E+03    0.19200E-05   -0.17031E-07  1403   0.721E-04    0.227E-04
RMM:  15    -0.413171217282E+03    0.66659E-05   -0.26125E-07  1759   0.805E-04    0.386E-04
RMM:  16    -0.413171211716E+03    0.55656E-05   -0.16708E-07  1227   0.657E-04    0.270E-04
RMM:  17    -0.413171210432E+03    0.12842E-05   -0.66558E-08   903   0.554E-04    0.186E-04
RMM:  18    -0.413171207865E+03    0.25674E-05   -0.59773E-08   976   0.577E-04    0.680E-05
RMM:  19    -0.413171206527E+03    0.13379E-05   -0.41307E-08   955   0.569E-04    0.630E-05
RMM:  20    -0.413171206423E+03    0.10361E-06   -0.13360E-08   663   0.523E-04
   19 T=    62. E= -.41286705E+03 F= -.41317121E+03 E0= -.41314913E+03  EK= 0.30416E+00 SP= 0.00E+00 SK= 0.00E+00
       N       E                     dE             d eps       ncg     rms          rms(c)
RMM:   1    -0.413180543549E+03   -0.93370E-02   -0.64961E+00  4295   0.573E-01    0.916E-01
RMM:   2    -0.413178156332E+03    0.23872E-02   -0.84548E-02  4266   0.752E-02    0.662E-01
RMM:   3    -0.413175333868E+03    0.28225E-02   -0.44648E-02  5071   0.756E-02    0.292E-01
RMM:   4    -0.413196063036E+03   -0.20729E-01   -0.32926E-02  5086   0.154E-01    0.654E-01
RMM:   5    -0.413171454911E+03    0.24608E-01   -0.11425E-02  4713   0.109E-01    0.477E-02
RMM:   6    -0.413171597540E+03   -0.14263E-03   -0.20378E-03  5646   0.438E-02    0.334E-02
RMM:   7    -0.413171592505E+03    0.50347E-05   -0.35683E-04  5549   0.183E-02    0.222E-02
RMM:   8    -0.413171587208E+03    0.52966E-05   -0.50073E-05  5082   0.837E-03    0.900E-03
RMM:   9    -0.413171583896E+03    0.33122E-05   -0.96747E-06  3409   0.365E-03    0.546E-03
RMM:  10    -0.413171582120E+03    0.17763E-05   -0.17332E-06  2538   0.218E-03    0.324E-03
RMM:  11    -0.413171580442E+03    0.16783E-05   -0.88607E-07  2496   0.151E-03    0.174E-03
RMM:  12    -0.413171576994E+03    0.34476E-05   -0.11648E-06  2513   0.160E-03    0.904E-04
RMM:  13    -0.413171574041E+03    0.29528E-05   -0.47370E-07  2237   0.113E-03    0.652E-04
RMM:  14    -0.413171573737E+03    0.30446E-06   -0.20077E-07  1679   0.784E-04
   20 T=    62. E= -.41286679E+03 F= -.41317157E+03 E0= -.41314954E+03  EK= 0.30478E+00 SP= 0.00E+00 SK= 0.00E+00
       N       E                     dE             d eps       ncg     rms          rms(c)
RMM:   1    -0.413181391325E+03   -0.98173E-02   -0.65845E+00  4293   0.581E-01    0.910E-01
RMM:   2    -0.413179596129E+03    0.17952E-02   -0.84898E-02  4266   0.764E-02    0.667E-01
RMM:   3    -0.413176262338E+03    0.33338E-02   -0.48133E-02  5058   0.746E-02    0.307E-01
RMM:   4    -0.413197272394E+03   -0.21010E-01   -0.31929E-02  5092   0.152E-01    0.657E-01
RMM:   5    -0.413172589085E+03    0.24683E-01   -0.11944E-02  4730   0.111E-01    0.465E-02
RMM:   6    -0.413172746083E+03   -0.15700E-03   -0.20648E-03  5692   0.436E-02    0.322E-02
RMM:   7    -0.413172748120E+03   -0.20370E-05   -0.35619E-04  5549   0.183E-02    0.215E-02
RMM:   8    -0.413172744367E+03    0.37524E-05   -0.50046E-05  5012   0.854E-03    0.886E-03
RMM:   9    -0.413172743284E+03    0.10829E-05   -0.99664E-06  3437   0.373E-03    0.559E-03
RMM:  10    -0.413172744528E+03   -0.12435E-05   -0.16965E-06  2534   0.216E-03    0.333E-03
RMM:  11    -0.413172745010E+03   -0.48263E-06   -0.93638E-07  2493   0.154E-03
   21 T=    62. E= -.41286701E+03 F= -.41317275E+03 E0= -.41315076E+03  EK= 0.30574E+00 SP= 0.00E+00 SK= 0.00E+00
       N       E                     dE             d eps       ncg     rms          rms(c)
RMM:   1    -0.413183156034E+03   -0.10412E-01   -0.65819E+00  4297   0.585E-01    0.926E-01
RMM:   2    -0.413180657322E+03    0.24987E-02   -0.85458E-02  4263   0.785E-02    0.671E-01
RMM:   3    -0.413176421447E+03    0.42359E-02   -0.45395E-02  5004   0.696E-02    0.258E-01
RMM:   4    -0.413199437450E+03   -0.23016E-01   -0.30475E-02  5098   0.148E-01    0.666E-01
RMM:   5    -0.413173733219E+03    0.25704E-01   -0.12291E-02  4755   0.112E-01    0.460E-02
RMM:   6    -0.413173897413E+03   -0.16419E-03   -0.21866E-03  5753   0.449E-02    0.326E-02
RMM:   7    -0.413173895246E+03    0.21677E-05   -0.35308E-04  5606   0.188E-02    0.221E-02
RMM:   8    -0.413173886418E+03    0.88272E-05   -0.54061E-05  4899   0.900E-03    0.988E-03
RMM:   9    -0.413173882727E+03    0.36916E-05   -0.12197E-05  3614   0.402E-03    0.652E-03
RMM:  10    -0.413173880574E+03    0.21530E-05   -0.19308E-06  2553   0.230E-03    0.382E-03
RMM:  11    -0.413173878188E+03    0.23861E-05   -0.12048E-06  2507   0.176E-03    0.192E-03
RMM:  12    -0.413173874091E+03    0.40968E-05   -0.14000E-06  2527   0.176E-03    0.105E-03
RMM:  13    -0.413173871369E+03    0.27221E-05   -0.44004E-07  2295   0.116E-03    0.624E-04
RMM:  14    -0.413173870937E+03    0.43151E-06   -0.19615E-07  1641   0.772E-04
   22 T=    62. E= -.41286709E+03 F= -.41317387E+03 E0= -.41315193E+03  EK= 0.30678E+00 SP= 0.00E+00 SK= 0.00E+00
       N       E                     dE             d eps       ncg     rms          rms(c)
RMM:   1    -0.413183847860E+03   -0.99765E-02   -0.65488E+00  4294   0.587E-01    0.925E-01
RMM:   2    -0.413181307851E+03    0.25400E-02   -0.85419E-02  4280   0.793E-02    0.666E-01
RMM:   3    -0.413177530600E+03    0.37773E-02   -0.44135E-02  5008   0.758E-02    0.262E-01
RMM:   4    -0.413200762450E+03   -0.23232E-01   -0.32425E-02  5101   0.153E-01    0.674E-01
RMM:   5    -0.413174456080E+03    0.26306E-01   -0.12317E-02  4751   0.113E-01    0.476E-02
RMM:   6    -0.413174621248E+03   -0.16517E-03   -0.22078E-03  5711   0.455E-02    0.340E-02
RMM:   7    -0.413174612710E+03    0.85376E-05   -0.37869E-04  5557   0.188E-02    0.228E-02
RMM:   8    -0.413174602726E+03    0.99836E-05   -0.53434E-05  5073   0.870E-03    0.968E-03
RMM:   9    -0.413174598178E+03    0.45484E-05   -0.10663E-05  3527   0.380E-03    0.603E-03
RMM:  10    -0.413174594315E+03    0.38634E-05   -0.18879E-06  2552   0.225E-03    0.354E-03
RMM:  11    -0.413174591020E+03    0.32948E-05   -0.99394E-07  2500   0.160E-03    0.189E-03
RMM:  12    -0.413174584838E+03    0.61817E-05   -0.13489E-06  2528   0.172E-03    0.979E-04
RMM:  13    -0.413174580456E+03    0.43817E-05   -0.52554E-07  2307   0.119E-03    0.732E-04
RMM:  14    -0.413174580115E+03    0.34111E-06   -0.21596E-07  1721   0.803E-04
   23 T=    63. E= -.41286680E+03 F= -.41317458E+03 E0= -.41315269E+03  EK= 0.30778E+00 SP= 0.00E+00 SK= 0.00E+00
       N       E                     dE             d eps       ncg     rms          rms(c)
RMM:   1    -0.413185043288E+03   -0.10463E-01   -0.66055E+00  4295   0.593E-01    0.912E-01
RMM:   2    -0.413183254264E+03    0.17890E-02   -0.85734E-02  4287   0.814E-02    0.668E-01
RMM:   3    -0.413179446313E+03    0.38080E-02   -0.47703E-02  4984   0.796E-02    0.290E-01
RMM:   4    -0.413201525004E+03   -0.22079E-01   -0.31361E-02  5095   0.151E-01    0.666E-01
RMM:   5    -0.413176046156E+03    0.25479E-01   -0.12316E-02  4745   0.112E-01    0.462E-02
RMM:   6    -0.413176215798E+03   -0.16964E-03   -0.21507E-03  5751   0.445E-02    0.324E-02
RMM:   7    -0.413176216713E+03   -0.91470E-06   -0.35809E-04  5564   0.183E-02    0.219E-02
RMM:   8    -0.413176210957E+03    0.57564E-05   -0.52725E-05  4963   0.877E-03    0.937E-03
RMM:   9    -0.413176208838E+03    0.21185E-05   -0.10854E-05  3515   0.391E-03    0.597E-03
RMM:  10    -0.413176208683E+03    0.15552E-06   -0.18618E-06  2552   0.225E-03
   24 T=    63. E= -.41286708E+03 F= -.41317621E+03 E0= -.41315436E+03  EK= 0.30913E+00 SP= 0.00E+00 SK= 0.00E+00
       N       E                     dE             d eps       ncg     rms          rms(c)
RMM:   1    -0.413186423464E+03   -0.10215E-01   -0.66496E+00  4300   0.595E-01    0.926E-01
RMM:   2    -0.413184350095E+03    0.20734E-02   -0.86417E-02  4329   0.825E-02    0.674E-01
RMM:   3    -0.413186349888E+03   -0.19998E-02   -0.50889E-02  5094   0.108E-01    0.428E-01
RMM:   4    -0.413193433134E+03   -0.70832E-02   -0.31554E-02  5040   0.155E-01    0.545E-01
RMM:   5    -0.413177161746E+03    0.16271E-01   -0.73871E-03  4592   0.904E-02    0.470E-02
RMM:   6    -0.413177217433E+03   -0.55687E-04   -0.13139E-03  5508   0.342E-02    0.304E-02
RMM:   7    -0.413177217161E+03    0.27188E-06   -0.24465E-04  5442   0.151E-02    0.190E-02
RMM:   8    -0.413177214358E+03    0.28025E-05   -0.34582E-05  4805   0.722E-03    0.653E-03
RMM:   9    -0.413177212389E+03    0.19691E-05   -0.51593E-06  2878   0.283E-03    0.363E-03
RMM:  10    -0.413177210768E+03    0.16215E-05   -0.12164E-06  2505   0.181E-03    0.217E-03
RMM:  11    -0.413177209000E+03    0.17677E-05   -0.67502E-07  2384   0.130E-03    0.109E-03
RMM:  12    -0.413177205600E+03    0.34003E-05   -0.67493E-07  2403   0.120E-03    0.563E-04
RMM:  13    -0.413177202965E+03    0.26344E-05   -0.29714E-07  1816   0.881E-04    0.368E-04
RMM:  14    -0.413177200850E+03    0.21153E-05   -0.15414E-07  1329   0.702E-04    0.212E-04
RMM:  15    -0.413177195753E+03    0.50972E-05   -0.17703E-07  1459   0.729E-04    0.272E-04
RMM:  16    -0.413177190011E+03    0.57422E-05   -0.14742E-07  1171   0.658E-04    0.190E-04
RMM:  17    -0.413177188287E+03    0.17234E-05   -0.59148E-08   928   0.576E-04    0.126E-04
RMM:  18    -0.413177185456E+03    0.28311E-05   -0.50623E-08   989   0.583E-04    0.485E-05
RMM:  19    -0.413177184447E+03    0.10092E-05   -0.24712E-08   798   0.549E-04    0.244E-05
RMM:  20    -0.413177183993E+03    0.45396E-06   -0.13667E-08   699   0.534E-04
   25 T=    63. E= -.41286682E+03 F= -.41317718E+03 E0= -.41315539E+03  EK= 0.31036E+00 SP= 0.00E+00 SK= 0.00E+00
       N       E                     dE             d eps       ncg     rms          rms(c)
RMM:   1    -0.413188339829E+03   -0.11155E-01   -0.66205E+00  4292   0.602E-01    0.935E-01
RMM:   2    -0.413185470611E+03    0.28692E-02   -0.86952E-02  4295   0.818E-02    0.672E-01
RMM:   3    -0.413182142779E+03    0.33278E-02   -0.44794E-02  5014   0.818E-02    0.280E-01
RMM:   4    -0.413204548489E+03   -0.22406E-01   -0.33593E-02  5088   0.156E-01    0.671E-01
RMM:   5    -0.413178519295E+03    0.26029E-01   -0.12018E-02  4735   0.112E-01    0.480E-02
RMM:   6    -0.413178665067E+03   -0.14577E-03   -0.21863E-03  5723   0.450E-02    0.342E-02
RMM:   7    -0.413178656310E+03    0.87572E-05   -0.37449E-04  5552   0.187E-02    0.230E-02
RMM:   8    -0.413178647308E+03    0.90018E-05   -0.53247E-05  5061   0.872E-03    0.961E-03
RMM:   9    -0.413178642794E+03    0.45141E-05   -0.10706E-05  3524   0.384E-03    0.584E-03
RMM:  10    -0.413178639301E+03    0.34931E-05   -0.18792E-06  2552   0.224E-03    0.345E-03
RMM:  11    -0.413178636455E+03    0.28452E-05   -0.95664E-07  2501   0.156E-03    0.188E-03
RMM:  12    -0.413178630918E+03    0.55377E-05   -0.13209E-06  2527   0.170E-03    0.948E-04
RMM:  13    -0.413178626688E+03    0.42297E-05   -0.55432E-07  2307   0.118E-03    0.731E-04
RMM:  14    -0.413178626462E+03    0.22543E-06   -0.21791E-07  1732   0.803E-04
   26 T=    63. E= -.41286685E+03 F= -.41317863E+03 E0= -.41315688E+03  EK= 0.31177E+00 SP= 0.00E+00 SK= 0.00E+00
       N       E                     dE             d eps       ncg     rms          rms(c)
RMM:   1    -0.413191090291E+03   -0.12464E-01   -0.66548E+00  4300   0.619E-01    0.916E-01
RMM:   2    -0.413187498922E+03    0.35914E-02   -0.88063E-02  4288   0.818E-02    0.670E-01
RMM:   3    -0.413183599879E+03    0.38990E-02   -0.46630E-02  5025   0.770E-02    0.282E-01
RMM:   4    -0.413206866886E+03   -0.23267E-01   -0.32708E-02  5102   0.154E-01    0.678E-01
RMM:   5    -0.413180329913E+03    0.26537E-01   -0.12613E-02  4745   0.114E-01    0.469E-02
RMM:   6    -0.413180489021E+03   -0.15911E-03   -0.22339E-03  5761   0.453E-02    0.328E-02
RMM:   7    -0.413180486745E+03    0.22755E-05   -0.36263E-04  5560   0.187E-02    0.224E-02
RMM:   8    -0.413180481468E+03    0.52773E-05   -0.54830E-05  4985   0.878E-03    0.979E-03
RMM:   9    -0.413180478369E+03    0.30989E-05   -0.10925E-05  3593   0.395E-03    0.613E-03
RMM:  10    -0.413180477144E+03    0.12254E-05   -0.18666E-06  2549   0.224E-03    0.364E-03
RMM:  11    -0.413180475596E+03    0.15475E-05   -0.10359E-06  2499   0.163E-03    0.192E-03
RMM:  12    -0.413180472435E+03    0.31614E-05   -0.13457E-06  2515   0.173E-03    0.101E-03
RMM:  13    -0.413180469885E+03    0.25501E-05   -0.46487E-07  2286   0.116E-03    0.696E-04
RMM:  14    -0.413180469520E+03    0.36482E-06   -0.20076E-07  1690   0.784E-04
   27 T=    64. E= -.41286713E+03 F= -.41318047E+03 E0= -.41315877E+03  EK= 0.31334E+00 SP= 0.00E+00 SK= 0.00E+00
       N       E                     dE             d eps       ncg     rms          rms(c)
RMM:   1    -0.413190878050E+03   -0.10408E-01   -0.67306E+00  4295   0.613E-01    0.927E-01
RMM:   2    -0.413188676475E+03    0.22016E-02   -0.88027E-02  4287   0.843E-02    0.679E-01
RMM:   3    -0.413184474428E+03    0.42020E-02   -0.48444E-02  5005   0.752E-02    0.284E-01
RMM:   4    -0.413207579231E+03   -0.23105E-01   -0.31574E-02  5109   0.151E-01    0.673E-01
RMM:   5    -0.413181450767E+03    0.26128E-01   -0.12613E-02  4747   0.114E-01    0.464E-02
RMM:   6    -0.413181606009E+03   -0.15524E-03   -0.22410E-03  5792   0.451E-02    0.322E-02
RMM:   7    -0.413181604771E+03    0.12372E-05   -0.35362E-04  5560   0.185E-02    0.220E-02
RMM:   8    -0.413181599523E+03    0.52488E-05   -0.54985E-05  4956   0.882E-03    0.989E-03
RMM:   9    -0.413181597098E+03    0.24246E-05   -0.10913E-05  3609   0.401E-03    0.629E-03
RMM:  10    -0.413181596498E+03    0.60044E-06   -0.19196E-06  2561   0.228E-03
   28 T=    64. E= -.41286686E+03 F= -.41318160E+03 E0= -.41315995E+03  EK= 0.31474E+00 SP= 0.00E+00 SK= 0.00E+00
       N       E                     dE             d eps       ncg     rms          rms(c)
RMM:   1    -0.413193474842E+03   -0.11878E-01   -0.67002E+00  4296   0.619E-01    0.944E-01
RMM:   2    -0.413190627706E+03    0.28471E-02   -0.88383E-02  4322   0.870E-02    0.678E-01
RMM:   3    -0.413191534289E+03   -0.90658E-03   -0.48318E-02  5106   0.101E-01    0.393E-01
RMM:   4    -0.413201714409E+03   -0.10180E-01   -0.32862E-02  5044   0.157E-01    0.567E-01
RMM:   5    -0.413183562517E+03    0.18152E-01   -0.78142E-03  4633   0.949E-02    0.481E-02
RMM:   6    -0.413183619543E+03   -0.57026E-04   -0.14957E-03  5601   0.369E-02    0.322E-02
RMM:   7    -0.413183614404E+03    0.51390E-05   -0.27327E-04  5432   0.167E-02    0.205E-02
RMM:   8    -0.413183610573E+03    0.38313E-05   -0.40320E-05  4851   0.824E-03    0.745E-03
RMM:   9    -0.413183606068E+03    0.45051E-05   -0.71951E-06  3045   0.327E-03    0.405E-03
RMM:  10    -0.413183601396E+03    0.46718E-05   -0.14969E-06  2536   0.201E-03    0.244E-03
RMM:  11    -0.413183597028E+03    0.43683E-05   -0.81976E-07  2454   0.143E-03    0.125E-03
RMM:  12    -0.413183589812E+03    0.72156E-05   -0.82540E-07  2468   0.133E-03    0.613E-04
RMM:  13    -0.413183585657E+03    0.41549E-05   -0.37014E-07  1977   0.963E-04    0.426E-04
RMM:  14    -0.413183582698E+03    0.29596E-05   -0.18965E-07  1484   0.742E-04    0.261E-04
RMM:  15    -0.413183575477E+03    0.72213E-05   -0.19006E-07  1529   0.748E-04    0.286E-04
RMM:  16    -0.413183568016E+03    0.74609E-05   -0.14336E-07  1161   0.658E-04    0.217E-04
RMM:  17    -0.413183565029E+03    0.29866E-05   -0.72604E-08   999   0.594E-04    0.140E-04
RMM:  18    -0.413183561366E+03    0.36630E-05   -0.62647E-08  1098   0.602E-04    0.522E-05
RMM:  19    -0.413183560432E+03    0.93405E-06   -0.30289E-08   831   0.547E-04
   29 T=    64. E= -.41286704E+03 F= -.41318356E+03 E0= -.41316196E+03  EK= 0.31652E+00 SP= 0.00E+00 SK= 0.00E+00
       N       E                     dE             d eps       ncg     rms          rms(c)
RMM:   1    -0.413194714176E+03   -0.11153E-01   -0.66933E+00  4287   0.632E-01    0.925E-01
RMM:   2    -0.413192703985E+03    0.20102E-02   -0.88260E-02  4275   0.944E-02    0.674E-01
RMM:   3    -0.413187858788E+03    0.48452E-02   -0.46433E-02  4942   0.761E-02    0.256E-01
RMM:   4    -0.413211533576E+03   -0.23675E-01   -0.30616E-02  5114   0.148E-01    0.673E-01
RMM:   5    -0.413185220886E+03    0.26313E-01   -0.12739E-02  4756   0.114E-01    0.461E-02
RMM:   6    -0.413185397274E+03   -0.17639E-03   -0.22718E-03  5822   0.452E-02    0.323E-02
RMM:   7    -0.413185411902E+03   -0.14628E-04   -0.33636E-04  5574   0.186E-02    0.218E-02
RMM:   8    -0.413185410047E+03    0.18549E-05   -0.59812E-05  4915   0.925E-03    0.106E-02
RMM:   9    -0.413185407182E+03    0.28655E-05   -0.12488E-05  3716   0.429E-03    0.677E-03
RMM:  10    -0.413185405937E+03    0.12444E-05   -0.22817E-06  2600   0.249E-03    0.394E-03
RMM:  11    -0.413185404187E+03    0.17505E-05   -0.12953E-06  2516   0.182E-03    0.200E-03
RMM:  12    -0.413185401150E+03    0.30370E-05   -0.14620E-06  2529   0.183E-03    0.110E-03
RMM:  13    -0.413185399420E+03    0.17295E-05   -0.45831E-07  2301   0.118E-03    0.691E-04
RMM:  14    -0.413185398688E+03    0.73227E-06   -0.20771E-07  1718   0.799E-04
   30 T=    65. E= -.41286707E+03 F= -.41318540E+03 E0= -.41316385E+03  EK= 0.31832E+00 SP= 0.00E+00 SK= 0.00E+00
       N       E                     dE             d eps       ncg     rms          rms(c)
RMM:   1    -0.413197721140E+03   -0.12322E-01   -0.68287E+00  4295   0.649E-01    0.929E-01
RMM:   2    -0.413194849687E+03    0.28715E-02   -0.94773E-02  4271   0.974E-02    0.684E-01
RMM:   3    -0.413188905730E+03    0.59440E-02   -0.47986E-02  4787   0.776E-02    0.246E-01
RMM:   4    -0.413208835228E+03   -0.19929E-01   -0.24068E-02  5126   0.133E-01    0.616E-01
RMM:   5    -0.413186856253E+03    0.21979E-01   -0.10761E-02  4788   0.103E-01    0.431E-02
RMM:   6    -0.413186988985E+03   -0.13273E-03   -0.18400E-03  5853   0.406E-02    0.292E-02
RMM:   7    -0.413187002066E+03   -0.13081E-04   -0.23281E-04  5597   0.158E-02    0.173E-02
RMM:   8    -0.413187001791E+03    0.27564E-06   -0.49490E-05  4926   0.767E-03    0.967E-03
RMM:   9    -0.413186998431E+03    0.33599E-05   -0.10314E-05  3692   0.387E-03    0.642E-03
RMM:  10    -0.413186998415E+03    0.15531E-07   -0.17635E-06  2543   0.226E-03
   31 T=    65. E= -.41286683E+03 F= -.41318700E+03 E0= -.41316550E+03  EK= 0.32017E+00 SP= 0.00E+00 SK= 0.00E+00
       N       E                     dE             d eps       ncg     rms          rms(c)
RMM:   1    -0.413199777701E+03   -0.12779E-01   -0.67926E+00  4297   0.649E-01    0.950E-01
RMM:   2    -0.413197124862E+03    0.26528E-02   -0.90592E-02  4295   0.104E-01    0.685E-01
RMM:   3    -0.413194991334E+03    0.21335E-02   -0.47874E-02  5015   0.100E-01    0.333E-01
RMM:   4    -0.413213218199E+03   -0.18227E-01   -0.34421E-02  5064   0.159E-01    0.643E-01
RMM:   5    -0.413189501497E+03    0.23717E-01   -0.10651E-02  4688   0.107E-01    0.484E-02
RMM:   6    -0.413189641989E+03   -0.14049E-03   -0.20458E-03  5733   0.425E-02    0.338E-02
RMM:   7    -0.413189646823E+03   -0.48348E-05   -0.34863E-04  5485   0.183E-02    0.227E-02
RMM:   8    -0.413189642076E+03    0.47475E-05   -0.49879E-05  4998   0.871E-03    0.922E-03
RMM:   9    -0.413189637417E+03    0.46588E-05   -0.99026E-06  3356   0.376E-03    0.523E-03
RMM:  10    -0.413189632730E+03    0.46867E-05   -0.18438E-06  2554   0.223E-03    0.313E-03
RMM:  11    -0.413189628545E+03    0.41858E-05   -0.92809E-07  2495   0.156E-03    0.168E-03
RMM:  12    -0.413189620864E+03    0.76811E-05   -0.10770E-06  2493   0.157E-03    0.807E-04
RMM:  13    -0.413189616967E+03    0.38964E-05   -0.45579E-07  2221   0.111E-03    0.595E-04
RMM:  14    -0.413189614913E+03    0.20541E-05   -0.21303E-07  1701   0.796E-04    0.373E-04
RMM:  15    -0.413189609054E+03    0.58589E-05   -0.16887E-07  1610   0.746E-04    0.253E-04
RMM:  16    -0.413189602098E+03    0.69563E-05   -0.12934E-07  1335   0.669E-04    0.299E-04
RMM:  17    -0.413189596984E+03    0.51136E-05   -0.81680E-08  1062   0.600E-04    0.238E-04
RMM:  18    -0.413189593086E+03    0.38983E-05   -0.63037E-08  1045   0.589E-04    0.566E-05
RMM:  19    -0.413189591475E+03    0.16112E-05   -0.37627E-08   929   0.567E-04    0.562E-05
RMM:  20    -0.413189590998E+03    0.47684E-06   -0.18618E-08   755   0.537E-04
   32 T=    66. E= -.41286718E+03 F= -.41318959E+03 E0= -.41316814E+03  EK= 0.32241E+00 SP= 0.00E+00 SK= 0.00E+00
       N       E                     dE             d eps       ncg     rms          rms(c)
RMM:   1    -0.413201284413E+03   -0.11693E-01   -0.67762E+00  4301   0.661E-01    0.938E-01
RMM:   2    -0.413198823407E+03    0.24610E-02   -0.90740E-02  4275   0.102E-01    0.680E-01
RMM:   3    -0.413193351231E+03    0.54722E-02   -0.46305E-02  4804   0.830E-02    0.230E-01
RMM:   4    -0.413215638431E+03   -0.22287E-01   -0.26634E-02  5121   0.140E-01    0.648E-01
RMM:   5    -0.413191236320E+03    0.24402E-01   -0.11948E-02  4774   0.109E-01    0.449E-02
RMM:   6    -0.413191402456E+03   -0.16614E-03   -0.21074E-03  5828   0.432E-02    0.312E-02
RMM:   7    -0.413191424886E+03   -0.22430E-04   -0.26280E-04  5575   0.170E-02    0.185E-02
RMM:   8    -0.413191424483E+03    0.40291E-06   -0.57018E-05  4962   0.825E-03    0.106E-02
RMM:   9    -0.413191419340E+03    0.51435E-05   -0.12058E-05  3868   0.416E-03    0.692E-03
RMM:  10    -0.413191417154E+03    0.21855E-05   -0.21512E-06  2586   0.248E-03    0.400E-03
RMM:  11    -0.413191414479E+03    0.26754E-05   -0.13992E-06  2524   0.188E-03    0.209E-03
RMM:  12    -0.413191409931E+03    0.45480E-05   -0.14729E-06  2523   0.189E-03    0.117E-03
RMM:  13    -0.413191407780E+03    0.21510E-05   -0.46335E-07  2298   0.120E-03    0.718E-04
RMM:  14    -0.413191406893E+03    0.88643E-06   -0.20945E-07  1751   0.806E-04
   33 T=    66. E= -.41286692E+03 F= -.41319141E+03 E0= -.41317001E+03  EK= 0.32449E+00 SP= 0.00E+00 SK= 0.00E+00
       N       E                     dE             d eps       ncg     rms          rms(c)
RMM:   1    -0.413204511211E+03   -0.13103E-01   -0.69116E+00  4307   0.680E-01    0.935E-01
RMM:   2    -0.413201363546E+03    0.31477E-02   -0.96538E-02  4265   0.107E-01    0.689E-01
RMM:   3    -0.413195481451E+03    0.58821E-02   -0.48941E-02  4678   0.827E-02    0.238E-01
RMM:   4    -0.413210370202E+03   -0.14889E-01   -0.18085E-02  5122   0.115E-01    0.539E-01
RMM:   5    -0.413193684226E+03    0.16686E-01   -0.82716E-03  4796   0.897E-02    0.409E-02
RMM:   6    -0.413193789812E+03   -0.10559E-03   -0.14412E-03  5827   0.357E-02    0.274E-02
RMM:   7    -0.413193807450E+03   -0.17638E-04   -0.16162E-04  5429   0.140E-02    0.140E-02
RMM:   8    -0.413193803873E+03    0.35769E-05   -0.27049E-05  4460   0.559E-03    0.745E-03
RMM:   9    -0.413193805669E+03   -0.17955E-05   -0.86281E-06  3541   0.336E-03    0.580E-03
RMM:  10    -0.413193803999E+03    0.16700E-05   -0.15470E-06  2538   0.215E-03    0.334E-03
RMM:  11    -0.413193802868E+03    0.11307E-05   -0.15203E-06  2535   0.185E-03    0.171E-03
RMM:  12    -0.413193800676E+03    0.21923E-05   -0.11299E-06  2464   0.162E-03    0.119E-03
RMM:  13    -0.413193799421E+03    0.12553E-05   -0.32031E-07  2151   0.102E-03    0.606E-04
RMM:  14    -0.413193798419E+03    0.10016E-05   -0.14471E-07  1445   0.711E-04    0.413E-04
RMM:  15    -0.413193793212E+03    0.52071E-05   -0.25976E-07  2195   0.862E-04    0.639E-04
RMM:  16    -0.413193791417E+03    0.17949E-05   -0.63525E-08  1024   0.581E-04    0.454E-04
RMM:  17    -0.413193787520E+03    0.38969E-05   -0.56463E-08   886   0.565E-04    0.264E-04
RMM:  18    -0.413193784283E+03    0.32372E-05   -0.51775E-08  1015   0.590E-04    0.487E-05
RMM:  19    -0.413193781968E+03    0.23151E-05   -0.40256E-08  1091   0.589E-04    0.184E-04
RMM:  20    -0.413193781605E+03    0.36263E-06   -0.13610E-08   724   0.518E-04
   34 T=    67. E= -.41286698E+03 F= -.41319378E+03 E0= -.41317243E+03  EK= 0.32680E+00 SP= 0.00E+00 SK= 0.00E+00
       N       E                     dE             d eps       ncg     rms          rms(c)
RMM:   1    -0.413207121813E+03   -0.13340E-01   -0.69048E+00  4307   0.690E-01    0.957E-01
RMM:   2    -0.413203638594E+03    0.34832E-02   -0.93238E-02  4268   0.116E-01    0.692E-01
RMM:   3    -0.413197972018E+03    0.56666E-02   -0.47188E-02  4636   0.893E-02    0.213E-01
RMM:   4    -0.413214008460E+03   -0.16036E-01   -0.18557E-02  5125   0.117E-01    0.553E-01
RMM:   5    -0.413196400935E+03    0.17608E-01   -0.87606E-03  4799   0.920E-02    0.419E-02
RMM:   6    -0.413196516138E+03   -0.11520E-03   -0.15099E-03  5809   0.367E-02    0.286E-02
RMM:   7    -0.413196534083E+03   -0.17945E-04   -0.18628E-04  5458   0.150E-02    0.158E-02
RMM:   8    -0.413196526967E+03    0.71161E-05   -0.36688E-05  4771   0.659E-03    0.856E-03
RMM:   9    -0.413196526831E+03    0.13564E-06   -0.98314E-06  3718   0.371E-03
   35 T=    67. E= -.41286728E+03 F= -.41319653E+03 E0= -.41317522E+03  EK= 0.32925E+00 SP= 0.00E+00 SK= 0.00E+00
       N       E                     dE             d eps       ncg     rms          rms(c)
RMM:   1    -0.413209053010E+03   -0.12526E-01   -0.68879E+00  4306   0.716E-01    0.955E-01
RMM:   2    -0.413205575163E+03    0.34778E-02   -0.94040E-02  4294   0.119E-01    0.689E-01
RMM:   3    -0.413203857741E+03    0.17174E-02   -0.48733E-02  4968   0.114E-01    0.331E-01
RMM:   4    -0.413223304841E+03   -0.19447E-01   -0.35187E-02  5059   0.161E-01    0.657E-01
RMM:   5    -0.413198421942E+03    0.24883E-01   -0.11224E-02  4703   0.109E-01    0.489E-02
RMM:   6    -0.413198558392E+03   -0.13645E-03   -0.21351E-03  5725   0.436E-02    0.342E-02
RMM:   7    -0.413198564872E+03   -0.64800E-05   -0.35666E-04  5493   0.183E-02    0.234E-02
RMM:   8    -0.413198562830E+03    0.20414E-05   -0.58303E-05  5050   0.922E-03    0.101E-02
RMM:   9    -0.413198556842E+03    0.59882E-05   -0.10900E-05  3483   0.408E-03    0.527E-03
RMM:  10    -0.413198551628E+03    0.52138E-05   -0.20960E-06  2587   0.236E-03    0.317E-03
RMM:  11    -0.413198546906E+03    0.47224E-05   -0.99205E-07  2497   0.162E-03    0.169E-03
RMM:  12    -0.413198538115E+03    0.87905E-05   -0.11121E-06  2488   0.165E-03    0.850E-04
RMM:  13    -0.413198533461E+03    0.46540E-05   -0.46605E-07  2267   0.114E-03    0.633E-04
RMM:  14    -0.413198531474E+03    0.19870E-05   -0.21629E-07  1714   0.808E-04    0.402E-04
RMM:  15    -0.413198524287E+03    0.71873E-05   -0.18610E-07  1739   0.780E-04    0.341E-04
RMM:  16    -0.413198516152E+03    0.81350E-05   -0.13415E-07  1384   0.679E-04    0.387E-04
RMM:  17    -0.413198509940E+03    0.62125E-05   -0.86164E-08  1097   0.603E-04    0.294E-04
RMM:  18    -0.413198506685E+03    0.32546E-05   -0.61445E-08  1068   0.592E-04    0.710E-05
RMM:  19    -0.413198504491E+03    0.21938E-05   -0.44073E-08  1041   0.582E-04    0.930E-05
RMM:  20    -0.413198504442E+03    0.49742E-07   -0.17682E-08   701   0.519E-04
   36 T=    68. E= -.41286691E+03 F= -.41319850E+03 E0= -.41317724E+03  EK= 0.33159E+00 SP= 0.00E+00 SK= 0.00E+00
       N       E                     dE             d eps       ncg     rms          rms(c)
RMM:   1    -0.413211871141E+03   -0.13367E-01   -0.69915E+00  4311   0.735E-01    0.945E-01
RMM:   2    -0.413209042450E+03    0.28287E-02   -0.96717E-02  4261   0.124E-01    0.694E-01
RMM:   3    -0.413202780506E+03    0.62619E-02   -0.50278E-02  4356   0.958E-02    0.220E-01
RMM:   4    -0.413202045289E+03    0.73522E-03   -0.24865E-03  4936   0.362E-02    0.981E-02
RMM:   5    -0.413201604521E+03    0.44077E-03   -0.32061E-04  4708   0.180E-02    0.385E-02
RMM:   6    -0.413201642496E+03   -0.37975E-04   -0.36662E-04  5263   0.185E-02    0.311E-02
RMM:   7    -0.413201644365E+03   -0.18689E-05   -0.16424E-04  4791   0.142E-02    0.202E-02
RMM:   8    -0.413201636140E+03    0.82257E-05   -0.30173E-05  4500   0.547E-03    0.569E-03
RMM:   9    -0.413201636813E+03   -0.67349E-06   -0.68113E-06  2479   0.233E-03
   37 T=    68. E= -.41286728E+03 F= -.41320164E+03 E0= -.41318042E+03  EK= 0.33436E+00 SP= 0.00E+00 SK= 0.00E+00
       N       E                     dE             d eps       ncg     rms          rms(c)
RMM:   1    -0.413215522846E+03   -0.13887E-01   -0.70466E+00  4310   0.759E-01    0.963E-01
RMM:   2    -0.413211878033E+03    0.36448E-02   -0.97529E-02  4262   0.117E-01    0.700E-01
RMM:   3    -0.413205245243E+03    0.66328E-02   -0.49062E-02  4395   0.877E-02    0.204E-01
RMM:   4    -0.413204684653E+03    0.56059E-03   -0.22521E-03  4965   0.372E-02    0.105E-01
RMM:   5    -0.413204165562E+03    0.51909E-03   -0.35363E-04  4741   0.193E-02    0.399E-02
RMM:   6    -0.413204179890E+03   -0.14328E-04   -0.34920E-04  5238   0.185E-02    0.314E-02
RMM:   7    -0.413204183797E+03   -0.39074E-05   -0.17103E-04  4789   0.144E-02    0.207E-02
RMM:   8    -0.413204173863E+03    0.99344E-05   -0.25469E-05  4598   0.574E-03    0.753E-03
RMM:   9    -0.413204173296E+03    0.56665E-06   -0.10585E-05  2506   0.243E-03    0.334E-03
RMM:  10    -0.413204168960E+03    0.43363E-05   -0.14004E-06  2363   0.150E-03    0.118E-03
RMM:  11    -0.413204165166E+03    0.37942E-05   -0.50915E-07  1711   0.919E-04    0.463E-04
RMM:  12    -0.413204160419E+03    0.47467E-05   -0.22895E-07  1286   0.753E-04    0.284E-04
RMM:  13    -0.413204154361E+03    0.60578E-05   -0.18375E-07  1245   0.710E-04    0.169E-04
RMM:  14    -0.413204145768E+03    0.85936E-05   -0.18001E-07  1384   0.698E-04    0.178E-04
RMM:  15    -0.413204138290E+03    0.74775E-05   -0.97761E-08  1069   0.616E-04    0.934E-05
RMM:  16    -0.413204135779E+03    0.25108E-05   -0.39452E-08   747   0.533E-04    0.580E-05
RMM:  17    -0.413204133991E+03    0.17888E-05   -0.23276E-08   670   0.521E-04    0.289E-05
RMM:  18    -0.413204132297E+03    0.16934E-05   -0.20081E-08   675   0.524E-04    0.233E-05
RMM:  19    -0.413204132017E+03    0.27979E-06   -0.79292E-09   491   0.491E-04
   38 T=    69. E= -.41286713E+03 F= -.41320413E+03 E0= -.41318295E+03  EK= 0.33700E+00 SP= 0.00E+00 SK= 0.00E+00
       N       E                     dE             d eps       ncg     rms          rms(c)
RMM:   1    -0.413219061830E+03   -0.14930E-01   -0.70350E+00  4310   0.802E-01    0.972E-01
RMM:   2    -0.413214444637E+03    0.46172E-02   -0.98460E-02  4260   0.115E-01    0.699E-01
RMM:   3    -0.413208242220E+03    0.62024E-02   -0.47097E-02  4718   0.840E-02    0.198E-01
RMM:   4    -0.413226680596E+03   -0.18438E-01   -0.21280E-02  5127   0.124E-01    0.589E-01
RMM:   5    -0.413206811384E+03    0.19869E-01   -0.98255E-03  4792   0.981E-02    0.448E-02
RMM:   6    -0.413206850177E+03   -0.38793E-04   -0.16986E-03  5747   0.399E-02    0.318E-02
RMM:   7    -0.413206874766E+03   -0.24588E-04   -0.31061E-04  5510   0.176E-02    0.212E-02
RMM:   8    -0.413206861866E+03    0.12900E-04   -0.53880E-05  5086   0.824E-03    0.102E-02
RMM:   9    -0.413206860616E+03    0.12495E-05   -0.10726E-05  3591   0.400E-03    0.571E-03
RMM:  10    -0.413206857321E+03    0.32953E-05   -0.19223E-06  2568   0.231E-03    0.317E-03
RMM:  11    -0.413206853972E+03    0.33494E-05   -0.10607E-06  2498   0.165E-03    0.167E-03
RMM:  12    -0.413206848513E+03    0.54590E-05   -0.99296E-07  2477   0.156E-03    0.101E-03
RMM:  13    -0.413206845624E+03    0.28889E-05   -0.36113E-07  2179   0.105E-03    0.563E-04
RMM:  14    -0.413206844153E+03    0.14703E-05   -0.17346E-07  1529   0.757E-04    0.337E-04
RMM:  15    -0.413206838663E+03    0.54902E-05   -0.13924E-07  1479   0.729E-04    0.200E-04
RMM:  16    -0.413206834619E+03    0.40439E-05   -0.79326E-08  1091   0.637E-04    0.184E-04
RMM:  17    -0.413206829693E+03    0.49259E-05   -0.69915E-08  1153   0.628E-04    0.181E-04
RMM:  18    -0.413206825575E+03    0.41184E-05   -0.49821E-08  1023   0.594E-04    0.828E-05
RMM:  19    -0.413206823847E+03    0.17278E-05   -0.30529E-08   886   0.560E-04    0.261E-05
RMM:  20    -0.413206823437E+03    0.41020E-06   -0.17719E-08   731   0.535E-04
   39 T=    69. E= -.41286702E+03 F= -.41320682E+03 E0= -.41318568E+03  EK= 0.33980E+00 SP= 0.00E+00 SK= 0.00E+00
       N       E                     dE             d eps       ncg     rms          rms(c)
RMM:   1    -0.413222183521E+03   -0.15360E-01   -0.70992E+00  4315   0.825E-01    0.956E-01
RMM:   2    -0.413218036228E+03    0.41473E-02   -0.10024E-01  4258   0.115E-01    0.700E-01
RMM:   3    -0.413212061323E+03    0.59749E-02   -0.50141E-02  4781   0.880E-02    0.238E-01
RMM:   4    -0.413234615860E+03   -0.22555E-01   -0.27112E-02  5116   0.140E-01    0.653E-01
RMM:   5    -0.413210037142E+03    0.24579E-01   -0.11998E-02  4790   0.109E-01    0.462E-02
RMM:   6    -0.413210089237E+03   -0.52095E-04   -0.20701E-03  5783   0.431E-02    0.308E-02
RMM:   7    -0.413210121389E+03   -0.32152E-04   -0.31839E-04  5612   0.170E-02    0.201E-02
RMM:   8    -0.413210114612E+03    0.67773E-05   -0.60389E-05  5072   0.824E-03    0.105E-02
RMM:   9    -0.413210115366E+03   -0.75381E-06   -0.13212E-05  3960   0.438E-03    0.600E-03
RMM:  10    -0.413210114584E+03    0.78186E-06   -0.22709E-06  2622   0.239E-03
   40 T=    70. E= -.41286731E+03 F= -.41321011E+03 E0= -.41318901E+03  EK= 0.34280E+00 SP= 0.00E+00 SK= 0.00E+00
       N       E                     dE             d eps       ncg     rms          rms(c)
RMM:   1    -0.413224933060E+03   -0.14818E-01   -0.71985E+00  4316   0.852E-01    0.968E-01
RMM:   2    -0.413220536896E+03    0.43962E-02   -0.10556E-01  4282   0.117E-01    0.710E-01
RMM:   3    -0.413218238833E+03    0.22981E-02   -0.52444E-02  5023   0.106E-01    0.348E-01
RMM:   4    -0.413240803665E+03   -0.22565E-01   -0.40486E-02  5063   0.173E-01    0.705E-01
RMM:   5    -0.413212335411E+03    0.28468E-01   -0.12726E-02  4710   0.118E-01    0.505E-02
RMM:   6    -0.413212397043E+03   -0.61632E-04   -0.23021E-03  5741   0.452E-02    0.319E-02
RMM:   7    -0.413212414998E+03   -0.17955E-04   -0.33430E-04  5594   0.178E-02    0.220E-02
RMM:   8    -0.413212416034E+03   -0.10362E-05   -0.79068E-05  5090   0.962E-03    0.112E-02
RMM:   9    -0.413212410799E+03    0.52347E-05   -0.12753E-05  3825   0.459E-03    0.521E-03
RMM:  10    -0.413212408123E+03    0.26763E-05   -0.25205E-06  2660   0.238E-03    0.302E-03
RMM:  11    -0.413212405520E+03    0.26032E-05   -0.10992E-06  2503   0.165E-03    0.164E-03
RMM:  12    -0.413212399617E+03    0.59028E-05   -0.11623E-06  2493   0.159E-03    0.858E-04
RMM:  13    -0.413212395791E+03    0.38262E-05   -0.44735E-07  2227   0.110E-03    0.544E-04
RMM:  14    -0.413212394148E+03    0.16429E-05   -0.20423E-07  1607   0.780E-04    0.312E-04
RMM:  15    -0.413212386823E+03    0.73248E-05   -0.20349E-07  1611   0.782E-04    0.330E-04
RMM:  16    -0.413212382155E+03    0.46681E-05   -0.11355E-07  1264   0.658E-04    0.269E-04
RMM:  17    -0.413212377570E+03    0.45848E-05   -0.83080E-08  1170   0.624E-04    0.184E-04
RMM:  18    -0.413212373806E+03    0.37639E-05   -0.60263E-08  1144   0.601E-04    0.829E-05
RMM:  19    -0.413212372163E+03    0.16433E-05   -0.36343E-08   962   0.557E-04    0.464E-05
RMM:  20    -0.413212371266E+03    0.89731E-06   -0.24585E-08   846   0.535E-04
   41 T=    70. E= -.41286702E+03 F= -.41321237E+03 E0= -.41319130E+03  EK= 0.34535E+00 SP= 0.00E+00 SK= 0.00E+00
       N       E                     dE             d eps       ncg     rms          rms(c)
RMM:   1    -0.413229747475E+03   -0.17375E-01   -0.71828E+00  4315   0.924E-01    0.986E-01
RMM:   2    -0.413222987926E+03    0.67595E-02   -0.10640E-01  4294   0.124E-01    0.709E-01
RMM:   3    -0.413217373262E+03    0.56147E-02   -0.46827E-02  4929   0.862E-02    0.224E-01
RMM:   4    -0.413247665477E+03   -0.30292E-01   -0.37229E-02  5111   0.163E-01    0.748E-01
RMM:   5    -0.413215023266E+03    0.32642E-01   -0.15504E-02  4781   0.125E-01    0.506E-02
RMM:   6    -0.413215110229E+03   -0.86963E-04   -0.26406E-03  5781   0.482E-02    0.320E-02
RMM:   7    -0.413215139898E+03   -0.29670E-04   -0.32923E-04  5694   0.171E-02    0.191E-02
RMM:   8    -0.413215136460E+03    0.34379E-05   -0.56739E-05  5035   0.783E-03    0.103E-02
RMM:   9    -0.413215136057E+03    0.40299E-06   -0.19334E-05  4454   0.483E-03    0.667E-03
RMM:  10    -0.413215131453E+03    0.46049E-05   -0.27890E-06  2646   0.268E-03    0.374E-03
RMM:  11    -0.413215128847E+03    0.26058E-05   -0.11875E-06  2498   0.179E-03    0.223E-03
RMM:  12    -0.413215122195E+03    0.66520E-05   -0.13685E-06  2500   0.187E-03    0.123E-03
RMM:  13    -0.413215118120E+03    0.40745E-05   -0.52896E-07  2355   0.127E-03    0.803E-04
RMM:  14    -0.413215116880E+03    0.12408E-05   -0.21886E-07  1851   0.844E-04    0.451E-04
RMM:  15    -0.413215113158E+03    0.37211E-05   -0.12231E-07  1372   0.706E-04    0.193E-04
RMM:  16    -0.413215108059E+03    0.50991E-05   -0.10370E-07  1456   0.689E-04    0.335E-04
RMM:  17    -0.413215105203E+03    0.28563E-05   -0.51600E-08   992   0.583E-04    0.284E-04
RMM:  18    -0.413215099157E+03    0.60459E-05   -0.62142E-08  1222   0.614E-04    0.195E-04
RMM:  19    -0.413215097115E+03    0.20425E-05   -0.31026E-08   898   0.544E-04    0.641E-05
RMM:  20    -0.413215095788E+03    0.13271E-05   -0.23612E-08   861   0.540E-04    0.542E-05
RMM:  21    -0.413215095523E+03    0.26464E-06   -0.12875E-08   707   0.515E-04
   42 T=    71. E= -.41286717E+03 F= -.41321510E+03 E0= -.41319406E+03  EK= 0.34793E+00 SP= 0.00E+00 SK= 0.00E+00
       N       E                     dE             d eps       ncg     rms          rms(c)
RMM:   1    -0.413231903065E+03   -0.16807E-01   -0.71925E+00  4316   0.963E-01    0.968E-01
RMM:   2    -0.413225454549E+03    0.64485E-02   -0.10578E-01  4358   0.122E-01    0.706E-01
RMM:   3    -0.413219960758E+03    0.54938E-02   -0.49250E-02  4938   0.889E-02    0.251E-01
RMM:   4    -0.413249707154E+03   -0.29746E-01   -0.37941E-02  5109   0.165E-01    0.748E-01
RMM:   5    -0.413217150419E+03    0.32557E-01   -0.15439E-02  4774   0.125E-01    0.505E-02
RMM:   6    -0.413217232968E+03   -0.82549E-04   -0.26253E-03  5769   0.479E-02    0.312E-02
RMM:   7    -0.413217263818E+03   -0.30851E-04   -0.32363E-04  5712   0.168E-02    0.186E-02
RMM:   8    -0.413217261809E+03    0.20092E-05   -0.55717E-05  5036   0.774E-03    0.100E-02
RMM:   9    -0.413217262711E+03   -0.90252E-06   -0.19090E-05  4426   0.480E-03    0.647E-03
RMM:  10    -0.413217259660E+03    0.30514E-05   -0.27847E-06  2639   0.267E-03    0.366E-03
RMM:  11    -0.413217258047E+03    0.16129E-05   -0.12050E-06  2500   0.179E-03    0.217E-03
RMM:  12    -0.413217253478E+03    0.45690E-05   -0.14344E-06  2517   0.186E-03    0.121E-03
RMM:  13    -0.413217250368E+03    0.31097E-05   -0.54358E-07  2366   0.126E-03    0.789E-04
RMM:  14    -0.413217249217E+03    0.11519E-05   -0.22007E-07  1814   0.835E-04    0.427E-04
RMM:  15    -0.413217245895E+03    0.33211E-05   -0.12767E-07  1352   0.710E-04    0.179E-04
RMM:  16    -0.413217241719E+03    0.41761E-05   -0.10574E-07  1425   0.688E-04    0.298E-04
RMM:  17    -0.413217239253E+03    0.24661E-05   -0.55699E-08  1004   0.587E-04    0.256E-04
RMM:  18    -0.413217233963E+03    0.52903E-05   -0.65382E-08  1206   0.616E-04    0.154E-04
RMM:  19    -0.413217231979E+03    0.19843E-05   -0.32665E-08   915   0.549E-04    0.561E-05
RMM:  20    -0.413217230896E+03    0.10829E-05   -0.20326E-08   793   0.529E-04    0.339E-05
RMM:  21    -0.413217230337E+03    0.55850E-06   -0.14940E-08   747   0.522E-04
   43 T=    71. E= -.41286719E+03 F= -.41321723E+03 E0= -.41319622E+03  EK= 0.35004E+00 SP= 0.00E+00 SK= 0.00E+00
       N       E                     dE             d eps       ncg     rms          rms(c)
RMM:   1    -0.413234927776E+03   -0.17697E-01   -0.73203E+00  4316   0.104E+00    0.970E-01
RMM:   2    -0.413226858017E+03    0.80698E-02   -0.11291E-01  4380   0.135E-01    0.717E-01
RMM:   3    -0.413221732448E+03    0.51256E-02   -0.50239E-02  4955   0.957E-02    0.278E-01
RMM:   4    -0.413253628507E+03   -0.31896E-01   -0.42958E-02  5098   0.176E-01    0.779E-01
RMM:   5    -0.413218143426E+03    0.35485E-01   -0.16482E-02  4770   0.130E-01    0.518E-02
RMM:   6    -0.413218231797E+03   -0.88371E-04   -0.28315E-03  5778   0.495E-02    0.306E-02
RMM:   7    -0.413218263305E+03   -0.31508E-04   -0.31524E-04  5693   0.165E-02    0.177E-02
RMM:   8    -0.413218267036E+03   -0.37313E-05   -0.42799E-05  4761   0.673E-03    0.793E-03
RMM:   9    -0.413218266592E+03    0.44462E-06   -0.11204E-05  3629   0.376E-03    0.509E-03
RMM:  10    -0.413218266524E+03    0.68136E-07   -0.31581E-06  2732   0.244E-03
   44 T=    72. E= -.41286697E+03 F= -.41321827E+03 E0= -.41319728E+03  EK= 0.35130E+00 SP= 0.00E+00 SK= 0.00E+00
       N       E                     dE             d eps       ncg     rms          rms(c)
RMM:   1    -0.413237286298E+03   -0.19020E-01   -0.72557E+00  4316   0.108E+00    0.991E-01
RMM:   2    -0.413227868899E+03    0.94174E-02   -0.11143E-01  4418   0.137E-01    0.716E-01
RMM:   3    -0.413228738916E+03   -0.87002E-03   -0.51917E-02  5078   0.120E-01    0.411E-01
RMM:   4    -0.413242570944E+03   -0.13832E-01   -0.40756E-02  5048   0.176E-01    0.634E-01
RMM:   5    -0.413219485187E+03    0.23086E-01   -0.91974E-03  4657   0.106E-01    0.505E-02
RMM:   6    -0.413219493569E+03   -0.83816E-05   -0.17459E-03  5661   0.400E-02    0.305E-02
RMM:   7    -0.413219501769E+03   -0.82002E-05   -0.27627E-04  5554   0.167E-02    0.211E-02
RMM:   8    -0.413219499505E+03    0.22638E-05   -0.81108E-05  5057   0.986E-03    0.105E-02
RMM:   9    -0.413219491549E+03    0.79561E-05   -0.10771E-05  3727   0.453E-03    0.448E-03
RMM:  10    -0.413219486602E+03    0.49470E-05   -0.22410E-06  2642   0.223E-03    0.257E-03
RMM:  11    -0.413219481603E+03    0.49985E-05   -0.97720E-07  2478   0.158E-03    0.135E-03
RMM:  12    -0.413219472836E+03    0.87675E-05   -0.79063E-07  2416   0.136E-03    0.664E-04
RMM:  13    -0.413219468221E+03    0.46146E-05   -0.31647E-07  1944   0.949E-04    0.378E-04
RMM:  14    -0.413219464699E+03    0.35227E-05   -0.16652E-07  1350   0.732E-04    0.193E-04
RMM:  15    -0.413219454157E+03    0.10542E-04   -0.17632E-07  1566   0.773E-04    0.246E-04
RMM:  16    -0.413219449888E+03    0.42693E-05   -0.96735E-08  1273   0.647E-04    0.142E-04
RMM:  17    -0.413219444959E+03    0.49289E-05   -0.77634E-08  1277   0.624E-04    0.788E-05
RMM:  18    -0.413219440763E+03    0.41961E-05   -0.56124E-08  1186   0.589E-04    0.604E-05
RMM:  19    -0.413219440095E+03    0.66757E-06   -0.26779E-08   819   0.519E-04
   45 T=    72. E= -.41286743E+03 F= -.41321944E+03 E0= -.41319847E+03  EK= 0.35201E+00 SP= 0.00E+00 SK= 0.00E+00
       N       E                     dE             d eps       ncg     rms          rms(c)
RMM:   1    -0.413236913226E+03   -0.17472E-01   -0.71876E+00  4316   0.116E+00    0.973E-01
RMM:   2    -0.413227134582E+03    0.97786E-02   -0.11224E-01  4415   0.144E-01    0.709E-01
RMM:   3    -0.413224597591E+03    0.25370E-02   -0.48640E-02  5011   0.110E-01    0.329E-01
RMM:   4    -0.413249780078E+03   -0.25182E-01   -0.43495E-02  5074   0.180E-01    0.729E-01
RMM:   5    -0.413218800557E+03    0.30980E-01   -0.13332E-02  4716   0.121E-01    0.525E-02
RMM:   6    -0.413218843906E+03   -0.43349E-04   -0.23499E-03  5729   0.459E-02    0.299E-02
RMM:   7    -0.413218870543E+03   -0.26637E-04   -0.28248E-04  5727   0.162E-02    0.183E-02
RMM:   8    -0.413218879368E+03   -0.88253E-05   -0.81838E-05  5158   0.918E-03    0.116E-02
RMM:   9    -0.413218870137E+03    0.92315E-05   -0.18511E-05  4381   0.521E-03    0.515E-03
RMM:  10    -0.413218867367E+03    0.27694E-05   -0.32751E-06  2719   0.268E-03    0.316E-03
RMM:  11    -0.413218864650E+03    0.27170E-05   -0.12242E-06  2496   0.182E-03    0.170E-03
RMM:  12    -0.413218859102E+03    0.55486E-05   -0.87514E-07  2476   0.152E-03    0.853E-04
RMM:  13    -0.413218854592E+03    0.45093E-05   -0.38944E-07  2166   0.104E-03    0.419E-04
RMM:  14    -0.413218852366E+03    0.22270E-05   -0.18683E-07  1508   0.755E-04    0.215E-04
RMM:  15    -0.413218846558E+03    0.58077E-05   -0.14264E-07  1307   0.713E-04    0.168E-04
RMM:  16    -0.413218843123E+03    0.34346E-05   -0.90956E-08  1171   0.652E-04    0.127E-04
RMM:  17    -0.413218839917E+03    0.32062E-05   -0.71084E-08  1164   0.629E-04    0.795E-05
RMM:  18    -0.413218835806E+03    0.41110E-05   -0.63926E-08  1266   0.624E-04    0.442E-05
RMM:  19    -0.413218833811E+03    0.19955E-05   -0.36846E-08   983   0.558E-04    0.369E-05
RMM:  20    -0.413218833413E+03    0.39750E-06   -0.19282E-08   743   0.518E-04
   46 T=    72. E= -.41286737E+03 F= -.41321883E+03 E0= -.41319788E+03  EK= 0.35147E+00 SP= 0.00E+00 SK= 0.00E+00
       N       E                     dE             d eps       ncg     rms          rms(c)
RMM:   1    -0.413238133943E+03   -0.19300E-01   -0.72629E+00  4316   0.128E+00    0.962E-01
RMM:   2    -0.413226196087E+03    0.11938E-01   -0.11765E-01  4432   0.159E-01    0.715E-01
RMM:   3    -0.413226170009E+03    0.26078E-04   -0.52487E-02  5039   0.125E-01    0.405E-01
RMM:   4    -0.413244841070E+03   -0.18671E-01   -0.44508E-02  5060   0.184E-01    0.691E-01
RMM:   5    -0.413217354538E+03    0.27487E-01   -0.11518E-02  4680   0.116E-01    0.519E-02
RMM:   6    -0.413217359934E+03   -0.53959E-05   -0.20332E-03  5672   0.429E-02    0.279E-02
RMM:   7    -0.413217382375E+03   -0.22441E-04   -0.26891E-04  5708   0.161E-02    0.187E-02
RMM:   8    -0.413217390212E+03   -0.78362E-05   -0.89791E-05  5118   0.986E-03    0.108E-02
RMM:   9    -0.413217384858E+03    0.53537E-05   -0.13676E-05  4042   0.496E-03    0.456E-03
RMM:  10    -0.413217383504E+03    0.13539E-05   -0.30335E-06  2718   0.248E-03    0.279E-03
RMM:  11    -0.413217381621E+03    0.18825E-05   -0.12847E-06  2508   0.175E-03    0.137E-03
RMM:  12    -0.413217378094E+03    0.35277E-05   -0.86549E-07  2432   0.142E-03    0.694E-04
RMM:  13    -0.413217375010E+03    0.30834E-05   -0.39746E-07  1948   0.996E-04    0.326E-04
RMM:  14    -0.413217372650E+03    0.23601E-05   -0.20775E-07  1452   0.770E-04    0.166E-04
RMM:  15    -0.413217367804E+03    0.48458E-05   -0.19340E-07  1446   0.760E-04    0.142E-04
RMM:  16    -0.413217364954E+03    0.28508E-05   -0.12422E-07  1304   0.676E-04    0.107E-04
RMM:  17    -0.413217361260E+03    0.36932E-05   -0.10452E-07  1346   0.656E-04    0.534E-05
RMM:  18    -0.413217357982E+03    0.32783E-05   -0.73403E-08  1157   0.602E-04    0.398E-05
RMM:  19    -0.413217357697E+03    0.28529E-06   -0.33464E-08   815   0.528E-04
   47 T=    71. E= -.41286749E+03 F= -.41321736E+03 E0= -.41319642E+03  EK= 0.34987E+00 SP= 0.00E+00 SK= 0.00E+00
       N       E                     dE             d eps       ncg     rms          rms(c)
RMM:   1    -0.413239864081E+03   -0.22506E-01   -0.71781E+00  4314   0.137E+00    0.978E-01
RMM:   2    -0.413223202993E+03    0.16661E-01   -0.11633E-01  4468   0.168E-01    0.713E-01
RMM:   3    -0.413226675357E+03   -0.34724E-02   -0.51916E-02  5074   0.137E-01    0.460E-01
RMM:   4    -0.413235752716E+03   -0.90774E-02   -0.41553E-02  5029   0.181E-01    0.605E-01
RMM:   5    -0.413214762579E+03    0.20990E-01   -0.80336E-03  4629   0.103E-01    0.515E-02
RMM:   6    -0.413214739778E+03    0.22801E-04   -0.14872E-03  5488   0.374E-02    0.272E-02
RMM:   7    -0.413214765785E+03   -0.26006E-04   -0.20955E-04  5647   0.145E-02    0.173E-02
RMM:   8    -0.413214771716E+03   -0.59311E-05   -0.88058E-05  5148   0.981E-03    0.107E-02
RMM:   9    -0.413214762295E+03    0.94208E-05   -0.12408E-05  3964   0.489E-03    0.420E-03
RMM:  10    -0.413214759261E+03    0.30341E-05   -0.29363E-06  2716   0.244E-03    0.248E-03
RMM:  11    -0.413214755278E+03    0.39827E-05   -0.12206E-06  2495   0.178E-03    0.122E-03
RMM:  12    -0.413214750438E+03    0.48405E-05   -0.61832E-07  2347   0.131E-03    0.659E-04
RMM:  13    -0.413214746487E+03    0.39512E-05   -0.29052E-07  1822   0.916E-04    0.296E-04
RMM:  14    -0.413214742555E+03    0.39318E-05   -0.17038E-07  1404   0.745E-04    0.157E-04
RMM:  15    -0.413214737690E+03    0.48647E-05   -0.13105E-07  1344   0.708E-04    0.114E-04
RMM:  16    -0.413214734057E+03    0.36331E-05   -0.92052E-08  1246   0.653E-04    0.802E-05
RMM:  17    -0.413214727725E+03    0.63322E-05   -0.10032E-07  1510   0.678E-04    0.642E-05
RMM:  18    -0.413214726494E+03    0.12305E-05   -0.38351E-08   886   0.536E-04    0.399E-05
RMM:  19    -0.413214725081E+03    0.14134E-05   -0.32210E-08   914   0.543E-04    0.177E-05
RMM:  20    -0.413214724550E+03    0.53107E-06   -0.20142E-08   759   0.518E-04
   48 T=    71. E= -.41286776E+03 F= -.41321472E+03 E0= -.41319380E+03  EK= 0.34696E+00 SP= 0.00E+00 SK= 0.00E+00
       N       E                     dE             d eps       ncg     rms          rms(c)
RMM:   1    -0.413235479336E+03   -0.20754E-01   -0.70188E+00  4310   0.146E+00    0.965E-01
RMM:   2    -0.413217909617E+03    0.17570E-01   -0.11636E-01  4525   0.180E-01    0.702E-01
RMM:   3    -0.413227597864E+03   -0.96882E-02   -0.53550E-02  5099   0.154E-01    0.559E-01
RMM:   4    -0.413224298768E+03    0.32991E-02   -0.40209E-02  4981   0.181E-01    0.507E-01
RMM:   5    -0.413209630451E+03    0.14668E-01   -0.53248E-03  4586   0.909E-02    0.511E-02
RMM:   6    -0.413209559982E+03    0.70469E-04   -0.85580E-04  5062   0.308E-02    0.262E-02
RMM:   7    -0.413209586274E+03   -0.26292E-04   -0.14253E-04  5581   0.125E-02    0.124E-02
RMM:   8    -0.413209592920E+03   -0.66459E-05   -0.54749E-05  5265   0.771E-03    0.933E-03
RMM:   9    -0.413209583699E+03    0.92210E-05   -0.13087E-05  4064   0.445E-03    0.392E-03
RMM:  10    -0.413209581064E+03    0.26349E-05   -0.21851E-06  2597   0.234E-03    0.232E-03
RMM:  11    -0.413209576091E+03    0.49724E-05   -0.12908E-06  2469   0.185E-03    0.128E-03
RMM:  12    -0.413209572039E+03    0.40522E-05   -0.56095E-07  2342   0.128E-03    0.731E-04
RMM:  13    -0.413209567559E+03    0.44799E-05   -0.27930E-07  1797   0.918E-04    0.345E-04
RMM:  14    -0.413209562734E+03    0.48253E-05   -0.16104E-07  1327   0.734E-04    0.189E-04
RMM:  15    -0.413209557990E+03    0.47444E-05   -0.12018E-07  1240   0.680E-04    0.124E-04
RMM:  16    -0.413209554701E+03    0.32890E-05   -0.85917E-08  1183   0.632E-04    0.968E-05
RMM:  17    -0.413209548827E+03    0.58738E-05   -0.86760E-08  1312   0.642E-04    0.615E-05
RMM:  18    -0.413209547213E+03    0.16139E-05   -0.39294E-08   863   0.530E-04    0.510E-05
RMM:  19    -0.413209545540E+03    0.16726E-05   -0.30998E-08   821   0.522E-04    0.211E-05
RMM:  20    -0.413209544721E+03    0.81965E-06   -0.19087E-08   685   0.499E-04
   49 T=    70. E= -.41286745E+03 F= -.41320954E+03 E0= -.41318862E+03  EK= 0.34210E+00 SP= 0.00E+00 SK= 0.00E+00
       N       E                     dE             d eps       ncg     rms          rms(c)
RMM:   1    -0.413229776922E+03   -0.20231E-01   -0.69471E+00  4310   0.157E+00    0.932E-01
RMM:   2    -0.413212045318E+03    0.17732E-01   -0.12707E-01  4628   0.190E-01    0.700E-01
RMM:   3    -0.413230971137E+03   -0.18926E-01   -0.58058E-02  5120   0.179E-01    0.687E-01
RMM:   4    -0.413215051110E+03    0.15920E-01   -0.44937E-02  4956   0.195E-01    0.453E-01
RMM:   5    -0.413203532655E+03    0.11518E-01   -0.48302E-03  4579   0.910E-02    0.545E-02
RMM:   6    -0.413203418724E+03    0.11393E-03   -0.58779E-04  4806   0.290E-02    0.264E-02
RMM:   7    -0.413203445921E+03   -0.27197E-04   -0.17483E-04  5732   0.148E-02    0.142E-02
RMM:   8    -0.413203440959E+03    0.49613E-05   -0.51891E-05  5173   0.816E-03    0.897E-03
RMM:   9    -0.413203438465E+03    0.24946E-05   -0.12552E-05  4109   0.445E-03    0.385E-03
RMM:  10    -0.413203435610E+03    0.28550E-05   -0.18699E-06  2588   0.226E-03    0.236E-03
RMM:  11    -0.413203431531E+03    0.40786E-05   -0.11387E-06  2494   0.174E-03    0.155E-03
RMM:  12    -0.413203428739E+03    0.27928E-05   -0.49212E-07  2316   0.117E-03    0.802E-04
RMM:  13    -0.413203425060E+03    0.36785E-05   -0.37716E-07  2143   0.973E-04    0.429E-04
RMM:  14    -0.413203421354E+03    0.37060E-05   -0.22010E-07  1511   0.763E-04    0.312E-04
RMM:  15    -0.413203416927E+03    0.44268E-05   -0.18097E-07  1290   0.705E-04    0.138E-04
RMM:  16    -0.413203414489E+03    0.24377E-05   -0.10977E-07  1216   0.636E-04    0.908E-05
RMM:  17    -0.413203410608E+03    0.38818E-05   -0.11774E-07  1376   0.650E-04    0.873E-05
RMM:  18    -0.413203408915E+03    0.16927E-05   -0.58826E-08   978   0.554E-04    0.657E-05
RMM:  19    -0.413203407501E+03    0.14138E-05   -0.39070E-08   873   0.534E-04    0.363E-05
RMM:  20    -0.413203406286E+03    0.12147E-05   -0.34832E-08   893   0.529E-04    0.221E-05
RMM:  21    -0.413203406123E+03    0.16337E-06   -0.13821E-08   661   0.486E-04
   50 T=    68. E= -.41286777E+03 F= -.41320341E+03 E0= -.41318249E+03  EK= 0.33564E+00 SP= 0.00E+00 SK= 0.00E+00
       N       E                     dE             d eps       ncg     rms          rms(c)
RMM:   1    -0.413222089541E+03   -0.18683E-01   -0.67702E+00  4309   0.163E+00    0.935E-01
RMM:   2    -0.413202852086E+03    0.19237E-01   -0.12671E-01  4700   0.195E-01    0.695E-01
RMM:   3    -0.413230855525E+03   -0.28003E-01   -0.62549E-02  5135   0.196E-01    0.788E-01
RMM:   4    -0.413202451199E+03    0.28404E-01   -0.45916E-02  4934   0.201E-01    0.378E-01
RMM:   5    -0.413194555076E+03    0.78961E-02   -0.45049E-03  4779   0.906E-02    0.612E-02
RMM:   6    -0.413194382466E+03    0.17261E-03   -0.45379E-04  4627   0.288E-02    0.291E-02
RMM:   7    -0.413194417290E+03   -0.34824E-04   -0.26902E-04  5637   0.184E-02    0.226E-02
RMM:   8    -0.413194396100E+03    0.21189E-04   -0.69056E-05  5008   0.997E-03    0.104E-02
[...]
RMM:   2    -0.413728690648E+03    0.19199E+00   -0.73145E-01  5327   0.105E+00    0.226E+00
RMM:   3    -0.413899902471E+03   -0.17121E+00   -0.39003E-01  5350   0.649E-01    0.261E+00
RMM:   4    -0.413696555891E+03    0.20335E+00   -0.31742E-01  5176   0.633E-01    0.101E+00
RMM:   5    -0.413669187089E+03    0.27369E-01   -0.96325E-02  4834   0.423E-01    0.274E-01
RMM:   6    -0.413667923272E+03    0.12638E-02   -0.23004E-02  5425   0.184E-01    0.162E-01
RMM:   7    -0.413666939150E+03    0.98412E-03   -0.46733E-03  5095   0.849E-02    0.870E-02
RMM:   8    -0.413666683648E+03    0.25550E-03   -0.10545E-03  5089   0.435E-02    0.495E-02
RMM:   9    -0.413666684769E+03   -0.11212E-05   -0.64505E-04  5650   0.306E-02    0.355E-02
RMM:  10    -0.413666664172E+03    0.20598E-04   -0.11957E-04  5484   0.137E-02    0.209E-02
RMM:  11    -0.413666658800E+03    0.53712E-05   -0.11321E-04  5610   0.122E-02    0.824E-03
RMM:  12    -0.413666659615E+03   -0.81474E-06   -0.14104E-05  4084   0.469E-03    0.483E-03
RMM:  13    -0.413666660229E+03   -0.61344E-06   -0.40036E-06  2892   0.300E-03
  139 T=   176. E= -.41280060E+03 F= -.41366666E+03 E0= -.41364319E+03  EK= 0.86606E+00 SP= 0.00E+00 SK= 0.00E+00
       N       E                     dE             d eps       ncg     rms          rms(c)
RMM:   1    -0.414176008731E+03   -0.50935E+00   -0.25071E+01  4291   0.839E+00    0.164E+00
RMM:   2    -0.413848745465E+03    0.32726E+00   -0.76298E-01  5373   0.103E+00    0.159E+00
RMM:   3    -0.413876133462E+03   -0.27388E-01   -0.18037E-01  5587   0.465E-01    0.162E+00
RMM:   4    -0.413818388092E+03    0.57745E-01   -0.94991E-02  5216   0.361E-01    0.822E-01
RMM:   5    -0.413813382423E+03    0.50057E-02   -0.52717E-02  4549   0.319E-01    0.292E-01
RMM:   6    -0.413811892137E+03    0.14903E-02   -0.19138E-02  5082   0.172E-01    0.170E-01
RMM:   7    -0.413810336034E+03    0.15561E-02   -0.39000E-03  4830   0.839E-02    0.815E-02
RMM:   8    -0.413810234691E+03    0.10134E-03   -0.10296E-03  5587   0.398E-02    0.573E-02
RMM:   9    -0.413810182150E+03    0.52541E-04   -0.49190E-04  4637   0.288E-02    0.242E-02
RMM:  10    -0.413810180349E+03    0.18009E-05   -0.12502E-04  5620   0.138E-02    0.144E-02
RMM:  11    -0.413810180623E+03   -0.27333E-06   -0.43463E-05  5301   0.812E-03    0.802E-03
RMM:  12    -0.413810184448E+03   -0.38253E-05   -0.89508E-06  3521   0.401E-03    0.481E-03
RMM:  13    -0.413810186304E+03   -0.18555E-05   -0.28837E-06  2778   0.259E-03    0.165E-03
RMM:  14    -0.413810188299E+03   -0.19951E-05   -0.11471E-06  2497   0.177E-03    0.922E-04
RMM:  15    -0.413810190053E+03   -0.17542E-05   -0.59245E-07  2317   0.129E-03    0.454E-04
RMM:  16    -0.413810191582E+03   -0.15291E-05   -0.34900E-07  1857   0.942E-04    0.265E-04
RMM:  17    -0.413810192819E+03   -0.12373E-05   -0.23412E-07  1453   0.794E-04    0.140E-04
RMM:  18    -0.413810194078E+03   -0.12586E-05   -0.20148E-07  1470   0.755E-04    0.774E-05
RMM:  19    -0.413810195165E+03   -0.10868E-05   -0.16481E-07  1471   0.703E-04    0.709E-05
RMM:  20    -0.413810195581E+03   -0.41626E-06   -0.93739E-08  1143   0.603E-04
  140 T=   211. E= -.41277469E+03 F= -.41381020E+03 E0= -.41378708E+03  EK= 0.10355E+01 SP= 0.00E+00 SK= 0.00E+00
       N       E                     dE             d eps       ncg     rms          rms(c)
RMM:   1    -0.414109622880E+03   -0.29943E+00   -0.24723E+01  4295   0.866E+00    0.111E+00
RMM:   2    -0.413837869246E+03    0.27175E+00   -0.63800E-01  5390   0.934E-01    0.106E+00
RMM:   3    -0.413849564521E+03   -0.11695E-01   -0.11636E-01  5702   0.371E-01    0.111E+00
RMM:   4    -0.413820831237E+03    0.28733E-01   -0.39203E-02  5136   0.243E-01    0.573E-01
RMM:   5    -0.413820817014E+03    0.14223E-04   -0.38257E-02  4737   0.252E-01    0.306E-01
RMM:   6    -0.413818950654E+03    0.18664E-02   -0.17885E-02  4955   0.166E-01    0.152E-01
RMM:   7    -0.413817882111E+03    0.10685E-02   -0.32500E-03  5057   0.781E-02    0.839E-02
RMM:   8    -0.413817778516E+03    0.10360E-03   -0.99360E-04  5677   0.382E-02    0.551E-02
RMM:   9    -0.413817734580E+03    0.43935E-04   -0.45798E-04  4589   0.269E-02    0.232E-02
RMM:  10    -0.413817738712E+03   -0.41313E-05   -0.12562E-04  5734   0.136E-02    0.145E-02
RMM:  11    -0.413817740056E+03   -0.13441E-05   -0.30429E-05  4891   0.699E-03    0.740E-03
RMM:  12    -0.413817746280E+03   -0.62246E-05   -0.84471E-06  3533   0.424E-03    0.352E-03
RMM:  13    -0.413817748779E+03   -0.24984E-05   -0.22277E-06  2701   0.225E-03    0.154E-03
RMM:  14    -0.413817751439E+03   -0.26605E-05   -0.99362E-07  2497   0.160E-03    0.795E-04
RMM:  15    -0.413817753362E+03   -0.19228E-05   -0.54130E-07  2208   0.116E-03    0.500E-04
RMM:  16    -0.413817755329E+03   -0.19669E-05   -0.41012E-07  1878   0.955E-04    0.256E-04
RMM:  17    -0.413817756696E+03   -0.13669E-05   -0.27835E-07  1585   0.810E-04    0.144E-04
RMM:  18    -0.413817758001E+03   -0.13053E-05   -0.26807E-07  1635   0.781E-04    0.997E-05
RMM:  19    -0.413817758714E+03   -0.71270E-06   -0.16816E-07  1348   0.667E-04
  141 T=   214. E= -.41276763E+03 F= -.41381776E+03 E0= -.41379518E+03  EK= 0.10501E+01 SP= 0.00E+00 SK= 0.00E+00
       N       E                     dE             d eps       ncg     rms          rms(c)
RMM:   1    -0.414011616087E+03   -0.19386E+00   -0.23292E+01  4295   0.860E+00    0.998E-01
RMM:   2    -0.413804019225E+03    0.20760E+00   -0.57392E-01  5377   0.904E-01    0.954E-01
RMM:   3    -0.413813113023E+03   -0.90938E-02   -0.10036E-01  5698   0.344E-01    0.999E-01
RMM:   4    -0.413789116651E+03    0.23996E-01   -0.28200E-02  5115   0.207E-01    0.533E-01
RMM:   5    -0.413790420761E+03   -0.13041E-02   -0.34442E-02  4836   0.232E-01    0.311E-01
RMM:   6    -0.413788393763E+03    0.20270E-02   -0.19581E-02  4992   0.171E-01    0.153E-01
RMM:   7    -0.413787471828E+03    0.92193E-03   -0.31046E-03  5255   0.766E-02    0.927E-02
RMM:   8    -0.413787293304E+03    0.17852E-03   -0.84694E-04  5283   0.361E-02    0.492E-02
RMM:   9    -0.413787265814E+03    0.27490E-04   -0.52527E-04  4593   0.278E-02    0.194E-02
RMM:  10    -0.413787277572E+03   -0.11759E-04   -0.11618E-04  5762   0.125E-02    0.151E-02
RMM:  11    -0.413787278742E+03   -0.11696E-05   -0.29857E-05  4666   0.712E-03    0.752E-03
RMM:  12    -0.413787284263E+03   -0.55210E-05   -0.96231E-06  3782   0.427E-03    0.360E-03
RMM:  13    -0.413787287025E+03   -0.27623E-05   -0.24345E-06  2716   0.236E-03    0.158E-03
RMM:  14    -0.413787289495E+03   -0.24700E-05   -0.11396E-06  2513   0.170E-03    0.858E-04
RMM:  15    -0.413787291412E+03   -0.19174E-05   -0.65864E-07  2382   0.128E-03    0.653E-04
RMM:  16    -0.413787292996E+03   -0.15837E-05   -0.45226E-07  1927   0.993E-04    0.296E-04
RMM:  17    -0.413787294005E+03   -0.10086E-05   -0.31179E-07  1673   0.840E-04    0.156E-04
RMM:  18    -0.413787295021E+03   -0.10167E-05   -0.36014E-07  1886   0.858E-04    0.169E-04
RMM:  19    -0.413787295349E+03   -0.32779E-06   -0.17227E-07  1272   0.652E-04
  142 T=   208. E= -.41276637E+03 F= -.41378730E+03 E0= -.41376506E+03  EK= 0.10209E+01 SP= 0.00E+00 SK= 0.00E+00
       N       E                     dE             d eps       ncg     rms          rms(c)
RMM:   1    -0.413927380961E+03   -0.14009E+00   -0.21660E+01  4295   0.840E+00    0.824E-01
RMM:   2    -0.413759468525E+03    0.16791E+00   -0.50799E-01  5333   0.882E-01    0.850E-01
RMM:   3    -0.413763128051E+03   -0.36595E-02   -0.82945E-02  5727   0.312E-01    0.863E-01
RMM:   4    -0.413746220287E+03    0.16908E-01   -0.19470E-02  5204   0.170E-01    0.520E-01
RMM:   5    -0.413746736762E+03   -0.51647E-03   -0.22457E-02  4785   0.188E-01    0.303E-01
RMM:   6    -0.413746236370E+03    0.50039E-03   -0.20759E-02  4970   0.173E-01    0.157E-01
RMM:   7    -0.413745206912E+03    0.10295E-02   -0.36016E-03  5298   0.805E-02    0.104E-01
RMM:   8    -0.413744948692E+03    0.25822E-03   -0.76197E-04  5166   0.351E-02    0.586E-02
RMM:   9    -0.413744879598E+03    0.69095E-04   -0.69765E-04  4520   0.314E-02    0.165E-02
RMM:  10    -0.413744897246E+03   -0.17648E-04   -0.13607E-04  5784   0.132E-02    0.129E-02
RMM:  11    -0.413744899604E+03   -0.23580E-05   -0.28843E-05  4615   0.697E-03    0.626E-03
RMM:  12    -0.413744904733E+03   -0.51291E-05   -0.67815E-06  3197   0.360E-03    0.312E-03
RMM:  13    -0.413744907576E+03   -0.28435E-05   -0.23824E-06  2723   0.236E-03    0.163E-03
RMM:  14    -0.413744909653E+03   -0.20765E-05   -0.10962E-06  2515   0.171E-03    0.748E-04
RMM:  15    -0.413744911162E+03   -0.15086E-05   -0.64619E-07  2301   0.123E-03    0.689E-04
RMM:  16    -0.413744912157E+03   -0.99566E-06   -0.48594E-07  1966   0.102E-03
  143 T=   199. E= -.41276502E+03 F= -.41374491E+03 E0= -.41372265E+03  EK= 0.97989E+00 SP= 0.00E+00 SK= 0.00E+00
       N       E                     dE             d eps       ncg     rms          rms(c)
RMM:   1    -0.413875198897E+03   -0.13029E+00   -0.20250E+01  4293   0.822E+00    0.760E-01
RMM:   2    -0.413729630049E+03    0.14557E+00   -0.44760E-01  5256   0.855E-01    0.789E-01
RMM:   3    -0.413735198914E+03   -0.55689E-02   -0.76501E-02  5738   0.298E-01    0.823E-01
RMM:   4    -0.413718325799E+03    0.16873E-01   -0.18227E-02  5224   0.163E-01    0.490E-01
RMM:   5    -0.413718721214E+03   -0.39542E-03   -0.16861E-02  4849   0.164E-01    0.291E-01
RMM:   6    -0.413718709370E+03    0.11843E-04   -0.19336E-02  4992   0.166E-01    0.149E-01
RMM:   7    -0.413717714661E+03    0.99471E-03   -0.35993E-03  5272   0.794E-02    0.972E-02
RMM:   8    -0.413717486528E+03    0.22813E-03   -0.67930E-04  5240   0.331E-02    0.572E-02
RMM:   9    -0.413717413526E+03    0.73002E-04   -0.62628E-04  4539   0.299E-02    0.149E-02
RMM:  10    -0.413717428448E+03   -0.14922E-04   -0.12818E-04  5788   0.127E-02    0.117E-02
RMM:  11    -0.413717429305E+03   -0.85722E-06   -0.23006E-05  4582   0.614E-03    0.536E-03
RMM:  12    -0.413717433282E+03   -0.39768E-05   -0.59085E-06  3071   0.335E-03    0.280E-03
RMM:  13    -0.413717435389E+03   -0.21071E-05   -0.19311E-06  2643   0.218E-03    0.158E-03
RMM:  14    -0.413717436554E+03   -0.11652E-05   -0.92899E-07  2488   0.158E-03    0.675E-04
RMM:  15    -0.413717437333E+03   -0.77904E-06   -0.53281E-07  2098   0.112E-03
  144 T=   194. E= -.41276386E+03 F= -.41371744E+03 E0= -.41369520E+03  EK= 0.95358E+00 SP= 0.00E+00 SK= 0.00E+00
       N       E                     dE             d eps       ncg     rms          rms(c)
RMM:   1    -0.413874858479E+03   -0.15742E+00   -0.19621E+01  4287   0.820E+00    0.752E-01
RMM:   2    -0.413739704374E+03    0.13515E+00   -0.42337E-01  5177   0.848E-01    0.771E-01
RMM:   3    -0.413744781801E+03   -0.50774E-02   -0.74835E-02  5734   0.297E-01    0.804E-01
RMM:   4    -0.413727851334E+03    0.16930E-01   -0.18529E-02  5237   0.165E-01    0.462E-01
RMM:   5    -0.413728710459E+03   -0.85913E-03   -0.16059E-02  4948   0.159E-01    0.280E-01
RMM:   6    -0.413728372044E+03    0.33842E-03   -0.16970E-02  4988   0.156E-01    0.139E-01
RMM:   7    -0.413727496889E+03    0.87516E-03   -0.31820E-03  5237   0.752E-02    0.819E-02
RMM:   8    -0.413727334262E+03    0.16263E-03   -0.59502E-04  5357   0.304E-02    0.480E-02
RMM:   9    -0.413727283499E+03    0.50764E-04   -0.45871E-04  4559   0.259E-02    0.134E-02
RMM:  10    -0.413727292122E+03   -0.86230E-05   -0.92839E-05  5694   0.110E-02    0.106E-02
RMM:  11    -0.413727291327E+03    0.79473E-06   -0.17180E-05  4369   0.532E-03    0.475E-03
RMM:  12    -0.413727292762E+03   -0.14348E-05   -0.44261E-06  2929   0.298E-03    0.239E-03
RMM:  13    -0.413727293609E+03   -0.84701E-06   -0.11209E-06  2512   0.183E-03
  145 T=   196. E= -.41276273E+03 F= -.41372729E+03 E0= -.41370527E+03  EK= 0.96456E+00 SP= 0.00E+00 SK= 0.00E+00
       N       E                     dE             d eps       ncg     rms          rms(c)
RMM:   1    -0.413939952899E+03   -0.21266E+00   -0.20208E+01  4279   0.837E+00    0.799E-01
RMM:   2    -0.413805600459E+03    0.13435E+00   -0.44254E-01  5151   0.869E-01    0.808E-01
RMM:   3    -0.413807338629E+03   -0.17382E-02   -0.78298E-02  5703   0.309E-01    0.810E-01
RMM:   4    -0.413790443398E+03    0.16895E-01   -0.20633E-02  5205   0.176E-01    0.453E-01
RMM:   5    -0.413791833504E+03   -0.13901E-02   -0.18870E-02  4996   0.171E-01    0.277E-01
RMM:   6    -0.413790786757E+03    0.10467E-02   -0.15259E-02  4962   0.150E-01    0.134E-01
RMM:   7    -0.413790007040E+03    0.77972E-03   -0.27921E-03  5181   0.717E-02    0.669E-02
RMM:   8    -0.413789920063E+03    0.86977E-04   -0.59698E-04  5646   0.294E-02    0.397E-02
RMM:   9    -0.413789889847E+03    0.30216E-04   -0.31239E-04  4586   0.222E-02    0.136E-02
RMM:  10    -0.413789893454E+03   -0.36065E-05   -0.67470E-05  5605   0.968E-03    0.979E-03
RMM:  11    -0.413789891876E+03    0.15776E-05   -0.13426E-05  4217   0.484E-03    0.489E-03
RMM:  12    -0.413789891836E+03    0.40527E-07   -0.42024E-06  2924   0.294E-03
  146 T=   209. E= -.41276193E+03 F= -.41378989E+03 E0= -.41376811E+03  EK= 0.10280E+01 SP= 0.00E+00 SK= 0.00E+00
       N       E                     dE             d eps       ncg     rms          rms(c)
RMM:   1    -0.414080004101E+03   -0.29011E+00   -0.22400E+01  4265   0.877E+00    0.966E-01
RMM:   2    -0.413930658681E+03    0.14935E+00   -0.54082E-01  5211   0.934E-01    0.930E-01
RMM:   3    -0.413934397335E+03   -0.37387E-02   -0.98595E-02  5628   0.351E-01    0.938E-01
RMM:   4    -0.413910862994E+03    0.23534E-01   -0.31830E-02  5186   0.221E-01    0.482E-01
RMM:   5    -0.413911845244E+03   -0.98225E-03   -0.24814E-02  4945   0.199E-01    0.270E-01
RMM:   6    -0.413910493048E+03    0.13522E-02   -0.15167E-02  4964   0.150E-01    0.140E-01
RMM:   7    -0.413909512511E+03    0.98054E-03   -0.27482E-03  4959   0.728E-02    0.580E-02
RMM:   8    -0.413909506162E+03    0.63484E-05   -0.83018E-04  5894   0.334E-02    0.401E-02
RMM:   9    -0.413909480859E+03    0.25303E-04   -0.24788E-04  4758   0.205E-02    0.175E-02
RMM:  10    -0.413909479430E+03    0.14294E-05   -0.76438E-05  5717   0.105E-02    0.971E-03
RMM:  11    -0.413909478336E+03    0.10943E-05   -0.15359E-05  4414   0.512E-03    0.528E-03
RMM:  12    -0.413909478574E+03   -0.23891E-06   -0.49818E-06  3056   0.321E-03
  147 T=   233. E= -.41276302E+03 F= -.41390948E+03 E0= -.41388793E+03  EK= 0.11465E+01 SP= 0.00E+00 SK= 0.00E+00
       N       E                     dE             d eps       ncg     rms          rms(c)
RMM:   1    -0.414289552806E+03   -0.38007E+00   -0.26430E+01  4264   0.936E+00    0.123E+00
RMM:   2    -0.414084398428E+03    0.20515E+00   -0.73488E-01  5332   0.106E+00    0.116E+00
RMM:   3    -0.414107748611E+03   -0.23350E-01   -0.14114E-01  5598   0.418E-01    0.125E+00
RMM:   4    -0.414063551744E+03    0.44197E-01   -0.57164E-02  5165   0.292E-01    0.604E-01
RMM:   5    -0.414061735140E+03    0.18166E-02   -0.28201E-02  4567   0.230E-01    0.250E-01
RMM:   6    -0.414061282157E+03    0.45298E-03   -0.14464E-02  5029   0.148E-01    0.146E-01
RMM:   7    -0.414060051013E+03    0.12311E-02   -0.33899E-03  4974   0.770E-02    0.629E-02
RMM:   8    -0.414060031372E+03    0.19640E-04   -0.89623E-04  5785   0.359E-02    0.437E-02
RMM:   9    -0.414060009272E+03    0.22100E-04   -0.29128E-04  4731   0.222E-02    0.206E-02
RMM:  10    -0.414060005533E+03    0.37389E-05   -0.89020E-05  5669   0.114E-02    0.109E-02
RMM:  11    -0.414060005537E+03   -0.41691E-08   -0.23371E-05  4820   0.590E-03    0.655E-03
RMM:  12    -0.414060006428E+03   -0.89073E-06   -0.58973E-06  3198   0.356E-03
  148 T=   263. E= -.41277044E+03 F= -.41406001E+03 E0= -.41403860E+03  EK= 0.12896E+01 SP= 0.00E+00 SK= 0.00E+00
       N       E                     dE             d eps       ncg     rms          rms(c)
RMM:   1    -0.414460474481E+03   -0.40047E+00   -0.31469E+01  4265   0.990E+00    0.171E+00
RMM:   2    -0.414141081737E+03    0.31939E+00   -0.10290E+00  5340   0.125E+00    0.160E+00
RMM:   3    -0.414215277732E+03   -0.74196E-01   -0.20496E-01  5596   0.506E-01    0.170E+00
RMM:   4    -0.414139864808E+03    0.75413E-01   -0.10372E-01  5215   0.359E-01    0.991E-01
RMM:   5    -0.414125966268E+03    0.13899E-01   -0.50855E-02  4345   0.319E-01    0.245E-01
RMM:   6    -0.414124119337E+03    0.18469E-02   -0.75662E-03  4673   0.127E-01    0.988E-02
RMM:   7    -0.414124041033E+03    0.78305E-04   -0.21569E-03  5646   0.570E-02    0.709E-02
RMM:   8    -0.414123922871E+03    0.11816E-03   -0.93501E-04  5149   0.358E-02    0.484E-02
RMM:   9    -0.414123864880E+03    0.57991E-04   -0.36800E-04  4602   0.259E-02    0.192E-02
RMM:  10    -0.414123869281E+03   -0.44007E-05   -0.10835E-04  5755   0.124E-02    0.125E-02
RMM:  11    -0.414123868866E+03    0.41494E-06   -0.24068E-05  4771   0.614E-03    0.683E-03
RMM:  12    -0.414123870725E+03   -0.18597E-05   -0.59531E-06  3156   0.338E-03    0.336E-03
RMM:  13    -0.414123874945E+03   -0.42200E-05   -0.20395E-06  2650   0.232E-03    0.174E-03
RMM:  14    -0.414123878681E+03   -0.37354E-05   -0.12640E-06  2549   0.174E-03    0.848E-04
RMM:  15    -0.414123881934E+03   -0.32538E-05   -0.84161E-07  2375   0.129E-03    0.478E-04
RMM:  16    -0.414123885437E+03   -0.35021E-05   -0.82080E-07  2207   0.115E-03    0.378E-04
RMM:  17    -0.414123888955E+03   -0.35184E-05   -0.83032E-07  2122   0.108E-03    0.226E-04
RMM:  18    -0.414123891057E+03   -0.21017E-05   -0.49841E-07  1672   0.858E-04    0.137E-04
RMM:  19    -0.414123893693E+03   -0.26361E-05   -0.55946E-07  1797   0.882E-04    0.103E-04
RMM:  20    -0.414123894621E+03   -0.92849E-06   -0.19647E-07  1210   0.666E-04
  149 T=   270. E= -.41279578E+03 F= -.41412389E+03 E0= -.41410240E+03  EK= 0.13281E+01 SP= 0.00E+00 SK= 0.00E+00
       N       E                     dE             d eps       ncg     rms          rms(c)
RMM:   1    -0.414171259612E+03   -0.47366E-01   -0.31874E+01  4264   0.958E+00    0.298E+00
RMM:   2    -0.413814381472E+03    0.35688E+00   -0.12178E+00  5261   0.138E+00    0.277E+00
RMM:   3    -0.413907637737E+03   -0.93256E-01   -0.27969E-01  5475   0.597E-01    0.226E+00
RMM:   4    -0.414023510562E+03   -0.11587E+00   -0.43799E-01  5194   0.645E-01    0.226E+00
RMM:   5    -0.413805237318E+03    0.21827E+00   -0.19138E-01  4606   0.569E-01    0.504E-01
RMM:   6    -0.413797732711E+03    0.75046E-02   -0.28692E-02  5018   0.226E-01    0.162E-01
RMM:   7    -0.413797332425E+03    0.40029E-03   -0.68177E-03  5505   0.944E-02    0.107E-01
RMM:   8    -0.413797047449E+03    0.28498E-03   -0.20080E-03  5174   0.532E-02    0.583E-02
RMM:   9    -0.413796978755E+03    0.68694E-04   -0.62738E-04  4865   0.333E-02    0.288E-02
RMM:  10    -0.413796980285E+03   -0.15303E-05   -0.19002E-04  5843   0.161E-02    0.167E-02
RMM:  11    -0.413796979265E+03    0.10204E-05   -0.56458E-05  5436   0.867E-03    0.994E-03
RMM:  12    -0.413796980753E+03   -0.14886E-05   -0.13008E-05  4082   0.453E-03    0.536E-03
RMM:  13    -0.413796983506E+03   -0.27530E-05   -0.35894E-06  2840   0.298E-03    0.230E-03
RMM:  14    -0.413796986877E+03   -0.33708E-05   -0.15081E-06  2574   0.202E-03    0.120E-03
RMM:  15    -0.413796989990E+03   -0.31125E-05   -0.84749E-07  2487   0.143E-03    0.594E-04
RMM:  16    -0.413796992965E+03   -0.29758E-05   -0.59693E-07  2117   0.108E-03    0.380E-04
RMM:  17    -0.413796996477E+03   -0.35120E-05   -0.64292E-07  2043   0.103E-03    0.242E-04
RMM:  18    -0.413796999886E+03   -0.34086E-05   -0.61519E-07  1954   0.963E-04    0.173E-04
RMM:  19    -0.413797002021E+03   -0.21353E-05   -0.39812E-07  1549   0.792E-04    0.102E-04
RMM:  20    -0.413797003878E+03   -0.18566E-05   -0.30315E-07  1446   0.741E-04    0.735E-05
RMM:  21    -0.413797004626E+03   -0.74788E-06   -0.15271E-07  1174   0.637E-04
  150 T=   199. E= -.41281761E+03 F= -.41379700E+03 E0= -.41377525E+03  EK= 0.97939E+00 SP= 0.00E+00 SK= 0.00E+00
