       N       E                     dE             d eps       ncg     rms          rms(c)
RMM:   1     0.220137223886E+04    0.22014E+04   -0.52440E+04  2132   0.654E+02
RMM:   2     0.705420060152E+03   -0.14960E+04   -0.16261E+04  2132   0.177E+02
RMM:   3     0.137383812730E+03   -0.56804E+03   -0.65692E+03  2132   0.117E+02
RMM:   4    -0.159359427835E+03   -0.29674E+03   -0.27859E+03  2132   0.936E+01
RMM:   5    -0.287447426754E+03   -0.12809E+03   -0.11455E+03  2132   0.595E+01
RMM:   6    -0.349814234331E+03   -0.62367E+02   -0.55128E+02  2132   0.423E+01
RMM:   7    -0.382746622037E+03   -0.32932E+02   -0.30429E+02  2132   0.293E+01
RMM:   8    -0.404280006846E+03   -0.21533E+02   -0.18448E+02  2132   0.233E+01
RMM:   9    -0.435967161299E+03   -0.31687E+02   -0.30605E+02  6095   0.173E+01
RMM:  10    -0.441298606484E+03   -0.53314E+01   -0.63095E+01  6397   0.538E+00
RMM:  11    -0.442513239134E+03   -0.12146E+01   -0.10901E+01  6222   0.172E+00
RMM:  12    -0.442891736139E+03   -0.37850E+00   -0.27516E+00  6373   0.603E-01    0.134E+02
RMM:  13    -0.425654394419E+03    0.17237E+02   -0.81038E+01  4672   0.119E+01    0.712E+01
RMM:  14    -0.499999896757E+03   -0.74346E+02   -0.54541E+02  5413   0.233E+01    0.307E+01
RMM:  15    -0.413816288096E+03    0.86184E+02   -0.19455E+02  5039   0.163E+01    0.587E+00
RMM:  16    -0.414078229377E+03   -0.26194E+00   -0.39516E+01  6071   0.603E+00    0.430E+00
RMM:  17    -0.413231424611E+03    0.84680E+00   -0.22769E+00  5325   0.180E+00    0.249E+00
RMM:  18    -0.413162798120E+03    0.68626E-01   -0.95834E-01  5942   0.101E+00    0.156E+00
RMM:  19    -0.413169088753E+03   -0.62906E-02   -0.28600E-01  5750   0.563E-01    0.862E-01
RMM:  20    -0.413185296728E+03   -0.16208E-01   -0.20192E-01  5281   0.505E-01    0.560E-01
RMM:  21    -0.413167895917E+03    0.17401E-01   -0.35340E-02  4975   0.237E-01    0.255E-01
RMM:  22    -0.413166528485E+03    0.13674E-02   -0.14023E-02  6127   0.998E-02    0.155E-01
RMM:  23    -0.413164720665E+03    0.18078E-02   -0.56439E-03  5841   0.693E-02    0.816E-02
RMM:  24    -0.413163216416E+03    0.15042E-02   -0.19275E-03  5665   0.429E-02    0.355E-02
RMM:  25    -0.413162951530E+03    0.26489E-03   -0.76214E-04  5698   0.231E-02    0.303E-02
RMM:  26    -0.413163097547E+03   -0.14602E-03   -0.62039E-04  5746   0.262E-02    0.285E-02
RMM:  27    -0.413163531318E+03   -0.43377E-03   -0.18960E-04  4524   0.192E-02    0.175E-02
RMM:  28    -0.413164002911E+03   -0.47159E-03   -0.18908E-04  5087   0.196E-02    0.884E-03
RMM:  29    -0.413164369194E+03   -0.36628E-03   -0.10846E-04  4366   0.150E-02    0.362E-03
RMM:  30    -0.413164557940E+03   -0.18875E-03   -0.77964E-05  4221   0.908E-03    0.347E-03
RMM:  31    -0.413164658862E+03   -0.10092E-03   -0.45383E-05  3077   0.600E-03    0.222E-03
RMM:  32    -0.413164677921E+03   -0.19059E-04   -0.18804E-05  2941   0.273E-03    0.117E-03
RMM:  33    -0.413164685300E+03   -0.73796E-05   -0.82420E-06  2755   0.195E-03    0.609E-04
RMM:  34    -0.413164687464E+03   -0.21637E-05   -0.59538E-06  2542   0.140E-03    0.578E-04
RMM:  35    -0.413164687015E+03    0.44877E-06   -0.19879E-06  1966   0.103E-03
    1 T=    61. E= -.41286688E+03 F= -.41316469E+03 E0= -.41314219E+03  EK= 0.29780E+00 SP= 0.00E+00 SK= 0.00E+00
       N       E                     dE             d eps       ncg     rms          rms(c)
RMM:   1    -0.413165741021E+03   -0.10536E-02   -0.83433E+00  3990   0.589E-01    0.888E-01
RMM:   2    -0.413169307319E+03   -0.35663E-02   -0.10296E-01  3967   0.865E-02    0.654E-01
RMM:   3    -0.413165320070E+03    0.39872E-02   -0.22611E-02  4968   0.590E-02    0.143E-01
RMM:   4    -0.413195744554E+03   -0.30424E-01   -0.35188E-02  5190   0.156E-01    0.731E-01
RMM:   5    -0.413164150355E+03    0.31594E-01   -0.15049E-02  4830   0.123E-01    0.515E-02
RMM:   6    -0.413164366697E+03   -0.21634E-03   -0.27792E-03  5763   0.512E-02    0.355E-02
RMM:   7    -0.413164370598E+03   -0.39007E-05   -0.49068E-04  5707   0.203E-02    0.230E-02
RMM:   8    -0.413164366456E+03    0.41422E-05   -0.68124E-05  5271   0.904E-03    0.104E-02
RMM:   9    -0.413164367717E+03   -0.12615E-05   -0.14351E-05  3916   0.401E-03    0.747E-03
RMM:  10    -0.413164372778E+03   -0.50605E-05   -0.27568E-06  2638   0.237E-03    0.453E-03
RMM:  11    -0.413164376401E+03   -0.36228E-05   -0.13224E-06  2530   0.170E-03    0.269E-03
RMM:  12    -0.413164383413E+03   -0.70125E-05   -0.20460E-06  2594   0.202E-03    0.117E-03
RMM:  13    -0.413164386945E+03   -0.35321E-05   -0.88553E-07  2452   0.143E-03    0.944E-04
RMM:  14    -0.413164386827E+03    0.11859E-06   -0.40043E-07  2017   0.932E-04
    2 T=    61. E= -.41286662E+03 F= -.41316439E+03 E0= -.41314189E+03  EK= 0.29777E+00 SP= 0.00E+00 SK= 0.00E+00
       N       E                     dE             d eps       ncg     rms          rms(c)
RMM:   1    -0.413166737072E+03   -0.23501E-02   -0.83317E+00  4182   0.596E-01    0.905E-01
RMM:   2    -0.413169476209E+03   -0.27391E-02   -0.10256E-01  4050   0.898E-02    0.651E-01
RMM:   3    -0.413165501183E+03    0.39750E-02   -0.20781E-02  4870   0.525E-02    0.111E-01
RMM:   4    -0.413190934359E+03   -0.25433E-01   -0.27242E-02  5165   0.138E-01    0.669E-01
RMM:   5    -0.413164800350E+03    0.26134E-01   -0.12484E-02  4826   0.111E-01    0.491E-02
RMM:   6    -0.413164980803E+03   -0.18045E-03   -0.23329E-03  5780   0.467E-02    0.352E-02
RMM:   7    -0.413164967294E+03    0.13509E-04   -0.42889E-04  5601   0.199E-02    0.221E-02
RMM:   8    -0.413164955916E+03    0.11378E-04   -0.57693E-05  5068   0.875E-03    0.103E-02
RMM:   9    -0.413164954149E+03    0.17672E-05   -0.11841E-05  3720   0.382E-03    0.766E-03
RMM:  10    -0.413164954350E+03   -0.20110E-06   -0.22217E-06  2591   0.239E-03
    3 T=    61. E= -.41286692E+03 F= -.41316495E+03 E0= -.41314246E+03  EK= 0.29803E+00 SP= 0.00E+00 SK= 0.00E+00
       N       E                     dE             d eps       ncg     rms          rms(c)
RMM:   1    -0.413166144791E+03   -0.11906E-02   -0.82730E+00  4219   0.599E-01    0.891E-01
RMM:   2    -0.413168927480E+03   -0.27827E-02   -0.10211E-01  4232   0.859E-02    0.645E-01
RMM:   3    -0.413171858885E+03   -0.29314E-02   -0.25445E-02  5164   0.912E-02    0.360E-01
RMM:   4    -0.413185430144E+03   -0.13571E-01   -0.37288E-02  5100   0.167E-01    0.595E-01
RMM:   5    -0.413164708862E+03    0.20721E-01   -0.75625E-03  4670   0.979E-02    0.586E-02
RMM:   6    -0.413164702140E+03    0.67226E-05   -0.15490E-03  5403   0.400E-02    0.323E-02
RMM:   7    -0.413164717258E+03   -0.15119E-04   -0.32437E-04  5936   0.168E-02    0.192E-02
RMM:   8    -0.413164711932E+03    0.53269E-05   -0.55763E-05  5134   0.882E-03    0.772E-03
RMM:   9    -0.413164710243E+03    0.16884E-05   -0.69460E-06  3259   0.344E-03    0.392E-03
RMM:  10    -0.413164711277E+03   -0.10338E-05   -0.15766E-06  2538   0.211E-03    0.245E-03
RMM:  11    -0.413164712687E+03   -0.14104E-05   -0.12395E-06  2528   0.175E-03    0.137E-03
RMM:  12    -0.413164713479E+03   -0.79168E-06   -0.75704E-07  2480   0.138E-03
    4 T=    61. E= -.41286669E+03 F= -.41316471E+03 E0= -.41314223E+03  EK= 0.29802E+00 SP= 0.00E+00 SK= 0.00E+00
       N       E                     dE             d eps       ncg     rms          rms(c)
RMM:   1    -0.413166087565E+03   -0.13749E-02   -0.83440E+00  4235   0.602E-01    0.886E-01
RMM:   2    -0.413169376672E+03   -0.32891E-02   -0.10329E-01  4005   0.834E-02    0.653E-01
RMM:   3    -0.413165837212E+03    0.35395E-02   -0.22499E-02  5009   0.543E-02    0.145E-01
RMM:   4    -0.413196695003E+03   -0.30858E-01   -0.34668E-02  5147   0.156E-01    0.739E-01
RMM:   5    -0.413164653008E+03    0.32042E-01   -0.14956E-02  4805   0.123E-01    0.513E-02
RMM:   6    -0.413164863493E+03   -0.21048E-03   -0.27181E-03  5749   0.509E-02    0.351E-02
RMM:   7    -0.413164862243E+03    0.12494E-05   -0.46663E-04  5716   0.201E-02    0.224E-02
RMM:   8    -0.413164856549E+03    0.56947E-05   -0.64667E-05  5173   0.896E-03    0.103E-02
RMM:   9    -0.413164857433E+03   -0.88449E-06   -0.12337E-05  3840   0.402E-03    0.735E-03
RMM:  10    -0.413164861582E+03   -0.41487E-05   -0.21458E-06  2590   0.233E-03    0.443E-03
RMM:  11    -0.413164864869E+03   -0.32876E-05   -0.11641E-06  2527   0.173E-03    0.252E-03
RMM:  12    -0.413164870653E+03   -0.57840E-05   -0.19723E-06  2608   0.202E-03    0.114E-03
RMM:  13    -0.413164873065E+03   -0.24121E-05   -0.69991E-07  2432   0.137E-03    0.881E-04
RMM:  14    -0.413164872857E+03    0.20784E-06   -0.26332E-07  1962   0.889E-04
    5 T=    61. E= -.41286674E+03 F= -.41316487E+03 E0= -.41314240E+03  EK= 0.29813E+00 SP= 0.00E+00 SK= 0.00E+00
       N       E                     dE             d eps       ncg     rms          rms(c)
RMM:   1    -0.413166909868E+03   -0.20368E-02   -0.83481E+00  4244   0.605E-01    0.902E-01
RMM:   2    -0.413169588524E+03   -0.26787E-02   -0.10282E-01  3963   0.816E-02    0.653E-01
RMM:   3    -0.413165936492E+03    0.36520E-02   -0.21011E-02  4941   0.481E-02    0.114E-01
RMM:   4    -0.413191839116E+03   -0.25903E-01   -0.27792E-02  5145   0.139E-01    0.676E-01
RMM:   5    -0.413165187679E+03    0.26651E-01   -0.12627E-02  4806   0.112E-01    0.494E-02
RMM:   6    -0.413165378131E+03   -0.19045E-03   -0.24121E-03  5761   0.469E-02    0.350E-02
RMM:   7    -0.413165368712E+03    0.94187E-05   -0.42793E-04  5601   0.198E-02    0.222E-02
RMM:   8    -0.413165358001E+03    0.10711E-04   -0.58261E-05  5052   0.866E-03    0.105E-02
RMM:   9    -0.413165356147E+03    0.18542E-05   -0.11463E-05  3731   0.382E-03    0.778E-03
RMM:  10    -0.413165356386E+03   -0.23862E-06   -0.20841E-06  2567   0.236E-03
    6 T=    61. E= -.41286699E+03 F= -.41316536E+03 E0= -.41314289E+03  EK= 0.29836E+00 SP= 0.00E+00 SK= 0.00E+00
       N       E                     dE             d eps       ncg     rms          rms(c)
RMM:   1    -0.413166650057E+03   -0.12939E-02   -0.83040E+00  4256   0.614E-01    0.897E-01
RMM:   2    -0.413169386752E+03   -0.27367E-02   -0.10234E-01  4271   0.834E-02    0.647E-01
RMM:   3    -0.413172476647E+03   -0.30899E-02   -0.25437E-02  5150   0.906E-02    0.366E-01
RMM:   4    -0.413185237825E+03   -0.12761E-01   -0.36862E-02  5084   0.165E-01    0.586E-01
RMM:   5    -0.413165120698E+03    0.20117E-01   -0.72309E-03  4665   0.961E-02    0.583E-02
RMM:   6    -0.413165113404E+03    0.72943E-05   -0.15113E-03  5395   0.393E-02    0.326E-02
RMM:   7    -0.413165121291E+03   -0.78870E-05   -0.31197E-04  5916   0.165E-02    0.191E-02
RMM:   8    -0.413165115452E+03    0.58395E-05   -0.54216E-05  5099   0.868E-03    0.761E-03
RMM:   9    -0.413165112911E+03    0.25410E-05   -0.64247E-06  3187   0.336E-03    0.391E-03
RMM:  10    -0.413165112843E+03    0.67608E-07   -0.15153E-06  2527   0.208E-03
    7 T=    61. E= -.41286669E+03 F= -.41316511E+03 E0= -.41314266E+03  EK= 0.29842E+00 SP= 0.00E+00 SK= 0.00E+00
       N       E                     dE             d eps       ncg     rms          rms(c)
RMM:   1    -0.413166878896E+03   -0.17660E-02   -0.83417E+00  4270   0.614E-01    0.884E-01
RMM:   2    -0.413170518395E+03   -0.36395E-02   -0.10294E-01  4085   0.856E-02    0.651E-01
RMM:   3    -0.413166746416E+03    0.37720E-02   -0.22099E-02  4964   0.575E-02    0.146E-01
RMM:   4    -0.413198293083E+03   -0.31547E-01   -0.35456E-02  5135   0.158E-01    0.746E-01
RMM:   5    -0.413165535629E+03    0.32757E-01   -0.15292E-02  4801   0.124E-01    0.518E-02
RMM:   6    -0.413165731762E+03   -0.19613E-03   -0.27257E-03  5731   0.513E-02    0.353E-02
RMM:   7    -0.413165729353E+03    0.24088E-05   -0.47136E-04  5723   0.201E-02    0.224E-02
RMM:   8    -0.413165724560E+03    0.47931E-05   -0.63802E-05  5195   0.887E-03    0.101E-02
RMM:   9    -0.413165723975E+03    0.58465E-06   -0.12279E-05  3829   0.393E-03    0.718E-03
RMM:  10    -0.413165726724E+03   -0.27486E-05   -0.21096E-06  2581   0.229E-03    0.432E-03
RMM:  11    -0.413165728849E+03   -0.21249E-05   -0.11273E-06  2516   0.170E-03    0.244E-03
RMM:  12    -0.413165732491E+03   -0.36418E-05   -0.18571E-06  2591   0.197E-03    0.110E-03
RMM:  13    -0.413165734041E+03   -0.15503E-05   -0.73078E-07  2435   0.137E-03    0.916E-04
RMM:  14    -0.413165733762E+03    0.27963E-06   -0.25728E-07  1934   0.880E-04
    8 T=    61. E= -.41286692E+03 F= -.41316573E+03 E0= -.41314330E+03  EK= 0.29881E+00 SP= 0.00E+00 SK= 0.00E+00
       N       E                     dE             d eps       ncg     rms          rms(c)
RMM:   1    -0.413167368122E+03   -0.16341E-02   -0.83780E+00  4283   0.619E-01    0.899E-01
RMM:   2    -0.413170577052E+03   -0.32089E-02   -0.10297E-01  4126   0.861E-02    0.654E-01
RMM:   3    -0.413166523593E+03    0.40535E-02   -0.21379E-02  4895   0.536E-02    0.120E-01
RMM:   4    -0.413193549017E+03   -0.27025E-01   -0.29094E-02  5134   0.143E-01    0.690E-01
RMM:   5    -0.413165698384E+03    0.27851E-01   -0.13173E-02  4798   0.114E-01    0.494E-02
RMM:   6    -0.413165889111E+03   -0.19073E-03   -0.24742E-03  5752   0.477E-02    0.346E-02
RMM:   7    -0.413165882727E+03    0.63842E-05   -0.42438E-04  5616   0.197E-02    0.220E-02
RMM:   8    -0.413165871698E+03    0.11029E-04   -0.60552E-05  5048   0.880E-03    0.105E-02
RMM:   9    -0.413165869682E+03    0.20156E-05   -0.11955E-05  3789   0.391E-03    0.777E-03
RMM:  10    -0.413165869944E+03   -0.26181E-06   -0.20785E-06  2569   0.234E-03
    9 T=    61. E= -.41286678E+03 F= -.41316587E+03 E0= -.41314346E+03  EK= 0.29909E+00 SP= 0.00E+00 SK= 0.00E+00
       N       E                     dE             d eps       ncg     rms          rms(c)
RMM:   1    -0.413167507418E+03   -0.16377E-02   -0.83524E+00  4291   0.625E-01    0.904E-01
RMM:   2    -0.413170347511E+03   -0.28401E-02   -0.10277E-01  4304   0.881E-02    0.649E-01
RMM:   3    -0.413173399841E+03   -0.30523E-02   -0.25474E-02  5137   0.928E-02    0.368E-01
RMM:   4    -0.413185831843E+03   -0.12432E-01   -0.36678E-02  5070   0.165E-01    0.583E-01
RMM:   5    -0.413165938958E+03    0.19893E-01   -0.71151E-03  4653   0.952E-02    0.580E-02
RMM:   6    -0.413165934713E+03    0.42445E-05   -0.15073E-03  5390   0.390E-02    0.330E-02
RMM:   7    -0.413165937610E+03   -0.28964E-05   -0.31026E-04  5871   0.166E-02    0.191E-02
RMM:   8    -0.413165930110E+03    0.74996E-05   -0.53330E-05  5078   0.872E-03    0.760E-03
RMM:   9    -0.413165926068E+03    0.40416E-05   -0.65797E-06  3182   0.336E-03    0.393E-03
RMM:  10    -0.413165924877E+03    0.11910E-05   -0.15419E-06  2529   0.208E-03    0.243E-03
RMM:  11    -0.413165923013E+03    0.18640E-05   -0.11128E-06  2503   0.169E-03    0.131E-03
RMM:  12    -0.413165921124E+03    0.18890E-05   -0.72677E-07  2464   0.135E-03    0.559E-04
RMM:  13    -0.413165919935E+03    0.11892E-05   -0.36670E-07  2074   0.985E-04    0.324E-04
RMM:  14    -0.413165918684E+03    0.12516E-05   -0.22568E-07  1564   0.786E-04    0.210E-04
RMM:  15    -0.413165916542E+03    0.21418E-05   -0.26228E-07  1591   0.775E-04    0.196E-04
RMM:  16    -0.413165914554E+03    0.19875E-05   -0.19018E-07  1332   0.692E-04    0.151E-04
RMM:  17    -0.413165912805E+03    0.17493E-05   -0.14548E-07  1265   0.652E-04    0.746E-05
RMM:  18    -0.413165911532E+03    0.12725E-05   -0.88358E-08  1065   0.596E-04    0.453E-05
RMM:  19    -0.413165910982E+03    0.55051E-06   -0.41386E-08   812   0.544E-04
   10 T=    61. E= -.41286656E+03 F= -.41316591E+03 E0= -.41314353E+03  EK= 0.29935E+00 SP= 0.00E+00 SK= 0.00E+00
       N       E                     dE             d eps       ncg     rms          rms(c)
RMM:   1    -0.413167764851E+03   -0.18533E-02   -0.83494E+00  4287   0.627E-01    0.885E-01
RMM:   2    -0.413171159321E+03   -0.33945E-02   -0.10318E-01  4198   0.858E-02    0.649E-01
RMM:   3    -0.413167740298E+03    0.34190E-02   -0.21629E-02  4962   0.574E-02    0.146E-01
RMM:   4    -0.413199922047E+03   -0.32182E-01   -0.36376E-02  5133   0.159E-01    0.753E-01
RMM:   5    -0.413166507404E+03    0.33415E-01   -0.15735E-02  4788   0.125E-01    0.521E-02
RMM:   6    -0.413166713743E+03   -0.20634E-03   -0.27585E-03  5721   0.515E-02    0.358E-02
RMM:   7    -0.413166708393E+03    0.53500E-05   -0.47261E-04  5626   0.202E-02    0.224E-02
RMM:   8    -0.413166700019E+03    0.83731E-05   -0.65936E-05  5204   0.915E-03    0.102E-02
RMM:   9    -0.413166698226E+03    0.17933E-05   -0.13081E-05  3904   0.406E-03    0.716E-03
RMM:  10    -0.413166699846E+03   -0.16196E-05   -0.21763E-06  2583   0.233E-03    0.434E-03
RMM:  11    -0.413166701091E+03   -0.12450E-05   -0.10384E-06  2501   0.166E-03    0.249E-03
RMM:  12    -0.413166703145E+03   -0.20543E-05   -0.16250E-06  2554   0.192E-03    0.111E-03
RMM:  13    -0.413166703963E+03   -0.81778E-06   -0.66874E-07  2412   0.136E-03
   11 T=    61. E= -.41286686E+03 F= -.41316670E+03 E0= -.41314434E+03  EK= 0.29984E+00 SP= 0.00E+00 SK= 0.00E+00
       N       E                     dE             d eps       ncg     rms          rms(c)
RMM:   1    -0.413167939471E+03   -0.12363E-02   -0.84201E+00  4287   0.632E-01    0.896E-01
RMM:   2    -0.413171128942E+03   -0.31895E-02   -0.10388E-01  4207   0.865E-02    0.656E-01
RMM:   3    -0.413167393879E+03    0.37351E-02   -0.21700E-02  4892   0.529E-02    0.125E-01
RMM:   4    -0.413195386524E+03   -0.27993E-01   -0.30477E-02  5125   0.146E-01    0.702E-01
RMM:   5    -0.413166475331E+03    0.28911E-01   -0.13613E-02  4784   0.116E-01    0.498E-02
RMM:   6    -0.413166681530E+03   -0.20620E-03   -0.26096E-03  5781   0.483E-02    0.341E-02
RMM:   7    -0.413166678299E+03    0.32305E-05   -0.42579E-04  5655   0.196E-02    0.221E-02
RMM:   8    -0.413166666750E+03    0.11549E-04   -0.64578E-05  5019   0.891E-03    0.108E-02
RMM:   9    -0.413166664507E+03    0.22428E-05   -0.12802E-05  3895   0.406E-03    0.794E-03
RMM:  10    -0.413166664960E+03   -0.45263E-06   -0.21042E-06  2569   0.238E-03
   12 T=    61. E= -.41286657E+03 F= -.41316666E+03 E0= -.41314433E+03  EK= 0.30009E+00 SP= 0.00E+00 SK= 0.00E+00
       N       E                     dE             d eps       ncg     rms          rms(c)
RMM:   1    -0.413168956887E+03   -0.22924E-02   -0.84087E+00  4303   0.642E-01    0.908E-01
RMM:   2    -0.413171292851E+03   -0.23360E-02   -0.10365E-01  4326   0.834E-02    0.651E-01
RMM:   3    -0.413175654519E+03   -0.43617E-02   -0.26084E-02  5153   0.934E-02    0.390E-01
RMM:   4    -0.413185877629E+03   -0.10223E-01   -0.36695E-02  5067   0.165E-01    0.563E-01
RMM:   5    -0.413167304529E+03    0.18573E-01   -0.64099E-03  4628   0.922E-02    0.580E-02
RMM:   6    -0.413167291040E+03    0.13489E-04   -0.14307E-03  5341   0.374E-02    0.329E-02
RMM:   7    -0.413167297490E+03   -0.64495E-05   -0.29592E-04  5852   0.162E-02    0.189E-02
RMM:   8    -0.413167288756E+03    0.87335E-05   -0.52377E-05  5064   0.860E-03    0.751E-03
RMM:   9    -0.413167283725E+03    0.50306E-05   -0.59824E-06  3116   0.332E-03    0.385E-03
RMM:  10    -0.413167281776E+03    0.19497E-05   -0.14409E-06  2505   0.205E-03    0.237E-03
RMM:  11    -0.413167278758E+03    0.30175E-05   -0.11031E-06  2493   0.168E-03    0.129E-03
RMM:  12    -0.413167276091E+03    0.26672E-05   -0.65938E-07  2444   0.132E-03    0.553E-04
RMM:  13    -0.413167274345E+03    0.17457E-05   -0.34328E-07  2045   0.971E-04    0.327E-04
RMM:  14    -0.413167272667E+03    0.16786E-05   -0.20441E-07  1545   0.772E-04    0.214E-04
RMM:  15    -0.413167269534E+03    0.31330E-05   -0.24591E-07  1628   0.780E-04    0.214E-04
RMM:  16    -0.413167267036E+03    0.24976E-05   -0.16072E-07  1298   0.670E-04    0.142E-04
RMM:  17    -0.413167264866E+03    0.21697E-05   -0.12258E-07  1229   0.639E-04    0.721E-05
RMM:  18    -0.413167263496E+03    0.13707E-05   -0.69514E-08   976   0.577E-04    0.535E-05
RMM:  19    -0.413167262743E+03    0.75297E-06   -0.39090E-08   829   0.543E-04
   13 T=    61. E= -.41286672E+03 F= -.41316726E+03 E0= -.41314496E+03  EK= 0.30055E+00 SP= 0.00E+00 SK= 0.00E+00
       N       E                     dE             d eps       ncg     rms          rms(c)
RMM:   1    -0.413169142311E+03   -0.18788E-02   -0.83731E+00  4291   0.645E-01    0.887E-01
RMM:   2    -0.413172228396E+03   -0.30861E-02   -0.10345E-01  4226   0.828E-02    0.648E-01
RMM:   3    -0.413168955921E+03    0.32725E-02   -0.21074E-02  5005   0.536E-02    0.148E-01
RMM:   4    -0.413201937961E+03   -0.32982E-01   -0.37535E-02  5128   0.162E-01    0.762E-01
RMM:   5    -0.413167698681E+03    0.34239E-01   -0.16028E-02  4785   0.126E-01    0.527E-02
RMM:   6    -0.413167902859E+03   -0.20418E-03   -0.28152E-03  5727   0.520E-02    0.361E-02
RMM:   7    -0.413167895004E+03    0.78543E-05   -0.48066E-04  5628   0.204E-02    0.228E-02
RMM:   8    -0.413167885905E+03    0.90993E-05   -0.67860E-05  5205   0.915E-03    0.104E-02
RMM:   9    -0.413167882600E+03    0.33048E-05   -0.13087E-05  3911   0.408E-03    0.726E-03
RMM:  10    -0.413167882355E+03    0.24538E-06   -0.21349E-06  2572   0.231E-03
   14 T=    61. E= -.41286685E+03 F= -.41316788E+03 E0= -.41314561E+03  EK= 0.30103E+00 SP= 0.00E+00 SK= 0.00E+00
       N       E                     dE             d eps       ncg     rms          rms(c)
RMM:   1    -0.413169071990E+03   -0.11894E-02   -0.84673E+00  4301   0.646E-01    0.893E-01
RMM:   2    -0.413172699057E+03   -0.36271E-02   -0.10451E-01  4325   0.849E-02    0.658E-01
RMM:   3    -0.413176162681E+03   -0.34636E-02   -0.27402E-02  5127   0.955E-02    0.386E-01
RMM:   4    -0.413188797611E+03   -0.12635E-01   -0.39188E-02  5062   0.170E-01    0.598E-01
RMM:   5    -0.413167907792E+03    0.20890E-01   -0.74957E-03  4634   0.981E-02    0.572E-02
RMM:   6    -0.413167920821E+03   -0.13029E-04   -0.15935E-03  5378   0.391E-02    0.315E-02
RMM:   7    -0.413167933537E+03   -0.12715E-04   -0.31226E-04  5899   0.163E-02    0.188E-02
RMM:   8    -0.413167930469E+03    0.30672E-05   -0.54786E-05  5091   0.863E-03    0.753E-03
RMM:   9    -0.413167928833E+03    0.16368E-05   -0.62486E-06  3124   0.336E-03    0.389E-03
RMM:  10    -0.413167929858E+03   -0.10249E-05   -0.14734E-06  2511   0.204E-03    0.243E-03
RMM:  11    -0.413167931132E+03   -0.12748E-05   -0.11471E-06  2499   0.168E-03    0.132E-03
RMM:  12    -0.413167931650E+03   -0.51771E-06   -0.67630E-07  2449   0.133E-03
   15 T=    61. E= -.41286651E+03 F= -.41316793E+03 E0= -.41314570E+03  EK= 0.30142E+00 SP= 0.00E+00 SK= 0.00E+00
       N       E                     dE             d eps       ncg     rms          rms(c)
RMM:   1    -0.413174797168E+03   -0.68660E-02   -0.85091E+00  4294   0.687E-01    0.911E-01
RMM:   2    -0.413173472443E+03    0.13247E-02   -0.10397E-01  4245   0.883E-02    0.653E-01
RMM:   3    -0.413169981640E+03    0.34908E-02   -0.20712E-02  4949   0.571E-02    0.144E-01
RMM:   4    -0.413203258804E+03   -0.33277E-01   -0.37443E-02  5121   0.161E-01    0.764E-01
RMM:   5    -0.413168794510E+03    0.34464E-01   -0.16134E-02  4779   0.126E-01    0.532E-02
RMM:   6    -0.413169009762E+03   -0.21525E-03   -0.29569E-03  5740   0.527E-02    0.373E-02
RMM:   7    -0.413168990703E+03    0.19058E-04   -0.49480E-04  5667   0.210E-02    0.236E-02
RMM:   8    -0.413168976412E+03    0.14291E-04   -0.71732E-05  5199   0.946E-03    0.112E-02
RMM:   9    -0.413168970367E+03    0.60446E-05   -0.13681E-05  3969   0.421E-03    0.788E-03
RMM:  10    -0.413168966483E+03    0.38848E-05   -0.23049E-06  2592   0.241E-03    0.470E-03
RMM:  11    -0.413168963890E+03    0.25927E-05   -0.12261E-06  2514   0.177E-03    0.270E-03
RMM:  12    -0.413168958734E+03    0.51561E-05   -0.19078E-06  2582   0.209E-03    0.118E-03
RMM:  13    -0.413168955420E+03    0.33138E-05   -0.71990E-07  2423   0.144E-03    0.992E-04
RMM:  14    -0.413168955658E+03   -0.23806E-06   -0.27691E-07  2019   0.928E-04
   16 T=    62. E= -.41286680E+03 F= -.41316896E+03 E0= -.41314676E+03  EK= 0.30216E+00 SP= 0.00E+00 SK= 0.00E+00
       N       E                     dE             d eps       ncg     rms          rms(c)
RMM:   1    -0.413170581214E+03   -0.16258E-02   -0.84218E+00  4294   0.659E-01    0.893E-01
RMM:   2    -0.413173990857E+03   -0.34096E-02   -0.10410E-01  4249   0.919E-02    0.648E-01
RMM:   3    -0.413170152832E+03    0.38380E-02   -0.20372E-02  4866   0.555E-02    0.124E-01
RMM:   4    -0.413199555100E+03   -0.29402E-01   -0.31983E-02  5121   0.149E-01    0.718E-01
RMM:   5    -0.413169262296E+03    0.30293E-01   -0.14378E-02  4792   0.119E-01    0.506E-02
RMM:   6    -0.413169457113E+03   -0.19482E-03   -0.26964E-03  5786   0.491E-02    0.352E-02
RMM:   7    -0.413169446081E+03    0.11032E-04   -0.43265E-04  5612   0.201E-02    0.223E-02
RMM:   8    -0.413169431989E+03    0.14092E-04   -0.67186E-05  5070   0.918E-03    0.110E-02
RMM:   9    -0.413169426965E+03    0.50236E-05   -0.13219E-05  3942   0.414E-03    0.801E-03
RMM:  10    -0.413169424323E+03    0.26426E-05   -0.21877E-06  2579   0.240E-03    0.478E-03
RMM:  11    -0.413169422514E+03    0.18090E-05   -0.12581E-06  2511   0.181E-03    0.271E-03
RMM:  12    -0.413169419153E+03    0.33606E-05   -0.18509E-06  2572   0.208E-03    0.117E-03
RMM:  13    -0.413169417046E+03    0.21077E-05   -0.62541E-07  2395   0.138E-03    0.901E-04
RMM:  14    -0.413169417148E+03   -0.10226E-06   -0.26298E-07  2001   0.895E-04
   17 T=    62. E= -.41286670E+03 F= -.41316942E+03 E0= -.41314726E+03  EK= 0.30272E+00 SP= 0.00E+00 SK= 0.00E+00
       N       E                     dE             d eps       ncg     rms          rms(c)
RMM:   1    -0.413170982071E+03   -0.15650E-02   -0.85193E+00  4295   0.660E-01    0.892E-01
RMM:   2    -0.413174591377E+03   -0.36093E-02   -0.10562E-01  4251   0.901E-02    0.658E-01
RMM:   3    -0.413170768832E+03    0.38225E-02   -0.21866E-02  4869   0.569E-02    0.131E-01
RMM:   4    -0.413200133145E+03   -0.29364E-01   -0.32194E-02  5118   0.150E-01    0.719E-01
RMM:   5    -0.413169775206E+03    0.30358E-01   -0.14385E-02  4780   0.119E-01    0.502E-02
RMM:   6    -0.413169975388E+03   -0.20018E-03   -0.26721E-03  5766   0.493E-02    0.342E-02
RMM:   7    -0.413169971760E+03    0.36283E-05   -0.42726E-04  5618   0.199E-02    0.220E-02
RMM:   8    -0.413169961389E+03    0.10371E-04   -0.66803E-05  5078   0.920E-03    0.107E-02
RMM:   9    -0.413169958340E+03    0.30485E-05   -0.13205E-05  3937   0.418E-03    0.780E-03
RMM:  10    -0.413169958455E+03   -0.11524E-06   -0.20951E-06  2572   0.237E-03
   18 T=    62. E= -.41286664E+03 F= -.41316996E+03 E0= -.41314784E+03  EK= 0.30332E+00 SP= 0.00E+00 SK= 0.00E+00
       N       E                     dE             d eps       ncg     rms          rms(c)
RMM:   1    -0.413174747835E+03   -0.47895E-02   -0.85558E+00  4302   0.690E-01    0.909E-01
RMM:   2    -0.413175323864E+03   -0.57603E-03   -0.11095E-01  4321   0.924E-02    0.658E-01
RMM:   3    -0.413178895627E+03   -0.35718E-02   -0.25135E-02  5140   0.925E-02    0.376E-01
RMM:   4    -0.413192451733E+03   -0.13556E-01   -0.39321E-02  5068   0.170E-01    0.602E-01
RMM:   5    -0.413171119895E+03    0.21332E-01   -0.76327E-03  4646   0.979E-02    0.586E-02
RMM:   6    -0.413171124187E+03   -0.42919E-05   -0.16102E-03  5406   0.396E-02    0.329E-02
RMM:   7    -0.413171129303E+03   -0.51158E-05   -0.31825E-04  5880   0.168E-02    0.194E-02
RMM:   8    -0.413171119599E+03    0.97042E-05   -0.57748E-05  5095   0.891E-03    0.772E-03
RMM:   9    -0.413171113766E+03    0.58325E-05   -0.69880E-06  3226   0.349E-03    0.394E-03
RMM:  10    -0.413171111438E+03    0.23281E-05   -0.15404E-06  2521   0.209E-03    0.245E-03
RMM:  11    -0.413171107814E+03    0.36241E-05   -0.11269E-06  2501   0.171E-03    0.136E-03
RMM:  12    -0.413171104473E+03    0.33413E-05   -0.65723E-07  2453   0.134E-03    0.559E-04
RMM:  13    -0.413171102297E+03    0.21761E-05   -0.33313E-07  2069   0.972E-04    0.323E-04
RMM:  14    -0.413171100258E+03    0.20383E-05   -0.19110E-07  1535   0.767E-04    0.216E-04
RMM:  15    -0.413171096615E+03    0.36430E-05   -0.18610E-07  1432   0.738E-04    0.171E-04
RMM:  16    -0.413171093802E+03    0.28131E-05   -0.12772E-07  1262   0.665E-04    0.151E-04
RMM:  17    -0.413171090630E+03    0.31723E-05   -0.12030E-07  1273   0.651E-04    0.788E-05
RMM:  18    -0.413171088772E+03    0.18581E-05   -0.64695E-08   964   0.581E-04    0.413E-05
RMM:  19    -0.413171087853E+03    0.91855E-06   -0.35082E-08   825   0.550E-04
   19 T=    62. E= -.41286692E+03 F= -.41317109E+03 E0= -.41314901E+03  EK= 0.30417E+00 SP= 0.00E+00 SK= 0.00E+00
       N       E                     dE             d eps       ncg     rms          rms(c)
RMM:   1    -0.413173365043E+03   -0.22763E-02   -0.85061E+00  4294   0.696E-01    0.900E-01
RMM:   2    -0.413175511197E+03   -0.21462E-02   -0.10574E-01  4249   0.851E-02    0.650E-01
RMM:   3    -0.413172588015E+03    0.29232E-02   -0.20218E-02  5021   0.532E-02    0.149E-01
RMM:   4    -0.413206996627E+03   -0.34409E-01   -0.39352E-02  5126   0.165E-01    0.777E-01
RMM:   5    -0.413171328495E+03    0.35668E-01   -0.16787E-02  4779   0.129E-01    0.540E-02
RMM:   6    -0.413171533701E+03   -0.20521E-03   -0.30048E-03  5730   0.531E-02    0.372E-02
RMM:   7    -0.413171519346E+03    0.14355E-04   -0.50047E-04  5632   0.210E-02    0.235E-02
RMM:   8    -0.413171508752E+03    0.10594E-04   -0.73921E-05  5210   0.973E-03    0.110E-02
RMM:   9    -0.413171502848E+03    0.59042E-05   -0.14508E-05  4030   0.433E-03    0.755E-03
RMM:  10    -0.413171499500E+03    0.33476E-05   -0.23461E-06  2594   0.241E-03    0.457E-03
RMM:  11    -0.413171497454E+03    0.20463E-05   -0.10691E-06  2499   0.169E-03    0.274E-03
RMM:  12    -0.413171493117E+03    0.43369E-05   -0.17634E-06  2552   0.205E-03    0.122E-03
RMM:  13    -0.413171490355E+03    0.27623E-05   -0.74149E-07  2417   0.145E-03    0.100E-03
RMM:  14    -0.413171490367E+03   -0.12886E-07   -0.28886E-07  2063   0.946E-04
   20 T=    62. E= -.41286666E+03 F= -.41317149E+03 E0= -.41314946E+03  EK= 0.30483E+00 SP= 0.00E+00 SK= 0.00E+00
       N       E                     dE             d eps       ncg     rms          rms(c)
RMM:   1    -0.413173493673E+03   -0.20033E-02   -0.85754E+00  4292   0.672E-01    0.892E-01
RMM:   2    -0.413177167741E+03   -0.36741E-02   -0.10641E-01  4251   0.864E-02    0.658E-01
RMM:   3    -0.413173300673E+03    0.38671E-02   -0.21471E-02  4906   0.523E-02    0.122E-01
RMM:   4    -0.413200994076E+03   -0.27693E-01   -0.30072E-02  5116   0.145E-01    0.698E-01
RMM:   5    -0.413172444024E+03    0.28550E-01   -0.13620E-02  4782   0.115E-01    0.492E-02
RMM:   6    -0.413172620469E+03   -0.17644E-03   -0.25010E-03  5811   0.473E-02    0.329E-02
RMM:   7    -0.413172620149E+03    0.31992E-06   -0.38133E-04  5611   0.191E-02    0.207E-02
RMM:   8    -0.413172611537E+03    0.86117E-05   -0.67759E-05  5015   0.910E-03    0.107E-02
RMM:   9    -0.413172607856E+03    0.36805E-05   -0.13196E-05  3950   0.420E-03    0.787E-03
RMM:  10    -0.413172607459E+03    0.39700E-06   -0.20273E-06  2566   0.233E-03
   21 T=    62. E= -.41286681E+03 F= -.41317261E+03 E0= -.41315062E+03  EK= 0.30580E+00 SP= 0.00E+00 SK= 0.00E+00
       N       E                     dE             d eps       ncg     rms          rms(c)
RMM:   1    -0.413175109634E+03   -0.25018E-02   -0.86206E+00  4300   0.685E-01    0.909E-01
RMM:   2    -0.413178305375E+03   -0.31957E-02   -0.10655E-01  4348   0.883E-02    0.660E-01
RMM:   3    -0.413180914692E+03   -0.26093E-02   -0.25393E-02  5128   0.906E-02    0.361E-01
RMM:   4    -0.413196339073E+03   -0.15424E-01   -0.39843E-02  5068   0.171E-01    0.620E-01
RMM:   5    -0.413173726373E+03    0.22613E-01   -0.82505E-03  4650   0.101E-01    0.572E-02
RMM:   6    -0.413173752223E+03   -0.25850E-04   -0.17344E-03  5446   0.407E-02    0.329E-02
RMM:   7    -0.413173752213E+03    0.10754E-07   -0.33199E-04  5847   0.169E-02    0.196E-02
RMM:   8    -0.413173744886E+03    0.73269E-05   -0.56964E-05  5082   0.880E-03    0.789E-03
RMM:   9    -0.413173739439E+03    0.54463E-05   -0.70045E-06  3224   0.345E-03    0.413E-03
RMM:  10    -0.413173737067E+03    0.23722E-05   -0.16327E-06  2531   0.210E-03    0.259E-03
RMM:  11    -0.413173733955E+03    0.31121E-05   -0.10243E-06  2484   0.165E-03    0.134E-03
RMM:  12    -0.413173730413E+03    0.35423E-05   -0.68359E-07  2452   0.134E-03    0.518E-04
RMM:  13    -0.413173728364E+03    0.20489E-05   -0.33482E-07  2071   0.976E-04    0.315E-04
RMM:  14    -0.413173726589E+03    0.17752E-05   -0.18538E-07  1559   0.762E-04    0.208E-04
RMM:  15    -0.413173723054E+03    0.35351E-05   -0.16927E-07  1437   0.729E-04    0.180E-04
RMM:  16    -0.413173720274E+03    0.27791E-05   -0.11341E-07  1220   0.656E-04    0.164E-04
RMM:  17    -0.413173717720E+03    0.25543E-05   -0.85079E-08  1119   0.623E-04    0.776E-05
RMM:  18    -0.413173715388E+03    0.23326E-05   -0.66909E-08  1063   0.600E-04    0.351E-05
RMM:  19    -0.413173714231E+03    0.11566E-05   -0.33818E-08   855   0.557E-04    0.305E-05
RMM:  20    -0.413173713781E+03    0.45027E-06   -0.16911E-08   727   0.538E-04
   22 T=    62. E= -.41286686E+03 F= -.41317371E+03 E0= -.41315177E+03  EK= 0.30686E+00 SP= 0.00E+00 SK= 0.00E+00
       N       E                     dE             d eps       ncg     rms          rms(c)
RMM:   1    -0.413175782301E+03   -0.20681E-02   -0.86086E+00  4295   0.691E-01    0.910E-01
RMM:   2    -0.413178880812E+03   -0.30985E-02   -0.10647E-01  4277   0.911E-02    0.654E-01
RMM:   3    -0.413175319806E+03    0.35610E-02   -0.19981E-02  4951   0.550E-02    0.139E-01
RMM:   4    -0.413209068618E+03   -0.33749E-01   -0.37676E-02  5126   0.162E-01    0.768E-01
RMM:   5    -0.413174239545E+03    0.34829E-01   -0.16563E-02  4785   0.127E-01    0.532E-02
RMM:   6    -0.413174434253E+03   -0.19471E-03   -0.29630E-03  5766   0.527E-02    0.372E-02
RMM:   7    -0.413174421601E+03    0.12653E-04   -0.48772E-04  5625   0.210E-02    0.235E-02
RMM:   8    -0.413174408290E+03    0.13311E-04   -0.75857E-05  5201   0.971E-03    0.114E-02
RMM:   9    -0.413174401326E+03    0.69632E-05   -0.14472E-05  4059   0.436E-03    0.792E-03
RMM:  10    -0.413174396652E+03    0.46741E-05   -0.23795E-06  2601   0.243E-03    0.477E-03
RMM:  11    -0.413174393732E+03    0.29203E-05   -0.11278E-06  2496   0.173E-03    0.285E-03
RMM:  12    -0.413174387716E+03    0.60158E-05   -0.19243E-06  2576   0.212E-03    0.127E-03
RMM:  13    -0.413174384119E+03    0.35974E-05   -0.73877E-07  2417   0.147E-03    0.101E-03
RMM:  14    -0.413174384179E+03   -0.60034E-07   -0.29069E-07  2060   0.946E-04
   23 T=    63. E= -.41286659E+03 F= -.41317438E+03 E0= -.41315249E+03  EK= 0.30779E+00 SP= 0.00E+00 SK= 0.00E+00
       N       E                     dE             d eps       ncg     rms          rms(c)
RMM:   1    -0.413176808635E+03   -0.24245E-02   -0.86474E+00  4293   0.691E-01    0.894E-01
RMM:   2    -0.413180816490E+03   -0.40079E-02   -0.10747E-01  4274   0.904E-02    0.658E-01
RMM:   3    -0.413176479687E+03    0.43368E-02   -0.20870E-02  4809   0.545E-02    0.109E-01
RMM:   4    -0.413200828328E+03   -0.24349E-01   -0.25673E-02  5119   0.134E-01    0.655E-01
RMM:   5    -0.413175824166E+03    0.25004E-01   -0.12106E-02  4796   0.108E-01    0.477E-02
RMM:   6    -0.413175963590E+03   -0.13942E-03   -0.21689E-03  5816   0.440E-02    0.307E-02
RMM:   7    -0.413175961420E+03    0.21698E-05   -0.29219E-04  5649   0.171E-02    0.174E-02
RMM:   8    -0.413175954886E+03    0.65345E-05   -0.59889E-05  4996   0.818E-03    0.106E-02
RMM:   9    -0.413175949943E+03    0.49422E-05   -0.11663E-05  3898   0.400E-03    0.770E-03
RMM:  10    -0.413175948335E+03    0.16088E-05   -0.19541E-06  2559   0.231E-03    0.452E-03
RMM:  11    -0.413175946988E+03    0.13467E-05   -0.14274E-06  2513   0.192E-03    0.242E-03
RMM:  12    -0.413175944750E+03    0.22379E-05   -0.15562E-06  2531   0.192E-03    0.109E-03
RMM:  13    -0.413175943657E+03    0.10932E-05   -0.49920E-07  2319   0.126E-03    0.678E-04
RMM:  14    -0.413175943265E+03    0.39211E-06   -0.22609E-07  1857   0.844E-04
   24 T=    63. E= -.41286693E+03 F= -.41317594E+03 E0= -.41315410E+03  EK= 0.30901E+00 SP= 0.00E+00 SK= 0.00E+00
       N       E                     dE             d eps       ncg     rms          rms(c)
RMM:   1    -0.413178018535E+03   -0.20749E-02   -0.87265E+00  4294   0.697E-01    0.908E-01
RMM:   2    -0.413181651937E+03   -0.36334E-02   -0.10833E-01  4278   0.908E-02    0.664E-01
RMM:   3    -0.413177694210E+03    0.39577E-02   -0.20929E-02  4899   0.570E-02    0.126E-01
RMM:   4    -0.413208418782E+03   -0.30725E-01   -0.33415E-02  5122   0.153E-01    0.733E-01
RMM:   5    -0.413176781044E+03    0.31638E-01   -0.15095E-02  4788   0.121E-01    0.512E-02
RMM:   6    -0.413176967295E+03   -0.18625E-03   -0.27555E-03  5787   0.503E-02    0.352E-02
RMM:   7    -0.413176957343E+03    0.99523E-05   -0.45103E-04  5614   0.204E-02    0.224E-02
RMM:   8    -0.413176943817E+03    0.13526E-04   -0.70576E-05  5098   0.951E-03    0.110E-02
RMM:   9    -0.413176938311E+03    0.55059E-05   -0.13814E-05  3965   0.427E-03    0.787E-03
RMM:  10    -0.413176935452E+03    0.28596E-05   -0.21971E-06  2580   0.240E-03    0.469E-03
RMM:  11    -0.413176933542E+03    0.19098E-05   -0.12024E-06  2501   0.179E-03    0.269E-03
RMM:  12    -0.413176929893E+03    0.36488E-05   -0.18912E-06  2570   0.208E-03    0.121E-03
RMM:  13    -0.413176927524E+03    0.23692E-05   -0.62289E-07  2395   0.138E-03    0.908E-04
RMM:  14    -0.413176927497E+03    0.26535E-07   -0.26473E-07  2006   0.900E-04
   25 T=    63. E= -.41286684E+03 F= -.41317693E+03 E0= -.41315513E+03  EK= 0.31009E+00 SP= 0.00E+00 SK= 0.00E+00
       N       E                     dE             d eps       ncg     rms          rms(c)
RMM:   1    -0.413179660526E+03   -0.27330E-02   -0.87332E+00  4296   0.710E-01    0.918E-01
RMM:   2    -0.413182538657E+03   -0.28781E-02   -0.10847E-01  4275   0.952E-02    0.659E-01
RMM:   3    -0.413178802178E+03    0.37365E-02   -0.19601E-02  4817   0.545E-02    0.111E-01
RMM:   4    -0.413205989590E+03   -0.27187E-01   -0.28649E-02  5120   0.141E-01    0.689E-01
RMM:   5    -0.413178160600E+03    0.27829E-01   -0.13535E-02  4794   0.114E-01    0.498E-02
RMM:   6    -0.413178305937E+03   -0.14534E-03   -0.24241E-03  5816   0.469E-02    0.335E-02
RMM:   7    -0.413178294113E+03    0.11824E-04   -0.35781E-04  5624   0.189E-02    0.199E-02
RMM:   8    -0.413178280867E+03    0.13246E-04   -0.68792E-05  5017   0.903E-03    0.112E-02
RMM:   9    -0.413178273396E+03    0.74712E-05   -0.13121E-05  4035   0.423E-03    0.812E-03
RMM:  10    -0.413178267786E+03    0.56101E-05   -0.21007E-06  2575   0.239E-03    0.479E-03
RMM:  11    -0.413178263266E+03    0.45204E-05   -0.13490E-06  2517   0.187E-03    0.270E-03
RMM:  12    -0.413178255607E+03    0.76590E-05   -0.17908E-06  2564   0.206E-03    0.118E-03
RMM:  13    -0.413178251441E+03    0.41660E-05   -0.57417E-07  2367   0.134E-03    0.783E-04
RMM:  14    -0.413178251401E+03    0.39392E-07   -0.25963E-07  1939   0.886E-04
   26 T=    63. E= -.41286684E+03 F= -.41317825E+03 E0= -.41315650E+03  EK= 0.31141E+00 SP= 0.00E+00 SK= 0.00E+00
       N       E                     dE             d eps       ncg     rms          rms(c)
RMM:   1    -0.413181881353E+03   -0.36299E-02   -0.87484E+00  4295   0.724E-01    0.899E-01
RMM:   2    -0.413184454877E+03   -0.25735E-02   -0.10983E-01  4274   0.950E-02    0.659E-01
RMM:   3    -0.413180640274E+03    0.38146E-02   -0.20167E-02  4852   0.547E-02    0.108E-01
RMM:   4    -0.413206263463E+03   -0.25623E-01   -0.27036E-02  5130   0.137E-01    0.671E-01
RMM:   5    -0.413180000274E+03    0.26263E-01   -0.12827E-02  4795   0.111E-01    0.486E-02
RMM:   6    -0.413180142105E+03   -0.14183E-03   -0.23017E-03  5827   0.455E-02    0.322E-02
RMM:   7    -0.413180140515E+03    0.15901E-05   -0.33767E-04  5630   0.183E-02    0.191E-02
RMM:   8    -0.413180131104E+03    0.94111E-05   -0.65553E-05  5002   0.873E-03    0.108E-02
RMM:   9    -0.413180125312E+03    0.57916E-05   -0.12501E-05  3984   0.415E-03    0.786E-03
RMM:  10    -0.413180122292E+03    0.30198E-05   -0.19971E-06  2563   0.235E-03    0.464E-03
RMM:  11    -0.413180119765E+03    0.25275E-05   -0.13425E-06  2517   0.186E-03    0.257E-03
RMM:  12    -0.413180115524E+03    0.42408E-05   -0.16532E-06  2538   0.199E-03    0.112E-03
RMM:  13    -0.413180113276E+03    0.22477E-05   -0.53876E-07  2344   0.130E-03    0.718E-04
RMM:  14    -0.413180113007E+03    0.26994E-06   -0.24339E-07  1886   0.864E-04
   27 T=    64. E= -.41286708E+03 F= -.41318011E+03 E0= -.41315841E+03  EK= 0.31303E+00 SP= 0.00E+00 SK= 0.00E+00
       N       E                     dE             d eps       ncg     rms          rms(c)
RMM:   1    -0.413182068760E+03   -0.19555E-02   -0.88581E+00  4298   0.715E-01    0.909E-01
RMM:   2    -0.413185712293E+03   -0.36435E-02   -0.11073E-01  4274   0.973E-02    0.669E-01
RMM:   3    -0.413181641388E+03    0.40709E-02   -0.21087E-02  4785   0.555E-02    0.105E-01
RMM:   4    -0.413205182715E+03   -0.23541E-01   -0.24598E-02  5134   0.131E-01    0.644E-01
RMM:   5    -0.413181036448E+03    0.24146E-01   -0.11800E-02  4795   0.106E-01    0.475E-02
RMM:   6    -0.413181173315E+03   -0.13687E-03   -0.21300E-03  5826   0.436E-02    0.312E-02
RMM:   7    -0.413181171455E+03    0.18608E-05   -0.30181E-04  5622   0.176E-02    0.180E-02
RMM:   8    -0.413181164720E+03    0.67349E-05   -0.59613E-05  4982   0.831E-03    0.106E-02
RMM:   9    -0.413181159633E+03    0.50863E-05   -0.11453E-05  3871   0.399E-03    0.770E-03
RMM:  10    -0.413181157426E+03    0.22076E-05   -0.18921E-06  2549   0.232E-03    0.451E-03
RMM:  11    -0.413181155413E+03    0.20129E-05   -0.14497E-06  2527   0.193E-03    0.238E-03
RMM:  12    -0.413181152347E+03    0.30659E-05   -0.15101E-06  2524   0.191E-03    0.103E-03
RMM:  13    -0.413181150741E+03    0.16057E-05   -0.49251E-07  2319   0.124E-03    0.656E-04
RMM:  14    -0.413181150366E+03    0.37574E-06   -0.22648E-07  1816   0.837E-04
   28 T=    64. E= -.41286674E+03 F= -.41318115E+03 E0= -.41315950E+03  EK= 0.31441E+00 SP= 0.00E+00 SK= 0.00E+00
       N       E                     dE             d eps       ncg     rms          rms(c)
RMM:   1    -0.413185259524E+03   -0.41088E-02   -0.88899E+00  4294   0.751E-01    0.926E-01
RMM:   2    -0.413187584997E+03   -0.23255E-02   -0.11179E-01  4273   0.100E-01    0.665E-01
RMM:   3    -0.413183419341E+03    0.41657E-02   -0.19519E-02  4648   0.508E-02    0.837E-02
RMM:   4    -0.413197657730E+03   -0.14238E-01   -0.14466E-02  5139   0.101E-01    0.503E-01
RMM:   5    -0.413183162868E+03    0.14495E-01   -0.72609E-03  4821   0.826E-02    0.450E-02
RMM:   6    -0.413183228978E+03   -0.66110E-04   -0.13575E-03  5839   0.342E-02    0.278E-02
RMM:   7    -0.413183223195E+03    0.57830E-05   -0.17102E-04  5475   0.142E-02    0.138E-02
RMM:   8    -0.413183213456E+03    0.97387E-05   -0.26174E-05  4552   0.558E-03    0.839E-03
RMM:   9    -0.413183211218E+03    0.22380E-05   -0.68889E-06  3286   0.309E-03    0.666E-03
RMM:  10    -0.413183205727E+03    0.54912E-05   -0.14496E-06  2515   0.215E-03    0.363E-03
RMM:  11    -0.413183200034E+03    0.56928E-05   -0.13763E-06  2522   0.187E-03    0.191E-03
RMM:  12    -0.413183193887E+03    0.61472E-05   -0.94806E-07  2464   0.158E-03    0.986E-04
RMM:  13    -0.413183191757E+03    0.21301E-05   -0.36420E-07  2187   0.106E-03    0.543E-04
RMM:  14    -0.413183190418E+03    0.13391E-05   -0.16990E-07  1606   0.755E-04    0.412E-04
RMM:  15    -0.413183185636E+03    0.47815E-05   -0.18640E-07  1972   0.794E-04    0.361E-04
RMM:  16    -0.413183182330E+03    0.33057E-05   -0.84224E-08  1263   0.624E-04    0.310E-04
RMM:  17    -0.413183179327E+03    0.30031E-05   -0.44377E-08   879   0.553E-04    0.211E-04
RMM:  18    -0.413183175747E+03    0.35799E-05   -0.57220E-08  1030   0.590E-04    0.484E-05
RMM:  19    -0.413183173933E+03    0.18140E-05   -0.30429E-08   903   0.567E-04    0.995E-05
RMM:  20    -0.413183173792E+03    0.14185E-06   -0.91826E-09   656   0.522E-04
   29 T=    64. E= -.41286699E+03 F= -.41318317E+03 E0= -.41316158E+03  EK= 0.31619E+00 SP= 0.00E+00 SK= 0.00E+00
       N       E                     dE             d eps       ncg     rms          rms(c)
RMM:   1    -0.413188800671E+03   -0.56267E-02   -0.88993E+00  4291   0.776E-01    0.907E-01
RMM:   2    -0.413189897937E+03   -0.10973E-02   -0.11799E-01  4270   0.109E-01    0.663E-01
RMM:   3    -0.413185242228E+03    0.46557E-02   -0.19100E-02  4610   0.555E-02    0.830E-02
RMM:   4    -0.413199860291E+03   -0.14618E-01   -0.14814E-02  5138   0.102E-01    0.509E-01
RMM:   5    -0.413184986392E+03    0.14874E-01   -0.74782E-03  4819   0.838E-02    0.445E-02
RMM:   6    -0.413185058287E+03   -0.71895E-04   -0.13705E-03  5831   0.344E-02    0.275E-02
RMM:   7    -0.413185058587E+03   -0.29972E-06   -0.19129E-04  5513   0.146E-02    0.147E-02
RMM:   8    -0.413185048335E+03    0.10252E-04   -0.30273E-05  4664   0.603E-03    0.853E-03
RMM:   9    -0.413185047083E+03    0.12519E-05   -0.72538E-06  3341   0.320E-03    0.668E-03
RMM:  10    -0.413185043677E+03    0.34063E-05   -0.14683E-06  2510   0.213E-03    0.368E-03
RMM:  11    -0.413185040643E+03    0.30337E-05   -0.12107E-06  2504   0.178E-03    0.193E-03
RMM:  12    -0.413185037118E+03    0.35251E-05   -0.93583E-07  2461   0.156E-03    0.102E-03
RMM:  13    -0.413185035777E+03    0.13412E-05   -0.35532E-07  2182   0.105E-03    0.507E-04
RMM:  14    -0.413185034860E+03    0.91651E-06   -0.16773E-07  1577   0.752E-04
   30 T=    65. E= -.41286697E+03 F= -.41318503E+03 E0= -.41316349E+03  EK= 0.31806E+00 SP= 0.00E+00 SK= 0.00E+00
       N       E                     dE             d eps       ncg     rms          rms(c)
RMM:   1    -0.413187375714E+03   -0.23399E-02   -0.90088E+00  4295   0.745E-01    0.912E-01
RMM:   2    -0.413192065576E+03   -0.46899E-02   -0.11364E-01  4273   0.110E-01    0.674E-01
RMM:   3    -0.413186948818E+03    0.51168E-02   -0.21284E-02  4545   0.613E-02    0.798E-02
RMM:   4    -0.413198382359E+03   -0.11434E-01   -0.11510E-02  5138   0.910E-02    0.453E-01
RMM:   5    -0.413186679997E+03    0.11702E-01   -0.58415E-03  4818   0.741E-02    0.430E-02
RMM:   6    -0.413186738099E+03   -0.58102E-04   -0.11422E-03  5835   0.315E-02    0.274E-02
RMM:   7    -0.413186743049E+03   -0.49502E-05   -0.23546E-04  5418   0.158E-02    0.177E-02
RMM:   8    -0.413186727671E+03    0.15378E-04   -0.30767E-05  4695   0.665E-03    0.836E-03
RMM:   9    -0.413186726492E+03    0.11792E-05   -0.55701E-06  3018   0.296E-03    0.599E-03
RMM:  10    -0.413186724552E+03    0.19401E-05   -0.16867E-06  2514   0.213E-03    0.323E-03
RMM:  11    -0.413186722705E+03    0.18467E-05   -0.11227E-06  2496   0.173E-03    0.165E-03
RMM:  12    -0.413186720543E+03    0.21623E-05   -0.72910E-07  2435   0.139E-03    0.893E-04
RMM:  13    -0.413186719327E+03    0.12160E-05   -0.31715E-07  2065   0.966E-04    0.397E-04
RMM:  14    -0.413186718046E+03    0.12810E-05   -0.16995E-07  1526   0.743E-04    0.255E-04
RMM:  15    -0.413186715573E+03    0.24725E-05   -0.12530E-07  1363   0.694E-04    0.139E-04
RMM:  16    -0.413186713277E+03    0.22961E-05   -0.76699E-08  1047   0.632E-04    0.110E-04
RMM:  17    -0.413186711400E+03    0.18775E-05   -0.49306E-08   923   0.595E-04    0.695E-05
RMM:  18    -0.413186708215E+03    0.31845E-05   -0.60218E-08  1053   0.614E-04    0.302E-05
RMM:  19    -0.413186707409E+03    0.80607E-06   -0.21662E-08   768   0.557E-04
   31 T=    65. E= -.41286672E+03 F= -.41318671E+03 E0= -.41316521E+03  EK= 0.31999E+00 SP= 0.00E+00 SK= 0.00E+00
       N       E                     dE             d eps       ncg     rms          rms(c)
RMM:   1    -0.413202836960E+03   -0.16129E-01   -0.91781E+00  4292   0.879E-01    0.933E-01
RMM:   2    -0.413194229241E+03    0.86077E-02   -0.12347E-01  4275   0.121E-01    0.673E-01
RMM:   3    -0.413189370449E+03    0.48588E-02   -0.19112E-02  4398   0.629E-02    0.748E-02
RMM:   4    -0.413195357149E+03   -0.59867E-02   -0.61581E-03  5150   0.661E-02    0.328E-01
RMM:   5    -0.413189308649E+03    0.60485E-02   -0.31139E-03  4828   0.542E-02    0.427E-02
RMM:   6    -0.413189351655E+03   -0.43006E-04   -0.80643E-04  5727   0.268E-02    0.299E-02
RMM:   7    -0.413189334242E+03    0.17413E-04   -0.25247E-04  5218   0.166E-02    0.183E-02
RMM:   8    -0.413189320615E+03    0.13627E-04   -0.24420E-05  4558   0.614E-03    0.794E-03
RMM:   9    -0.413189318164E+03    0.24506E-05   -0.33017E-06  2728   0.242E-03    0.523E-03
RMM:  10    -0.413189313431E+03    0.47333E-05   -0.14081E-06  2507   0.193E-03    0.284E-03
RMM:  11    -0.413189308760E+03    0.46710E-05   -0.96766E-07  2463   0.159E-03    0.131E-03
RMM:  12    -0.413189304742E+03    0.40178E-05   -0.51477E-07  2281   0.119E-03    0.636E-04
RMM:  13    -0.413189302091E+03    0.26509E-05   -0.27899E-07  1901   0.889E-04    0.302E-04
RMM:  14    -0.413189299319E+03    0.27723E-05   -0.14153E-07  1341   0.708E-04    0.194E-04
RMM:  15    -0.413189295609E+03    0.37102E-05   -0.91196E-08  1117   0.654E-04    0.105E-04
RMM:  16    -0.413189292485E+03    0.31240E-05   -0.67893E-08  1065   0.628E-04    0.774E-05
RMM:  17    -0.413189289956E+03    0.25288E-05   -0.50610E-08  1005   0.600E-04    0.499E-05
RMM:  18    -0.413189286514E+03    0.34414E-05   -0.54070E-08  1092   0.603E-04    0.320E-05
RMM:  19    -0.413189285762E+03    0.75224E-06   -0.18601E-08   731   0.536E-04
   32 T=    66. E= -.41286700E+03 F= -.41318929E+03 E0= -.41316784E+03  EK= 0.32228E+00 SP= 0.00E+00 SK= 0.00E+00
       N       E                     dE             d eps       ncg     rms          rms(c)
RMM:   1    -0.413204527958E+03   -0.15241E-01   -0.91729E+00  4298   0.870E-01    0.920E-01
RMM:   2    -0.413195738108E+03    0.87898E-02   -0.13155E-01  4275   0.122E-01    0.670E-01
RMM:   3    -0.413191235011E+03    0.45031E-02   -0.17894E-02  4362   0.627E-02    0.793E-02
RMM:   4    -0.413194384297E+03   -0.31493E-02   -0.34925E-03  5157   0.494E-02    0.238E-01
RMM:   5    -0.413191246097E+03    0.31382E-02   -0.16683E-03  4828   0.399E-02    0.421E-02
RMM:   6    -0.413191280653E+03   -0.34557E-04   -0.61249E-04  5602   0.237E-02    0.313E-02
RMM:   7    -0.413191243143E+03    0.37510E-04   -0.23467E-04  5097   0.161E-02    0.178E-02
RMM:   8    -0.413191234571E+03    0.85719E-05   -0.25982E-05  4588   0.579E-03    0.682E-03
RMM:   9    -0.413191232872E+03    0.16993E-05   -0.27732E-06  2609   0.226E-03    0.421E-03
RMM:  10    -0.413191228842E+03    0.40304E-05   -0.10061E-06  2481   0.164E-03    0.231E-03
RMM:  11    -0.413191224657E+03    0.41850E-05   -0.71609E-07  2401   0.131E-03    0.949E-04
RMM:  12    -0.413191221226E+03    0.34309E-05   -0.35682E-07  2080   0.979E-04    0.420E-04
RMM:  13    -0.413191218234E+03    0.29914E-05   -0.19912E-07  1590   0.781E-04    0.256E-04
RMM:  14    -0.413191215311E+03    0.29233E-05   -0.10283E-07  1110   0.660E-04    0.177E-04
RMM:  15    -0.413191211223E+03    0.40883E-05   -0.86401E-08  1083   0.646E-04    0.835E-05
RMM:  16    -0.413191208284E+03    0.29391E-05   -0.61373E-08  1028   0.617E-04    0.853E-05
RMM:  17    -0.413191205439E+03    0.28443E-05   -0.48049E-08   976   0.596E-04    0.442E-05
RMM:  18    -0.413191203324E+03    0.21152E-05   -0.35717E-08   912   0.567E-04    0.329E-05
RMM:  19    -0.413191202766E+03    0.55842E-06   -0.14605E-08   671   0.525E-04
   33 T=    66. E= -.41286677E+03 F= -.41319120E+03 E0= -.41316980E+03  EK= 0.32443E+00 SP= 0.00E+00 SK= 0.00E+00
       N       E                     dE             d eps       ncg     rms          rms(c)
RMM:   1    -0.413194432771E+03   -0.32294E-02   -0.91808E+00  4302   0.792E-01    0.918E-01
RMM:   2    -0.413198290873E+03   -0.38581E-02   -0.11817E-01  4276   0.124E-01    0.679E-01
RMM:   3    -0.413193729294E+03    0.45616E-02   -0.21188E-02  4396   0.718E-02    0.664E-02
RMM:   4    -0.413198632886E+03   -0.49036E-02   -0.50100E-03  5146   0.603E-02    0.300E-01
RMM:   5    -0.413193611478E+03    0.50214E-02   -0.25756E-03  4829   0.493E-02    0.414E-02
RMM:   6    -0.413193656513E+03   -0.45034E-04   -0.74655E-04  5682   0.252E-02    0.295E-02
RMM:   7    -0.413193638490E+03    0.18023E-04   -0.24847E-04  5187   0.162E-02    0.187E-02
RMM:   8    -0.413193626863E+03    0.11627E-04   -0.22030E-05  4327   0.578E-03    0.756E-03
RMM:   9    -0.413193625736E+03    0.11269E-05   -0.29260E-06  2661   0.232E-03    0.492E-03
RMM:  10    -0.413193624111E+03    0.16244E-05   -0.13641E-06  2485   0.189E-03    0.256E-03
RMM:  11    -0.413193622723E+03    0.13885E-05   -0.86457E-07  2439   0.149E-03    0.121E-03
RMM:  12    -0.413193621014E+03    0.17086E-05   -0.48687E-07  2231   0.114E-03    0.535E-04
RMM:  13    -0.413193619647E+03    0.13667E-05   -0.25730E-07  1841   0.856E-04    0.290E-04
RMM:  14    -0.413193617853E+03    0.17945E-05   -0.13198E-07  1259   0.693E-04    0.208E-04
RMM:  15    -0.413193615269E+03    0.25837E-05   -0.97128E-08  1130   0.652E-04    0.976E-05
RMM:  16    -0.413193613489E+03    0.17804E-05   -0.56087E-08   921   0.609E-04    0.678E-05
RMM:  17    -0.413193610657E+03    0.28313E-05   -0.61891E-08  1071   0.617E-04    0.517E-05
RMM:  18    -0.413193609091E+03    0.15669E-05   -0.32267E-08   851   0.567E-04    0.384E-05
RMM:  19    -0.413193608362E+03    0.72865E-06   -0.15719E-08   691   0.539E-04
   34 T=    67. E= -.41286686E+03 F= -.41319361E+03 E0= -.41317225E+03  EK= 0.32675E+00 SP= 0.00E+00 SK= 0.00E+00
       N       E                     dE             d eps       ncg     rms          rms(c)
RMM:   1    -0.413204081468E+03   -0.10472E-01   -0.93187E+00  4303   0.872E-01    0.936E-01
RMM:   2    -0.413200685205E+03    0.33963E-02   -0.13166E-01  4276   0.132E-01    0.682E-01
RMM:   3    -0.413196344375E+03    0.43408E-02   -0.18789E-02  4261   0.725E-02    0.717E-02
RMM:   4    -0.413196620016E+03   -0.27564E-03   -0.69534E-04  5148   0.191E-02    0.763E-02
RMM:   5    -0.413196404305E+03    0.21571E-03   -0.24274E-04  4837   0.152E-02    0.462E-02
RMM:   6    -0.413196419101E+03   -0.14796E-04   -0.46201E-04  5306   0.207E-02    0.324E-02
RMM:   7    -0.413196365632E+03    0.53469E-04   -0.19616E-04  4797   0.152E-02    0.175E-02
RMM:   8    -0.413196361121E+03    0.45118E-05   -0.31860E-05  4670   0.560E-03    0.598E-03
RMM:   9    -0.413196359967E+03    0.11534E-05   -0.38370E-06  2461   0.215E-03    0.220E-03
RMM:  10    -0.413196354629E+03    0.53381E-05   -0.91579E-07  2322   0.154E-03    0.970E-04
RMM:  11    -0.413196351402E+03    0.32272E-05   -0.26847E-07  1860   0.888E-04    0.526E-04
RMM:  12    -0.413196347361E+03    0.40412E-05   -0.17379E-07  1365   0.746E-04    0.363E-04
RMM:  13    -0.413196343676E+03    0.36849E-05   -0.12298E-07  1250   0.684E-04    0.260E-04
RMM:  14    -0.413196339300E+03    0.43754E-05   -0.10414E-07  1109   0.656E-04    0.154E-04
RMM:  15    -0.413196336181E+03    0.31191E-05   -0.47365E-08   740   0.583E-04    0.110E-04
RMM:  16    -0.413196332073E+03    0.41088E-05   -0.45854E-08   835   0.596E-04    0.664E-05
RMM:  17    -0.413196330492E+03    0.15808E-05   -0.24879E-08   695   0.549E-04    0.621E-05
RMM:  18    -0.413196329699E+03    0.79282E-06   -0.10666E-08   499   0.520E-04
   35 T=    67. E= -.41286709E+03 F= -.41319633E+03 E0= -.41317502E+03  EK= 0.32924E+00 SP= 0.00E+00 SK= 0.00E+00
       N       E                     dE             d eps       ncg     rms          rms(c)
RMM:   1    -0.413202450358E+03   -0.61199E-02   -0.92942E+00  4299   0.884E-01    0.937E-01
RMM:   2    -0.413202689587E+03   -0.23923E-03   -0.12322E-01  4260   0.133E-01    0.676E-01
RMM:   3    -0.413198560410E+03    0.41292E-02   -0.19369E-02  4372   0.727E-02    0.717E-02
RMM:   4    -0.413201612383E+03   -0.30520E-02   -0.32827E-03  5168   0.486E-02    0.237E-01
RMM:   5    -0.413198552634E+03    0.30597E-02   -0.16537E-03  4823   0.398E-02    0.430E-02
RMM:   6    -0.413198585660E+03   -0.33027E-04   -0.63499E-04  5537   0.249E-02    0.330E-02
RMM:   7    -0.413198546991E+03    0.38669E-04   -0.25844E-04  5044   0.169E-02    0.188E-02
RMM:   8    -0.413198538156E+03    0.88350E-05   -0.30653E-05  4797   0.606E-03    0.744E-03
RMM:   9    -0.413198536213E+03    0.19429E-05   -0.37849E-06  2670   0.239E-03    0.403E-03
RMM:  10    -0.413198531125E+03    0.50881E-05   -0.11187E-06  2487   0.178E-03    0.223E-03
RMM:  11    -0.413198526363E+03    0.47618E-05   -0.66080E-07  2383   0.127E-03    0.944E-04
RMM:  12    -0.413198521688E+03    0.46750E-05   -0.35641E-07  2065   0.988E-04    0.386E-04
RMM:  13    -0.413198517620E+03    0.40680E-05   -0.19655E-07  1606   0.787E-04    0.254E-04
RMM:  14    -0.413198514150E+03    0.34699E-05   -0.95601E-08  1100   0.659E-04    0.190E-04
RMM:  15    -0.413198508879E+03    0.52710E-05   -0.80256E-08  1100   0.644E-04    0.842E-05
RMM:  16    -0.413198505384E+03    0.34951E-05   -0.58721E-08  1060   0.614E-04    0.830E-05
RMM:  17    -0.413198502532E+03    0.28521E-05   -0.37704E-08   919   0.579E-04    0.386E-05
RMM:  18    -0.413198499950E+03    0.25822E-05   -0.32996E-08   912   0.566E-04    0.311E-05
RMM:  19    -0.413198499479E+03    0.47085E-06   -0.11497E-08   600   0.515E-04
   36 T=    68. E= -.41286691E+03 F= -.41319850E+03 E0= -.41317724E+03  EK= 0.33159E+00 SP= 0.00E+00 SK= 0.00E+00
       N       E                     dE             d eps       ncg     rms          rms(c)
RMM:   1    -0.413206473591E+03   -0.79736E-02   -0.94015E+00  4307   0.896E-01    0.925E-01
RMM:   2    -0.413206359395E+03    0.11420E-03   -0.12344E-01  4254   0.131E-01    0.683E-01
RMM:   3    -0.413201590712E+03    0.47687E-02   -0.20634E-02  4489   0.713E-02    0.752E-02
RMM:   4    -0.413212272607E+03   -0.10682E-01   -0.10752E-02  5146   0.876E-02    0.439E-01
RMM:   5    -0.413201424767E+03    0.10848E-01   -0.54932E-03  4820   0.725E-02    0.445E-02
RMM:   6    -0.413201444100E+03   -0.19334E-04   -0.11724E-03  5739   0.327E-02    0.311E-02
RMM:   7    -0.413201445244E+03   -0.11436E-05   -0.32225E-04  5327   0.179E-02    0.203E-02
RMM:   8    -0.413201429436E+03    0.15808E-04   -0.35153E-05  4864   0.714E-03    0.920E-03
RMM:   9    -0.413201428234E+03    0.12020E-05   -0.60907E-06  3018   0.305E-03    0.576E-03
RMM:  10    -0.413201426077E+03    0.21572E-05   -0.17159E-06  2531   0.222E-03    0.302E-03
RMM:  11    -0.413201423622E+03    0.24542E-05   -0.11724E-06  2495   0.177E-03    0.151E-03
RMM:  12    -0.413201420910E+03    0.27121E-05   -0.71349E-07  2415   0.138E-03    0.771E-04
RMM:  13    -0.413201419268E+03    0.16420E-05   -0.34038E-07  2039   0.979E-04    0.379E-04
RMM:  14    -0.413201417541E+03    0.17272E-05   -0.17664E-07  1551   0.755E-04    0.235E-04
RMM:  15    -0.413201414673E+03    0.28676E-05   -0.10991E-07  1260   0.677E-04    0.123E-04
RMM:  16    -0.413201412230E+03    0.24435E-05   -0.70982E-08  1040   0.632E-04    0.826E-05
RMM:  17    -0.413201410359E+03    0.18712E-05   -0.44676E-08   934   0.598E-04    0.522E-05
RMM:  18    -0.413201406984E+03    0.33744E-05   -0.52830E-08  1057   0.613E-04    0.269E-05
RMM:  19    -0.413201406049E+03    0.93515E-06   -0.21244E-08   774   0.556E-04
   37 T=    68. E= -.41286719E+03 F= -.41320141E+03 E0= -.41318018E+03  EK= 0.33421E+00 SP= 0.00E+00 SK= 0.00E+00
       N       E                     dE             d eps       ncg     rms          rms(c)
RMM:   1    -0.413211106796E+03   -0.96998E-02   -0.95301E+00  4308   0.943E-01    0.943E-01
RMM:   2    -0.413209044222E+03    0.20626E-02   -0.12849E-01  4251   0.128E-01    0.690E-01
RMM:   3    -0.413204488388E+03    0.45558E-02   -0.20051E-02  4761   0.666E-02    0.112E-01
RMM:   4    -0.413234549904E+03   -0.30062E-01   -0.31216E-02  5132   0.148E-01    0.725E-01
RMM:   5    -0.413203944621E+03    0.30605E-01   -0.15254E-02  4802   0.120E-01    0.516E-02
RMM:   6    -0.413203992760E+03   -0.48138E-04   -0.25736E-03  5827   0.482E-02    0.333E-02
RMM:   7    -0.413204003458E+03   -0.10698E-04   -0.34915E-04  5617   0.182E-02    0.182E-02
RMM:   8    -0.413203994678E+03    0.87799E-05   -0.55660E-05  4974   0.792E-03    0.103E-02
RMM:   9    -0.413203993961E+03    0.71749E-06   -0.18143E-05  4415   0.468E-03    0.783E-03
RMM:  10    -0.413203989128E+03    0.48329E-05   -0.25027E-06  2639   0.264E-03    0.429E-03
RMM:  11    -0.413203986760E+03    0.23673E-05   -0.12829E-06  2508   0.184E-03    0.266E-03
RMM:  12    -0.413203980704E+03    0.60566E-05   -0.19148E-06  2554   0.221E-03    0.136E-03
RMM:  13    -0.413203977788E+03    0.29161E-05   -0.67264E-07  2398   0.145E-03    0.855E-04
RMM:  14    -0.413203977301E+03    0.48718E-06   -0.26526E-07  2025   0.922E-04
   38 T=    69. E= -.41286714E+03 F= -.41320398E+03 E0= -.41318280E+03  EK= 0.33684E+00 SP= 0.00E+00 SK= 0.00E+00
       N       E                     dE             d eps       ncg     rms          rms(c)
RMM:   1    -0.413219763211E+03   -0.15785E-01   -0.96239E+00  4306   0.102E+00    0.954E-01
RMM:   2    -0.413211540954E+03    0.82223E-02   -0.13057E-01  4252   0.126E-01    0.685E-01
RMM:   3    -0.413207214614E+03    0.43263E-02   -0.19235E-02  4878   0.617E-02    0.131E-01
RMM:   4    -0.413243185493E+03   -0.35971E-01   -0.38165E-02  5131   0.163E-01    0.791E-01
RMM:   5    -0.413206511450E+03    0.36674E-01   -0.18158E-02  4793   0.132E-01    0.547E-02
RMM:   6    -0.413206587989E+03   -0.76539E-04   -0.30608E-03  5817   0.524E-02    0.354E-02
RMM:   7    -0.413206595974E+03   -0.79847E-05   -0.40808E-04  5654   0.193E-02    0.192E-02
RMM:   8    -0.413206584475E+03    0.11498E-04   -0.60862E-05  5017   0.818E-03    0.107E-02
RMM:   9    -0.413206582307E+03    0.21680E-05   -0.21219E-05  4538   0.492E-03    0.812E-03
RMM:  10    -0.413206574510E+03    0.77972E-05   -0.30019E-06  2686   0.278E-03    0.451E-03
RMM:  11    -0.413206570322E+03    0.41885E-05   -0.13856E-06  2502   0.193E-03    0.279E-03
RMM:  12    -0.413206559932E+03    0.10390E-04   -0.19139E-06  2546   0.223E-03    0.137E-03
RMM:  13    -0.413206555079E+03    0.48535E-05   -0.71280E-07  2428   0.149E-03    0.883E-04
RMM:  14    -0.413206554406E+03    0.67223E-06   -0.28356E-07  2096   0.956E-04
   39 T=    69. E= -.41286698E+03 F= -.41320655E+03 E0= -.41318541E+03  EK= 0.33958E+00 SP= 0.00E+00 SK= 0.00E+00
       N       E                     dE             d eps       ncg     rms          rms(c)
RMM:   1    -0.413220133353E+03   -0.13578E-01   -0.96512E+00  4308   0.103E+00    0.935E-01
RMM:   2    -0.413215142722E+03    0.49906E-02   -0.13558E-01  4252   0.127E-01    0.689E-01
RMM:   3    -0.413210789761E+03    0.43530E-02   -0.19551E-02  4946   0.658E-02    0.154E-01
RMM:   4    -0.413254063337E+03   -0.43274E-01   -0.47838E-02  5132   0.182E-01    0.866E-01
RMM:   5    -0.413209614244E+03    0.44449E-01   -0.21609E-02  4791   0.144E-01    0.571E-02
RMM:   6    -0.413209729769E+03   -0.11552E-03   -0.36476E-03  5816   0.569E-02    0.359E-02
RMM:   7    -0.413209741906E+03   -0.12137E-04   -0.43853E-04  5683   0.197E-02    0.190E-02
RMM:   8    -0.413209738598E+03    0.33078E-05   -0.61185E-05  4964   0.780E-03    0.104E-02
RMM:   9    -0.413209733666E+03    0.49319E-05   -0.20131E-05  4462   0.467E-03    0.759E-03
RMM:  10    -0.413209730243E+03    0.34239E-05   -0.49870E-06  3004   0.300E-03    0.451E-03
RMM:  11    -0.413209726876E+03    0.33665E-05   -0.16186E-06  2503   0.211E-03    0.275E-03
RMM:  12    -0.413209719045E+03    0.78312E-05   -0.18668E-06  2530   0.219E-03    0.107E-03
RMM:  13    -0.413209715498E+03    0.35464E-05   -0.65667E-07  2432   0.144E-03    0.851E-04
RMM:  14    -0.413209715268E+03    0.22997E-06   -0.27705E-07  2089   0.933E-04
   40 T=    70. E= -.41286720E+03 F= -.41320972E+03 E0= -.41318861E+03  EK= 0.34252E+00 SP= 0.00E+00 SK= 0.00E+00
       N       E                     dE             d eps       ncg     rms          rms(c)
RMM:   1    -0.413217069037E+03   -0.73535E-02   -0.97446E+00  4309   0.104E+00    0.949E-01
RMM:   2    -0.413217510685E+03   -0.44165E-03   -0.13360E-01  4257   0.133E-01    0.699E-01
RMM:   3    -0.413213460104E+03    0.40506E-02   -0.20885E-02  4978   0.693E-02    0.174E-01
RMM:   4    -0.413259074249E+03   -0.45614E-01   -0.52335E-02  5129   0.191E-01    0.891E-01
RMM:   5    -0.413211837660E+03    0.47237E-01   -0.22563E-02  4789   0.148E-01    0.587E-02
RMM:   6    -0.413211968873E+03   -0.13121E-03   -0.38463E-03  5817   0.583E-02    0.363E-02
RMM:   7    -0.413211981991E+03   -0.13118E-04   -0.47385E-04  5736   0.202E-02    0.203E-02
RMM:   8    -0.413211983588E+03   -0.15966E-05   -0.94840E-05  5196   0.969E-03    0.129E-02
RMM:   9    -0.413211973854E+03    0.97338E-05   -0.24164E-05  4601   0.549E-03    0.754E-03
RMM:  10    -0.413211970163E+03    0.36905E-05   -0.39630E-06  2777   0.293E-03    0.453E-03
RMM:  11    -0.413211967349E+03    0.28143E-05   -0.14602E-06  2503   0.202E-03    0.275E-03
RMM:  12    -0.413211960814E+03    0.65350E-05   -0.16803E-06  2529   0.210E-03    0.113E-03
RMM:  13    -0.413211956594E+03    0.42202E-05   -0.71833E-07  2434   0.146E-03    0.772E-04
RMM:  14    -0.413211955897E+03    0.69677E-06   -0.29928E-07  2097   0.964E-04
   41 T=    70. E= -.41286683E+03 F= -.41321196E+03 E0= -.41319088E+03  EK= 0.34513E+00 SP= 0.00E+00 SK= 0.00E+00
       N       E                     dE             d eps       ncg     rms          rms(c)
RMM:   1    -0.413233599745E+03   -0.21643E-01   -0.99172E+00  4311   0.119E+00    0.967E-01
RMM:   2    -0.413219706376E+03    0.13893E-01   -0.14646E-01  4287   0.135E-01    0.697E-01
RMM:   3    -0.413217157380E+03    0.25490E-02   -0.19661E-02  5053   0.738E-02    0.235E-01
RMM:   4    -0.413262449366E+03   -0.45292E-01   -0.57210E-02  5108   0.201E-01    0.897E-01
RMM:   5    -0.413214534864E+03    0.47915E-01   -0.22043E-02  4767   0.149E-01    0.624E-02
RMM:   6    -0.413214648362E+03   -0.11350E-03   -0.38619E-03  5794   0.587E-02    0.381E-02
RMM:   7    -0.413214657957E+03   -0.95954E-05   -0.52130E-04  5736   0.211E-02    0.231E-02
RMM:   8    -0.413214656756E+03    0.12005E-05   -0.13299E-04  5234   0.117E-02    0.145E-02
RMM:   9    -0.413214641347E+03    0.15409E-04   -0.24485E-05  4589   0.600E-03    0.672E-03
RMM:  10    -0.413214635373E+03    0.59740E-05   -0.54272E-06  3018   0.301E-03    0.413E-03
RMM:  11    -0.413214630623E+03    0.47500E-05   -0.13261E-06  2497   0.199E-03    0.240E-03
RMM:  12    -0.413214621258E+03    0.93654E-05   -0.12040E-06  2483   0.186E-03    0.953E-04
RMM:  13    -0.413214615332E+03    0.59260E-05   -0.56471E-07  2388   0.131E-03    0.567E-04
RMM:  14    -0.413214614014E+03    0.13181E-05   -0.27122E-07  2018   0.915E-04    0.391E-04
RMM:  15    -0.413214611264E+03    0.27497E-05   -0.14058E-07  1485   0.721E-04    0.223E-04
RMM:  16    -0.413214603856E+03    0.74082E-05   -0.12698E-07  1515   0.726E-04    0.260E-04
RMM:  17    -0.413214601642E+03    0.22139E-05   -0.56905E-08  1003   0.600E-04    0.168E-04
RMM:  18    -0.413214595981E+03    0.56611E-05   -0.71321E-08  1371   0.645E-04    0.132E-04
RMM:  19    -0.413214593845E+03    0.21357E-05   -0.33687E-08   925   0.555E-04    0.626E-05
RMM:  20    -0.413214592445E+03    0.14000E-05   -0.28237E-08   930   0.558E-04    0.526E-05
RMM:  21    -0.413214592232E+03    0.21265E-06   -0.13918E-08   724   0.524E-04
   42 T=    71. E= -.41286692E+03 F= -.41321459E+03 E0= -.41319355E+03  EK= 0.34767E+00 SP= 0.00E+00 SK= 0.00E+00
       N       E                     dE             d eps       ncg     rms          rms(c)
RMM:   1    -0.413236484515E+03   -0.21892E-01   -0.99235E+00  4311   0.124E+00    0.946E-01
RMM:   2    -0.413222048720E+03    0.14436E-01   -0.15344E-01  4306   0.143E-01    0.696E-01
RMM:   3    -0.413220810562E+03    0.12382E-02   -0.20087E-02  5074   0.822E-02    0.287E-01
RMM:   4    -0.413260776575E+03   -0.39966E-01   -0.57436E-02  5097   0.202E-01    0.860E-01
RMM:   5    -0.413216755360E+03    0.44021E-01   -0.19244E-02  4748   0.142E-01    0.627E-02
RMM:   6    -0.413216837534E+03   -0.82173E-04   -0.35116E-03  5766   0.560E-02    0.376E-02
RMM:   7    -0.413216846671E+03   -0.91372E-05   -0.53221E-04  5726   0.210E-02    0.245E-02
RMM:   8    -0.413216844317E+03    0.23539E-05   -0.13126E-04  5206   0.119E-02    0.134E-02
RMM:   9    -0.413216832170E+03    0.12146E-04   -0.20461E-05  4443   0.573E-03    0.579E-03
RMM:  10    -0.413216828726E+03    0.34445E-05   -0.46590E-06  2900   0.280E-03    0.363E-03
RMM:  11    -0.413216825601E+03    0.31250E-05   -0.13088E-06  2500   0.192E-03    0.201E-03
RMM:  12    -0.413216820072E+03    0.55290E-05   -0.10098E-06  2479   0.167E-03    0.780E-04
RMM:  13    -0.413216816466E+03    0.36055E-05   -0.48926E-07  2322   0.120E-03    0.416E-04
RMM:  14    -0.413216815110E+03    0.13568E-05   -0.24544E-07  1887   0.868E-04    0.290E-04
RMM:  15    -0.413216812286E+03    0.28240E-05   -0.14275E-07  1454   0.721E-04    0.141E-04
RMM:  16    -0.413216808610E+03    0.36760E-05   -0.96353E-08  1180   0.669E-04    0.122E-04
RMM:  17    -0.413216806358E+03    0.22512E-05   -0.64592E-08  1089   0.632E-04    0.852E-05
RMM:  18    -0.413216803673E+03    0.26857E-05   -0.56838E-08  1154   0.625E-04    0.563E-05
RMM:  19    -0.413216801214E+03    0.24590E-05   -0.42287E-08  1075   0.594E-04    0.355E-05
RMM:  20    -0.413216800403E+03    0.81074E-06   -0.21166E-08   805   0.546E-04
   43 T=    71. E= -.41286700E+03 F= -.41321680E+03 E0= -.41319579E+03  EK= 0.34980E+00 SP= 0.00E+00 SK= 0.00E+00
       N       E                     dE             d eps       ncg     rms          rms(c)
RMM:   1    -0.413236941925E+03   -0.20141E-01   -0.10048E+01  4314   0.128E+00    0.948E-01
RMM:   2    -0.413223855570E+03    0.13086E-01   -0.16200E-01  4313   0.154E-01    0.709E-01
RMM:   3    -0.413223288582E+03    0.56699E-03   -0.20936E-02  5070   0.891E-02    0.321E-01
RMM:   4    -0.413261843045E+03   -0.38554E-01   -0.59558E-02  5093   0.207E-01    0.856E-01
RMM:   5    -0.413218143695E+03    0.43699E-01   -0.18597E-02  4726   0.142E-01    0.636E-02
RMM:   6    -0.413218221101E+03   -0.77406E-04   -0.34382E-03  5740   0.555E-02    0.366E-02
RMM:   7    -0.413218227395E+03   -0.62940E-05   -0.51757E-04  5760   0.208E-02    0.243E-02
RMM:   8    -0.413218225178E+03    0.22168E-05   -0.13101E-04  5191   0.119E-02    0.129E-02
RMM:   9    -0.413218215102E+03    0.10076E-04   -0.20671E-05  4461   0.578E-03    0.525E-03
RMM:  10    -0.413218212943E+03    0.21584E-05   -0.46351E-06  2883   0.273E-03    0.334E-03
RMM:  11    -0.413218210537E+03    0.24067E-05   -0.13559E-06  2503   0.191E-03    0.181E-03
RMM:  12    -0.413218206727E+03    0.38097E-05   -0.88985E-07  2469   0.156E-03    0.722E-04
RMM:  13    -0.413218204106E+03    0.26210E-05   -0.44246E-07  2213   0.112E-03    0.343E-04
RMM:  14    -0.413218202469E+03    0.16366E-05   -0.23181E-07  1753   0.835E-04    0.223E-04
RMM:  15    -0.413218199145E+03    0.33246E-05   -0.16137E-07  1386   0.736E-04    0.123E-04
RMM:  16    -0.413218196987E+03    0.21573E-05   -0.98124E-08  1185   0.666E-04    0.941E-05
RMM:  17    -0.413218194840E+03    0.21475E-05   -0.73336E-08  1146   0.639E-04    0.598E-05
RMM:  18    -0.413218192333E+03    0.25069E-05   -0.58866E-08  1135   0.623E-04    0.352E-05
RMM:  19    -0.413218190518E+03    0.18146E-05   -0.39298E-08  1009   0.584E-04    0.280E-05
RMM:  20    -0.413218189873E+03    0.64509E-06   -0.20375E-08   796   0.547E-04
   44 T=    72. E= -.41286680E+03 F= -.41321819E+03 E0= -.41319720E+03  EK= 0.35139E+00 SP= 0.00E+00 SK= 0.00E+00
       N       E                     dE             d eps       ncg     rms          rms(c)
RMM:   1    -0.413250603082E+03   -0.32413E-01   -0.10167E+01  4312   0.142E+00    0.973E-01
RMM:   2    -0.413224843265E+03    0.25760E-01   -0.16386E-01  4315   0.164E-01    0.705E-01
RMM:   3    -0.413227555292E+03   -0.27120E-02   -0.22725E-02  5100   0.101E-01    0.395E-01
RMM:   4    -0.413250977365E+03   -0.23422E-01   -0.50715E-02  5060   0.193E-01    0.729E-01
RMM:   5    -0.413219818964E+03    0.31158E-01   -0.12151E-02  4684   0.121E-01    0.617E-02
RMM:   6    -0.413219830311E+03   -0.11347E-04   -0.24434E-03  5665   0.475E-02    0.366E-02
RMM:   7    -0.413219826697E+03    0.36145E-05   -0.41604E-04  5644   0.196E-02    0.239E-02
RMM:   8    -0.413219819400E+03    0.72962E-05   -0.12084E-04  5102   0.119E-02    0.116E-02
RMM:   9    -0.413219807173E+03    0.12227E-04   -0.16440E-05  4320   0.558E-03    0.475E-03
RMM:  10    -0.413219803095E+03    0.40786E-05   -0.35230E-06  2786   0.248E-03    0.288E-03
RMM:  11    -0.413219797916E+03    0.51791E-05   -0.11993E-06  2491   0.181E-03    0.155E-03
RMM:  12    -0.413219791433E+03    0.64831E-05   -0.70431E-07  2437   0.142E-03    0.643E-04
RMM:  13    -0.413219787688E+03    0.37450E-05   -0.34278E-07  2026   0.100E-03    0.308E-04
RMM:  14    -0.413219784714E+03    0.29731E-05   -0.19193E-07  1603   0.785E-04    0.192E-04
RMM:  15    -0.413219779222E+03    0.54921E-05   -0.14094E-07  1361   0.724E-04    0.133E-04
RMM:  16    -0.413219776571E+03    0.26512E-05   -0.84717E-08  1152   0.655E-04    0.915E-05
RMM:  17    -0.413219772442E+03    0.41292E-05   -0.79607E-08  1318   0.656E-04    0.551E-05
RMM:  18    -0.413219769927E+03    0.25147E-05   -0.49482E-08  1052   0.590E-04    0.422E-05
RMM:  19    -0.413219767845E+03    0.20825E-05   -0.37146E-08   993   0.571E-04    0.232E-05
RMM:  20    -0.413219767510E+03    0.33468E-06   -0.17843E-08   730   0.530E-04
   45 T=    72. E= -.41286714E+03 F= -.41321977E+03 E0= -.41319880E+03  EK= 0.35263E+00 SP= 0.00E+00 SK= 0.00E+00
       N       E                     dE             d eps       ncg     rms          rms(c)
RMM:   1    -0.413246525644E+03   -0.26758E-01   -0.10058E+01  4312   0.148E+00    0.957E-01
RMM:   2    -0.413224925993E+03    0.21600E-01   -0.15814E-01  4328   0.173E-01    0.699E-01
RMM:   3    -0.413230530271E+03   -0.56043E-02   -0.25221E-02  5110   0.114E-01    0.452E-01
RMM:   4    -0.413244341507E+03   -0.13811E-01   -0.46993E-02  5046   0.188E-01    0.647E-01
RMM:   5    -0.413219916594E+03    0.24425E-01   -0.87411E-03  4649   0.108E-01    0.592E-02
RMM:   6    -0.413219889225E+03    0.27369E-04   -0.18764E-03  5564   0.418E-02    0.344E-02
RMM:   7    -0.413219883822E+03    0.54030E-05   -0.34706E-04  5571   0.182E-02    0.226E-02
RMM:   8    -0.413219874047E+03    0.97756E-05   -0.12129E-04  5073   0.118E-02    0.108E-02
RMM:   9    -0.413219862445E+03    0.11602E-04   -0.14629E-05  4214   0.538E-03    0.448E-03
RMM:  10    -0.413219858972E+03    0.34727E-05   -0.28252E-06  2706   0.232E-03    0.262E-03
RMM:  11    -0.413219854013E+03    0.49586E-05   -0.11576E-06  2488   0.176E-03    0.138E-03
RMM:  12    -0.413219848413E+03    0.56008E-05   -0.64987E-07  2406   0.135E-03    0.639E-04
RMM:  13    -0.413219844982E+03    0.34306E-05   -0.31193E-07  1917   0.953E-04    0.305E-04
RMM:  14    -0.413219841895E+03    0.30867E-05   -0.17925E-07  1485   0.758E-04    0.176E-04
RMM:  15    -0.413219836909E+03    0.49863E-05   -0.13987E-07  1329   0.717E-04    0.129E-04
RMM:  16    -0.413219834422E+03    0.24864E-05   -0.86100E-08  1148   0.650E-04    0.881E-05
RMM:  17    -0.413219829832E+03    0.45908E-05   -0.89190E-08  1375   0.663E-04    0.619E-05
RMM:  18    -0.413219827984E+03    0.18477E-05   -0.46267E-08   983   0.569E-04    0.377E-05
RMM:  19    -0.413219826370E+03    0.16136E-05   -0.35046E-08   933   0.554E-04    0.208E-05
RMM:  20    -0.413219825977E+03    0.39299E-06   -0.18691E-08   722   0.520E-04
   46 T=    72. E= -.41286696E+03 F= -.41321983E+03 E0= -.41319888E+03  EK= 0.35286E+00 SP= 0.00E+00 SK= 0.00E+00
       N       E                     dE             d eps       ncg     rms          rms(c)
RMM:   1    -0.413235096307E+03   -0.15270E-01   -0.10005E+01  4312   0.149E+00    0.948E-01
RMM:   2    -0.413224662080E+03    0.10434E-01   -0.15549E-01  4354   0.179E-01    0.709E-01
RMM:   3    -0.413232500808E+03   -0.78387E-02   -0.28387E-02  5099   0.126E-01    0.495E-01
RMM:   4    -0.413242157708E+03   -0.96569E-02   -0.48191E-02  5030   0.192E-01    0.624E-01
RMM:   5    -0.413219339667E+03    0.22818E-01   -0.76996E-03  4613   0.104E-01    0.583E-02
RMM:   6    -0.413219296016E+03    0.43651E-04   -0.16780E-03  5477   0.397E-02    0.323E-02
RMM:   7    -0.413219294305E+03    0.17107E-05   -0.30741E-04  5580   0.173E-02    0.216E-02
RMM:   8    -0.413219286627E+03    0.76789E-05   -0.12447E-04  5081   0.118E-02    0.103E-02
RMM:   9    -0.413219275864E+03    0.10763E-04   -0.14029E-05  4152   0.533E-03    0.430E-03
RMM:  10    -0.413219273678E+03    0.21854E-05   -0.28956E-06  2711   0.229E-03    0.248E-03
RMM:  11    -0.413219270296E+03    0.33823E-05   -0.11980E-06  2494   0.177E-03    0.128E-03
RMM:  12    -0.413219266752E+03    0.35439E-05   -0.64981E-07  2388   0.133E-03    0.651E-04
RMM:  13    -0.413219264172E+03    0.25802E-05   -0.32003E-07  1869   0.950E-04    0.311E-04
RMM:  14    -0.413219261617E+03    0.25554E-05   -0.18873E-07  1437   0.760E-04    0.172E-04
RMM:  15    -0.413219258165E+03    0.34512E-05   -0.15338E-07  1366   0.723E-04    0.123E-04
RMM:  16    -0.413219256151E+03    0.20142E-05   -0.94357E-08  1203   0.651E-04    0.906E-05
RMM:  17    -0.413219252314E+03    0.38372E-05   -0.10279E-07  1401   0.670E-04    0.634E-05
RMM:  18    -0.413219251103E+03    0.12113E-05   -0.45321E-08   929   0.554E-04    0.390E-05
RMM:  19    -0.413219249991E+03    0.11116E-05   -0.30950E-08   878   0.537E-04    0.206E-05
RMM:  20    -0.413219249302E+03    0.68893E-06   -0.21473E-08   774   0.520E-04
   47 T=    72. E= -.41286705E+03 F= -.41321925E+03 E0= -.41319831E+03  EK= 0.35220E+00 SP= 0.00E+00 SK= 0.00E+00
       N       E                     dE             d eps       ncg     rms          rms(c)
RMM:   1    -0.413251304544E+03   -0.32055E-01   -0.10118E+01  4306   0.167E+00    0.964E-01
RMM:   2    -0.413222987687E+03    0.28317E-01   -0.17607E-01  4409   0.197E-01    0.708E-01
RMM:   3    -0.413236248883E+03   -0.13261E-01   -0.30055E-02  5126   0.140E-01    0.593E-01
RMM:   4    -0.413233859828E+03    0.23891E-02   -0.44842E-02  5003   0.188E-01    0.531E-01
RMM:   5    -0.413217869084E+03    0.15991E-01   -0.53809E-03  4562   0.945E-02    0.591E-02
RMM:   6    -0.413217784437E+03    0.84646E-04   -0.10372E-03  5160   0.335E-02    0.318E-02
RMM:   7    -0.413217778251E+03    0.61867E-05   -0.21809E-04  5557   0.147E-02    0.191E-02
RMM:   8    -0.413217774758E+03    0.34925E-05   -0.13882E-04  5168   0.121E-02    0.120E-02
RMM:   9    -0.413217758511E+03    0.16247E-04   -0.18984E-05  4457   0.603E-03    0.446E-03
RMM:  10    -0.413217755565E+03    0.29460E-05   -0.33622E-06  2745   0.241E-03    0.245E-03
RMM:  11    -0.413217749666E+03    0.58990E-05   -0.14062E-06  2463   0.192E-03    0.130E-03
RMM:  12    -0.413217745642E+03    0.40238E-05   -0.61843E-07  2357   0.136E-03    0.765E-04
RMM:  13    -0.413217741455E+03    0.41875E-05   -0.30841E-07  1828   0.967E-04    0.385E-04
RMM:  14    -0.413217737203E+03    0.42515E-05   -0.17115E-07  1455   0.755E-04    0.211E-04
RMM:  15    -0.413217733267E+03    0.39359E-05   -0.11852E-07  1229   0.680E-04    0.137E-04
RMM:  16    -0.413217730585E+03    0.26822E-05   -0.81089E-08  1133   0.624E-04    0.115E-04
RMM:  17    -0.413217726701E+03    0.38843E-05   -0.78424E-08  1197   0.622E-04    0.604E-05
RMM:  18    -0.413217724502E+03    0.21981E-05   -0.43439E-08   936   0.563E-04    0.548E-05
RMM:  19    -0.413217723738E+03    0.76436E-06   -0.22510E-08   699   0.516E-04
   48 T=    71. E= -.41286729E+03 F= -.41321772E+03 E0= -.41319680E+03  EK= 0.35043E+00 SP= 0.00E+00 SK= 0.00E+00
       N       E                     dE             d eps       ncg     rms          rms(c)
RMM:   1    -0.413247966286E+03   -0.30242E-01   -0.99633E+00  4305   0.179E+00    0.956E-01
RMM:   2    -0.413219206309E+03    0.28760E-01   -0.17128E-01  4453   0.208E-01    0.697E-01
[...]
RMM:  12    -0.413120415212E+03   -0.43328E-05   -0.22788E-06  2686   0.247E-03    0.170E-03
RMM:  13    -0.413120416551E+03   -0.13390E-05   -0.88632E-07  2449   0.149E-03    0.949E-04
RMM:  14    -0.413120417276E+03   -0.72540E-06   -0.82199E-07  2347   0.132E-03
  138 T=    48. E= -.41288534E+03 F= -.41312042E+03 E0= -.41310089E+03  EK= 0.23508E+00 SP= 0.00E+00 SK= 0.00E+00
       N       E                     dE             d eps       ncg     rms          rms(c)
RMM:   1    -0.413125996118E+03   -0.55796E-02   -0.37384E+00  4306   0.388E+00    0.949E-01
RMM:   2    -0.413133057972E+03   -0.70619E-02   -0.10657E-01  5347   0.390E-01    0.841E-01
RMM:   3    -0.413148700765E+03   -0.15643E-01   -0.50841E-02  5365   0.231E-01    0.927E-01
RMM:   4    -0.413123779949E+03    0.24921E-01   -0.38598E-02  5167   0.221E-01    0.387E-01
RMM:   5    -0.413122447954E+03    0.13320E-02   -0.26698E-02  5073   0.195E-01    0.191E-01
RMM:   6    -0.413120447299E+03    0.20007E-02   -0.82847E-03  5148   0.111E-01    0.938E-02
RMM:   7    -0.413120129459E+03    0.31784E-03   -0.59426E-04  4499   0.390E-02    0.401E-02
RMM:   8    -0.413120133358E+03   -0.38992E-05   -0.32796E-04  5534   0.212E-02    0.220E-02
RMM:   9    -0.413120150388E+03   -0.17030E-04   -0.85448E-05  5418   0.112E-02    0.125E-02
RMM:  10    -0.413120156522E+03   -0.61334E-05   -0.17628E-05  4488   0.554E-03    0.576E-03
RMM:  11    -0.413120167103E+03   -0.10581E-04   -0.14061E-05  4214   0.471E-03    0.396E-03
RMM:  12    -0.413120173729E+03   -0.66267E-05   -0.32815E-06  2836   0.284E-03    0.233E-03
RMM:  13    -0.413120176577E+03   -0.28478E-05   -0.18124E-06  2650   0.193E-03    0.120E-03
RMM:  14    -0.413120177883E+03   -0.13064E-05   -0.16076E-06  2522   0.170E-03    0.685E-04
RMM:  15    -0.413120177427E+03    0.45609E-06   -0.15347E-06  2441   0.153E-03
  139 T=    48. E= -.41288273E+03 F= -.41312018E+03 E0= -.41310052E+03  EK= 0.23745E+00 SP= 0.00E+00 SK= 0.00E+00
       N       E                     dE             d eps       ncg     rms          rms(c)
RMM:   1    -0.413049835991E+03    0.70342E-01   -0.24396E+00  4307   0.316E+00    0.603E-01
RMM:   2    -0.413054651632E+03   -0.48156E-02   -0.63596E-02  5333   0.295E-01    0.548E-01
RMM:   3    -0.413060174439E+03   -0.55228E-02   -0.21618E-02  5432   0.153E-01    0.595E-01
RMM:   4    -0.413050036364E+03    0.10138E-01   -0.13395E-02  5122   0.132E-01    0.264E-01
RMM:   5    -0.413050139768E+03   -0.10340E-03   -0.11748E-02  5077   0.129E-01    0.145E-01
RMM:   6    -0.413049080278E+03    0.10595E-02   -0.42440E-03  5119   0.784E-02    0.707E-02
RMM:   7    -0.413048902375E+03    0.17790E-03   -0.38268E-04  4706   0.300E-02    0.314E-02
RMM:   8    -0.413048914933E+03   -0.12559E-04   -0.20906E-04  5658   0.164E-02    0.185E-02
RMM:   9    -0.413048927118E+03   -0.12185E-04   -0.46393E-05  5065   0.862E-03    0.869E-03
RMM:  10    -0.413048932942E+03   -0.58238E-05   -0.12526E-05  4208   0.473E-03    0.400E-03
RMM:  11    -0.413048939671E+03   -0.67287E-05   -0.60441E-06  3337   0.344E-03    0.306E-03
RMM:  12    -0.413048943908E+03   -0.42368E-05   -0.22240E-06  2697   0.234E-03    0.168E-03
RMM:  13    -0.413048945635E+03   -0.17270E-05   -0.15189E-06  2561   0.169E-03    0.923E-04
RMM:  14    -0.413048945695E+03   -0.60063E-07   -0.12200E-06  2366   0.143E-03
  140 T=    35. E= -.41287602E+03 F= -.41304895E+03 E0= -.41302919E+03  EK= 0.17293E+00 SP= 0.00E+00 SK= 0.00E+00
       N       E                     dE             d eps       ncg     rms          rms(c)
RMM:   1    -0.413001447309E+03    0.47498E-01   -0.69263E-01  4305   0.172E+00    0.221E-01
RMM:   2    -0.413003495443E+03   -0.20481E-02   -0.15604E-02  5186   0.153E-01    0.223E-01
RMM:   3    -0.413003075681E+03    0.41976E-03   -0.33942E-03  5623   0.637E-02    0.204E-01
RMM:   4    -0.413002231329E+03    0.84435E-03   -0.14066E-03  5098   0.449E-02    0.106E-01
RMM:   5    -0.413002383632E+03   -0.15230E-03   -0.20686E-03  5025   0.536E-02    0.664E-02
RMM:   6    -0.413002117530E+03    0.26610E-03   -0.69453E-04  4965   0.327E-02    0.258E-02
RMM:   7    -0.413002109093E+03    0.84371E-05   -0.97025E-05  5475   0.127E-02    0.133E-02
RMM:   8    -0.413002113622E+03   -0.45291E-05   -0.22115E-05  4810   0.586E-03    0.807E-03
RMM:   9    -0.413002118520E+03   -0.48978E-05   -0.74923E-06  3510   0.396E-03    0.301E-03
RMM:  10    -0.413002119970E+03   -0.14494E-05   -0.19567E-06  2607   0.232E-03    0.169E-03
RMM:  11    -0.413002121353E+03   -0.13833E-05   -0.12626E-06  2532   0.177E-03    0.117E-03
RMM:  12    -0.413002121844E+03   -0.49122E-06   -0.89798E-07  2421   0.140E-03
  141 T=    26. E= -.41287301E+03 F= -.41300212E+03 E0= -.41298235E+03  EK= 0.12911E+00 SP= 0.00E+00 SK= 0.00E+00
       N       E                     dE             d eps       ncg     rms          rms(c)
RMM:   1    -0.413026623539E+03   -0.24502E-01   -0.46651E-01  4298   0.144E+00    0.274E-01
RMM:   2    -0.413027300491E+03   -0.67695E-03   -0.10771E-02  4989   0.146E-01    0.248E-01
RMM:   3    -0.413029252776E+03   -0.19523E-02   -0.44818E-03  5549   0.694E-02    0.281E-01
RMM:   4    -0.413026789338E+03    0.24634E-02   -0.29792E-03  5094   0.609E-02    0.125E-01
RMM:   5    -0.413026670509E+03    0.11883E-03   -0.11423E-03  4787   0.463E-02    0.378E-02
RMM:   6    -0.413026590966E+03    0.79543E-04   -0.41948E-04  5183   0.247E-02    0.209E-02
RMM:   7    -0.413026573491E+03    0.17475E-04   -0.51941E-05  4712   0.102E-02    0.987E-03
RMM:   8    -0.413026571829E+03    0.16619E-05   -0.11851E-05  3985   0.445E-03    0.596E-03
RMM:   9    -0.413026571399E+03    0.43015E-06   -0.47479E-06  3137   0.323E-03
  142 T=    31. E= -.41287482E+03 F= -.41302657E+03 E0= -.41300686E+03  EK= 0.15175E+00 SP= 0.00E+00 SK= 0.00E+00
       N       E                     dE             d eps       ncg     rms          rms(c)
RMM:   1    -0.413096290896E+03   -0.69719E-01   -0.19137E+00  4306   0.284E+00    0.547E-01
RMM:   2    -0.413096670316E+03   -0.37942E-03   -0.42082E-02  5148   0.269E-01    0.467E-01
RMM:   3    -0.413098402757E+03   -0.17324E-02   -0.10108E-02  5248   0.120E-01    0.337E-01
RMM:   4    -0.413109649015E+03   -0.11246E-01   -0.19384E-02  5270   0.131E-01    0.508E-01
RMM:   5    -0.413095685994E+03    0.13963E-01   -0.86755E-03  4779   0.114E-01    0.577E-02
RMM:   6    -0.413095655379E+03    0.30615E-04   -0.19339E-03  5763   0.488E-02    0.375E-02
RMM:   7    -0.413095604560E+03    0.50820E-04   -0.35929E-04  5425   0.206E-02    0.208E-02
RMM:   8    -0.413095598641E+03    0.59186E-05   -0.83598E-05  5579   0.104E-02    0.126E-02
RMM:   9    -0.413095594076E+03    0.45655E-05   -0.20061E-05  4593   0.574E-03    0.672E-03
RMM:  10    -0.413095596442E+03   -0.23663E-05   -0.58054E-06  3247   0.363E-03    0.314E-03
RMM:  11    -0.413095598923E+03   -0.24808E-05   -0.17107E-06  2580   0.221E-03    0.172E-03
RMM:  12    -0.413095603117E+03   -0.41939E-05   -0.14946E-06  2590   0.191E-03    0.101E-03
RMM:  13    -0.413095606644E+03   -0.35274E-05   -0.93657E-07  2401   0.144E-03    0.695E-04
RMM:  14    -0.413095610294E+03   -0.36498E-05   -0.79224E-07  2309   0.127E-03    0.343E-04
RMM:  15    -0.413095613165E+03   -0.28713E-05   -0.59633E-07  2116   0.106E-03    0.208E-04
RMM:  16    -0.413095615320E+03   -0.21550E-05   -0.41948E-07  1919   0.892E-04    0.139E-04
RMM:  17    -0.413095617194E+03   -0.18743E-05   -0.31213E-07  1730   0.799E-04    0.866E-05
RMM:  18    -0.413095618701E+03   -0.15067E-05   -0.18632E-07  1426   0.687E-04    0.529E-05
RMM:  19    -0.413095619750E+03   -0.10493E-05   -0.11232E-07  1225   0.627E-04    0.344E-05
RMM:  20    -0.413095620457E+03   -0.70671E-06   -0.62385E-08  1043   0.579E-04
  143 T=    44. E= -.41287920E+03 F= -.41309562E+03 E0= -.41307605E+03  EK= 0.21642E+00 SP= 0.00E+00 SK= 0.00E+00
       N       E                     dE             d eps       ncg     rms          rms(c)
RMM:   1    -0.413144631745E+03   -0.49012E-01   -0.37602E+00  4306   0.389E+00    0.810E-01
RMM:   2    -0.413143157755E+03    0.14740E-02   -0.81057E-02  5176   0.379E-01    0.702E-01
RMM:   3    -0.413160150440E+03   -0.16993E-01   -0.30660E-02  5370   0.188E-01    0.714E-01
RMM:   4    -0.413148884968E+03    0.11265E-01   -0.30622E-02  5151   0.178E-01    0.449E-01
RMM:   5    -0.413141509957E+03    0.73750E-02   -0.12130E-02  4753   0.146E-01    0.111E-01
RMM:   6    -0.413141000834E+03    0.50912E-03   -0.27202E-03  5325   0.646E-02    0.602E-02
RMM:   7    -0.413140784637E+03    0.21620E-03   -0.41691E-04  4623   0.289E-02    0.282E-02
RMM:   8    -0.413140765683E+03    0.18954E-04   -0.18127E-04  5538   0.165E-02    0.162E-02
RMM:   9    -0.413140759757E+03    0.59259E-05   -0.43880E-05  5344   0.784E-03    0.100E-02
RMM:  10    -0.413140762113E+03   -0.23557E-05   -0.11153E-05  4103   0.453E-03    0.397E-03
RMM:  11    -0.413140769577E+03   -0.74638E-05   -0.51965E-06  3147   0.337E-03    0.292E-03
RMM:  12    -0.413140776138E+03   -0.65617E-05   -0.15693E-06  2587   0.214E-03    0.158E-03
RMM:  13    -0.413140784751E+03   -0.86127E-05   -0.14669E-06  2605   0.184E-03    0.893E-04
RMM:  14    -0.413140793852E+03   -0.91014E-05   -0.13841E-06  2542   0.162E-03    0.477E-04
RMM:  15    -0.413140799517E+03   -0.56650E-05   -0.79559E-07  2155   0.117E-03    0.324E-04
RMM:  16    -0.413140806875E+03   -0.73581E-05   -0.11873E-06  2491   0.138E-03    0.209E-04
RMM:  17    -0.413140810466E+03   -0.35901E-05   -0.52540E-07  1724   0.908E-04    0.137E-04
RMM:  18    -0.413140813645E+03   -0.31798E-05   -0.34968E-07  1763   0.830E-04    0.882E-05
RMM:  19    -0.413140815736E+03   -0.20903E-05   -0.17946E-07  1438   0.678E-04    0.665E-05
RMM:  20    -0.413140817131E+03   -0.13953E-05   -0.92207E-08  1140   0.596E-04    0.431E-05
RMM:  21    -0.413140818084E+03   -0.95357E-06   -0.54752E-08  1031   0.568E-04
  144 T=    52. E= -.41288400E+03 F= -.41314082E+03 E0= -.41312142E+03  EK= 0.25682E+00 SP= 0.00E+00 SK= 0.00E+00
       N       E                     dE             d eps       ncg     rms          rms(c)
RMM:   1    -0.413106060615E+03    0.34757E-01   -0.40675E+00  4305   0.397E+00    0.969E-01
RMM:   2    -0.413106348535E+03   -0.28792E-03   -0.92144E-02  5222   0.410E-01    0.857E-01
RMM:   3    -0.413132530441E+03   -0.26182E-01   -0.46728E-02  5400   0.220E-01    0.969E-01
RMM:   4    -0.413104702842E+03    0.27828E-01   -0.37897E-02  5068   0.217E-01    0.389E-01
RMM:   5    -0.413101749062E+03    0.29538E-02   -0.14358E-02  4841   0.158E-01    0.137E-01
RMM:   6    -0.413101049563E+03    0.69950E-03   -0.29966E-03  5273   0.687E-02    0.633E-02
RMM:   7    -0.413100848166E+03    0.20140E-03   -0.42129E-04  4608   0.295E-02    0.315E-02
RMM:   8    -0.413100818400E+03    0.29767E-04   -0.18820E-04  5348   0.175E-02    0.161E-02
RMM:   9    -0.413100812456E+03    0.59442E-05   -0.54661E-05  5469   0.866E-03    0.970E-03
RMM:  10    -0.413100814527E+03   -0.20712E-05   -0.11335E-05  3962   0.433E-03    0.474E-03
RMM:  11    -0.413100822392E+03   -0.78653E-05   -0.44145E-06  2998   0.329E-03    0.281E-03
RMM:  12    -0.413100829790E+03   -0.73982E-05   -0.17960E-06  2626   0.222E-03    0.146E-03
RMM:  13    -0.413100838233E+03   -0.84426E-05   -0.13907E-06  2588   0.181E-03    0.846E-04
RMM:  14    -0.413100846269E+03   -0.80357E-05   -0.10831E-06  2470   0.147E-03    0.544E-04
RMM:  15    -0.413100853991E+03   -0.77225E-05   -0.10208E-06  2426   0.134E-03    0.333E-04
RMM:  16    -0.413100862437E+03   -0.84459E-05   -0.13907E-06  2493   0.145E-03    0.204E-04
RMM:  17    -0.413100866055E+03   -0.36180E-05   -0.54460E-07  1804   0.934E-04    0.136E-04
RMM:  18    -0.413100869378E+03   -0.33227E-05   -0.36439E-07  1785   0.838E-04    0.972E-05
RMM:  19    -0.413100871606E+03   -0.22280E-05   -0.19647E-07  1434   0.696E-04    0.631E-05
RMM:  20    -0.413100873010E+03   -0.14045E-05   -0.11022E-07  1192   0.619E-04    0.540E-05
RMM:  21    -0.413100873803E+03   -0.79248E-06   -0.64740E-08  1065   0.580E-04
  145 T=    45. E= -.41288122E+03 F= -.41310087E+03 E0= -.41308167E+03  EK= 0.21965E+00 SP= 0.00E+00 SK= 0.00E+00
       N       E                     dE             d eps       ncg     rms          rms(c)
RMM:   1    -0.413037761565E+03    0.63111E-01   -0.21550E+00  4298   0.298E+00    0.615E-01
RMM:   2    -0.413040784014E+03   -0.30224E-02   -0.45828E-02  5235   0.286E-01    0.552E-01
RMM:   3    -0.413048844959E+03   -0.80609E-02   -0.20054E-02  5491   0.145E-01    0.613E-01
RMM:   4    -0.413038806612E+03    0.10038E-01   -0.14603E-02  5073   0.138E-01    0.250E-01
RMM:   5    -0.413038019322E+03    0.78729E-03   -0.63693E-03  4826   0.106E-01    0.924E-02
RMM:   6    -0.413037685530E+03    0.33379E-03   -0.15566E-03  5184   0.490E-02    0.428E-02
RMM:   7    -0.413037589657E+03    0.95873E-04   -0.19248E-04  4591   0.202E-02    0.211E-02
RMM:   8    -0.413037578623E+03    0.11033E-04   -0.77587E-05  5245   0.114E-02    0.991E-03
RMM:   9    -0.413037576563E+03    0.20609E-05   -0.22073E-05  4772   0.557E-03    0.587E-03
RMM:  10    -0.413037577878E+03   -0.13158E-05   -0.37520E-06  2883   0.285E-03    0.318E-03
RMM:  11    -0.413037581622E+03   -0.37441E-05   -0.19868E-06  2631   0.229E-03    0.164E-03
RMM:  12    -0.413037585464E+03   -0.38413E-05   -0.10679E-06  2515   0.172E-03    0.917E-04
RMM:  13    -0.413037588895E+03   -0.34319E-05   -0.65082E-07  2390   0.126E-03    0.557E-04
RMM:  14    -0.413037593252E+03   -0.43566E-05   -0.62320E-07  2268   0.116E-03    0.343E-04
RMM:  15    -0.413037598111E+03   -0.48593E-05   -0.70279E-07  2287   0.112E-03    0.219E-04
RMM:  16    -0.413037601420E+03   -0.33090E-05   -0.44349E-07  1872   0.904E-04    0.136E-04
RMM:  17    -0.413037605322E+03   -0.39021E-05   -0.50764E-07  2051   0.948E-04    0.111E-04
RMM:  18    -0.413037606604E+03   -0.12818E-05   -0.17173E-07  1292   0.662E-04    0.669E-05
RMM:  19    -0.413037608463E+03   -0.18591E-05   -0.13614E-07  1291   0.649E-04    0.429E-05
RMM:  20    -0.413037609048E+03   -0.58497E-06   -0.66006E-08  1030   0.579E-04
  146 T=    34. E= -.41286986E+03 F= -.41303761E+03 E0= -.41301856E+03  EK= 0.16774E+00 SP= 0.00E+00 SK= 0.00E+00
       N       E                     dE             d eps       ncg     rms          rms(c)
RMM:   1    -0.413098286574E+03   -0.60678E-01   -0.18322E+00  4290   0.280E+00    0.370E-01
RMM:   2    -0.413100435997E+03   -0.21494E-02   -0.30356E-02  5199   0.224E-01    0.292E-01
RMM:   3    -0.413106316491E+03   -0.58805E-02   -0.13136E-02  5597   0.113E-01    0.402E-01
RMM:   4    -0.413100119544E+03    0.61969E-02   -0.75385E-03  5064   0.102E-01    0.129E-01
RMM:   5    -0.413099787206E+03    0.33234E-03   -0.40461E-03  5089   0.763E-02    0.612E-02
RMM:   6    -0.413099559095E+03    0.22811E-03   -0.95447E-04  5227   0.387E-02    0.306E-02
RMM:   7    -0.413099537298E+03    0.21797E-04   -0.11358E-04  4897   0.141E-02    0.145E-02
RMM:   8    -0.413099534992E+03    0.23062E-05   -0.41715E-05  5277   0.774E-03    0.850E-03
RMM:   9    -0.413099535188E+03   -0.19585E-06   -0.12403E-05  4128   0.439E-03    0.519E-03
RMM:  10    -0.413099535528E+03   -0.34021E-06   -0.41492E-06  2976   0.305E-03
  147 T=    45. E= -.41287631E+03 F= -.41309954E+03 E0= -.41308061E+03  EK= 0.22323E+00 SP= 0.00E+00 SK= 0.00E+00
       N       E                     dE             d eps       ncg     rms          rms(c)
RMM:   1    -0.413211857280E+03   -0.11232E+00   -0.47002E+00  4305   0.441E+00    0.963E-01
RMM:   2    -0.413219497556E+03   -0.76403E-02   -0.11400E-01  5341   0.417E-01    0.841E-01
RMM:   3    -0.413234477737E+03   -0.14980E-01   -0.56951E-02  5405   0.243E-01    0.931E-01
RMM:   4    -0.413209647362E+03    0.24830E-01   -0.43660E-02  5182   0.235E-01    0.375E-01
RMM:   5    -0.413207728207E+03    0.19192E-02   -0.28828E-02  5070   0.201E-01    0.192E-01
RMM:   6    -0.413205495837E+03    0.22324E-02   -0.74513E-03  5053   0.110E-01    0.830E-02
RMM:   7    -0.413205338937E+03    0.15690E-03   -0.62007E-04  4969   0.366E-02    0.366E-02
RMM:   8    -0.413205329452E+03    0.94847E-05   -0.20169E-04  5417   0.176E-02    0.206E-02
RMM:   9    -0.413205340790E+03   -0.11337E-04   -0.83702E-05  5402   0.110E-02    0.122E-02
RMM:  10    -0.413205344097E+03   -0.33076E-05   -0.18671E-05  4628   0.548E-03    0.597E-03
RMM:  11    -0.413205350683E+03   -0.65858E-05   -0.12436E-05  4181   0.437E-03    0.356E-03
RMM:  12    -0.413205357067E+03   -0.63837E-05   -0.30430E-06  2787   0.286E-03    0.223E-03
RMM:  13    -0.413205359570E+03   -0.25036E-05   -0.11998E-06  2553   0.172E-03    0.115E-03
RMM:  14    -0.413205361416E+03   -0.18458E-05   -0.97008E-07  2401   0.144E-03    0.508E-04
RMM:  15    -0.413205362286E+03   -0.86959E-06   -0.78527E-07  2215   0.120E-03
  148 T=    65. E= -.41288557E+03 F= -.41320536E+03 E0= -.41318652E+03  EK= 0.31979E+00 SP= 0.00E+00 SK= 0.00E+00
       N       E                     dE             d eps       ncg     rms          rms(c)
RMM:   1    -0.413228083922E+03   -0.22723E-01   -0.62272E+00  4304   0.509E+00    0.100E+00
RMM:   2    -0.413237553607E+03   -0.94697E-02   -0.15776E-01  5349   0.478E-01    0.909E-01
RMM:   3    -0.413247609951E+03   -0.10056E-01   -0.64457E-02  5426   0.261E-01    0.958E-01
RMM:   4    -0.413222394125E+03    0.25216E-01   -0.42352E-02  5185   0.234E-01    0.419E-01
RMM:   5    -0.413221764236E+03    0.62989E-03   -0.34049E-02  5087   0.216E-01    0.238E-01
RMM:   6    -0.413218683605E+03    0.30806E-02   -0.10517E-02  5006   0.129E-01    0.103E-01
RMM:   7    -0.413218402326E+03    0.28128E-03   -0.87720E-04  4855   0.450E-02    0.441E-02
RMM:   8    -0.413218400882E+03    0.14441E-05   -0.34882E-04  5544   0.220E-02    0.265E-02
RMM:   9    -0.413218416213E+03   -0.15332E-04   -0.10975E-04  5230   0.131E-02    0.136E-02
RMM:  10    -0.413218421176E+03   -0.49627E-05   -0.27747E-05  4985   0.664E-03    0.653E-03
RMM:  11    -0.413218428583E+03   -0.74075E-05   -0.13764E-05  4255   0.461E-03    0.412E-03
RMM:  12    -0.413218436208E+03   -0.76252E-05   -0.42417E-06  2957   0.323E-03    0.261E-03
RMM:  13    -0.413218439282E+03   -0.30733E-05   -0.18692E-06  2657   0.207E-03    0.133E-03
RMM:  14    -0.413218440900E+03   -0.16184E-05   -0.13313E-06  2488   0.161E-03    0.738E-04
RMM:  15    -0.413218441238E+03   -0.33805E-06   -0.10916E-06  2341   0.137E-03
  149 T=    69. E= -.41288132E+03 F= -.41321844E+03 E0= -.41319963E+03  EK= 0.33712E+00 SP= 0.00E+00 SK= 0.00E+00
       N       E                     dE             d eps       ncg     rms          rms(c)
RMM:   1    -0.413185549687E+03    0.32891E-01   -0.55096E+00  4299   0.482E+00    0.685E-01
RMM:   2    -0.413195876410E+03   -0.10327E-01   -0.12535E-01  5330   0.424E-01    0.678E-01
RMM:   3    -0.413193560008E+03    0.23164E-02   -0.37321E-02  5532   0.202E-01    0.640E-01
RMM:   4    -0.413183381224E+03    0.10179E-01   -0.19058E-02  5252   0.160E-01    0.319E-01
RMM:   5    -0.413183571762E+03   -0.19054E-03   -0.17132E-02  5064   0.154E-01    0.192E-01
RMM:   6    -0.413181845465E+03    0.17263E-02   -0.61681E-03  4942   0.989E-02    0.804E-02
RMM:   7    -0.413181693902E+03    0.15156E-03   -0.61973E-04  5026   0.365E-02    0.363E-02
RMM:   8    -0.413181695545E+03   -0.16436E-05   -0.22407E-04  5574   0.178E-02    0.234E-02
RMM:   9    -0.413181703550E+03   -0.80048E-05   -0.75109E-05  4867   0.111E-02    0.110E-02
RMM:  10    -0.413181706247E+03   -0.26968E-05   -0.24010E-05  4913   0.609E-03    0.505E-03
RMM:  11    -0.413181709657E+03   -0.34100E-05   -0.73445E-06  3511   0.357E-03    0.356E-03
RMM:  12    -0.413181713709E+03   -0.40524E-05   -0.29542E-06  2800   0.277E-03    0.226E-03
RMM:  13    -0.413181715196E+03   -0.14869E-05   -0.13285E-06  2560   0.179E-03    0.109E-03
RMM:  14    -0.413181715504E+03   -0.30814E-06   -0.89526E-07  2317   0.134E-03
  150 T=    62. E= -.41287491E+03 F= -.41318172E+03 E0= -.41316287E+03  EK= 0.30680E+00 SP= 0.00E+00 SK= 0.00E+00
