       N       E                     dE             d eps       ncg     rms          rms(c)
RMM:   1     0.220107870378E+04    0.22011E+04   -0.52442E+04  2132   0.654E+02
RMM:   2     0.705569158794E+03   -0.14955E+04   -0.16262E+04  2132   0.177E+02
RMM:   3     0.137885419505E+03   -0.56768E+03   -0.65686E+03  2132   0.117E+02
RMM:   4    -0.159288550540E+03   -0.29717E+03   -0.27877E+03  2132   0.936E+01
RMM:   5    -0.287465170060E+03   -0.12818E+03   -0.11458E+03  2132   0.595E+01
RMM:   6    -0.349836797673E+03   -0.62372E+02   -0.55187E+02  2132   0.423E+01
RMM:   7    -0.382747591597E+03   -0.32911E+02   -0.30465E+02  2132   0.293E+01
RMM:   8    -0.404256942203E+03   -0.21509E+02   -0.18421E+02  2132   0.233E+01
RMM:   9    -0.436044724379E+03   -0.31788E+02   -0.30687E+02  6104   0.173E+01
RMM:  10    -0.441329425249E+03   -0.52847E+01   -0.63146E+01  6393   0.539E+00
RMM:  11    -0.442519381458E+03   -0.11900E+01   -0.10998E+01  6219   0.173E+00
RMM:  12    -0.442887262942E+03   -0.36788E+00   -0.27024E+00  6359   0.599E-01    0.134E+02
RMM:  13    -0.425587445111E+03    0.17300E+02   -0.80887E+01  4675   0.119E+01    0.712E+01
RMM:  14    -0.499363278892E+03   -0.73776E+02   -0.53828E+02  5413   0.232E+01    0.307E+01
RMM:  15    -0.417696314185E+03    0.81667E+02   -0.20349E+02  5112   0.164E+01    0.825E+00
RMM:  16    -0.414018688266E+03    0.36776E+01   -0.40069E+01  6093   0.619E+00    0.432E+00
RMM:  17    -0.413206181926E+03    0.81251E+00   -0.27261E+00  5435   0.194E+00    0.244E+00
RMM:  18    -0.413176973965E+03    0.29208E-01   -0.73599E-01  5997   0.874E-01    0.172E+00
RMM:  19    -0.413176640110E+03    0.33386E-03   -0.24145E-01  5663   0.539E-01    0.958E-01
RMM:  20    -0.413196999030E+03   -0.20359E-01   -0.37101E-01  5591   0.619E-01    0.720E-01
RMM:  21    -0.413170317953E+03    0.26681E-01   -0.38699E-02  4987   0.259E-01    0.357E-01
RMM:  22    -0.413164825043E+03    0.54929E-02   -0.34222E-02  5738   0.185E-01    0.148E-01
RMM:  23    -0.413164244907E+03    0.58014E-03   -0.59133E-03  5907   0.701E-02    0.879E-02
RMM:  24    -0.413163241203E+03    0.10037E-02   -0.18583E-03  5370   0.428E-02    0.551E-02
RMM:  25    -0.413162610070E+03    0.63113E-03   -0.91088E-04  4865   0.299E-02    0.436E-02
RMM:  26    -0.413162712062E+03   -0.10199E-03   -0.11977E-03  5748   0.353E-02    0.337E-02
RMM:  27    -0.413163132340E+03   -0.42028E-03   -0.20820E-04  4604   0.197E-02    0.202E-02
RMM:  28    -0.413163533440E+03   -0.40110E-03   -0.14391E-04  5006   0.162E-02    0.971E-03
RMM:  29    -0.413163931979E+03   -0.39854E-03   -0.10287E-04  4607   0.152E-02    0.437E-03
RMM:  30    -0.413164216858E+03   -0.28488E-03   -0.92069E-05  4551   0.120E-02    0.463E-03
RMM:  31    -0.413164371881E+03   -0.15502E-03   -0.61758E-05  3403   0.780E-03    0.374E-03
RMM:  32    -0.413164406723E+03   -0.34843E-04   -0.23738E-05  2991   0.335E-03    0.252E-03
RMM:  33    -0.413164425191E+03   -0.18467E-04   -0.10016E-05  2843   0.249E-03    0.865E-04
RMM:  34    -0.413164428017E+03   -0.28264E-05   -0.53905E-06  2607   0.154E-03    0.487E-04
RMM:  35    -0.413164431088E+03   -0.30714E-05   -0.47964E-06  2514   0.146E-03    0.806E-04
RMM:  36    -0.413164431178E+03   -0.89829E-07   -0.14435E-06  2068   0.104E-03
    1 T=    61. E= -.41286661E+03 F= -.41316443E+03 E0= -.41314193E+03  EK= 0.29782E+00 SP= 0.00E+00 SK= 0.00E+00
       N       E                     dE             d eps       ncg     rms          rms(c)
RMM:   1    -0.413154592842E+03    0.98382E-02   -0.11134E+01  3973   0.697E-01    0.886E-01
RMM:   2    -0.413165559662E+03   -0.10967E-01   -0.13749E-01  3812   0.101E-01    0.641E-01
RMM:   3    -0.413163919186E+03    0.16405E-02   -0.63606E-03  4492   0.342E-02    0.149E-01
RMM:   4    -0.413172237633E+03   -0.83184E-02   -0.88087E-03  5222   0.789E-02    0.383E-01
RMM:   5    -0.413163850577E+03    0.83871E-02   -0.41330E-03  4858   0.635E-02    0.220E-02
RMM:   6    -0.413163889681E+03   -0.39104E-04   -0.68451E-04  5821   0.251E-02    0.143E-02
RMM:   7    -0.413163900063E+03   -0.10382E-04   -0.92211E-05  5402   0.870E-03    0.928E-03
RMM:   8    -0.413163908166E+03   -0.81027E-05   -0.11053E-05  3325   0.360E-03    0.441E-03
RMM:   9    -0.413163915000E+03   -0.68339E-05   -0.25577E-06  2637   0.209E-03    0.291E-03
RMM:  10    -0.413163921401E+03   -0.64017E-05   -0.11004E-06  2511   0.151E-03    0.177E-03
RMM:  11    -0.413163929049E+03   -0.76474E-05   -0.10283E-06  2465   0.135E-03    0.551E-04
RMM:  12    -0.413163931878E+03   -0.28290E-05   -0.48910E-07  1981   0.960E-04    0.254E-04
RMM:  13    -0.413163933562E+03   -0.16842E-05   -0.30896E-07  1440   0.768E-04    0.162E-04
RMM:  14    -0.413163935801E+03   -0.22385E-05   -0.26204E-07  1362   0.731E-04    0.914E-05
RMM:  15    -0.413163937036E+03   -0.12350E-05   -0.20094E-07  1261   0.675E-04    0.689E-05
RMM:  16    -0.413163937530E+03   -0.49447E-06   -0.14090E-07  1097   0.624E-04
    2 T=    61. E= -.41286626E+03 F= -.41316394E+03 E0= -.41314144E+03  EK= 0.29767E+00 SP= 0.00E+00 SK= 0.00E+00
       N       E                     dE             d eps       ncg     rms          rms(c)
RMM:   1    -0.413155750159E+03    0.81869E-02   -0.11165E+01  4191   0.702E-01    0.911E-01
RMM:   2    -0.413165723438E+03   -0.99733E-02   -0.13477E-01  3904   0.968E-02    0.633E-01
RMM:   3    -0.413164972019E+03    0.75142E-03   -0.68811E-03  4861   0.388E-02    0.169E-01
RMM:   4    -0.413194532963E+03   -0.29561E-01   -0.29979E-02  5183   0.145E-01    0.716E-01
RMM:   5    -0.413164526256E+03    0.30007E-01   -0.14601E-02  4835   0.120E-01    0.373E-02
RMM:   6    -0.413164707889E+03   -0.18163E-03   -0.23190E-03  5796   0.471E-02    0.193E-02
RMM:   7    -0.413164720419E+03   -0.12529E-04   -0.28212E-04  5911   0.140E-02    0.140E-02
RMM:   8    -0.413164721315E+03   -0.89663E-06   -0.37116E-05  4501   0.546E-03    0.837E-03
RMM:   9    -0.413164720791E+03    0.52451E-06   -0.63030E-06  3035   0.285E-03
    3 T=    61. E= -.41286681E+03 F= -.41316472E+03 E0= -.41314223E+03  EK= 0.29791E+00 SP= 0.00E+00 SK= 0.00E+00
       N       E                     dE             d eps       ncg     rms          rms(c)
RMM:   1    -0.413155324501E+03    0.93968E-02   -0.11081E+01  4226   0.704E-01    0.894E-01
RMM:   2    -0.413165862073E+03   -0.10538E-01   -0.13345E-01  4202   0.997E-02    0.627E-01
RMM:   3    -0.413168389446E+03   -0.25274E-02   -0.95969E-03  5170   0.687E-02    0.308E-01
RMM:   4    -0.413192188172E+03   -0.23799E-01   -0.39283E-02  5130   0.168E-01    0.694E-01
RMM:   5    -0.413164350661E+03    0.27838E-01   -0.11474E-02  4730   0.116E-01    0.534E-02
RMM:   6    -0.413164387759E+03   -0.37099E-04   -0.19699E-03  5558   0.445E-02    0.172E-02
RMM:   7    -0.413164410984E+03   -0.23224E-04   -0.28854E-04  6039   0.148E-02    0.123E-02
RMM:   8    -0.413164414202E+03   -0.32184E-05   -0.38387E-05  4832   0.577E-03    0.726E-03
RMM:   9    -0.413164416170E+03   -0.19676E-05   -0.76714E-06  3215   0.368E-03    0.362E-03
RMM:  10    -0.413164417857E+03   -0.16873E-05   -0.17282E-06  2552   0.209E-03    0.218E-03
RMM:  11    -0.413164419919E+03   -0.20622E-05   -0.10880E-06  2547   0.161E-03    0.113E-03
RMM:  12    -0.413164420997E+03   -0.10782E-05   -0.49888E-07  2270   0.111E-03    0.470E-04
RMM:  13    -0.413164422117E+03   -0.11201E-05   -0.36881E-07  1731   0.879E-04    0.219E-04
RMM:  14    -0.413164422660E+03   -0.54263E-06   -0.21457E-07  1365   0.734E-04
    4 T=    61. E= -.41286649E+03 F= -.41316442E+03 E0= -.41314194E+03  EK= 0.29794E+00 SP= 0.00E+00 SK= 0.00E+00
       N       E                     dE             d eps       ncg     rms          rms(c)
RMM:   1    -0.413155082988E+03    0.93391E-02   -0.11120E+01  4236   0.709E-01    0.884E-01
RMM:   2    -0.413166038455E+03   -0.10955E-01   -0.13749E-01  3973   0.966E-02    0.639E-01
RMM:   3    -0.413164795082E+03    0.12434E-02   -0.64671E-03  4913   0.371E-02    0.163E-01
RMM:   4    -0.413194864283E+03   -0.30069E-01   -0.30618E-02  5169   0.146E-01    0.723E-01
RMM:   5    -0.413164295352E+03    0.30569E-01   -0.14802E-02  4823   0.121E-01    0.362E-02
RMM:   6    -0.413164485350E+03   -0.19000E-03   -0.23802E-03  5793   0.472E-02    0.175E-02
RMM:   7    -0.413164503717E+03   -0.18367E-04   -0.28375E-04  5874   0.139E-02    0.133E-02
RMM:   8    -0.413164508711E+03   -0.49935E-05   -0.36416E-05  4475   0.540E-03    0.808E-03
RMM:   9    -0.413164513014E+03   -0.43031E-05   -0.62585E-06  3008   0.285E-03    0.543E-03
RMM:  10    -0.413164519240E+03   -0.62263E-05   -0.19991E-06  2557   0.204E-03    0.289E-03
RMM:  11    -0.413164525146E+03   -0.59063E-05   -0.14475E-06  2547   0.176E-03    0.142E-03
RMM:  12    -0.413164528882E+03   -0.37358E-05   -0.75612E-07  2440   0.135E-03    0.468E-04
RMM:  13    -0.413164530093E+03   -0.12104E-05   -0.32352E-07  1995   0.926E-04    0.286E-04
RMM:  14    -0.413164531433E+03   -0.13406E-05   -0.20458E-07  1503   0.768E-04    0.166E-04
RMM:  15    -0.413164533307E+03   -0.18737E-05   -0.22647E-07  1544   0.756E-04    0.133E-04
RMM:  16    -0.413164533576E+03   -0.26937E-06   -0.89040E-08  1063   0.624E-04
    5 T=    61. E= -.41286644E+03 F= -.41316453E+03 E0= -.41314206E+03  EK= 0.29809E+00 SP= 0.00E+00 SK= 0.00E+00
       N       E                     dE             d eps       ncg     rms          rms(c)
RMM:   1    -0.413156083997E+03    0.84493E-02   -0.11174E+01  4248   0.714E-01    0.906E-01
RMM:   2    -0.413166308157E+03   -0.10224E-01   -0.13458E-01  3968   0.962E-02    0.635E-01
RMM:   3    -0.413165339814E+03    0.96834E-03   -0.66904E-03  4850   0.368E-02    0.167E-01
RMM:   4    -0.413193777164E+03   -0.28437E-01   -0.28765E-02  5162   0.141E-01    0.703E-01
RMM:   5    -0.413164928942E+03    0.28848E-01   -0.14023E-02  4819   0.117E-01    0.364E-02
RMM:   6    -0.413165109025E+03   -0.18008E-03   -0.22625E-03  5786   0.459E-02    0.188E-02
RMM:   7    -0.413165120620E+03   -0.11595E-04   -0.26808E-04  5867   0.136E-02    0.138E-02
RMM:   8    -0.413165121394E+03   -0.77354E-06   -0.34830E-05  4469   0.538E-03    0.823E-03
RMM:   9    -0.413165120965E+03    0.42903E-06   -0.61727E-06  2994   0.286E-03
    6 T=    61. E= -.41286667E+03 F= -.41316512E+03 E0= -.41314266E+03  EK= 0.29845E+00 SP= 0.00E+00 SK= 0.00E+00
       N       E                     dE             d eps       ncg     rms          rms(c)
RMM:   1    -0.413155765797E+03    0.93556E-02   -0.11118E+01  4272   0.720E-01    0.902E-01
RMM:   2    -0.413165574894E+03   -0.98091E-02   -0.13410E-01  4256   0.993E-02    0.628E-01
RMM:   3    -0.413168682120E+03   -0.31072E-02   -0.98949E-03  5159   0.681E-02    0.311E-01
RMM:   4    -0.413191664917E+03   -0.22983E-01   -0.38695E-02  5116   0.166E-01    0.686E-01
RMM:   5    -0.413164612696E+03    0.27052E-01   -0.11127E-02  4728   0.114E-01    0.531E-02
RMM:   6    -0.413164649157E+03   -0.36461E-04   -0.19161E-03  5555   0.435E-02    0.176E-02
RMM:   7    -0.413164670624E+03   -0.21466E-04   -0.27787E-04  6038   0.146E-02    0.123E-02
RMM:   8    -0.413164672543E+03   -0.19189E-05   -0.37064E-05  4798   0.571E-03    0.718E-03
RMM:   9    -0.413164671326E+03    0.12167E-05   -0.74190E-06  3147   0.367E-03    0.357E-03
RMM:  10    -0.413164671495E+03   -0.16952E-06   -0.16958E-06  2547   0.208E-03
    7 T=    61. E= -.41286609E+03 F= -.41316467E+03 E0= -.41314222E+03  EK= 0.29858E+00 SP= 0.00E+00 SK= 0.00E+00
       N       E                     dE             d eps       ncg     rms          rms(c)
RMM:   1    -0.413156731147E+03    0.79402E-02   -0.11129E+01  4276   0.738E-01    0.883E-01
RMM:   2    -0.413166809825E+03   -0.10079E-01   -0.13693E-01  4069   0.967E-02    0.637E-01
RMM:   3    -0.413165908982E+03    0.90084E-03   -0.65925E-03  4977   0.404E-02    0.174E-01
RMM:   4    -0.413203936639E+03   -0.38028E-01   -0.39333E-02  5147   0.165E-01    0.810E-01
RMM:   5    -0.413165217967E+03    0.38719E-01   -0.18671E-02  4809   0.136E-01    0.423E-02
RMM:   6    -0.413165436970E+03   -0.21900E-03   -0.30075E-03  5772   0.532E-02    0.177E-02
RMM:   7    -0.413165463173E+03   -0.26203E-04   -0.36758E-04  5936   0.153E-02    0.140E-02
RMM:   8    -0.413165468035E+03   -0.48615E-05   -0.42162E-05  4482   0.564E-03    0.822E-03
RMM:   9    -0.413165471566E+03   -0.35312E-05   -0.74636E-06  3061   0.293E-03    0.545E-03
RMM:  10    -0.413165476521E+03   -0.49554E-05   -0.23625E-06  2568   0.215E-03    0.283E-03
RMM:  11    -0.413165480933E+03   -0.44111E-05   -0.14749E-06  2542   0.176E-03    0.135E-03
RMM:  12    -0.413165483542E+03   -0.26090E-05   -0.79476E-07  2442   0.135E-03    0.431E-04
RMM:  13    -0.413165484641E+03   -0.10995E-05   -0.37317E-07  2019   0.954E-04    0.273E-04
RMM:  14    -0.413165485685E+03   -0.10439E-05   -0.27092E-07  1620   0.808E-04    0.175E-04
RMM:  15    -0.413165486492E+03   -0.80734E-06   -0.21842E-07  1396   0.739E-04
    8 T=    61. E= -.41286653E+03 F= -.41316549E+03 E0= -.41314306E+03  EK= 0.29895E+00 SP= 0.00E+00 SK= 0.00E+00
       N       E                     dE             d eps       ncg     rms          rms(c)
RMM:   1    -0.413156386981E+03    0.90987E-02   -0.11184E+01  4280   0.728E-01    0.901E-01
RMM:   2    -0.413166800772E+03   -0.10414E-01   -0.13603E-01  4146   0.100E-01    0.638E-01
RMM:   3    -0.413165817774E+03    0.98300E-03   -0.66675E-03  4826   0.404E-02    0.166E-01
RMM:   4    -0.413195444888E+03   -0.29627E-01   -0.30103E-02  5157   0.144E-01    0.718E-01
RMM:   5    -0.413165269853E+03    0.30175E-01   -0.14773E-02  4817   0.120E-01    0.363E-02
RMM:   6    -0.413165456469E+03   -0.18662E-03   -0.23500E-03  5780   0.468E-02    0.185E-02
RMM:   7    -0.413165469680E+03   -0.13211E-04   -0.28301E-04  5871   0.139E-02    0.137E-02
RMM:   8    -0.413165470974E+03   -0.12947E-05   -0.35959E-05  4476   0.544E-03    0.836E-03
RMM:   9    -0.413165470866E+03    0.10813E-06   -0.65143E-06  3029   0.290E-03
    9 T=    61. E= -.41286639E+03 F= -.41316547E+03 E0= -.41314306E+03  EK= 0.29908E+00 SP= 0.00E+00 SK= 0.00E+00
       N       E                     dE             d eps       ncg     rms          rms(c)
RMM:   1    -0.413156838996E+03    0.86320E-02   -0.11166E+01  4296   0.732E-01    0.909E-01
RMM:   2    -0.413166537783E+03   -0.96988E-02   -0.13407E-01  4284   0.973E-02    0.630E-01
RMM:   3    -0.413169821628E+03   -0.32838E-02   -0.10183E-02  5157   0.701E-02    0.318E-01
RMM:   4    -0.413191425767E+03   -0.21604E-01   -0.37783E-02  5104   0.165E-01    0.672E-01
RMM:   5    -0.413165625029E+03    0.25801E-01   -0.10547E-02  4716   0.111E-01    0.524E-02
RMM:   6    -0.413165653999E+03   -0.28970E-04   -0.18176E-03  5549   0.424E-02    0.181E-02
RMM:   7    -0.413165670864E+03   -0.16865E-04   -0.26173E-04  6022   0.144E-02    0.124E-02
RMM:   8    -0.413165671197E+03   -0.33317E-06   -0.35805E-05  4787   0.568E-03    0.719E-03
RMM:   9    -0.413165667761E+03    0.34352E-05   -0.74829E-06  3145   0.366E-03    0.358E-03
RMM:  10    -0.413165666885E+03    0.87606E-06   -0.16445E-06  2543   0.205E-03
   10 T=    61. E= -.41286636E+03 F= -.41316567E+03 E0= -.41314328E+03  EK= 0.29931E+00 SP= 0.00E+00 SK= 0.00E+00
       N       E                     dE             d eps       ncg     rms          rms(c)
RMM:   1    -0.413156981486E+03    0.86863E-02   -0.11115E+01  4296   0.733E-01    0.884E-01
RMM:   2    -0.413167863326E+03   -0.10882E-01   -0.13582E-01  4159   0.956E-02    0.634E-01
RMM:   3    -0.413166905521E+03    0.95781E-03   -0.65026E-03  4964   0.423E-02    0.175E-01
RMM:   4    -0.413204865612E+03   -0.37960E-01   -0.39245E-02  5151   0.164E-01    0.810E-01
RMM:   5    -0.413166158250E+03    0.38707E-01   -0.18856E-02  4808   0.136E-01    0.415E-02
RMM:   6    -0.413166369859E+03   -0.21161E-03   -0.29341E-03  5753   0.531E-02    0.183E-02
RMM:   7    -0.413166389869E+03   -0.20010E-04   -0.36321E-04  5938   0.154E-02    0.141E-02
RMM:   8    -0.413166392233E+03   -0.23643E-05   -0.42201E-05  4504   0.570E-03    0.834E-03
RMM:   9    -0.413166393248E+03   -0.10155E-05   -0.77080E-06  3078   0.300E-03    0.554E-03
RMM:  10    -0.413166395570E+03   -0.23216E-05   -0.23924E-06  2568   0.219E-03    0.285E-03
RMM:  11    -0.413166397765E+03   -0.21953E-05   -0.15193E-06  2538   0.180E-03    0.135E-03
RMM:  12    -0.413166398891E+03   -0.11255E-05   -0.80430E-07  2445   0.137E-03    0.439E-04
RMM:  13    -0.413166399317E+03   -0.42597E-06   -0.36653E-07  2035   0.958E-04
   11 T=    61. E= -.41286662E+03 F= -.41316640E+03 E0= -.41314404E+03  EK= 0.29978E+00 SP= 0.00E+00 SK= 0.00E+00
       N       E                     dE             d eps       ncg     rms          rms(c)
RMM:   1    -0.413157253301E+03    0.91456E-02   -0.11199E+01  4289   0.749E-01    0.896E-01
RMM:   2    -0.413167525706E+03   -0.10272E-01   -0.13769E-01  4212   0.990E-02    0.641E-01
RMM:   3    -0.413166432293E+03    0.10934E-02   -0.65148E-03  4752   0.390E-02    0.161E-01
RMM:   4    -0.413190362917E+03   -0.23931E-01   -0.24115E-02  5149   0.129E-01    0.647E-01
RMM:   5    -0.413166048881E+03    0.24314E-01   -0.12008E-02  4821   0.107E-01    0.320E-02
RMM:   6    -0.413166198272E+03   -0.14939E-03   -0.18483E-03  5801   0.415E-02    0.175E-02
RMM:   7    -0.413166208084E+03   -0.98126E-05   -0.21770E-04  5804   0.126E-02    0.127E-02
RMM:   8    -0.413166209736E+03   -0.16520E-05   -0.29885E-05  4385   0.510E-03    0.770E-03
RMM:   9    -0.413166209785E+03   -0.48411E-07   -0.55898E-06  2942   0.281E-03
   12 T=    61. E= -.41286613E+03 F= -.41316621E+03 E0= -.41314388E+03  EK= 0.30008E+00 SP= 0.00E+00 SK= 0.00E+00
       N       E                     dE             d eps       ncg     rms          rms(c)
RMM:   1    -0.413158055448E+03    0.81543E-02   -0.11222E+01  4303   0.747E-01    0.914E-01
RMM:   2    -0.413167846457E+03   -0.97910E-02   -0.13447E-01  4286   0.961E-02    0.632E-01
RMM:   3    -0.413171062861E+03   -0.32164E-02   -0.10167E-02  5167   0.685E-02    0.316E-01
RMM:   4    -0.413193382107E+03   -0.22319E-01   -0.38375E-02  5098   0.165E-01    0.679E-01
RMM:   5    -0.413166909586E+03    0.26473E-01   -0.10853E-02  4713   0.112E-01    0.519E-02
RMM:   6    -0.413166945815E+03   -0.36229E-04   -0.18506E-03  5564   0.425E-02    0.182E-02
RMM:   7    -0.413166960239E+03   -0.14424E-04   -0.25991E-04  6018   0.143E-02    0.126E-02
RMM:   8    -0.413166959372E+03    0.86708E-06   -0.36415E-05  4814   0.572E-03    0.724E-03
RMM:   9    -0.413166953817E+03    0.55553E-05   -0.72669E-06  3027   0.359E-03    0.357E-03
RMM:  10    -0.413166952057E+03    0.17598E-05   -0.16728E-06  2533   0.205E-03    0.203E-03
RMM:  11    -0.413166949595E+03    0.24620E-05   -0.10222E-06  2528   0.156E-03    0.107E-03
RMM:  12    -0.413166947869E+03    0.17256E-05   -0.49018E-07  2222   0.109E-03    0.505E-04
RMM:  13    -0.413166945858E+03    0.20109E-05   -0.35168E-07  1757   0.882E-04    0.232E-04
RMM:  14    -0.413166944451E+03    0.14075E-05   -0.21695E-07  1479   0.755E-04    0.141E-04
RMM:  15    -0.413166942483E+03    0.19677E-05   -0.21933E-07  1537   0.743E-04    0.114E-04
RMM:  16    -0.413166941179E+03    0.13037E-05   -0.13607E-07  1281   0.644E-04    0.113E-04
RMM:  17    -0.413166939605E+03    0.15743E-05   -0.11780E-07  1227   0.619E-04    0.416E-05
RMM:  18    -0.413166938507E+03    0.10978E-05   -0.74503E-08  1002   0.562E-04    0.284E-05
RMM:  19    -0.413166937907E+03    0.59994E-06   -0.41399E-08   856   0.526E-04
   13 T=    61. E= -.41286624E+03 F= -.41316694E+03 E0= -.41314464E+03  EK= 0.30069E+00 SP= 0.00E+00 SK= 0.00E+00
       N       E                     dE             d eps       ncg     rms          rms(c)
RMM:   1    -0.413158088556E+03    0.88500E-02   -0.11141E+01  4293   0.747E-01    0.889E-01
RMM:   2    -0.413168656572E+03   -0.10568E-01   -0.13626E-01  4218   0.950E-02    0.632E-01
RMM:   3    -0.413167844279E+03    0.81229E-03   -0.65659E-03  4918   0.396E-02    0.174E-01
RMM:   4    -0.413203322643E+03   -0.35478E-01   -0.36600E-02  5148   0.159E-01    0.783E-01
RMM:   5    -0.413167211132E+03    0.36112E-01   -0.17594E-02  4798   0.131E-01    0.398E-02
RMM:   6    -0.413167422704E+03   -0.21157E-03   -0.28415E-03  5770   0.511E-02    0.191E-02
RMM:   7    -0.413167438302E+03   -0.15599E-04   -0.33414E-04  5864   0.150E-02    0.145E-02
RMM:   8    -0.413167438845E+03   -0.54243E-06   -0.42220E-05  4623   0.581E-03    0.894E-03
RMM:   9    -0.413167437210E+03    0.16347E-05   -0.75464E-06  3110   0.303E-03    0.603E-03
RMM:  10    -0.413167436859E+03    0.35127E-06   -0.22130E-06  2556   0.218E-03
   14 T=    61. E= -.41286625E+03 F= -.41316744E+03 E0= -.41314517E+03  EK= 0.30119E+00 SP= 0.00E+00 SK= 0.00E+00
       N       E                     dE             d eps       ncg     rms          rms(c)
RMM:   1    -0.413158147528E+03    0.92897E-02   -0.11229E+01  4305   0.755E-01    0.892E-01
RMM:   2    -0.413169436400E+03   -0.11289E-01   -0.13860E-01  4289   0.101E-01    0.644E-01
RMM:   3    -0.413171459191E+03   -0.20228E-02   -0.94353E-03  5116   0.680E-02    0.302E-01
RMM:   4    -0.413200881129E+03   -0.29422E-01   -0.45252E-02  5099   0.179E-01    0.755E-01
RMM:   5    -0.413167550242E+03    0.33331E-01   -0.14059E-02  4714   0.125E-01    0.512E-02
RMM:   6    -0.413167639763E+03   -0.89521E-04   -0.23535E-03  5617   0.478E-02    0.154E-02
RMM:   7    -0.413167665088E+03   -0.25325E-04   -0.30569E-04  6014   0.148E-02    0.118E-02
RMM:   8    -0.413167668779E+03   -0.36911E-05   -0.38965E-05  4769   0.572E-03    0.680E-03
RMM:   9    -0.413167670660E+03   -0.18814E-05   -0.67639E-06  2925   0.331E-03    0.333E-03
RMM:  10    -0.413167672313E+03   -0.16524E-05   -0.20589E-06  2550   0.204E-03    0.195E-03
RMM:  11    -0.413167673760E+03   -0.14471E-05   -0.10949E-06  2533   0.150E-03    0.985E-04
RMM:  12    -0.413167674425E+03   -0.66479E-06   -0.51944E-07  2062   0.107E-03
   15 T=    61. E= -.41286615E+03 F= -.41316767E+03 E0= -.41314544E+03  EK= 0.30152E+00 SP= 0.00E+00 SK= 0.00E+00
       N       E                     dE             d eps       ncg     rms          rms(c)
RMM:   1    -0.413160915568E+03    0.67582E-02   -0.11280E+01  4304   0.776E-01    0.916E-01
RMM:   2    -0.413169620469E+03   -0.87049E-02   -0.13593E-01  4247   0.102E-01    0.635E-01
RMM:   3    -0.413168941452E+03    0.67902E-03   -0.70132E-03  4946   0.406E-02    0.178E-01
RMM:   4    -0.413204766542E+03   -0.35825E-01   -0.36875E-02  5146   0.160E-01    0.787E-01
RMM:   5    -0.413168330366E+03    0.36436E-01   -0.17760E-02  4801   0.132E-01    0.408E-02
RMM:   6    -0.413168539014E+03   -0.20865E-03   -0.28795E-03  5795   0.514E-02    0.205E-02
RMM:   7    -0.413168549731E+03   -0.10717E-04   -0.33774E-04  5910   0.152E-02    0.152E-02
RMM:   8    -0.413168546532E+03    0.31986E-05   -0.44050E-05  4704   0.596E-03    0.955E-03
RMM:   9    -0.413168540886E+03    0.56463E-05   -0.77725E-06  3143   0.309E-03    0.636E-03
RMM:  10    -0.413168536162E+03    0.47242E-05   -0.22230E-06  2549   0.219E-03    0.335E-03
RMM:  11    -0.413168532115E+03    0.40464E-05   -0.17067E-06  2545   0.196E-03    0.162E-03
RMM:  12    -0.413168528853E+03    0.32624E-05   -0.85884E-07  2466   0.149E-03    0.510E-04
RMM:  13    -0.413168527912E+03    0.94128E-06   -0.35059E-07  2134   0.996E-04
   16 T=    61. E= -.41286653E+03 F= -.41316853E+03 E0= -.41314633E+03  EK= 0.30200E+00 SP= 0.00E+00 SK= 0.00E+00
       N       E                     dE             d eps       ncg     rms          rms(c)
RMM:   1    -0.413159594607E+03    0.89342E-02   -0.11173E+01  4296   0.758E-01    0.895E-01
RMM:   2    -0.413170227789E+03   -0.10633E-01   -0.13659E-01  4255   0.981E-02    0.632E-01
RMM:   3    -0.413169328318E+03    0.89947E-03   -0.65528E-03  4889   0.400E-02    0.174E-01
RMM:   4    -0.413202846618E+03   -0.33518E-01   -0.34356E-02  5143   0.154E-01    0.762E-01
RMM:   5    -0.413168778966E+03    0.34068E-01   -0.16703E-02  4800   0.127E-01    0.385E-02
RMM:   6    -0.413168973226E+03   -0.19426E-03   -0.26554E-03  5789   0.496E-02    0.195E-02
RMM:   7    -0.413168983973E+03   -0.10747E-04   -0.31006E-04  5888   0.147E-02    0.144E-02
RMM:   8    -0.413168982210E+03    0.17630E-05   -0.41077E-05  4612   0.574E-03    0.900E-03
RMM:   9    -0.413168978059E+03    0.41516E-05   -0.73936E-06  3114   0.302E-03    0.603E-03
RMM:  10    -0.413168974803E+03    0.32557E-05   -0.21020E-06  2549   0.213E-03    0.321E-03
RMM:  11    -0.413168971922E+03    0.28810E-05   -0.16295E-06  2541   0.191E-03    0.156E-03
RMM:  12    -0.413168969606E+03    0.23156E-05   -0.80222E-07  2452   0.144E-03    0.508E-04
RMM:  13    -0.413168968882E+03    0.72465E-06   -0.33227E-07  2117   0.968E-04
   17 T=    62. E= -.41286653E+03 F= -.41316897E+03 E0= -.41314681E+03  EK= 0.30244E+00 SP= 0.00E+00 SK= 0.00E+00
       N       E                     dE             d eps       ncg     rms          rms(c)
RMM:   1    -0.413160047803E+03    0.89218E-02   -0.11254E+01  4298   0.770E-01    0.890E-01
RMM:   2    -0.413171294052E+03   -0.11246E-01   -0.13895E-01  4263   0.102E-01    0.644E-01
RMM:   3    -0.413169955241E+03    0.13388E-02   -0.64942E-03  4894   0.401E-02    0.170E-01
RMM:   4    -0.413204176337E+03   -0.34221E-01   -0.35228E-02  5147   0.156E-01    0.770E-01
RMM:   5    -0.413169320650E+03    0.34856E-01   -0.17074E-02  4802   0.129E-01    0.383E-02
RMM:   6    -0.413169519632E+03   -0.19898E-03   -0.27349E-03  5794   0.503E-02    0.188E-02
RMM:   7    -0.413169533701E+03   -0.14069E-04   -0.31286E-04  5890   0.148E-02    0.142E-02
RMM:   8    -0.413169534487E+03   -0.78553E-06   -0.41633E-05  4631   0.578E-03    0.890E-03
RMM:   9    -0.413169533219E+03    0.12675E-05   -0.76064E-06  3139   0.308E-03    0.599E-03
RMM:  10    -0.413169533620E+03   -0.40117E-06   -0.22293E-06  2555   0.217E-03
   18 T=    62. E= -.41286641E+03 F= -.41316953E+03 E0= -.41314741E+03  EK= 0.30312E+00 SP= 0.00E+00 SK= 0.00E+00
       N       E                     dE             d eps       ncg     rms          rms(c)
RMM:   1    -0.413161680896E+03    0.78523E-02   -0.11312E+01  4307   0.770E-01    0.914E-01
RMM:   2    -0.413171724526E+03   -0.10044E-01   -0.13740E-01  4305   0.101E-01    0.639E-01
RMM:   3    -0.413174666094E+03   -0.29416E-02   -0.99117E-03  5125   0.691E-02    0.312E-01
RMM:   4    -0.413199502002E+03   -0.24836E-01   -0.40992E-02  5094   0.170E-01    0.707E-01
RMM:   5    -0.413170563187E+03    0.28939E-01   -0.12057E-02  4710   0.117E-01    0.496E-02
RMM:   6    -0.413170622506E+03   -0.59319E-04   -0.20196E-03  5599   0.445E-02    0.172E-02
RMM:   7    -0.413170636142E+03   -0.13636E-04   -0.26683E-04  5998   0.141E-02    0.122E-02
RMM:   8    -0.413170633747E+03    0.23957E-05   -0.35487E-05  4736   0.561E-03    0.690E-03
RMM:   9    -0.413170626180E+03    0.75668E-05   -0.63508E-06  2874   0.328E-03    0.321E-03
RMM:  10    -0.413170623102E+03    0.30775E-05   -0.18153E-06  2543   0.195E-03    0.184E-03
RMM:  11    -0.413170619364E+03    0.37388E-05   -0.92282E-07  2517   0.146E-03    0.967E-04
RMM:  12    -0.413170616889E+03    0.24742E-05   -0.46251E-07  2067   0.105E-03    0.474E-04
RMM:  13    -0.413170614215E+03    0.26742E-05   -0.32598E-07  1816   0.894E-04    0.222E-04
RMM:  14    -0.413170612554E+03    0.16613E-05   -0.18935E-07  1404   0.732E-04    0.133E-04
RMM:  15    -0.413170609626E+03    0.29282E-05   -0.21489E-07  1659   0.760E-04    0.122E-04
RMM:  16    -0.413170608173E+03    0.14529E-05   -0.11432E-07  1232   0.627E-04    0.112E-04
RMM:  17    -0.413170606082E+03    0.20903E-05   -0.10203E-07  1214   0.616E-04    0.411E-05
RMM:  18    -0.413170604706E+03    0.13762E-05   -0.63497E-08   999   0.561E-04    0.299E-05
RMM:  19    -0.413170603928E+03    0.77827E-06   -0.37815E-08   863   0.530E-04
   19 T=    62. E= -.41286663E+03 F= -.41317060E+03 E0= -.41314853E+03  EK= 0.30398E+00 SP= 0.00E+00 SK= 0.00E+00
       N       E                     dE             d eps       ncg     rms          rms(c)
RMM:   1    -0.413163526681E+03    0.70780E-02   -0.11275E+01  4297   0.797E-01    0.905E-01
RMM:   2    -0.413172274613E+03   -0.87479E-02   -0.13733E-01  4252   0.101E-01    0.633E-01
RMM:   3    -0.413171681897E+03    0.59272E-03   -0.67648E-03  4964   0.418E-02    0.184E-01
RMM:   4    -0.413210840818E+03   -0.39159E-01   -0.40969E-02  5142   0.168E-01    0.822E-01
RMM:   5    -0.413170953803E+03    0.39887E-01   -0.19456E-02  4791   0.138E-01    0.428E-02
RMM:   6    -0.413171167800E+03   -0.21400E-03   -0.31356E-03  5754   0.541E-02    0.204E-02
RMM:   7    -0.413171181167E+03   -0.13367E-04   -0.37204E-04  5883   0.158E-02    0.154E-02
RMM:   8    -0.413171178082E+03    0.30848E-05   -0.47955E-05  4779   0.615E-03    0.957E-03
RMM:   9    -0.413171171905E+03    0.61771E-05   -0.82764E-06  3173   0.313E-03    0.633E-03
RMM:  10    -0.413171166686E+03    0.52190E-05   -0.22981E-06  2548   0.222E-03    0.331E-03
RMM:  11    -0.413171162468E+03    0.42187E-05   -0.16262E-06  2534   0.193E-03    0.160E-03
RMM:  12    -0.413171159356E+03    0.31116E-05   -0.79960E-07  2457   0.146E-03    0.510E-04
RMM:  13    -0.413171158447E+03    0.90915E-06   -0.34291E-07  2124   0.995E-04
   20 T=    62. E= -.41286643E+03 F= -.41317116E+03 E0= -.41314912E+03  EK= 0.30473E+00 SP= 0.00E+00 SK= 0.00E+00
       N       E                     dE             d eps       ncg     rms          rms(c)
RMM:   1    -0.413163151669E+03    0.80077E-02   -0.11308E+01  4299   0.792E-01    0.890E-01
RMM:   2    -0.413173625839E+03   -0.10474E-01   -0.14058E-01  4272   0.104E-01    0.644E-01
RMM:   3    -0.413172399527E+03    0.12263E-02   -0.65669E-03  4899   0.419E-02    0.174E-01
RMM:   4    -0.413208931402E+03   -0.36532E-01   -0.37819E-02  5143   0.161E-01    0.794E-01
RMM:   5    -0.413171720873E+03    0.37211E-01   -0.18344E-02  4798   0.133E-01    0.394E-02
RMM:   6    -0.413171925945E+03   -0.20507E-03   -0.29239E-03  5790   0.524E-02    0.191E-02
RMM:   7    -0.413171941519E+03   -0.15574E-04   -0.34123E-04  5905   0.153E-02    0.145E-02
RMM:   8    -0.413171941247E+03    0.27177E-06   -0.45653E-05  4729   0.600E-03    0.928E-03
RMM:   9    -0.413171938205E+03    0.30424E-05   -0.80923E-06  3173   0.315E-03    0.626E-03
RMM:  10    -0.413171936814E+03    0.13908E-05   -0.23254E-06  2556   0.224E-03    0.333E-03
RMM:  11    -0.413171935735E+03    0.10792E-05   -0.18152E-06  2557   0.199E-03    0.163E-03
RMM:  12    -0.413171934633E+03    0.11018E-05   -0.84489E-07  2463   0.148E-03    0.533E-04
RMM:  13    -0.413171934268E+03    0.36557E-06   -0.34637E-07  2118   0.986E-04
   21 T=    62. E= -.41286628E+03 F= -.41317193E+03 E0= -.41314995E+03  EK= 0.30565E+00 SP= 0.00E+00 SK= 0.00E+00
       N       E                     dE             d eps       ncg     rms          rms(c)
RMM:   1    -0.413163728463E+03    0.82062E-02   -0.11381E+01  4300   0.784E-01    0.912E-01
RMM:   2    -0.413174423400E+03   -0.10695E-01   -0.13950E-01  4277   0.101E-01    0.643E-01
RMM:   3    -0.413173543946E+03    0.87945E-03   -0.67942E-03  4866   0.425E-02    0.177E-01
RMM:   4    -0.413208878626E+03   -0.35335E-01   -0.36341E-02  5147   0.158E-01    0.781E-01
RMM:   5    -0.413172973711E+03    0.35905E-01   -0.17708E-02  4796   0.131E-01    0.397E-02
RMM:   6    -0.413173172051E+03   -0.19834E-03   -0.28622E-03  5781   0.517E-02    0.200E-02
RMM:   7    -0.413173184271E+03   -0.12220E-04   -0.33249E-04  5887   0.151E-02    0.148E-02
RMM:   8    -0.413173181493E+03    0.27777E-05   -0.44880E-05  4743   0.601E-03    0.946E-03
RMM:   9    -0.413173175498E+03    0.59949E-05   -0.80846E-06  3188   0.314E-03    0.633E-03
RMM:  10    -0.413173170615E+03    0.48839E-05   -0.21513E-06  2548   0.218E-03    0.339E-03
RMM:  11    -0.413173166139E+03    0.44753E-05   -0.16864E-06  2535   0.198E-03    0.166E-03
RMM:  12    -0.413173162725E+03    0.34139E-05   -0.81398E-07  2464   0.148E-03    0.531E-04
RMM:  13    -0.413173161713E+03    0.10124E-05   -0.33665E-07  2127   0.987E-04    0.339E-04
RMM:  14    -0.413173160374E+03    0.13387E-05   -0.17801E-07  1573   0.764E-04    0.188E-04
RMM:  15    -0.413173157354E+03    0.30207E-05   -0.18506E-07  1653   0.764E-04    0.173E-04
RMM:  16    -0.413173156831E+03    0.52253E-06   -0.68032E-08  1024   0.606E-04
   22 T=    62. E= -.41286657E+03 F= -.41317316E+03 E0= -.41315121E+03  EK= 0.30659E+00 SP= 0.00E+00 SK= 0.00E+00
       N       E                     dE             d eps       ncg     rms          rms(c)
RMM:   1    -0.413164833473E+03    0.83239E-02   -0.11372E+01  4298   0.792E-01    0.915E-01
RMM:   2    -0.413175024381E+03   -0.10191E-01   -0.13788E-01  4281   0.105E-01    0.636E-01
RMM:   3    -0.413174385226E+03    0.63915E-03   -0.69436E-03  4875   0.448E-02    0.182E-01
RMM:   4    -0.413211626182E+03   -0.37241E-01   -0.38595E-02  5143   0.163E-01    0.802E-01
RMM:   5    -0.413173622474E+03    0.38004E-01   -0.18680E-02  4792   0.135E-01    0.416E-02
RMM:   6    -0.413173824571E+03   -0.20210E-03   -0.30392E-03  5773   0.534E-02    0.210E-02
RMM:   7    -0.413173836002E+03   -0.11431E-04   -0.35645E-04  5889   0.156E-02    0.155E-02
RMM:   8    -0.413173831599E+03    0.44034E-05   -0.47583E-05  4787   0.622E-03    0.981E-03
RMM:   9    -0.413173823871E+03    0.77281E-05   -0.84950E-06  3224   0.328E-03    0.651E-03
RMM:  10    -0.413173816690E+03    0.71812E-05   -0.22977E-06  2553   0.231E-03    0.349E-03
RMM:  11    -0.413173810110E+03    0.65799E-05   -0.17051E-06  2532   0.201E-03    0.171E-03
RMM:  12    -0.413173805169E+03    0.49407E-05   -0.83667E-07  2465   0.152E-03    0.536E-04
RMM:  13    -0.413173803734E+03    0.14351E-05   -0.35113E-07  2141   0.101E-03    0.349E-04
RMM:  14    -0.413173802087E+03    0.16470E-05   -0.18371E-07  1628   0.776E-04    0.198E-04
RMM:  15    -0.413173797959E+03    0.41283E-05   -0.19025E-07  1702   0.776E-04    0.184E-04
RMM:  16    -0.413173797360E+03    0.59822E-06   -0.70711E-08  1036   0.605E-04
   23 T=    63. E= -.41286627E+03 F= -.41317380E+03 E0= -.41315190E+03  EK= 0.30753E+00 SP= 0.00E+00 SK= 0.00E+00
       N       E                     dE             d eps       ncg     rms          rms(c)
RMM:   1    -0.413165761407E+03    0.80366E-02   -0.11368E+01  4291   0.792E-01    0.894E-01
RMM:   2    -0.413177138287E+03   -0.11377E-01   -0.14115E-01  4278   0.105E-01    0.643E-01
RMM:   3    -0.413175763066E+03    0.13752E-02   -0.64983E-03  4841   0.425E-02    0.173E-01
RMM:   4    -0.413208466488E+03   -0.32703E-01   -0.33455E-02  5149   0.152E-01    0.752E-01
RMM:   5    -0.413175242264E+03    0.33224E-01   -0.16485E-02  4800   0.126E-01    0.368E-02
RMM:   6    -0.413175415689E+03   -0.17342E-03   -0.25638E-03  5779   0.495E-02    0.189E-02
RMM:   7    -0.413175427994E+03   -0.12305E-04   -0.29344E-04  5855   0.145E-02    0.138E-02
RMM:   8    -0.413175426713E+03    0.12812E-05   -0.41728E-05  4705   0.584E-03    0.905E-03
RMM:   9    -0.413175422198E+03    0.45150E-05   -0.76534E-06  3175   0.313E-03    0.608E-03
RMM:  10    -0.413175419368E+03    0.28296E-05   -0.20654E-06  2551   0.215E-03    0.330E-03
RMM:  11    -0.413175416915E+03    0.24534E-05   -0.16803E-06  2537   0.196E-03    0.161E-03
RMM:  12    -0.413175414955E+03    0.19599E-05   -0.76592E-07  2444   0.144E-03    0.535E-04
RMM:  13    -0.413175414385E+03    0.56995E-06   -0.31667E-07  2111   0.960E-04
   24 T=    63. E= -.41286657E+03 F= -.41317541E+03 E0= -.41315357E+03  EK= 0.30884E+00 SP= 0.00E+00 SK= 0.00E+00
       N       E                     dE             d eps       ncg     rms          rms(c)
RMM:   1    -0.413166985041E+03    0.84299E-02   -0.11478E+01  4295   0.801E-01    0.909E-01
RMM:   2    -0.413178076908E+03   -0.11092E-01   -0.14124E-01  4279   0.106E-01    0.649E-01
RMM:   3    -0.413176706636E+03    0.13703E-02   -0.66365E-03  4827   0.424E-02    0.172E-01
RMM:   4    -0.413207333674E+03   -0.30627E-01   -0.31081E-02  5149   0.147E-01    0.728E-01
RMM:   5    -0.413176256309E+03    0.31077E-01   -0.15434E-02  4806   0.122E-01    0.358E-02
RMM:   6    -0.413176416899E+03   -0.16059E-03   -0.24051E-03  5787   0.477E-02    0.190E-02
RMM:   7    -0.413176427638E+03   -0.10739E-04   -0.26689E-04  5833   0.140E-02    0.133E-02
RMM:   8    -0.413176425693E+03    0.19445E-05   -0.40041E-05  4724   0.579E-03    0.906E-03
RMM:   9    -0.413176419745E+03    0.59479E-05   -0.78165E-06  3249   0.323E-03    0.603E-03
RMM:  10    -0.413176415530E+03    0.42156E-05   -0.20142E-06  2551   0.219E-03    0.331E-03
RMM:  11    -0.413176411272E+03    0.42579E-05   -0.17180E-06  2543   0.200E-03    0.160E-03
RMM:  12    -0.413176408281E+03    0.29907E-05   -0.74137E-07  2443   0.143E-03    0.521E-04
RMM:  13    -0.413176407455E+03    0.82582E-06   -0.29888E-07  2058   0.936E-04
   25 T=    63. E= -.41286652E+03 F= -.41317641E+03 E0= -.41315461E+03  EK= 0.30989E+00 SP= 0.00E+00 SK= 0.00E+00
       N       E                     dE             d eps       ncg     rms          rms(c)
RMM:   1    -0.413168369755E+03    0.80385E-02   -0.11503E+01  4291   0.810E-01    0.924E-01
RMM:   2    -0.413178479692E+03   -0.10110E-01   -0.14036E-01  4271   0.109E-01    0.641E-01
RMM:   3    -0.413177655312E+03    0.82438E-03   -0.68734E-03  4688   0.403E-02    0.171E-01
RMM:   4    -0.413198193479E+03   -0.20538E-01   -0.20715E-02  5143   0.120E-01    0.600E-01
RMM:   5    -0.413177360801E+03    0.20833E-01   -0.10389E-02  4815   0.995E-02    0.318E-02
RMM:   6    -0.413177460471E+03   -0.99670E-04   -0.16320E-03  5807   0.383E-02    0.178E-02
RMM:   7    -0.413177462104E+03   -0.16325E-05   -0.15905E-04  5520   0.112E-02    0.103E-02
RMM:   8    -0.413177453805E+03    0.82986E-05   -0.20063E-05  3758   0.423E-03    0.656E-03
RMM:   9    -0.413177444884E+03    0.89214E-05   -0.32980E-06  2624   0.230E-03    0.364E-03
RMM:  10    -0.413177438983E+03    0.59010E-05   -0.16011E-06  2529   0.183E-03    0.236E-03
RMM:  11    -0.413177432208E+03    0.67747E-05   -0.10100E-06  2493   0.165E-03    0.115E-03
RMM:  12    -0.413177428149E+03    0.40588E-05   -0.44576E-07  2280   0.115E-03    0.437E-04
RMM:  13    -0.413177426802E+03    0.13473E-05   -0.20381E-07  1612   0.796E-04    0.289E-04
RMM:  14    -0.413177422983E+03    0.38188E-05   -0.17691E-07  1659   0.774E-04    0.184E-04
RMM:  15    -0.413177419835E+03    0.31482E-05   -0.10767E-07  1253   0.668E-04    0.122E-04
RMM:  16    -0.413177417377E+03    0.24575E-05   -0.78737E-08  1161   0.630E-04    0.828E-05
RMM:  17    -0.413177413085E+03    0.42924E-05   -0.10763E-07  1468   0.672E-04    0.466E-05
RMM:  18    -0.413177412384E+03    0.70056E-06   -0.38993E-08   892   0.535E-04
   26 T=    63. E= -.41286630E+03 F= -.41317741E+03 E0= -.41315566E+03  EK= 0.31111E+00 SP= 0.00E+00 SK= 0.00E+00
       N       E                     dE             d eps       ncg     rms          rms(c)
RMM:   1    -0.413169508784E+03    0.79043E-02   -0.11469E+01  4293   0.812E-01    0.900E-01
RMM:   2    -0.413180649437E+03   -0.11141E-01   -0.14186E-01  4272   0.105E-01    0.643E-01
RMM:   3    -0.413179574044E+03    0.10754E-02   -0.65346E-03  4680   0.411E-02    0.169E-01
RMM:   4    -0.413200930118E+03   -0.21356E-01   -0.21545E-02  5154   0.123E-01    0.610E-01
RMM:   5    -0.413179294901E+03    0.21635E-01   -0.10781E-02  4808   0.101E-01    0.308E-02
RMM:   6    -0.413179404228E+03   -0.10933E-03   -0.17013E-03  5813   0.389E-02    0.171E-02
RMM:   7    -0.413179409761E+03   -0.55332E-05   -0.16749E-04  5567   0.114E-02    0.105E-02
RMM:   8    -0.413179406437E+03    0.33241E-05   -0.24743E-05  4198   0.469E-03    0.726E-03
RMM:   9    -0.413179401573E+03    0.48644E-05   -0.66091E-06  3153   0.300E-03    0.509E-03
RMM:  10    -0.413179398789E+03    0.27842E-05   -0.15303E-06  2534   0.200E-03    0.308E-03
RMM:  11    -0.413179394522E+03    0.42667E-05   -0.15192E-06  2530   0.190E-03    0.148E-03
RMM:  12    -0.413179391538E+03    0.29835E-05   -0.62905E-07  2417   0.135E-03    0.545E-04
RMM:  13    -0.413179390866E+03    0.67207E-06   -0.22862E-07  1938   0.864E-04
   27 T=    64. E= -.41286662E+03 F= -.41317939E+03 E0= -.41315769E+03  EK= 0.31277E+00 SP= 0.00E+00 SK= 0.00E+00
       N       E                     dE             d eps       ncg     rms          rms(c)
RMM:   1    -0.413171032561E+03    0.83590E-02   -0.11605E+01  4292   0.840E-01    0.908E-01
RMM:   2    -0.413181834416E+03   -0.10802E-01   -0.14509E-01  4268   0.108E-01    0.655E-01
RMM:   3    -0.413180534950E+03    0.12995E-02   -0.66425E-03  4516   0.424E-02    0.164E-01
RMM:   4    -0.413192760497E+03   -0.12226E-01   -0.12598E-02  5154   0.963E-02    0.466E-01
RMM:   5    -0.413180310339E+03    0.12450E-01   -0.61188E-03  4823   0.764E-02    0.249E-02
RMM:   6    -0.413180357873E+03   -0.47534E-04   -0.96578E-04  5839   0.291E-02    0.149E-02
RMM:   7    -0.413180360826E+03   -0.29532E-05   -0.10224E-04  5442   0.932E-03    0.951E-03
RMM:   8    -0.413180354793E+03    0.60338E-05   -0.18141E-05  4090   0.440E-03    0.586E-03
RMM:   9    -0.413180351923E+03    0.28697E-05   -0.40373E-06  2820   0.272E-03    0.404E-03
RMM:  10    -0.413180348744E+03    0.31785E-05   -0.92408E-07  2504   0.166E-03    0.245E-03
RMM:  11    -0.413180344678E+03    0.40664E-05   -0.94112E-07  2494   0.152E-03    0.119E-03
RMM:  12    -0.413180341345E+03    0.33325E-05   -0.50737E-07  2298   0.114E-03    0.406E-04
RMM:  13    -0.413180340657E+03    0.68839E-06   -0.17610E-07  1513   0.752E-04
   28 T=    64. E= -.41286606E+03 F= -.41318034E+03 E0= -.41315869E+03  EK= 0.31428E+00 SP= 0.00E+00 SK= 0.00E+00
       N       E                     dE             d eps       ncg     rms          rms(c)
RMM:   1    -0.413173591172E+03    0.67502E-02   -0.11681E+01  4289   0.843E-01    0.933E-01
RMM:   2    -0.413183683985E+03   -0.10093E-01   -0.14308E-01  4266   0.115E-01    0.647E-01
RMM:   3    -0.413182688975E+03    0.99501E-03   -0.70114E-03  4314   0.414E-02    0.168E-01
RMM:   4    -0.413185817695E+03   -0.31287E-02   -0.37487E-03  5155   0.522E-02    0.235E-01
RMM:   5    -0.413182698015E+03    0.31197E-02   -0.15322E-03  4822   0.386E-02    0.220E-02
RMM:   6    -0.413182696335E+03    0.16805E-05   -0.27443E-04  5749   0.165E-02    0.159E-02
RMM:   7    -0.413182685449E+03    0.10886E-04   -0.56334E-05  5043   0.768E-03    0.661E-03
RMM:   8    -0.413182676460E+03    0.89885E-05   -0.59311E-06  2960   0.310E-03    0.318E-03
RMM:   9    -0.413182672336E+03    0.41242E-05   -0.10158E-06  2511   0.170E-03    0.214E-03
RMM:  10    -0.413182664991E+03    0.73447E-05   -0.62327E-07  2390   0.126E-03    0.112E-03
RMM:  11    -0.413182659117E+03    0.58743E-05   -0.37997E-07  2050   0.985E-04    0.443E-04
RMM:  12    -0.413182654482E+03    0.46351E-05   -0.21180E-07  1587   0.801E-04    0.189E-04
RMM:  13    -0.413182651087E+03    0.33951E-05   -0.13102E-07  1312   0.694E-04    0.106E-04
RMM:  14    -0.413182646784E+03    0.43028E-05   -0.11282E-07  1402   0.682E-04    0.875E-05
RMM:  15    -0.413182642577E+03    0.42066E-05   -0.93423E-08  1323   0.644E-04    0.856E-05
RMM:  16    -0.413182640796E+03    0.17811E-05   -0.50797E-08   980   0.557E-04    0.428E-05
RMM:  17    -0.413182638843E+03    0.19533E-05   -0.44829E-08   975   0.550E-04    0.254E-05
RMM:  18    -0.413182638409E+03    0.43421E-06   -0.20535E-08   729   0.505E-04
   29 T=    64. E= -.41286642E+03 F= -.41318264E+03 E0= -.41316104E+03  EK= 0.31622E+00 SP= 0.00E+00 SK= 0.00E+00
       N       E                     dE             d eps       ncg     rms          rms(c)
RMM:   1    -0.413174711563E+03    0.79273E-02   -0.11638E+01  4287   0.843E-01    0.910E-01
RMM:   2    -0.413185666701E+03   -0.10955E-01   -0.14549E-01  4266   0.110E-01    0.646E-01
RMM:   3    -0.413184415856E+03    0.12508E-02   -0.66305E-03  4457   0.429E-02    0.169E-01
RMM:   4    -0.413192878339E+03   -0.84625E-02   -0.89688E-03  5157   0.817E-02    0.389E-01
RMM:   5    -0.413184253453E+03    0.86249E-02   -0.42893E-03  4823   0.639E-02    0.238E-02
RMM:   6    -0.413184277414E+03   -0.23962E-04   -0.68992E-04  5836   0.246E-02    0.157E-02
RMM:   7    -0.413184275439E+03    0.19754E-05   -0.93863E-05  5412   0.915E-03    0.981E-03
RMM:   8    -0.413184266556E+03    0.88827E-05   -0.12781E-05  3719   0.413E-03    0.456E-03
RMM:   9    -0.413184262239E+03    0.43172E-05   -0.26763E-06  2673   0.230E-03    0.315E-03
RMM:  10    -0.413184258028E+03    0.42110E-05   -0.73836E-07  2478   0.145E-03    0.193E-03
RMM:  11    -0.413184252735E+03    0.52935E-05   -0.61021E-07  2434   0.126E-03    0.850E-04
RMM:  12    -0.413184249062E+03    0.36723E-05   -0.32280E-07  1992   0.936E-04    0.314E-04
RMM:  13    -0.413184247680E+03    0.13825E-05   -0.14004E-07  1316   0.701E-04    0.176E-04
RMM:  14    -0.413184245295E+03    0.23852E-05   -0.10171E-07  1165   0.664E-04    0.937E-05
RMM:  15    -0.413184242499E+03    0.27956E-05   -0.83966E-08  1171   0.652E-04    0.918E-05
RMM:  16    -0.413184241711E+03    0.78798E-06   -0.43617E-08   919   0.588E-04
   30 T=    65. E= -.41286631E+03 F= -.41318424E+03 E0= -.41316269E+03  EK= 0.31793E+00 SP= 0.00E+00 SK= 0.00E+00
       N       E                     dE             d eps       ncg     rms          rms(c)
RMM:   1    -0.413186850997E+03   -0.26085E-02   -0.11870E+01  4289   0.919E-01    0.911E-01
RMM:   2    -0.413188100778E+03   -0.12498E-02   -0.15190E-01  4265   0.121E-01    0.660E-01
RMM:   3    -0.413186046664E+03    0.20541E-02   -0.65009E-03  4370   0.396E-02    0.166E-01
RMM:   4    -0.413189804417E+03   -0.37578E-02   -0.44792E-03  5137   0.572E-02    0.258E-01
RMM:   5    -0.413186050055E+03    0.37544E-02   -0.18591E-03  4821   0.422E-02    0.203E-02
RMM:   6    -0.413186051153E+03   -0.10974E-05   -0.30467E-04  5749   0.172E-02    0.147E-02
RMM:   7    -0.413186047628E+03    0.35246E-05   -0.55176E-05  5054   0.750E-03    0.681E-03
RMM:   8    -0.413186042269E+03    0.53593E-05   -0.75216E-06  3124   0.337E-03    0.324E-03
RMM:   9    -0.413186040590E+03    0.16789E-05   -0.11666E-06  2526   0.179E-03    0.213E-03
RMM:  10    -0.413186037564E+03    0.30266E-05   -0.61977E-07  2333   0.121E-03    0.118E-03
RMM:  11    -0.413186034634E+03    0.29297E-05   -0.41217E-07  1988   0.987E-04    0.436E-04
RMM:  12    -0.413186032507E+03    0.21267E-05   -0.22350E-07  1580   0.796E-04    0.197E-04
RMM:  13    -0.413186030993E+03    0.15143E-05   -0.13159E-07  1232   0.684E-04    0.116E-04
RMM:  14    -0.413186029162E+03    0.18310E-05   -0.10101E-07  1175   0.654E-04    0.647E-05
RMM:  15    -0.413186026952E+03    0.22100E-05   -0.93875E-08  1257   0.643E-04    0.643E-05
RMM:  16    -0.413186025885E+03    0.10666E-05   -0.46619E-08   901   0.566E-04    0.280E-05
RMM:  17    -0.413186024690E+03    0.11952E-05   -0.35582E-08   860   0.553E-04    0.231E-05
RMM:  18    -0.413186024351E+03    0.33962E-06   -0.18751E-08   723   0.531E-04
   31 T=    65. E= -.41286631E+03 F= -.41318602E+03 E0= -.41316453E+03  EK= 0.31971E+00 SP= 0.00E+00 SK= 0.00E+00
       N       E                     dE             d eps       ncg     rms          rms(c)
RMM:   1    -0.413186096811E+03   -0.72121E-04   -0.11937E+01  4293   0.931E-01    0.937E-01
RMM:   2    -0.413189856370E+03   -0.37596E-02   -0.15483E-01  4263   0.121E-01    0.656E-01
RMM:   3    -0.413188780859E+03    0.10755E-02   -0.69687E-03  4282   0.503E-02    0.178E-01
RMM:   4    -0.413191295891E+03   -0.25150E-02   -0.33350E-03  5094   0.512E-02    0.212E-01
RMM:   5    -0.413188774585E+03    0.25213E-02   -0.12197E-03  4806   0.348E-02    0.220E-02
RMM:   6    -0.413188769463E+03    0.51215E-05   -0.22850E-04  5686   0.153E-02    0.162E-02
RMM:   7    -0.413188756794E+03    0.12669E-04   -0.50947E-05  4880   0.745E-03    0.582E-03
RMM:   8    -0.413188748695E+03    0.80985E-05   -0.56953E-06  2974   0.311E-03    0.312E-03
RMM:   9    -0.413188745438E+03    0.32573E-05   -0.85008E-07  2491   0.166E-03    0.203E-03
RMM:  10    -0.413188737912E+03    0.75263E-05   -0.59392E-07  2364   0.122E-03    0.101E-03
RMM:  11    -0.413188733128E+03    0.47834E-05   -0.29684E-07  1800   0.894E-04    0.423E-04
RMM:  12    -0.413188728314E+03    0.48144E-05   -0.19407E-07  1589   0.787E-04    0.180E-04
RMM:  13    -0.413188724683E+03    0.36309E-05   -0.11985E-07  1295   0.685E-04    0.100E-04
RMM:  14    -0.413188721504E+03    0.31794E-05   -0.83868E-08  1181   0.634E-04    0.720E-05
RMM:  15    -0.413188716949E+03    0.45542E-05   -0.85009E-08  1286   0.640E-04    0.559E-05
RMM:  16    -0.413188714989E+03    0.19600E-05   -0.44887E-08   935   0.563E-04    0.439E-05
RMM:  17    -0.413188713323E+03    0.16665E-05   -0.35639E-08   919   0.551E-04    0.238E-05
RMM:  18    -0.413188712791E+03    0.53214E-06   -0.17684E-08   698   0.511E-04
   32 T=    66. E= -.41286669E+03 F= -.41318871E+03 E0= -.41316727E+03  EK= 0.32203E+00 SP= 0.00E+00 SK= 0.00E+00
       N       E                     dE             d eps       ncg     rms          rms(c)
RMM:   1    -0.413184896140E+03    0.38172E-02   -0.11887E+01  4293   0.928E-01    0.925E-01
RMM:   2    -0.413192164286E+03   -0.72681E-02   -0.15293E-01  4272   0.132E-01    0.652E-01
RMM:   3    -0.413190661365E+03    0.15029E-02   -0.66403E-03  4153   0.408E-02    0.176E-01
RMM:   4    -0.413190926267E+03   -0.26490E-03   -0.12971E-03  4958   0.284E-02    0.695E-02
RMM:   5    -0.413190671592E+03    0.25467E-03   -0.14522E-04  4700   0.127E-02    0.219E-02
RMM:   6    -0.413190659023E+03    0.12569E-04   -0.72718E-05  5258   0.909E-03    0.155E-02
RMM:   7    -0.413190643800E+03    0.15223E-04   -0.30025E-05  4067   0.607E-03    0.419E-03
RMM:   8    -0.413190638657E+03    0.51436E-05   -0.27034E-06  2614   0.254E-03    0.265E-03
RMM:   9    -0.413190636483E+03    0.21737E-05   -0.51202E-07  2323   0.139E-03    0.162E-03
RMM:  10    -0.413190629797E+03    0.66864E-05   -0.36852E-07  1829   0.946E-04    0.659E-04
RMM:  11    -0.413190623294E+03    0.65029E-05   -0.22473E-07  1613   0.782E-04    0.270E-04
RMM:  12    -0.413190620667E+03    0.26261E-05   -0.85563E-08  1215   0.625E-04    0.156E-04
RMM:  13    -0.413190614348E+03    0.63195E-05   -0.94282E-08  1182   0.642E-04    0.108E-04
RMM:  14    -0.413190611298E+03    0.30505E-05   -0.42542E-08   900   0.561E-04    0.733E-05
RMM:  15    -0.413190609386E+03    0.19118E-05   -0.25376E-08   771   0.526E-04    0.556E-05
RMM:  16    -0.413190605859E+03    0.35266E-05   -0.38747E-08   985   0.564E-04    0.465E-05
RMM:  17    -0.413190605582E+03    0.27763E-06   -0.84720E-09   536   0.470E-04
   33 T=    66. E= -.41286643E+03 F= -.41319061E+03 E0= -.41316921E+03  EK= 0.32417E+00 SP= 0.00E+00 SK= 0.00E+00
       N       E                     dE             d eps       ncg     rms          rms(c)
RMM:   1    -0.413186136747E+03    0.44691E-02   -0.11995E+01  4291   0.923E-01    0.916E-01
RMM:   2    -0.413195000968E+03   -0.88642E-02   -0.15623E-01  4259   0.128E-01    0.665E-01
RMM:   3    -0.413193190340E+03    0.18106E-02   -0.65352E-03  4358   0.443E-02    0.173E-01
RMM:   4    -0.413197021303E+03   -0.38310E-02   -0.45836E-03  5140   0.598E-02    0.262E-01
RMM:   5    -0.413193194861E+03    0.38264E-02   -0.18600E-03  4798   0.430E-02    0.217E-02
RMM:   6    -0.413193184356E+03    0.10505E-04   -0.31600E-04  5713   0.182E-02    0.154E-02
RMM:   7    -0.413193180841E+03    0.35155E-05   -0.58368E-05  5040   0.789E-03    0.701E-03
RMM:   8    -0.413193175264E+03    0.55767E-05   -0.91814E-06  3368   0.367E-03    0.347E-03
RMM:   9    -0.413193173367E+03    0.18975E-05   -0.12824E-06  2536   0.188E-03    0.212E-03
RMM:  10    -0.413193169905E+03    0.34613E-05   -0.61546E-07  2358   0.124E-03    0.118E-03
RMM:  11    -0.413193166339E+03    0.35668E-05   -0.40916E-07  2077   0.100E-03    0.466E-04
RMM:  12    -0.413193163628E+03    0.27110E-05   -0.23434E-07  1614   0.803E-04    0.202E-04
RMM:  13    -0.413193161992E+03    0.16362E-05   -0.12355E-07  1142   0.672E-04    0.121E-04
RMM:  14    -0.413193160277E+03    0.17143E-05   -0.92696E-08  1086   0.644E-04    0.668E-05
RMM:  15    -0.413193157676E+03    0.26017E-05   -0.90684E-08  1192   0.648E-04    0.545E-05
RMM:  16    -0.413193157021E+03    0.65472E-06   -0.43367E-08   870   0.568E-04
   34 T=    66. E= -.41286660E+03 F= -.41319316E+03 E0= -.41317181E+03  EK= 0.32655E+00 SP= 0.00E+00 SK= 0.00E+00
       N       E                     dE             d eps       ncg     rms          rms(c)
RMM:   1    -0.413186136974E+03    0.70207E-02   -0.12092E+01  4298   0.930E-01    0.941E-01
RMM:   2    -0.413197220533E+03   -0.11084E-01   -0.15686E-01  4258   0.134E-01    0.665E-01
RMM:   3    -0.413195847293E+03    0.13732E-02   -0.68335E-03  4496   0.444E-02    0.180E-01
RMM:   4    -0.413204354363E+03   -0.85071E-02   -0.90955E-03  5160   0.816E-02    0.393E-01
RMM:   5    -0.413195663032E+03    0.86913E-02   -0.44212E-03  4816   0.648E-02    0.262E-02
RMM:   6    -0.413195655273E+03    0.77589E-05   -0.71186E-04  5785   0.259E-02    0.170E-02
RMM:   7    -0.413195652320E+03    0.29530E-05   -0.10469E-04  5414   0.953E-03    0.954E-03
RMM:   8    -0.413195643177E+03    0.91432E-05   -0.15067E-05  3830   0.430E-03    0.453E-03
RMM:   9    -0.413195638254E+03    0.49230E-05   -0.27075E-06  2698   0.232E-03    0.279E-03
RMM:  10    -0.413195632367E+03    0.58866E-05   -0.76080E-07  2474   0.144E-03    0.166E-03
RMM:  11    -0.413195625301E+03    0.70666E-05   -0.55772E-07  2388   0.120E-03    0.728E-04
RMM:  12    -0.413195619759E+03    0.55416E-05   -0.31918E-07  2017   0.933E-04    0.281E-04
RMM:  13    -0.413195617533E+03    0.22263E-05   -0.14688E-07  1310   0.710E-04    0.172E-04
RMM:  14    -0.413195614436E+03    0.30967E-05   -0.10111E-07  1125   0.661E-04    0.972E-05
RMM:  15    -0.413195609819E+03    0.46167E-05   -0.91419E-08  1217   0.666E-04    0.855E-05
RMM:  16    -0.413195608636E+03    0.11835E-05   -0.49968E-08   940   0.599E-04    0.630E-05
RMM:  17    -0.413195604481E+03    0.41548E-05   -0.65723E-08  1283   0.637E-04    0.540E-05
RMM:  18    -0.413195603438E+03    0.10430E-05   -0.28603E-08   813   0.538E-04    0.275E-05
RMM:  19    -0.413195603167E+03    0.27086E-06   -0.16983E-08   696   0.519E-04
   35 T=    67. E= -.41286651E+03 F= -.41319560E+03 E0= -.41317430E+03  EK= 0.32909E+00 SP= 0.00E+00 SK= 0.00E+00
       N       E                     dE             d eps       ncg     rms          rms(c)
RMM:   1    -0.413189309293E+03    0.62941E-02   -0.12133E+01  4298   0.961E-01    0.942E-01
RMM:   2    -0.413199075310E+03   -0.97660E-02   -0.15606E-01  4251   0.121E-01    0.658E-01
RMM:   3    -0.413198118836E+03    0.95647E-03   -0.71194E-03  4822   0.462E-02    0.193E-01
RMM:   4    -0.413229763543E+03   -0.31645E-01   -0.32023E-02  5161   0.150E-01    0.742E-01
RMM:   5    -0.413197723457E+03    0.32040E-01   -0.16129E-02  4805   0.123E-01    0.388E-02
RMM:   6    -0.413197785510E+03   -0.62054E-04   -0.25337E-03  5867   0.469E-02    0.204E-02
RMM:   7    -0.413197795953E+03   -0.10443E-04   -0.26013E-04  5773   0.139E-02    0.134E-02
RMM:   8    -0.413197788320E+03    0.76331E-05   -0.37412E-05  4704   0.575E-03    0.881E-03
RMM:   9    -0.413197782709E+03    0.56109E-05   -0.11881E-05  3819   0.386E-03    0.587E-03
RMM:  10    -0.413197773886E+03    0.88229E-05   -0.22846E-06  2570   0.244E-03    0.302E-03
RMM:  11    -0.413197766934E+03    0.69525E-05   -0.15008E-06  2512   0.192E-03    0.168E-03
RMM:  12    -0.413197758177E+03    0.87570E-05   -0.84817E-07  2468   0.160E-03    0.628E-04
RMM:  13    -0.413197755522E+03    0.26551E-05   -0.32431E-07  2199   0.103E-03    0.450E-04
RMM:  14    -0.413197754119E+03    0.14027E-05   -0.13841E-07  1493   0.730E-04    0.284E-04
RMM:  15    -0.413197747341E+03    0.67781E-05   -0.15138E-07  1883   0.773E-04    0.351E-04
RMM:  16    -0.413197746558E+03    0.78279E-06   -0.45517E-08   931   0.559E-04
   36 T=    67. E= -.41286625E+03 F= -.41319775E+03 E0= -.41317649E+03  EK= 0.33150E+00 SP= 0.00E+00 SK= 0.00E+00
       N       E                     dE             d eps       ncg     rms          rms(c)
RMM:   1    -0.413191395875E+03    0.63515E-02   -0.12193E+01  4303   0.989E-01    0.924E-01
RMM:   2    -0.413202596263E+03   -0.11200E-01   -0.16234E-01  4248   0.136E-01    0.670E-01
RMM:   3    -0.413201232758E+03    0.13635E-02   -0.68632E-03  4784   0.527E-02    0.198E-01
RMM:   4    -0.413239962367E+03   -0.38730E-01   -0.39382E-02  5161   0.166E-01    0.818E-01
RMM:   5    -0.413200661029E+03    0.39301E-01   -0.19939E-02  4805   0.137E-01    0.402E-02
RMM:   6    -0.413200751879E+03   -0.90850E-04   -0.29761E-03  5863   0.514E-02    0.205E-02
RMM:   7    -0.413200764972E+03   -0.13093E-04   -0.29714E-04  5747   0.148E-02    0.133E-02
RMM:   8    -0.413200759380E+03    0.55927E-05   -0.35054E-05  4204   0.526E-03    0.822E-03
RMM:   9    -0.413200755617E+03    0.37628E-05   -0.12342E-05  3805   0.378E-03    0.561E-03
RMM:  10    -0.413200750078E+03    0.55393E-05   -0.29067E-06  2658   0.251E-03    0.291E-03
RMM:  11    -0.413200744371E+03    0.57061E-05   -0.19012E-06  2549   0.210E-03    0.163E-03
RMM:  12    -0.413200739691E+03    0.46806E-05   -0.78957E-07  2466   0.154E-03    0.682E-04
RMM:  13    -0.413200738486E+03    0.12046E-05   -0.30807E-07  2177   0.993E-04    0.471E-04
RMM:  14    -0.413200737351E+03    0.11354E-05   -0.13686E-07  1464   0.727E-04    0.274E-04
RMM:  15    -0.413200732701E+03    0.46500E-05   -0.19247E-07  2015   0.809E-04    0.434E-04
RMM:  16    -0.413200732160E+03    0.54057E-06   -0.50677E-08   965   0.571E-04
   37 T=    68. E= -.41286639E+03 F= -.41320073E+03 E0= -.41317951E+03  EK= 0.33434E+00 SP= 0.00E+00 SK= 0.00E+00
       N       E                     dE             d eps       ncg     rms          rms(c)
RMM:   1    -0.413199745072E+03    0.98763E-03   -0.12412E+01  4308   0.104E+00    0.945E-01
RMM:   2    -0.413205535073E+03   -0.57900E-02   -0.16214E-01  4247   0.132E-01    0.674E-01
RMM:   3    -0.413203824722E+03    0.17104E-02   -0.71186E-03  4722   0.514E-02    0.195E-01
RMM:   4    -0.413234982726E+03   -0.31158E-01   -0.31393E-02  5156   0.148E-01    0.736E-01
RMM:   5    -0.413203417987E+03    0.31565E-01   -0.16120E-02  4815   0.122E-01    0.372E-02
RMM:   6    -0.413203475701E+03   -0.57714E-04   -0.23851E-03  5848   0.461E-02    0.200E-02
RMM:   7    -0.413203485863E+03   -0.10162E-04   -0.24970E-04  5785   0.137E-02    0.132E-02
RMM:   8    -0.413203479027E+03    0.68356E-05   -0.37477E-05  4740   0.572E-03    0.858E-03
RMM:   9    -0.413203474589E+03    0.44385E-05   -0.11466E-05  3762   0.375E-03    0.555E-03
RMM:  10    -0.413203467443E+03    0.71460E-05   -0.21719E-06  2556   0.233E-03    0.288E-03
RMM:  11    -0.413203461680E+03    0.57629E-05   -0.14548E-06  2512   0.187E-03    0.156E-03
RMM:  12    -0.413203454990E+03    0.66902E-05   -0.76440E-07  2458   0.150E-03    0.591E-04
RMM:  13    -0.413203452957E+03    0.20329E-05   -0.30518E-07  2151   0.991E-04    0.420E-04
RMM:  14    -0.413203451680E+03    0.12770E-05   -0.13605E-07  1468   0.719E-04    0.262E-04
RMM:  15    -0.413203446091E+03    0.55889E-05   -0.14554E-07  1761   0.760E-04    0.288E-04
RMM:  16    -0.413203445188E+03    0.90277E-06   -0.47921E-08   934   0.573E-04
   38 T=    69. E= -.41286655E+03 F= -.41320345E+03 E0= -.41318227E+03  EK= 0.33689E+00 SP= 0.00E+00 SK= 0.00E+00
       N       E                     dE             d eps       ncg     rms          rms(c)
RMM:   1    -0.413200212620E+03    0.32335E-02   -0.12445E+01  4304   0.107E+00    0.959E-01
RMM:   2    -0.413207136440E+03   -0.69238E-02   -0.16465E-01  4256   0.125E-01    0.668E-01
RMM:   3    -0.413206313357E+03    0.82308E-03   -0.76715E-03  4941   0.555E-02    0.223E-01
RMM:   4    -0.413256245598E+03   -0.49932E-01   -0.52742E-02  5141   0.191E-01    0.927E-01
RMM:   5    -0.413205278412E+03    0.50967E-01   -0.25411E-02  4790   0.156E-01    0.482E-02
RMM:   6    -0.413205439879E+03   -0.16147E-03   -0.40285E-03  5841   0.588E-02    0.237E-02
RMM:   7    -0.413205456744E+03   -0.16865E-04   -0.40471E-04  5820   0.169E-02    0.157E-02
RMM:   8    -0.413205452863E+03    0.38810E-05   -0.57737E-05  4911   0.654E-03    0.109E-02
RMM:   9    -0.413205442476E+03    0.10387E-04   -0.16128E-05  4140   0.426E-03    0.672E-03
RMM:  10    -0.413205433146E+03    0.93307E-05   -0.38801E-06  2687   0.286E-03    0.333E-03
RMM:  11    -0.413205425954E+03    0.71917E-05   -0.17709E-06  2513   0.212E-03    0.195E-03
RMM:  12    -0.413205416893E+03    0.90609E-05   -0.91747E-07  2470   0.167E-03    0.676E-04
RMM:  13    -0.413205412781E+03    0.41124E-05   -0.38147E-07  2305   0.112E-03    0.433E-04
RMM:  14    -0.413205410140E+03    0.26406E-05   -0.17432E-07  1755   0.791E-04    0.273E-04
RMM:  15    -0.413205401981E+03    0.81586E-05   -0.15606E-07  1821   0.773E-04    0.291E-04
RMM:  16    -0.413205401231E+03    0.75055E-06   -0.55106E-08  1008   0.574E-04
   39 T=    69. E= -.41286628E+03 F= -.41320540E+03 E0= -.41318426E+03  EK= 0.33912E+00 SP= 0.00E+00 SK= 0.00E+00
       N       E                     dE             d eps       ncg     rms          rms(c)
RMM:   1    -0.413202414118E+03    0.29879E-02   -0.12448E+01  4309   0.112E+00    0.936E-01
RMM:   2    -0.413210491219E+03   -0.80771E-02   -0.16680E-01  4255   0.134E-01    0.673E-01
RMM:   3    -0.413209489070E+03    0.10021E-02   -0.73841E-03  4983   0.541E-02    0.231E-01
RMM:   4    -0.413263113906E+03   -0.53625E-01   -0.57881E-02  5138   0.199E-01    0.960E-01
RMM:   5    -0.413208221990E+03    0.54892E-01   -0.27014E-02  4784   0.162E-01    0.503E-02
RMM:   6    -0.413208415877E+03   -0.19389E-03   -0.44528E-03  5826   0.609E-02    0.232E-02
RMM:   7    -0.413208438644E+03   -0.22767E-04   -0.44679E-04  5868   0.176E-02    0.161E-02
RMM:   8    -0.413208438085E+03    0.55942E-06   -0.66446E-05  5044   0.702E-03    0.116E-02
RMM:   9    -0.413208429070E+03    0.90144E-05   -0.16039E-05  4105   0.433E-03    0.674E-03
RMM:  10    -0.413208422407E+03    0.66638E-05   -0.40998E-06  2693   0.290E-03    0.334E-03
RMM:  11    -0.413208417535E+03    0.48717E-05   -0.17965E-06  2519   0.213E-03    0.197E-03
RMM:  12    -0.413208411503E+03    0.60322E-05   -0.91930E-07  2470   0.167E-03    0.701E-04
RMM:  13    -0.413208408732E+03    0.27707E-05   -0.39593E-07  2292   0.112E-03    0.430E-04
RMM:  14    -0.413208406645E+03    0.20872E-05   -0.19260E-07  1798   0.811E-04    0.263E-04
RMM:  15    -0.413208400848E+03    0.57963E-05   -0.17033E-07  1755   0.773E-04    0.267E-04
RMM:  16    -0.413208400346E+03    0.50274E-06   -0.62048E-08  1028   0.589E-04
   40 T=    70. E= -.41286677E+03 F= -.41320840E+03 E0= -.41318730E+03  EK= 0.34163E+00 SP= 0.00E+00 SK= 0.00E+00
       N       E                     dE             d eps       ncg     rms          rms(c)
RMM:   1    -0.413207667853E+03    0.73299E-03   -0.12639E+01  4306   0.119E+00    0.947E-01
RMM:   2    -0.413211833635E+03   -0.41658E-02   -0.17431E-01  4264   0.140E-01    0.684E-01
RMM:   3    -0.413211416863E+03    0.41677E-03   -0.79391E-03  5041   0.579E-02    0.258E-01
RMM:   4    -0.413267112932E+03   -0.55696E-01   -0.63193E-02  5127   0.209E-01    0.983E-01
RMM:   5    -0.413209608930E+03    0.57504E-01   -0.28033E-02  4774   0.165E-01    0.527E-02
RMM:   6    -0.413209785019E+03   -0.17609E-03   -0.43369E-03  5814   0.619E-02    0.230E-02
RMM:   7    -0.413209807613E+03   -0.22594E-04   -0.46461E-04  5931   0.184E-02    0.169E-02
RMM:   8    -0.413209807414E+03    0.19885E-06   -0.74201E-05  5178   0.754E-03    0.117E-02
RMM:   9    -0.413209797738E+03    0.96765E-05   -0.13845E-05  3874   0.427E-03    0.592E-03
RMM:  10    -0.413209791178E+03    0.65599E-05   -0.41898E-06  2680   0.287E-03    0.294E-03
RMM:  11    -0.413209786577E+03    0.46007E-05   -0.15543E-06  2512   0.199E-03    0.159E-03
RMM:  12    -0.413209781235E+03    0.53424E-05   -0.77931E-07  2453   0.152E-03    0.632E-04
RMM:  13    -0.413209778341E+03    0.28942E-05   -0.35760E-07  2200   0.105E-03    0.371E-04
RMM:  14    -0.413209775350E+03    0.29913E-05   -0.19647E-07  1630   0.798E-04    0.222E-04
RMM:  15    -0.413209771144E+03    0.42058E-05   -0.14303E-07  1439   0.723E-04    0.141E-04
RMM:  16    -0.413209769657E+03    0.14867E-05   -0.77904E-08  1091   0.627E-04    0.681E-05
RMM:  17    -0.413209767316E+03    0.23408E-05   -0.65708E-08  1111   0.623E-04    0.445E-05
RMM:  18    -0.413209764054E+03    0.32624E-05   -0.64475E-08  1215   0.630E-04    0.432E-05
RMM:  19    -0.413209763656E+03    0.39746E-06   -0.26921E-08   813   0.557E-04
   41 T=    70. E= -.41286628E+03 F= -.41320976E+03 E0= -.41318870E+03  EK= 0.34348E+00 SP= 0.00E+00 SK= 0.00E+00
       N       E                     dE             d eps       ncg     rms          rms(c)
RMM:   1    -0.413216877487E+03   -0.71134E-02   -0.12768E+01  4308   0.127E+00    0.971E-01
RMM:   2    -0.413213526891E+03    0.33506E-02   -0.17742E-01  4293   0.146E-01    0.677E-01
RMM:   3    -0.413215993200E+03   -0.24663E-02   -0.10202E-02  5115   0.729E-02    0.330E-01
RMM:   4    -0.413250939417E+03   -0.34946E-01   -0.50789E-02  5093   0.189E-01    0.819E-01
RMM:   5    -0.413212244650E+03    0.38695E-01   -0.17479E-02  4736   0.137E-01    0.513E-02
RMM:   6    -0.413212306844E+03   -0.62194E-04   -0.28625E-03  5760   0.505E-02    0.215E-02
RMM:   7    -0.413212318958E+03   -0.12114E-04   -0.34146E-04  5889   0.160E-02    0.162E-02
RMM:   8    -0.413212315692E+03    0.32667E-05   -0.59007E-05  5095   0.706E-03    0.998E-03
RMM:   9    -0.413212302758E+03    0.12933E-04   -0.11564E-05  3611   0.428E-03    0.420E-03
RMM:  10    -0.413212295308E+03    0.74509E-05   -0.29634E-06  2621   0.242E-03    0.226E-03
RMM:  11    -0.413212288217E+03    0.70909E-05   -0.10900E-06  2505   0.166E-03    0.109E-03
RMM:  12    -0.413212282228E+03    0.59885E-05   -0.46394E-07  2360   0.118E-03    0.511E-04
RMM:  13    -0.413212277569E+03    0.46591E-05   -0.25148E-07  1660   0.853E-04    0.244E-04
RMM:  14    -0.413212273764E+03    0.38048E-05   -0.16006E-07  1342   0.740E-04    0.141E-04
RMM:  15    -0.413212267504E+03    0.62598E-05   -0.13754E-07  1437   0.728E-04    0.874E-05
RMM:  16    -0.413212265161E+03    0.23434E-05   -0.88136E-08  1225   0.645E-04    0.638E-05
RMM:  17    -0.413212261188E+03    0.39729E-05   -0.76022E-08  1277   0.636E-04    0.482E-05
RMM:  18    -0.413212258679E+03    0.25087E-05   -0.53854E-08  1118   0.585E-04    0.361E-05
RMM:  19    -0.413212258234E+03    0.44534E-06   -0.29290E-08   816   0.529E-04
   42 T=    70. E= -.41286682E+03 F= -.41321226E+03 E0= -.41319123E+03  EK= 0.34544E+00 SP= 0.00E+00 SK= 0.00E+00
       N       E                     dE             d eps       ncg     rms          rms(c)
RMM:   1    -0.413216917878E+03   -0.46592E-02   -0.12710E+01  4311   0.133E+00    0.947E-01
RMM:   2    -0.413215281228E+03    0.16367E-02   -0.17362E-01  4303   0.152E-01    0.676E-01
RMM:   3    -0.413218990634E+03   -0.37094E-02   -0.11137E-02  5104   0.820E-02    0.364E-01
RMM:   4    -0.413247413105E+03   -0.28422E-01   -0.47883E-02  5060   0.185E-01    0.765E-01
RMM:   5    -0.413213979289E+03    0.33434E-01   -0.14552E-02  4708   0.128E-01    0.495E-02
RMM:   6    -0.413214008348E+03   -0.29060E-04   -0.24301E-03  5740   0.468E-02    0.206E-02
RMM:   7    -0.413214015932E+03   -0.75840E-05   -0.28352E-04  5865   0.151E-02    0.156E-02
RMM:   8    -0.413214012595E+03    0.33375E-05   -0.51815E-05  5047   0.678E-03    0.926E-03
RMM:   9    -0.413214001637E+03    0.10958E-04   -0.11158E-05  3531   0.429E-03    0.396E-03
RMM:  10    -0.413213996243E+03    0.53944E-05   -0.25461E-06  2589   0.232E-03    0.215E-03
RMM:  11    -0.413213990812E+03    0.54311E-05   -0.11308E-06  2509   0.164E-03    0.108E-03
RMM:  12    -0.413213986472E+03    0.43402E-05   -0.47120E-07  2323   0.116E-03    0.497E-04
RMM:  13    -0.413213982748E+03    0.37234E-05   -0.27232E-07  1621   0.854E-04    0.244E-04
RMM:  14    -0.413213980082E+03    0.26658E-05   -0.17497E-07  1350   0.739E-04    0.138E-04
RMM:  15    -0.413213975399E+03    0.46838E-05   -0.15297E-07  1389   0.730E-04    0.769E-05
RMM:  16    -0.413213973245E+03    0.21540E-05   -0.96783E-08  1176   0.650E-04    0.579E-05
RMM:  17    -0.413213970354E+03    0.28902E-05   -0.79914E-08  1221   0.631E-04    0.470E-05
RMM:  18    -0.413213967956E+03    0.23981E-05   -0.59472E-08  1077   0.592E-04    0.367E-05
RMM:  19    -0.413213967420E+03    0.53637E-06   -0.33292E-08   824   0.541E-04
   43 T=    71. E= -.41286690E+03 F= -.41321397E+03 E0= -.41319296E+03  EK= 0.34707E+00 SP= 0.00E+00 SK= 0.00E+00
       N       E                     dE             d eps       ncg     rms          rms(c)
RMM:   1    -0.413240518718E+03   -0.26551E-01   -0.13053E+01  4312   0.150E+00    0.947E-01
RMM:   2    -0.413216330469E+03    0.24188E-01   -0.20194E-01  4313   0.174E-01    0.694E-01
RMM:   3    -0.413221234547E+03   -0.49041E-02   -0.12164E-02  5102   0.911E-02    0.415E-01
RMM:   4    -0.413247195206E+03   -0.25961E-01   -0.49525E-02  5060   0.189E-01    0.759E-01
RMM:   5    -0.413214703428E+03    0.32492E-01   -0.14155E-02  4695   0.129E-01    0.527E-02
RMM:   6    -0.413214711461E+03   -0.80330E-05   -0.23803E-03  5690   0.466E-02    0.211E-02
RMM:   7    -0.413214719662E+03   -0.82017E-05   -0.28818E-04  5904   0.154E-02    0.163E-02
RMM:   8    -0.413214716188E+03    0.34745E-05   -0.50504E-05  5028   0.676E-03    0.947E-03
RMM:   9    -0.413214706641E+03    0.95467E-05   -0.12752E-05  3684   0.466E-03    0.428E-03
RMM:  10    -0.413214702363E+03    0.42778E-05   -0.28270E-06  2625   0.241E-03    0.244E-03
RMM:  11    -0.413214698309E+03    0.40548E-05   -0.14617E-06  2545   0.181E-03    0.120E-03
RMM:  12    -0.413214695329E+03    0.29793E-05   -0.53402E-07  2426   0.125E-03    0.593E-04
RMM:  13    -0.413214692212E+03    0.31167E-05   -0.33011E-07  1664   0.914E-04    0.320E-04
RMM:  14    -0.413214689985E+03    0.22273E-05   -0.20815E-07  1385   0.783E-04    0.174E-04
RMM:  15    -0.413214687488E+03    0.24975E-05   -0.15201E-07  1281   0.723E-04    0.937E-05
RMM:  16    -0.413214684627E+03    0.28606E-05   -0.12716E-07  1318   0.694E-04    0.559E-05
RMM:  17    -0.413214683088E+03    0.15389E-05   -0.81032E-08  1103   0.623E-04    0.510E-05
RMM:  18    -0.413214680983E+03    0.21049E-05   -0.66446E-08  1076   0.599E-04    0.331E-05
RMM:  19    -0.413214680038E+03    0.94549E-06   -0.42805E-08   903   0.558E-04
   44 T=    71. E= -.41286658E+03 F= -.41321468E+03 E0= -.41319370E+03  EK= 0.34810E+00 SP= 0.00E+00 SK= 0.00E+00
       N       E                     dE             d eps       ncg     rms          rms(c)
RMM:   1    -0.413227071552E+03   -0.12391E-01   -0.12958E+01  4307   0.152E+00    0.976E-01
RMM:   2    -0.413216848429E+03    0.10223E-01   -0.18366E-01  4365   0.180E-01    0.684E-01
RMM:   3    -0.413228256773E+03   -0.11408E-01   -0.18040E-02  5142   0.115E-01    0.516E-01
RMM:   4    -0.413232797604E+03   -0.45408E-02   -0.38386E-02  5017   0.170E-01    0.561E-01
RMM:   5    -0.413216110582E+03    0.16687E-01   -0.64095E-03  4582   0.971E-02    0.447E-02
RMM:   6    -0.413216070612E+03    0.39970E-04   -0.11617E-03  5419   0.332E-02    0.195E-02
RMM:   7    -0.413216069662E+03    0.94936E-06   -0.13750E-04  5695   0.113E-02    0.145E-02
RMM:   8    -0.413216063654E+03    0.60086E-05   -0.41911E-05  5022   0.654E-03    0.814E-03
RMM:   9    -0.413216048810E+03    0.14844E-04   -0.10398E-05  3549   0.440E-03    0.364E-03
RMM:  10    -0.413216044091E+03    0.47186E-05   -0.15698E-06  2544   0.202E-03    0.184E-03
RMM:  11    -0.413216037248E+03    0.68433E-05   -0.97603E-07  2495   0.153E-03    0.103E-03
RMM:  12    -0.413216031383E+03    0.58653E-05   -0.42313E-07  2339   0.111E-03    0.475E-04
RMM:  13    -0.413216026976E+03    0.44071E-05   -0.22306E-07  1487   0.786E-04    0.223E-04
RMM:  14    -0.413216023645E+03    0.33309E-05   -0.13936E-07  1212   0.685E-04    0.135E-04
RMM:  15    -0.413216016720E+03    0.69251E-05   -0.14617E-07  1415   0.716E-04    0.100E-04
RMM:  16    -0.413216014419E+03    0.23007E-05   -0.76225E-08  1069   0.608E-04    0.859E-05
RMM:  17    -0.413216012072E+03    0.23467E-05   -0.54728E-08   965   0.577E-04    0.492E-05
RMM:  18    -0.413216008706E+03    0.33664E-05   -0.53576E-08  1080   0.590E-04    0.392E-05
RMM:  19    -0.413216008267E+03    0.43893E-06   -0.25767E-08   745   0.519E-04
   45 T=    71. E= -.41286689E+03 F= -.41321601E+03 E0= -.41319506E+03  EK= 0.34912E+00 SP= 0.00E+00 SK= 0.00E+00
       N       E                     dE             d eps       ncg     rms          rms(c)
RMM:   1    -0.413231750968E+03   -0.15742E-01   -0.12912E+01  4307   0.163E+00    0.958E-01
RMM:   2    -0.413216558710E+03    0.15192E-01   -0.18346E-01  4392   0.190E-01    0.680E-01
RMM:   3    -0.413230322167E+03   -0.13763E-01   -0.20018E-02  5133   0.124E-01    0.557E-01
RMM:   4    -0.413229964046E+03    0.35812E-03   -0.37505E-02  5002   0.170E-01    0.522E-01
RMM:   5    -0.413215866323E+03    0.14098E-01   -0.54887E-03  4549   0.932E-02    0.445E-02
RMM:   6    -0.413215806557E+03    0.59766E-04   -0.89885E-04  5198   0.303E-02    0.190E-02
RMM:   7    -0.413215805170E+03    0.13870E-05   -0.10954E-04  5670   0.100E-02    0.128E-02
RMM:   8    -0.413215802678E+03    0.24916E-05   -0.48028E-05  5162   0.693E-03    0.874E-03
RMM:   9    -0.413215787993E+03    0.14686E-04   -0.15356E-05  4165   0.498E-03    0.392E-03
RMM:  10    -0.413215784240E+03    0.37530E-05   -0.19155E-06  2569   0.212E-03    0.199E-03
RMM:  11    -0.413215778414E+03    0.58256E-05   -0.12284E-06  2492   0.175E-03    0.116E-03
RMM:  12    -0.413215773475E+03    0.49389E-05   -0.46648E-07  2385   0.124E-03    0.603E-04
RMM:  13    -0.413215769509E+03    0.39663E-05   -0.21623E-07  1534   0.815E-04    0.278E-04
RMM:  14    -0.413215765826E+03    0.36834E-05   -0.12688E-07  1201   0.694E-04    0.140E-04
RMM:  15    -0.413215759754E+03    0.60719E-05   -0.13340E-07  1380   0.703E-04    0.145E-04
RMM:  16    -0.413215758141E+03    0.16125E-05   -0.57033E-08   861   0.563E-04    0.112E-04
RMM:  17    -0.413215754447E+03    0.36944E-05   -0.60732E-08   992   0.583E-04    0.601E-05
RMM:  18    -0.413215752102E+03    0.23448E-05   -0.42366E-08   931   0.558E-04    0.521E-05
RMM:  19    -0.413215751286E+03    0.81661E-06   -0.23679E-08   718   0.516E-04
   46 T=    71. E= -.41286671E+03 F= -.41321575E+03 E0= -.41319482E+03  EK= 0.34905E+00 SP= 0.00E+00 SK= 0.00E+00
       N       E                     dE             d eps       ncg     rms          rms(c)
RMM:   1    -0.413256126346E+03   -0.40374E-01   -0.13190E+01  4310   0.178E+00    0.943E-01
RMM:   2    -0.413216116518E+03    0.40010E-01   -0.21659E-01  4405   0.207E-01    0.696E-01
RMM:   3    -0.413229030961E+03   -0.12914E-01   -0.19284E-02  5136   0.124E-01    0.575E-01
RMM:   4    -0.413230840006E+03   -0.18090E-02   -0.40057E-02  5010   0.175E-01    0.566E-01
RMM:   5    -0.413214669092E+03    0.16171E-01   -0.68634E-03  4569   0.101E-01    0.493E-02
RMM:   6    -0.413214598396E+03    0.70696E-04   -0.10840E-03  5256   0.336E-02    0.208E-02
RMM:   7    -0.413214597480E+03    0.91614E-06   -0.14102E-04  5790   0.114E-02    0.152E-02
RMM:   8    -0.413214593654E+03    0.38262E-05   -0.46361E-05  5140   0.676E-03    0.929E-03
RMM:   9    -0.413214580775E+03    0.12879E-04   -0.14786E-05  4039   0.507E-03    0.438E-03
RMM:  10    -0.413214577542E+03    0.32330E-05   -0.21264E-06  2581   0.219E-03    0.221E-03
RMM:  11    -0.413214573750E+03    0.37915E-05   -0.14910E-06  2523   0.187E-03    0.131E-03
RMM:  12    -0.413214570642E+03    0.31083E-05   -0.50651E-07  2437   0.130E-03    0.676E-04
RMM:  13    -0.413214567623E+03    0.30193E-05   -0.26441E-07  1659   0.863E-04    0.302E-04
RMM:  14    -0.413214565228E+03    0.23942E-05   -0.16590E-07  1310   0.727E-04    0.164E-04
RMM:  15    -0.413214561785E+03    0.34432E-05   -0.15080E-07  1319   0.708E-04    0.920E-05
RMM:  16    -0.413214560059E+03    0.17267E-05   -0.85950E-08  1046   0.612E-04    0.754E-05
RMM:  17    -0.413214558100E+03    0.19587E-05   -0.66719E-08   995   0.587E-04    0.395E-05
RMM:  18    -0.413214556619E+03    0.14812E-05   -0.48936E-08   900   0.559E-04    0.271E-05
RMM:  19    -0.413214556068E+03    0.55084E-06   -0.27211E-08   718   0.528E-04
   47 T=    71. E= -.41286673E+03 F= -.41321456E+03 E0= -.41319364E+03  EK= 0.34783E+00 SP= 0.00E+00 SK= 0.00E+00
       N       E                     dE             d eps       ncg     rms          rms(c)
RMM:   1    -0.413261325424E+03   -0.46769E-01   -0.13216E+01  4306   0.192E+00    0.968E-01
RMM:   2    -0.413212869714E+03    0.48456E-01   -0.20805E-01  4500   0.209E-01    0.690E-01
RMM:   3    -0.413235052944E+03   -0.22183E-01   -0.27780E-02  5152   0.149E-01    0.689E-01
RMM:   4    -0.413221234744E+03    0.13818E-01   -0.37560E-02  4967   0.174E-01    0.448E-01
RMM:   5    -0.413212140419E+03    0.90943E-02   -0.46244E-03  4537   0.895E-02    0.527E-02
RMM:   6    -0.413211992779E+03    0.14764E-03   -0.48439E-04  4755   0.278E-02    0.223E-02
RMM:   7    -0.413211994784E+03   -0.20043E-05   -0.13595E-04  5931   0.115E-02    0.157E-02
RMM:   8    -0.413211982684E+03    0.12099E-04   -0.38931E-05  5012   0.677E-03    0.990E-03
RMM:   9    -0.413211968930E+03    0.13755E-04   -0.11583E-05  3653   0.447E-03    0.495E-03
RMM:  10    -0.413211963324E+03    0.56053E-05   -0.22868E-06  2572   0.246E-03    0.234E-03
RMM:  11    -0.413211957920E+03    0.54044E-05   -0.17052E-06  2508   0.202E-03    0.153E-03
RMM:  12    -0.413211952837E+03    0.50832E-05   -0.63083E-07  2425   0.142E-03    0.778E-04
RMM:  13    -0.413211948276E+03    0.45607E-05   -0.30799E-07  1968   0.935E-04    0.407E-04
RMM:  14    -0.413211943771E+03    0.45045E-05   -0.17966E-07  1434   0.733E-04    0.202E-04
RMM:  15    -0.413211938675E+03    0.50969E-05   -0.14955E-07  1426   0.697E-04    0.149E-04
RMM:  16    -0.413211935937E+03    0.27379E-05   -0.87469E-08  1121   0.597E-04    0.128E-04
RMM:  17    -0.413211933236E+03    0.27008E-05   -0.60795E-08   966   0.565E-04    0.512E-05
RMM:  18    -0.413211931110E+03    0.21257E-05   -0.46002E-08   956   0.559E-04    0.437E-05
RMM:  19    -0.413211930063E+03    0.10475E-05   -0.26804E-08   783   0.525E-04    0.328E-05
RMM:  20    -0.413211929296E+03    0.76661E-06   -0.19482E-08   723   0.514E-04
   48 T=    70. E= -.41286684E+03 F= -.41321193E+03 E0= -.41319103E+03  EK= 0.34509E+00 SP= 0.00E+00 SK= 0.00E+00
       N       E                     dE             d eps       ncg     rms          rms(c)
RMM:   1    -0.413257814941E+03   -0.45885E-01   -0.13008E+01  4305   0.204E+00    0.958E-01
RMM:   2    -0.413207274466E+03    0.50540E-01   -0.20283E-01  4548   0.220E-01    0.678E-01
RMM:   3    -0.413235789748E+03   -0.28515E-01   -0.33468E-02  5169   0.164E-01    0.763E-01
RMM:   4    -0.413212891678E+03    0.22898E-01   -0.37130E-02  4936   0.175E-01    0.391E-01
RMM:   5    -0.413206784282E+03    0.61074E-02   -0.46916E-03  4737   0.908E-02    0.640E-02
RMM:   6    -0.413206535879E+03    0.24840E-03   -0.47974E-04  4662   0.305E-02    0.262E-02
RMM:   7    -0.413206531517E+03    0.43616E-05   -0.12625E-04  5730   0.119E-02    0.173E-02
RMM:   8    -0.413206518441E+03    0.13076E-04   -0.26321E-05  4601   0.568E-03    0.100E-02
RMM:   9    -0.413206503608E+03    0.14833E-04   -0.11825E-05  3377   0.427E-03    0.423E-03
RMM:  10    -0.413206497167E+03    0.64409E-05   -0.25755E-06  2621   0.253E-03    0.235E-03
RMM:  11    -0.413206489957E+03    0.72106E-05   -0.13920E-06  2506   0.192E-03    0.141E-03
RMM:  12    -0.413206484869E+03    0.50880E-05   -0.54793E-07  2434   0.130E-03    0.661E-04
RMM:  13    -0.413206480074E+03    0.47941E-05   -0.30753E-07  1883   0.908E-04    0.362E-04
RMM:  14    -0.413206475335E+03    0.47395E-05   -0.20624E-07  1548   0.773E-04    0.229E-04
RMM:  15    -0.413206470043E+03    0.52919E-05   -0.16857E-07  1440   0.725E-04    0.143E-04
RMM:  16    -0.413206468004E+03    0.20391E-05   -0.92022E-08  1134   0.619E-04    0.952E-05
[...]
RMM:   3    -0.413161428661E+03    0.96288E-03   -0.86690E-03  5053   0.424E-02    0.151E-01
RMM:   4    -0.413193926591E+03   -0.32498E-01   -0.35261E-02  5139   0.156E-01    0.752E-01
RMM:   5    -0.413160852799E+03    0.33074E-01   -0.16171E-02  4809   0.126E-01    0.523E-02
RMM:   6    -0.413160883848E+03   -0.31049E-04   -0.26689E-03  5709   0.491E-02    0.262E-02
RMM:   7    -0.413160921828E+03   -0.37980E-04   -0.35525E-04  5938   0.158E-02    0.150E-02
RMM:   8    -0.413160931285E+03   -0.94576E-05   -0.52357E-05  5186   0.731E-03    0.745E-03
RMM:   9    -0.413160934203E+03   -0.29182E-05   -0.93250E-06  3335   0.341E-03    0.394E-03
RMM:  10    -0.413160938898E+03   -0.46943E-05   -0.24467E-06  2586   0.214E-03    0.265E-03
RMM:  11    -0.413160943263E+03   -0.43656E-05   -0.12784E-06  2501   0.167E-03    0.133E-03
RMM:  12    -0.413160946900E+03   -0.36365E-05   -0.99785E-07  2471   0.138E-03    0.509E-04
RMM:  13    -0.413160948064E+03   -0.11639E-05   -0.38517E-07  2000   0.962E-04    0.334E-04
RMM:  14    -0.413160948942E+03   -0.87768E-06   -0.22332E-07  1470   0.783E-04
  137 T=    60. E= -.41286657E+03 F= -.41316095E+03 E0= -.41314023E+03  EK= 0.29438E+00 SP= 0.00E+00 SK= 0.00E+00
       N       E                     dE             d eps       ncg     rms          rms(c)
RMM:   1    -0.413153608655E+03    0.73394E-02   -0.98414E+00  4267   0.815E-01    0.847E-01
RMM:   2    -0.413161521373E+03   -0.79127E-02   -0.11197E-01  4300   0.937E-02    0.590E-01
RMM:   3    -0.413160654836E+03    0.86654E-03   -0.75461E-03  4953   0.412E-02    0.144E-01
RMM:   4    -0.413188058811E+03   -0.27404E-01   -0.28716E-02  5143   0.141E-01    0.691E-01
RMM:   5    -0.413160264521E+03    0.27794E-01   -0.13784E-02  4815   0.115E-01    0.474E-02
RMM:   6    -0.413160289266E+03   -0.24744E-04   -0.22925E-03  5698   0.453E-02    0.237E-02
RMM:   7    -0.413160317813E+03   -0.28548E-04   -0.29974E-04  5858   0.144E-02    0.135E-02
RMM:   8    -0.413160326212E+03   -0.83988E-05   -0.41547E-05  4884   0.648E-03    0.669E-03
RMM:   9    -0.413160329392E+03   -0.31798E-05   -0.74971E-06  3170   0.312E-03    0.366E-03
RMM:  10    -0.413160334272E+03   -0.48796E-05   -0.21099E-06  2558   0.201E-03    0.242E-03
RMM:  11    -0.413160338890E+03   -0.46189E-05   -0.12150E-06  2495   0.160E-03    0.114E-03
RMM:  12    -0.413160342382E+03   -0.34918E-05   -0.91543E-07  2438   0.131E-03    0.445E-04
RMM:  13    -0.413160343497E+03   -0.11149E-05   -0.35208E-07  1879   0.915E-04    0.300E-04
RMM:  14    -0.413160344338E+03   -0.84099E-06   -0.21299E-07  1378   0.767E-04
  138 T=    60. E= -.41286622E+03 F= -.41316034E+03 E0= -.41313964E+03  EK= 0.29412E+00 SP= 0.00E+00 SK= 0.00E+00
       N       E                     dE             d eps       ncg     rms          rms(c)
RMM:   1    -0.413153910940E+03    0.64326E-02   -0.10037E+01  4267   0.836E-01    0.833E-01
RMM:   2    -0.413162747900E+03   -0.88370E-02   -0.11841E-01  4297   0.980E-02    0.599E-01
RMM:   3    -0.413161426889E+03    0.13210E-02   -0.66828E-03  4878   0.385E-02    0.133E-01
RMM:   4    -0.413180653339E+03   -0.19226E-01   -0.19827E-02  5152   0.118E-01    0.580E-01
RMM:   5    -0.413161262026E+03    0.19391E-01   -0.97318E-03  4819   0.965E-02    0.393E-02
RMM:   6    -0.413161273890E+03   -0.11864E-04   -0.16294E-03  5691   0.384E-02    0.189E-02
RMM:   7    -0.413161306849E+03   -0.32959E-04   -0.20639E-04  5657   0.120E-02    0.109E-02
RMM:   8    -0.413161322511E+03   -0.15662E-04   -0.29477E-05  4472   0.545E-03    0.568E-03
RMM:   9    -0.413161329885E+03   -0.73744E-05   -0.50357E-06  2911   0.274E-03    0.308E-03
RMM:  10    -0.413161338907E+03   -0.90220E-05   -0.17281E-06  2534   0.189E-03    0.202E-03
RMM:  11    -0.413161348009E+03   -0.91017E-05   -0.11662E-06  2494   0.149E-03    0.912E-04
RMM:  12    -0.413161354156E+03   -0.61474E-05   -0.74868E-07  2247   0.116E-03    0.374E-04
RMM:  13    -0.413161356737E+03   -0.25806E-05   -0.34221E-07  1767   0.876E-04    0.255E-04
RMM:  14    -0.413161358997E+03   -0.22600E-05   -0.25000E-07  1412   0.773E-04    0.128E-04
RMM:  15    -0.413161361099E+03   -0.21025E-05   -0.26150E-07  1567   0.766E-04    0.109E-04
RMM:  16    -0.413161361871E+03   -0.77210E-06   -0.13727E-07  1247   0.657E-04
  139 T=    60. E= -.41286634E+03 F= -.41316136E+03 E0= -.41314067E+03  EK= 0.29502E+00 SP= 0.00E+00 SK= 0.00E+00
       N       E                     dE             d eps       ncg     rms          rms(c)
RMM:   1    -0.413153597691E+03    0.77634E-02   -0.10214E+01  4264   0.833E-01    0.852E-01
RMM:   2    -0.413163008277E+03   -0.94106E-02   -0.11760E-01  4298   0.958E-02    0.597E-01
RMM:   3    -0.413161734661E+03    0.12736E-02   -0.63170E-03  4811   0.370E-02    0.139E-01
RMM:   4    -0.413173888110E+03   -0.12153E-01   -0.12534E-02  5166   0.939E-02    0.463E-01
RMM:   5    -0.413161665819E+03    0.12222E-01   -0.62313E-03  4826   0.771E-02    0.338E-02
RMM:   6    -0.413161662584E+03    0.32356E-05   -0.10330E-03  5670   0.314E-02    0.169E-02
RMM:   7    -0.413161683339E+03   -0.20755E-04   -0.13391E-04  5398   0.986E-03    0.922E-03
RMM:   8    -0.413161692756E+03   -0.94178E-05   -0.19688E-05  4044   0.458E-03    0.478E-03
RMM:   9    -0.413161697734E+03   -0.49774E-05   -0.29963E-06  2672   0.234E-03    0.257E-03
RMM:  10    -0.413161703526E+03   -0.57919E-05   -0.13595E-06  2515   0.169E-03    0.164E-03
RMM:  11    -0.413161708793E+03   -0.52675E-05   -0.98575E-07  2444   0.135E-03    0.724E-04
RMM:  12    -0.413161711854E+03   -0.30611E-05   -0.57218E-07  2091   0.105E-03    0.306E-04
RMM:  13    -0.413161713295E+03   -0.14408E-05   -0.28577E-07  1511   0.818E-04    0.198E-04
RMM:  14    -0.413161714560E+03   -0.12651E-05   -0.26081E-07  1479   0.787E-04    0.104E-04
RMM:  15    -0.413161715182E+03   -0.62177E-06   -0.17163E-07  1400   0.711E-04
  140 T=    60. E= -.41286648E+03 F= -.41316172E+03 E0= -.41314104E+03  EK= 0.29523E+00 SP= 0.00E+00 SK= 0.00E+00
       N       E                     dE             d eps       ncg     rms          rms(c)
RMM:   1    -0.413152758860E+03    0.89557E-02   -0.10253E+01  4264   0.840E-01    0.854E-01
RMM:   2    -0.413161519669E+03   -0.87608E-02   -0.11805E-01  4293   0.995E-02    0.589E-01
RMM:   3    -0.413160872015E+03    0.64765E-03   -0.61618E-03  4748   0.347E-02    0.142E-01
RMM:   4    -0.413165949222E+03   -0.50772E-02   -0.55947E-03  5160   0.643E-02    0.301E-01
RMM:   5    -0.413160852940E+03    0.50963E-02   -0.26116E-03  4829   0.503E-02    0.291E-02
RMM:   6    -0.413160837065E+03    0.15875E-04   -0.46655E-04  5596   0.222E-02    0.152E-02
RMM:   7    -0.413160851056E+03   -0.13991E-04   -0.66670E-05  4996   0.756E-03    0.728E-03
RMM:   8    -0.413160856354E+03   -0.52983E-05   -0.11175E-05  3502   0.381E-03    0.363E-03
RMM:   9    -0.413160859755E+03   -0.34006E-05   -0.17525E-06  2545   0.201E-03    0.192E-03
RMM:  10    -0.413160863089E+03   -0.33343E-05   -0.98515E-07  2490   0.143E-03    0.115E-03
RMM:  11    -0.413160865546E+03   -0.24565E-05   -0.80142E-07  2292   0.117E-03    0.525E-04
RMM:  12    -0.413160866457E+03   -0.91131E-06   -0.41306E-07  1860   0.904E-04
  141 T=    60. E= -.41286608E+03 F= -.41316087E+03 E0= -.41314020E+03  EK= 0.29479E+00 SP= 0.00E+00 SK= 0.00E+00
       N       E                     dE             d eps       ncg     rms          rms(c)
RMM:   1    -0.413153013875E+03    0.78517E-02   -0.10237E+01  4264   0.841E-01    0.831E-01
RMM:   2    -0.413163105750E+03   -0.10092E-01   -0.12133E-01  4297   0.977E-02    0.595E-01
RMM:   3    -0.413161936273E+03    0.11695E-02   -0.56158E-03  4619   0.359E-02    0.136E-01
RMM:   4    -0.413162035868E+03   -0.99595E-04   -0.85383E-04  5051   0.240E-02    0.369E-02
RMM:   5    -0.413162021828E+03    0.14039E-04   -0.11525E-04  4899   0.116E-02    0.328E-02
RMM:   6    -0.413161976555E+03    0.45274E-04   -0.71603E-05  5116   0.900E-03    0.107E-02
RMM:   7    -0.413162003370E+03   -0.26815E-04   -0.15607E-05  3980   0.488E-03    0.524E-03
RMM:   8    -0.413162014113E+03   -0.10743E-04   -0.32265E-06  2699   0.270E-03    0.222E-03
RMM:   9    -0.413162022510E+03   -0.83967E-05   -0.12170E-06  2503   0.165E-03    0.116E-03
RMM:  10    -0.413162028677E+03   -0.61672E-05   -0.66607E-07  2218   0.113E-03    0.685E-04
RMM:  11    -0.413162034964E+03   -0.62863E-05   -0.65224E-07  1947   0.962E-04    0.382E-04
RMM:  12    -0.413162038451E+03   -0.34872E-05   -0.40104E-07  1500   0.781E-04    0.212E-04
RMM:  13    -0.413162041050E+03   -0.25992E-05   -0.43766E-07  1691   0.808E-04    0.152E-04
RMM:  14    -0.413162041553E+03   -0.50275E-06   -0.11920E-07  1052   0.571E-04
  142 T=    60. E= -.41286651E+03 F= -.41316204E+03 E0= -.41314139E+03  EK= 0.29553E+00 SP= 0.00E+00 SK= 0.00E+00
       N       E                     dE             d eps       ncg     rms          rms(c)
RMM:   1    -0.413153522900E+03    0.85182E-02   -0.10276E+01  4264   0.849E-01    0.842E-01
RMM:   2    -0.413163519439E+03   -0.99965E-02   -0.12149E-01  4298   0.101E-01    0.600E-01
RMM:   3    -0.413162124038E+03    0.13954E-02   -0.56824E-03  4706   0.348E-02    0.138E-01
RMM:   4    -0.413164441805E+03   -0.23178E-02   -0.29767E-03  5191   0.468E-02    0.205E-01
RMM:   5    -0.413162115320E+03    0.23265E-02   -0.12172E-03  4824   0.349E-02    0.251E-02
RMM:   6    -0.413162099251E+03    0.16069E-04   -0.25548E-04  5497   0.166E-02    0.115E-02
RMM:   7    -0.413162119815E+03   -0.20564E-04   -0.39078E-05  4704   0.630E-03    0.628E-03
RMM:   8    -0.413162130211E+03   -0.10397E-04   -0.78957E-06  3288   0.349E-03    0.315E-03
RMM:   9    -0.413162137215E+03   -0.70037E-05   -0.15182E-06  2525   0.196E-03    0.149E-03
RMM:  10    -0.413162142594E+03   -0.53794E-05   -0.77906E-07  2453   0.130E-03    0.878E-04
RMM:  11    -0.413162147888E+03   -0.52938E-05   -0.73034E-07  2166   0.109E-03    0.478E-04
RMM:  12    -0.413162150854E+03   -0.29661E-05   -0.46375E-07  1758   0.893E-04    0.211E-04
RMM:  13    -0.413162152244E+03   -0.13899E-05   -0.28133E-07  1568   0.779E-04    0.157E-04
RMM:  14    -0.413162153184E+03   -0.93956E-06   -0.27940E-07  1501   0.748E-04
  143 T=    60. E= -.41286625E+03 F= -.41316215E+03 E0= -.41314151E+03  EK= 0.29591E+00 SP= 0.00E+00 SK= 0.00E+00
       N       E                     dE             d eps       ncg     rms          rms(c)
RMM:   1    -0.413153822482E+03    0.83298E-02   -0.10192E+01  4264   0.843E-01    0.857E-01
RMM:   2    -0.413162572818E+03   -0.87503E-02   -0.11917E-01  4300   0.973E-02    0.593E-01
RMM:   3    -0.413161936264E+03    0.63655E-03   -0.62534E-03  4898   0.350E-02    0.146E-01
RMM:   4    -0.413172838665E+03   -0.10902E-01   -0.11273E-02  5167   0.899E-02    0.438E-01
RMM:   5    -0.413161889117E+03    0.10950E-01   -0.55438E-03  4827   0.726E-02    0.356E-02
RMM:   6    -0.413161875389E+03    0.13728E-04   -0.96369E-04  5696   0.293E-02    0.161E-02
RMM:   7    -0.413161890461E+03   -0.15072E-04   -0.12029E-04  5303   0.946E-03    0.874E-03
RMM:   8    -0.413161895402E+03   -0.49410E-05   -0.17239E-05  3874   0.443E-03    0.454E-03
RMM:   9    -0.413161897028E+03   -0.16266E-05   -0.30286E-06  2667   0.238E-03    0.218E-03
RMM:  10    -0.413161899236E+03   -0.22080E-05   -0.13414E-06  2517   0.168E-03    0.136E-03
RMM:  11    -0.413161900560E+03   -0.13237E-05   -0.90358E-07  2423   0.130E-03    0.668E-04
RMM:  12    -0.413161900758E+03   -0.19779E-06   -0.56094E-07  2082   0.102E-03
  144 T=    60. E= -.41286624E+03 F= -.41316190E+03 E0= -.41314127E+03  EK= 0.29566E+00 SP= 0.00E+00 SK= 0.00E+00
       N       E                     dE             d eps       ncg     rms          rms(c)
RMM:   1    -0.413154485240E+03    0.74153E-02   -0.99865E+00  4265   0.839E-01    0.830E-01
RMM:   2    -0.413163985177E+03   -0.94999E-02   -0.11913E-01  4298   0.985E-02    0.594E-01
RMM:   3    -0.413162741703E+03    0.12435E-02   -0.60787E-03  4911   0.364E-02    0.140E-01
RMM:   4    -0.413178032319E+03   -0.15291E-01   -0.15735E-02  5164   0.105E-01    0.518E-01
RMM:   5    -0.413162603148E+03    0.15429E-01   -0.78015E-03  4832   0.858E-02    0.381E-02
RMM:   6    -0.413162606993E+03   -0.38445E-05   -0.12996E-03  5737   0.337E-02    0.163E-02
RMM:   7    -0.413162629792E+03   -0.22799E-04   -0.15953E-04  5474   0.105E-02    0.935E-03
RMM:   8    -0.413162641040E+03   -0.11249E-04   -0.21932E-05  4050   0.477E-03    0.481E-03
RMM:   9    -0.413162645440E+03   -0.43995E-05   -0.42150E-06  2800   0.258E-03    0.245E-03
RMM:  10    -0.413162650969E+03   -0.55290E-05   -0.15495E-06  2536   0.176E-03    0.160E-03
RMM:  11    -0.413162655853E+03   -0.48844E-05   -0.10521E-06  2466   0.138E-03    0.788E-04
RMM:  12    -0.413162658745E+03   -0.28921E-05   -0.71721E-07  2239   0.111E-03    0.326E-04
RMM:  13    -0.413162659816E+03   -0.10706E-05   -0.34885E-07  1636   0.847E-04    0.231E-04
RMM:  14    -0.413162660420E+03   -0.60409E-06   -0.34512E-07  1669   0.825E-04
  145 T=    60. E= -.41286638E+03 F= -.41316266E+03 E0= -.41314204E+03  EK= 0.29628E+00 SP= 0.00E+00 SK= 0.00E+00
       N       E                     dE             d eps       ncg     rms          rms(c)
RMM:   1    -0.413155424206E+03    0.72356E-02   -0.98871E+00  4264   0.835E-01    0.834E-01
RMM:   2    -0.413164998527E+03   -0.95743E-02   -0.11898E-01  4297   0.100E-01    0.605E-01
RMM:   3    -0.413163219343E+03    0.17792E-02   -0.68932E-03  4932   0.423E-02    0.141E-01
RMM:   4    -0.413190244710E+03   -0.27025E-01   -0.28150E-02  5146   0.140E-01    0.684E-01
RMM:   5    -0.413162841612E+03    0.27403E-01   -0.13620E-02  4821   0.114E-01    0.476E-02
RMM:   6    -0.413162883497E+03   -0.41884E-04   -0.22356E-03  5701   0.445E-02    0.191E-02
RMM:   7    -0.413162913223E+03   -0.29727E-04   -0.27504E-04  5785   0.135E-02    0.116E-02
RMM:   8    -0.413162925602E+03   -0.12379E-04   -0.35214E-05  4663   0.585E-03    0.570E-03
RMM:   9    -0.413162930756E+03   -0.51542E-05   -0.72253E-06  3087   0.297E-03    0.295E-03
RMM:  10    -0.413162936907E+03   -0.61511E-05   -0.19652E-06  2542   0.193E-03    0.198E-03
RMM:  11    -0.413162942743E+03   -0.58359E-05   -0.11465E-06  2499   0.149E-03    0.108E-03
RMM:  12    -0.413162947333E+03   -0.45894E-05   -0.90289E-07  2416   0.124E-03    0.401E-04
RMM:  13    -0.413162948662E+03   -0.13294E-05   -0.35336E-07  1716   0.866E-04    0.278E-04
RMM:  14    -0.413162950021E+03   -0.13586E-05   -0.35523E-07  1594   0.843E-04    0.164E-04
RMM:  15    -0.413162950579E+03   -0.55802E-06   -0.28080E-07  1617   0.790E-04
  146 T=    60. E= -.41286601E+03 F= -.41316295E+03 E0= -.41314233E+03  EK= 0.29694E+00 SP= 0.00E+00 SK= 0.00E+00
       N       E                     dE             d eps       ncg     rms          rms(c)
RMM:   1    -0.413156745579E+03    0.62044E-02   -0.96762E+00  4264   0.829E-01    0.854E-01
RMM:   2    -0.413164717199E+03   -0.79716E-02   -0.11501E-01  4300   0.984E-02    0.600E-01
RMM:   3    -0.413163482288E+03    0.12349E-02   -0.79126E-03  5001   0.425E-02    0.152E-01
RMM:   4    -0.413195427482E+03   -0.31945E-01   -0.33896E-02  5143   0.153E-01    0.743E-01
RMM:   5    -0.413162997482E+03    0.32430E-01   -0.16016E-02  4818   0.124E-01    0.545E-02
RMM:   6    -0.413163049535E+03   -0.52053E-04   -0.26676E-03  5686   0.489E-02    0.237E-02
RMM:   7    -0.413163075120E+03   -0.25584E-04   -0.34814E-04  5932   0.151E-02    0.137E-02
RMM:   8    -0.413163078682E+03   -0.35618E-05   -0.46567E-05  5161   0.685E-03    0.655E-03
RMM:   9    -0.413163078699E+03   -0.17339E-07   -0.88754E-06  3282   0.323E-03
  147 T=    60. E= -.41286620E+03 F= -.41316308E+03 E0= -.41314247E+03  EK= 0.29688E+00 SP= 0.00E+00 SK= 0.00E+00
       N       E                     dE             d eps       ncg     rms          rms(c)
RMM:   1    -0.413157524593E+03    0.55541E-02   -0.93384E+00  4264   0.820E-01    0.832E-01
RMM:   2    -0.413165377336E+03   -0.78527E-02   -0.11225E-01  4310   0.962E-02    0.598E-01
RMM:   3    -0.413165400491E+03   -0.23156E-04   -0.10010E-02  5117   0.595E-02    0.226E-01
RMM:   4    -0.413196238977E+03   -0.30838E-01   -0.41220E-02  5111   0.170E-01    0.750E-01
RMM:   5    -0.413163288413E+03    0.32951E-01   -0.15251E-02  4789   0.126E-01    0.665E-02
RMM:   6    -0.413163209365E+03    0.79048E-04   -0.25024E-03  5489   0.493E-02    0.254E-02
RMM:   7    -0.413163247878E+03   -0.38513E-04   -0.43970E-04  6073   0.183E-02    0.164E-02
RMM:   8    -0.413163251676E+03   -0.37975E-05   -0.73028E-05  5457   0.911E-03    0.797E-03
RMM:   9    -0.413163253358E+03   -0.16821E-05   -0.12741E-05  3819   0.406E-03    0.380E-03
RMM:  10    -0.413163255903E+03   -0.25449E-05   -0.22214E-06  2572   0.219E-03    0.245E-03
RMM:  11    -0.413163259230E+03   -0.33276E-05   -0.19017E-06  2555   0.202E-03    0.158E-03
RMM:  12    -0.413163260626E+03   -0.13956E-05   -0.98386E-07  2505   0.149E-03    0.664E-04
RMM:  13    -0.413163261145E+03   -0.51866E-06   -0.48443E-07  2044   0.103E-03
  148 T=    60. E= -.41286613E+03 F= -.41316326E+03 E0= -.41314266E+03  EK= 0.29714E+00 SP= 0.00E+00 SK= 0.00E+00
       N       E                     dE             d eps       ncg     rms          rms(c)
RMM:   1    -0.413159129673E+03    0.41310E-02   -0.91294E+00  4264   0.812E-01    0.829E-01
RMM:   2    -0.413166772297E+03   -0.76426E-02   -0.11139E-01  4302   0.957E-02    0.611E-01
RMM:   3    -0.413164672970E+03    0.20993E-02   -0.10310E-02  5008   0.483E-02    0.140E-01
RMM:   4    -0.413199598616E+03   -0.34926E-01   -0.38543E-02  5131   0.163E-01    0.778E-01
RMM:   5    -0.413163875854E+03    0.35723E-01   -0.17373E-02  4815   0.130E-01    0.583E-02
RMM:   6    -0.413163923583E+03   -0.47729E-04   -0.28543E-03  5659   0.511E-02    0.261E-02
RMM:   7    -0.413163960262E+03   -0.36679E-04   -0.39786E-04  5997   0.162E-02    0.147E-02
RMM:   8    -0.413163970805E+03   -0.10543E-04   -0.54271E-05  5334   0.755E-03    0.691E-03
RMM:   9    -0.413163974202E+03   -0.33974E-05   -0.10038E-05  3364   0.341E-03    0.352E-03
RMM:  10    -0.413163979614E+03   -0.54119E-05   -0.28043E-06  2608   0.230E-03    0.252E-03
RMM:  11    -0.413163984520E+03   -0.49057E-05   -0.14192E-06  2524   0.177E-03    0.144E-03
RMM:  12    -0.413163988253E+03   -0.37329E-05   -0.98184E-07  2512   0.140E-03    0.614E-04
RMM:  13    -0.413163989560E+03   -0.13067E-05   -0.42009E-07  1975   0.957E-04    0.372E-04
RMM:  14    -0.413163990656E+03   -0.10964E-05   -0.36360E-07  1661   0.859E-04    0.244E-04
RMM:  15    -0.413163990915E+03   -0.25859E-06   -0.25121E-07  1518   0.768E-04
  149 T=    61. E= -.41286595E+03 F= -.41316399E+03 E0= -.41314339E+03  EK= 0.29804E+00 SP= 0.00E+00 SK= 0.00E+00
       N       E                     dE             d eps       ncg     rms          rms(c)
RMM:   1    -0.413161265363E+03    0.27253E-02   -0.88264E+00  4264   0.804E-01    0.849E-01
RMM:   2    -0.413167359817E+03   -0.60945E-02   -0.10667E-01  4299   0.943E-02    0.609E-01
RMM:   3    -0.413165420400E+03    0.19394E-02   -0.11815E-02  5037   0.517E-02    0.155E-01
RMM:   4    -0.413200347536E+03   -0.34927E-01   -0.39808E-02  5125   0.166E-01    0.780E-01
RMM:   5    -0.413164415286E+03    0.35932E-01   -0.17341E-02  4816   0.130E-01    0.615E-02
RMM:   6    -0.413164445148E+03   -0.29862E-04   -0.28417E-03  5637   0.516E-02    0.291E-02
RMM:   7    -0.413164474457E+03   -0.29309E-04   -0.42776E-04  6048   0.170E-02    0.167E-02
RMM:   8    -0.413164475698E+03   -0.12411E-05   -0.63591E-05  5380   0.851E-03    0.774E-03
RMM:   9    -0.413164474844E+03    0.85438E-06   -0.10677E-05  3546   0.367E-03    0.383E-03
RMM:  10    -0.413164476176E+03   -0.13320E-05   -0.29839E-06  2644   0.240E-03    0.269E-03
RMM:  11    -0.413164476934E+03   -0.75787E-06   -0.14845E-06  2517   0.187E-03
  150 T=    61. E= -.41286628E+03 F= -.41316448E+03 E0= -.41314388E+03  EK= 0.29820E+00 SP= 0.00E+00 SK= 0.00E+00
