       N       E                     dE             d eps       ncg     rms          rms(c)
RMM:   1     0.220109227698E+04    0.22011E+04   -0.52443E+04  2132   0.654E+02
RMM:   2     0.705743942958E+03   -0.14953E+04   -0.16261E+04  2132   0.177E+02
RMM:   3     0.137984215165E+03   -0.56776E+03   -0.65692E+03  2132   0.117E+02
RMM:   4    -0.159273880533E+03   -0.29726E+03   -0.27864E+03  2132   0.936E+01
RMM:   5    -0.287491918318E+03   -0.12822E+03   -0.11434E+03  2132   0.595E+01
RMM:   6    -0.350003129693E+03   -0.62511E+02   -0.55177E+02  2132   0.423E+01
RMM:   7    -0.382876340474E+03   -0.32873E+02   -0.30404E+02  2132   0.293E+01
RMM:   8    -0.404294408884E+03   -0.21418E+02   -0.18405E+02  2132   0.233E+01
RMM:   9    -0.436034661123E+03   -0.31740E+02   -0.30633E+02  6104   0.173E+01
RMM:  10    -0.441327946576E+03   -0.52933E+01   -0.62983E+01  6399   0.538E+00
RMM:  11    -0.442523046139E+03   -0.11951E+01   -0.11073E+01  6212   0.172E+00
RMM:  12    -0.442890325153E+03   -0.36728E+00   -0.26821E+00  6367   0.597E-01    0.134E+02
RMM:  13    -0.425529789284E+03    0.17361E+02   -0.80533E+01  4676   0.119E+01    0.712E+01
RMM:  14    -0.497839685595E+03   -0.72310E+02   -0.53228E+02  5411   0.231E+01    0.304E+01
RMM:  15    -0.414086919486E+03    0.83753E+02   -0.19318E+02  5060   0.162E+01    0.593E+00
RMM:  16    -0.414096786343E+03   -0.98669E-02   -0.38809E+01  6069   0.598E+00    0.431E+00
RMM:  17    -0.413230722741E+03    0.86606E+00   -0.22345E+00  5327   0.179E+00    0.248E+00
RMM:  18    -0.413159314341E+03    0.71408E-01   -0.97199E-01  5929   0.102E+00    0.155E+00
RMM:  19    -0.413167533857E+03   -0.82195E-02   -0.28288E-01  5765   0.556E-01    0.849E-01
RMM:  20    -0.413181488705E+03   -0.13955E-01   -0.18398E-01  5284   0.476E-01    0.520E-01
RMM:  21    -0.413166591507E+03    0.14897E-01   -0.33387E-02  5022   0.220E-01    0.239E-01
RMM:  22    -0.413165499026E+03    0.10925E-02   -0.13057E-02  6086   0.923E-02    0.148E-01
RMM:  23    -0.413163899726E+03    0.15993E-02   -0.54366E-03  5812   0.687E-02    0.765E-02
RMM:  24    -0.413162734281E+03    0.11654E-02   -0.17632E-03  5588   0.399E-02    0.313E-02
RMM:  25    -0.413162623162E+03    0.11112E-03   -0.77845E-04  6014   0.222E-02    0.252E-02
RMM:  26    -0.413162907584E+03   -0.28442E-03   -0.45293E-04  5728   0.226E-02    0.281E-02
RMM:  27    -0.413163325895E+03   -0.41831E-03   -0.16951E-04  4549   0.182E-02    0.139E-02
RMM:  28    -0.413163846282E+03   -0.52039E-03   -0.18234E-04  5081   0.198E-02    0.801E-03
RMM:  29    -0.413164159862E+03   -0.31358E-03   -0.91895E-05  4338   0.129E-02    0.403E-03
RMM:  30    -0.413164363718E+03   -0.20386E-03   -0.66641E-05  3804   0.930E-03    0.227E-03
RMM:  31    -0.413164446351E+03   -0.82634E-04   -0.38561E-05  3084   0.505E-03    0.186E-03
RMM:  32    -0.413164471056E+03   -0.24705E-04   -0.15604E-05  2894   0.268E-03    0.885E-04
RMM:  33    -0.413164479927E+03   -0.88709E-05   -0.73029E-06  2720   0.180E-03    0.518E-04
RMM:  34    -0.413164483159E+03   -0.32322E-05   -0.35631E-06  2533   0.144E-03    0.896E-04
RMM:  35    -0.413164482873E+03    0.28580E-06   -0.20602E-06  1750   0.955E-04
    1 T=    61. E= -.41286668E+03 F= -.41316448E+03 E0= -.41314199E+03  EK= 0.29780E+00 SP= 0.00E+00 SK= 0.00E+00
       N       E                     dE             d eps       ncg     rms          rms(c)
RMM:   1    -0.413159892732E+03    0.45904E-02   -0.11046E+01  4007   0.720E-01    0.886E-01
RMM:   2    -0.413165879922E+03   -0.59872E-02   -0.13874E-01  3920   0.101E-01    0.642E-01
RMM:   3    -0.413164201301E+03    0.16786E-02   -0.67586E-03  4704   0.366E-02    0.153E-01
RMM:   4    -0.413181850025E+03   -0.17649E-01   -0.18451E-02  5220   0.113E-01    0.556E-01
RMM:   5    -0.413163907411E+03    0.17943E-01   -0.89354E-03  4854   0.932E-02    0.302E-02
RMM:   6    -0.413164023184E+03   -0.11577E-03   -0.14404E-03  5852   0.365E-02    0.182E-02
RMM:   7    -0.413164036699E+03   -0.13515E-04   -0.18880E-04  5806   0.120E-02    0.127E-02
RMM:   8    -0.413164043052E+03   -0.63534E-05   -0.29924E-05  4535   0.540E-03    0.659E-03
RMM:   9    -0.413164048223E+03   -0.51704E-05   -0.62525E-06  3050   0.291E-03    0.461E-03
RMM:  10    -0.413164053978E+03   -0.57558E-05   -0.14502E-06  2548   0.174E-03    0.295E-03
RMM:  11    -0.413164061757E+03   -0.77786E-05   -0.14908E-06  2549   0.168E-03    0.137E-03
RMM:  12    -0.413164067185E+03   -0.54279E-05   -0.92478E-07  2411   0.131E-03    0.502E-04
RMM:  13    -0.413164067812E+03   -0.62712E-06   -0.37623E-07  1801   0.851E-04
    2 T=    61. E= -.41286637E+03 F= -.41316407E+03 E0= -.41314157E+03  EK= 0.29770E+00 SP= 0.00E+00 SK= 0.00E+00
       N       E                     dE             d eps       ncg     rms          rms(c)
RMM:   1    -0.413156387187E+03    0.76800E-02   -0.11032E+01  4196   0.698E-01    0.910E-01
RMM:   2    -0.413165910704E+03   -0.95235E-02   -0.13283E-01  3989   0.965E-02    0.634E-01
RMM:   3    -0.413164872061E+03    0.10386E-02   -0.72162E-03  4841   0.377E-02    0.161E-01
RMM:   4    -0.413190470199E+03   -0.25598E-01   -0.25939E-02  5185   0.135E-01    0.667E-01
RMM:   5    -0.413164543593E+03    0.25927E-01   -0.12629E-02  4833   0.111E-01    0.369E-02
RMM:   6    -0.413164707575E+03   -0.16398E-03   -0.20883E-03  5819   0.437E-02    0.212E-02
RMM:   7    -0.413164717134E+03   -0.95592E-05   -0.26145E-04  5903   0.138E-02    0.145E-02
RMM:   8    -0.413164717527E+03   -0.39270E-06   -0.37698E-05  4692   0.587E-03    0.775E-03
RMM:   9    -0.413164716995E+03    0.53246E-06   -0.75536E-06  3222   0.312E-03
    3 T=    61. E= -.41286680E+03 F= -.41316472E+03 E0= -.41314222E+03  EK= 0.29792E+00 SP= 0.00E+00 SK= 0.00E+00
       N       E                     dE             d eps       ncg     rms          rms(c)
RMM:   1    -0.413155899432E+03    0.88181E-02   -0.10944E+01  4227   0.698E-01    0.894E-01
RMM:   2    -0.413165872562E+03   -0.99731E-02   -0.13176E-01  4256   0.974E-02    0.628E-01
RMM:   3    -0.413170117604E+03   -0.42450E-02   -0.11441E-02  5193   0.772E-02    0.352E-01
RMM:   4    -0.413186489348E+03   -0.16372E-01   -0.36154E-02  5113   0.163E-01    0.621E-01
RMM:   5    -0.413164466033E+03    0.22023E-01   -0.85544E-03  4703   0.104E-01    0.536E-02
RMM:   6    -0.413164447147E+03    0.18886E-04   -0.15077E-03  5451   0.390E-02    0.199E-02
RMM:   7    -0.413164465260E+03   -0.18113E-04   -0.24684E-04  6006   0.146E-02    0.133E-02
RMM:   8    -0.413164467548E+03   -0.22886E-05   -0.37850E-05  5072   0.633E-03    0.682E-03
RMM:   9    -0.413164468842E+03   -0.12943E-05   -0.89485E-06  3461   0.383E-03    0.364E-03
RMM:  10    -0.413164470170E+03   -0.13271E-05   -0.13656E-06  2534   0.197E-03    0.219E-03
RMM:  11    -0.413164472371E+03   -0.22013E-05   -0.12451E-06  2544   0.172E-03    0.128E-03
RMM:  12    -0.413164473401E+03   -0.10298E-05   -0.55630E-07  2351   0.119E-03    0.458E-04
RMM:  13    -0.413164474311E+03   -0.91083E-06   -0.35858E-07  1650   0.854E-04
    4 T=    61. E= -.41286658E+03 F= -.41316447E+03 E0= -.41314199E+03  EK= 0.29789E+00 SP= 0.00E+00 SK= 0.00E+00
       N       E                     dE             d eps       ncg     rms          rms(c)
RMM:   1    -0.413155721989E+03    0.87514E-02   -0.10986E+01  4235   0.705E-01    0.884E-01
RMM:   2    -0.413166199290E+03   -0.10477E-01   -0.13565E-01  3949   0.946E-02    0.640E-01
RMM:   3    -0.413164894474E+03    0.13048E-02   -0.68891E-03  4941   0.380E-02    0.160E-01
RMM:   4    -0.413196639402E+03   -0.31745E-01   -0.32560E-02  5162   0.150E-01    0.742E-01
RMM:   5    -0.413164365604E+03    0.32274E-01   -0.15638E-02  4814   0.124E-01    0.389E-02
RMM:   6    -0.413164560527E+03   -0.19492E-03   -0.25519E-03  5785   0.485E-02    0.201E-02
RMM:   7    -0.413164579160E+03   -0.18633E-04   -0.30869E-04  5906   0.146E-02    0.145E-02
RMM:   8    -0.413164584430E+03   -0.52696E-05   -0.42315E-05  4768   0.605E-03    0.801E-03
RMM:   9    -0.413164588476E+03   -0.40459E-05   -0.86066E-06  3297   0.324E-03    0.534E-03
RMM:  10    -0.413164593749E+03   -0.52736E-05   -0.19316E-06  2558   0.199E-03    0.320E-03
RMM:  11    -0.413164599751E+03   -0.60016E-05   -0.15317E-06  2557   0.181E-03    0.154E-03
RMM:  12    -0.413164603956E+03   -0.42055E-05   -0.90378E-07  2468   0.143E-03    0.473E-04
RMM:  13    -0.413164604770E+03   -0.81332E-06   -0.33165E-07  2031   0.950E-04
    5 T=    61. E= -.41286657E+03 F= -.41316460E+03 E0= -.41314213E+03  EK= 0.29803E+00 SP= 0.00E+00 SK= 0.00E+00
       N       E                     dE             d eps       ncg     rms          rms(c)
RMM:   1    -0.413159216482E+03    0.53875E-02   -0.11060E+01  4250   0.731E-01    0.906E-01
RMM:   2    -0.413166476709E+03   -0.72602E-02   -0.13232E-01  4063   0.967E-02    0.636E-01
RMM:   3    -0.413165389148E+03    0.10876E-02   -0.70934E-03  4821   0.390E-02    0.160E-01
RMM:   4    -0.413192448087E+03   -0.27059E-01   -0.27388E-02  5161   0.138E-01    0.686E-01
RMM:   5    -0.413164978365E+03    0.27470E-01   -0.13383E-02  4822   0.114E-01    0.370E-02
RMM:   6    -0.413165142692E+03   -0.16433E-03   -0.21564E-03  5802   0.446E-02    0.210E-02
RMM:   7    -0.413165151498E+03   -0.88061E-05   -0.26246E-04  5886   0.139E-02    0.145E-02
RMM:   8    -0.413165151744E+03   -0.24598E-06   -0.38093E-05  4715   0.593E-03    0.785E-03
RMM:   9    -0.413165151073E+03    0.67122E-06   -0.78399E-06  3258   0.319E-03
    6 T=    61. E= -.41286680E+03 F= -.41316515E+03 E0= -.41314269E+03  EK= 0.29835E+00 SP= 0.00E+00 SK= 0.00E+00
       N       E                     dE             d eps       ncg     rms          rms(c)
RMM:   1    -0.413158552834E+03    0.65989E-02   -0.11001E+01  4271   0.732E-01    0.901E-01
RMM:   2    -0.413165944032E+03   -0.73912E-02   -0.13204E-01  4283   0.998E-02    0.629E-01
RMM:   3    -0.413170194533E+03   -0.42505E-02   -0.11433E-02  5161   0.759E-02    0.346E-01
RMM:   4    -0.413187143405E+03   -0.16949E-01   -0.36102E-02  5099   0.162E-01    0.625E-01
RMM:   5    -0.413164793271E+03    0.22350E-01   -0.87684E-03  4701   0.104E-01    0.532E-02
RMM:   6    -0.413164783831E+03    0.94397E-05   -0.15515E-03  5468   0.393E-02    0.201E-02
RMM:   7    -0.413164799556E+03   -0.15725E-04   -0.24542E-04  6018   0.145E-02    0.133E-02
RMM:   8    -0.413164800175E+03   -0.61955E-06   -0.37982E-05  5061   0.636E-03    0.681E-03
RMM:   9    -0.413164798380E+03    0.17954E-05   -0.84828E-06  3353   0.375E-03    0.357E-03
RMM:  10    -0.413164798575E+03   -0.19532E-06   -0.13518E-06  2532   0.196E-03
    7 T=    61. E= -.41286637E+03 F= -.41316480E+03 E0= -.41314235E+03  EK= 0.29843E+00 SP= 0.00E+00 SK= 0.00E+00
       N       E                     dE             d eps       ncg     rms          rms(c)
RMM:   1    -0.413156485418E+03    0.83130E-02   -0.10978E+01  4266   0.719E-01    0.883E-01
RMM:   2    -0.413167048824E+03   -0.10563E-01   -0.13493E-01  4084   0.952E-02    0.637E-01
RMM:   3    -0.413165729988E+03    0.13188E-02   -0.68631E-03  4947   0.384E-02    0.162E-01
RMM:   4    -0.413197696218E+03   -0.31966E-01   -0.32750E-02  5156   0.151E-01    0.744E-01
RMM:   5    -0.413165253561E+03    0.32443E-01   -0.15769E-02  4814   0.124E-01    0.397E-02
RMM:   6    -0.413165441766E+03   -0.18821E-03   -0.25265E-03  5779   0.484E-02    0.199E-02
RMM:   7    -0.413165460134E+03   -0.18368E-04   -0.31227E-04  5911   0.146E-02    0.143E-02
RMM:   8    -0.413165464697E+03   -0.45627E-05   -0.39386E-05  4627   0.585E-03    0.745E-03
RMM:   9    -0.413165468013E+03   -0.33164E-05   -0.83502E-06  3230   0.313E-03    0.496E-03
RMM:  10    -0.413165471804E+03   -0.37909E-05   -0.18927E-06  2554   0.195E-03    0.299E-03
RMM:  11    -0.413165476131E+03   -0.43272E-05   -0.14647E-06  2555   0.175E-03    0.137E-03
RMM:  12    -0.413165478829E+03   -0.26975E-05   -0.86774E-07  2453   0.138E-03    0.425E-04
RMM:  13    -0.413165479361E+03   -0.53262E-06   -0.31781E-07  1967   0.919E-04
    8 T=    61. E= -.41286668E+03 F= -.41316548E+03 E0= -.41314305E+03  EK= 0.29880E+00 SP= 0.00E+00 SK= 0.00E+00
       N       E                     dE             d eps       ncg     rms          rms(c)
RMM:   1    -0.413156939596E+03    0.85392E-02   -0.11043E+01  4284   0.722E-01    0.900E-01
RMM:   2    -0.413166968282E+03   -0.10029E-01   -0.13419E-01  4158   0.101E-01    0.639E-01
RMM:   3    -0.413165806524E+03    0.11618E-02   -0.70221E-03  4810   0.384E-02    0.159E-01
RMM:   4    -0.413191815519E+03   -0.26009E-01   -0.26439E-02  5155   0.135E-01    0.674E-01
RMM:   5    -0.413165366334E+03    0.26449E-01   -0.12972E-02  4814   0.112E-01    0.358E-02
RMM:   6    -0.413165528265E+03   -0.16193E-03   -0.20674E-03  5793   0.438E-02    0.202E-02
RMM:   7    -0.413165538169E+03   -0.99035E-05   -0.25401E-04  5863   0.136E-02    0.142E-02
RMM:   8    -0.413165539166E+03   -0.99711E-06   -0.37624E-05  4701   0.589E-03    0.780E-03
RMM:   9    -0.413165538826E+03    0.33955E-06   -0.75943E-06  3219   0.317E-03
    9 T=    61. E= -.41286653E+03 F= -.41316554E+03 E0= -.41314313E+03  EK= 0.29901E+00 SP= 0.00E+00 SK= 0.00E+00
       N       E                     dE             d eps       ncg     rms          rms(c)
RMM:   1    -0.413157336309E+03    0.82029E-02   -0.11026E+01  4294   0.729E-01    0.909E-01
RMM:   2    -0.413166719302E+03   -0.93830E-02   -0.13240E-01  4294   0.986E-02    0.631E-01
RMM:   3    -0.413171271421E+03   -0.45521E-02   -0.11794E-02  5157   0.777E-02    0.354E-01
RMM:   4    -0.413186971967E+03   -0.15701E-01   -0.35467E-02  5085   0.160E-01    0.613E-01
RMM:   5    -0.413165684327E+03    0.21288E-01   -0.82781E-03  4685   0.102E-01    0.525E-02
RMM:   6    -0.413165670528E+03    0.13799E-04   -0.14808E-03  5468   0.380E-02    0.204E-02
RMM:   7    -0.413165684132E+03   -0.13604E-04   -0.23295E-04  5996   0.142E-02    0.134E-02
RMM:   8    -0.413165683124E+03    0.10081E-05   -0.36800E-05  5033   0.628E-03    0.675E-03
RMM:   9    -0.413165679055E+03    0.40692E-05   -0.80805E-06  3274   0.366E-03    0.353E-03
RMM:  10    -0.413165678363E+03    0.69142E-06   -0.13021E-06  2527   0.194E-03
   10 T=    61. E= -.41286644E+03 F= -.41316568E+03 E0= -.41314329E+03  EK= 0.29923E+00 SP= 0.00E+00 SK= 0.00E+00
       N       E                     dE             d eps       ncg     rms          rms(c)
RMM:   1    -0.413157557303E+03    0.81218E-02   -0.10975E+01  4302   0.728E-01    0.884E-01
RMM:   2    -0.413168070797E+03   -0.10513E-01   -0.13398E-01  4192   0.968E-02    0.635E-01
RMM:   3    -0.413166877431E+03    0.11934E-02   -0.68424E-03  4918   0.407E-02    0.166E-01
RMM:   4    -0.413201194175E+03   -0.34317E-01   -0.35426E-02  5145   0.156E-01    0.771E-01
RMM:   5    -0.413166216382E+03    0.34978E-01   -0.17075E-02  4808   0.129E-01    0.411E-02
RMM:   6    -0.413166415287E+03   -0.19891E-03   -0.27320E-03  5772   0.502E-02    0.206E-02
RMM:   7    -0.413166431772E+03   -0.16484E-04   -0.33767E-04  5933   0.151E-02    0.149E-02
RMM:   8    -0.413166433592E+03   -0.18206E-05   -0.42687E-05  4717   0.609E-03    0.793E-03
RMM:   9    -0.413166434222E+03   -0.62995E-06   -0.91086E-06  3307   0.326E-03
   11 T=    61. E= -.41286672E+03 F= -.41316643E+03 E0= -.41314407E+03  EK= 0.29971E+00 SP= 0.00E+00 SK= 0.00E+00
       N       E                     dE             d eps       ncg     rms          rms(c)
RMM:   1    -0.413159109949E+03    0.73236E-02   -0.11071E+01  4304   0.751E-01    0.895E-01
RMM:   2    -0.413167825271E+03   -0.87153E-02   -0.13526E-01  4290   0.984E-02    0.642E-01
RMM:   3    -0.413171679224E+03   -0.38540E-02   -0.11262E-02  5146   0.758E-02    0.344E-01
RMM:   4    -0.413192239956E+03   -0.20561E-01   -0.40612E-02  5097   0.171E-01    0.671E-01
RMM:   5    -0.413166262548E+03    0.25977E-01   -0.10377E-02  4697   0.111E-01    0.542E-02
RMM:   6    -0.413166274774E+03   -0.12226E-04   -0.18157E-03  5501   0.420E-02    0.189E-02
RMM:   7    -0.413166296060E+03   -0.21286E-04   -0.27387E-04  6014   0.149E-02    0.131E-02
RMM:   8    -0.413166299135E+03   -0.30747E-05   -0.41428E-05  5089   0.642E-03    0.694E-03
RMM:   9    -0.413166300377E+03   -0.12422E-05   -0.87832E-06  3314   0.375E-03    0.368E-03
RMM:  10    -0.413166301672E+03   -0.12952E-05   -0.16008E-06  2545   0.200E-03    0.218E-03
RMM:  11    -0.413166303505E+03   -0.18330E-05   -0.13487E-06  2543   0.176E-03    0.136E-03
RMM:  12    -0.413166304167E+03   -0.66230E-06   -0.58749E-07  2399   0.123E-03
   12 T=    61. E= -.41286634E+03 F= -.41316630E+03 E0= -.41314397E+03  EK= 0.29997E+00 SP= 0.00E+00 SK= 0.00E+00
       N       E                     dE             d eps       ncg     rms          rms(c)
RMM:   1    -0.413158627211E+03    0.76763E-02   -0.11073E+01  4297   0.743E-01    0.914E-01
RMM:   2    -0.413167997173E+03   -0.93700E-02   -0.13262E-01  4207   0.933E-02    0.633E-01
RMM:   3    -0.413167464309E+03    0.53286E-03   -0.74633E-03  5015   0.407E-02    0.180E-01
RMM:   4    -0.413206293844E+03   -0.38830E-01   -0.40771E-02  5150   0.167E-01    0.819E-01
RMM:   5    -0.413166718466E+03    0.39575E-01   -0.19194E-02  4797   0.137E-01    0.450E-02
RMM:   6    -0.413166933260E+03   -0.21479E-03   -0.30918E-03  5762   0.534E-02    0.229E-02
RMM:   7    -0.413166945101E+03   -0.11841E-04   -0.37523E-04  5938   0.161E-02    0.164E-02
RMM:   8    -0.413166941894E+03    0.32067E-05   -0.51320E-05  4976   0.666E-03    0.916E-03
RMM:   9    -0.413166936672E+03    0.52222E-05   -0.10150E-05  3432   0.346E-03    0.580E-03
RMM:  10    -0.413166933296E+03    0.33763E-05   -0.22378E-06  2568   0.212E-03    0.339E-03
RMM:  11    -0.413166929915E+03    0.33813E-05   -0.15580E-06  2537   0.187E-03    0.158E-03
RMM:  12    -0.413166926713E+03    0.32017E-05   -0.93296E-07  2484   0.151E-03    0.466E-04
RMM:  13    -0.413166925964E+03    0.74920E-06   -0.35824E-07  2121   0.101E-03
   13 T=    61. E= -.41286648E+03 F= -.41316693E+03 E0= -.41314462E+03  EK= 0.30044E+00 SP= 0.00E+00 SK= 0.00E+00
       N       E                     dE             d eps       ncg     rms          rms(c)
RMM:   1    -0.413158916553E+03    0.80102E-02   -0.10991E+01  4295   0.748E-01    0.888E-01
RMM:   2    -0.413168852955E+03   -0.99364E-02   -0.13422E-01  4220   0.951E-02    0.633E-01
RMM:   3    -0.413167834897E+03    0.10181E-02   -0.68729E-03  4889   0.382E-02    0.163E-01
RMM:   4    -0.413198075935E+03   -0.30241E-01   -0.31042E-02  5142   0.146E-01    0.725E-01
RMM:   5    -0.413167294297E+03    0.30782E-01   -0.15119E-02  4812   0.121E-01    0.378E-02
RMM:   6    -0.413167475970E+03   -0.18167E-03   -0.23797E-03  5791   0.469E-02    0.207E-02
RMM:   7    -0.413167486592E+03   -0.10621E-04   -0.28636E-04  5886   0.145E-02    0.147E-02
RMM:   8    -0.413167486181E+03    0.41122E-06   -0.42735E-05  4803   0.620E-03    0.839E-03
RMM:   9    -0.413167483746E+03    0.24342E-05   -0.87717E-06  3344   0.334E-03    0.563E-03
RMM:  10    -0.413167483220E+03    0.52669E-06   -0.18282E-06  2551   0.200E-03
   14 T=    61. E= -.41286654E+03 F= -.41316748E+03 E0= -.41314521E+03  EK= 0.30094E+00 SP= 0.00E+00 SK= 0.00E+00
       N       E                     dE             d eps       ncg     rms          rms(c)
RMM:   1    -0.413158739637E+03    0.87441E-02   -0.11079E+01  4305   0.751E-01    0.892E-01
RMM:   2    -0.413169540645E+03   -0.10801E-01   -0.13668E-01  4282   0.986E-02    0.644E-01
RMM:   3    -0.413170664158E+03   -0.11235E-02   -0.91986E-03  5123   0.629E-02    0.275E-01
RMM:   4    -0.413204877427E+03   -0.34213E-01   -0.47849E-02  5113   0.183E-01    0.797E-01
RMM:   5    -0.413167513473E+03    0.37364E-01   -0.16276E-02  4749   0.132E-01    0.519E-02
RMM:   6    -0.413167630924E+03   -0.11745E-03   -0.26320E-03  5645   0.505E-02    0.181E-02
RMM:   7    -0.413167656288E+03   -0.25364E-04   -0.34161E-04  6007   0.155E-02    0.136E-02
RMM:   8    -0.413167659812E+03   -0.35242E-05   -0.48085E-05  5057   0.661E-03    0.720E-03
RMM:   9    -0.413167660202E+03   -0.39025E-06   -0.87257E-06  3139   0.335E-03
   15 T=    61. E= -.41286630E+03 F= -.41316766E+03 E0= -.41314543E+03  EK= 0.30136E+00 SP= 0.00E+00 SK= 0.00E+00
       N       E                     dE             d eps       ncg     rms          rms(c)
RMM:   1    -0.413160428369E+03    0.72314E-02   -0.11119E+01  4299   0.757E-01    0.915E-01
RMM:   2    -0.413169868579E+03   -0.94402E-02   -0.13387E-01  4253   0.100E-01    0.636E-01
RMM:   3    -0.413168987160E+03    0.88142E-03   -0.73307E-03  4923   0.404E-02    0.169E-01
RMM:   4    -0.413201139427E+03   -0.32152E-01   -0.33020E-02  5146   0.151E-01    0.747E-01
RMM:   5    -0.413168418622E+03    0.32721E-01   -0.16019E-02  4809   0.125E-01    0.405E-02
RMM:   6    -0.413168606644E+03   -0.18802E-03   -0.25639E-03  5815   0.488E-02    0.223E-02
RMM:   7    -0.413168613961E+03   -0.73162E-05   -0.32193E-04  5927   0.153E-02    0.157E-02
RMM:   8    -0.413168609670E+03    0.42903E-05   -0.43252E-05  4791   0.627E-03    0.844E-03
RMM:   9    -0.413168604427E+03    0.52432E-05   -0.92476E-06  3355   0.335E-03    0.570E-03
RMM:  10    -0.413168600874E+03    0.35534E-05   -0.18676E-06  2548   0.202E-03    0.342E-03
RMM:  11    -0.413168596566E+03    0.43075E-05   -0.17182E-06  2568   0.194E-03    0.155E-03
RMM:  12    -0.413168592786E+03    0.37798E-05   -0.91170E-07  2484   0.149E-03    0.520E-04
RMM:  13    -0.413168592107E+03    0.67947E-06   -0.31312E-07  2062   0.946E-04
   16 T=    61. E= -.41286653E+03 F= -.41316859E+03 E0= -.41314639E+03  EK= 0.30206E+00 SP= 0.00E+00 SK= 0.00E+00
       N       E                     dE             d eps       ncg     rms          rms(c)
RMM:   1    -0.413160318276E+03    0.82745E-02   -0.11033E+01  4297   0.753E-01    0.895E-01
RMM:   2    -0.413170517992E+03   -0.10200E-01   -0.13449E-01  4247   0.990E-02    0.633E-01
RMM:   3    -0.413169357342E+03    0.11606E-02   -0.70082E-03  4900   0.423E-02    0.170E-01
RMM:   4    -0.413203589252E+03   -0.34232E-01   -0.35269E-02  5140   0.156E-01    0.769E-01
RMM:   5    -0.413168806257E+03    0.34783E-01   -0.17074E-02  4804   0.128E-01    0.405E-02
RMM:   6    -0.413169004961E+03   -0.19870E-03   -0.27037E-03  5796   0.499E-02    0.219E-02
RMM:   7    -0.413169014412E+03   -0.94517E-05   -0.32536E-04  5898   0.153E-02    0.155E-02
RMM:   8    -0.413169011718E+03    0.26945E-05   -0.46925E-05  4874   0.643E-03    0.886E-03
RMM:   9    -0.413169007170E+03    0.45476E-05   -0.96436E-06  3396   0.342E-03    0.585E-03
RMM:  10    -0.413169004510E+03    0.26604E-05   -0.19940E-06  2549   0.206E-03    0.348E-03
RMM:  11    -0.413169001413E+03    0.30969E-05   -0.17521E-06  2553   0.198E-03    0.161E-03
RMM:  12    -0.413168998839E+03    0.25742E-05   -0.89236E-07  2473   0.151E-03    0.523E-04
RMM:  13    -0.413168998337E+03    0.50219E-06   -0.32707E-07  2081   0.972E-04
   17 T=    62. E= -.41286643E+03 F= -.41316900E+03 E0= -.41314684E+03  EK= 0.30257E+00 SP= 0.00E+00 SK= 0.00E+00
       N       E                     dE             d eps       ncg     rms          rms(c)
RMM:   1    -0.413160780525E+03    0.82183E-02   -0.11109E+01  4297   0.769E-01    0.890E-01
RMM:   2    -0.413171427510E+03   -0.10647E-01   -0.13716E-01  4261   0.102E-01    0.645E-01
RMM:   3    -0.413169984066E+03    0.14434E-02   -0.69713E-03  4927   0.407E-02    0.167E-01
RMM:   4    -0.413205718809E+03   -0.35735E-01   -0.37127E-02  5140   0.160E-01    0.786E-01
RMM:   5    -0.413169304076E+03    0.36415E-01   -0.17856E-02  4800   0.131E-01    0.408E-02
RMM:   6    -0.413169514297E+03   -0.21022E-03   -0.28443E-03  5794   0.510E-02    0.213E-02
RMM:   7    -0.413169528517E+03   -0.14220E-04   -0.33633E-04  5908   0.155E-02    0.154E-02
RMM:   8    -0.413169529158E+03   -0.64073E-06   -0.48550E-05  4909   0.651E-03    0.885E-03
RMM:   9    -0.413169527492E+03    0.16655E-05   -0.10067E-05  3452   0.349E-03    0.579E-03
RMM:  10    -0.413169527814E+03   -0.32159E-06   -0.21560E-06  2556   0.211E-03
   18 T=    62. E= -.41286633E+03 F= -.41316953E+03 E0= -.41314741E+03  EK= 0.30320E+00 SP= 0.00E+00 SK= 0.00E+00
       N       E                     dE             d eps       ncg     rms          rms(c)
RMM:   1    -0.413162269579E+03    0.72579E-02   -0.11161E+01  4301   0.765E-01    0.914E-01
RMM:   2    -0.413171913511E+03   -0.96439E-02   -0.13553E-01  4313   0.979E-02    0.640E-01
RMM:   3    -0.413174501343E+03   -0.25878E-02   -0.10162E-02  5119   0.681E-02    0.304E-01
RMM:   4    -0.413200574508E+03   -0.26073E-01   -0.41917E-02  5090   0.172E-01    0.719E-01
RMM:   5    -0.413170569318E+03    0.30005E-01   -0.12543E-02  4712   0.119E-01    0.508E-02
RMM:   6    -0.413170646503E+03   -0.77185E-04   -0.21441E-03  5604   0.450E-02    0.198E-02
RMM:   7    -0.413170659897E+03   -0.13394E-04   -0.28209E-04  5993   0.145E-02    0.137E-02
RMM:   8    -0.413170656843E+03    0.30539E-05   -0.42914E-05  5053   0.646E-03    0.700E-03
RMM:   9    -0.413170649649E+03    0.71946E-05   -0.77817E-06  3049   0.332E-03    0.309E-03
RMM:  10    -0.413170647027E+03    0.26215E-05   -0.18162E-06  2541   0.193E-03    0.189E-03
RMM:  11    -0.413170642983E+03    0.40437E-05   -0.10574E-06  2516   0.155E-03    0.111E-03
RMM:  12    -0.413170640274E+03    0.27097E-05   -0.51882E-07  2195   0.114E-03    0.501E-04
RMM:  13    -0.413170637983E+03    0.22903E-05   -0.30168E-07  1828   0.892E-04    0.225E-04
RMM:  14    -0.413170636251E+03    0.17325E-05   -0.19113E-07  1490   0.750E-04    0.143E-04
RMM:  15    -0.413170633017E+03    0.32339E-05   -0.22317E-07  1658   0.766E-04    0.150E-04
RMM:  16    -0.413170631507E+03    0.15098E-05   -0.11485E-07  1237   0.627E-04    0.117E-04
RMM:  17    -0.413170629475E+03    0.20323E-05   -0.97295E-08  1214   0.610E-04    0.505E-05
RMM:  18    -0.413170628025E+03    0.14501E-05   -0.61979E-08  1002   0.559E-04    0.356E-05
RMM:  19    -0.413170627369E+03    0.65606E-06   -0.35406E-08   857   0.528E-04
   19 T=    62. E= -.41286657E+03 F= -.41317063E+03 E0= -.41314855E+03  EK= 0.30406E+00 SP= 0.00E+00 SK= 0.00E+00
       N       E                     dE             d eps       ncg     rms          rms(c)
RMM:   1    -0.413162664816E+03    0.79632E-02   -0.11105E+01  4297   0.773E-01    0.904E-01
RMM:   2    -0.413172483945E+03   -0.98191E-02   -0.13496E-01  4250   0.999E-02    0.634E-01
RMM:   3    -0.413171691473E+03    0.79247E-03   -0.72097E-03  4963   0.422E-02    0.180E-01
RMM:   4    -0.413210972574E+03   -0.39281E-01   -0.41363E-02  5144   0.168E-01    0.823E-01
RMM:   5    -0.413170932999E+03    0.40040E-01   -0.19583E-02  4797   0.138E-01    0.443E-02
RMM:   6    -0.413171146548E+03   -0.21355E-03   -0.31110E-03  5789   0.534E-02    0.231E-02
RMM:   7    -0.413171156080E+03   -0.95319E-05   -0.37334E-04  5892   0.163E-02    0.164E-02
RMM:   8    -0.413171151765E+03    0.43151E-05   -0.52924E-05  5014   0.679E-03    0.927E-03
RMM:   9    -0.413171145230E+03    0.65351E-05   -0.10904E-05  3528   0.360E-03    0.593E-03
RMM:  10    -0.413171140917E+03    0.43133E-05   -0.22450E-06  2559   0.214E-03    0.348E-03
RMM:  11    -0.413171136750E+03    0.41670E-05   -0.15649E-06  2534   0.191E-03    0.166E-03
RMM:  12    -0.413171133166E+03    0.35837E-05   -0.86299E-07  2469   0.151E-03    0.482E-04
RMM:  13    -0.413171132330E+03    0.83639E-06   -0.34490E-07  2140   0.101E-03
   20 T=    62. E= -.41286642E+03 F= -.41317113E+03 E0= -.41314910E+03  EK= 0.30471E+00 SP= 0.00E+00 SK= 0.00E+00
       N       E                     dE             d eps       ncg     rms          rms(c)
RMM:   1    -0.413163270117E+03    0.78630E-02   -0.11143E+01  4301   0.776E-01    0.890E-01
RMM:   2    -0.413173942436E+03   -0.10672E-01   -0.13829E-01  4266   0.101E-01    0.645E-01
RMM:   3    -0.413172602392E+03    0.13400E-02   -0.70305E-03  4940   0.418E-02    0.170E-01
RMM:   4    -0.413209735849E+03   -0.37133E-01   -0.38747E-02  5137   0.163E-01    0.800E-01
RMM:   5    -0.413171885583E+03    0.37850E-01   -0.18553E-02  4797   0.134E-01    0.416E-02
RMM:   6    -0.413172100924E+03   -0.21534E-03   -0.29785E-03  5801   0.520E-02    0.216E-02
RMM:   7    -0.413172115634E+03   -0.14710E-04   -0.34922E-04  5902   0.158E-02    0.156E-02
RMM:   8    -0.413172114865E+03    0.76929E-06   -0.51836E-05  4951   0.670E-03    0.918E-03
RMM:   9    -0.413172111363E+03    0.35013E-05   -0.10835E-05  3517   0.362E-03    0.596E-03
RMM:  10    -0.413172110305E+03    0.10582E-05   -0.22838E-06  2568   0.217E-03    0.351E-03
RMM:  11    -0.413172109239E+03    0.10663E-05   -0.19230E-06  2561   0.206E-03    0.164E-03
RMM:  12    -0.413172108181E+03    0.10581E-05   -0.87801E-07  2475   0.152E-03    0.535E-04
RMM:  13    -0.413172107940E+03    0.24104E-06   -0.33112E-07  2101   0.980E-04
   21 T=    62. E= -.41286654E+03 F= -.41317211E+03 E0= -.41315012E+03  EK= 0.30557E+00 SP= 0.00E+00 SK= 0.00E+00
       N       E                     dE             d eps       ncg     rms          rms(c)
RMM:   1    -0.413164579895E+03    0.75283E-02   -0.11214E+01  4299   0.777E-01    0.911E-01
RMM:   2    -0.413174742967E+03   -0.10163E-01   -0.13712E-01  4271   0.987E-02    0.644E-01
RMM:   3    -0.413173647143E+03    0.10958E-02   -0.72437E-03  4917   0.412E-02    0.173E-01
RMM:   4    -0.413209539944E+03   -0.35893E-01   -0.37240E-02  5139   0.160E-01    0.787E-01
RMM:   5    -0.413173048392E+03    0.36492E-01   -0.17957E-02  4793   0.131E-01    0.415E-02
RMM:   6    -0.413173251907E+03   -0.20352E-03   -0.28794E-03  5804   0.510E-02    0.225E-02
RMM:   7    -0.413173261070E+03   -0.91627E-05   -0.33630E-04  5878   0.157E-02    0.158E-02
RMM:   8    -0.413173257212E+03    0.38578E-05   -0.51433E-05  4963   0.673E-03    0.931E-03
RMM:   9    -0.413173250605E+03    0.66071E-05   -0.10536E-05  3511   0.360E-03    0.608E-03
RMM:  10    -0.413173246543E+03    0.40620E-05   -0.21124E-06  2559   0.213E-03    0.361E-03
RMM:  11    -0.413173241799E+03    0.47442E-05   -0.18730E-06  2564   0.207E-03    0.167E-03
RMM:  12    -0.413173238111E+03    0.36878E-05   -0.87763E-07  2478   0.155E-03    0.544E-04
RMM:  13    -0.413173237421E+03    0.69021E-06   -0.33258E-07  2117   0.994E-04
   22 T=    62. E= -.41286672E+03 F= -.41317324E+03 E0= -.41315129E+03  EK= 0.30651E+00 SP= 0.00E+00 SK= 0.00E+00
       N       E                     dE             d eps       ncg     rms          rms(c)
RMM:   1    -0.413165661032E+03    0.75771E-02   -0.11200E+01  4300   0.791E-01    0.914E-01
RMM:   2    -0.413175213645E+03   -0.95526E-02   -0.13580E-01  4270   0.106E-01    0.637E-01
RMM:   3    -0.413174292110E+03    0.92153E-03   -0.73283E-03  4867   0.431E-02    0.173E-01
RMM:   4    -0.413208059901E+03   -0.33768E-01   -0.34795E-02  5145   0.155E-01    0.764E-01
RMM:   5    -0.413173712185E+03    0.34348E-01   -0.16857E-02  4795   0.128E-01    0.410E-02
RMM:   6    -0.413173901837E+03   -0.18965E-03   -0.27627E-03  5806   0.498E-02    0.230E-02
RMM:   7    -0.413173907042E+03   -0.52054E-05   -0.31123E-04  5876   0.153E-02    0.156E-02
RMM:   8    -0.413173901311E+03    0.57311E-05   -0.51322E-05  4969   0.674E-03    0.949E-03
RMM:   9    -0.413173892525E+03    0.87861E-05   -0.10697E-05  3602   0.369E-03    0.624E-03
RMM:  10    -0.413173886552E+03    0.59732E-05   -0.20447E-06  2557   0.216E-03    0.375E-03
RMM:  11    -0.413173879172E+03    0.73799E-05   -0.19949E-06  2575   0.215E-03    0.175E-03
RMM:  12    -0.413173873370E+03    0.58016E-05   -0.89025E-07  2481   0.159E-03    0.579E-04
RMM:  13    -0.413173872338E+03    0.10317E-05   -0.33443E-07  2125   0.101E-03    0.417E-04
RMM:  14    -0.413173871227E+03    0.11117E-05   -0.16263E-07  1569   0.755E-04    0.261E-04
RMM:  15    -0.413173866542E+03    0.46842E-05   -0.21414E-07  1951   0.818E-04    0.346E-04
RMM:  16    -0.413173866034E+03    0.50849E-06   -0.64120E-08  1006   0.582E-04
   23 T=    63. E= -.41286646E+03 F= -.41317387E+03 E0= -.41315197E+03  EK= 0.30740E+00 SP= 0.00E+00 SK= 0.00E+00
       N       E                     dE             d eps       ncg     rms          rms(c)
RMM:   1    -0.413167882501E+03    0.59840E-02   -0.11207E+01  4295   0.796E-01    0.893E-01
RMM:   2    -0.413177310923E+03   -0.94284E-02   -0.13925E-01  4269   0.104E-01    0.644E-01
RMM:   3    -0.413175742315E+03    0.15686E-02   -0.69592E-03  4838   0.417E-02    0.165E-01
RMM:   4    -0.413206486624E+03   -0.30744E-01   -0.31575E-02  5148   0.147E-01    0.730E-01
RMM:   5    -0.413175253558E+03    0.31233E-01   -0.15454E-02  4799   0.122E-01    0.382E-02
RMM:   6    -0.413175426966E+03   -0.17341E-03   -0.24975E-03  5805   0.471E-02    0.213E-02
RMM:   7    -0.413175435652E+03   -0.86862E-05   -0.28603E-04  5838   0.146E-02    0.146E-02
RMM:   8    -0.413175433779E+03    0.18728E-05   -0.46500E-05  4910   0.647E-03    0.878E-03
RMM:   9    -0.413175428988E+03    0.47909E-05   -0.10007E-05  3516   0.357E-03    0.582E-03
RMM:  10    -0.413175426913E+03    0.20753E-05   -0.18800E-06  2544   0.207E-03    0.355E-03
RMM:  11    -0.413175424420E+03    0.24934E-05   -0.18198E-06  2553   0.204E-03    0.165E-03
RMM:  12    -0.413175422345E+03    0.20745E-05   -0.84032E-07  2468   0.151E-03    0.560E-04
RMM:  13    -0.413175421992E+03    0.35350E-06   -0.30544E-07  2074   0.958E-04
   24 T=    63. E= -.41286676E+03 F= -.41317542E+03 E0= -.41315357E+03  EK= 0.30866E+00 SP= 0.00E+00 SK= 0.00E+00
       N       E                     dE             d eps       ncg     rms          rms(c)
RMM:   1    -0.413167695390E+03    0.77270E-02   -0.11295E+01  4297   0.798E-01    0.908E-01
RMM:   2    -0.413178325994E+03   -0.10631E-01   -0.13885E-01  4272   0.106E-01    0.650E-01
RMM:   3    -0.413176795707E+03    0.15303E-02   -0.71224E-03  4826   0.428E-02    0.166E-01
RMM:   4    -0.413207372402E+03   -0.30577E-01   -0.31249E-02  5147   0.147E-01    0.728E-01
RMM:   5    -0.413176290277E+03    0.31082E-01   -0.15363E-02  4806   0.121E-01    0.381E-02
RMM:   6    -0.413176459029E+03   -0.16875E-03   -0.24625E-03  5822   0.470E-02    0.214E-02
RMM:   7    -0.413176466595E+03   -0.75661E-05   -0.26825E-04  5840   0.143E-02    0.140E-02
RMM:   8    -0.413176464192E+03    0.24033E-05   -0.47933E-05  4919   0.651E-03    0.913E-03
RMM:   9    -0.413176457722E+03    0.64694E-05   -0.10776E-05  3689   0.371E-03    0.603E-03
RMM:  10    -0.413176454433E+03    0.32895E-05   -0.19171E-06  2550   0.214E-03    0.369E-03
RMM:  11    -0.413176450159E+03    0.42741E-05   -0.20281E-06  2577   0.215E-03    0.172E-03
RMM:  12    -0.413176446782E+03    0.33766E-05   -0.82556E-07  2473   0.154E-03    0.572E-04
RMM:  13    -0.413176446184E+03    0.59852E-06   -0.30684E-07  2083   0.965E-04
   25 T=    63. E= -.41286661E+03 F= -.41317645E+03 E0= -.41315465E+03  EK= 0.30983E+00 SP= 0.00E+00 SK= 0.00E+00
       N       E                     dE             d eps       ncg     rms          rms(c)
RMM:   1    -0.413169581402E+03    0.68654E-02   -0.11324E+01  4298   0.811E-01    0.924E-01
RMM:   2    -0.413178914292E+03   -0.93329E-02   -0.13785E-01  4270   0.108E-01    0.642E-01
RMM:   3    -0.413177918794E+03    0.99550E-03   -0.73788E-03  4801   0.425E-02    0.170E-01
RMM:   4    -0.413206833987E+03   -0.28915E-01   -0.29392E-02  5149   0.143E-01    0.708E-01
RMM:   5    -0.413177530010E+03    0.29304E-01   -0.14582E-02  4806   0.118E-01    0.385E-02
RMM:   6    -0.413177679518E+03   -0.14951E-03   -0.23127E-03  5815   0.457E-02    0.221E-02
RMM:   7    -0.413177681954E+03   -0.24363E-05   -0.24846E-04  5807   0.139E-02    0.136E-02
RMM:   8    -0.413177676259E+03    0.56949E-05   -0.46773E-05  4916   0.645E-03    0.909E-03
RMM:   9    -0.413177667324E+03    0.89357E-05   -0.10771E-05  3733   0.372E-03    0.609E-03
RMM:  10    -0.413177661240E+03    0.60838E-05   -0.17933E-06  2541   0.212E-03    0.377E-03
RMM:  11    -0.413177652746E+03    0.84943E-05   -0.19675E-06  2568   0.216E-03    0.174E-03
RMM:  12    -0.413177645922E+03    0.68242E-05   -0.82932E-07  2471   0.157E-03    0.577E-04
RMM:  13    -0.413177644818E+03    0.11037E-05   -0.30532E-07  2100   0.971E-04    0.422E-04
RMM:  14    -0.413177643437E+03    0.13808E-05   -0.14266E-07  1485   0.726E-04    0.257E-04
RMM:  15    -0.413177638087E+03    0.53504E-05   -0.18273E-07  1932   0.801E-04    0.368E-04
RMM:  16    -0.413177637484E+03    0.60260E-06   -0.54524E-08   956   0.569E-04
   26 T=    63. E= -.41286648E+03 F= -.41317764E+03 E0= -.41315589E+03  EK= 0.31115E+00 SP= 0.00E+00 SK= 0.00E+00
       N       E                     dE             d eps       ncg     rms          rms(c)
RMM:   1    -0.413170491173E+03    0.71469E-02   -0.11281E+01  4294   0.804E-01    0.899E-01
RMM:   2    -0.413181009294E+03   -0.10518E-01   -0.13937E-01  4270   0.104E-01    0.645E-01
RMM:   3    -0.413179812432E+03    0.11969E-02   -0.70481E-03  4805   0.431E-02    0.168E-01
RMM:   4    -0.413209678061E+03   -0.29866E-01   -0.30415E-02  5153   0.145E-01    0.719E-01
RMM:   5    -0.413179373677E+03    0.30304E-01   -0.15067E-02  4806   0.120E-01    0.381E-02
RMM:   6    -0.413179533621E+03   -0.15994E-03   -0.24146E-03  5810   0.466E-02    0.217E-02
RMM:   7    -0.413179540248E+03   -0.66264E-05   -0.27462E-04  5843   0.144E-02    0.144E-02
RMM:   8    -0.413179536640E+03    0.36077E-05   -0.47760E-05  4928   0.658E-03    0.889E-03
RMM:   9    -0.413179530003E+03    0.66373E-05   -0.10532E-05  3638   0.370E-03    0.589E-03
RMM:  10    -0.413179526401E+03    0.36012E-05   -0.18528E-06  2543   0.210E-03    0.362E-03
RMM:  11    -0.413179522038E+03    0.43638E-05   -0.17975E-06  2552   0.206E-03    0.169E-03
RMM:  12    -0.413179518413E+03    0.36245E-05   -0.82954E-07  2470   0.153E-03    0.560E-04
RMM:  13    -0.413179517793E+03    0.61981E-06   -0.30449E-07  2065   0.964E-04
   27 T=    64. E= -.41286682E+03 F= -.41317952E+03 E0= -.41315782E+03  EK= 0.31270E+00 SP= 0.00E+00 SK= 0.00E+00
       N       E                     dE             d eps       ncg     rms          rms(c)
RMM:   1    -0.413171890350E+03    0.76281E-02   -0.11406E+01  4296   0.833E-01    0.908E-01
RMM:   2    -0.413182250980E+03   -0.10361E-01   -0.14255E-01  4272   0.109E-01    0.656E-01
RMM:   3    -0.413180811946E+03    0.14390E-02   -0.71790E-03  4668   0.441E-02    0.160E-01
RMM:   4    -0.413201506871E+03   -0.20695E-01   -0.21032E-02  5149   0.122E-01    0.602E-01
RMM:   5    -0.413180466930E+03    0.21040E-01   -0.10503E-02  4809   0.997E-02    0.326E-02
RMM:   6    -0.413180564504E+03   -0.97575E-04   -0.16131E-03  5821   0.382E-02    0.189E-02
RMM:   7    -0.413180567783E+03   -0.32786E-05   -0.16531E-04  5606   0.115E-02    0.101E-02
RMM:   8    -0.413180562285E+03    0.54982E-05   -0.23826E-05  4178   0.474E-03    0.613E-03
RMM:   9    -0.413180558833E+03    0.34520E-05   -0.38864E-06  2692   0.235E-03    0.393E-03
RMM:  10    -0.413180556986E+03    0.18469E-05   -0.10853E-06  2516   0.154E-03    0.287E-03
RMM:  11    -0.413180552220E+03    0.47663E-05   -0.14027E-06  2522   0.189E-03    0.128E-03
RMM:  12    -0.413180549757E+03    0.24628E-05   -0.58108E-07  2349   0.129E-03    0.631E-04
RMM:  13    -0.413180549331E+03    0.42616E-06   -0.21548E-07  1740   0.831E-04
   28 T=    64. E= -.41286644E+03 F= -.41318055E+03 E0= -.41315890E+03  EK= 0.31411E+00 SP= 0.00E+00 SK= 0.00E+00
       N       E                     dE             d eps       ncg     rms          rms(c)
RMM:   1    -0.413181017842E+03   -0.46808E-03   -0.11535E+01  4295   0.870E-01    0.932E-01
RMM:   2    -0.413183945793E+03   -0.29280E-02   -0.14348E-01  4268   0.111E-01    0.648E-01
RMM:   3    -0.413182747508E+03    0.11983E-02   -0.75186E-03  4472   0.435E-02    0.166E-01
RMM:   4    -0.413192068293E+03   -0.93208E-02   -0.96099E-03  5165   0.828E-02    0.404E-01
RMM:   5    -0.413182760124E+03    0.93082E-02   -0.46481E-03  4830   0.662E-02    0.290E-02
RMM:   6    -0.413182786955E+03   -0.26831E-04   -0.77342E-04  5857   0.258E-02    0.189E-02
RMM:   7    -0.413182782791E+03    0.41637E-05   -0.12642E-04  5492   0.109E-02    0.114E-02
RMM:   8    -0.413182770207E+03    0.12585E-04   -0.17935E-05  4166   0.490E-03    0.487E-03
RMM:   9    -0.413182765291E+03    0.49158E-05   -0.34714E-06  2793   0.251E-03    0.376E-03
RMM:  10    -0.413182759731E+03    0.55599E-05   -0.81148E-07  2486   0.158E-03    0.231E-03
RMM:  11    -0.413182752177E+03    0.75535E-05   -0.67761E-07  2466   0.137E-03    0.106E-03
RMM:  12    -0.413182746289E+03    0.58887E-05   -0.38050E-07  2168   0.103E-03    0.394E-04
RMM:  13    -0.413182744210E+03    0.20786E-05   -0.16051E-07  1471   0.736E-04    0.208E-04
RMM:  14    -0.413182741662E+03    0.25484E-05   -0.97625E-08  1151   0.660E-04    0.124E-04
RMM:  15    -0.413182736340E+03    0.53219E-05   -0.11236E-07  1493   0.704E-04    0.152E-04
RMM:  16    -0.413182735771E+03    0.56835E-06   -0.43774E-08   892   0.567E-04
   29 T=    64. E= -.41286679E+03 F= -.41318274E+03 E0= -.41316114E+03  EK= 0.31595E+00 SP= 0.00E+00 SK= 0.00E+00
       N       E                     dE             d eps       ncg     rms          rms(c)
RMM:   1    -0.413175454340E+03    0.72820E-02   -0.11416E+01  4293   0.831E-01    0.909E-01
RMM:   2    -0.413186121473E+03   -0.10667E-01   -0.14226E-01  4268   0.110E-01    0.647E-01
RMM:   3    -0.413184597805E+03    0.15237E-02   -0.72135E-03  4460   0.459E-02    0.161E-01
RMM:   4    -0.413193964586E+03   -0.93668E-02   -0.97776E-03  5156   0.850E-02    0.407E-01
RMM:   5    -0.413184517460E+03    0.94471E-02   -0.47275E-03  4828   0.667E-02    0.278E-02
RMM:   6    -0.413184540437E+03   -0.22977E-04   -0.73223E-04  5841   0.257E-02    0.184E-02
RMM:   7    -0.413184538442E+03    0.19945E-05   -0.12121E-04  5484   0.107E-02    0.109E-02
RMM:   8    -0.413184528184E+03    0.10258E-04   -0.18058E-05  4155   0.488E-03    0.463E-03
RMM:   9    -0.413184525068E+03    0.31162E-05   -0.33979E-06  2792   0.249E-03    0.353E-03
RMM:  10    -0.413184521374E+03    0.36939E-05   -0.78172E-07  2484   0.154E-03    0.220E-03
RMM:  11    -0.413184516348E+03    0.50265E-05   -0.63660E-07  2452   0.131E-03    0.103E-03
RMM:  12    -0.413184512460E+03    0.38877E-05   -0.35961E-07  2100   0.988E-04    0.393E-04
RMM:  13    -0.413184510931E+03    0.15292E-05   -0.15253E-07  1388   0.719E-04    0.196E-04
RMM:  14    -0.413184509016E+03    0.19154E-05   -0.96670E-08  1124   0.654E-04    0.108E-04
RMM:  15    -0.413184505636E+03    0.33793E-05   -0.93821E-08  1246   0.671E-04    0.115E-04
RMM:  16    -0.413184505025E+03    0.61150E-06   -0.43811E-08   889   0.588E-04
   30 T=    65. E= -.41286673E+03 F= -.41318451E+03 E0= -.41316296E+03  EK= 0.31778E+00 SP= 0.00E+00 SK= 0.00E+00
       N       E                     dE             d eps       ncg     rms          rms(c)
RMM:   1    -0.413178010135E+03    0.64955E-02   -0.11557E+01  4292   0.876E-01    0.910E-01
RMM:   2    -0.413188582215E+03   -0.10572E-01   -0.14805E-01  4272   0.123E-01    0.662E-01
RMM:   3    -0.413186143662E+03    0.24386E-02   -0.71654E-03  4297   0.432E-02    0.157E-01
RMM:   4    -0.413188104249E+03   -0.19606E-02   -0.28232E-03  5113   0.446E-02    0.187E-01
RMM:   5    -0.413186150822E+03    0.19534E-02   -0.96129E-04  4799   0.309E-02    0.237E-02
RMM:   6    -0.413186147862E+03    0.29599E-05   -0.19779E-04  5664   0.143E-02    0.178E-02
RMM:   7    -0.413186141579E+03    0.62834E-05   -0.73438E-05  4960   0.838E-03    0.684E-03
RMM:   8    -0.413186137823E+03    0.37560E-05   -0.61556E-06  3127   0.329E-03    0.369E-03
RMM:   9    -0.413186136833E+03    0.99013E-06   -0.80021E-07  2484   0.163E-03
   31 T=    65. E= -.41286646E+03 F= -.41318614E+03 E0= -.41316464E+03  EK= 0.31968E+00 SP= 0.00E+00 SK= 0.00E+00
       N       E                     dE             d eps       ncg     rms          rms(c)
RMM:   1    -0.413182764607E+03    0.33732E-02   -0.11664E+01  4292   0.894E-01    0.937E-01
RMM:   2    -0.413190326563E+03   -0.75620E-02   -0.14883E-01  4282   0.124E-01    0.657E-01
RMM:   3    -0.413188756801E+03    0.15698E-02   -0.75828E-03  4267   0.484E-02    0.167E-01
RMM:   4    -0.413188880693E+03   -0.12389E-03   -0.11439E-03  4678   0.289E-02    0.336E-02
RMM:   5    -0.413188894489E+03   -0.13797E-04   -0.10111E-04  4852   0.104E-02    0.385E-02
RMM:   6    -0.413188835339E+03    0.59150E-04   -0.87806E-05  5115   0.979E-03    0.202E-02
RMM:   7    -0.413188813888E+03    0.21451E-04   -0.67583E-05  4618   0.822E-03    0.714E-03
RMM:   8    -0.413188808855E+03    0.50332E-05   -0.57693E-06  3202   0.341E-03    0.373E-03
RMM:   9    -0.413188807154E+03    0.17006E-05   -0.89037E-07  2398   0.156E-03    0.177E-03
RMM:  10    -0.413188796506E+03    0.10648E-04   -0.61020E-07  2145   0.111E-03    0.565E-04
RMM:  11    -0.413188791190E+03    0.53162E-05   -0.19267E-07  1506   0.737E-04    0.269E-04
RMM:  12    -0.413188788254E+03    0.29364E-05   -0.10051E-07  1263   0.651E-04    0.180E-04
RMM:  13    -0.413188780369E+03    0.78844E-05   -0.14219E-07  1471   0.706E-04    0.160E-04
RMM:  14    -0.413188775529E+03    0.48400E-05   -0.67148E-08  1061   0.579E-04    0.876E-05
RMM:  15    -0.413188773438E+03    0.20913E-05   -0.37359E-08   823   0.510E-04    0.525E-05
RMM:  16    -0.413188770260E+03    0.31783E-05   -0.38260E-08   860   0.528E-04    0.346E-05
RMM:  17    -0.413188769566E+03    0.69414E-06   -0.14809E-08   622   0.478E-04
   32 T=    66. E= -.41286681E+03 F= -.41318877E+03 E0= -.41316732E+03  EK= 0.32196E+00 SP= 0.00E+00 SK= 0.00E+00
       N       E                     dE             d eps       ncg     rms          rms(c)
RMM:   1    -0.413187773522E+03    0.99674E-03   -0.11668E+01  4283   0.930E-01    0.923E-01
RMM:   2    -0.413192508225E+03   -0.47347E-02   -0.15406E-01  4273   0.132E-01    0.653E-01
RMM:   3    -0.413190723523E+03    0.17847E-02   -0.71748E-03  4334   0.419E-02    0.174E-01
RMM:   4    -0.413193426559E+03   -0.27030E-02   -0.35736E-03  5122   0.521E-02    0.221E-01
RMM:   5    -0.413190724629E+03    0.27019E-02   -0.13266E-03  4799   0.365E-02    0.265E-02
RMM:   6    -0.413190712655E+03    0.11975E-04   -0.26984E-04  5670   0.168E-02    0.195E-02
RMM:   7    -0.413190699618E+03    0.13037E-04   -0.86065E-05  5083   0.904E-03    0.768E-03
RMM:   8    -0.413190693016E+03    0.66019E-05   -0.92610E-06  3543   0.383E-03    0.398E-03
RMM:   9    -0.413190690677E+03    0.23393E-05   -0.10335E-06  2502   0.178E-03    0.236E-03
RMM:  10    -0.413190684177E+03    0.64999E-05   -0.67742E-07  2418   0.131E-03    0.114E-03
RMM:  11    -0.413190679054E+03    0.51227E-05   -0.35504E-07  2093   0.969E-04    0.539E-04
RMM:  12    -0.413190674795E+03    0.42594E-05   -0.19295E-07  1508   0.782E-04    0.219E-04
RMM:  13    -0.413190672135E+03    0.26601E-05   -0.10787E-07  1104   0.671E-04    0.133E-04
RMM:  14    -0.413190668866E+03    0.32689E-05   -0.84071E-08  1130   0.648E-04    0.995E-05
RMM:  15    -0.413190664173E+03    0.46933E-05   -0.87491E-08  1265   0.652E-04    0.670E-05
RMM:  16    -0.413190662893E+03    0.12801E-05   -0.40467E-08   839   0.546E-04    0.527E-05
RMM:  17    -0.413190660657E+03    0.22352E-05   -0.37414E-08   866   0.550E-04    0.234E-05
RMM:  18    -0.413190659854E+03    0.80339E-06   -0.21068E-08   660   0.516E-04
   33 T=    66. E= -.41286658E+03 F= -.41319066E+03 E0= -.41316926E+03  EK= 0.32408E+00 SP= 0.00E+00 SK= 0.00E+00
       N       E                     dE             d eps       ncg     rms          rms(c)
RMM:   1    -0.413188608765E+03    0.20519E-02   -0.11764E+01  4293   0.953E-01    0.915E-01
RMM:   2    -0.413195148140E+03   -0.65394E-02   -0.15341E-01  4276   0.133E-01    0.666E-01
RMM:   3    -0.413193325313E+03    0.18228E-02   -0.72755E-03  4408   0.500E-02    0.164E-01
RMM:   4    -0.413200091807E+03   -0.67665E-02   -0.72905E-03  5150   0.750E-02    0.347E-01
RMM:   5    -0.413193328815E+03    0.67630E-02   -0.33152E-03  4810   0.570E-02    0.277E-02
RMM:   6    -0.413193316296E+03    0.12519E-04   -0.53710E-04  5776   0.235E-02    0.192E-02
RMM:   7    -0.413193315512E+03    0.78389E-06   -0.11053E-04  5338   0.103E-02    0.938E-03
RMM:   8    -0.413193308769E+03    0.67426E-05   -0.15806E-05  4055   0.464E-03    0.436E-03
RMM:   9    -0.413193307202E+03    0.15666E-05   -0.24249E-06  2701   0.224E-03    0.285E-03
RMM:  10    -0.413193304267E+03    0.29355E-05   -0.71255E-07  2439   0.142E-03    0.166E-03
RMM:  11    -0.413193300343E+03    0.39236E-05   -0.57813E-07  2385   0.119E-03    0.741E-04
RMM:  12    -0.413193297604E+03    0.27396E-05   -0.29870E-07  1794   0.879E-04    0.302E-04
RMM:  13    -0.413193296244E+03    0.13594E-05   -0.14431E-07  1218   0.698E-04    0.160E-04
RMM:  14    -0.413193294696E+03    0.15481E-05   -0.10015E-07  1072   0.658E-04    0.907E-05
RMM:  15    -0.413193292084E+03    0.26127E-05   -0.98573E-08  1177   0.668E-04    0.832E-05
RMM:  16    -0.413193291423E+03    0.66082E-06   -0.48867E-08   909   0.595E-04
   34 T=    66. E= -.41286678E+03 F= -.41319329E+03 E0= -.41317194E+03  EK= 0.32651E+00 SP= 0.00E+00 SK= 0.00E+00
       N       E                     dE             d eps       ncg     rms          rms(c)
RMM:   1    -0.413187526347E+03    0.57657E-02   -0.11836E+01  4300   0.923E-01    0.941E-01
RMM:   2    -0.413197846359E+03   -0.10320E-01   -0.15259E-01  4258   0.133E-01    0.666E-01
RMM:   3    -0.413196137840E+03    0.17085E-02   -0.74874E-03  4385   0.461E-02    0.169E-01
RMM:   4    -0.413199554002E+03   -0.34162E-02   -0.42337E-03  5160   0.552E-02    0.250E-01
RMM:   5    -0.413196082336E+03    0.34717E-02   -0.17358E-03  4814   0.414E-02    0.277E-02
RMM:   6    -0.413196070271E+03    0.12066E-04   -0.33642E-04  5709   0.184E-02    0.203E-02
RMM:   7    -0.413196058928E+03    0.11343E-04   -0.96024E-05  5146   0.949E-03    0.790E-03
RMM:   8    -0.413196052188E+03    0.67404E-05   -0.10255E-05  3551   0.386E-03    0.406E-03
RMM:   9    -0.413196049577E+03    0.26110E-05   -0.12585E-06  2541   0.185E-03    0.246E-03
RMM:  10    -0.413196042895E+03    0.66821E-05   -0.71126E-07  2432   0.135E-03    0.122E-03
RMM:  11    -0.413196037061E+03    0.58336E-05   -0.39231E-07  2163   0.101E-03    0.560E-04
RMM:  12    -0.413196032424E+03    0.46366E-05   -0.21053E-07  1546   0.799E-04    0.209E-04
RMM:  13    -0.413196029745E+03    0.26796E-05   -0.11921E-07  1183   0.685E-04    0.136E-04
RMM:  14    -0.413196026021E+03    0.37234E-05   -0.89961E-08  1157   0.659E-04    0.100E-04
RMM:  15    -0.413196020547E+03    0.54741E-05   -0.94124E-08  1378   0.669E-04    0.745E-05
RMM:  16    -0.413196019189E+03    0.13580E-05   -0.44817E-08   917   0.557E-04    0.551E-05
RMM:  17    -0.413196016338E+03    0.28515E-05   -0.43561E-08  1016   0.571E-04    0.247E-05
RMM:  18    -0.413196015682E+03    0.65563E-06   -0.20931E-08   728   0.519E-04
   35 T=    67. E= -.41286696E+03 F= -.41319602E+03 E0= -.41317471E+03  EK= 0.32905E+00 SP= 0.00E+00 SK= 0.00E+00
       N       E                     dE             d eps       ncg     rms          rms(c)
RMM:   1    -0.413194279040E+03    0.17373E-02   -0.11894E+01  4298   0.979E-01    0.940E-01
RMM:   2    -0.413199694610E+03   -0.54156E-02   -0.15469E-01  4250   0.126E-01    0.660E-01
RMM:   3    -0.413198345370E+03    0.13492E-02   -0.77359E-03  4762   0.473E-02    0.186E-01
RMM:   4    -0.413227453586E+03   -0.29108E-01   -0.29349E-02  5163   0.144E-01    0.711E-01
RMM:   5    -0.413198064079E+03    0.29390E-01   -0.14849E-02  4801   0.119E-01    0.403E-02
RMM:   6    -0.413198101121E+03   -0.37042E-04   -0.23664E-03  5853   0.458E-02    0.233E-02
RMM:   7    -0.413198109862E+03   -0.87405E-05   -0.26382E-04  5783   0.144E-02    0.142E-02
RMM:   8    -0.413198100675E+03    0.91869E-05   -0.45864E-05  4934   0.674E-03    0.882E-03
RMM:   9    -0.413198095620E+03    0.50551E-05   -0.14067E-05  4108   0.425E-03    0.580E-03
RMM:  10    -0.413198088379E+03    0.72411E-05   -0.21404E-06  2578   0.233E-03    0.337E-03
RMM:  11    -0.413198082298E+03    0.60805E-05   -0.13547E-06  2505   0.185E-03    0.187E-03
RMM:  12    -0.413198072476E+03    0.98218E-05   -0.10197E-06  2479   0.173E-03    0.730E-04
RMM:  13    -0.413198069512E+03    0.29644E-05   -0.36538E-07  2238   0.110E-03    0.512E-04
RMM:  14    -0.413198068744E+03    0.76822E-06   -0.15387E-07  1553   0.748E-04
   36 T=    67. E= -.41286668E+03 F= -.41319807E+03 E0= -.41317681E+03  EK= 0.33138E+00 SP= 0.00E+00 SK= 0.00E+00
       N       E                     dE             d eps       ncg     rms          rms(c)
RMM:   1    -0.413195529312E+03    0.25402E-02   -0.11941E+01  4304   0.995E-01    0.923E-01
RMM:   2    -0.413203384703E+03   -0.78554E-02   -0.15955E-01  4251   0.136E-01    0.671E-01
RMM:   3    -0.413201391888E+03    0.19928E-02   -0.74402E-03  4699   0.516E-02    0.182E-01
RMM:   4    -0.413228263382E+03   -0.26871E-01   -0.27119E-02  5159   0.139E-01    0.685E-01
RMM:   5    -0.413201078502E+03    0.27185E-01   -0.13711E-02  4803   0.114E-01    0.386E-02
RMM:   6    -0.413201110018E+03   -0.31516E-04   -0.21746E-03  5853   0.439E-02    0.224E-02
RMM:   7    -0.413201122802E+03   -0.12784E-04   -0.26254E-04  5804   0.141E-02    0.143E-02
RMM:   8    -0.413201114535E+03    0.82670E-05   -0.46344E-05  4959   0.682E-03    0.836E-03
RMM:   9    -0.413201110822E+03    0.37125E-05   -0.11733E-05  3874   0.401E-03    0.496E-03
RMM:  10    -0.413201106097E+03    0.47255E-05   -0.20374E-06  2568   0.216E-03    0.299E-03
RMM:  11    -0.413201101356E+03    0.47401E-05   -0.12585E-06  2506   0.175E-03    0.154E-03
RMM:  12    -0.413201095300E+03    0.60568E-05   -0.82587E-07  2444   0.150E-03    0.570E-04
RMM:  13    -0.413201093485E+03    0.18145E-05   -0.31629E-07  2098   0.992E-04    0.403E-04
RMM:  14    -0.413201092603E+03    0.88255E-06   -0.14656E-07  1418   0.721E-04
   37 T=    68. E= -.41286694E+03 F= -.41320109E+03 E0= -.41317987E+03  EK= 0.33415E+00 SP= 0.00E+00 SK= 0.00E+00
       N       E                     dE             d eps       ncg     rms          rms(c)
RMM:   1    -0.413195753384E+03    0.53401E-02   -0.12058E+01  4307   0.101E+00    0.944E-01
RMM:   2    -0.413206083117E+03   -0.10330E-01   -0.15868E-01  4254   0.128E-01    0.676E-01
RMM:   3    -0.413203938671E+03    0.21444E-02   -0.78249E-03  4757   0.510E-02    0.188E-01
RMM:   4    -0.413236252464E+03   -0.32314E-01   -0.32679E-02  5153   0.151E-01    0.749E-01
RMM:   5    -0.413203540434E+03    0.32712E-01   -0.16638E-02  4804   0.125E-01    0.413E-02
RMM:   6    -0.413203586727E+03   -0.46293E-04   -0.25232E-03  5842   0.477E-02    0.236E-02
RMM:   7    -0.413203599887E+03   -0.13160E-04   -0.30072E-04  5828   0.152E-02    0.150E-02
RMM:   8    -0.413203590889E+03    0.89976E-05   -0.51608E-05  5017   0.710E-03    0.899E-03
RMM:   9    -0.413203586356E+03    0.45332E-05   -0.14329E-05  4090   0.427E-03    0.542E-03
RMM:  10    -0.413203580221E+03    0.61350E-05   -0.23162E-06  2586   0.228E-03    0.320E-03
RMM:  11    -0.413203574859E+03    0.53621E-05   -0.13014E-06  2500   0.181E-03    0.173E-03
RMM:  12    -0.413203566983E+03    0.78755E-05   -0.90103E-07  2467   0.160E-03    0.629E-04
RMM:  13    -0.413203564341E+03    0.26424E-05   -0.35173E-07  2188   0.106E-03    0.449E-04
RMM:  14    -0.413203563492E+03    0.84918E-06   -0.15999E-07  1546   0.749E-04
   38 T=    69. E= -.41286687E+03 F= -.41320356E+03 E0= -.41318239E+03  EK= 0.33669E+00 SP= 0.00E+00 SK= 0.00E+00
       N       E                     dE             d eps       ncg     rms          rms(c)
RMM:   1    -0.413203892759E+03   -0.32842E-03   -0.12156E+01  4304   0.108E+00    0.957E-01
RMM:   2    -0.413207912098E+03   -0.40193E-02   -0.16206E-01  4260   0.126E-01    0.670E-01
RMM:   3    -0.413206830710E+03    0.10814E-02   -0.83976E-03  5009   0.538E-02    0.221E-01
RMM:   4    -0.413257222281E+03   -0.50392E-01   -0.54078E-02  5140   0.193E-01    0.931E-01
RMM:   5    -0.413205793879E+03    0.51428E-01   -0.25489E-02  4787   0.157E-01    0.518E-02
RMM:   6    -0.413205929640E+03   -0.13576E-03   -0.40707E-03  5831   0.600E-02    0.269E-02
RMM:   7    -0.413205947423E+03   -0.17783E-04   -0.42427E-04  5811   0.176E-02    0.165E-02
RMM:   8    -0.413205941973E+03    0.54499E-05   -0.61347E-05  5006   0.714E-03    0.100E-02
RMM:   9    -0.413205932609E+03    0.93643E-05   -0.21743E-05  4478   0.483E-03    0.651E-03
RMM:  10    -0.413205925744E+03    0.68643E-05   -0.47306E-06  2860   0.296E-03    0.353E-03
RMM:  11    -0.413205919056E+03    0.66884E-05   -0.18126E-06  2539   0.213E-03    0.209E-03
RMM:  12    -0.413205908893E+03    0.10163E-04   -0.98755E-07  2481   0.174E-03    0.632E-04
RMM:  13    -0.413205904983E+03    0.39099E-05   -0.41719E-07  2315   0.116E-03    0.452E-04
RMM:  14    -0.413205902683E+03    0.23003E-05   -0.18584E-07  1818   0.811E-04    0.296E-04
RMM:  15    -0.413205896051E+03    0.66320E-05   -0.12375E-07  1519   0.726E-04    0.204E-04
RMM:  16    -0.413205894706E+03    0.13443E-05   -0.58611E-08  1014   0.599E-04    0.104E-04
RMM:  17    -0.413205891478E+03    0.32288E-05   -0.49604E-08  1030   0.603E-04    0.697E-05
RMM:  18    -0.413205887043E+03    0.44348E-05   -0.56076E-08  1277   0.631E-04    0.489E-05
RMM:  19    -0.413205885812E+03    0.12305E-05   -0.26348E-08   915   0.553E-04    0.356E-05
RMM:  20    -0.413205885270E+03    0.54236E-06   -0.15426E-08   765   0.529E-04
   39 T=    69. E= -.41286671E+03 F= -.41320589E+03 E0= -.41318475E+03  EK= 0.33918E+00 SP= 0.00E+00 SK= 0.00E+00
       N       E                     dE             d eps       ncg     rms          rms(c)
RMM:   1    -0.413202725512E+03    0.31603E-02   -0.12126E+01  4308   0.110E+00    0.935E-01
RMM:   2    -0.413211400280E+03   -0.86748E-02   -0.16326E-01  4258   0.130E-01    0.675E-01
RMM:   3    -0.413210210366E+03    0.11899E-02   -0.83337E-03  5023   0.563E-02    0.232E-01
RMM:   4    -0.413263895476E+03   -0.53685E-01   -0.59398E-02  5134   0.202E-01    0.962E-01
RMM:   5    -0.413208786878E+03    0.55109E-01   -0.27043E-02  4782   0.162E-01    0.532E-02
RMM:   6    -0.413208935210E+03   -0.14833E-03   -0.42935E-03  5819   0.616E-02    0.267E-02
RMM:   7    -0.413208956369E+03   -0.21159E-04   -0.46787E-04  5895   0.185E-02    0.178E-02
RMM:   8    -0.413208956823E+03   -0.45367E-06   -0.84884E-05  5236   0.842E-03    0.121E-02
RMM:   9    -0.413208946524E+03    0.10299E-04   -0.21102E-05  4453   0.507E-03    0.612E-03
RMM:  10    -0.413208941653E+03    0.48706E-05   -0.43940E-06  2737   0.283E-03    0.342E-03
RMM:  11    -0.413208937765E+03    0.38886E-05   -0.16214E-06  2506   0.205E-03    0.196E-03
RMM:  12    -0.413208932157E+03    0.56076E-05   -0.92755E-07  2475   0.166E-03    0.661E-04
RMM:  13    -0.413208929500E+03    0.26574E-05   -0.41755E-07  2295   0.114E-03    0.387E-04
RMM:  14    -0.413208927713E+03    0.17867E-05   -0.20507E-07  1806   0.817E-04    0.252E-04
RMM:  15    -0.413208923367E+03    0.43461E-05   -0.14263E-07  1451   0.730E-04    0.194E-04
RMM:  16    -0.413208922665E+03    0.70197E-06   -0.71247E-08  1038   0.612E-04
   40 T=    70. E= -.41286706E+03 F= -.41320892E+03 E0= -.41318782E+03  EK= 0.34186E+00 SP= 0.00E+00 SK= 0.00E+00
       N       E                     dE             d eps       ncg     rms          rms(c)
RMM:   1    -0.413225395535E+03   -0.16472E-01   -0.12479E+01  4304   0.126E+00    0.947E-01
RMM:   2    -0.413213132011E+03    0.12264E-01   -0.17573E-01  4269   0.140E-01    0.687E-01
RMM:   3    -0.413212419969E+03    0.71204E-03   -0.88082E-03  5049   0.601E-02    0.258E-01
RMM:   4    -0.413267813372E+03   -0.55393E-01   -0.63466E-02  5126   0.209E-01    0.981E-01
RMM:   5    -0.413210514089E+03    0.57299E-01   -0.27761E-02  4775   0.165E-01    0.559E-02
RMM:   6    -0.413210669295E+03   -0.15521E-03   -0.44354E-03  5814   0.628E-02    0.270E-02
RMM:   7    -0.413210691649E+03   -0.22354E-04   -0.49590E-04  5922   0.190E-02    0.189E-02
RMM:   8    -0.413210691605E+03    0.43521E-07   -0.91367E-05  5272   0.885E-03    0.123E-02
RMM:   9    -0.413210680598E+03    0.11008E-04   -0.20088E-05  4379   0.511E-03    0.564E-03
RMM:  10    -0.413210675619E+03    0.49786E-05   -0.47423E-06  2781   0.284E-03    0.320E-03
RMM:  11    -0.413210671633E+03    0.39864E-05   -0.15138E-06  2505   0.198E-03    0.179E-03
RMM:  12    -0.413210666197E+03    0.54356E-05   -0.81606E-07  2466   0.155E-03    0.656E-04
RMM:  13    -0.413210663258E+03    0.29389E-05   -0.38598E-07  2238   0.108E-03    0.336E-04
RMM:  14    -0.413210660796E+03    0.24623E-05   -0.20280E-07  1695   0.803E-04    0.215E-04
RMM:  15    -0.413210656822E+03    0.39743E-05   -0.13674E-07  1325   0.708E-04    0.128E-04
RMM:  16    -0.413210655588E+03    0.12338E-05   -0.78568E-08  1088   0.634E-04    0.672E-05
RMM:  17    -0.413210653506E+03    0.20821E-05   -0.64342E-08  1085   0.625E-04    0.550E-05
RMM:  18    -0.413210650627E+03    0.28788E-05   -0.59794E-08  1150   0.627E-04    0.343E-05
RMM:  19    -0.413210649622E+03    0.10046E-05   -0.32048E-08   898   0.578E-04    0.269E-05
RMM:  20    -0.413210649001E+03    0.62181E-06   -0.22646E-08   829   0.562E-04
   41 T=    70. E= -.41286660E+03 F= -.41321065E+03 E0= -.41318958E+03  EK= 0.34405E+00 SP= 0.00E+00 SK= 0.00E+00
       N       E                     dE             d eps       ncg     rms          rms(c)
RMM:   1    -0.413238217220E+03   -0.27568E-01   -0.12639E+01  4311   0.133E+00    0.972E-01
RMM:   2    -0.413215125672E+03    0.23092E-01   -0.18113E-01  4284   0.146E-01    0.680E-01
RMM:   3    -0.413216837732E+03   -0.17121E-02   -0.10778E-02  5109   0.724E-02    0.324E-01
RMM:   4    -0.413254223827E+03   -0.37386E-01   -0.52780E-02  5094   0.193E-01    0.841E-01
RMM:   5    -0.413213216947E+03    0.41007E-01   -0.18663E-02  4739   0.141E-01    0.549E-02
RMM:   6    -0.413213272689E+03   -0.55741E-04   -0.30680E-03  5755   0.528E-02    0.263E-02
RMM:   7    -0.413213283814E+03   -0.11125E-04   -0.38624E-04  5882   0.172E-02    0.188E-02
RMM:   8    -0.413213279331E+03    0.44828E-05   -0.81897E-05  5183   0.871E-03    0.109E-02
RMM:   9    -0.413213265556E+03    0.13775E-04   -0.16845E-05  4144   0.496E-03    0.422E-03
RMM:  10    -0.413213259500E+03    0.60562E-05   -0.36234E-06  2706   0.248E-03    0.252E-03
RMM:  11    -0.413213252871E+03    0.66284E-05   -0.11902E-06  2502   0.175E-03    0.130E-03
RMM:  12    -0.413213246233E+03    0.66382E-05   -0.55133E-07  2388   0.129E-03    0.557E-04
RMM:  13    -0.413213241911E+03    0.43215E-05   -0.28670E-07  1862   0.917E-04    0.248E-04
RMM:  14    -0.413213237979E+03    0.39321E-05   -0.17164E-07  1408   0.755E-04    0.142E-04
RMM:  15    -0.413213231806E+03    0.61736E-05   -0.14089E-07  1420   0.728E-04    0.102E-04
RMM:  16    -0.413213229884E+03    0.19221E-05   -0.87629E-08  1187   0.647E-04    0.710E-05
RMM:  17    -0.413213225557E+03    0.43266E-05   -0.83481E-08  1362   0.655E-04    0.597E-05
RMM:  18    -0.413213223255E+03    0.23022E-05   -0.51319E-08  1067   0.585E-04    0.417E-05
RMM:  19    -0.413213222745E+03    0.50987E-06   -0.31424E-08   843   0.539E-04
   42 T=    71. E= -.41286681E+03 F= -.41321322E+03 E0= -.41319219E+03  EK= 0.34642E+00 SP= 0.00E+00 SK= 0.00E+00
       N       E                     dE             d eps       ncg     rms          rms(c)
RMM:   1    -0.413216472663E+03   -0.32494E-02   -0.12358E+01  4312   0.131E+00    0.947E-01
RMM:   2    -0.413217196770E+03   -0.72411E-03   -0.17002E-01  4288   0.151E-01    0.679E-01
RMM:   3    -0.413219768549E+03   -0.25718E-02   -0.11359E-02  5096   0.787E-02    0.342E-01
RMM:   4    -0.413252767859E+03   -0.32999E-01   -0.51012E-02  5080   0.190E-01    0.804E-01
RMM:   5    -0.413215287163E+03    0.37481E-01   -0.16583E-02  4719   0.135E-01    0.531E-02
RMM:   6    -0.413215329391E+03   -0.42228E-04   -0.27715E-03  5752   0.502E-02    0.254E-02
RMM:   7    -0.413215337128E+03   -0.77371E-05   -0.34314E-04  5851   0.165E-02    0.183E-02
RMM:   8    -0.413215333741E+03    0.33864E-05   -0.76082E-05  5161   0.848E-03    0.102E-02
RMM:   9    -0.413215322297E+03    0.11444E-04   -0.16131E-05  4091   0.487E-03    0.397E-03
RMM:  10    -0.413215317976E+03    0.43204E-05   -0.32954E-06  2686   0.239E-03    0.235E-03
RMM:  11    -0.413215312808E+03    0.51679E-05   -0.11989E-06  2504   0.174E-03    0.123E-03
RMM:  12    -0.413215308062E+03    0.47467E-05   -0.53985E-07  2384   0.127E-03    0.526E-04
RMM:  13    -0.413215304898E+03    0.31635E-05   -0.28142E-07  1754   0.892E-04    0.240E-04
RMM:  14    -0.413215301986E+03    0.29118E-05   -0.17445E-07  1372   0.751E-04    0.133E-04
RMM:  15    -0.413215297154E+03    0.48328E-05   -0.14885E-07  1364   0.725E-04    0.952E-05
RMM:  16    -0.413215295658E+03    0.14961E-05   -0.89048E-08  1150   0.647E-04    0.662E-05
RMM:  17    -0.413215292401E+03    0.32567E-05   -0.82246E-08  1302   0.651E-04    0.590E-05
RMM:  18    -0.413215290326E+03    0.20746E-05   -0.56015E-08  1107   0.590E-04    0.413E-05
RMM:  19    -0.413215289698E+03    0.62875E-06   -0.31146E-08   837   0.540E-04
   43 T=    71. E= -.41286685E+03 F= -.41321529E+03 E0= -.41319429E+03  EK= 0.34844E+00 SP= 0.00E+00 SK= 0.00E+00
       N       E                     dE             d eps       ncg     rms          rms(c)
RMM:   1    -0.413263041039E+03   -0.47751E-01   -0.12933E+01  4311   0.156E+00    0.948E-01
RMM:   2    -0.413218695569E+03    0.44345E-01   -0.20775E-01  4289   0.172E-01    0.698E-01
RMM:   3    -0.413222237079E+03   -0.35415E-02   -0.12086E-02  5094   0.875E-02    0.400E-01
RMM:   4    -0.413252893866E+03   -0.30657E-01   -0.52792E-02  5063   0.195E-01    0.800E-01
RMM:   5    -0.413216427465E+03    0.36466E-01   -0.16231E-02  4708   0.135E-01    0.571E-02
RMM:   6    -0.413216440662E+03   -0.13197E-04   -0.26860E-03  5701   0.497E-02    0.260E-02
RMM:   7    -0.413216448754E+03   -0.80926E-05   -0.34456E-04  5899   0.167E-02    0.192E-02
RMM:   8    -0.413216444887E+03    0.38672E-05   -0.73957E-05  5183   0.844E-03    0.104E-02
RMM:   9    -0.413216434925E+03    0.99617E-05   -0.18354E-05  4187   0.521E-03    0.420E-03
RMM:  10    -0.413216431734E+03    0.31916E-05   -0.34991E-06  2712   0.243E-03    0.243E-03
RMM:  11    -0.413216427821E+03    0.39130E-05   -0.16493E-06  2551   0.192E-03    0.135E-03
RMM:  12    -0.413216424907E+03    0.29135E-05   -0.57599E-07  2449   0.134E-03    0.638E-04
RMM:  13    -0.413216422327E+03    0.25808E-05   -0.32019E-07  1692   0.913E-04    0.307E-04
RMM:  14    -0.413216419988E+03    0.23384E-05   -0.20934E-07  1420   0.783E-04    0.159E-04
RMM:  15    -0.413216417241E+03    0.27468E-05   -0.15967E-07  1370   0.728E-04    0.879E-05
RMM:  16    -0.413216415231E+03    0.20103E-05   -0.11025E-07  1217   0.667E-04    0.565E-05
RMM:  17    -0.413216413346E+03    0.18848E-05   -0.84379E-08  1198   0.634E-04    0.477E-05
RMM:  18    -0.413216411360E+03    0.19865E-05   -0.63790E-08  1087   0.595E-04    0.345E-05
RMM:  19    -0.413216410702E+03    0.65721E-06   -0.37231E-08   857   0.549E-04
   44 T=    71. E= -.41286653E+03 F= -.41321641E+03 E0= -.41319543E+03  EK= 0.34988E+00 SP= 0.00E+00 SK= 0.00E+00
       N       E                     dE             d eps       ncg     rms          rms(c)
RMM:   1    -0.413240734819E+03   -0.24323E-01   -0.12729E+01  4310   0.155E+00    0.978E-01
RMM:   2    -0.413219549334E+03    0.21185E-01   -0.17557E-01  4332   0.177E-01    0.687E-01
RMM:   3    -0.413229611343E+03   -0.10062E-01   -0.18345E-02  5132   0.113E-01    0.496E-01
RMM:   4    -0.413236396298E+03   -0.67850E-02   -0.39624E-02  5017   0.173E-01    0.578E-01
RMM:   5    -0.413218197888E+03    0.18198E-01   -0.69013E-03  4603   0.989E-02    0.481E-02
RMM:   6    -0.413218158892E+03    0.38996E-04   -0.12926E-03  5473   0.350E-02    0.241E-02
RMM:   7    -0.413218156779E+03    0.21136E-05   -0.17542E-04  5650   0.129E-02    0.171E-02
RMM:   8    -0.413218148996E+03    0.77833E-05   -0.69106E-05  5080   0.846E-03    0.868E-03
RMM:   9    -0.413218134784E+03    0.14212E-04   -0.13387E-05  4000   0.482E-03    0.353E-03
RMM:  10    -0.413218130863E+03    0.39208E-05   -0.20443E-06  2617   0.206E-03    0.196E-03
RMM:  11    -0.413218123375E+03    0.74880E-05   -0.11183E-06  2491   0.166E-03    0.114E-03
RMM:  12    -0.413218117905E+03    0.54696E-05   -0.45813E-07  2375   0.119E-03    0.533E-04
RMM:  13    -0.413218114094E+03    0.38113E-05   -0.22188E-07  1617   0.811E-04    0.254E-04
RMM:  14    -0.413218110461E+03    0.36330E-05   -0.13427E-07  1225   0.683E-04    0.136E-04
RMM:  15    -0.413218104539E+03    0.59219E-05   -0.12240E-07  1291   0.688E-04    0.115E-04
RMM:  16    -0.413218102292E+03    0.22474E-05   -0.69901E-08  1055   0.616E-04    0.101E-04
RMM:  17    -0.413218099439E+03    0.28525E-05   -0.58881E-08  1116   0.598E-04    0.561E-05
RMM:  18    -0.413218095895E+03    0.35440E-05   -0.53333E-08  1142   0.593E-04    0.518E-05
RMM:  19    -0.413218095475E+03    0.41980E-06   -0.22490E-08   733   0.513E-04
   45 T=    71. E= -.41286690E+03 F= -.41321810E+03 E0= -.41319714E+03  EK= 0.35120E+00 SP= 0.00E+00 SK= 0.00E+00
       N       E                     dE             d eps       ncg     rms          rms(c)
RMM:   1    -0.413233083470E+03   -0.14988E-01   -0.12549E+01  4307   0.161E+00    0.959E-01
RMM:   2    -0.413219779561E+03    0.13304E-01   -0.18242E-01  4361   0.188E-01    0.685E-01
RMM:   3    -0.413232097451E+03   -0.12318E-01   -0.19993E-02  5131   0.121E-01    0.541E-01
RMM:   4    -0.413234149380E+03   -0.20519E-02   -0.39092E-02  5011   0.173E-01    0.545E-01
RMM:   5    -0.413218414827E+03    0.15735E-01   -0.60589E-03  4566   0.958E-02    0.485E-02
RMM:   6    -0.413218359948E+03    0.54878E-04   -0.10791E-03  5295   0.327E-02    0.237E-02
RMM:   7    -0.413218357604E+03    0.23442E-05   -0.14680E-04  5680   0.118E-02    0.162E-02
RMM:   8    -0.413218353649E+03    0.39550E-05   -0.77550E-05  5161   0.886E-03    0.955E-03
RMM:   9    -0.413218338887E+03    0.14762E-04   -0.16717E-05  4275   0.532E-03    0.378E-03
RMM:  10    -0.413218335752E+03    0.31350E-05   -0.24793E-06  2673   0.215E-03    0.209E-03
RMM:  11    -0.413218329524E+03    0.62278E-05   -0.12427E-06  2485   0.179E-03    0.123E-03
RMM:  12    -0.413218325163E+03    0.43609E-05   -0.48535E-07  2408   0.126E-03    0.627E-04
RMM:  13    -0.413218321499E+03    0.36640E-05   -0.22639E-07  1662   0.843E-04    0.297E-04
RMM:  14    -0.413218318019E+03    0.34806E-05   -0.12747E-07  1254   0.695E-04    0.148E-04
RMM:  15    -0.413218313383E+03    0.46359E-05   -0.10815E-07  1247   0.675E-04    0.115E-04
RMM:  16    -0.413218311373E+03    0.20101E-05   -0.59522E-08   980   0.590E-04    0.993E-05
RMM:  17    -0.413218308467E+03    0.29056E-05   -0.49743E-08   981   0.582E-04    0.561E-05
RMM:  18    -0.413218305573E+03    0.28946E-05   -0.46617E-08  1015   0.579E-04    0.418E-05
RMM:  19    -0.413218305081E+03    0.49174E-06   -0.18766E-08   692   0.513E-04
   46 T=    72. E= -.41286681E+03 F= -.41321831E+03 E0= -.41319737E+03  EK= 0.35149E+00 SP= 0.00E+00 SK= 0.00E+00
       N       E                     dE             d eps       ncg     rms          rms(c)
RMM:   1    -0.413248965986E+03   -0.30660E-01   -0.12739E+01  4311   0.175E+00    0.947E-01
RMM:   2    -0.413219954848E+03    0.29011E-01   -0.20504E-01  4349   0.211E-01    0.700E-01
RMM:   3    -0.413232137390E+03   -0.12183E-01   -0.19935E-02  5132   0.124E-01    0.561E-01
RMM:   4    -0.413235577958E+03   -0.34406E-02   -0.41919E-02  5012   0.179E-01    0.578E-01
RMM:   5    -0.413217970267E+03    0.17608E-01   -0.71482E-03  4570   0.103E-01    0.522E-02
RMM:   6    -0.413217907105E+03    0.63162E-04   -0.12429E-03  5337   0.352E-02    0.250E-02
RMM:   7    -0.413217904163E+03    0.29412E-05   -0.17372E-04  5719   0.127E-02    0.181E-02
RMM:   8    -0.413217897720E+03    0.64429E-05   -0.75438E-05  5175   0.871E-03    0.966E-03
RMM:   9    -0.413217884614E+03    0.13106E-04   -0.17718E-05  4250   0.542E-03    0.399E-03
RMM:  10    -0.413217882177E+03    0.24374E-05   -0.25574E-06  2648   0.220E-03    0.221E-03
RMM:  11    -0.413217878092E+03    0.40846E-05   -0.14968E-06  2521   0.188E-03    0.138E-03
RMM:  12    -0.413217875188E+03    0.29044E-05   -0.52336E-07  2433   0.132E-03    0.680E-04
RMM:  13    -0.413217872370E+03    0.28173E-05   -0.26776E-07  1712   0.883E-04    0.298E-04
RMM:  14    -0.413217869975E+03    0.23949E-05   -0.16620E-07  1376   0.736E-04    0.156E-04
RMM:  15    -0.413217866866E+03    0.31099E-05   -0.14035E-07  1328   0.700E-04    0.103E-04
RMM:  16    -0.413217865094E+03    0.17716E-05   -0.82504E-08  1057   0.615E-04    0.797E-05
RMM:  17    -0.413217862962E+03    0.21323E-05   -0.70819E-08  1107   0.605E-04    0.477E-05
RMM:  18    -0.413217861522E+03    0.14397E-05   -0.47414E-08   926   0.565E-04    0.319E-05
RMM:  19    -0.413217861123E+03    0.39860E-06   -0.24884E-08   721   0.524E-04
   47 T=    71. E= -.41286690E+03 F= -.41321786E+03 E0= -.41319695E+03  EK= 0.35096E+00 SP= 0.00E+00 SK= 0.00E+00
       N       E                     dE             d eps       ncg     rms          rms(c)
RMM:   1    -0.413281164226E+03   -0.63303E-01   -0.13031E+01  4306   0.197E+00    0.973E-01
RMM:   2    -0.413218366885E+03    0.62797E-01   -0.21068E-01  4453   0.213E-01    0.695E-01
RMM:   3    -0.413238368064E+03   -0.20001E-01   -0.27044E-02  5143   0.146E-01    0.669E-01
RMM:   4    -0.413227272077E+03    0.11096E-01   -0.38475E-02  4970   0.175E-01    0.468E-01
RMM:   5    -0.413216932307E+03    0.10340E-01   -0.49383E-03  4520   0.911E-02    0.551E-02
RMM:   6    -0.413216799432E+03    0.13287E-03   -0.55598E-04  4818   0.287E-02    0.259E-02
RMM:   7    -0.413216796755E+03    0.26769E-05   -0.16475E-04  5959   0.129E-02    0.160E-02
RMM:   8    -0.413216786190E+03    0.10564E-04   -0.78991E-05  5178   0.957E-03    0.115E-02
RMM:   9    -0.413216772982E+03    0.13209E-04   -0.16268E-05  4191   0.515E-03    0.497E-03
RMM:  10    -0.413216768544E+03    0.44379E-05   -0.30552E-06  2641   0.270E-03    0.234E-03
RMM:  11    -0.413216763443E+03    0.51005E-05   -0.22794E-06  2575   0.230E-03    0.159E-03
RMM:  12    -0.413216758676E+03    0.47671E-05   -0.79263E-07  2410   0.161E-03    0.906E-04
RMM:  13    -0.413216754710E+03    0.39662E-05   -0.35590E-07  2165   0.105E-03    0.541E-04
RMM:  14    -0.413216749726E+03    0.49842E-05   -0.19775E-07  1626   0.790E-04    0.252E-04
RMM:  15    -0.413216745349E+03    0.43768E-05   -0.13755E-07  1415   0.689E-04    0.201E-04
RMM:  16    -0.413216743325E+03    0.20241E-05   -0.69802E-08   986   0.577E-04    0.122E-04
RMM:  17    -0.413216740335E+03    0.29896E-05   -0.67400E-08  1034   0.586E-04    0.608E-05
RMM:  18    -0.413216738666E+03    0.16688E-05   -0.40109E-08   890   0.563E-04    0.513E-05
RMM:  19    -0.413216737781E+03    0.88532E-06   -0.23375E-08   739   0.537E-04
   48 T=    71. E= -.41286733E+03 F= -.41321674E+03 E0= -.41319584E+03  EK= 0.34941E+00 SP= 0.00E+00 SK= 0.00E+00
       N       E                     dE             d eps       ncg     rms          rms(c)
RMM:   1    -0.413280701261E+03   -0.63963E-01   -0.12862E+01  4305   0.209E+00    0.964E-01
RMM:   2    -0.413214778019E+03    0.65923E-01   -0.21156E-01  4468   0.227E-01    0.685E-01
RMM:   3    -0.413240292668E+03   -0.25515E-01   -0.31939E-02  5152   0.160E-01    0.739E-01
RMM:   4    -0.413220738407E+03    0.19554E-01   -0.37747E-02  4948   0.176E-01    0.415E-01
RMM:   5    -0.413213426094E+03    0.73123E-02   -0.48334E-03  4632   0.909E-02    0.638E-02
RMM:   6    -0.413213217103E+03    0.20899E-03   -0.46972E-04  4665   0.297E-02    0.294E-02
RMM:   7    -0.413213215641E+03    0.14624E-05   -0.17261E-04  5833   0.137E-02    0.202E-02
RMM:   8    -0.413213194840E+03    0.20801E-04   -0.57029E-05  5014   0.829E-03    0.954E-03
RMM:   9    -0.413213182907E+03    0.11933E-04   -0.13942E-05  3779   0.458E-03    0.443E-03
RMM:  10    -0.413213177610E+03    0.52971E-05   -0.22900E-06  2606   0.235E-03    0.242E-03
RMM:  11    -0.413213170937E+03    0.66732E-05   -0.12124E-06  2494   0.178E-03    0.160E-03
RMM:  12    -0.413213166679E+03    0.42581E-05   -0.44597E-07  2397   0.121E-03    0.782E-04
RMM:  13    -0.413213161432E+03    0.52471E-05   -0.28210E-07  1691   0.875E-04    0.373E-04
RMM:  14    -0.413213156541E+03    0.48909E-05   -0.21976E-07  1794   0.794E-04    0.359E-04
RMM:  15    -0.413213152373E+03    0.41677E-05   -0.14173E-07  1210   0.656E-04    0.162E-04
RMM:  16    -0.413213149546E+03    0.28271E-05   -0.94883E-08  1163   0.622E-04    0.943E-05
RMM:  17    -0.413213147323E+03    0.22230E-05   -0.67490E-08  1071   0.592E-04    0.517E-05
RMM:  18    -0.413213145522E+03    0.18016E-05   -0.50684E-08  1016   0.580E-04    0.554E-05
RMM:  19    -0.413213144847E+03    0.67473E-06   -0.28855E-08   830   0.539E-04
   49 T=    70. E= -.41286705E+03 F= -.41321314E+03 E0= -.41319226E+03  EK= 0.34609E+00 SP= 0.00E+00 SK= 0.00E+00
       N       E                     dE             d eps       ncg     rms          rms(c)
RMM:   1    -0.413241261094E+03   -0.28116E-01   -0.12347E+01  4304   0.206E+00    0.933E-01
RMM:   2    -0.413210962223E+03    0.30299E-01   -0.21169E-01  4468   0.235E-01    0.692E-01
RMM:   3    -0.413234874338E+03   -0.23912E-01   -0.30419E-02  5156   0.159E-01    0.732E-01
RMM:   4    -0.413217343543E+03    0.17531E-01   -0.38640E-02  4951   0.178E-01    0.435E-01
RMM:   5    -0.413209021262E+03    0.83223E-02   -0.54192E-03  4626   0.952E-02    0.665E-02
RMM:   6    -0.413208795336E+03    0.22593E-03   -0.52616E-04  4680   0.312E-02    0.301E-02
RMM:   7    -0.413208794508E+03    0.82860E-06   -0.18889E-04  5854   0.142E-02    0.204E-02
RMM:   8    -0.413208774562E+03    0.19946E-04   -0.60992E-05  5082   0.842E-03    0.101E-02
RMM:   9    -0.413208764497E+03    0.10065E-04   -0.16144E-05  3976   0.491E-03    0.466E-03
RMM:  10    -0.413208760093E+03    0.44041E-05   -0.28168E-06  2633   0.254E-03    0.255E-03
RMM:  11    -0.413208755650E+03    0.44430E-05   -0.14023E-06  2503   0.192E-03    0.172E-03
RMM:  12    -0.413208752551E+03    0.30987E-05   -0.51519E-07  2433   0.130E-03    0.864E-04
RMM:  13    -0.413208748928E+03    0.36235E-05   -0.32167E-07  1819   0.921E-04    0.410E-04
RMM:  14    -0.413208745442E+03    0.34862E-05   -0.26415E-07  1850   0.827E-04    0.393E-04
RMM:  15    -0.413208742745E+03    0.26970E-05   -0.16674E-07  1227   0.667E-04    0.168E-04
RMM:  16    -0.413208740972E+03    0.17725E-05   -0.11592E-07  1181   0.631E-04    0.953E-05
RMM:  17    -0.413208739735E+03    0.12373E-05   -0.78775E-08  1093   0.598E-04    0.573E-05
RMM:  18    -0.413208738769E+03    0.96559E-06   -0.59929E-08  1031   0.580E-04
   50 T=    69. E= -.41286739E+03 F= -.41320874E+03 E0= -.41318786E+03  EK= 0.34135E+00 SP= 0.00E+00 SK= 0.00E+00
       N       E                     dE             d eps       ncg     rms          rms(c)
RMM:   1    -0.413238847286E+03   -0.30108E-01   -0.12200E+01  4300   0.220E+00    0.946E-01
RMM:   2    -0.413203846241E+03    0.35001E-01   -0.20938E-01  4529   0.249E-01    0.687E-01
RMM:   3    -0.413236478514E+03   -0.32632E-01   -0.38874E-02  5166   0.180E-01    0.829E-01
RMM:   4    -0.413207315751E+03    0.29163E-01   -0.39479E-02  4923   0.184E-01    0.376E-01
RMM:   5    -0.413202150732E+03    0.51650E-02   -0.62802E-03  4978   0.100E-01    0.848E-02
RMM:   6    -0.413201742160E+03    0.40857E-03   -0.74914E-04  4685   0.379E-02    0.349E-02
RMM:   7    -0.413201734497E+03    0.76625E-05   -0.20777E-04  5713   0.157E-02    0.226E-02
RMM:   8    -0.413201713390E+03    0.21108E-04   -0.50500E-05  5048   0.788E-03    0.105E-02
RMM:   9    -0.413201701674E+03    0.11715E-04   -0.16325E-05  3737   0.476E-03    0.446E-03
RMM:  10    -0.413201695547E+03    0.61270E-05   -0.32185E-06  2695   0.268E-03    0.283E-03
RMM:  11    -0.413201689065E+03    0.64825E-05   -0.12361E-06  2501   0.186E-03    0.149E-03
RMM:  12    -0.413201685501E+03    0.35632E-05   -0.52192E-07  2436   0.123E-03    0.724E-04
RMM:  13    -0.413201680370E+03    0.51314E-05   -0.43587E-07  2071   0.101E-03    0.518E-04
RMM:  14    -0.413201677163E+03    0.32071E-05   -0.24747E-07  1455   0.799E-04    0.284E-04
[...]
RMM:   4    -0.413553211668E+03    0.34186E-01   -0.96490E-02  5210   0.368E-01    0.555E-01
RMM:   5    -0.413546890957E+03    0.63207E-02   -0.52047E-02  4924   0.289E-01    0.225E-01
RMM:   6    -0.413544296405E+03    0.25946E-02   -0.13880E-02  5122   0.148E-01    0.121E-01
RMM:   7    -0.413543661990E+03    0.63441E-03   -0.14294E-03  4551   0.576E-02    0.504E-02
RMM:   8    -0.413543634396E+03    0.27594E-04   -0.44893E-04  5354   0.271E-02    0.267E-02
RMM:   9    -0.413543646044E+03   -0.11648E-04   -0.16524E-04  5787   0.147E-02    0.180E-02
RMM:  10    -0.413543642807E+03    0.32369E-05   -0.43438E-05  5343   0.814E-03    0.836E-03
RMM:  11    -0.413543644479E+03   -0.16721E-05   -0.23603E-05  4941   0.539E-03    0.514E-03
RMM:  12    -0.413543645349E+03   -0.87006E-06   -0.30736E-06  2789   0.276E-03
  139 T=   136. E= -.41287775E+03 F= -.41354365E+03 E0= -.41352121E+03  EK= 0.66589E+00 SP= 0.00E+00 SK= 0.00E+00
       N       E                     dE             d eps       ncg     rms          rms(c)
RMM:   1    -0.414046654405E+03   -0.50301E+00   -0.21771E+01  4294   0.819E+00    0.210E+00
RMM:   2    -0.413974214040E+03    0.72440E-01   -0.76687E-01  5370   0.104E+00    0.203E+00
RMM:   3    -0.413952232391E+03    0.21982E-01   -0.25123E-01  5375   0.553E-01    0.186E+00
RMM:   4    -0.413893418977E+03    0.58813E-01   -0.20244E-01  5266   0.521E-01    0.837E-01
RMM:   5    -0.413880226116E+03    0.13193E-01   -0.11076E-01  4931   0.420E-01    0.361E-01
RMM:   6    -0.413873888081E+03    0.63380E-02   -0.32133E-02  5093   0.226E-01    0.180E-01
RMM:   7    -0.413872600933E+03    0.12871E-02   -0.33904E-03  4720   0.873E-02    0.741E-02
RMM:   8    -0.413872508483E+03    0.92450E-04   -0.71702E-04  4930   0.370E-02    0.404E-02
RMM:   9    -0.413872538544E+03   -0.30061E-04   -0.44784E-04  5697   0.247E-02    0.295E-02
RMM:  10    -0.413872524734E+03    0.13810E-04   -0.10072E-04  5389   0.127E-02    0.128E-02
RMM:  11    -0.413872528529E+03   -0.37946E-05   -0.64156E-05  5711   0.877E-03    0.797E-03
RMM:  12    -0.413872530746E+03   -0.22177E-05   -0.12378E-05  4170   0.465E-03    0.485E-03
RMM:  13    -0.413872532170E+03   -0.14237E-05   -0.41129E-06  2938   0.295E-03    0.238E-03
RMM:  14    -0.413872532804E+03   -0.63405E-06   -0.14200E-06  2557   0.202E-03
  140 T=   198. E= -.41289984E+03 F= -.41387253E+03 E0= -.41385036E+03  EK= 0.97270E+00 SP= 0.00E+00 SK= 0.00E+00
       N       E                     dE             d eps       ncg     rms          rms(c)
RMM:   1    -0.414151500812E+03   -0.27897E+00   -0.25923E+01  4295   0.904E+00    0.158E+00
RMM:   2    -0.414004544104E+03    0.14696E+00   -0.82934E-01  5390   0.109E+00    0.169E+00
RMM:   3    -0.413967947573E+03    0.36597E-01   -0.17598E-01  5536   0.476E-01    0.146E+00
RMM:   4    -0.413934836717E+03    0.33111E-01   -0.90716E-02  5317   0.359E-01    0.780E-01
RMM:   5    -0.413934457000E+03    0.37972E-03   -0.67687E-02  4817   0.338E-01    0.381E-01
RMM:   6    -0.413929428299E+03    0.50287E-02   -0.32364E-02  4925   0.220E-01    0.194E-01
RMM:   7    -0.413927524942E+03    0.19034E-02   -0.40780E-03  4666   0.955E-02    0.772E-02
RMM:   8    -0.413927472296E+03    0.52646E-04   -0.96762E-04  5502   0.395E-02    0.523E-02
RMM:   9    -0.413927449813E+03    0.22482E-04   -0.36617E-04  4586   0.252E-02    0.205E-02
RMM:  10    -0.413927453353E+03   -0.35391E-05   -0.10003E-04  5622   0.115E-02    0.119E-02
RMM:  11    -0.413927455733E+03   -0.23808E-05   -0.34663E-05  5284   0.722E-03    0.704E-03
RMM:  12    -0.413927459426E+03   -0.36931E-05   -0.83826E-06  3509   0.392E-03    0.497E-03
RMM:  13    -0.413927461038E+03   -0.16116E-05   -0.31509E-06  2801   0.267E-03    0.195E-03
RMM:  14    -0.413927461862E+03   -0.82375E-06   -0.14149E-06  2542   0.186E-03
  141 T=   212. E= -.41288382E+03 F= -.41392746E+03 E0= -.41390562E+03  EK= 0.10436E+01 SP= 0.00E+00 SK= 0.00E+00
       N       E                     dE             d eps       ncg     rms          rms(c)
RMM:   1    -0.414005947238E+03   -0.78486E-01   -0.24116E+01  4290   0.877E+00    0.107E+00
RMM:   2    -0.413861794568E+03    0.14415E+00   -0.69545E-01  5421   0.966E-01    0.110E+00
RMM:   3    -0.413862294976E+03   -0.50041E-03   -0.11032E-01  5757   0.364E-01    0.106E+00
RMM:   4    -0.413840419148E+03    0.21876E-01   -0.33930E-02  5221   0.227E-01    0.614E-01
RMM:   5    -0.413840094152E+03    0.32500E-03   -0.34801E-02  4574   0.248E-01    0.298E-01
RMM:   6    -0.413838248067E+03    0.18461E-02   -0.18958E-02  4911   0.169E-01    0.147E-01
RMM:   7    -0.413837104607E+03    0.11435E-02   -0.36403E-03  5109   0.818E-02    0.777E-02
RMM:   8    -0.413837011144E+03    0.93462E-04   -0.73203E-04  5557   0.343E-02    0.555E-02
RMM:   9    -0.413836972065E+03    0.39079E-04   -0.48607E-04  4428   0.290E-02    0.172E-02
RMM:  10    -0.413836981499E+03   -0.94337E-05   -0.10345E-04  5707   0.116E-02    0.125E-02
RMM:  11    -0.413836982459E+03   -0.95984E-06   -0.26586E-05  4599   0.664E-03    0.611E-03
RMM:  12    -0.413836986301E+03   -0.38429E-05   -0.66450E-06  3196   0.352E-03    0.382E-03
RMM:  13    -0.413836988808E+03   -0.25062E-05   -0.21623E-06  2699   0.228E-03    0.168E-03
RMM:  14    -0.413836990123E+03   -0.13156E-05   -0.12550E-06  2545   0.168E-03    0.848E-04
RMM:  15    -0.413836990645E+03   -0.52144E-06   -0.67064E-07  2189   0.118E-03
  142 T=   196. E= -.41287418E+03 F= -.41383699E+03 E0= -.41381551E+03  EK= 0.96281E+00 SP= 0.00E+00 SK= 0.00E+00
       N       E                     dE             d eps       ncg     rms          rms(c)
RMM:   1    -0.413851477890E+03   -0.14488E-01   -0.21275E+01  4283   0.827E+00    0.989E-01
RMM:   2    -0.413732896144E+03    0.11858E+00   -0.57016E-01  5434   0.861E-01    0.863E-01
RMM:   3    -0.413767153294E+03   -0.34257E-01   -0.94785E-02  5782   0.328E-01    0.101E+00
RMM:   4    -0.413735092411E+03    0.32061E-01   -0.39695E-02  5098   0.222E-01    0.516E-01
RMM:   5    -0.413732018510E+03    0.30739E-02   -0.28942E-02  4669   0.222E-01    0.210E-01
RMM:   6    -0.413730637057E+03    0.13815E-02   -0.59146E-03  4843   0.108E-01    0.791E-02
RMM:   7    -0.413730577346E+03    0.59712E-04   -0.14946E-03  5743   0.475E-02    0.669E-02
RMM:   8    -0.413730503232E+03    0.74114E-04   -0.56038E-04  5203   0.285E-02    0.465E-02
RMM:   9    -0.413730493986E+03    0.92451E-05   -0.32598E-04  4512   0.239E-02    0.202E-02
RMM:  10    -0.413730495742E+03   -0.17554E-05   -0.82253E-05  5726   0.109E-02    0.119E-02
RMM:  11    -0.413730496692E+03   -0.95033E-06   -0.20491E-05  4530   0.566E-03    0.569E-03
RMM:  12    -0.413730500124E+03   -0.34318E-05   -0.51561E-06  3032   0.337E-03    0.312E-03
RMM:  13    -0.413730502549E+03   -0.24248E-05   -0.16345E-06  2587   0.212E-03    0.173E-03
RMM:  14    -0.413730504922E+03   -0.23728E-05   -0.12835E-06  2544   0.176E-03    0.849E-04
RMM:  15    -0.413730505943E+03   -0.10218E-05   -0.56517E-07  2221   0.114E-03    0.459E-04
RMM:  16    -0.413730506748E+03   -0.80487E-06   -0.40535E-07  1951   0.964E-04
  143 T=   175. E= -.41287164E+03 F= -.41373051E+03 E0= -.41370911E+03  EK= 0.85887E+00 SP= 0.00E+00 SK= 0.00E+00
       N       E                     dE             d eps       ncg     rms          rms(c)
RMM:   1    -0.413740767237E+03   -0.10261E-01   -0.18908E+01  4267   0.784E+00    0.953E-01
RMM:   2    -0.413649673976E+03    0.91093E-01   -0.49166E-01  5410   0.801E-01    0.805E-01
RMM:   3    -0.413684687223E+03   -0.35013E-01   -0.87819E-02  5741   0.311E-01    0.918E-01
RMM:   4    -0.413654577420E+03    0.30110E-01   -0.41986E-02  5073   0.224E-01    0.453E-01
RMM:   5    -0.413651299623E+03    0.32778E-02   -0.25229E-02  4889   0.205E-01    0.174E-01
RMM:   6    -0.413649914394E+03    0.13852E-02   -0.61313E-03  4935   0.103E-01    0.892E-02
RMM:   7    -0.413649587731E+03    0.32666E-03   -0.12121E-03  5212   0.475E-02    0.565E-02
RMM:   8    -0.413649574762E+03    0.12969E-04   -0.45371E-04  5307   0.273E-02    0.369E-02
RMM:   9    -0.413649577827E+03   -0.30656E-05   -0.20050E-04  4732   0.187E-02    0.170E-02
RMM:  10    -0.413649577844E+03   -0.17120E-07   -0.64508E-05  5694   0.945E-03    0.977E-03
RMM:  11    -0.413649578739E+03   -0.89457E-06   -0.14910E-05  4264   0.456E-03    0.544E-03
RMM:  12    -0.413649582755E+03   -0.40159E-05   -0.53321E-06  3151   0.355E-03    0.277E-03
RMM:  13    -0.413649585376E+03   -0.26213E-05   -0.16166E-06  2559   0.219E-03    0.154E-03
RMM:  14    -0.413649588368E+03   -0.29920E-05   -0.93502E-07  2504   0.159E-03    0.655E-04
RMM:  15    -0.413649590096E+03   -0.17278E-05   -0.47600E-07  2164   0.108E-03    0.387E-04
RMM:  16    -0.413649591795E+03   -0.16994E-05   -0.36870E-07  1828   0.916E-04    0.236E-04
RMM:  17    -0.413649593287E+03   -0.14913E-05   -0.29620E-07  1639   0.827E-04    0.145E-04
RMM:  18    -0.413649594211E+03   -0.92389E-06   -0.19058E-07  1353   0.713E-04
  144 T=   159. E= -.41287014E+03 F= -.41364959E+03 E0= -.41362786E+03  EK= 0.77945E+00 SP= 0.00E+00 SK= 0.00E+00
       N       E                     dE             d eps       ncg     rms          rms(c)
RMM:   1    -0.413693175986E+03   -0.43583E-01   -0.17474E+01  4264   0.758E+00    0.871E-01
RMM:   2    -0.413618670276E+03    0.74506E-01   -0.42824E-01  5379   0.770E-01    0.784E-01
RMM:   3    -0.413639867110E+03   -0.21197E-01   -0.74665E-02  5791   0.283E-01    0.893E-01
RMM:   4    -0.413616134101E+03    0.23733E-01   -0.24976E-02  4933   0.197E-01    0.402E-01
RMM:   5    -0.413617002278E+03   -0.86818E-03   -0.23696E-02  4668   0.204E-01    0.166E-01
RMM:   6    -0.413615794307E+03    0.12080E-02   -0.57387E-03  4999   0.970E-02    0.918E-02
RMM:   7    -0.413615471902E+03    0.32240E-03   -0.11615E-03  5289   0.450E-02    0.564E-02
RMM:   8    -0.413615421362E+03    0.50540E-04   -0.34740E-04  4621   0.251E-02    0.299E-02
RMM:   9    -0.413615425788E+03   -0.44260E-05   -0.21410E-04  4919   0.183E-02    0.127E-02
RMM:  10    -0.413615428899E+03   -0.31113E-05   -0.47393E-05  5495   0.761E-03    0.894E-03
RMM:  11    -0.413615429894E+03   -0.99493E-06   -0.11679E-05  4035   0.439E-03    0.439E-03
RMM:  12    -0.413615433903E+03   -0.40087E-05   -0.29485E-06  2748   0.277E-03    0.228E-03
RMM:  13    -0.413615437113E+03   -0.32097E-05   -0.10222E-06  2522   0.173E-03    0.126E-03
RMM:  14    -0.413615439914E+03   -0.28010E-05   -0.73839E-07  2402   0.133E-03    0.533E-04
RMM:  15    -0.413615441956E+03   -0.20426E-05   -0.42576E-07  1914   0.995E-04    0.330E-04
RMM:  16    -0.413615444629E+03   -0.26728E-05   -0.40125E-07  1812   0.919E-04    0.209E-04
RMM:  17    -0.413615446456E+03   -0.18265E-05   -0.25613E-07  1475   0.783E-04    0.121E-04
RMM:  18    -0.413615448321E+03   -0.18654E-05   -0.22071E-07  1471   0.745E-04    0.765E-05
RMM:  19    -0.413615450204E+03   -0.18829E-05   -0.18879E-07  1423   0.697E-04    0.740E-05
RMM:  20    -0.413615450981E+03   -0.77753E-06   -0.10334E-07  1109   0.604E-04
  145 T=   152. E= -.41287021E+03 F= -.41361545E+03 E0= -.41359326E+03  EK= 0.74524E+00 SP= 0.00E+00 SK= 0.00E+00
       N       E                     dE             d eps       ncg     rms          rms(c)
RMM:   1    -0.413704479508E+03   -0.89029E-01   -0.17356E+01  4278   0.761E+00    0.966E-01
RMM:   2    -0.413627081290E+03    0.77398E-01   -0.40342E-01  5345   0.773E-01    0.856E-01
RMM:   3    -0.413657154945E+03   -0.30074E-01   -0.81771E-02  5738   0.300E-01    0.982E-01
RMM:   4    -0.413625918496E+03    0.31236E-01   -0.35809E-02  5077   0.222E-01    0.429E-01
RMM:   5    -0.413625465354E+03    0.45314E-03   -0.21751E-02  4666   0.204E-01    0.156E-01
RMM:   6    -0.413624634687E+03    0.83067E-03   -0.46742E-03  5034   0.889E-02    0.860E-02
RMM:   7    -0.413624356165E+03    0.27852E-03   -0.11873E-03  5237   0.433E-02    0.519E-02
RMM:   8    -0.413624304815E+03    0.51350E-04   -0.34355E-04  4752   0.244E-02    0.301E-02
RMM:   9    -0.413624298801E+03    0.60135E-05   -0.16812E-04  4903   0.165E-02    0.122E-02
RMM:  10    -0.413624302879E+03   -0.40777E-05   -0.50853E-05  5633   0.804E-03    0.838E-03
RMM:  11    -0.413624304315E+03   -0.14361E-05   -0.10781E-05  3890   0.419E-03    0.453E-03
RMM:  12    -0.413624308325E+03   -0.40096E-05   -0.32321E-06  2784   0.290E-03    0.231E-03
RMM:  13    -0.413624311736E+03   -0.34107E-05   -0.12724E-06  2535   0.188E-03    0.136E-03
RMM:  14    -0.413624314788E+03   -0.30526E-05   -0.69706E-07  2428   0.134E-03    0.574E-04
RMM:  15    -0.413624316922E+03   -0.21340E-05   -0.39767E-07  1903   0.966E-04    0.344E-04
RMM:  16    -0.413624319827E+03   -0.29045E-05   -0.38881E-07  1887   0.919E-04    0.248E-04
RMM:  17    -0.413624322300E+03   -0.24733E-05   -0.28986E-07  1552   0.800E-04    0.137E-04
RMM:  18    -0.413624324595E+03   -0.22948E-05   -0.24804E-07  1534   0.751E-04    0.913E-05
RMM:  19    -0.413624326281E+03   -0.16864E-05   -0.17588E-07  1319   0.673E-04    0.688E-05
RMM:  20    -0.413624327614E+03   -0.13330E-05   -0.12131E-07  1162   0.625E-04    0.454E-05
RMM:  21    -0.413624328681E+03   -0.10671E-05   -0.84432E-08  1067   0.597E-04    0.316E-05
RMM:  22    -0.413624329139E+03   -0.45796E-06   -0.49969E-08   942   0.567E-04
  146 T=   153. E= -.41287393E+03 F= -.41362433E+03 E0= -.41360198E+03  EK= 0.75040E+00 SP= 0.00E+00 SK= 0.00E+00
       N       E                     dE             d eps       ncg     rms          rms(c)
RMM:   1    -0.413718857010E+03   -0.94528E-01   -0.17723E+01  4284   0.776E+00    0.112E+00
RMM:   2    -0.413632365285E+03    0.86492E-01   -0.39320E-01  5286   0.777E-01    0.924E-01
RMM:   3    -0.413646163301E+03   -0.13798E-01   -0.67522E-02  5628   0.310E-01    0.670E-01
RMM:   4    -0.413692845316E+03   -0.46682E-01   -0.90865E-02  5222   0.285E-01    0.105E+00
RMM:   5    -0.413634272035E+03    0.58573E-01   -0.45837E-02  4979   0.261E-01    0.170E-01
RMM:   6    -0.413633524110E+03    0.74792E-03   -0.66471E-03  5328   0.103E-01    0.735E-02
RMM:   7    -0.413633420096E+03    0.10401E-03   -0.18045E-03  5536   0.459E-02    0.470E-02
RMM:   8    -0.413633375891E+03    0.44205E-04   -0.47202E-04  5377   0.255E-02    0.289E-02
RMM:   9    -0.413633369486E+03    0.64044E-05   -0.12246E-04  5220   0.140E-02    0.157E-02
RMM:  10    -0.413633370928E+03   -0.14414E-05   -0.49868E-05  5561   0.828E-03    0.776E-03
RMM:  11    -0.413633373965E+03   -0.30373E-05   -0.16182E-05  4384   0.462E-03    0.541E-03
RMM:  12    -0.413633376706E+03   -0.27408E-05   -0.27163E-06  2728   0.276E-03    0.256E-03
RMM:  13    -0.413633379740E+03   -0.30336E-05   -0.15943E-06  2564   0.203E-03    0.139E-03
RMM:  14    -0.413633382804E+03   -0.30649E-05   -0.88200E-07  2474   0.155E-03    0.650E-04
RMM:  15    -0.413633384920E+03   -0.21153E-05   -0.42874E-07  2150   0.106E-03    0.386E-04
RMM:  16    -0.413633387210E+03   -0.22906E-05   -0.31010E-07  1676   0.866E-04    0.215E-04
RMM:  17    -0.413633389894E+03   -0.26833E-05   -0.33681E-07  1854   0.866E-04    0.154E-04
RMM:  18    -0.413633391376E+03   -0.14822E-05   -0.19140E-07  1406   0.690E-04    0.105E-04
RMM:  19    -0.413633392689E+03   -0.13130E-05   -0.14016E-07  1257   0.636E-04    0.597E-05
RMM:  20    -0.413633393881E+03   -0.11919E-05   -0.10785E-07  1194   0.608E-04    0.372E-05
RMM:  21    -0.413633394456E+03   -0.57510E-06   -0.59558E-08   990   0.558E-04
  147 T=   155. E= -.41287399E+03 F= -.41363339E+03 E0= -.41361139E+03  EK= 0.75941E+00 SP= 0.00E+00 SK= 0.00E+00
       N       E                     dE             d eps       ncg     rms          rms(c)
RMM:   1    -0.413732716444E+03   -0.99323E-01   -0.17630E+01  4288   0.782E+00    0.977E-01
RMM:   2    -0.413654269575E+03    0.78447E-01   -0.37163E-01  5297   0.758E-01    0.835E-01
RMM:   3    -0.413685901678E+03   -0.31632E-01   -0.86542E-02  5693   0.315E-01    0.103E+00
RMM:   4    -0.413652278280E+03    0.33623E-01   -0.42336E-02  5171   0.239E-01    0.442E-01
RMM:   5    -0.413650577133E+03    0.17011E-02   -0.21040E-02  4813   0.198E-01    0.160E-01
RMM:   6    -0.413650202337E+03    0.37480E-03   -0.49507E-03  5230   0.895E-02    0.869E-02
RMM:   7    -0.413649856269E+03    0.34607E-03   -0.12177E-03  5045   0.437E-02    0.437E-02
RMM:   8    -0.413649842770E+03    0.13499E-04   -0.44923E-04  5706   0.252E-02    0.279E-02
RMM:   9    -0.413649837333E+03    0.54372E-05   -0.11314E-04  5234   0.133E-02    0.162E-02
RMM:  10    -0.413649835765E+03    0.15673E-05   -0.52648E-05  5559   0.870E-03    0.798E-03
RMM:  11    -0.413649838814E+03   -0.30484E-05   -0.15500E-05  4294   0.449E-03    0.621E-03
RMM:  12    -0.413649840554E+03   -0.17405E-05   -0.36697E-06  2848   0.308E-03    0.214E-03
RMM:  13    -0.413649842223E+03   -0.16690E-05   -0.14009E-06  2545   0.195E-03    0.113E-03
RMM:  14    -0.413649844029E+03   -0.18054E-05   -0.76643E-07  2424   0.146E-03    0.486E-04
RMM:  15    -0.413649845325E+03   -0.12960E-05   -0.43577E-07  2096   0.104E-03    0.332E-04
RMM:  16    -0.413649846547E+03   -0.12228E-05   -0.31084E-07  1680   0.883E-04    0.186E-04
RMM:  17    -0.413649847347E+03   -0.79966E-06   -0.22467E-07  1570   0.781E-04
  148 T=   159. E= -.41286977E+03 F= -.41364985E+03 E0= -.41362839E+03  EK= 0.78008E+00 SP= 0.00E+00 SK= 0.00E+00
       N       E                     dE             d eps       ncg     rms          rms(c)
RMM:   1    -0.413814771723E+03   -0.16493E+00   -0.18476E+01  4289   0.804E+00    0.996E-01
RMM:   2    -0.413759534750E+03    0.55237E-01   -0.43099E-01  5355   0.825E-01    0.104E+00
RMM:   3    -0.413743887415E+03    0.15647E-01   -0.91595E-02  5544   0.340E-01    0.899E-01
RMM:   4    -0.413727100465E+03    0.16787E-01   -0.43620E-02  5275   0.250E-01    0.469E-01
RMM:   5    -0.413726422868E+03    0.67760E-03   -0.20752E-02  4772   0.196E-01    0.222E-01
RMM:   6    -0.413726041393E+03    0.38147E-03   -0.12673E-02  5028   0.137E-01    0.138E-01
RMM:   7    -0.413724988507E+03    0.10529E-02   -0.20981E-03  4679   0.653E-02    0.528E-02
RMM:   8    -0.413724999501E+03   -0.10993E-04   -0.67982E-04  5844   0.293E-02    0.328E-02
RMM:   9    -0.413724986563E+03    0.12938E-04   -0.17087E-04  4745   0.168E-02    0.155E-02
RMM:  10    -0.413724986304E+03    0.25838E-06   -0.46276E-05  5530   0.823E-03    0.880E-03
RMM:  11    -0.413724987250E+03   -0.94507E-06   -0.16683E-05  4541   0.499E-03    0.518E-03
RMM:  12    -0.413724988501E+03   -0.12512E-05   -0.31209E-06  2781   0.285E-03    0.349E-03
RMM:  13    -0.413724988899E+03   -0.39833E-06   -0.12592E-06  2538   0.192E-03
  149 T=   173. E= -.41287304E+03 F= -.41372499E+03 E0= -.41370379E+03  EK= 0.85195E+00 SP= 0.00E+00 SK= 0.00E+00
       N       E                     dE             d eps       ncg     rms          rms(c)
RMM:   1    -0.413944351756E+03   -0.21936E+00   -0.20770E+01  4290   0.847E+00    0.125E+00
RMM:   2    -0.413889607954E+03    0.54744E-01   -0.56863E-01  5384   0.956E-01    0.139E+00
RMM:   3    -0.413849113783E+03    0.40494E-01   -0.13353E-01  5478   0.414E-01    0.113E+00
RMM:   4    -0.413823855169E+03    0.25259E-01   -0.62947E-02  5235   0.304E-01    0.581E-01
RMM:   5    -0.413824060617E+03   -0.20545E-03   -0.34059E-02  4888   0.242E-01    0.300E-01
RMM:   6    -0.413821894019E+03    0.21666E-02   -0.20315E-02  4938   0.172E-01    0.159E-01
RMM:   7    -0.413820670516E+03    0.12235E-02   -0.25992E-03  4622   0.763E-02    0.636E-02
RMM:   8    -0.413820656344E+03    0.14172E-04   -0.64925E-04  5475   0.310E-02    0.386E-02
RMM:   9    -0.413820642711E+03    0.13633E-04   -0.21596E-04  4692   0.189E-02    0.161E-02
RMM:  10    -0.413820644794E+03   -0.20835E-05   -0.63089E-05  5470   0.969E-03    0.974E-03
RMM:  11    -0.413820644226E+03    0.56860E-06   -0.17599E-05  4612   0.527E-03    0.524E-03
RMM:  12    -0.413820644592E+03   -0.36604E-06   -0.52815E-06  3103   0.335E-03
  150 T=   192. E= -.41287766E+03 F= -.41382064E+03 E0= -.41379922E+03  EK= 0.94299E+00 SP= 0.00E+00 SK= 0.00E+00
