       N       E                     dE             d eps       ncg     rms          rms(c)
RMM:   1     0.220151248741E+04    0.22015E+04   -0.52438E+04  2132   0.654E+02
RMM:   2     0.705617371056E+03   -0.14959E+04   -0.16260E+04  2132   0.177E+02
RMM:   3     0.137737365809E+03   -0.56788E+03   -0.65691E+03  2132   0.117E+02
RMM:   4    -0.159324214773E+03   -0.29706E+03   -0.27869E+03  2132   0.936E+01
RMM:   5    -0.287517768792E+03   -0.12819E+03   -0.11447E+03  2132   0.595E+01
RMM:   6    -0.349875651596E+03   -0.62358E+02   -0.55113E+02  2132   0.423E+01
RMM:   7    -0.382767203330E+03   -0.32892E+02   -0.30382E+02  2132   0.293E+01
RMM:   8    -0.404237317863E+03   -0.21470E+02   -0.18437E+02  2132   0.233E+01
RMM:   9    -0.436033927364E+03   -0.31797E+02   -0.30711E+02  6105   0.173E+01
RMM:  10    -0.441332815104E+03   -0.52989E+01   -0.62896E+01  6401   0.539E+00
RMM:  11    -0.442527320900E+03   -0.11945E+01   -0.10947E+01  6218   0.172E+00
RMM:  12    -0.442900696125E+03   -0.37338E+00   -0.27246E+00  6370   0.598E-01    0.134E+02
RMM:  13    -0.425617306339E+03    0.17283E+02   -0.81072E+01  4671   0.119E+01    0.712E+01
RMM:  14    -0.499066706188E+03   -0.73449E+02   -0.53927E+02  5420   0.232E+01    0.306E+01
RMM:  15    -0.415185456680E+03    0.83881E+02   -0.19851E+02  5078   0.163E+01    0.654E+00
RMM:  16    -0.414047497523E+03    0.11380E+01   -0.39170E+01  6083   0.606E+00    0.429E+00
RMM:  17    -0.413212046476E+03    0.83545E+00   -0.24247E+00  5361   0.184E+00    0.244E+00
RMM:  18    -0.413169846767E+03    0.42200E-01   -0.83813E-01  5974   0.936E-01    0.163E+00
RMM:  19    -0.413166538991E+03    0.33078E-02   -0.29805E-01  5704   0.578E-01    0.848E-01
RMM:  20    -0.413179807086E+03   -0.13268E-01   -0.20057E-01  5478   0.478E-01    0.504E-01
RMM:  21    -0.413166451880E+03    0.13355E-01   -0.32123E-02  5023   0.214E-01    0.241E-01
RMM:  22    -0.413164974627E+03    0.14773E-02   -0.14120E-02  6028   0.977E-02    0.140E-01
RMM:  23    -0.413163725671E+03    0.12490E-02   -0.52680E-03  5872   0.649E-02    0.805E-02
RMM:  24    -0.413162506498E+03    0.12192E-02   -0.16541E-03  5366   0.390E-02    0.368E-02
RMM:  25    -0.413162319783E+03    0.18671E-03   -0.90221E-04  5788   0.247E-02    0.273E-02
RMM:  26    -0.413162581702E+03   -0.26192E-03   -0.64039E-04  5909   0.255E-02    0.340E-02
RMM:  27    -0.413162989057E+03   -0.40735E-03   -0.19337E-04  4601   0.194E-02    0.166E-02
RMM:  28    -0.413163491094E+03   -0.50204E-03   -0.21609E-04  5324   0.204E-02    0.877E-03
RMM:  29    -0.413163808852E+03   -0.31776E-03   -0.81915E-05  4293   0.128E-02    0.494E-03
RMM:  30    -0.413164039286E+03   -0.23043E-03   -0.66101E-05  3987   0.100E-02    0.297E-03
RMM:  31    -0.413164161756E+03   -0.12247E-03   -0.50193E-05  3135   0.660E-03    0.226E-03
RMM:  32    -0.413164190608E+03   -0.28853E-04   -0.19953E-05  2939   0.312E-03    0.119E-03
RMM:  33    -0.413164202589E+03   -0.11981E-04   -0.81005E-06  2791   0.218E-03    0.598E-04
RMM:  34    -0.413164206184E+03   -0.35945E-05   -0.44918E-06  2639   0.162E-03    0.850E-04
RMM:  35    -0.413164205813E+03    0.37043E-06   -0.22099E-06  2104   0.108E-03
    1 T=    61. E= -.41286641E+03 F= -.41316421E+03 E0= -.41314171E+03  EK= 0.29780E+00 SP= 0.00E+00 SK= 0.00E+00
       N       E                     dE             d eps       ncg     rms          rms(c)
RMM:   1    -0.413154627638E+03    0.95785E-02   -0.11064E+01  3971   0.694E-01    0.886E-01
RMM:   2    -0.413165441965E+03   -0.10814E-01   -0.13653E-01  3817   0.100E-01    0.641E-01
RMM:   3    -0.413163991453E+03    0.14505E-02   -0.67069E-03  4869   0.382E-02    0.160E-01
RMM:   4    -0.413192790818E+03   -0.28799E-01   -0.30172E-02  5216   0.144E-01    0.706E-01
RMM:   5    -0.413163519392E+03    0.29271E-01   -0.14371E-02  4847   0.119E-01    0.368E-02
RMM:   6    -0.413163706505E+03   -0.18711E-03   -0.23302E-03  5820   0.470E-02    0.185E-02
RMM:   7    -0.413163726884E+03   -0.20379E-04   -0.29635E-04  5932   0.141E-02    0.140E-02
RMM:   8    -0.413163733258E+03   -0.63742E-05   -0.38708E-05  4603   0.569E-03    0.779E-03
RMM:   9    -0.413163738909E+03   -0.56515E-05   -0.78012E-06  3158   0.302E-03    0.511E-03
RMM:  10    -0.413163745735E+03   -0.68257E-05   -0.21295E-06  2575   0.197E-03    0.297E-03
RMM:  11    -0.413163753274E+03   -0.75389E-05   -0.15650E-06  2543   0.173E-03    0.144E-03
RMM:  12    -0.413163758661E+03   -0.53874E-05   -0.93769E-07  2447   0.137E-03    0.432E-04
RMM:  13    -0.413163759995E+03   -0.13340E-05   -0.44062E-07  2015   0.947E-04    0.287E-04
RMM:  14    -0.413163761261E+03   -0.12654E-05   -0.28653E-07  1487   0.756E-04    0.179E-04
RMM:  15    -0.413163764316E+03   -0.30554E-05   -0.30032E-07  1511   0.765E-04    0.127E-04
RMM:  16    -0.413163764628E+03   -0.31133E-06   -0.16171E-07  1075   0.631E-04
    2 T=    61. E= -.41286609E+03 F= -.41316376E+03 E0= -.41314126E+03  EK= 0.29768E+00 SP= 0.00E+00 SK= 0.00E+00
       N       E                     dE             d eps       ncg     rms          rms(c)
RMM:   1    -0.413156374967E+03    0.73893E-02   -0.11102E+01  4196   0.708E-01    0.910E-01
RMM:   2    -0.413165685907E+03   -0.93109E-02   -0.13349E-01  3872   0.963E-02    0.633E-01
RMM:   3    -0.413164735242E+03    0.95066E-03   -0.70553E-03  4881   0.387E-02    0.166E-01
RMM:   4    -0.413194054653E+03   -0.29319E-01   -0.29805E-02  5181   0.144E-01    0.713E-01
RMM:   5    -0.413164312123E+03    0.29743E-01   -0.14453E-02  4831   0.119E-01    0.381E-02
RMM:   6    -0.413164494226E+03   -0.18210E-03   -0.23179E-03  5801   0.471E-02    0.204E-02
RMM:   7    -0.413164506524E+03   -0.12298E-04   -0.28707E-04  5913   0.143E-02    0.145E-02
RMM:   8    -0.413164506874E+03   -0.35013E-06   -0.39166E-05  4656   0.579E-03    0.814E-03
RMM:   9    -0.413164505913E+03    0.96086E-06   -0.73470E-06  3181   0.303E-03
    3 T=    61. E= -.41286667E+03 F= -.41316451E+03 E0= -.41314201E+03  EK= 0.29784E+00 SP= 0.00E+00 SK= 0.00E+00
       N       E                     dE             d eps       ncg     rms          rms(c)
RMM:   1    -0.413155384256E+03    0.91226E-02   -0.11007E+01  4226   0.701E-01    0.894E-01
RMM:   2    -0.413165774759E+03   -0.10391E-01   -0.13259E-01  4244   0.995E-02    0.627E-01
RMM:   3    -0.413168979706E+03   -0.32049E-02   -0.10437E-02  5176   0.731E-02    0.329E-01
RMM:   4    -0.413189025165E+03   -0.20045E-01   -0.37624E-02  5124   0.165E-01    0.658E-01
RMM:   5    -0.413164195439E+03    0.24830E-01   -0.99750E-03  4723   0.110E-01    0.535E-02
RMM:   6    -0.413164204722E+03   -0.92832E-05   -0.17242E-03  5509   0.418E-02    0.186E-02
RMM:   7    -0.413164223337E+03   -0.18615E-04   -0.26884E-04  6015   0.147E-02    0.128E-02
RMM:   8    -0.413164225667E+03   -0.23297E-05   -0.37830E-05  4978   0.607E-03    0.703E-03
RMM:   9    -0.413164226683E+03   -0.10161E-05   -0.83520E-06  3351   0.375E-03    0.362E-03
RMM:  10    -0.413164228036E+03   -0.13530E-05   -0.14886E-06  2538   0.201E-03    0.219E-03
RMM:  11    -0.413164230074E+03   -0.20376E-05   -0.11816E-06  2546   0.167E-03    0.124E-03
RMM:  12    -0.413164231021E+03   -0.94707E-06   -0.52887E-07  2340   0.117E-03
    4 T=    61. E= -.41286648E+03 F= -.41316423E+03 E0= -.41314174E+03  EK= 0.29775E+00 SP= 0.00E+00 SK= 0.00E+00
       N       E                     dE             d eps       ncg     rms          rms(c)
RMM:   1    -0.413155214599E+03    0.90155E-02   -0.11046E+01  4235   0.707E-01    0.883E-01
RMM:   2    -0.413166000661E+03   -0.10786E-01   -0.13642E-01  4020   0.969E-02    0.639E-01
RMM:   3    -0.413164737740E+03    0.12629E-02   -0.66992E-03  4966   0.383E-02    0.165E-01
RMM:   4    -0.413198839614E+03   -0.34102E-01   -0.35092E-02  5165   0.156E-01    0.769E-01
RMM:   5    -0.413164119759E+03    0.34720E-01   -0.16763E-02  4815   0.129E-01    0.397E-02
RMM:   6    -0.413164330169E+03   -0.21041E-03   -0.27493E-03  5783   0.506E-02    0.190E-02
RMM:   7    -0.413164350847E+03   -0.20678E-04   -0.32931E-04  5929   0.149E-02    0.145E-02
RMM:   8    -0.413164355954E+03   -0.51064E-05   -0.43624E-05  4732   0.598E-03    0.845E-03
RMM:   9    -0.413164359876E+03   -0.39223E-05   -0.80208E-06  3198   0.312E-03    0.557E-03
RMM:  10    -0.413164365624E+03   -0.57482E-05   -0.21072E-06  2559   0.206E-03    0.316E-03
RMM:  11    -0.413164371604E+03   -0.59804E-05   -0.15708E-06  2550   0.183E-03    0.154E-03
RMM:  12    -0.413164375775E+03   -0.41709E-05   -0.89315E-07  2472   0.143E-03    0.469E-04
RMM:  13    -0.413164376845E+03   -0.10702E-05   -0.34951E-07  2050   0.968E-04    0.311E-04
RMM:  14    -0.413164377901E+03   -0.10556E-05   -0.20284E-07  1562   0.770E-04    0.183E-04
RMM:  15    -0.413164380037E+03   -0.21355E-05   -0.26316E-07  1518   0.776E-04    0.141E-04
RMM:  16    -0.413164380168E+03   -0.13167E-06   -0.91718E-08  1062   0.628E-04
    5 T=    61. E= -.41286652E+03 F= -.41316438E+03 E0= -.41314190E+03  EK= 0.29786E+00 SP= 0.00E+00 SK= 0.00E+00
       N       E                     dE             d eps       ncg     rms          rms(c)
RMM:   1    -0.413156148546E+03    0.82315E-02   -0.11096E+01  4248   0.712E-01    0.906E-01
RMM:   2    -0.413166251556E+03   -0.10103E-01   -0.13368E-01  3944   0.960E-02    0.635E-01
RMM:   3    -0.413165131200E+03    0.11204E-02   -0.68608E-03  4854   0.374E-02    0.165E-01
RMM:   4    -0.413193610130E+03   -0.28479E-01   -0.28911E-02  5156   0.142E-01    0.703E-01
RMM:   5    -0.413164708717E+03    0.28901E-01   -0.14102E-02  4818   0.117E-01    0.372E-02
RMM:   6    -0.413164887375E+03   -0.17866E-03   -0.22611E-03  5784   0.460E-02    0.200E-02
RMM:   7    -0.413164898076E+03   -0.10701E-04   -0.27396E-04  5888   0.139E-02    0.143E-02
RMM:   8    -0.413164898775E+03   -0.69965E-06   -0.37362E-05  4624   0.572E-03    0.807E-03
RMM:   9    -0.413164898077E+03    0.69800E-06   -0.72118E-06  3139   0.305E-03
    6 T=    61. E= -.41286670E+03 F= -.41316490E+03 E0= -.41314243E+03  EK= 0.29820E+00 SP= 0.00E+00 SK= 0.00E+00
       N       E                     dE             d eps       ncg     rms          rms(c)
RMM:   1    -0.413155783147E+03    0.91156E-02   -0.11042E+01  4271   0.717E-01    0.901E-01
RMM:   2    -0.413165583197E+03   -0.98000E-02   -0.13322E-01  4283   0.990E-02    0.628E-01
RMM:   3    -0.413169276109E+03   -0.36929E-02   -0.10692E-02  5163   0.723E-02    0.331E-01
RMM:   4    -0.413188747344E+03   -0.19471E-01   -0.37122E-02  5110   0.164E-01    0.651E-01
RMM:   5    -0.413164498656E+03    0.24249E-01   -0.97207E-03  4719   0.108E-01    0.531E-02
RMM:   6    -0.413164506951E+03   -0.82949E-05   -0.17040E-03  5512   0.411E-02    0.189E-02
RMM:   7    -0.413164523302E+03   -0.16351E-04   -0.25929E-04  6019   0.146E-02    0.128E-02
RMM:   8    -0.413164523886E+03   -0.58338E-06   -0.37308E-05  4948   0.608E-03    0.697E-03
RMM:   9    -0.413164522110E+03    0.17756E-05   -0.81036E-06  3278   0.379E-03    0.357E-03
RMM:  10    -0.413164522226E+03   -0.11571E-06   -0.15074E-06  2544   0.202E-03
    7 T=    61. E= -.41286616E+03 F= -.41316452E+03 E0= -.41314207E+03  EK= 0.29836E+00 SP= 0.00E+00 SK= 0.00E+00
       N       E                     dE             d eps       ncg     rms          rms(c)
RMM:   1    -0.413155960352E+03    0.85618E-02   -0.11047E+01  4275   0.720E-01    0.883E-01
RMM:   2    -0.413166714501E+03   -0.10754E-01   -0.13586E-01  4037   0.956E-02    0.637E-01
RMM:   3    -0.413165611958E+03    0.11025E-02   -0.67166E-03  4951   0.398E-02    0.169E-01
RMM:   4    -0.413201582812E+03   -0.35971E-01   -0.37150E-02  5153   0.160E-01    0.788E-01
RMM:   5    -0.413164987367E+03    0.36595E-01   -0.17778E-02  4812   0.132E-01    0.416E-02
RMM:   6    -0.413165197623E+03   -0.21026E-03   -0.28487E-03  5766   0.519E-02    0.189E-02
RMM:   7    -0.413165220577E+03   -0.22954E-04   -0.34920E-04  5926   0.152E-02    0.142E-02
RMM:   8    -0.413165225066E+03   -0.44888E-05   -0.41822E-05  4577   0.581E-03    0.788E-03
RMM:   9    -0.413165228287E+03   -0.32207E-05   -0.82419E-06  3186   0.307E-03    0.519E-03
RMM:  10    -0.413165232538E+03   -0.42517E-05   -0.21687E-06  2562   0.206E-03    0.293E-03
RMM:  11    -0.413165236790E+03   -0.42517E-05   -0.14477E-06  2545   0.175E-03    0.139E-03
RMM:  12    -0.413165239549E+03   -0.27588E-05   -0.82791E-07  2453   0.136E-03    0.406E-04
RMM:  13    -0.413165240439E+03   -0.88988E-06   -0.35168E-07  2011   0.944E-04
    8 T=    61. E= -.41286646E+03 F= -.41316524E+03 E0= -.41314281E+03  EK= 0.29878E+00 SP= 0.00E+00 SK= 0.00E+00
       N       E                     dE             d eps       ncg     rms          rms(c)
RMM:   1    -0.413156680849E+03    0.85587E-02   -0.11114E+01  4286   0.731E-01    0.900E-01
RMM:   2    -0.413166689528E+03   -0.10009E-01   -0.13493E-01  4138   0.101E-01    0.638E-01
RMM:   3    -0.413165552514E+03    0.11370E-02   -0.67715E-03  4779   0.385E-02    0.160E-01
RMM:   4    -0.413189904892E+03   -0.24352E-01   -0.24649E-02  5157   0.131E-01    0.653E-01
RMM:   5    -0.413165127633E+03    0.24777E-01   -0.12168E-02  4820   0.108E-01    0.340E-02
RMM:   6    -0.413165283765E+03   -0.15613E-03   -0.19321E-03  5789   0.423E-02    0.189E-02
RMM:   7    -0.413165294084E+03   -0.10319E-04   -0.23356E-04  5845   0.131E-02    0.135E-02
RMM:   8    -0.413165295021E+03   -0.93758E-06   -0.32815E-05  4543   0.552E-03    0.766E-03
RMM:   9    -0.413165294691E+03    0.33043E-06   -0.64672E-06  3064   0.301E-03
    9 T=    61. E= -.41286635E+03 F= -.41316529E+03 E0= -.41314289E+03  EK= 0.29894E+00 SP= 0.00E+00 SK= 0.00E+00
       N       E                     dE             d eps       ncg     rms          rms(c)
RMM:   1    -0.413156969960E+03    0.83251E-02   -0.11093E+01  4291   0.730E-01    0.908E-01
RMM:   2    -0.413166490719E+03   -0.95208E-02   -0.13319E-01  4296   0.974E-02    0.630E-01
RMM:   3    -0.413170375327E+03   -0.38846E-02   -0.10960E-02  5152   0.742E-02    0.337E-01
RMM:   4    -0.413188776141E+03   -0.18401E-01   -0.36425E-02  5099   0.162E-01    0.640E-01
RMM:   5    -0.413165456166E+03    0.23320E-01   -0.93072E-03  4699   0.106E-01    0.525E-02
RMM:   6    -0.413165462861E+03   -0.66956E-05   -0.16515E-03  5507   0.402E-02    0.192E-02
RMM:   7    -0.413165478139E+03   -0.15278E-04   -0.24852E-04  6009   0.143E-02    0.129E-02
RMM:   8    -0.413165477512E+03    0.62748E-06   -0.36464E-05  4941   0.601E-03    0.696E-03
RMM:   9    -0.413165473483E+03    0.40283E-05   -0.79320E-06  3236   0.369E-03    0.357E-03
RMM:  10    -0.413165472622E+03    0.86112E-06   -0.14533E-06  2535   0.199E-03
   10 T=    61. E= -.41286637E+03 F= -.41316547E+03 E0= -.41314309E+03  EK= 0.29910E+00 SP= 0.00E+00 SK= 0.00E+00
       N       E                     dE             d eps       ncg     rms          rms(c)
RMM:   1    -0.413157061888E+03    0.84116E-02   -0.11040E+01  4297   0.731E-01    0.884E-01
RMM:   2    -0.413167744671E+03   -0.10683E-01   -0.13482E-01  4151   0.957E-02    0.634E-01
RMM:   3    -0.413166632899E+03    0.11118E-02   -0.66428E-03  4936   0.420E-02    0.171E-01
RMM:   4    -0.413203015049E+03   -0.36382E-01   -0.37574E-02  5148   0.161E-01    0.793E-01
RMM:   5    -0.413165946934E+03    0.37068E-01   -0.18109E-02  4812   0.133E-01    0.414E-02
RMM:   6    -0.413166149987E+03   -0.20305E-03   -0.28017E-03  5749   0.520E-02    0.194E-02
RMM:   7    -0.413166168556E+03   -0.18569E-04   -0.35224E-04  5934   0.154E-02    0.145E-02
RMM:   8    -0.413166170604E+03   -0.20477E-05   -0.42535E-05  4636   0.593E-03    0.807E-03
RMM:   9    -0.413166171275E+03   -0.67089E-06   -0.84779E-06  3203   0.315E-03
   11 T=    61. E= -.41286668E+03 F= -.41316617E+03 E0= -.41314381E+03  EK= 0.29949E+00 SP= 0.00E+00 SK= 0.00E+00
       N       E                     dE             d eps       ncg     rms          rms(c)
RMM:   1    -0.413157030671E+03    0.91399E-02   -0.11118E+01  4300   0.741E-01    0.895E-01
RMM:   2    -0.413167517039E+03   -0.10486E-01   -0.13662E-01  4305   0.997E-02    0.641E-01
RMM:   3    -0.413170405617E+03   -0.28886E-02   -0.10110E-02  5144   0.715E-02    0.317E-01
RMM:   4    -0.413195873529E+03   -0.25468E-01   -0.42627E-02  5109   0.174E-01    0.717E-01
RMM:   5    -0.413165989649E+03    0.29884E-01   -0.12388E-02  4730   0.119E-01    0.538E-02
RMM:   6    -0.413166039711E+03   -0.50062E-04   -0.21076E-03  5571   0.455E-02    0.173E-02
RMM:   7    -0.413166062660E+03   -0.22949E-04   -0.30052E-04  6037   0.152E-02    0.126E-02
RMM:   8    -0.413166065607E+03   -0.29470E-05   -0.41574E-05  4987   0.618E-03    0.705E-03
RMM:   9    -0.413166066739E+03   -0.11320E-05   -0.81628E-06  3133   0.365E-03    0.364E-03
RMM:  10    -0.413166068166E+03   -0.14276E-05   -0.18558E-06  2556   0.206E-03    0.214E-03
RMM:  11    -0.413166069865E+03   -0.16989E-05   -0.12514E-06  2543   0.166E-03    0.124E-03
RMM:  12    -0.413166070469E+03   -0.60380E-06   -0.56682E-07  2324   0.116E-03
   12 T=    61. E= -.41286630E+03 F= -.41316607E+03 E0= -.41314374E+03  EK= 0.29977E+00 SP= 0.00E+00 SK= 0.00E+00
       N       E                     dE             d eps       ncg     rms          rms(c)
RMM:   1    -0.413158171011E+03    0.78989E-02   -0.11142E+01  4297   0.748E-01    0.913E-01
RMM:   2    -0.413167775641E+03   -0.96046E-02   -0.13360E-01  4209   0.949E-02    0.632E-01
RMM:   3    -0.413167219678E+03    0.55596E-03   -0.72185E-03  4975   0.407E-02    0.180E-01
RMM:   4    -0.413205056858E+03   -0.37837E-01   -0.39426E-02  5150   0.165E-01    0.809E-01
RMM:   5    -0.413166514486E+03    0.38542E-01   -0.18723E-02  4803   0.136E-01    0.435E-02
RMM:   6    -0.413166732851E+03   -0.21837E-03   -0.30364E-03  5764   0.531E-02    0.218E-02
RMM:   7    -0.413166745032E+03   -0.12180E-04   -0.36712E-04  5925   0.159E-02    0.159E-02
RMM:   8    -0.413166742102E+03    0.29301E-05   -0.48617E-05  4866   0.636E-03    0.936E-03
RMM:   9    -0.413166736688E+03    0.54136E-05   -0.91411E-06  3304   0.328E-03    0.608E-03
RMM:  10    -0.413166732783E+03    0.39046E-05   -0.21977E-06  2554   0.213E-03    0.340E-03
RMM:  11    -0.413166729280E+03    0.35037E-05   -0.16255E-06  2542   0.190E-03    0.161E-03
RMM:  12    -0.413166726224E+03    0.30562E-05   -0.87069E-07  2465   0.148E-03    0.477E-04
RMM:  13    -0.413166725455E+03    0.76892E-06   -0.34939E-07  2116   0.997E-04
   13 T=    61. E= -.41286634E+03 F= -.41316673E+03 E0= -.41314442E+03  EK= 0.30038E+00 SP= 0.00E+00 SK= 0.00E+00
       N       E                     dE             d eps       ncg     rms          rms(c)
RMM:   1    -0.413158109718E+03    0.86165E-02   -0.11064E+01  4294   0.743E-01    0.888E-01
RMM:   2    -0.413168629476E+03   -0.10520E-01   -0.13526E-01  4222   0.954E-02    0.632E-01
RMM:   3    -0.413167620486E+03    0.10090E-02   -0.66475E-03  4874   0.385E-02    0.167E-01
RMM:   4    -0.413198713177E+03   -0.31093E-01   -0.31864E-02  5145   0.148E-01    0.734E-01
RMM:   5    -0.413167081911E+03    0.31631E-01   -0.15495E-02  4808   0.123E-01    0.376E-02
RMM:   6    -0.413167273369E+03   -0.19146E-03   -0.24822E-03  5788   0.478E-02    0.198E-02
RMM:   7    -0.413167284692E+03   -0.11324E-04   -0.29275E-04  5886   0.145E-02    0.144E-02
RMM:   8    -0.413167284235E+03    0.45684E-06   -0.41215E-05  4719   0.595E-03    0.855E-03
RMM:   9    -0.413167281832E+03    0.24030E-05   -0.80298E-06  3226   0.320E-03    0.574E-03
RMM:  10    -0.413167281182E+03    0.65013E-06   -0.19370E-06  2552   0.205E-03
   14 T=    61. E= -.41286633E+03 F= -.41316728E+03 E0= -.41314501E+03  EK= 0.30095E+00 SP= 0.00E+00 SK= 0.00E+00
       N       E                     dE             d eps       ncg     rms          rms(c)
RMM:   1    -0.413158247373E+03    0.90345E-02   -0.11154E+01  4303   0.754E-01    0.892E-01
RMM:   2    -0.413169278298E+03   -0.11031E-01   -0.13762E-01  4297   0.988E-02    0.643E-01
RMM:   3    -0.413170901042E+03   -0.16227E-02   -0.93316E-03  5121   0.657E-02    0.291E-01
RMM:   4    -0.413202279028E+03   -0.31378E-01   -0.46394E-02  5109   0.180E-01    0.773E-01
RMM:   5    -0.413167311638E+03    0.34967E-01   -0.14967E-02  4734   0.128E-01    0.516E-02
RMM:   6    -0.413167414947E+03   -0.10331E-03   -0.24787E-03  5619   0.492E-02    0.167E-02
RMM:   7    -0.413167439519E+03   -0.24573E-04   -0.32363E-04  6012   0.151E-02    0.127E-02
RMM:   8    -0.413167442881E+03   -0.33615E-05   -0.43211E-05  4932   0.618E-03    0.694E-03
RMM:   9    -0.413167443655E+03   -0.77374E-06   -0.76636E-06  3030   0.331E-03
   15 T=    61. E= -.41286613E+03 F= -.41316744E+03 E0= -.41314521E+03  EK= 0.30132E+00 SP= 0.00E+00 SK= 0.00E+00
       N       E                     dE             d eps       ncg     rms          rms(c)
RMM:   1    -0.413164270542E+03    0.31723E-02   -0.11235E+01  4296   0.782E-01    0.915E-01
RMM:   2    -0.413169526146E+03   -0.52556E-02   -0.14357E-01  4262   0.103E-01    0.636E-01
RMM:   3    -0.413168422202E+03    0.11039E-02   -0.68015E-03  4603   0.340E-02    0.169E-01
RMM:   4    -0.413179494431E+03   -0.11072E-01   -0.11363E-02  5150   0.899E-02    0.443E-01
RMM:   5    -0.413168277665E+03    0.11217E-01   -0.55677E-03  4835   0.725E-02    0.268E-02
RMM:   6    -0.413168322822E+03   -0.45157E-04   -0.87196E-04  5877   0.274E-02    0.157E-02
RMM:   7    -0.413168320696E+03    0.21267E-05   -0.93545E-05  5495   0.915E-03    0.952E-03
RMM:   8    -0.413168317751E+03    0.29452E-05   -0.20844E-05  4266   0.467E-03    0.560E-03
RMM:   9    -0.413168313348E+03    0.44026E-05   -0.34140E-06  2747   0.254E-03    0.392E-03
RMM:  10    -0.413168311120E+03    0.22279E-05   -0.84116E-07  2498   0.154E-03    0.249E-03
RMM:  11    -0.413168306580E+03    0.45404E-05   -0.11490E-06  2517   0.161E-03    0.120E-03
RMM:  12    -0.413168303568E+03    0.30114E-05   -0.52645E-07  2242   0.111E-03    0.479E-04
RMM:  13    -0.413168302987E+03    0.58150E-06   -0.18065E-07  1446   0.730E-04
   16 T=    61. E= -.41286645E+03 F= -.41316830E+03 E0= -.41314611E+03  EK= 0.30186E+00 SP= 0.00E+00 SK= 0.00E+00
       N       E                     dE             d eps       ncg     rms          rms(c)
RMM:   1    -0.413159808017E+03    0.84956E-02   -0.11103E+01  4295   0.755E-01    0.895E-01
RMM:   2    -0.413170200708E+03   -0.10393E-01   -0.13547E-01  4252   0.973E-02    0.632E-01
RMM:   3    -0.413169159319E+03    0.10414E-02   -0.67344E-03  4901   0.403E-02    0.172E-01
RMM:   4    -0.413202678368E+03   -0.33519E-01   -0.34513E-02  5140   0.154E-01    0.761E-01
RMM:   5    -0.413168613372E+03    0.34065E-01   -0.16760E-02  4808   0.127E-01    0.394E-02
RMM:   6    -0.413168805088E+03   -0.19172E-03   -0.26350E-03  5788   0.495E-02    0.205E-02
RMM:   7    -0.413168813954E+03   -0.88655E-05   -0.31589E-04  5893   0.149E-02    0.149E-02
RMM:   8    -0.413168811383E+03    0.25701E-05   -0.43166E-05  4739   0.604E-03    0.872E-03
RMM:   9    -0.413168806890E+03    0.44938E-05   -0.84299E-06  3231   0.320E-03    0.579E-03
RMM:  10    -0.413168803859E+03    0.30307E-05   -0.19922E-06  2544   0.206E-03    0.328E-03
RMM:  11    -0.413168800856E+03    0.30032E-05   -0.15892E-06  2537   0.189E-03    0.154E-03
RMM:  12    -0.413168798391E+03    0.24647E-05   -0.81009E-07  2451   0.144E-03    0.476E-04
RMM:  13    -0.413168797794E+03    0.59665E-06   -0.31805E-07  2088   0.956E-04
   17 T=    62. E= -.41286649E+03 F= -.41316880E+03 E0= -.41314664E+03  EK= 0.30231E+00 SP= 0.00E+00 SK= 0.00E+00
       N       E                     dE             d eps       ncg     rms          rms(c)
RMM:   1    -0.413160098216E+03    0.87002E-02   -0.11178E+01  4297   0.765E-01    0.890E-01
RMM:   2    -0.413171172105E+03   -0.11074E-01   -0.13796E-01  4262   0.101E-01    0.644E-01
RMM:   3    -0.413169793279E+03    0.13788E-02   -0.66836E-03  4912   0.399E-02    0.169E-01
RMM:   4    -0.413205011298E+03   -0.35218E-01   -0.36540E-02  5146   0.159E-01    0.780E-01
RMM:   5    -0.413169134165E+03    0.35877E-01   -0.17567E-02  4801   0.130E-01    0.397E-02
RMM:   6    -0.413169337291E+03   -0.20313E-03   -0.28010E-03  5790   0.508E-02    0.199E-02
RMM:   7    -0.413169351376E+03   -0.14085E-04   -0.32845E-04  5915   0.152E-02    0.148E-02
RMM:   8    -0.413169351708E+03   -0.33220E-06   -0.45150E-05  4787   0.615E-03    0.886E-03
RMM:   9    -0.413169349844E+03    0.18641E-05   -0.87677E-06  3273   0.327E-03    0.585E-03
RMM:  10    -0.413169349961E+03   -0.11703E-06   -0.21734E-06  2554   0.212E-03
   18 T=    62. E= -.41286642E+03 F= -.41316935E+03 E0= -.41314723E+03  EK= 0.30293E+00 SP= 0.00E+00 SK= 0.00E+00
       N       E                     dE             d eps       ncg     rms          rms(c)
RMM:   1    -0.413161781521E+03    0.75683E-02   -0.11233E+01  4303   0.767E-01    0.914E-01
RMM:   2    -0.413171742190E+03   -0.99607E-02   -0.13640E-01  4307   0.101E-01    0.639E-01
RMM:   3    -0.413174379983E+03   -0.26378E-02   -0.99377E-03  5125   0.682E-02    0.306E-01
RMM:   4    -0.413200095534E+03   -0.25716E-01   -0.41583E-02  5093   0.171E-01    0.716E-01
RMM:   5    -0.413170399288E+03    0.29696E-01   -0.12447E-02  4714   0.118E-01    0.499E-02
RMM:   6    -0.413170464283E+03   -0.64995E-04   -0.20795E-03  5609   0.451E-02    0.184E-02
RMM:   7    -0.413170476617E+03   -0.12334E-04   -0.27589E-04  5990   0.143E-02    0.130E-02
RMM:   8    -0.413170473451E+03    0.31666E-05   -0.39370E-05  4915   0.606E-03    0.696E-03
RMM:   9    -0.413170465918E+03    0.75327E-05   -0.71345E-06  2965   0.330E-03    0.313E-03
RMM:  10    -0.413170463065E+03    0.28526E-05   -0.18201E-06  2546   0.192E-03    0.184E-03
RMM:  11    -0.413170459179E+03    0.38869E-05   -0.96067E-07  2514   0.149E-03    0.104E-03
RMM:  12    -0.413170456471E+03    0.27076E-05   -0.48008E-07  2111   0.109E-03    0.477E-04
RMM:  13    -0.413170454006E+03    0.24649E-05   -0.30162E-07  1778   0.880E-04    0.210E-04
RMM:  14    -0.413170452073E+03    0.19336E-05   -0.19432E-07  1442   0.748E-04    0.123E-04
RMM:  15    -0.413170449032E+03    0.30406E-05   -0.21001E-07  1627   0.753E-04    0.129E-04
RMM:  16    -0.413170447614E+03    0.14178E-05   -0.11062E-07  1204   0.624E-04    0.110E-04
RMM:  17    -0.413170445708E+03    0.19062E-05   -0.91663E-08  1165   0.605E-04    0.444E-05
RMM:  18    -0.413170444185E+03    0.15229E-05   -0.66002E-08  1018   0.568E-04    0.310E-05
RMM:  19    -0.413170443633E+03    0.55165E-06   -0.34192E-08   845   0.532E-04
   19 T=    62. E= -.41286665E+03 F= -.41317044E+03 E0= -.41314837E+03  EK= 0.30379E+00 SP= 0.00E+00 SK= 0.00E+00
       N       E                     dE             d eps       ncg     rms          rms(c)
RMM:   1    -0.413165069135E+03    0.53751E-02   -0.11210E+01  4297   0.801E-01    0.903E-01
RMM:   2    -0.413172255122E+03   -0.71860E-02   -0.14082E-01  4264   0.102E-01    0.633E-01
RMM:   3    -0.413171410544E+03    0.84458E-03   -0.68290E-03  4939   0.407E-02    0.185E-01
RMM:   4    -0.413209948726E+03   -0.38538E-01   -0.40269E-02  5146   0.166E-01    0.815E-01
RMM:   5    -0.413170721187E+03    0.39228E-01   -0.19301E-02  4797   0.137E-01    0.428E-02
RMM:   6    -0.413170927228E+03   -0.20604E-03   -0.30571E-03  5765   0.537E-02    0.215E-02
RMM:   7    -0.413170937953E+03   -0.10725E-04   -0.36562E-04  5885   0.159E-02    0.157E-02
RMM:   8    -0.413170934211E+03    0.37421E-05   -0.50139E-05  4892   0.644E-03    0.932E-03
RMM:   9    -0.413170927784E+03    0.64268E-05   -0.97764E-06  3381   0.336E-03    0.611E-03
RMM:  10    -0.413170922973E+03    0.48107E-05   -0.21548E-06  2543   0.214E-03    0.341E-03
RMM:  11    -0.413170918609E+03    0.43645E-05   -0.16274E-06  2531   0.194E-03    0.163E-03
RMM:  12    -0.413170915304E+03    0.33044E-05   -0.81374E-07  2462   0.148E-03    0.491E-04
RMM:  13    -0.413170914539E+03    0.76516E-06   -0.33307E-07  2109   0.991E-04
   20 T=    62. E= -.41286640E+03 F= -.41317091E+03 E0= -.41314888E+03  EK= 0.30451E+00 SP= 0.00E+00 SK= 0.00E+00
       N       E                     dE             d eps       ncg     rms          rms(c)
RMM:   1    -0.413162634709E+03    0.82806E-02   -0.11222E+01  4300   0.779E-01    0.890E-01
RMM:   2    -0.413173529704E+03   -0.10895E-01   -0.13955E-01  4279   0.102E-01    0.644E-01
RMM:   3    -0.413172228053E+03    0.13017E-02   -0.67370E-03  4907   0.419E-02    0.172E-01
RMM:   4    -0.413208399282E+03   -0.36171E-01   -0.37599E-02  5139   0.161E-01    0.790E-01
RMM:   5    -0.413171546604E+03    0.36853E-01   -0.18166E-02  4801   0.133E-01    0.400E-02
RMM:   6    -0.413171745425E+03   -0.19882E-03   -0.28828E-03  5795   0.521E-02    0.201E-02
RMM:   7    -0.413171759740E+03   -0.14315E-04   -0.33780E-04  5917   0.154E-02    0.149E-02
RMM:   8    -0.413171759251E+03    0.48895E-06   -0.47962E-05  4846   0.635E-03    0.909E-03
RMM:   9    -0.413171756126E+03    0.31248E-05   -0.92799E-06  3325   0.339E-03    0.601E-03
RMM:  10    -0.413171754788E+03    0.13387E-05   -0.22554E-06  2559   0.219E-03    0.340E-03
RMM:  11    -0.413171753613E+03    0.11749E-05   -0.18350E-06  2562   0.200E-03    0.162E-03
RMM:  12    -0.413171752481E+03    0.11316E-05   -0.83812E-07  2457   0.147E-03    0.518E-04
RMM:  13    -0.413171752197E+03    0.28469E-06   -0.33073E-07  2096   0.971E-04
   21 T=    62. E= -.41286628E+03 F= -.41317175E+03 E0= -.41314976E+03  EK= 0.30548E+00 SP= 0.00E+00 SK= 0.00E+00
       N       E                     dE             d eps       ncg     rms          rms(c)
RMM:   1    -0.413163894609E+03    0.78579E-02   -0.11303E+01  4300   0.782E-01    0.911E-01
RMM:   2    -0.413174370245E+03   -0.10476E-01   -0.13845E-01  4282   0.999E-02    0.643E-01
RMM:   3    -0.413173374524E+03    0.99572E-03   -0.70023E-03  4888   0.432E-02    0.177E-01
RMM:   4    -0.413210293148E+03   -0.36919E-01   -0.38287E-02  5139   0.162E-01    0.798E-01
RMM:   5    -0.413172757775E+03    0.37535E-01   -0.18535E-02  4795   0.134E-01    0.412E-02
RMM:   6    -0.413172955355E+03   -0.19758E-03   -0.29455E-03  5777   0.528E-02    0.212E-02
RMM:   7    -0.413172966047E+03   -0.10693E-04   -0.34936E-04  5908   0.157E-02    0.155E-02
RMM:   8    -0.413172962399E+03    0.36485E-05   -0.48926E-05  4882   0.642E-03    0.938E-03
RMM:   9    -0.413172955979E+03    0.64195E-05   -0.94106E-06  3350   0.336E-03    0.618E-03
RMM:  10    -0.413172951233E+03    0.47462E-05   -0.21661E-06  2555   0.215E-03    0.350E-03
RMM:  11    -0.413172946480E+03    0.47534E-05   -0.17019E-06  2538   0.199E-03    0.166E-03
RMM:  12    -0.413172942892E+03    0.35879E-05   -0.82144E-07  2465   0.150E-03    0.524E-04
RMM:  13    -0.413172942047E+03    0.84427E-06   -0.33284E-07  2120   0.988E-04
   22 T=    62. E= -.41286646E+03 F= -.41317294E+03 E0= -.41315100E+03  EK= 0.30648E+00 SP= 0.00E+00 SK= 0.00E+00
       N       E                     dE             d eps       ncg     rms          rms(c)
RMM:   1    -0.413174957793E+03   -0.20149E-02   -0.11390E+01  4301   0.831E-01    0.914E-01
RMM:   2    -0.413175022737E+03   -0.64944E-04   -0.14120E-01  4284   0.107E-01    0.636E-01
RMM:   3    -0.413174180907E+03    0.84183E-03   -0.70749E-03  4882   0.443E-02    0.184E-01
RMM:   4    -0.413211349400E+03   -0.37168E-01   -0.38505E-02  5143   0.163E-01    0.801E-01
RMM:   5    -0.413173495557E+03    0.37854E-01   -0.18678E-02  4798   0.135E-01    0.418E-02
RMM:   6    -0.413173691749E+03   -0.19619E-03   -0.29784E-03  5776   0.533E-02    0.221E-02
RMM:   7    -0.413173699628E+03   -0.78782E-05   -0.34995E-04  5909   0.158E-02    0.159E-02
RMM:   8    -0.413173693762E+03    0.58655E-05   -0.50610E-05  4906   0.656E-03    0.974E-03
RMM:   9    -0.413173685097E+03    0.86655E-05   -0.97754E-06  3406   0.346E-03    0.642E-03
RMM:  10    -0.413173678094E+03    0.70029E-05   -0.22113E-06  2560   0.221E-03    0.364E-03
RMM:  11    -0.413173670805E+03    0.72883E-05   -0.18292E-06  2551   0.207E-03    0.172E-03
RMM:  12    -0.413173665447E+03    0.53583E-05   -0.85122E-07  2468   0.155E-03    0.548E-04
RMM:  13    -0.413173664223E+03    0.12236E-05   -0.34510E-07  2138   0.101E-03    0.380E-04
RMM:  14    -0.413173662854E+03    0.13699E-05   -0.17399E-07  1589   0.764E-04    0.227E-04
RMM:  15    -0.413173658340E+03    0.45132E-05   -0.19978E-07  1814   0.791E-04    0.252E-04
RMM:  16    -0.413173657721E+03    0.61909E-06   -0.67093E-08  1008   0.595E-04
   23 T=    63. E= -.41286624E+03 F= -.41317366E+03 E0= -.41315176E+03  EK= 0.30742E+00 SP= 0.00E+00 SK= 0.00E+00
       N       E                     dE             d eps       ncg     rms          rms(c)
RMM:   1    -0.413165926013E+03    0.77323E-02   -0.11289E+01  4293   0.790E-01    0.893E-01
RMM:   2    -0.413177074255E+03   -0.11148E-01   -0.14017E-01  4281   0.104E-01    0.644E-01
RMM:   3    -0.413175517668E+03    0.15566E-02   -0.66742E-03  4824   0.427E-02    0.170E-01
RMM:   4    -0.413207390614E+03   -0.31873E-01   -0.32651E-02  5147   0.150E-01    0.742E-01
RMM:   5    -0.413175026700E+03    0.32364E-01   -0.16045E-02  4801   0.125E-01    0.374E-02
RMM:   6    -0.413175201932E+03   -0.17523E-03   -0.25348E-03  5781   0.491E-02    0.199E-02
RMM:   7    -0.413175213484E+03   -0.11553E-04   -0.29303E-04  5884   0.146E-02    0.142E-02
RMM:   8    -0.413175211735E+03    0.17495E-05   -0.44737E-05  4831   0.617E-03    0.891E-03
RMM:   9    -0.413175206792E+03    0.49425E-05   -0.88492E-06  3357   0.335E-03    0.591E-03
RMM:  10    -0.413175204235E+03    0.25577E-05   -0.19608E-06  2546   0.209E-03    0.343E-03
RMM:  11    -0.413175201558E+03    0.26767E-05   -0.17348E-06  2543   0.200E-03    0.163E-03
RMM:  12    -0.413175199542E+03    0.20156E-05   -0.79085E-07  2454   0.146E-03    0.541E-04
RMM:  13    -0.413175199117E+03    0.42568E-06   -0.30315E-07  2078   0.949E-04
   24 T=    63. E= -.41286651E+03 F= -.41317520E+03 E0= -.41315335E+03  EK= 0.30869E+00 SP= 0.00E+00 SK= 0.00E+00
       N       E                     dE             d eps       ncg     rms          rms(c)
RMM:   1    -0.413167073836E+03    0.81257E-02   -0.11392E+01  4296   0.798E-01    0.909E-01
RMM:   2    -0.413177957623E+03   -0.10884E-01   -0.14015E-01  4281   0.106E-01    0.649E-01
RMM:   3    -0.413176483631E+03    0.14740E-02   -0.68107E-03  4783   0.432E-02    0.169E-01
RMM:   4    -0.413206007880E+03   -0.29524E-01   -0.30049E-02  5151   0.144E-01    0.715E-01
RMM:   5    -0.413176026522E+03    0.29981E-01   -0.14829E-02  4808   0.120E-01    0.365E-02
RMM:   6    -0.413176189550E+03   -0.16303E-03   -0.23767E-03  5794   0.471E-02    0.198E-02
RMM:   7    -0.413176198640E+03   -0.90904E-05   -0.25879E-04  5816   0.139E-02    0.133E-02
RMM:   8    -0.413176196109E+03    0.25310E-05   -0.43339E-05  4844   0.608E-03    0.904E-03
RMM:   9    -0.413176189453E+03    0.66557E-05   -0.92601E-06  3481   0.347E-03    0.598E-03
RMM:  10    -0.413176185513E+03    0.39405E-05   -0.18855E-06  2542   0.214E-03    0.353E-03
RMM:  11    -0.413176180926E+03    0.45871E-05   -0.18575E-06  2554   0.207E-03    0.166E-03
RMM:  12    -0.413176177696E+03    0.32294E-05   -0.75394E-07  2458   0.147E-03    0.529E-04
RMM:  13    -0.413176177074E+03    0.62268E-06   -0.29599E-07  2066   0.941E-04
   25 T=    63. E= -.41286640E+03 F= -.41317618E+03 E0= -.41315438E+03  EK= 0.30978E+00 SP= 0.00E+00 SK= 0.00E+00
       N       E                     dE             d eps       ncg     rms          rms(c)
RMM:   1    -0.413168581371E+03    0.75963E-02   -0.11420E+01  4295   0.808E-01    0.923E-01
RMM:   2    -0.413178454912E+03   -0.98735E-02   -0.13922E-01  4274   0.109E-01    0.641E-01
RMM:   3    -0.413177506305E+03    0.94861E-03   -0.70832E-03  4721   0.429E-02    0.171E-01
RMM:   4    -0.413201733970E+03   -0.24228E-01   -0.24487E-02  5151   0.131E-01    0.650E-01
RMM:   5    -0.413177171260E+03    0.24563E-01   -0.12261E-02  4810   0.108E-01    0.348E-02
RMM:   6    -0.413177294675E+03   -0.12342E-03   -0.19307E-03  5815   0.420E-02    0.196E-02
RMM:   7    -0.413177297362E+03   -0.26873E-05   -0.19620E-04  5650   0.125E-02    0.115E-02
RMM:   8    -0.413177290634E+03    0.67281E-05   -0.30827E-05  4487   0.524E-03    0.781E-03
RMM:   9    -0.413177283070E+03    0.75642E-05   -0.82957E-06  3373   0.324E-03    0.556E-03
RMM:  10    -0.413177277669E+03    0.54014E-05   -0.16537E-06  2542   0.208E-03    0.348E-03
RMM:  11    -0.413177268393E+03    0.92752E-05   -0.17913E-06  2553   0.207E-03    0.158E-03
RMM:  12    -0.413177262040E+03    0.63531E-05   -0.70318E-07  2445   0.146E-03    0.585E-04
RMM:  13    -0.413177261034E+03    0.10066E-05   -0.25095E-07  2028   0.907E-04    0.374E-04
RMM:  14    -0.413177259091E+03    0.19426E-05   -0.12480E-07  1425   0.705E-04    0.211E-04
RMM:  15    -0.413177253968E+03    0.51235E-05   -0.16136E-07  1819   0.763E-04    0.307E-04
RMM:  16    -0.413177253328E+03    0.63953E-06   -0.45077E-08   924   0.561E-04
   26 T=    63. E= -.41286613E+03 F= -.41317725E+03 E0= -.41315551E+03  EK= 0.31113E+00 SP= 0.00E+00 SK= 0.00E+00
       N       E                     dE             d eps       ncg     rms          rms(c)
RMM:   1    -0.413169655867E+03    0.75981E-02   -0.11389E+01  4290   0.809E-01    0.899E-01
RMM:   2    -0.413180579863E+03   -0.10924E-01   -0.14089E-01  4274   0.105E-01    0.644E-01
RMM:   3    -0.413179357584E+03    0.12223E-02   -0.67280E-03  4625   0.415E-02    0.164E-01
RMM:   4    -0.413196672951E+03   -0.17315E-01   -0.17556E-02  5156   0.111E-01    0.551E-01
RMM:   5    -0.413179139582E+03    0.17533E-01   -0.87701E-03  4817   0.913E-02    0.297E-02
RMM:   6    -0.413179220535E+03   -0.80953E-04   -0.13738E-03  5833   0.348E-02    0.172E-02
RMM:   7    -0.413179223299E+03   -0.27645E-05   -0.13508E-04  5501   0.107E-02    0.946E-03
RMM:   8    -0.413179217304E+03    0.59955E-05   -0.19327E-05  3871   0.429E-03    0.586E-03
RMM:   9    -0.413179214242E+03    0.30618E-05   -0.45687E-06  2816   0.260E-03    0.428E-03
RMM:  10    -0.413179211789E+03    0.24530E-05   -0.10464E-06  2520   0.167E-03    0.293E-03
RMM:  11    -0.413179206548E+03    0.52413E-05   -0.12886E-06  2508   0.181E-03    0.138E-03
RMM:  12    -0.413179204269E+03    0.22790E-05   -0.54188E-07  2349   0.125E-03    0.638E-04
RMM:  13    -0.413179203577E+03    0.69205E-06   -0.19758E-07  1711   0.813E-04
   27 T=    64. E= -.41286635E+03 F= -.41317920E+03 E0= -.41315751E+03  EK= 0.31285E+00 SP= 0.00E+00 SK= 0.00E+00
       N       E                     dE             d eps       ncg     rms          rms(c)
RMM:   1    -0.413171140316E+03    0.80640E-02   -0.11524E+01  4293   0.840E-01    0.908E-01
RMM:   2    -0.413181853599E+03   -0.10713E-01   -0.14409E-01  4272   0.107E-01    0.655E-01
RMM:   3    -0.413180397753E+03    0.14558E-02   -0.68264E-03  4460   0.423E-02    0.160E-01
RMM:   4    -0.413188331114E+03   -0.79334E-02   -0.84890E-03  5143   0.801E-02    0.377E-01
RMM:   5    -0.413180238863E+03    0.80923E-02   -0.39734E-03  4830   0.616E-02    0.237E-02
RMM:   6    -0.413180260028E+03   -0.21164E-04   -0.61398E-04  5843   0.236E-02    0.154E-02
RMM:   7    -0.413180260209E+03   -0.18097E-06   -0.88869E-05  5423   0.929E-03    0.965E-03
RMM:   8    -0.413180251946E+03    0.82622E-05   -0.14460E-05  3934   0.439E-03    0.440E-03
RMM:   9    -0.413180249389E+03    0.25575E-05   -0.27343E-06  2695   0.234E-03    0.330E-03
RMM:  10    -0.413180246643E+03    0.27462E-05   -0.72325E-07  2465   0.145E-03    0.207E-03
RMM:  11    -0.413180242798E+03    0.38443E-05   -0.65652E-07  2450   0.129E-03    0.925E-04
RMM:  12    -0.413180240021E+03    0.27777E-05   -0.34669E-07  2000   0.945E-04    0.345E-04
RMM:  13    -0.413180238958E+03    0.10625E-05   -0.14832E-07  1299   0.701E-04    0.192E-04
RMM:  14    -0.413180237519E+03    0.14396E-05   -0.10144E-07  1139   0.656E-04    0.112E-04
RMM:  15    -0.413180234607E+03    0.29120E-05   -0.11341E-07  1293   0.681E-04    0.137E-04
RMM:  16    -0.413180234357E+03    0.24955E-06   -0.43164E-08   856   0.577E-04
   28 T=    64. E= -.41286590E+03 F= -.41318023E+03 E0= -.41315859E+03  EK= 0.31434E+00 SP= 0.00E+00 SK= 0.00E+00
       N       E                     dE             d eps       ncg     rms          rms(c)
RMM:   1    -0.413174069547E+03    0.61651E-02   -0.11596E+01  4286   0.844E-01    0.932E-01
RMM:   2    -0.413183582328E+03   -0.95128E-02   -0.14229E-01  4267   0.113E-01    0.647E-01
RMM:   3    -0.413182449531E+03    0.11328E-02   -0.72050E-03  4458   0.415E-02    0.167E-01
RMM:   4    -0.413190249404E+03   -0.77999E-02   -0.81945E-03  5170   0.765E-02    0.371E-01
RMM:   5    -0.413182420680E+03    0.78287E-02   -0.38902E-03  4834   0.607E-02    0.263E-02
RMM:   6    -0.413182441033E+03   -0.20354E-04   -0.64705E-04  5844   0.237E-02    0.176E-02
RMM:   7    -0.413182435654E+03    0.53795E-05   -0.10389E-04  5403   0.986E-03    0.102E-02
RMM:   8    -0.413182424670E+03    0.10984E-04   -0.13326E-05  3778   0.428E-03    0.441E-03
RMM:   9    -0.413182419818E+03    0.48525E-05   -0.25284E-06  2691   0.223E-03    0.329E-03
RMM:  10    -0.413182414382E+03    0.54355E-05   -0.73530E-07  2476   0.147E-03    0.200E-03
RMM:  11    -0.413182407367E+03    0.70146E-05   -0.60234E-07  2429   0.128E-03    0.875E-04
RMM:  12    -0.413182402442E+03    0.49255E-05   -0.31572E-07  2031   0.950E-04    0.327E-04
RMM:  13    -0.413182400705E+03    0.17369E-05   -0.14008E-07  1340   0.706E-04    0.179E-04
RMM:  14    -0.413182397606E+03    0.30995E-05   -0.98408E-08  1176   0.667E-04    0.917E-05
RMM:  15    -0.413182393937E+03    0.36683E-05   -0.87884E-08  1274   0.665E-04    0.107E-04
RMM:  16    -0.413182392822E+03    0.11152E-05   -0.44203E-08   937   0.583E-04    0.657E-05
RMM:  17    -0.413182388689E+03    0.41331E-05   -0.82034E-08  1400   0.649E-04    0.484E-05
RMM:  18    -0.413182388260E+03    0.42890E-06   -0.23817E-08   767   0.516E-04
   29 T=    64. E= -.41286629E+03 F= -.41318239E+03 E0= -.41316079E+03  EK= 0.31610E+00 SP= 0.00E+00 SK= 0.00E+00
       N       E                     dE             d eps       ncg     rms          rms(c)
RMM:   1    -0.413174733577E+03    0.76551E-02   -0.11540E+01  4290   0.836E-01    0.910E-01
RMM:   2    -0.413185650134E+03   -0.10917E-01   -0.14409E-01  4269   0.110E-01    0.647E-01
RMM:   3    -0.413184291442E+03    0.13587E-02   -0.68558E-03  4478   0.437E-02    0.166E-01
RMM:   4    -0.413193911370E+03   -0.96199E-02   -0.10109E-02  5153   0.861E-02    0.414E-01
RMM:   5    -0.413184130278E+03    0.97811E-02   -0.49210E-03  4829   0.679E-02    0.259E-02
RMM:   6    -0.413184156191E+03   -0.25913E-04   -0.75225E-04  5845   0.258E-02    0.170E-02
RMM:   7    -0.413184154348E+03    0.18430E-05   -0.10861E-04  5487   0.997E-03    0.104E-02
RMM:   8    -0.413184144708E+03    0.96405E-05   -0.16361E-05  4001   0.460E-03    0.467E-03
RMM:   9    -0.413184140953E+03    0.37547E-05   -0.32972E-06  2761   0.246E-03    0.342E-03
RMM:  10    -0.413184137037E+03    0.39163E-05   -0.74564E-07  2470   0.148E-03    0.214E-03
RMM:  11    -0.413184131772E+03    0.52649E-05   -0.63714E-07  2453   0.129E-03    0.989E-04
RMM:  12    -0.413184127951E+03    0.38207E-05   -0.35613E-07  2086   0.973E-04    0.378E-04
RMM:  13    -0.413184126542E+03    0.14097E-05   -0.15007E-07  1355   0.710E-04    0.197E-04
RMM:  14    -0.413184124545E+03    0.19970E-05   -0.10008E-07  1136   0.655E-04    0.104E-04
RMM:  15    -0.413184121435E+03    0.31097E-05   -0.89742E-08  1200   0.659E-04    0.107E-04
RMM:  16    -0.413184120882E+03    0.55272E-06   -0.44074E-08   888   0.586E-04
   30 T=    65. E= -.41286629E+03 F= -.41318412E+03 E0= -.41316257E+03  EK= 0.31783E+00 SP= 0.00E+00 SK= 0.00E+00
       N       E                     dE             d eps       ncg     rms          rms(c)
RMM:   1    -0.413178484551E+03    0.56369E-02   -0.11692E+01  4289   0.886E-01    0.910E-01
RMM:   2    -0.413188148079E+03   -0.96635E-02   -0.14932E-01  4268   0.119E-01    0.660E-01
RMM:   3    -0.413185883280E+03    0.22648E-02   -0.67413E-03  4412   0.407E-02    0.163E-01
RMM:   4    -0.413190885193E+03   -0.50019E-02   -0.56804E-03  5148   0.639E-02    0.298E-01
RMM:   5    -0.413185868989E+03    0.50162E-02   -0.25172E-03  4820   0.487E-02    0.228E-02
RMM:   6    -0.413185875546E+03   -0.65574E-05   -0.40438E-04  5797   0.194E-02    0.163E-02
RMM:   7    -0.413185872898E+03    0.26489E-05   -0.76737E-05  5235   0.868E-03    0.792E-03
RMM:   8    -0.413185866721E+03    0.61768E-05   -0.97945E-06  3390   0.379E-03    0.362E-03
RMM:   9    -0.413185864993E+03    0.17279E-05   -0.16117E-06  2577   0.194E-03    0.253E-03
RMM:  10    -0.413185862152E+03    0.28412E-05   -0.65335E-07  2402   0.129E-03    0.144E-03
RMM:  11    -0.413185858853E+03    0.32990E-05   -0.48974E-07  2215   0.109E-03    0.548E-04
RMM:  12    -0.413185856635E+03    0.22181E-05   -0.24516E-07  1663   0.828E-04    0.229E-04
RMM:  13    -0.413185855403E+03    0.12313E-05   -0.12837E-07  1169   0.684E-04    0.134E-04
RMM:  14    -0.413185853651E+03    0.17519E-05   -0.10345E-07  1192   0.666E-04    0.737E-05
RMM:  15    -0.413185851379E+03    0.22724E-05   -0.97744E-08  1275   0.654E-04    0.786E-05
RMM:  16    -0.413185850477E+03    0.90240E-06   -0.46223E-08   911   0.571E-04
   31 T=    65. E= -.41286617E+03 F= -.41318585E+03 E0= -.41316435E+03  EK= 0.31968E+00 SP= 0.00E+00 SK= 0.00E+00
       N       E                     dE             d eps       ncg     rms          rms(c)
RMM:   1    -0.413190559246E+03   -0.47079E-02   -0.11880E+01  4296   0.933E-01    0.937E-01
RMM:   2    -0.413189992717E+03    0.56653E-03   -0.15989E-01  4267   0.121E-01    0.657E-01
RMM:   3    -0.413188651224E+03    0.13415E-02   -0.70750E-03  4319   0.480E-02    0.184E-01
RMM:   4    -0.413192143842E+03   -0.34926E-02   -0.43254E-03  5121   0.582E-02    0.248E-01
RMM:   5    -0.413188686856E+03    0.34570E-02   -0.16717E-03  4807   0.405E-02    0.245E-02
RMM:   6    -0.413188683371E+03    0.34855E-05   -0.31136E-04  5753   0.173E-02    0.178E-02
RMM:   7    -0.413188669803E+03    0.13568E-04   -0.71922E-05  5119   0.849E-03    0.708E-03
RMM:   8    -0.413188661107E+03    0.86958E-05   -0.74267E-06  3158   0.345E-03    0.349E-03
RMM:   9    -0.413188657680E+03    0.34267E-05   -0.10886E-06  2527   0.178E-03    0.232E-03
RMM:  10    -0.413188650545E+03    0.71352E-05   -0.62563E-07  2417   0.127E-03    0.118E-03
RMM:  11    -0.413188644984E+03    0.55609E-05   -0.35345E-07  2023   0.964E-04    0.476E-04
RMM:  12    -0.413188640366E+03    0.46186E-05   -0.19653E-07  1570   0.788E-04    0.187E-04
RMM:  13    -0.413188637549E+03    0.28161E-05   -0.11182E-07  1208   0.675E-04    0.116E-04
RMM:  14    -0.413188634157E+03    0.33921E-05   -0.86907E-08  1194   0.653E-04    0.743E-05
RMM:  15    -0.413188629363E+03    0.47945E-05   -0.92882E-08  1405   0.665E-04    0.783E-05
RMM:  16    -0.413188627802E+03    0.15604E-05   -0.45775E-08   974   0.553E-04    0.475E-05
RMM:  17    -0.413188625641E+03    0.21609E-05   -0.39130E-08   947   0.546E-04    0.265E-05
RMM:  18    -0.413188625167E+03    0.47463E-06   -0.19086E-08   725   0.507E-04
   32 T=    66. E= -.41286668E+03 F= -.41318863E+03 E0= -.41316718E+03  EK= 0.32195E+00 SP= 0.00E+00 SK= 0.00E+00
       N       E                     dE             d eps       ncg     rms          rms(c)
RMM:   1    -0.413191202607E+03   -0.25770E-02   -0.11844E+01  4293   0.947E-01    0.924E-01
RMM:   2    -0.413192237103E+03   -0.10345E-02   -0.15953E-01  4272   0.134E-01    0.653E-01
RMM:   3    -0.413190526163E+03    0.17109E-02   -0.66836E-03  4179   0.393E-02    0.182E-01
RMM:   4    -0.413191184746E+03   -0.65858E-03   -0.18256E-03  5055   0.350E-02    0.112E-01
RMM:   5    -0.413190493194E+03    0.69155E-03   -0.34696E-04  4744   0.191E-02    0.230E-02
RMM:   6    -0.413190482738E+03    0.10455E-04   -0.10855E-04  5445   0.109E-02    0.171E-02
RMM:   7    -0.413190466406E+03    0.16332E-04   -0.48114E-05  4548   0.705E-03    0.515E-03
RMM:   8    -0.413190461434E+03    0.49719E-05   -0.38980E-06  2846   0.287E-03    0.308E-03
RMM:   9    -0.413190459413E+03    0.20214E-05   -0.59100E-07  2433   0.149E-03    0.189E-03
RMM:  10    -0.413190451895E+03    0.75183E-05   -0.49515E-07  2115   0.105E-03    0.775E-04
RMM:  11    -0.413190446439E+03    0.54552E-05   -0.22290E-07  1551   0.780E-04    0.321E-04
RMM:  12    -0.413190443145E+03    0.32945E-05   -0.12269E-07  1379   0.686E-04    0.174E-04
RMM:  13    -0.413190438756E+03    0.43885E-05   -0.89012E-08  1150   0.640E-04    0.997E-05
RMM:  14    -0.413190435434E+03    0.33226E-05   -0.58845E-08  1054   0.598E-04    0.781E-05
RMM:  15    -0.413190433549E+03    0.18848E-05   -0.32148E-08   795   0.540E-04    0.583E-05
RMM:  16    -0.413190429146E+03    0.44026E-05   -0.55725E-08  1130   0.601E-04    0.564E-05
RMM:  17    -0.413190428876E+03    0.27022E-06   -0.13500E-08   622   0.496E-04
   33 T=    66. E= -.41286637E+03 F= -.41319043E+03 E0= -.41316903E+03  EK= 0.32406E+00 SP= 0.00E+00 SK= 0.00E+00
       N       E                     dE             d eps       ncg     rms          rms(c)
RMM:   1    -0.413190994385E+03   -0.56524E-03   -0.11936E+01  4291   0.958E-01    0.916E-01
RMM:   2    -0.413194810117E+03   -0.38157E-02   -0.15404E-01  4264   0.129E-01    0.665E-01
RMM:   3    -0.413192924894E+03    0.18852E-02   -0.68369E-03  4342   0.462E-02    0.167E-01
RMM:   4    -0.413195794612E+03   -0.28697E-02   -0.36710E-03  5123   0.544E-02    0.226E-01
RMM:   5    -0.413192948393E+03    0.28462E-02   -0.13713E-03  4786   0.372E-02    0.233E-02
RMM:   6    -0.413192937024E+03    0.11369E-04   -0.25259E-04  5664   0.165E-02    0.170E-02
RMM:   7    -0.413192932069E+03    0.49550E-05   -0.64683E-05  4990   0.825E-03    0.672E-03
RMM:   8    -0.413192927057E+03    0.50125E-05   -0.87257E-06  3421   0.367E-03    0.361E-03
RMM:   9    -0.413192925664E+03    0.13930E-05   -0.10036E-06  2505   0.176E-03    0.219E-03
RMM:  10    -0.413192921909E+03    0.37547E-05   -0.65660E-07  2378   0.126E-03    0.109E-03
RMM:  11    -0.413192918704E+03    0.32045E-05   -0.37018E-07  1981   0.950E-04    0.456E-04
RMM:  12    -0.413192916129E+03    0.25758E-05   -0.21326E-07  1512   0.781E-04    0.198E-04
RMM:  13    -0.413192914503E+03    0.16261E-05   -0.11932E-07  1094   0.668E-04    0.123E-04
RMM:  14    -0.413192912495E+03    0.20080E-05   -0.93796E-08  1073   0.644E-04    0.778E-05
RMM:  15    -0.413192909888E+03    0.26064E-05   -0.89790E-08  1155   0.640E-04    0.506E-05
RMM:  16    -0.413192909234E+03    0.65449E-06   -0.40087E-08   779   0.557E-04
   34 T=    66. E= -.41286645E+03 F= -.41319291E+03 E0= -.41317156E+03  EK= 0.32646E+00 SP= 0.00E+00 SK= 0.00E+00
       N       E                     dE             d eps       ncg     rms          rms(c)
RMM:   1    -0.413186368297E+03    0.65416E-02   -0.11983E+01  4299   0.923E-01    0.941E-01
RMM:   2    -0.413197192526E+03   -0.10824E-01   -0.15498E-01  4256   0.132E-01    0.665E-01
RMM:   3    -0.413195668895E+03    0.15236E-02   -0.70832E-03  4478   0.454E-02    0.177E-01
RMM:   4    -0.413203898332E+03   -0.82294E-02   -0.88203E-03  5165   0.800E-02    0.386E-01
RMM:   5    -0.413195504737E+03    0.83936E-02   -0.42543E-03  4822   0.637E-02    0.277E-02
RMM:   6    -0.413195493202E+03    0.11536E-04   -0.68921E-04  5784   0.257E-02    0.186E-02
RMM:   7    -0.413195488695E+03    0.45072E-05   -0.11270E-04  5425   0.101E-02    0.974E-03
RMM:   8    -0.413195479103E+03    0.95916E-05   -0.17115E-05  4059   0.461E-03    0.451E-03
RMM:   9    -0.413195474937E+03    0.41659E-05   -0.28905E-06  2743   0.234E-03    0.288E-03
RMM:  10    -0.413195469235E+03    0.57023E-05   -0.71901E-07  2465   0.142E-03    0.172E-03
RMM:  11    -0.413195461987E+03    0.72476E-05   -0.54827E-07  2404   0.119E-03    0.770E-04
RMM:  12    -0.413195456515E+03    0.54725E-05   -0.30352E-07  1929   0.910E-04    0.310E-04
RMM:  13    -0.413195454140E+03    0.23747E-05   -0.14076E-07  1292   0.705E-04    0.176E-04
RMM:  14    -0.413195451284E+03    0.28560E-05   -0.93681E-08  1084   0.653E-04    0.978E-05
RMM:  15    -0.413195446193E+03    0.50913E-05   -0.93915E-08  1269   0.672E-04    0.103E-04
RMM:  16    -0.413195445022E+03    0.11705E-05   -0.47769E-08   937   0.595E-04    0.786E-05
RMM:  17    -0.413195441278E+03    0.37441E-05   -0.59938E-08  1224   0.621E-04    0.540E-05
RMM:  18    -0.413195439941E+03    0.13370E-05   -0.28649E-08   852   0.539E-04    0.298E-05
RMM:  19    -0.413195439735E+03    0.20616E-06   -0.15808E-08   688   0.513E-04
   35 T=    67. E= -.41286642E+03 F= -.41319544E+03 E0= -.41317414E+03  EK= 0.32902E+00 SP= 0.00E+00 SK= 0.00E+00
       N       E                     dE             d eps       ncg     rms          rms(c)
RMM:   1    -0.413189663779E+03    0.57762E-02   -0.12018E+01  4298   0.960E-01    0.941E-01
RMM:   2    -0.413199062823E+03   -0.93990E-02   -0.15487E-01  4254   0.123E-01    0.659E-01
RMM:   3    -0.413197886954E+03    0.11759E-02   -0.73891E-03  4826   0.467E-02    0.192E-01
RMM:   4    -0.413231029196E+03   -0.33142E-01   -0.33632E-02  5156   0.153E-01    0.758E-01
RMM:   5    -0.413197462221E+03    0.33567E-01   -0.16882E-02  4801   0.126E-01    0.407E-02
RMM:   6    -0.413197536960E+03   -0.74739E-04   -0.26924E-03  5861   0.481E-02    0.221E-02
RMM:   7    -0.413197546855E+03   -0.98950E-05   -0.27750E-04  5781   0.145E-02    0.139E-02
RMM:   8    -0.413197538559E+03    0.82957E-05   -0.41358E-05  4812   0.613E-03    0.892E-03
RMM:   9    -0.413197533441E+03    0.51184E-05   -0.14577E-05  4080   0.416E-03    0.612E-03
RMM:  10    -0.413197525148E+03    0.82928E-05   -0.24523E-06  2586   0.249E-03    0.329E-03
RMM:  11    -0.413197518802E+03    0.63463E-05   -0.15698E-06  2514   0.196E-03    0.187E-03
RMM:  12    -0.413197509271E+03    0.95304E-05   -0.10087E-06  2478   0.174E-03    0.700E-04
RMM:  13    -0.413197506373E+03    0.28978E-05   -0.37084E-07  2258   0.111E-03    0.505E-04
RMM:  14    -0.413197505477E+03    0.89617E-06   -0.15487E-07  1590   0.756E-04
   36 T=    67. E= -.41286613E+03 F= -.41319751E+03 E0= -.41317625E+03  EK= 0.33138E+00 SP= 0.00E+00 SK= 0.00E+00
       N       E                     dE             d eps       ncg     rms          rms(c)
RMM:   1    -0.413191955159E+03    0.55512E-02   -0.12079E+01  4303   0.983E-01    0.924E-01
RMM:   2    -0.413202676382E+03   -0.10721E-01   -0.16104E-01  4254   0.135E-01    0.670E-01
RMM:   3    -0.413201064832E+03    0.16115E-02   -0.71069E-03  4785   0.529E-02    0.195E-01
RMM:   4    -0.413238883229E+03   -0.37818E-01   -0.38464E-02  5162   0.164E-01    0.808E-01
RMM:   5    -0.413200520323E+03    0.38363E-01   -0.19420E-02  4802   0.135E-01    0.413E-02
RMM:   6    -0.413200611417E+03   -0.91094E-04   -0.29493E-03  5866   0.509E-02    0.218E-02
RMM:   7    -0.413200623730E+03   -0.12313E-04   -0.30158E-04  5764   0.149E-02    0.138E-02
RMM:   8    -0.413200617304E+03    0.64257E-05   -0.39565E-05  4657   0.582E-03    0.845E-03
RMM:   9    -0.413200614558E+03    0.27458E-05   -0.15805E-05  4134   0.415E-03    0.610E-03
RMM:  10    -0.413200608010E+03    0.65479E-05   -0.30071E-06  2648   0.260E-03    0.314E-03
RMM:  11    -0.413200603322E+03    0.46882E-05   -0.18271E-06  2537   0.207E-03    0.179E-03
RMM:  12    -0.413200597242E+03    0.60801E-05   -0.10271E-06  2481   0.170E-03    0.725E-04
RMM:  13    -0.413200595660E+03    0.15820E-05   -0.37134E-07  2268   0.110E-03    0.523E-04
RMM:  14    -0.413200595020E+03    0.63965E-06   -0.15617E-07  1571   0.754E-04
   37 T=    68. E= -.41286645E+03 F= -.41320060E+03 E0= -.41317938E+03  EK= 0.33414E+00 SP= 0.00E+00 SK= 0.00E+00
       N       E                     dE             d eps       ncg     rms          rms(c)
RMM:   1    -0.413194674101E+03    0.59216E-02   -0.12231E+01  4304   0.101E+00    0.944E-01
RMM:   2    -0.413205490938E+03   -0.10817E-01   -0.16083E-01  4249   0.130E-01    0.675E-01
RMM:   3    -0.413203595331E+03    0.18956E-02   -0.73727E-03  4758   0.518E-02    0.195E-01
RMM:   4    -0.413238140184E+03   -0.34545E-01   -0.34930E-02  5151   0.156E-01    0.774E-01
RMM:   5    -0.413203134712E+03    0.35005E-01   -0.17777E-02  4812   0.129E-01    0.404E-02
RMM:   6    -0.413203213191E+03   -0.78480E-04   -0.26847E-03  5858   0.486E-02    0.220E-02
RMM:   7    -0.413203222616E+03   -0.94243E-05   -0.27543E-04  5744   0.144E-02    0.134E-02
RMM:   8    -0.413203215085E+03    0.75309E-05   -0.36383E-05  4567   0.564E-03    0.800E-03
RMM:   9    -0.413203211602E+03    0.34823E-05   -0.14715E-05  4062   0.401E-03    0.593E-03
RMM:  10    -0.413203204607E+03    0.69951E-05   -0.27309E-06  2633   0.250E-03    0.313E-03
RMM:  11    -0.413203198824E+03    0.57834E-05   -0.17729E-06  2534   0.204E-03    0.175E-03
RMM:  12    -0.413203191312E+03    0.75117E-05   -0.97638E-07  2478   0.169E-03    0.726E-04
RMM:  13    -0.413203189483E+03    0.18289E-05   -0.35289E-07  2263   0.108E-03    0.518E-04
RMM:  14    -0.413203188710E+03    0.77346E-06   -0.14595E-07  1526   0.742E-04
   38 T=    69. E= -.41286650E+03 F= -.41320319E+03 E0= -.41318201E+03  EK= 0.33669E+00 SP= 0.00E+00 SK= 0.00E+00
       N       E                     dE             d eps       ncg     rms          rms(c)
RMM:   1    -0.413200264760E+03    0.29247E-02   -0.12310E+01  4303   0.107E+00    0.958E-01
RMM:   2    -0.413207212900E+03   -0.69481E-02   -0.16291E-01  4263   0.125E-01    0.668E-01
RMM:   3    -0.413206205438E+03    0.10075E-02   -0.78599E-03  4948   0.536E-02    0.219E-01
RMM:   4    -0.413255591446E+03   -0.49386E-01   -0.52213E-02  5140   0.190E-01    0.922E-01
RMM:   5    -0.413205203429E+03    0.50388E-01   -0.25086E-02  4793   0.155E-01    0.495E-02
RMM:   6    -0.413205361343E+03   -0.15791E-03   -0.39770E-03  5834   0.585E-02    0.251E-02
RMM:   7    -0.413205376122E+03   -0.14779E-04   -0.41302E-04  5849   0.173E-02    0.165E-02
RMM:   8    -0.413205372602E+03    0.35197E-05   -0.66167E-05  5093   0.732E-03    0.113E-02
RMM:   9    -0.413205360895E+03    0.11708E-04   -0.17961E-05  4280   0.458E-03    0.649E-03
RMM:  10    -0.413205351716E+03    0.91788E-05   -0.37942E-06  2671   0.278E-03    0.344E-03
RMM:  11    -0.413205344756E+03    0.69598E-05   -0.16090E-06  2499   0.206E-03    0.199E-03
RMM:  12    -0.413205335052E+03    0.97035E-05   -0.95308E-07  2471   0.171E-03    0.668E-04
RMM:  13    -0.413205330804E+03    0.42487E-05   -0.41628E-07  2298   0.116E-03    0.431E-04
RMM:  14    -0.413205328422E+03    0.23814E-05   -0.19321E-07  1810   0.814E-04    0.284E-04
RMM:  15    -0.413205320360E+03    0.80629E-05   -0.16190E-07  1803   0.778E-04    0.311E-04
RMM:  16    -0.413205319550E+03    0.80997E-06   -0.63677E-08  1025   0.582E-04
   39 T=    69. E= -.41286634E+03 F= -.41320532E+03 E0= -.41318418E+03  EK= 0.33898E+00 SP= 0.00E+00 SK= 0.00E+00
       N       E                     dE             d eps       ncg     rms          rms(c)
RMM:   1    -0.413201156278E+03    0.41641E-02   -0.12298E+01  4307   0.110E+00    0.935E-01
RMM:   2    -0.413210622064E+03   -0.94658E-02   -0.16520E-01  4262   0.132E-01    0.674E-01
RMM:   3    -0.413209482332E+03    0.11397E-02   -0.77220E-03  4983   0.550E-02    0.232E-01
RMM:   4    -0.413263343608E+03   -0.53861E-01   -0.58753E-02  5130   0.201E-01    0.963E-01
RMM:   5    -0.413208129844E+03    0.55214E-01   -0.27037E-02  4784   0.162E-01    0.518E-02
RMM:   6    -0.413208321601E+03   -0.19176E-03   -0.44672E-03  5828   0.610E-02    0.248E-02
RMM:   7    -0.413208342705E+03   -0.21104E-04   -0.45963E-04  5878   0.180E-02    0.169E-02
RMM:   8    -0.413208342216E+03    0.48854E-06   -0.73535E-05  5135   0.764E-03    0.119E-02
RMM:   9    -0.413208332048E+03    0.10168E-04   -0.18250E-05  4271   0.469E-03    0.648E-03
RMM:  10    -0.413208325680E+03    0.63676E-05   -0.42724E-06  2711   0.288E-03    0.339E-03
RMM:  11    -0.413208320974E+03    0.47064E-05   -0.17284E-06  2509   0.210E-03    0.198E-03
RMM:  12    -0.413208314744E+03    0.62291E-05   -0.94980E-07  2478   0.168E-03    0.695E-04
RMM:  13    -0.413208311889E+03    0.28559E-05   -0.41555E-07  2300   0.115E-03    0.414E-04
RMM:  14    -0.413208309826E+03    0.20621E-05   -0.20278E-07  1829   0.820E-04    0.260E-04
RMM:  15    -0.413208304385E+03    0.54419E-05   -0.16162E-07  1644   0.759E-04    0.247E-04
RMM:  16    -0.413208303811E+03    0.57358E-06   -0.69388E-08  1056   0.597E-04
   40 T=    70. E= -.41286683E+03 F= -.41320830E+03 E0= -.41318721E+03  EK= 0.34148E+00 SP= 0.00E+00 SK= 0.00E+00
       N       E                     dE             d eps       ncg     rms          rms(c)
RMM:   1    -0.413210420105E+03   -0.21157E-02   -0.12523E+01  4304   0.120E+00    0.946E-01
RMM:   2    -0.413212092270E+03   -0.16722E-02   -0.17367E-01  4268   0.139E-01    0.685E-01
RMM:   3    -0.413211546226E+03    0.54604E-03   -0.82333E-03  5041   0.585E-02    0.258E-01
RMM:   4    -0.413267022588E+03   -0.55476E-01   -0.63217E-02  5124   0.209E-01    0.981E-01
RMM:   5    -0.413209708917E+03    0.57314E-01   -0.27870E-02  4774   0.165E-01    0.539E-02
RMM:   6    -0.413209881752E+03   -0.17284E-03   -0.43559E-03  5816   0.618E-02    0.247E-02
RMM:   7    -0.413209903299E+03   -0.21547E-04   -0.47649E-04  5935   0.186E-02    0.177E-02
RMM:   8    -0.413209902720E+03    0.57860E-06   -0.80242E-05  5239   0.806E-03    0.119E-02
RMM:   9    -0.413209892016E+03    0.10704E-04   -0.16716E-05  4136   0.465E-03    0.572E-03
RMM:  10    -0.413209885887E+03    0.61295E-05   -0.43585E-06  2706   0.283E-03    0.304E-03
RMM:  11    -0.413209881529E+03    0.43580E-05   -0.15400E-06  2511   0.198E-03    0.167E-03
RMM:  12    -0.413209876129E+03    0.53999E-05   -0.79691E-07  2456   0.153E-03    0.647E-04
RMM:  13    -0.413209873231E+03    0.28975E-05   -0.37114E-07  2214   0.106E-03    0.351E-04
RMM:  14    -0.413209870450E+03    0.27817E-05   -0.19877E-07  1627   0.800E-04    0.210E-04
RMM:  15    -0.413209866374E+03    0.40761E-05   -0.14012E-07  1385   0.718E-04    0.132E-04
RMM:  16    -0.413209864977E+03    0.13967E-05   -0.79213E-08  1095   0.633E-04    0.655E-05
RMM:  17    -0.413209862766E+03    0.22112E-05   -0.63850E-08  1100   0.625E-04    0.476E-05
RMM:  18    -0.413209859494E+03    0.32718E-05   -0.61270E-08  1172   0.626E-04    0.400E-05
RMM:  19    -0.413209858961E+03    0.53253E-06   -0.28622E-08   834   0.565E-04
   41 T=    70. E= -.41286641E+03 F= -.41320986E+03 E0= -.41318880E+03  EK= 0.34345E+00 SP= 0.00E+00 SK= 0.00E+00
       N       E                     dE             d eps       ncg     rms          rms(c)
RMM:   1    -0.413222215133E+03   -0.12356E-01   -0.12677E+01  4307   0.127E+00    0.971E-01
RMM:   2    -0.413213785050E+03    0.84301E-02   -0.17787E-01  4292   0.146E-01    0.678E-01
RMM:   3    -0.413215988144E+03   -0.22031E-02   -0.10409E-02  5117   0.727E-02    0.329E-01
RMM:   4    -0.413251550167E+03   -0.35562E-01   -0.51357E-02  5094   0.190E-01    0.825E-01
RMM:   5    -0.413212250357E+03    0.39300E-01   -0.17805E-02  4737   0.138E-01    0.527E-02
RMM:   6    -0.413212310798E+03   -0.60441E-04   -0.29145E-03  5760   0.510E-02    0.235E-02
RMM:   7    -0.413212320995E+03   -0.10197E-04   -0.35610E-04  5879   0.164E-02    0.173E-02
RMM:   8    -0.413212316782E+03    0.42132E-05   -0.68524E-05  5171   0.777E-03    0.103E-02
RMM:   9    -0.413212303390E+03    0.13391E-04   -0.14025E-05  3894   0.459E-03    0.414E-03
RMM:  10    -0.413212296705E+03    0.66851E-05   -0.32316E-06  2657   0.241E-03    0.233E-03
RMM:  11    -0.413212289724E+03    0.69808E-05   -0.11297E-06  2501   0.169E-03    0.118E-03
RMM:  12    -0.413212283415E+03    0.63088E-05   -0.49665E-07  2367   0.123E-03    0.526E-04
RMM:  13    -0.413212279001E+03    0.44146E-05   -0.26100E-07  1720   0.875E-04    0.244E-04
RMM:  14    -0.413212275047E+03    0.39538E-05   -0.16319E-07  1364   0.745E-04    0.139E-04
RMM:  15    -0.413212268421E+03    0.66261E-05   -0.14331E-07  1481   0.735E-04    0.103E-04
RMM:  16    -0.413212266804E+03    0.16169E-05   -0.84429E-08  1160   0.632E-04    0.749E-05
RMM:  17    -0.413212262379E+03    0.44246E-05   -0.77409E-08  1297   0.642E-04    0.540E-05
RMM:  18    -0.413212259924E+03    0.24558E-05   -0.52189E-08  1089   0.582E-04    0.433E-05
RMM:  19    -0.413212259427E+03    0.49629E-06   -0.28888E-08   826   0.535E-04
   42 T=    70. E= -.41286671E+03 F= -.41321226E+03 E0= -.41319123E+03  EK= 0.34555E+00 SP= 0.00E+00 SK= 0.00E+00
       N       E                     dE             d eps       ncg     rms          rms(c)
RMM:   1    -0.413218034746E+03   -0.57748E-02   -0.12574E+01  4310   0.133E+00    0.946E-01
RMM:   2    -0.413215488057E+03    0.25467E-02   -0.17101E-01  4302   0.152E-01    0.677E-01
RMM:   3    -0.413219055575E+03   -0.35675E-02   -0.11412E-02  5106   0.820E-02    0.360E-01
RMM:   4    -0.413247882934E+03   -0.28827E-01   -0.48320E-02  5059   0.186E-01    0.768E-01
RMM:   5    -0.413214057690E+03    0.33825E-01   -0.14715E-02  4706   0.128E-01    0.507E-02
RMM:   6    -0.413214085573E+03   -0.27883E-04   -0.24622E-03  5730   0.471E-02    0.225E-02
RMM:   7    -0.413214091869E+03   -0.62962E-05   -0.30003E-04  5860   0.155E-02    0.168E-02
RMM:   8    -0.413214087856E+03    0.40129E-05   -0.60635E-05  5114   0.747E-03    0.955E-03
RMM:   9    -0.413214076432E+03    0.11424E-04   -0.13221E-05  3785   0.454E-03    0.388E-03
RMM:  10    -0.413214071586E+03    0.48457E-05   -0.27752E-06  2634   0.231E-03    0.217E-03
RMM:  11    -0.413214066072E+03    0.55140E-05   -0.11652E-06  2505   0.168E-03    0.114E-03
RMM:  12    -0.413214061622E+03    0.44501E-05   -0.49140E-07  2367   0.120E-03    0.516E-04
RMM:  13    -0.413214058278E+03    0.33439E-05   -0.26700E-07  1626   0.853E-04    0.239E-04
RMM:  14    -0.413214055384E+03    0.28943E-05   -0.17117E-07  1324   0.736E-04    0.130E-04
RMM:  15    -0.413214050474E+03    0.49096E-05   -0.14825E-07  1330   0.718E-04    0.831E-05
RMM:  16    -0.413214048680E+03    0.17942E-05   -0.90473E-08  1130   0.648E-04    0.617E-05
RMM:  17    -0.413214045748E+03    0.29319E-05   -0.77289E-08  1218   0.641E-04    0.493E-05
RMM:  18    -0.413214043364E+03    0.23847E-05   -0.58504E-08  1115   0.596E-04    0.446E-05
RMM:  19    -0.413214042830E+03    0.53318E-06   -0.31909E-08   821   0.538E-04
   43 T=    71. E= -.41286672E+03 F= -.41321404E+03 E0= -.41319304E+03  EK= 0.34733E+00 SP= 0.00E+00 SK= 0.00E+00
       N       E                     dE             d eps       ncg     rms          rms(c)
RMM:   1    -0.413243397387E+03   -0.29354E-01   -0.12937E+01  4311   0.149E+00    0.946E-01
RMM:   2    -0.413216614260E+03    0.26783E-01   -0.20521E-01  4313   0.172E-01    0.695E-01
RMM:   3    -0.413221257817E+03   -0.46436E-02   -0.12177E-02  5093   0.901E-02    0.414E-01
RMM:   4    -0.413248393499E+03   -0.27136E-01   -0.50413E-02  5059   0.190E-01    0.770E-01
RMM:   5    -0.413214869385E+03    0.33524E-01   -0.14749E-02  4694   0.131E-01    0.547E-02
RMM:   6    -0.413214878639E+03   -0.92539E-05   -0.24736E-03  5689   0.475E-02    0.233E-02
RMM:   7    -0.413214885377E+03   -0.67383E-05   -0.30733E-04  5898   0.159E-02    0.176E-02
RMM:   8    -0.413214880755E+03    0.46224E-05   -0.59268E-05  5113   0.744E-03    0.989E-03
RMM:   9    -0.413214870074E+03    0.10681E-04   -0.15312E-05  3918   0.493E-03    0.423E-03
RMM:  10    -0.413214866189E+03    0.38847E-05   -0.30895E-06  2660   0.239E-03    0.242E-03
RMM:  11    -0.413214861942E+03    0.42466E-05   -0.16166E-06  2551   0.188E-03    0.131E-03
RMM:  12    -0.413214858954E+03    0.29883E-05   -0.54840E-07  2436   0.130E-03    0.630E-04
RMM:  13    -0.413214856023E+03    0.29314E-05   -0.32075E-07  1655   0.908E-04    0.323E-04
RMM:  14    -0.413214853546E+03    0.24764E-05   -0.20957E-07  1419   0.785E-04    0.169E-04
RMM:  15    -0.413214850794E+03    0.27520E-05   -0.15437E-07  1341   0.722E-04    0.901E-05
RMM:  16    -0.413214848286E+03    0.25081E-05   -0.11378E-07  1222   0.672E-04    0.517E-05
RMM:  17    -0.413214846296E+03    0.19901E-05   -0.82365E-08  1158   0.632E-04    0.495E-05
RMM:  18    -0.413214844370E+03    0.19264E-05   -0.59597E-08  1030   0.593E-04    0.372E-05
RMM:  19    -0.413214843436E+03    0.93388E-06   -0.39850E-08   880   0.558E-04
   44 T=    71. E= -.41286635E+03 F= -.41321484E+03 E0= -.41319387E+03  EK= 0.34849E+00 SP= 0.00E+00 SK= 0.00E+00
       N       E                     dE             d eps       ncg     rms          rms(c)
RMM:   1    -0.413225826054E+03   -0.10982E-01   -0.12790E+01  4307   0.151E+00    0.976E-01
RMM:   2    -0.413217321734E+03    0.85043E-02   -0.18063E-01  4348   0.178E-01    0.685E-01
RMM:   3    -0.413228479871E+03   -0.11158E-01   -0.18211E-02  5146   0.114E-01    0.512E-01
RMM:   4    -0.413233534958E+03   -0.50551E-02   -0.38848E-02  5017   0.171E-01    0.565E-01
RMM:   5    -0.413216463363E+03    0.17072E-01   -0.65407E-03  4585   0.975E-02    0.462E-02
RMM:   6    -0.413216423458E+03    0.39904E-04   -0.12156E-03  5427   0.338E-02    0.214E-02
RMM:   7    -0.413216420559E+03    0.28998E-05   -0.14999E-04  5661   0.118E-02    0.156E-02
RMM:   8    -0.413216413105E+03    0.74537E-05   -0.53411E-05  5062   0.739E-03    0.839E-03
RMM:   9    -0.413216397864E+03    0.15241E-04   -0.12294E-05  3824   0.463E-03    0.353E-03
RMM:  10    -0.413216393494E+03    0.43702E-05   -0.17562E-06  2567   0.203E-03    0.189E-03
RMM:  11    -0.413216386203E+03    0.72905E-05   -0.11001E-06  2504   0.161E-03    0.112E-03
RMM:  12    -0.413216380651E+03    0.55524E-05   -0.43848E-07  2357   0.116E-03    0.513E-04
RMM:  13    -0.413216376439E+03    0.42120E-05   -0.22342E-07  1532   0.795E-04    0.233E-04
RMM:  14    -0.413216372843E+03    0.35958E-05   -0.14241E-07  1263   0.687E-04    0.131E-04
RMM:  15    -0.413216366262E+03    0.65811E-05   -0.13595E-07  1330   0.698E-04    0.105E-04
RMM:  16    -0.413216363999E+03    0.22634E-05   -0.73138E-08  1021   0.608E-04    0.886E-05
RMM:  17    -0.413216360906E+03    0.30926E-05   -0.60046E-08  1069   0.599E-04    0.564E-05
RMM:  18    -0.413216357803E+03    0.31033E-05   -0.53763E-08  1110   0.589E-04    0.501E-05
RMM:  19    -0.413216357488E+03    0.31480E-06   -0.25089E-08   735   0.512E-04
   45 T=    71. E= -.41286682E+03 F= -.41321636E+03 E0= -.41319541E+03  EK= 0.34954E+00 SP= 0.00E+00 SK= 0.00E+00
       N       E                     dE             d eps       ncg     rms          rms(c)
RMM:   1    -0.413229893829E+03   -0.13536E-01   -0.12729E+01  4307   0.161E+00    0.957E-01
RMM:   2    -0.413217153975E+03    0.12740E-01   -0.18149E-01  4361   0.189E-01    0.681E-01
RMM:   3    -0.413230819167E+03   -0.13665E-01   -0.20249E-02  5136   0.124E-01    0.556E-01
RMM:   4    -0.413230715458E+03    0.10371E-03   -0.37942E-02  5004   0.171E-01    0.525E-01
RMM:   5    -0.413216326931E+03    0.14389E-01   -0.55667E-03  4558   0.935E-02    0.461E-02
RMM:   6    -0.413216266832E+03    0.60098E-04   -0.94129E-04  5214   0.309E-02    0.209E-02
RMM:   7    -0.413216263349E+03    0.34836E-05   -0.12032E-04  5700   0.105E-02    0.138E-02
RMM:   8    -0.413216260121E+03    0.32280E-05   -0.61537E-05  5183   0.780E-03    0.927E-03
RMM:   9    -0.413216244769E+03    0.15352E-04   -0.16985E-05  4263   0.522E-03    0.383E-03
RMM:  10    -0.413216241365E+03    0.34035E-05   -0.21639E-06  2602   0.216E-03    0.204E-03
RMM:  11    -0.413216235413E+03    0.59525E-05   -0.13108E-06  2492   0.181E-03    0.121E-03
RMM:  12    -0.413216230623E+03    0.47898E-05   -0.50177E-07  2393   0.128E-03    0.634E-04
RMM:  13    -0.413216226717E+03    0.39060E-05   -0.23027E-07  1598   0.844E-04    0.299E-04
RMM:  14    -0.413216223044E+03    0.36726E-05   -0.13028E-07  1230   0.700E-04    0.146E-04
RMM:  15    -0.413216217509E+03    0.55356E-05   -0.12206E-07  1304   0.691E-04    0.137E-04
RMM:  16    -0.413216215673E+03    0.18354E-05   -0.58245E-08   892   0.576E-04    0.107E-04
RMM:  17    -0.413216212006E+03    0.36677E-05   -0.57768E-08  1007   0.589E-04    0.683E-05
RMM:  18    -0.413216209505E+03    0.25009E-05   -0.44024E-08   952   0.562E-04    0.458E-05
RMM:  19    -0.413216208741E+03    0.76399E-06   -0.21264E-08   683   0.513E-04
   46 T=    71. E= -.41286677E+03 F= -.41321621E+03 E0= -.41319528E+03  EK= 0.34944E+00 SP= 0.00E+00 SK= 0.00E+00
       N       E                     dE             d eps       ncg     rms          rms(c)
RMM:   1    -0.413252917028E+03   -0.36708E-01   -0.12986E+01  4309   0.176E+00    0.943E-01
RMM:   2    -0.413216685381E+03    0.36232E-01   -0.21146E-01  4379   0.206E-01    0.697E-01
RMM:   3    -0.413229910867E+03   -0.13225E-01   -0.19786E-02  5135   0.125E-01    0.575E-01
RMM:   4    -0.413231456612E+03   -0.15457E-02   -0.40516E-02  5009   0.176E-01    0.563E-01
RMM:   5    -0.413215172028E+03    0.16285E-01   -0.67891E-03  4567   0.102E-01    0.504E-02
RMM:   6    -0.413215101069E+03    0.70959E-04   -0.10947E-03  5258   0.337E-02    0.224E-02
RMM:   7    -0.413215098530E+03    0.25393E-05   -0.14687E-04  5774   0.117E-02    0.161E-02
RMM:   8    -0.413215093462E+03    0.50685E-05   -0.59594E-05  5185   0.770E-03    0.946E-03
RMM:   9    -0.413215079490E+03    0.13972E-04   -0.16673E-05  4188   0.530E-03    0.418E-03
RMM:  10    -0.413215076627E+03    0.28624E-05   -0.22466E-06  2600   0.219E-03    0.221E-03
RMM:  11    -0.413215072600E+03    0.40275E-05   -0.15651E-06  2525   0.191E-03    0.136E-03
RMM:  12    -0.413215069511E+03    0.30889E-05   -0.52203E-07  2429   0.133E-03    0.690E-04
RMM:  13    -0.413215066511E+03    0.30000E-05   -0.26328E-07  1672   0.873E-04    0.300E-04
RMM:  14    -0.413215064048E+03    0.24625E-05   -0.16178E-07  1318   0.728E-04    0.153E-04
RMM:  15    -0.413215060610E+03    0.34383E-05   -0.14410E-07  1331   0.705E-04    0.989E-05
RMM:  16    -0.413215058961E+03    0.16486E-05   -0.77622E-08   994   0.601E-04    0.785E-05
RMM:  17    -0.413215056762E+03    0.21990E-05   -0.63354E-08   995   0.586E-04    0.434E-05
RMM:  18    -0.413215055239E+03    0.15237E-05   -0.45976E-08   889   0.555E-04    0.334E-05
RMM:  19    -0.413215054745E+03    0.49337E-06   -0.25961E-08   708   0.522E-04
   47 T=    71. E= -.41286688E+03 F= -.41321505E+03 E0= -.41319415E+03  EK= 0.34817E+00 SP= 0.00E+00 SK= 0.00E+00
       N       E                     dE             d eps       ncg     rms          rms(c)
RMM:   1    -0.413260022916E+03   -0.44968E-01   -0.13018E+01  4305   0.190E+00    0.968E-01
RMM:   2    -0.413213785408E+03    0.46238E-01   -0.20643E-01  4485   0.209E-01    0.690E-01
RMM:   3    -0.413236193394E+03   -0.22408E-01   -0.28325E-02  5150   0.150E-01    0.693E-01
RMM:   4    -0.413221950771E+03    0.14243E-01   -0.37866E-02  4966   0.174E-01    0.446E-01
RMM:   5    -0.413212850025E+03    0.91007E-02   -0.46947E-03  4542   0.903E-02    0.545E-02
RMM:   6    -0.413212698063E+03    0.15196E-03   -0.48713E-04  4751   0.282E-02    0.241E-02
RMM:   7    -0.413212698786E+03   -0.72302E-06   -0.15156E-04  5914   0.123E-02    0.170E-02
RMM:   8    -0.413212683257E+03    0.15529E-04   -0.48796E-05  5060   0.764E-03    0.986E-03
RMM:   9    -0.413212669556E+03    0.13700E-04   -0.12703E-05  3771   0.464E-03    0.482E-03
RMM:  10    -0.413212664369E+03    0.51876E-05   -0.22305E-06  2569   0.241E-03    0.236E-03
RMM:  11    -0.413212658816E+03    0.55526E-05   -0.16467E-06  2509   0.200E-03    0.160E-03
RMM:  12    -0.413212654098E+03    0.47178E-05   -0.57000E-07  2400   0.138E-03    0.797E-04
RMM:  13    -0.413212649497E+03    0.46017E-05   -0.28457E-07  1849   0.902E-04    0.402E-04
RMM:  14    -0.413212644688E+03    0.48083E-05   -0.17561E-07  1465   0.738E-04    0.201E-04
RMM:  15    -0.413212639581E+03    0.51077E-05   -0.14108E-07  1372   0.680E-04    0.152E-04
RMM:  16    -0.413212637151E+03    0.24299E-05   -0.80798E-08  1078   0.583E-04    0.121E-04
RMM:  17    -0.413212634130E+03    0.30207E-05   -0.63110E-08  1009   0.570E-04    0.491E-05
RMM:  18    -0.413212632084E+03    0.20460E-05   -0.43922E-08   942   0.554E-04    0.501E-05
RMM:  19    -0.413212631092E+03    0.99188E-06   -0.26232E-08   781   0.520E-04
   48 T=    70. E= -.41286719E+03 F= -.41321263E+03 E0= -.41319174E+03  EK= 0.34544E+00 SP= 0.00E+00 SK= 0.00E+00
       N       E                     dE             d eps       ncg     rms          rms(c)
RMM:   1    -0.413261404002E+03   -0.48772E-01   -0.12849E+01  4305   0.203E+00    0.957E-01
RMM:   2    -0.413208481907E+03    0.52922E-01   -0.20123E-01  4524   0.220E-01    0.678E-01
RMM:   3    -0.413237496106E+03   -0.29014E-01   -0.34338E-02  5160   0.166E-01    0.771E-01
RMM:   4    -0.413213738748E+03    0.23757E-01   -0.37541E-02  4932   0.177E-01    0.387E-01
RMM:   5    -0.413207708298E+03    0.60304E-02   -0.48083E-03  4746   0.916E-02    0.663E-02
RMM:   6    -0.413207451333E+03    0.25697E-03   -0.49774E-04  4662   0.311E-02    0.281E-02
RMM:   7    -0.413207445736E+03    0.55972E-05   -0.13799E-04  5725   0.126E-02    0.189E-02
RMM:   8    -0.413207428628E+03    0.17108E-04   -0.33006E-05  4781   0.639E-03    0.990E-03
RMM:   9    -0.413207414129E+03    0.14499E-04   -0.12757E-05  3363   0.435E-03    0.420E-03
RMM:  10    -0.413207408086E+03    0.60431E-05   -0.23910E-06  2610   0.244E-03    0.238E-03
RMM:  11    -0.413207400738E+03    0.73475E-05   -0.11961E-06  2500   0.179E-03    0.140E-03
RMM:  12    -0.413207395856E+03    0.48822E-05   -0.48994E-07  2421   0.122E-03    0.645E-04
RMM:  13    -0.413207390666E+03    0.51903E-05   -0.30147E-07  1783   0.886E-04    0.346E-04
RMM:  14    -0.413207386105E+03    0.45613E-05   -0.20084E-07  1480   0.768E-04    0.236E-04
RMM:  15    -0.413207380748E+03    0.53568E-05   -0.16637E-07  1431   0.726E-04    0.137E-04
RMM:  16    -0.413207378808E+03    0.19400E-05   -0.92243E-08  1144   0.625E-04    0.982E-05
RMM:  17    -0.413207375322E+03    0.34857E-05   -0.84383E-08  1253   0.624E-04    0.513E-05
RMM:  18    -0.413207374027E+03    0.12955E-05   -0.47760E-08   966   0.559E-04    0.416E-05
RMM:  19    -0.413207373159E+03    0.86749E-06   -0.30143E-08   829   0.535E-04
   49 T=    69. E= -.41286693E+03 F= -.41320737E+03 E0= -.41318649E+03  EK= 0.34045E+00 SP= 0.00E+00 SK= 0.00E+00
       N       E                     dE             d eps       ncg     rms          rms(c)
RMM:   1    -0.413243759572E+03   -0.36386E-01   -0.12502E+01  4305   0.208E+00    0.921E-01
RMM:   2    -0.413202307193E+03    0.41452E-01   -0.22360E-01  4527   0.235E-01    0.686E-01
RMM:   3    -0.413227355054E+03   -0.25048E-01   -0.30432E-02  5155   0.160E-01    0.748E-01
RMM:   4    -0.413208149804E+03    0.19205E-01   -0.37009E-02  4938   0.175E-01    0.426E-01
RMM:   5    -0.413200919276E+03    0.72305E-02   -0.56661E-03  4667   0.959E-02    0.681E-02
RMM:   6    -0.413200659885E+03    0.25939E-03   -0.52891E-04  4649   0.322E-02    0.289E-02
RMM:   7    -0.413200656111E+03    0.37744E-05   -0.15055E-04  5827   0.129E-02    0.197E-02
RMM:   8    -0.413200639724E+03    0.16387E-04   -0.37685E-05  4915   0.662E-03    0.109E-02
RMM:   9    -0.413200626725E+03    0.12998E-04   -0.16379E-05  3625   0.483E-03    0.461E-03
RMM:  10    -0.413200621717E+03    0.50083E-05   -0.31833E-06  2678   0.272E-03    0.257E-03
RMM:  11    -0.413200616954E+03    0.47634E-05   -0.16110E-06  2530   0.201E-03    0.165E-03
RMM:  12    -0.413200613270E+03    0.36835E-05   -0.57501E-07  2454   0.135E-03    0.769E-04
RMM:  13    -0.413200609735E+03    0.35350E-05   -0.32620E-07  1850   0.920E-04    0.382E-04
RMM:  14    -0.413200606462E+03    0.32735E-05   -0.23840E-07  1680   0.798E-04    0.281E-04
RMM:  15    -0.413200602936E+03    0.35259E-05   -0.18900E-07  1403   0.714E-04    0.140E-04
RMM:  16    -0.413200601415E+03    0.15208E-05   -0.10166E-07  1152   0.619E-04    0.837E-05
RMM:  17    -0.413200599856E+03    0.15588E-05   -0.78803E-08  1096   0.598E-04    0.460E-05
RMM:  18    -0.413200598952E+03    0.90426E-06   -0.52816E-08   989   0.566E-04
   50 T=    68. E= -.41286722E+03 F= -.41320060E+03 E0= -.41317973E+03  EK= 0.33338E+00 SP= 0.00E+00 SK= 0.00E+00
       N       E                     dE             d eps       ncg     rms          rms(c)
RMM:   1    -0.413226093070E+03   -0.25493E-01   -0.12141E+01  4301   0.216E+00    0.931E-01
[...]
RMM:   4    -0.413194527390E+03   -0.33928E-01   -0.39653E-02  5127   0.166E-01    0.772E-01
RMM:   5    -0.413159464889E+03    0.35063E-01   -0.16535E-02  4787   0.129E-01    0.566E-02
RMM:   6    -0.413159490582E+03   -0.25693E-04   -0.28271E-03  5666   0.509E-02    0.302E-02
RMM:   7    -0.413159519913E+03   -0.29331E-04   -0.41353E-04  5968   0.173E-02    0.179E-02
RMM:   8    -0.413159524715E+03   -0.48019E-05   -0.67193E-05  5301   0.862E-03    0.882E-03
RMM:   9    -0.413159524449E+03    0.26552E-06   -0.10824E-05  3546   0.385E-03    0.446E-03
RMM:  10    -0.413159527292E+03   -0.28424E-05   -0.30257E-06  2672   0.235E-03    0.302E-03
RMM:  11    -0.413159529264E+03   -0.19720E-05   -0.15105E-06  2529   0.184E-03    0.157E-03
RMM:  12    -0.413159530022E+03   -0.75866E-06   -0.13152E-06  2526   0.157E-03
  135 T=    60. E= -.41286708E+03 F= -.41315953E+03 E0= -.41313876E+03  EK= 0.29245E+00 SP= 0.00E+00 SK= 0.00E+00
       N       E                     dE             d eps       ncg     rms          rms(c)
RMM:   1    -0.413159365691E+03    0.16357E-03   -0.80513E+00  4278   0.731E-01    0.820E-01
RMM:   2    -0.413164482910E+03   -0.51172E-02   -0.99771E-02  4302   0.882E-02    0.607E-01
RMM:   3    -0.413161700029E+03    0.27829E-02   -0.15556E-02  4986   0.546E-02    0.141E-01
RMM:   4    -0.413193477970E+03   -0.31778E-01   -0.36445E-02  5129   0.159E-01    0.748E-01
RMM:   5    -0.413160663280E+03    0.32815E-01   -0.15595E-02  4795   0.125E-01    0.539E-02
RMM:   6    -0.413160704656E+03   -0.41375E-04   -0.26405E-03  5689   0.495E-02    0.299E-02
RMM:   7    -0.413160737351E+03   -0.32696E-04   -0.39197E-04  5926   0.171E-02    0.175E-02
RMM:   8    -0.413160746783E+03   -0.94319E-05   -0.58415E-05  5232   0.813E-03    0.827E-03
RMM:   9    -0.413160750302E+03   -0.35188E-05   -0.10272E-05  3441   0.366E-03    0.460E-03
RMM:  10    -0.413160757426E+03   -0.71240E-05   -0.26515E-06  2626   0.226E-03    0.300E-03
RMM:  11    -0.413160763389E+03   -0.59629E-05   -0.15118E-06  2537   0.177E-03    0.152E-03
RMM:  12    -0.413160768666E+03   -0.52767E-05   -0.16359E-06  2564   0.166E-03    0.676E-04
RMM:  13    -0.413160769722E+03   -0.10566E-05   -0.58402E-07  2160   0.110E-03    0.459E-04
RMM:  14    -0.413160770053E+03   -0.33084E-06   -0.33623E-07  1740   0.865E-04
  136 T=    60. E= -.41286745E+03 F= -.41316077E+03 E0= -.41314001E+03  EK= 0.29332E+00 SP= 0.00E+00 SK= 0.00E+00
       N       E                     dE             d eps       ncg     rms          rms(c)
RMM:   1    -0.413161500429E+03   -0.73071E-03   -0.76625E+00  4268   0.718E-01    0.835E-01
RMM:   2    -0.413165051409E+03   -0.35510E-02   -0.95270E-02  4306   0.872E-02    0.614E-01
RMM:   3    -0.413162211112E+03    0.28403E-02   -0.19362E-02  5009   0.593E-02    0.158E-01
RMM:   4    -0.413192666095E+03   -0.30455E-01   -0.36283E-02  5118   0.160E-01    0.736E-01
RMM:   5    -0.413160898534E+03    0.31768E-01   -0.14964E-02  4783   0.123E-01    0.557E-02
RMM:   6    -0.413160912498E+03   -0.13964E-04   -0.25278E-03  5653   0.489E-02    0.305E-02
RMM:   7    -0.413160942260E+03   -0.29763E-04   -0.38840E-04  5932   0.171E-02    0.181E-02
RMM:   8    -0.413160948573E+03   -0.63123E-05   -0.60571E-05  5284   0.847E-03    0.862E-03
RMM:   9    -0.413160950262E+03   -0.16896E-05   -0.97221E-06  3417   0.369E-03    0.445E-03
RMM:  10    -0.413160955284E+03   -0.50218E-05   -0.27197E-06  2634   0.231E-03    0.289E-03
RMM:  11    -0.413160959393E+03   -0.41085E-05   -0.15419E-06  2540   0.182E-03    0.147E-03
RMM:  12    -0.413160962128E+03   -0.27354E-05   -0.13823E-06  2532   0.158E-03    0.660E-04
RMM:  13    -0.413160962570E+03   -0.44248E-06   -0.57355E-07  2150   0.108E-03
  137 T=    60. E= -.41286729E+03 F= -.41316096E+03 E0= -.41314022E+03  EK= 0.29367E+00 SP= 0.00E+00 SK= 0.00E+00
       N       E                     dE             d eps       ncg     rms          rms(c)
RMM:   1    -0.413163058184E+03   -0.20961E-02   -0.71939E+00  4265   0.700E-01    0.848E-01
RMM:   2    -0.413164910609E+03   -0.18524E-02   -0.90291E-02  4307   0.853E-02    0.611E-01
RMM:   3    -0.413161478966E+03    0.34316E-02   -0.21806E-02  4961   0.561E-02    0.137E-01
RMM:   4    -0.413188034046E+03   -0.26555E-01   -0.30273E-02  5124   0.146E-01    0.687E-01
RMM:   5    -0.413160529915E+03    0.27504E-01   -0.13185E-02  4800   0.114E-01    0.525E-02
RMM:   6    -0.413160562150E+03   -0.32235E-04   -0.23059E-03  5671   0.465E-02    0.327E-02
RMM:   7    -0.413160569988E+03   -0.78378E-05   -0.37197E-04  5770   0.174E-02    0.188E-02
RMM:   8    -0.413160569917E+03    0.70751E-07   -0.51314E-05  5246   0.793E-03    0.851E-03
RMM:   9    -0.413160568896E+03    0.10211E-05   -0.89756E-06  3331   0.345E-03    0.493E-03
RMM:  10    -0.413160569356E+03   -0.45978E-06   -0.23230E-06  2595   0.225E-03
  138 T=    60. E= -.41286728E+03 F= -.41316057E+03 E0= -.41313984E+03  EK= 0.29329E+00 SP= 0.00E+00 SK= 0.00E+00
       N       E                     dE             d eps       ncg     rms          rms(c)
RMM:   1    -0.413165116376E+03   -0.45475E-02   -0.67649E+00  4285   0.688E-01    0.831E-01
RMM:   2    -0.413166416841E+03   -0.13005E-02   -0.85320E-02  4314   0.826E-02    0.611E-01
RMM:   3    -0.413164469719E+03    0.19471E-02   -0.29045E-02  5056   0.738E-02    0.246E-01
RMM:   4    -0.413187116536E+03   -0.22647E-01   -0.34162E-02  5093   0.157E-01    0.666E-01
RMM:   5    -0.413161474526E+03    0.25642E-01   -0.11637E-02  4747   0.112E-01    0.557E-02
RMM:   6    -0.413161447421E+03    0.27105E-04   -0.20018E-03  5521   0.443E-02    0.293E-02
RMM:   7    -0.413161482896E+03   -0.35475E-04   -0.34211E-04  5995   0.163E-02    0.181E-02
RMM:   8    -0.413161488376E+03   -0.54797E-05   -0.59119E-05  5272   0.856E-03    0.853E-03
RMM:   9    -0.413161489940E+03   -0.15640E-05   -0.83935E-06  3314   0.362E-03    0.404E-03
RMM:  10    -0.413161493622E+03   -0.36828E-05   -0.21290E-06  2583   0.216E-03    0.259E-03
RMM:  11    -0.413161497863E+03   -0.42401E-05   -0.19308E-06  2559   0.193E-03    0.142E-03
RMM:  12    -0.413161499306E+03   -0.14435E-05   -0.12688E-06  2520   0.152E-03    0.665E-04
RMM:  13    -0.413161499380E+03   -0.73938E-07   -0.58069E-07  2109   0.106E-03
  139 T=    60. E= -.41286755E+03 F= -.41316150E+03 E0= -.41314078E+03  EK= 0.29395E+00 SP= 0.00E+00 SK= 0.00E+00
       N       E                     dE             d eps       ncg     rms          rms(c)
RMM:   1    -0.413167116900E+03   -0.56176E-02   -0.64525E+00  4264   0.672E-01    0.845E-01
RMM:   2    -0.413167159160E+03   -0.42260E-04   -0.81568E-02  4307   0.803E-02    0.621E-01
RMM:   3    -0.413163256985E+03    0.39022E-02   -0.34709E-02  4939   0.647E-02    0.209E-01
RMM:   4    -0.413183592025E+03   -0.20335E-01   -0.25003E-02  5104   0.134E-01    0.617E-01
RMM:   5    -0.413161651331E+03    0.21941E-01   -0.10709E-02  4780   0.104E-01    0.481E-02
RMM:   6    -0.413161680788E+03   -0.29457E-04   -0.18108E-03  5641   0.418E-02    0.297E-02
RMM:   7    -0.413161694066E+03   -0.13278E-04   -0.30241E-04  5761   0.156E-02    0.173E-02
RMM:   8    -0.413161700527E+03   -0.64619E-05   -0.41492E-05  5081   0.710E-03    0.742E-03
RMM:   9    -0.413161703555E+03   -0.30271E-05   -0.71860E-06  3165   0.315E-03    0.423E-03
RMM:  10    -0.413161709109E+03   -0.55547E-05   -0.19614E-06  2558   0.206E-03    0.254E-03
RMM:  11    -0.413161713100E+03   -0.39904E-05   -0.13424E-06  2520   0.162E-03    0.121E-03
RMM:  12    -0.413161715691E+03   -0.25918E-05   -0.13234E-06  2515   0.144E-03    0.672E-04
RMM:  13    -0.413161715943E+03   -0.25137E-06   -0.52388E-07  2013   0.999E-04
  140 T=    60. E= -.41286720E+03 F= -.41316172E+03 E0= -.41314101E+03  EK= 0.29452E+00 SP= 0.00E+00 SK= 0.00E+00
       N       E                     dE             d eps       ncg     rms          rms(c)
RMM:   1    -0.413169189553E+03   -0.74739E-02   -0.60527E+00  4266   0.654E-01    0.865E-01
RMM:   2    -0.413167468042E+03    0.17215E-02   -0.77819E-02  4306   0.776E-02    0.619E-01
RMM:   3    -0.413163359254E+03    0.41088E-02   -0.36490E-02  4992   0.600E-02    0.197E-01
RMM:   4    -0.413182737147E+03   -0.19378E-01   -0.23790E-02  5105   0.131E-01    0.602E-01
RMM:   5    -0.413161860018E+03    0.20877E-01   -0.10211E-02  4781   0.101E-01    0.477E-02
RMM:   6    -0.413161876081E+03   -0.16063E-04   -0.17395E-03  5631   0.408E-02    0.300E-02
RMM:   7    -0.413161892671E+03   -0.16590E-04   -0.29200E-04  5723   0.156E-02    0.181E-02
RMM:   8    -0.413161891655E+03    0.10161E-05   -0.44145E-05  5086   0.737E-03    0.773E-03
RMM:   9    -0.413161890502E+03    0.11527E-05   -0.74939E-06  3161   0.319E-03    0.415E-03
RMM:  10    -0.413161889878E+03    0.62384E-06   -0.20583E-06  2562   0.207E-03
  141 T=    60. E= -.41286760E+03 F= -.41316189E+03 E0= -.41314119E+03  EK= 0.29429E+00 SP= 0.00E+00 SK= 0.00E+00
       N       E                     dE             d eps       ncg     rms          rms(c)
RMM:   1    -0.413171326659E+03   -0.94362E-02   -0.57336E+00  4274   0.658E-01    0.850E-01
RMM:   2    -0.413168124882E+03    0.32018E-02   -0.75075E-02  4319   0.757E-02    0.615E-01
RMM:   3    -0.413164887963E+03    0.32369E-02   -0.42469E-02  5056   0.697E-02    0.264E-01
RMM:   4    -0.413182907319E+03   -0.18019E-01   -0.26284E-02  5085   0.138E-01    0.604E-01
RMM:   5    -0.413162159472E+03    0.20748E-01   -0.10323E-02  4760   0.103E-01    0.485E-02
RMM:   6    -0.413162157867E+03    0.16046E-05   -0.16521E-03  5551   0.399E-02    0.272E-02
RMM:   7    -0.413162193625E+03   -0.35758E-04   -0.27101E-04  5860   0.150E-02    0.173E-02
RMM:   8    -0.413162196904E+03   -0.32783E-05   -0.47931E-05  5171   0.762E-03    0.756E-03
RMM:   9    -0.413162197135E+03   -0.23108E-06   -0.73550E-06  3116   0.327E-03
  142 T=    60. E= -.41286765E+03 F= -.41316220E+03 E0= -.41314151E+03  EK= 0.29455E+00 SP= 0.00E+00 SK= 0.00E+00
       N       E                     dE             d eps       ncg     rms          rms(c)
RMM:   1    -0.413171870804E+03   -0.96739E-02   -0.55797E+00  4266   0.639E-01    0.857E-01
RMM:   2    -0.413169258568E+03    0.26122E-02   -0.71814E-02  4323   0.749E-02    0.623E-01
RMM:   3    -0.413167240147E+03    0.20184E-02   -0.50192E-02  5098   0.803E-02    0.336E-01
RMM:   4    -0.413179805007E+03   -0.12565E-01   -0.24529E-02  5067   0.134E-01    0.557E-01
RMM:   5    -0.413162952295E+03    0.16853E-01   -0.92596E-03  4732   0.958E-02    0.478E-02
RMM:   6    -0.413162929837E+03    0.22459E-04   -0.12950E-03  5409   0.357E-02    0.246E-02
RMM:   7    -0.413162966944E+03   -0.37107E-04   -0.22993E-04  5896   0.138E-02    0.159E-02
RMM:   8    -0.413162976136E+03   -0.91921E-05   -0.45434E-05  5201   0.758E-03    0.701E-03
RMM:   9    -0.413162979793E+03   -0.36567E-05   -0.65418E-06  3005   0.320E-03    0.373E-03
RMM:  10    -0.413162983689E+03   -0.38966E-05   -0.16422E-06  2534   0.192E-03    0.242E-03
RMM:  11    -0.413162988672E+03   -0.49824E-05   -0.21215E-06  2550   0.177E-03    0.117E-03
RMM:  12    -0.413162989713E+03   -0.10412E-05   -0.84945E-07  2372   0.125E-03    0.532E-04
RMM:  13    -0.413162990133E+03   -0.41991E-06   -0.54759E-07  1915   0.959E-04
  143 T=    60. E= -.41286754E+03 F= -.41316299E+03 E0= -.41314231E+03  EK= 0.29545E+00 SP= 0.00E+00 SK= 0.00E+00
       N       E                     dE             d eps       ncg     rms          rms(c)
RMM:   1    -0.413173748567E+03   -0.10759E-01   -0.53459E+00  4264   0.626E-01    0.879E-01
RMM:   2    -0.413169677662E+03    0.40709E-02   -0.69999E-02  4308   0.751E-02    0.624E-01
RMM:   3    -0.413165340492E+03    0.43372E-02   -0.48105E-02  4967   0.649E-02    0.246E-01
RMM:   4    -0.413179189166E+03   -0.13849E-01   -0.18571E-02  5100   0.117E-01    0.527E-01
RMM:   5    -0.413163413518E+03    0.15776E-01   -0.81272E-03  4782   0.898E-02    0.421E-02
RMM:   6    -0.413163414659E+03   -0.11410E-05   -0.12769E-03  5590   0.352E-02    0.251E-02
RMM:   7    -0.413163435675E+03   -0.21016E-04   -0.20441E-04  5648   0.131E-02    0.157E-02
RMM:   8    -0.413163441181E+03   -0.55059E-05   -0.36550E-05  4830   0.663E-03    0.633E-03
RMM:   9    -0.413163441159E+03    0.22243E-07   -0.61160E-06  3000   0.293E-03
  144 T=    60. E= -.41286794E+03 F= -.41316344E+03 E0= -.41314277E+03  EK= 0.29550E+00 SP= 0.00E+00 SK= 0.00E+00
       N       E                     dE             d eps       ncg     rms          rms(c)
RMM:   1    -0.413173306457E+03   -0.98653E-02   -0.52053E+00  4269   0.625E-01    0.866E-01
RMM:   2    -0.413169355777E+03    0.39507E-02   -0.68462E-02  4308   0.751E-02    0.617E-01
RMM:   3    -0.413166201125E+03    0.31547E-02   -0.50180E-02  5059   0.748E-02    0.293E-01
RMM:   4    -0.413180210456E+03   -0.14009E-01   -0.22641E-02  5080   0.129E-01    0.555E-01
RMM:   5    -0.413163073717E+03    0.17137E-01   -0.92317E-03  4761   0.951E-02    0.452E-02
RMM:   6    -0.413163054620E+03    0.19097E-04   -0.13162E-03  5510   0.359E-02    0.237E-02
RMM:   7    -0.413163078635E+03   -0.24015E-04   -0.21340E-04  5807   0.135E-02    0.159E-02
RMM:   8    -0.413163080435E+03   -0.18002E-05   -0.45010E-05  5093   0.771E-03    0.694E-03
RMM:   9    -0.413163080624E+03   -0.18904E-06   -0.70474E-06  3013   0.324E-03
  145 T=    60. E= -.41286764E+03 F= -.41316308E+03 E0= -.41314242E+03  EK= 0.29544E+00 SP= 0.00E+00 SK= 0.00E+00
       N       E                     dE             d eps       ncg     rms          rms(c)
RMM:   1    -0.413174326890E+03   -0.11246E-01   -0.52679E+00  4269   0.634E-01    0.858E-01
RMM:   2    -0.413171005750E+03    0.33211E-02   -0.68201E-02  4310   0.754E-02    0.622E-01
RMM:   3    -0.413166777091E+03    0.42287E-02   -0.53908E-02  4969   0.698E-02    0.301E-01
RMM:   4    -0.413178904386E+03   -0.12127E-01   -0.18080E-02  5091   0.116E-01    0.512E-01
RMM:   5    -0.413164244547E+03    0.14660E-01   -0.79015E-03  4788   0.875E-02    0.414E-02
RMM:   6    -0.413164237621E+03    0.69264E-05   -0.11572E-03  5584   0.339E-02    0.227E-02
RMM:   7    -0.413164275666E+03   -0.38045E-04   -0.18722E-04  5589   0.126E-02    0.137E-02
RMM:   8    -0.413164285831E+03   -0.10165E-04   -0.35643E-05  4790   0.677E-03    0.603E-03
RMM:   9    -0.413164289906E+03   -0.40748E-05   -0.56473E-06  2962   0.292E-03    0.357E-03
RMM:  10    -0.413164294822E+03   -0.49156E-05   -0.20151E-06  2540   0.198E-03    0.230E-03
RMM:  11    -0.413164298439E+03   -0.36174E-05   -0.15945E-06  2498   0.156E-03    0.905E-04
RMM:  12    -0.413164299740E+03   -0.13007E-05   -0.80188E-07  2224   0.116E-03    0.483E-04
RMM:  13    -0.413164299830E+03   -0.90666E-07   -0.50208E-07  1868   0.931E-04
  146 T=    60. E= -.41286771E+03 F= -.41316430E+03 E0= -.41314365E+03  EK= 0.29659E+00 SP= 0.00E+00 SK= 0.00E+00
       N       E                     dE             d eps       ncg     rms          rms(c)
RMM:   1    -0.413175253510E+03   -0.10954E-01   -0.52836E+00  4265   0.633E-01    0.871E-01
RMM:   2    -0.413171380818E+03    0.38727E-02   -0.68511E-02  4309   0.755E-02    0.625E-01
RMM:   3    -0.413166328675E+03    0.50521E-02   -0.49938E-02  4845   0.599E-02    0.249E-01
RMM:   4    -0.413171406735E+03   -0.50781E-02   -0.90381E-03  5106   0.797E-02    0.342E-01
RMM:   5    -0.413164822944E+03    0.65838E-02   -0.33950E-03  4815   0.584E-02    0.361E-02
RMM:   6    -0.413164814573E+03    0.83713E-05   -0.61884E-04  5517   0.255E-02    0.236E-02
RMM:   7    -0.413164830216E+03   -0.15644E-04   -0.13458E-04  5300   0.107E-02    0.145E-02
RMM:   8    -0.413164833623E+03   -0.34065E-05   -0.27228E-05  4576   0.580E-03    0.552E-03
RMM:   9    -0.413164835336E+03   -0.17129E-05   -0.45993E-06  2728   0.240E-03    0.326E-03
RMM:  10    -0.413164838018E+03   -0.26827E-05   -0.18981E-06  2531   0.184E-03    0.185E-03
RMM:  11    -0.413164838801E+03   -0.78265E-06   -0.10863E-06  2401   0.135E-03
  147 T=    60. E= -.41286801E+03 F= -.41316484E+03 E0= -.41314419E+03  EK= 0.29683E+00 SP= 0.00E+00 SK= 0.00E+00
       N       E                     dE             d eps       ncg     rms          rms(c)
RMM:   1    -0.413174289184E+03   -0.94512E-02   -0.53631E+00  4267   0.643E-01    0.866E-01
RMM:   2    -0.413170495678E+03    0.37935E-02   -0.69326E-02  4311   0.754E-02    0.619E-01
RMM:   3    -0.413165470626E+03    0.50251E-02   -0.46150E-02  4711   0.548E-02    0.218E-01
RMM:   4    -0.413165740508E+03   -0.26988E-03   -0.36538E-03  5077   0.466E-02    0.162E-01
RMM:   5    -0.413164306621E+03    0.14339E-02   -0.82090E-04  4824   0.292E-02    0.350E-02
RMM:   6    -0.413164307089E+03   -0.46776E-06   -0.27598E-04  5293   0.173E-02    0.246E-02
RMM:   7    -0.413164316796E+03   -0.97069E-05   -0.10732E-04  4730   0.106E-02    0.148E-02
RMM:   8    -0.413164315072E+03    0.17237E-05   -0.16785E-05  4007   0.452E-03    0.501E-03
RMM:   9    -0.413164316558E+03   -0.14861E-05   -0.49775E-06  2570   0.214E-03    0.290E-03
RMM:  10    -0.413164317126E+03   -0.56716E-06   -0.19708E-06  2508   0.165E-03
  148 T=    60. E= -.41286797E+03 F= -.41316432E+03 E0= -.41314368E+03  EK= 0.29635E+00 SP= 0.00E+00 SK= 0.00E+00
       N       E                     dE             d eps       ncg     rms          rms(c)
RMM:   1    -0.413174469881E+03   -0.10153E-01   -0.55930E+00  4264   0.660E-01    0.846E-01
RMM:   2    -0.413171900145E+03    0.25697E-02   -0.70457E-02  4309   0.765E-02    0.619E-01
RMM:   3    -0.413167097708E+03    0.48024E-02   -0.46855E-02  4744   0.545E-02    0.248E-01
RMM:   4    -0.413168686364E+03   -0.15887E-02   -0.58550E-03  5122   0.595E-02    0.235E-01
RMM:   5    -0.413165684321E+03    0.30020E-02   -0.15531E-03  4818   0.403E-02    0.354E-02
RMM:   6    -0.413165686132E+03   -0.18109E-05   -0.40935E-04  5473   0.205E-02    0.247E-02
RMM:   7    -0.413165714666E+03   -0.28534E-04   -0.12596E-04  5119   0.112E-02    0.145E-02
RMM:   8    -0.413165718169E+03   -0.35035E-05   -0.21062E-05  4472   0.521E-03    0.548E-03
RMM:   9    -0.413165722399E+03   -0.42294E-05   -0.43502E-06  2657   0.233E-03    0.302E-03
RMM:  10    -0.413165728590E+03   -0.61912E-05   -0.16812E-06  2522   0.169E-03    0.146E-03
RMM:  11    -0.413165732877E+03   -0.42870E-05   -0.11934E-06  2429   0.134E-03    0.719E-04
RMM:  12    -0.413165734472E+03   -0.15948E-05   -0.54872E-07  2033   0.998E-04    0.373E-04
RMM:  13    -0.413165735291E+03   -0.81944E-06   -0.47439E-07  1768   0.903E-04
  149 T=    61. E= -.41286838E+03 F= -.41316574E+03 E0= -.41314510E+03  EK= 0.29736E+00 SP= 0.00E+00 SK= 0.00E+00
       N       E                     dE             d eps       ncg     rms          rms(c)
RMM:   1    -0.413174122208E+03   -0.83877E-02   -0.58717E+00  4264   0.674E-01    0.853E-01
RMM:   2    -0.413172032450E+03    0.20898E-02   -0.72739E-02  4305   0.802E-02    0.622E-01
RMM:   3    -0.413167155880E+03    0.48766E-02   -0.41815E-02  4810   0.519E-02    0.215E-01
RMM:   4    -0.413168602778E+03   -0.14469E-02   -0.46287E-03  5124   0.562E-02    0.214E-01
RMM:   5    -0.413166125118E+03    0.24777E-02   -0.12865E-03  4837   0.371E-02    0.386E-02
RMM:   6    -0.413166117790E+03    0.73282E-05   -0.40121E-04  5379   0.208E-02    0.261E-02
RMM:   7    -0.413166143389E+03   -0.25600E-04   -0.13115E-04  5080   0.114E-02    0.149E-02
RMM:   8    -0.413166144077E+03   -0.68790E-06   -0.20220E-05  4458   0.513E-03    0.587E-03
RMM:   9    -0.413166147904E+03   -0.38266E-05   -0.52530E-06  2655   0.243E-03    0.286E-03
RMM:  10    -0.413166153102E+03   -0.51984E-05   -0.16237E-06  2513   0.175E-03    0.139E-03
RMM:  11    -0.413166157550E+03   -0.44481E-05   -0.13060E-06  2463   0.146E-03    0.753E-04
RMM:  12    -0.413166158801E+03   -0.12510E-05   -0.47290E-07  2017   0.997E-04    0.343E-04
RMM:  13    -0.413166159648E+03   -0.84709E-06   -0.45308E-07  1823   0.913E-04
  150 T=    61. E= -.41286808E+03 F= -.41316616E+03 E0= -.41314553E+03  EK= 0.29808E+00 SP= 0.00E+00 SK= 0.00E+00
