       N       E                     dE             d eps       ncg     rms          rms(c)
RMM:   1     0.220115092449E+04    0.22012E+04   -0.52443E+04  2132   0.654E+02
RMM:   2     0.705655293722E+03   -0.14955E+04   -0.16263E+04  2132   0.177E+02
RMM:   3     0.138042469588E+03   -0.56761E+03   -0.65674E+03  2132   0.117E+02
RMM:   4    -0.159138933009E+03   -0.29718E+03   -0.27854E+03  2132   0.936E+01
RMM:   5    -0.287422257675E+03   -0.12828E+03   -0.11447E+03  2132   0.595E+01
RMM:   6    -0.349789235161E+03   -0.62367E+02   -0.55174E+02  2132   0.423E+01
RMM:   7    -0.382704946246E+03   -0.32916E+02   -0.30473E+02  2132   0.293E+01
RMM:   8    -0.404226870324E+03   -0.21522E+02   -0.18438E+02  2132   0.233E+01
RMM:   9    -0.436039294841E+03   -0.31812E+02   -0.30749E+02  6106   0.173E+01
RMM:  10    -0.441312329264E+03   -0.52730E+01   -0.62800E+01  6391   0.539E+00
RMM:  11    -0.442529648562E+03   -0.12173E+01   -0.11257E+01  6218   0.173E+00
RMM:  12    -0.442898825233E+03   -0.36918E+00   -0.27275E+00  6357   0.601E-01    0.134E+02
RMM:  13    -0.425626986204E+03    0.17272E+02   -0.81211E+01  4678   0.119E+01    0.712E+01
RMM:  14    -0.499657145458E+03   -0.74030E+02   -0.54238E+02  5418   0.233E+01    0.307E+01
RMM:  15    -0.414697821203E+03    0.84959E+02   -0.19657E+02  5065   0.163E+01    0.631E+00
RMM:  16    -0.414043180003E+03    0.65464E+00   -0.39206E+01  6080   0.604E+00    0.426E+00
RMM:  17    -0.413220603493E+03    0.82258E+00   -0.23068E+00  5348   0.182E+00    0.245E+00
RMM:  18    -0.413166401184E+03    0.54202E-01   -0.85733E-01  5963   0.958E-01    0.159E+00
RMM:  19    -0.413168010862E+03   -0.16097E-02   -0.27630E-01  5729   0.558E-01    0.843E-01
RMM:  20    -0.413183123055E+03   -0.15112E-01   -0.20583E-01  5387   0.497E-01    0.535E-01
RMM:  21    -0.413167842008E+03    0.15281E-01   -0.32739E-02  5007   0.225E-01    0.252E-01
RMM:  22    -0.413166086134E+03    0.17559E-02   -0.14908E-02  6105   0.104E-01    0.144E-01
RMM:  23    -0.413164634959E+03    0.14512E-02   -0.52509E-03  5861   0.659E-02    0.814E-02
RMM:  24    -0.413163200757E+03    0.14342E-02   -0.16609E-03  5444   0.403E-02    0.396E-02
RMM:  25    -0.413162901423E+03    0.29933E-03   -0.85345E-04  5672   0.255E-02    0.310E-02
RMM:  26    -0.413163092688E+03   -0.19126E-03   -0.73028E-04  5834   0.280E-02    0.331E-02
RMM:  27    -0.413163503608E+03   -0.41092E-03   -0.19296E-04  4574   0.198E-02    0.184E-02
RMM:  28    -0.413163974572E+03   -0.47096E-03   -0.20138E-04  5306   0.199E-02    0.887E-03
RMM:  29    -0.413164325608E+03   -0.35104E-03   -0.98143E-05  4372   0.144E-02    0.429E-03
RMM:  30    -0.413164539690E+03   -0.21408E-03   -0.76097E-05  4116   0.984E-03    0.322E-03
RMM:  31    -0.413164645971E+03   -0.10628E-03   -0.46413E-05  3125   0.603E-03    0.279E-03
RMM:  32    -0.413164669605E+03   -0.23634E-04   -0.19579E-05  2951   0.296E-03    0.124E-03
RMM:  33    -0.413164678665E+03   -0.90604E-05   -0.82369E-06  2755   0.207E-03    0.491E-04
RMM:  34    -0.413164681191E+03   -0.25256E-05   -0.41540E-06  2641   0.161E-03    0.801E-04
RMM:  35    -0.413164680531E+03    0.65953E-06   -0.20452E-06  2170   0.110E-03
    1 T=    61. E= -.41286683E+03 F= -.41316468E+03 E0= -.41314218E+03  EK= 0.29785E+00 SP= 0.00E+00 SK= 0.00E+00
       N       E                     dE             d eps       ncg     rms          rms(c)
RMM:   1    -0.413161772576E+03    0.29086E-02   -0.93694E+00  4005   0.632E-01    0.886E-01
RMM:   2    -0.413168094535E+03   -0.63220E-02   -0.11483E-01  3905   0.902E-02    0.650E-01
RMM:   3    -0.413164744500E+03    0.33500E-02   -0.14347E-02  4857   0.474E-02    0.105E-01
RMM:   4    -0.413190886676E+03   -0.26142E-01   -0.27990E-02  5198   0.139E-01    0.675E-01
RMM:   5    -0.413164193120E+03    0.26694E-01   -0.12929E-02  4839   0.113E-01    0.473E-02
RMM:   6    -0.413164383355E+03   -0.19024E-03   -0.23482E-03  5791   0.469E-02    0.323E-02
RMM:   7    -0.413164386725E+03   -0.33701E-05   -0.41973E-04  5695   0.187E-02    0.204E-02
RMM:   8    -0.413164384018E+03    0.27071E-05   -0.58078E-05  5093   0.824E-03    0.918E-03
RMM:   9    -0.413164386101E+03   -0.20825E-05   -0.12348E-05  3717   0.374E-03    0.691E-03
RMM:  10    -0.413164391071E+03   -0.49705E-05   -0.22133E-06  2601   0.218E-03    0.426E-03
RMM:  11    -0.413164395666E+03   -0.45948E-05   -0.13295E-06  2523   0.173E-03    0.232E-03
RMM:  12    -0.413164402937E+03   -0.72711E-05   -0.18651E-06  2590   0.191E-03    0.984E-04
RMM:  13    -0.413164405417E+03   -0.24797E-05   -0.65030E-07  2370   0.127E-03    0.698E-04
RMM:  14    -0.413164405274E+03    0.14270E-06   -0.33664E-07  1876   0.844E-04
    2 T=    61. E= -.41286655E+03 F= -.41316441E+03 E0= -.41314190E+03  EK= 0.29786E+00 SP= 0.00E+00 SK= 0.00E+00
       N       E                     dE             d eps       ncg     rms          rms(c)
RMM:   1    -0.413162783744E+03    0.16217E-02   -0.93717E+00  4187   0.637E-01    0.905E-01
RMM:   2    -0.413168157296E+03   -0.53736E-02   -0.11340E-01  3817   0.873E-02    0.645E-01
RMM:   3    -0.413165206236E+03    0.29511E-02   -0.13715E-02  4848   0.426E-02    0.107E-01
RMM:   4    -0.413187582357E+03   -0.22376E-01   -0.23109E-02  5176   0.127E-01    0.626E-01
RMM:   5    -0.413164808401E+03    0.22774E-01   -0.11046E-02  4834   0.104E-01    0.461E-02
RMM:   6    -0.413164964750E+03   -0.15635E-03   -0.19955E-03  5787   0.435E-02    0.319E-02
RMM:   7    -0.413164954624E+03    0.10126E-04   -0.37158E-04  5630   0.184E-02    0.198E-02
RMM:   8    -0.413164945643E+03    0.89813E-05   -0.51856E-05  4982   0.810E-03    0.922E-03
RMM:   9    -0.413164944355E+03    0.12883E-05   -0.10609E-05  3628   0.362E-03    0.702E-03
RMM:  10    -0.413164944735E+03   -0.38041E-06   -0.18640E-06  2559   0.222E-03
    3 T=    61. E= -.41286685E+03 F= -.41316494E+03 E0= -.41314245E+03  EK= 0.29809E+00 SP= 0.00E+00 SK= 0.00E+00
       N       E                     dE             d eps       ncg     rms          rms(c)
RMM:   1    -0.413162249119E+03    0.26952E-02   -0.92993E+00  4223   0.640E-01    0.890E-01
RMM:   2    -0.413167863165E+03   -0.56140E-02   -0.11296E-01  4177   0.885E-02    0.639E-01
RMM:   3    -0.413169091779E+03   -0.12286E-02   -0.16681E-02  5161   0.740E-02    0.292E-01
RMM:   4    -0.413192541505E+03   -0.23450E-01   -0.40708E-02  5126   0.172E-01    0.689E-01
RMM:   5    -0.413164651088E+03    0.27890E-01   -0.11133E-02  4721   0.113E-01    0.605E-02
RMM:   6    -0.413164698109E+03   -0.47022E-04   -0.21053E-03  5512   0.462E-02    0.311E-02
RMM:   7    -0.413164717395E+03   -0.19285E-04   -0.38332E-04  6014   0.173E-02    0.191E-02
RMM:   8    -0.413164713203E+03    0.41918E-05   -0.67934E-05  5202   0.924E-03    0.806E-03
RMM:   9    -0.413164711161E+03    0.20420E-05   -0.89061E-06  3466   0.370E-03    0.409E-03
RMM:  10    -0.413164712395E+03   -0.12339E-05   -0.19939E-06  2580   0.219E-03    0.267E-03
RMM:  11    -0.413164714165E+03   -0.17700E-05   -0.13791E-06  2534   0.184E-03    0.152E-03
RMM:  12    -0.413164715117E+03   -0.95195E-06   -0.79007E-07  2488   0.143E-03
    4 T=    61. E= -.41286664E+03 F= -.41316472E+03 E0= -.41314223E+03  EK= 0.29807E+00 SP= 0.00E+00 SK= 0.00E+00
       N       E                     dE             d eps       ncg     rms          rms(c)
RMM:   1    -0.413162265058E+03    0.24491E-02   -0.93562E+00  4235   0.644E-01    0.883E-01
RMM:   2    -0.413168480756E+03   -0.62157E-02   -0.11482E-01  4057   0.906E-02    0.648E-01
RMM:   3    -0.413165395677E+03    0.30851E-02   -0.14422E-02  4919   0.482E-02    0.116E-01
RMM:   4    -0.413196099777E+03   -0.30704E-01   -0.32459E-02  5140   0.150E-01    0.732E-01
RMM:   5    -0.413164691857E+03    0.31408E-01   -0.14933E-02  4815   0.122E-01    0.488E-02
RMM:   6    -0.413164893798E+03   -0.20194E-03   -0.25753E-03  5761   0.499E-02    0.323E-02
RMM:   7    -0.413164899648E+03   -0.58508E-05   -0.43191E-04  5744   0.190E-02    0.205E-02
RMM:   8    -0.413164896830E+03    0.28187E-05   -0.64204E-05  5096   0.864E-03    0.952E-03
RMM:   9    -0.413164897827E+03   -0.99734E-06   -0.12678E-05  3850   0.398E-03    0.700E-03
RMM:  10    -0.413164901994E+03   -0.41671E-05   -0.19423E-06  2581   0.218E-03    0.437E-03
RMM:  11    -0.413164905987E+03   -0.39925E-05   -0.12842E-06  2534   0.177E-03    0.231E-03
RMM:  12    -0.413164911851E+03   -0.58647E-05   -0.18144E-06  2590   0.194E-03    0.101E-03
RMM:  13    -0.413164913291E+03   -0.14398E-05   -0.53567E-07  2355   0.126E-03    0.688E-04
RMM:  14    -0.413164913250E+03    0.41084E-07   -0.22977E-07  1855   0.833E-04
    5 T=    61. E= -.41286673E+03 F= -.41316491E+03 E0= -.41314244E+03  EK= 0.29818E+00 SP= 0.00E+00 SK= 0.00E+00
       N       E                     dE             d eps       ncg     rms          rms(c)
RMM:   1    -0.413163190707E+03    0.17226E-02   -0.93724E+00  4247   0.651E-01    0.902E-01
RMM:   2    -0.413168478250E+03   -0.52875E-02   -0.11376E-01  4036   0.900E-02    0.647E-01
RMM:   3    -0.413165661231E+03    0.28170E-02   -0.13871E-02  4819   0.446E-02    0.106E-01
RMM:   4    -0.413188771263E+03   -0.23110E-01   -0.23842E-02  5150   0.129E-01    0.637E-01
RMM:   5    -0.413165233420E+03    0.23538E-01   -0.11405E-02  4821   0.106E-01    0.462E-02
RMM:   6    -0.413165394627E+03   -0.16121E-03   -0.20282E-03  5758   0.438E-02    0.319E-02
RMM:   7    -0.413165387565E+03    0.70617E-05   -0.37640E-04  5609   0.184E-02    0.198E-02
RMM:   8    -0.413165378755E+03    0.88097E-05   -0.51522E-05  4965   0.807E-03    0.918E-03
RMM:   9    -0.413165377486E+03    0.12697E-05   -0.10179E-05  3581   0.359E-03    0.698E-03
RMM:  10    -0.413165378003E+03   -0.51734E-06   -0.17455E-06  2548   0.218E-03
    6 T=    61. E= -.41286698E+03 F= -.41316538E+03 E0= -.41314291E+03  EK= 0.29840E+00 SP= 0.00E+00 SK= 0.00E+00
       N       E                     dE             d eps       ncg     rms          rms(c)
RMM:   1    -0.413162819183E+03    0.25583E-02   -0.93192E+00  4257   0.650E-01    0.897E-01
RMM:   2    -0.413168160905E+03   -0.53417E-02   -0.11309E-01  4212   0.908E-02    0.640E-01
RMM:   3    -0.413169144648E+03   -0.98374E-03   -0.16421E-02  5129   0.723E-02    0.281E-01
RMM:   4    -0.413194182328E+03   -0.25038E-01   -0.41190E-02  5112   0.172E-01    0.703E-01
RMM:   5    -0.413165082558E+03    0.29100E-01   -0.11825E-02  4730   0.115E-01    0.603E-02
RMM:   6    -0.413165146630E+03   -0.64071E-04   -0.22216E-03  5524   0.471E-02    0.316E-02
RMM:   7    -0.413165162582E+03   -0.15952E-04   -0.39110E-04  6011   0.173E-02    0.193E-02
RMM:   8    -0.413165157451E+03    0.51305E-05   -0.67991E-05  5213   0.917E-03    0.816E-03
RMM:   9    -0.413165153697E+03    0.37548E-05   -0.89428E-06  3452   0.366E-03    0.422E-03
RMM:  10    -0.413165153653E+03    0.43387E-07   -0.21027E-06  2584   0.221E-03
    7 T=    61. E= -.41286670E+03 F= -.41316515E+03 E0= -.41314271E+03  EK= 0.29845E+00 SP= 0.00E+00 SK= 0.00E+00
       N       E                     dE             d eps       ncg     rms          rms(c)
RMM:   1    -0.413163054835E+03    0.20989E-02   -0.93385E+00  4264   0.656E-01    0.882E-01
RMM:   2    -0.413169295307E+03   -0.62405E-02   -0.11434E-01  4122   0.908E-02    0.646E-01
RMM:   3    -0.413166365296E+03    0.29300E-02   -0.14394E-02  4940   0.506E-02    0.129E-01
RMM:   4    -0.413200808672E+03   -0.34443E-01   -0.37116E-02  5135   0.161E-01    0.774E-01
RMM:   5    -0.413165488063E+03    0.35321E-01   -0.16775E-02  4805   0.129E-01    0.511E-02
RMM:   6    -0.413165694557E+03   -0.20649E-03   -0.28363E-03  5747   0.527E-02    0.330E-02
RMM:   7    -0.413165697902E+03   -0.33450E-05   -0.46604E-04  5793   0.194E-02    0.210E-02
RMM:   8    -0.413165694418E+03    0.34845E-05   -0.68208E-05  5191   0.884E-03    0.963E-03
RMM:   9    -0.413165693844E+03    0.57397E-06   -0.13034E-05  3900   0.405E-03    0.679E-03
RMM:  10    -0.413165696728E+03   -0.28842E-05   -0.20615E-06  2581   0.220E-03    0.426E-03
RMM:  11    -0.413165699334E+03   -0.26057E-05   -0.12024E-06  2524   0.172E-03    0.229E-03
RMM:  12    -0.413165703170E+03   -0.38364E-05   -0.18063E-06  2591   0.192E-03    0.982E-04
RMM:  13    -0.413165704319E+03   -0.11494E-05   -0.58986E-07  2367   0.127E-03    0.729E-04
RMM:  14    -0.413165704112E+03    0.20776E-06   -0.23738E-07  1866   0.841E-04
    8 T=    61. E= -.41286689E+03 F= -.41316570E+03 E0= -.41314327E+03  EK= 0.29881E+00 SP= 0.00E+00 SK= 0.00E+00
       N       E                     dE             d eps       ncg     rms          rms(c)
RMM:   1    -0.413163722645E+03    0.19817E-02   -0.93829E+00  4282   0.669E-01    0.897E-01
RMM:   2    -0.413169440881E+03   -0.57182E-02   -0.11492E-01  4135   0.924E-02    0.649E-01
RMM:   3    -0.413166177166E+03    0.32637E-02   -0.14010E-02  4808   0.463E-02    0.104E-01
RMM:   4    -0.413190107302E+03   -0.23930E-01   -0.24733E-02  5146   0.131E-01    0.647E-01
RMM:   5    -0.413165722296E+03    0.24385E-01   -0.11799E-02  4813   0.107E-01    0.462E-02
RMM:   6    -0.413165889034E+03   -0.16674E-03   -0.21359E-03  5776   0.442E-02    0.311E-02
RMM:   7    -0.413165886698E+03    0.23357E-05   -0.36768E-04  5633   0.182E-02    0.198E-02
RMM:   8    -0.413165877884E+03    0.88135E-05   -0.56846E-05  4960   0.829E-03    0.952E-03
RMM:   9    -0.413165876401E+03    0.14839E-05   -0.11233E-05  3741   0.379E-03    0.727E-03
RMM:  10    -0.413165877048E+03   -0.64767E-06   -0.17739E-06  2551   0.220E-03
    9 T=    61. E= -.41286680E+03 F= -.41316588E+03 E0= -.41314347E+03  EK= 0.29908E+00 SP= 0.00E+00 SK= 0.00E+00
       N       E                     dE             d eps       ncg     rms          rms(c)
RMM:   1    -0.413163798194E+03    0.20782E-02   -0.93537E+00  4295   0.664E-01    0.903E-01
RMM:   2    -0.413169221386E+03   -0.54232E-02   -0.11314E-01  4279   0.913E-02    0.642E-01
RMM:   3    -0.413170678507E+03   -0.14571E-02   -0.17092E-02  5134   0.767E-02    0.303E-01
RMM:   4    -0.413192306324E+03   -0.21628E-01   -0.39757E-02  5097   0.169E-01    0.671E-01
RMM:   5    -0.413165910116E+03    0.26396E-01   -0.10408E-02  4703   0.109E-01    0.597E-02
RMM:   6    -0.413165953809E+03   -0.43693E-04   -0.20131E-03  5492   0.446E-02    0.318E-02
RMM:   7    -0.413165961437E+03   -0.76284E-05   -0.36562E-04  5976   0.171E-02    0.191E-02
RMM:   8    -0.413165954106E+03    0.73311E-05   -0.65013E-05  5159   0.913E-03    0.799E-03
RMM:   9    -0.413165949284E+03    0.48226E-05   -0.83272E-06  3395   0.363E-03    0.410E-03
RMM:  10    -0.413165948196E+03    0.10881E-05   -0.19119E-06  2563   0.217E-03    0.266E-03
RMM:  11    -0.413165946420E+03    0.17757E-05   -0.13057E-06  2518   0.181E-03    0.148E-03
RMM:  12    -0.413165944727E+03    0.16930E-05   -0.75226E-07  2475   0.141E-03    0.574E-04
RMM:  13    -0.413165943687E+03    0.10401E-05   -0.37945E-07  2115   0.101E-03    0.317E-04
RMM:  14    -0.413165942667E+03    0.10198E-05   -0.23117E-07  1631   0.803E-04    0.215E-04
RMM:  15    -0.413165941165E+03    0.15020E-05   -0.21120E-07  1477   0.747E-04    0.133E-04
RMM:  16    -0.413165939544E+03    0.16208E-05   -0.18090E-07  1374   0.707E-04    0.129E-04
RMM:  17    -0.413165937843E+03    0.17015E-05   -0.15424E-07  1351   0.677E-04    0.737E-05
RMM:  18    -0.413165936804E+03    0.10389E-05   -0.84366E-08  1039   0.594E-04    0.361E-05
RMM:  19    -0.413165936207E+03    0.59717E-06   -0.47801E-08   888   0.554E-04
   10 T=    61. E= -.41286662E+03 F= -.41316594E+03 E0= -.41314355E+03  EK= 0.29932E+00 SP= 0.00E+00 SK= 0.00E+00
       N       E                     dE             d eps       ncg     rms          rms(c)
RMM:   1    -0.413164084725E+03    0.18521E-02   -0.93274E+00  4289   0.668E-01    0.883E-01
RMM:   2    -0.413170175563E+03   -0.60908E-02   -0.11413E-01  4205   0.892E-02    0.644E-01
RMM:   3    -0.413167272900E+03    0.29027E-02   -0.14111E-02  4923   0.475E-02    0.123E-01
RMM:   4    -0.413199736582E+03   -0.32464E-01   -0.34720E-02  5130   0.155E-01    0.752E-01
RMM:   5    -0.413166499788E+03    0.33237E-01   -0.15844E-02  4794   0.125E-01    0.503E-02
RMM:   6    -0.413166711229E+03   -0.21144E-03   -0.27982E-03  5738   0.510E-02    0.332E-02
RMM:   7    -0.413166711969E+03   -0.73929E-06   -0.45280E-04  5690   0.193E-02    0.212E-02
RMM:   8    -0.413166705915E+03    0.60538E-05   -0.66705E-05  5136   0.879E-03    0.988E-03
RMM:   9    -0.413166704434E+03    0.14809E-05   -0.13300E-05  3951   0.410E-03    0.721E-03
RMM:  10    -0.413166705945E+03   -0.15107E-05   -0.19490E-06  2570   0.220E-03    0.450E-03
RMM:  11    -0.413166707363E+03   -0.14181E-05   -0.11801E-06  2509   0.173E-03    0.251E-03
RMM:  12    -0.413166709616E+03   -0.22531E-05   -0.17410E-06  2565   0.197E-03    0.103E-03
RMM:  13    -0.413166710232E+03   -0.61643E-06   -0.56889E-07  2375   0.130E-03
   11 T=    61. E= -.41286697E+03 F= -.41316671E+03 E0= -.41314435E+03  EK= 0.29974E+00 SP= 0.00E+00 SK= 0.00E+00
       N       E                     dE             d eps       ncg     rms          rms(c)
RMM:   1    -0.413164247648E+03    0.24620E-02   -0.93959E+00  4301   0.674E-01    0.893E-01
RMM:   2    -0.413170109738E+03   -0.58621E-02   -0.11490E-01  4209   0.908E-02    0.651E-01
RMM:   3    -0.413167028197E+03    0.30815E-02   -0.14266E-02  4841   0.458E-02    0.105E-01
RMM:   4    -0.413192388865E+03   -0.25361E-01   -0.26387E-02  5132   0.135E-01    0.666E-01
RMM:   5    -0.413166526182E+03    0.25863E-01   -0.12560E-02  4805   0.110E-01    0.462E-02
RMM:   6    -0.413166691235E+03   -0.16505E-03   -0.21529E-03  5787   0.450E-02    0.302E-02
RMM:   7    -0.413166692894E+03   -0.16592E-05   -0.35405E-04  5681   0.180E-02    0.192E-02
RMM:   8    -0.413166685300E+03    0.75939E-05   -0.60927E-05  4976   0.846E-03    0.950E-03
RMM:   9    -0.413166683540E+03    0.17604E-05   -0.11963E-05  3859   0.394E-03    0.718E-03
RMM:  10    -0.413166684496E+03   -0.95620E-06   -0.17695E-06  2552   0.218E-03
   12 T=    61. E= -.41286675E+03 F= -.41316668E+03 E0= -.41314435E+03  EK= 0.29994E+00 SP= 0.00E+00 SK= 0.00E+00
       N       E                     dE             d eps       ncg     rms          rms(c)
RMM:   1    -0.413165370070E+03    0.13135E-02   -0.93893E+00  4306   0.681E-01    0.908E-01
RMM:   2    -0.413170126409E+03   -0.47563E-02   -0.11371E-01  4278   0.920E-02    0.645E-01
RMM:   3    -0.413172027422E+03   -0.19010E-02   -0.17298E-02  5131   0.772E-02    0.306E-01
RMM:   4    -0.413193576276E+03   -0.21549E-01   -0.39924E-02  5095   0.170E-01    0.670E-01
RMM:   5    -0.413167188409E+03    0.26388E-01   -0.10377E-02  4701   0.109E-01    0.592E-02
RMM:   6    -0.413167233966E+03   -0.45557E-04   -0.20150E-03  5489   0.445E-02    0.319E-02
RMM:   7    -0.413167241732E+03   -0.77664E-05   -0.36345E-04  5968   0.171E-02    0.193E-02
RMM:   8    -0.413167234415E+03    0.73168E-05   -0.65141E-05  5142   0.912E-03    0.804E-03
RMM:   9    -0.413167228691E+03    0.57237E-05   -0.83692E-06  3393   0.365E-03    0.413E-03
RMM:  10    -0.413167226855E+03    0.18368E-05   -0.19317E-06  2557   0.218E-03    0.268E-03
RMM:  11    -0.413167223966E+03    0.28890E-05   -0.12638E-06  2508   0.180E-03    0.148E-03
RMM:  12    -0.413167221323E+03    0.26427E-05   -0.73154E-07  2468   0.141E-03    0.565E-04
RMM:  13    -0.413167219796E+03    0.15270E-05   -0.37414E-07  2113   0.101E-03    0.327E-04
RMM:  14    -0.413167218404E+03    0.13921E-05   -0.22128E-07  1647   0.801E-04    0.224E-04
RMM:  15    -0.413167216124E+03    0.22795E-05   -0.20593E-07  1500   0.753E-04    0.142E-04
RMM:  16    -0.413167213934E+03    0.21903E-05   -0.16525E-07  1369   0.699E-04    0.133E-04
RMM:  17    -0.413167211762E+03    0.21721E-05   -0.13712E-07  1299   0.664E-04    0.730E-05
RMM:  18    -0.413167210531E+03    0.12310E-05   -0.77815E-08  1036   0.590E-04    0.391E-05
RMM:  19    -0.413167209684E+03    0.84716E-06   -0.47553E-08   891   0.556E-04
   13 T=    61. E= -.41286684E+03 F= -.41316721E+03 E0= -.41314491E+03  EK= 0.30037E+00 SP= 0.00E+00 SK= 0.00E+00
       N       E                     dE             d eps       ncg     rms          rms(c)
RMM:   1    -0.413165326247E+03    0.18843E-02   -0.93302E+00  4292   0.687E-01    0.885E-01
RMM:   2    -0.413171191125E+03   -0.58649E-02   -0.11407E-01  4221   0.921E-02    0.642E-01
RMM:   3    -0.413168548500E+03    0.26426E-02   -0.14031E-02  4925   0.485E-02    0.130E-01
RMM:   4    -0.413202452988E+03   -0.33904E-01   -0.36550E-02  5125   0.159E-01    0.768E-01
RMM:   5    -0.413167713145E+03    0.34740E-01   -0.16508E-02  4790   0.127E-01    0.513E-02
RMM:   6    -0.413167930918E+03   -0.21777E-03   -0.29518E-03  5745   0.523E-02    0.339E-02
RMM:   7    -0.413167929602E+03    0.13161E-05   -0.46873E-04  5683   0.196E-02    0.216E-02
RMM:   8    -0.413167921643E+03    0.79584E-05   -0.68839E-05  5148   0.893E-03    0.101E-02
RMM:   9    -0.413167918382E+03    0.32613E-05   -0.13893E-05  4005   0.416E-03    0.734E-03
RMM:  10    -0.413167918087E+03    0.29492E-06   -0.20137E-06  2566   0.223E-03
   14 T=    61. E= -.41286699E+03 F= -.41316792E+03 E0= -.41314565E+03  EK= 0.30093E+00 SP= 0.00E+00 SK= 0.00E+00
       N       E                     dE             d eps       ncg     rms          rms(c)
RMM:   1    -0.413166218696E+03    0.16997E-02   -0.94291E+00  4301   0.703E-01    0.891E-01
RMM:   2    -0.413171672243E+03   -0.54535E-02   -0.11589E-01  4304   0.928E-02    0.653E-01
RMM:   3    -0.413175041809E+03   -0.33696E-02   -0.19642E-02  5130   0.889E-02    0.363E-01
RMM:   4    -0.413191382907E+03   -0.16341E-01   -0.40850E-02  5064   0.173E-01    0.631E-01
RMM:   5    -0.413167914705E+03    0.23468E-01   -0.85892E-03  4651   0.103E-01    0.584E-02
RMM:   6    -0.413167922153E+03   -0.74479E-05   -0.17133E-03  5394   0.410E-02    0.298E-02
RMM:   7    -0.413167936541E+03   -0.14388E-04   -0.32245E-04  5950   0.166E-02    0.182E-02
RMM:   8    -0.413167933637E+03    0.29043E-05   -0.62144E-05  5138   0.899E-03    0.747E-03
RMM:   9    -0.413167931722E+03    0.19148E-05   -0.78842E-06  3333   0.365E-03    0.380E-03
RMM:  10    -0.413167932743E+03   -0.10208E-05   -0.15449E-06  2525   0.206E-03    0.242E-03
RMM:  11    -0.413167934297E+03   -0.15537E-05   -0.13622E-06  2529   0.180E-03    0.150E-03
RMM:  12    -0.413167934730E+03   -0.43348E-06   -0.65290E-07  2457   0.135E-03
   15 T=    61. E= -.41286657E+03 F= -.41316793E+03 E0= -.41314570E+03  EK= 0.30136E+00 SP= 0.00E+00 SK= 0.00E+00
       N       E                     dE             d eps       ncg     rms          rms(c)
RMM:   1    -0.413166909109E+03    0.10252E-02   -0.94281E+00  4295   0.690E-01    0.910E-01
RMM:   2    -0.413172273137E+03   -0.53640E-02   -0.11440E-01  4243   0.919E-02    0.647E-01
RMM:   3    -0.413169620665E+03    0.26525E-02   -0.14092E-02  4924   0.493E-02    0.135E-01
RMM:   4    -0.413203989391E+03   -0.34369E-01   -0.36935E-02  5126   0.160E-01    0.773E-01
RMM:   5    -0.413168800336E+03    0.35189E-01   -0.16913E-02  4790   0.129E-01    0.515E-02
RMM:   6    -0.413169004409E+03   -0.20407E-03   -0.28993E-03  5746   0.528E-02    0.347E-02
RMM:   7    -0.413168994833E+03    0.95763E-05   -0.47164E-04  5720   0.202E-02    0.220E-02
RMM:   8    -0.413168982292E+03    0.12541E-04   -0.73223E-05  5165   0.927E-03    0.106E-02
RMM:   9    -0.413168976066E+03    0.62266E-05   -0.14211E-05  4028   0.426E-03    0.757E-03
RMM:  10    -0.413168972249E+03    0.38165E-05   -0.21202E-06  2576   0.228E-03    0.469E-03
RMM:  11    -0.413168969465E+03    0.27838E-05   -0.12108E-06  2512   0.176E-03    0.266E-03
RMM:  12    -0.413168964207E+03    0.52585E-05   -0.18805E-06  2586   0.206E-03    0.111E-03
RMM:  13    -0.413168961656E+03    0.25509E-05   -0.62070E-07  2396   0.137E-03    0.856E-04
RMM:  14    -0.413168961806E+03   -0.14991E-06   -0.25378E-07  1963   0.887E-04
   16 T=    62. E= -.41286685E+03 F= -.41316896E+03 E0= -.41314676E+03  EK= 0.30211E+00 SP= 0.00E+00 SK= 0.00E+00
       N       E                     dE             d eps       ncg     rms          rms(c)
RMM:   1    -0.413166975319E+03    0.19863E-02   -0.93637E+00  4295   0.694E-01    0.891E-01
RMM:   2    -0.413172819022E+03   -0.58437E-02   -0.11421E-01  4240   0.898E-02    0.643E-01
RMM:   3    -0.413169814192E+03    0.30048E-02   -0.13730E-02  4866   0.457E-02    0.114E-01
RMM:   4    -0.413197337689E+03   -0.27523E-01   -0.28840E-02  5131   0.141E-01    0.693E-01
RMM:   5    -0.413169257942E+03    0.28080E-01   -0.13580E-02  4791   0.115E-01    0.480E-02
RMM:   6    -0.413169434828E+03   -0.17689E-03   -0.24551E-03  5795   0.471E-02    0.319E-02
RMM:   7    -0.413169431562E+03    0.32658E-05   -0.38493E-04  5656   0.187E-02    0.202E-02
RMM:   8    -0.413169420292E+03    0.11270E-04   -0.65974E-05  5023   0.878E-03    0.102E-02
RMM:   9    -0.413169415591E+03    0.47008E-05   -0.12928E-05  3979   0.411E-03    0.765E-03
RMM:  10    -0.413169413224E+03    0.23671E-05   -0.18694E-06  2556   0.223E-03    0.471E-03
RMM:  11    -0.413169411220E+03    0.20043E-05   -0.12873E-06  2515   0.183E-03    0.258E-03
RMM:  12    -0.413169407890E+03    0.33296E-05   -0.16562E-06  2550   0.198E-03    0.103E-03
RMM:  13    -0.413169406486E+03    0.14037E-05   -0.52838E-07  2346   0.129E-03    0.672E-04
RMM:  14    -0.413169406367E+03    0.11887E-06   -0.23741E-07  1880   0.854E-04
   17 T=    62. E= -.41286672E+03 F= -.41316941E+03 E0= -.41314725E+03  EK= 0.30269E+00 SP= 0.00E+00 SK= 0.00E+00
       N       E                     dE             d eps       ncg     rms          rms(c)
RMM:   1    -0.413167501951E+03    0.19045E-02   -0.94516E+00  4295   0.705E-01    0.890E-01
RMM:   2    -0.413173507508E+03   -0.60056E-02   -0.11641E-01  4249   0.912E-02    0.654E-01
RMM:   3    -0.413170315911E+03    0.31916E-02   -0.14616E-02  4882   0.477E-02    0.112E-01
RMM:   4    -0.413199647859E+03   -0.29332E-01   -0.30969E-02  5125   0.146E-01    0.715E-01
RMM:   5    -0.413169683732E+03    0.29964E-01   -0.14503E-02  4792   0.118E-01    0.483E-02
RMM:   6    -0.413169873524E+03   -0.18979E-03   -0.25402E-03  5779   0.484E-02    0.320E-02
RMM:   7    -0.413169871723E+03    0.18010E-05   -0.40726E-04  5647   0.188E-02    0.204E-02
RMM:   8    -0.413169863938E+03    0.77842E-05   -0.64932E-05  5068   0.870E-03    0.983E-03
RMM:   9    -0.413169861352E+03    0.25861E-05   -0.13010E-05  3930   0.408E-03    0.729E-03
RMM:  10    -0.413169861663E+03   -0.31092E-06   -0.18474E-06  2552   0.218E-03
   18 T=    62. E= -.41286657E+03 F= -.41316986E+03 E0= -.41314774E+03  EK= 0.30329E+00 SP= 0.00E+00 SK= 0.00E+00
       N       E                     dE             d eps       ncg     rms          rms(c)
RMM:   1    -0.413168951402E+03    0.90995E-03   -0.94721E+00  4301   0.704E-01    0.910E-01
RMM:   2    -0.413174362164E+03   -0.54108E-02   -0.11547E-01  4310   0.934E-02    0.651E-01
RMM:   3    -0.413176748164E+03   -0.23860E-02   -0.18117E-02  5126   0.820E-02    0.328E-01
RMM:   4    -0.413196395908E+03   -0.19648E-01   -0.40383E-02  5082   0.171E-01    0.656E-01
RMM:   5    -0.413171085242E+03    0.25311E-01   -0.97336E-03  4687   0.107E-01    0.586E-02
RMM:   6    -0.413171119771E+03   -0.34529E-04   -0.19211E-03  5467   0.432E-02    0.316E-02
RMM:   7    -0.413171122969E+03   -0.31981E-05   -0.34789E-04  5944   0.169E-02    0.191E-02
RMM:   8    -0.413171114410E+03    0.85600E-05   -0.64246E-05  5136   0.910E-03    0.792E-03
RMM:   9    -0.413171108009E+03    0.64004E-05   -0.82195E-06  3368   0.366E-03    0.404E-03
RMM:  10    -0.413171105721E+03    0.22880E-05   -0.18212E-06  2552   0.215E-03    0.259E-03
RMM:  11    -0.413171101998E+03    0.37235E-05   -0.12368E-06  2507   0.178E-03    0.146E-03
RMM:  12    -0.413171098644E+03    0.33532E-05   -0.66630E-07  2455   0.137E-03    0.548E-04
RMM:  13    -0.413171096611E+03    0.20335E-05   -0.33670E-07  2081   0.978E-04    0.313E-04
RMM:  14    -0.413171094748E+03    0.18629E-05   -0.19440E-07  1571   0.777E-04    0.214E-04
RMM:  15    -0.413171091765E+03    0.29827E-05   -0.16966E-07  1441   0.728E-04    0.133E-04
RMM:  16    -0.413171089029E+03    0.27361E-05   -0.13273E-07  1312   0.677E-04    0.130E-04
RMM:  17    -0.413171085967E+03    0.30627E-05   -0.12303E-07  1320   0.662E-04    0.720E-05
RMM:  18    -0.413171084400E+03    0.15669E-05   -0.64759E-08  1005   0.582E-04    0.379E-05
RMM:  19    -0.413171083453E+03    0.94705E-06   -0.37342E-08   855   0.548E-04
   19 T=    62. E= -.41286695E+03 F= -.41317108E+03 E0= -.41314901E+03  EK= 0.30413E+00 SP= 0.00E+00 SK= 0.00E+00
       N       E                     dE             d eps       ncg     rms          rms(c)
RMM:   1    -0.413169225662E+03    0.18587E-02   -0.94211E+00  4297   0.706E-01    0.899E-01
RMM:   2    -0.413174535152E+03   -0.53095E-02   -0.11505E-01  4249   0.935E-02    0.645E-01
RMM:   3    -0.413172188222E+03    0.23469E-02   -0.14004E-02  4916   0.516E-02    0.138E-01
RMM:   4    -0.413207650879E+03   -0.35463E-01   -0.38427E-02  5126   0.163E-01    0.785E-01
RMM:   5    -0.413171305752E+03    0.36345E-01   -0.17541E-02  4784   0.131E-01    0.520E-02
RMM:   6    -0.413171514207E+03   -0.20845E-03   -0.29699E-03  5751   0.533E-02    0.350E-02
RMM:   7    -0.413171507212E+03    0.69946E-05   -0.47600E-04  5667   0.202E-02    0.220E-02
RMM:   8    -0.413171495726E+03    0.11486E-04   -0.74192E-05  5195   0.935E-03    0.104E-02
RMM:   9    -0.413171489431E+03    0.62950E-05   -0.14864E-05  4107   0.434E-03    0.736E-03
RMM:  10    -0.413171485904E+03    0.35266E-05   -0.21060E-06  2572   0.226E-03    0.460E-03
RMM:  11    -0.413171483439E+03    0.24650E-05   -0.11141E-06  2505   0.170E-03    0.265E-03
RMM:  12    -0.413171478795E+03    0.46444E-05   -0.17210E-06  2556   0.201E-03    0.109E-03
RMM:  13    -0.413171476329E+03    0.24663E-05   -0.61737E-07  2385   0.136E-03    0.888E-04
RMM:  14    -0.413171476553E+03   -0.22478E-06   -0.25458E-07  1963   0.890E-04
   20 T=    62. E= -.41286672E+03 F= -.41317148E+03 E0= -.41314944E+03  EK= 0.30475E+00 SP= 0.00E+00 SK= 0.00E+00
       N       E                     dE             d eps       ncg     rms          rms(c)
RMM:   1    -0.413169998171E+03    0.14782E-02   -0.94802E+00  4294   0.712E-01    0.890E-01
RMM:   2    -0.413176170408E+03   -0.61722E-02   -0.11714E-01  4255   0.947E-02    0.654E-01
RMM:   3    -0.413173007642E+03    0.31628E-02   -0.14504E-02  4842   0.481E-02    0.107E-01
RMM:   4    -0.413200240462E+03   -0.27233E-01   -0.28559E-02  5124   0.140E-01    0.689E-01
RMM:   5    -0.413172455532E+03    0.27785E-01   -0.13572E-02  4792   0.114E-01    0.470E-02
RMM:   6    -0.413172621262E+03   -0.16573E-03   -0.23145E-03  5809   0.463E-02    0.302E-02
RMM:   7    -0.413172623941E+03   -0.26782E-05   -0.34879E-04  5667   0.179E-02    0.187E-02
RMM:   8    -0.413172616143E+03    0.77974E-05   -0.67683E-05  5027   0.870E-03    0.996E-03
RMM:   9    -0.413172612151E+03    0.39919E-05   -0.12949E-05  4001   0.415E-03    0.737E-03
RMM:  10    -0.413172611514E+03    0.63734E-06   -0.17679E-06  2550   0.217E-03
   21 T=    62. E= -.41286689E+03 F= -.41317261E+03 E0= -.41315062E+03  EK= 0.30572E+00 SP= 0.00E+00 SK= 0.00E+00
       N       E                     dE             d eps       ncg     rms          rms(c)
RMM:   1    -0.413171621980E+03    0.99017E-03   -0.95309E+00  4297   0.731E-01    0.908E-01
RMM:   2    -0.413177130514E+03   -0.55085E-02   -0.11685E-01  4303   0.961E-02    0.655E-01
RMM:   3    -0.413178241748E+03   -0.11112E-02   -0.17412E-02  5107   0.771E-02    0.297E-01
RMM:   4    -0.413203444032E+03   -0.25202E-01   -0.43546E-02  5095   0.176E-01    0.711E-01
RMM:   5    -0.413173594222E+03    0.29850E-01   -0.12043E-02  4705   0.116E-01    0.584E-02
RMM:   6    -0.413173665659E+03   -0.71437E-04   -0.22493E-03  5559   0.470E-02    0.318E-02
RMM:   7    -0.413173669939E+03   -0.42800E-05   -0.38469E-04  5931   0.176E-02    0.197E-02
RMM:   8    -0.413173662501E+03    0.74381E-05   -0.69775E-05  5160   0.930E-03    0.834E-03
RMM:   9    -0.413173655938E+03    0.65631E-05   -0.96566E-06  3528   0.382E-03    0.431E-03
RMM:  10    -0.413173653501E+03    0.24367E-05   -0.20862E-06  2581   0.219E-03    0.286E-03
RMM:  11    -0.413173650017E+03    0.34847E-05   -0.11541E-06  2499   0.174E-03    0.151E-03
RMM:  12    -0.413173646248E+03    0.37690E-05   -0.72442E-07  2467   0.140E-03    0.514E-04
RMM:  13    -0.413173644276E+03    0.19716E-05   -0.34909E-07  2107   0.100E-03    0.312E-04
RMM:  14    -0.413173642747E+03    0.15286E-05   -0.19307E-07  1608   0.781E-04    0.220E-04
RMM:  15    -0.413173639868E+03    0.28789E-05   -0.15735E-07  1425   0.725E-04    0.128E-04
RMM:  16    -0.413173637084E+03    0.27847E-05   -0.12290E-07  1312   0.677E-04    0.145E-04
RMM:  17    -0.413173634649E+03    0.24347E-05   -0.91141E-08  1182   0.633E-04    0.784E-05
RMM:  18    -0.413173632188E+03    0.24612E-05   -0.74395E-08  1112   0.606E-04    0.323E-05
RMM:  19    -0.413173631286E+03    0.90220E-06   -0.33438E-08   831   0.552E-04
   22 T=    62. E= -.41286691E+03 F= -.41317363E+03 E0= -.41315169E+03  EK= 0.30672E+00 SP= 0.00E+00 SK= 0.00E+00
       N       E                     dE             d eps       ncg     rms          rms(c)
RMM:   1    -0.413172371669E+03    0.12605E-02   -0.95094E+00  4296   0.725E-01    0.909E-01
RMM:   2    -0.413177728314E+03   -0.53566E-02   -0.11594E-01  4265   0.952E-02    0.648E-01
RMM:   3    -0.413174926497E+03    0.28018E-02   -0.14057E-02  4881   0.509E-02    0.135E-01
RMM:   4    -0.413209387551E+03   -0.34461E-01   -0.37012E-02  5123   0.160E-01    0.773E-01
RMM:   5    -0.413174124327E+03    0.35263E-01   -0.17023E-02  4784   0.129E-01    0.518E-02
RMM:   6    -0.413174330163E+03   -0.20584E-03   -0.30118E-03  5759   0.528E-02    0.350E-02
RMM:   7    -0.413174323469E+03    0.66940E-05   -0.46689E-04  5663   0.203E-02    0.221E-02
RMM:   8    -0.413174309757E+03    0.13712E-04   -0.76874E-05  5149   0.952E-03    0.110E-02
RMM:   9    -0.413174302364E+03    0.73931E-05   -0.14948E-05  4129   0.441E-03    0.784E-03
RMM:  10    -0.413174297575E+03    0.47886E-05   -0.21354E-06  2577   0.231E-03    0.490E-03
RMM:  11    -0.413174294001E+03    0.35735E-05   -0.12527E-06  2513   0.180E-03    0.279E-03
RMM:  12    -0.413174287607E+03    0.63946E-05   -0.18519E-06  2568   0.210E-03    0.111E-03
RMM:  13    -0.413174284481E+03    0.31256E-05   -0.61229E-07  2383   0.139E-03    0.871E-04
RMM:  14    -0.413174284768E+03   -0.28667E-06   -0.26551E-07  1991   0.903E-04
   23 T=    63. E= -.41286662E+03 F= -.41317428E+03 E0= -.41315239E+03  EK= 0.30766E+00 SP= 0.00E+00 SK= 0.00E+00
       N       E                     dE             d eps       ncg     rms          rms(c)
RMM:   1    -0.413173348395E+03    0.93609E-03   -0.95284E+00  4298   0.732E-01    0.892E-01
RMM:   2    -0.413179824490E+03   -0.64761E-02   -0.11767E-01  4271   0.968E-02    0.653E-01
RMM:   3    -0.413176160704E+03    0.36638E-02   -0.14246E-02  4757   0.480E-02    0.998E-02
RMM:   4    -0.413198618281E+03   -0.22458E-01   -0.23151E-02  5135   0.127E-01    0.627E-01
RMM:   5    -0.413175759909E+03    0.22858E-01   -0.11345E-02  4805   0.104E-01    0.451E-02
RMM:   6    -0.413175880160E+03   -0.12025E-03   -0.19228E-03  5825   0.420E-02    0.277E-02
RMM:   7    -0.413175880794E+03   -0.63358E-06   -0.24595E-04  5632   0.158E-02    0.146E-02
RMM:   8    -0.413175876827E+03    0.39661E-05   -0.51907E-05  4981   0.746E-03    0.960E-03
RMM:   9    -0.413175872374E+03    0.44531E-05   -0.10763E-05  3838   0.378E-03    0.719E-03
RMM:  10    -0.413175870928E+03    0.14468E-05   -0.16469E-06  2543   0.217E-03    0.442E-03
RMM:  11    -0.413175869141E+03    0.17867E-05   -0.15301E-06  2529   0.197E-03    0.223E-03
RMM:  12    -0.413175866549E+03    0.25916E-05   -0.13066E-06  2505   0.180E-03    0.857E-04
RMM:  13    -0.413175865695E+03    0.85411E-06   -0.41250E-07  2227   0.114E-03
   24 T=    63. E= -.41286684E+03 F= -.41317587E+03 E0= -.41315402E+03  EK= 0.30902E+00 SP= 0.00E+00 SK= 0.00E+00
       N       E                     dE             d eps       ncg     rms          rms(c)
RMM:   1    -0.413174662334E+03    0.12042E-02   -0.96123E+00  4299   0.740E-01    0.907E-01
RMM:   2    -0.413180677063E+03   -0.60147E-02   -0.11860E-01  4275   0.985E-02    0.659E-01
RMM:   3    -0.413177109465E+03    0.35676E-02   -0.14322E-02  4746   0.478E-02    0.100E-01
RMM:   4    -0.413198550716E+03   -0.21441E-01   -0.22002E-02  5134   0.124E-01    0.613E-01
RMM:   5    -0.413176740247E+03    0.21810E-01   -0.10772E-02  4802   0.102E-01    0.450E-02
RMM:   6    -0.413176849526E+03   -0.10928E-03   -0.18468E-03  5823   0.409E-02    0.276E-02
RMM:   7    -0.413176847236E+03    0.22906E-05   -0.23376E-04  5642   0.154E-02    0.145E-02
RMM:   8    -0.413176842396E+03    0.48396E-05   -0.49882E-05  4975   0.732E-03    0.957E-03
RMM:   9    -0.413176837414E+03    0.49821E-05   -0.10170E-05  3766   0.371E-03    0.716E-03
RMM:  10    -0.413176835008E+03    0.24062E-05   -0.15995E-06  2537   0.216E-03    0.435E-03
RMM:  11    -0.413176832050E+03    0.29582E-05   -0.15455E-06  2532   0.198E-03    0.220E-03
RMM:  12    -0.413176828111E+03    0.39389E-05   -0.12072E-06  2493   0.175E-03    0.827E-04
RMM:  13    -0.413176826921E+03    0.11896E-05   -0.40474E-07  2214   0.112E-03    0.566E-04
RMM:  14    -0.413176826447E+03    0.47359E-06   -0.19137E-07  1695   0.792E-04
   25 T=    63. E= -.41286662E+03 F= -.41317683E+03 E0= -.41315503E+03  EK= 0.31020E+00 SP= 0.00E+00 SK= 0.00E+00
       N       E                     dE             d eps       ncg     rms          rms(c)
RMM:   1    -0.413176116345E+03    0.71058E-03   -0.96182E+00  4294   0.735E-01    0.919E-01
RMM:   2    -0.413181362354E+03   -0.52460E-02   -0.11786E-01  4271   0.978E-02    0.654E-01
RMM:   3    -0.413178509917E+03    0.28524E-02   -0.14050E-02  4768   0.498E-02    0.116E-01
RMM:   4    -0.413204291705E+03   -0.25782E-01   -0.26612E-02  5133   0.136E-01    0.671E-01
RMM:   5    -0.413178054307E+03    0.26237E-01   -0.13006E-02  4803   0.111E-01    0.479E-02
RMM:   6    -0.413178190971E+03   -0.13666E-03   -0.22311E-03  5793   0.456E-02    0.323E-02
RMM:   7    -0.413178183643E+03    0.73280E-05   -0.36034E-04  5613   0.186E-02    0.195E-02
RMM:   8    -0.413178171391E+03    0.12252E-04   -0.64510E-05  5039   0.881E-03    0.102E-02
RMM:   9    -0.413178164296E+03    0.70945E-05   -0.12091E-05  3890   0.407E-03    0.752E-03
RMM:  10    -0.413178158691E+03    0.56048E-05   -0.18498E-06  2549   0.227E-03    0.454E-03
RMM:  11    -0.413178153349E+03    0.53425E-05   -0.13449E-06  2519   0.188E-03    0.234E-03
RMM:  12    -0.413178145966E+03    0.73831E-05   -0.14306E-06  2520   0.188E-03    0.946E-04
RMM:  13    -0.413178142792E+03    0.31736E-05   -0.47826E-07  2317   0.123E-03    0.611E-04
RMM:  14    -0.413178142445E+03    0.34680E-06   -0.22618E-07  1835   0.834E-04
   26 T=    63. E= -.41286667E+03 F= -.41317814E+03 E0= -.41315639E+03  EK= 0.31147E+00 SP= 0.00E+00 SK= 0.00E+00
       N       E                     dE             d eps       ncg     rms          rms(c)
RMM:   1    -0.413182017622E+03   -0.38748E-02   -0.96466E+00  4292   0.791E-01    0.897E-01
RMM:   2    -0.413183333918E+03   -0.13163E-02   -0.12416E-01  4269   0.104E-01    0.655E-01
RMM:   3    -0.413180072196E+03    0.32617E-02   -0.13779E-02  4609   0.496E-02    0.986E-02
RMM:   4    -0.413195891186E+03   -0.15819E-01   -0.16089E-02  5140   0.106E-01    0.528E-01
RMM:   5    -0.413179874667E+03    0.16017E-01   -0.80556E-03  4817   0.870E-02    0.429E-02
RMM:   6    -0.413179940821E+03   -0.66154E-04   -0.13903E-03  5818   0.350E-02    0.254E-02
RMM:   7    -0.413179937054E+03    0.37670E-05   -0.16373E-04  5487   0.133E-02    0.117E-02
RMM:   8    -0.413179931861E+03    0.51928E-05   -0.24649E-05  4474   0.527E-03    0.771E-03
RMM:   9    -0.413179928630E+03    0.32310E-05   -0.44231E-06  2883   0.264E-03    0.498E-03
RMM:  10    -0.413179927578E+03    0.10525E-05   -0.11334E-06  2489   0.177E-03    0.354E-03
RMM:  11    -0.413179923131E+03    0.44464E-05   -0.18149E-06  2540   0.221E-03    0.192E-03
RMM:  12    -0.413179920560E+03    0.25716E-05   -0.84856E-07  2447   0.155E-03    0.115E-03
RMM:  13    -0.413179919874E+03    0.68615E-06   -0.28528E-07  2151   0.972E-04
   27 T=    64. E= -.41286694E+03 F= -.41317992E+03 E0= -.41315822E+03  EK= 0.31298E+00 SP= 0.00E+00 SK= 0.00E+00
       N       E                     dE             d eps       ncg     rms          rms(c)
RMM:   1    -0.413179310959E+03    0.60960E-03   -0.97218E+00  4292   0.768E-01    0.908E-01
RMM:   2    -0.413184637153E+03   -0.53262E-02   -0.12131E-01  4270   0.101E-01    0.665E-01
RMM:   3    -0.413181153135E+03    0.34840E-02   -0.14645E-02  4528   0.508E-02    0.841E-02
RMM:   4    -0.413192133051E+03   -0.10980E-01   -0.11118E-02  5143   0.883E-02    0.442E-01
RMM:   5    -0.413181031229E+03    0.11102E-01   -0.56269E-03  4831   0.726E-02    0.410E-02
RMM:   6    -0.413181067545E+03   -0.36316E-04   -0.10291E-03  5838   0.296E-02    0.233E-02
RMM:   7    -0.413181070273E+03   -0.27281E-05   -0.16786E-04  5487   0.134E-02    0.143E-02
RMM:   8    -0.413181057747E+03    0.12526E-04   -0.27946E-05  4618   0.598E-03    0.749E-03
RMM:   9    -0.413181056586E+03    0.11612E-05   -0.55265E-06  3060   0.294E-03    0.569E-03
RMM:  10    -0.413181054303E+03    0.22831E-05   -0.13557E-06  2499   0.201E-03    0.310E-03
RMM:  11    -0.413181051948E+03    0.23545E-05   -0.10082E-06  2485   0.165E-03    0.164E-03
RMM:  12    -0.413181049164E+03    0.27849E-05   -0.65858E-07  2397   0.132E-03    0.772E-04
RMM:  13    -0.413181048064E+03    0.10998E-05   -0.28046E-07  1992   0.912E-04    0.401E-04
RMM:  14    -0.413181046840E+03    0.12240E-05   -0.14723E-07  1414   0.720E-04    0.271E-04
RMM:  15    -0.413181043860E+03    0.29793E-05   -0.14545E-07  1583   0.726E-04    0.168E-04
RMM:  16    -0.413181042311E+03    0.15493E-05   -0.63637E-08  1010   0.613E-04    0.142E-04
RMM:  17    -0.413181040145E+03    0.21666E-05   -0.56297E-08   989   0.598E-04    0.969E-05
RMM:  18    -0.413181037647E+03    0.24979E-05   -0.50404E-08   967   0.586E-04    0.276E-05
RMM:  19    -0.413181036775E+03    0.87154E-06   -0.21954E-08   769   0.546E-04
   28 T=    64. E= -.41286666E+03 F= -.41318104E+03 E0= -.41315939E+03  EK= 0.31438E+00 SP= 0.00E+00 SK= 0.00E+00
       N       E                     dE             d eps       ncg     rms          rms(c)
RMM:   1    -0.413181064194E+03   -0.26547E-04   -0.97416E+00  4291   0.762E-01    0.926E-01
RMM:   2    -0.413186482530E+03   -0.54183E-02   -0.12006E-01  4269   0.104E-01    0.660E-01
RMM:   3    -0.413183202087E+03    0.32804E-02   -0.14263E-02  4655   0.508E-02    0.106E-01
RMM:   4    -0.413200844572E+03   -0.17642E-01   -0.17926E-02  5147   0.112E-01    0.557E-01
RMM:   5    -0.413182986608E+03    0.17858E-01   -0.89751E-03  4815   0.921E-02    0.448E-02
RMM:   6    -0.413183060464E+03   -0.73856E-04   -0.15368E-03  5826   0.372E-02    0.270E-02
RMM:   7    -0.413183056642E+03    0.38220E-05   -0.19419E-04  5514   0.145E-02    0.131E-02
RMM:   8    -0.413183047036E+03    0.96060E-05   -0.28856E-05  4639   0.575E-03    0.812E-03
RMM:   9    -0.413183045003E+03    0.20335E-05   -0.85418E-06  3582   0.328E-03    0.668E-03
RMM:  10    -0.413183039985E+03    0.50179E-05   -0.14591E-06  2531   0.211E-03    0.393E-03
RMM:  11    -0.413183034926E+03    0.50587E-05   -0.13540E-06  2521   0.186E-03    0.207E-03
RMM:  12    -0.413183028603E+03    0.63225E-05   -0.11323E-06  2487   0.172E-03    0.101E-03
RMM:  13    -0.413183026831E+03    0.17726E-05   -0.37553E-07  2235   0.110E-03    0.555E-04
RMM:  14    -0.413183025956E+03    0.87497E-06   -0.17120E-07  1638   0.759E-04
   29 T=    64. E= -.41286685E+03 F= -.41318303E+03 E0= -.41316143E+03  EK= 0.31618E+00 SP= 0.00E+00 SK= 0.00E+00
       N       E                     dE             d eps       ncg     rms          rms(c)
RMM:   1    -0.413183561504E+03   -0.53467E-03   -0.97247E+00  4292   0.800E-01    0.907E-01
RMM:   2    -0.413188723910E+03   -0.51624E-02   -0.12230E-01  4268   0.115E-01    0.658E-01
RMM:   3    -0.413184999262E+03    0.37246E-02   -0.14176E-02  4418   0.547E-02    0.893E-02
RMM:   4    -0.413191330400E+03   -0.63311E-02   -0.66143E-03  5145   0.681E-02    0.337E-01
RMM:   5    -0.413184952284E+03    0.63781E-02   -0.32685E-03  4824   0.556E-02    0.402E-02
RMM:   6    -0.413184976042E+03   -0.23758E-04   -0.74697E-04  5761   0.254E-02    0.263E-02
RMM:   7    -0.413184964586E+03    0.11456E-04   -0.23227E-04  5287   0.154E-02    0.171E-02
RMM:   8    -0.413184950138E+03    0.14448E-04   -0.20971E-05  4413   0.591E-03    0.743E-03
RMM:   9    -0.413184947892E+03    0.22465E-05   -0.32831E-06  2737   0.241E-03    0.495E-03
RMM:  10    -0.413184943815E+03    0.40762E-05   -0.14093E-06  2501   0.189E-03    0.267E-03
RMM:  11    -0.413184939825E+03    0.39905E-05   -0.89816E-07  2458   0.156E-03    0.126E-03
RMM:  12    -0.413184936385E+03    0.34397E-05   -0.48170E-07  2252   0.117E-03    0.604E-04
RMM:  13    -0.413184934192E+03    0.21928E-05   -0.25376E-07  1864   0.865E-04    0.290E-04
RMM:  14    -0.413184931906E+03    0.22861E-05   -0.13468E-07  1358   0.703E-04    0.181E-04
RMM:  15    -0.413184928364E+03    0.35428E-05   -0.97706E-08  1187   0.662E-04    0.102E-04
RMM:  16    -0.413184926044E+03    0.23196E-05   -0.61351E-08  1021   0.618E-04    0.740E-05
RMM:  17    -0.413184923403E+03    0.26411E-05   -0.58687E-08  1085   0.609E-04    0.468E-05
RMM:  18    -0.413184920728E+03    0.26749E-05   -0.49367E-08  1051   0.589E-04    0.289E-05
RMM:  19    -0.413184920118E+03    0.60950E-06   -0.17171E-08   709   0.529E-04
   30 T=    65. E= -.41286679E+03 F= -.41318492E+03 E0= -.41316337E+03  EK= 0.31813E+00 SP= 0.00E+00 SK= 0.00E+00
       N       E                     dE             d eps       ncg     rms          rms(c)
RMM:   1    -0.413185000494E+03   -0.79766E-04   -0.98548E+00  4294   0.802E-01    0.910E-01
RMM:   2    -0.413190799488E+03   -0.57990E-02   -0.12441E-01  4274   0.118E-01    0.670E-01
RMM:   3    -0.413186699640E+03    0.40998E-02   -0.15077E-02  4517   0.608E-02    0.860E-02
RMM:   4    -0.413198933095E+03   -0.12233E-01   -0.12391E-02  5140   0.932E-02    0.466E-01
RMM:   5    -0.413186549082E+03    0.12384E-01   -0.62589E-03  4822   0.767E-02    0.420E-02
RMM:   6    -0.413186599018E+03   -0.49936E-04   -0.11599E-03  5831   0.313E-02    0.254E-02
RMM:   7    -0.413186606008E+03   -0.69898E-05   -0.22387E-04  5471   0.150E-02    0.165E-02
RMM:   8    -0.413186590506E+03    0.15502E-04   -0.33655E-05  4720   0.671E-03    0.794E-03
RMM:   9    -0.413186589537E+03    0.96881E-06   -0.64676E-06  3185   0.314E-03
   31 T=    65. E= -.41286649E+03 F= -.41318659E+03 E0= -.41316509E+03  EK= 0.32010E+00 SP= 0.00E+00 SK= 0.00E+00
       N       E                     dE             d eps       ncg     rms          rms(c)
RMM:   1    -0.413189186959E+03   -0.25965E-02   -0.99188E+00  4296   0.815E-01    0.933E-01
RMM:   2    -0.413192855298E+03   -0.36683E-02   -0.12461E-01  4302   0.122E-01    0.668E-01
RMM:   3    -0.413192371208E+03    0.48409E-03   -0.16711E-02  5015   0.817E-02    0.257E-01
RMM:   4    -0.413226526701E+03   -0.34155E-01   -0.47407E-02  5093   0.184E-01    0.794E-01
RMM:   5    -0.413189029560E+03    0.37497E-01   -0.16268E-02  4757   0.131E-01    0.566E-02
RMM:   6    -0.413189181400E+03   -0.15184E-03   -0.30953E-03  5762   0.528E-02    0.357E-02
RMM:   7    -0.413189177130E+03    0.42693E-05   -0.46883E-04  5727   0.199E-02    0.231E-02
RMM:   8    -0.413189166909E+03    0.10222E-04   -0.90138E-05  5189   0.103E-02    0.111E-02
RMM:   9    -0.413189156166E+03    0.10743E-04   -0.14149E-05  4044   0.464E-03    0.588E-03
RMM:  10    -0.413189150352E+03    0.58142E-05   -0.30723E-06  2692   0.251E-03    0.386E-03
RMM:  11    -0.413189145269E+03    0.50832E-05   -0.11515E-06  2498   0.180E-03    0.209E-03
RMM:  12    -0.413189136924E+03    0.83451E-05   -0.10983E-06  2485   0.172E-03    0.730E-04
RMM:  13    -0.413189132427E+03    0.44971E-05   -0.53459E-07  2346   0.124E-03    0.503E-04
RMM:  14    -0.413189131194E+03    0.12322E-05   -0.26408E-07  1959   0.884E-04    0.369E-04
RMM:  15    -0.413189128809E+03    0.23858E-05   -0.14111E-07  1427   0.712E-04    0.198E-04
RMM:  16    -0.413189122793E+03    0.60156E-05   -0.14111E-07  1526   0.725E-04    0.263E-04
RMM:  17    -0.413189120231E+03    0.25620E-05   -0.67899E-08  1014   0.605E-04    0.183E-04
RMM:  18    -0.413189115525E+03    0.47057E-05   -0.80381E-08  1264   0.640E-04    0.145E-04
RMM:  19    -0.413189114261E+03    0.12640E-05   -0.40036E-08   905   0.555E-04    0.568E-05
RMM:  20    -0.413189112943E+03    0.13187E-05   -0.31938E-08   904   0.558E-04    0.378E-05
RMM:  21    -0.413189112812E+03    0.13009E-06   -0.13152E-08   706   0.525E-04
   32 T=    66. E= -.41286678E+03 F= -.41318911E+03 E0= -.41316766E+03  EK= 0.32233E+00 SP= 0.00E+00 SK= 0.00E+00
       N       E                     dE             d eps       ncg     rms          rms(c)
RMM:   1    -0.413190612684E+03   -0.14997E-02   -0.98965E+00  4291   0.825E-01    0.920E-01
RMM:   2    -0.413194818923E+03   -0.42062E-02   -0.12547E-01  4270   0.121E-01    0.663E-01
RMM:   3    -0.413191047860E+03    0.37711E-02   -0.14313E-02  4281   0.587E-02    0.898E-02
RMM:   4    -0.413191758373E+03   -0.71051E-03   -0.12535E-03  5118   0.278E-02    0.114E-01
RMM:   5    -0.413191101914E+03    0.65646E-03   -0.41181E-04  4810   0.203E-02    0.410E-02
RMM:   6    -0.413191122198E+03   -0.20283E-04   -0.39664E-04  5366   0.193E-02    0.301E-02
RMM:   7    -0.413191078637E+03    0.43561E-04   -0.20007E-04  4883   0.144E-02    0.168E-02
RMM:   8    -0.413191073667E+03    0.49693E-05   -0.24964E-05  4458   0.524E-03    0.598E-03
RMM:   9    -0.413191072420E+03    0.12475E-05   -0.29929E-06  2524   0.214E-03    0.284E-03
RMM:  10    -0.413191066786E+03    0.56338E-05   -0.88343E-07  2416   0.148E-03    0.127E-03
RMM:  11    -0.413191062452E+03    0.43338E-05   -0.39741E-07  2086   0.966E-04    0.500E-04
RMM:  12    -0.413191058852E+03    0.36004E-05   -0.19442E-07  1629   0.771E-04    0.310E-04
RMM:  13    -0.413191055632E+03    0.32194E-05   -0.12560E-07  1383   0.693E-04    0.206E-04
RMM:  14    -0.413191052022E+03    0.36104E-05   -0.82935E-08  1094   0.641E-04    0.104E-04
RMM:  15    -0.413191047999E+03    0.40231E-05   -0.63696E-08  1020   0.616E-04    0.849E-05
RMM:  16    -0.413191044293E+03    0.37063E-05   -0.51389E-08   962   0.599E-04    0.599E-05
RMM:  17    -0.413191042852E+03    0.14405E-05   -0.24520E-08   748   0.553E-04    0.447E-05
RMM:  18    -0.413191042033E+03    0.81934E-06   -0.16925E-08   709   0.541E-04
   33 T=    66. E= -.41286664E+03 F= -.41319104E+03 E0= -.41316964E+03  EK= 0.32440E+00 SP= 0.00E+00 SK= 0.00E+00
       N       E                     dE             d eps       ncg     rms          rms(c)
RMM:   1    -0.413194405578E+03   -0.33627E-02   -0.10029E+01  4300   0.860E-01    0.915E-01
RMM:   2    -0.413197467731E+03   -0.30622E-02   -0.13094E-01  4266   0.129E-01    0.675E-01
RMM:   3    -0.413193389604E+03    0.40781E-02   -0.14854E-02  4265   0.627E-02    0.799E-02
RMM:   4    -0.413194263946E+03   -0.87434E-03   -0.13549E-03  5143   0.297E-02    0.126E-01
RMM:   5    -0.413193444912E+03    0.81903E-03   -0.46955E-04  4792   0.217E-02    0.395E-02
RMM:   6    -0.413193466892E+03   -0.21980E-04   -0.38899E-04  5417   0.189E-02    0.283E-02
RMM:   7    -0.413193435312E+03    0.31580E-04   -0.19490E-04  4910   0.143E-02    0.185E-02
RMM:   8    -0.413193429092E+03    0.62204E-05   -0.24467E-05  4254   0.507E-03    0.594E-03
RMM:   9    -0.413193428618E+03    0.47438E-06   -0.27588E-06  2510   0.214E-03
   34 T=    67. E= -.41286671E+03 F= -.41319343E+03 E0= -.41317208E+03  EK= 0.32671E+00 SP= 0.00E+00 SK= 0.00E+00
       N       E                     dE             d eps       ncg     rms          rms(c)
RMM:   1    -0.413201494258E+03   -0.80652E-02   -0.10147E+01  4298   0.917E-01    0.937E-01
RMM:   2    -0.413199613061E+03    0.18812E-02   -0.13791E-01  4261   0.132E-01    0.677E-01
RMM:   3    -0.413196100302E+03    0.35128E-02   -0.14147E-02  4381   0.615E-02    0.105E-01
RMM:   4    -0.413200241694E+03   -0.41414E-02   -0.46378E-03  5180   0.580E-02    0.273E-01
RMM:   5    -0.413196143269E+03    0.40984E-02   -0.21341E-03  4814   0.458E-02    0.420E-02
RMM:   6    -0.413196147913E+03   -0.46445E-05   -0.59223E-04  5626   0.246E-02    0.320E-02
RMM:   7    -0.413196124880E+03    0.23033E-04   -0.26053E-04  5093   0.159E-02    0.171E-02
RMM:   8    -0.413196115361E+03    0.95188E-05   -0.25956E-05  4649   0.582E-03    0.717E-03
RMM:   9    -0.413196113035E+03    0.23266E-05   -0.38871E-06  2685   0.233E-03    0.370E-03
RMM:  10    -0.413196106775E+03    0.62600E-05   -0.11387E-06  2489   0.178E-03    0.200E-03
RMM:  11    -0.413196101406E+03    0.53687E-05   -0.57673E-07  2369   0.123E-03    0.100E-03
RMM:  12    -0.413196095628E+03    0.57781E-05   -0.38015E-07  2089   0.102E-03    0.371E-04
RMM:  13    -0.413196091362E+03    0.42653E-05   -0.19639E-07  1576   0.781E-04    0.246E-04
RMM:  14    -0.413196086972E+03    0.43900E-05   -0.11290E-07  1151   0.674E-04    0.182E-04
RMM:  15    -0.413196079759E+03    0.72138E-05   -0.11928E-07  1300   0.689E-04    0.971E-05
RMM:  16    -0.413196077184E+03    0.25744E-05   -0.59654E-08   982   0.594E-04    0.800E-05
RMM:  17    -0.413196073546E+03    0.36386E-05   -0.53334E-08  1029   0.591E-04    0.336E-05
RMM:  18    -0.413196072093E+03    0.14524E-05   -0.26597E-08   745   0.536E-04    0.226E-05
RMM:  19    -0.413196071587E+03    0.50623E-06   -0.15344E-08   620   0.517E-04
   35 T=    67. E= -.41286689E+03 F= -.41319607E+03 E0= -.41317476E+03  EK= 0.32919E+00 SP= 0.00E+00 SK= 0.00E+00
       N       E                     dE             d eps       ncg     rms          rms(c)
RMM:   1    -0.413199556257E+03   -0.34842E-02   -0.10112E+01  4301   0.890E-01    0.936E-01
RMM:   2    -0.413201403147E+03   -0.18469E-02   -0.12844E-01  4247   0.130E-01    0.671E-01
RMM:   3    -0.413198229327E+03    0.31738E-02   -0.14632E-02  4497   0.626E-02    0.102E-01
RMM:   4    -0.413208534045E+03   -0.10305E-01   -0.10495E-02  5176   0.866E-02    0.429E-01
RMM:   5    -0.413198183872E+03    0.10350E-01   -0.52600E-03  4818   0.711E-02    0.436E-02
RMM:   6    -0.413198197449E+03   -0.13578E-04   -0.10884E-03  5772   0.318E-02    0.302E-02
RMM:   7    -0.413198191359E+03    0.60901E-05   -0.31047E-04  5339   0.175E-02    0.189E-02
RMM:   8    -0.413198174085E+03    0.17274E-04   -0.33105E-05  4848   0.698E-03    0.856E-03
RMM:   9    -0.413198171253E+03    0.28323E-05   -0.55527E-06  2995   0.294E-03    0.540E-03
RMM:  10    -0.413198165781E+03    0.54716E-05   -0.15449E-06  2518   0.212E-03    0.287E-03
RMM:  11    -0.413198160172E+03    0.56096E-05   -0.10407E-06  2483   0.168E-03    0.145E-03
RMM:  12    -0.413198154642E+03    0.55297E-05   -0.61726E-07  2389   0.132E-03    0.721E-04
RMM:  13    -0.413198151721E+03    0.29210E-05   -0.29936E-07  2012   0.941E-04    0.351E-04
RMM:  14    -0.413198149078E+03    0.26428E-05   -0.15024E-07  1448   0.728E-04    0.214E-04
RMM:  15    -0.413198144939E+03    0.41389E-05   -0.91557E-08  1192   0.663E-04    0.107E-04
RMM:  16    -0.413198141482E+03    0.34576E-05   -0.63188E-08  1048   0.628E-04    0.744E-05
RMM:  17    -0.413198139105E+03    0.23772E-05   -0.42746E-08   959   0.598E-04    0.509E-05
RMM:  18    -0.413198134856E+03    0.42488E-05   -0.53794E-08  1185   0.620E-04    0.316E-05
RMM:  19    -0.413198133878E+03    0.97815E-06   -0.22540E-08   817   0.542E-04
   36 T=    67. E= -.41286664E+03 F= -.41319813E+03 E0= -.41317687E+03  EK= 0.33150E+00 SP= 0.00E+00 SK= 0.00E+00
       N       E                     dE             d eps       ncg     rms          rms(c)
RMM:   1    -0.413204863038E+03   -0.67282E-02   -0.10220E+01  4304   0.950E-01    0.922E-01
RMM:   2    -0.413205076868E+03   -0.21383E-03   -0.14097E-01  4245   0.138E-01    0.680E-01
RMM:   3    -0.413201152253E+03    0.39246E-02   -0.14313E-02  4542   0.628E-02    0.107E-01
RMM:   4    -0.413215475373E+03   -0.14323E-01   -0.14552E-02  5163   0.102E-01    0.504E-01
RMM:   5    -0.413201056498E+03    0.14419E-01   -0.73213E-03  4813   0.835E-02    0.445E-02
RMM:   6    -0.413201070714E+03   -0.14216E-04   -0.13343E-03  5824   0.350E-02    0.293E-02
RMM:   7    -0.413201080964E+03   -0.10250E-04   -0.32038E-04  5435   0.174E-02    0.191E-02
RMM:   8    -0.413201063255E+03    0.17710E-04   -0.42508E-05  4894   0.763E-03    0.843E-03
RMM:   9    -0.413201062140E+03    0.11147E-05   -0.78075E-06  3288   0.343E-03    0.557E-03
RMM:  10    -0.413201059540E+03    0.26004E-05   -0.15722E-06  2523   0.217E-03    0.306E-03
RMM:  11    -0.413201056783E+03    0.27563E-05   -0.10492E-06  2500   0.167E-03    0.161E-03
RMM:  12    -0.413201053195E+03    0.35877E-05   -0.80139E-07  2437   0.143E-03    0.831E-04
RMM:  13    -0.413201051418E+03    0.17777E-05   -0.32966E-07  2059   0.984E-04    0.404E-04
RMM:  14    -0.413201050179E+03    0.12392E-05   -0.16456E-07  1475   0.741E-04    0.261E-04
RMM:  15    -0.413201047361E+03    0.28173E-05   -0.11254E-07  1281   0.686E-04    0.108E-04
RMM:  16    -0.413201045251E+03    0.21104E-05   -0.69337E-08  1040   0.633E-04    0.771E-05
RMM:  17    -0.413201043304E+03    0.19465E-05   -0.51705E-08   993   0.610E-04    0.645E-05
RMM:  18    -0.413201040433E+03    0.28712E-05   -0.48202E-08  1027   0.607E-04    0.296E-05
RMM:  19    -0.413201039448E+03    0.98487E-06   -0.24218E-08   810   0.559E-04
   37 T=    68. E= -.41286689E+03 F= -.41320104E+03 E0= -.41317982E+03  EK= 0.33415E+00 SP= 0.00E+00 SK= 0.00E+00
       N       E                     dE             d eps       ncg     rms          rms(c)
RMM:   1    -0.413215035038E+03   -0.13995E-01   -0.10405E+01  4308   0.103E+00    0.940E-01
RMM:   2    -0.413207805717E+03    0.72293E-02   -0.15396E-01  4246   0.138E-01    0.688E-01
RMM:   3    -0.413203920647E+03    0.38851E-02   -0.13637E-02  4762   0.599E-02    0.149E-01
RMM:   4    -0.413238851894E+03   -0.34931E-01   -0.35911E-02  5147   0.159E-01    0.778E-01
RMM:   5    -0.413203448673E+03    0.35403E-01   -0.17862E-02  4802   0.130E-01    0.517E-02
RMM:   6    -0.413203528288E+03   -0.79615E-04   -0.28927E-03  5845   0.507E-02    0.329E-02
RMM:   7    -0.413203536437E+03   -0.81484E-05   -0.35447E-04  5630   0.181E-02    0.165E-02
RMM:   8    -0.413203529644E+03    0.67927E-05   -0.46517E-05  4771   0.706E-03    0.887E-03
RMM:   9    -0.413203529327E+03    0.31664E-06   -0.17292E-05  4278   0.431E-03    0.741E-03
RMM:  10    -0.413203524263E+03    0.50641E-05   -0.32562E-06  2769   0.260E-03    0.435E-03
RMM:  11    -0.413203521162E+03    0.31011E-05   -0.15606E-06  2524   0.199E-03    0.264E-03
RMM:  12    -0.413203514071E+03    0.70908E-05   -0.20059E-06  2556   0.225E-03    0.127E-03
RMM:  13    -0.413203511559E+03    0.25124E-05   -0.58175E-07  2402   0.141E-03    0.787E-04
RMM:  14    -0.413203511412E+03    0.14705E-06   -0.23831E-07  1987   0.882E-04
   38 T=    69. E= -.41286679E+03 F= -.41320351E+03 E0= -.41318233E+03  EK= 0.33672E+00 SP= 0.00E+00 SK= 0.00E+00
       N       E                     dE             d eps       ncg     rms          rms(c)
RMM:   1    -0.413205578528E+03   -0.20670E-02   -0.10316E+01  4307   0.974E-01    0.953E-01
RMM:   2    -0.413210107120E+03   -0.45286E-02   -0.13560E-01  4249   0.124E-01    0.680E-01
RMM:   3    -0.413206557657E+03    0.35495E-02   -0.14699E-02  4862   0.574E-02    0.145E-01
RMM:   4    -0.413243124959E+03   -0.36567E-01   -0.38175E-02  5138   0.163E-01    0.796E-01
RMM:   5    -0.413205969769E+03    0.37155E-01   -0.18584E-02  4802   0.133E-01    0.535E-02
RMM:   6    -0.413206054066E+03   -0.84297E-04   -0.30520E-03  5832   0.519E-02    0.340E-02
RMM:   7    -0.413206061569E+03   -0.75027E-05   -0.39646E-04  5690   0.188E-02    0.182E-02
RMM:   8    -0.413206050266E+03    0.11303E-04   -0.63694E-05  5022   0.830E-03    0.105E-02
RMM:   9    -0.413206047482E+03    0.27841E-05   -0.21616E-05  4571   0.500E-03    0.783E-03
RMM:  10    -0.413206039712E+03    0.77699E-05   -0.28840E-06  2667   0.268E-03    0.447E-03
RMM:  11    -0.413206035292E+03    0.44202E-05   -0.13382E-06  2500   0.189E-03    0.278E-03
RMM:  12    -0.413206024187E+03    0.11105E-04   -0.18439E-06  2538   0.221E-03    0.134E-03
RMM:  13    -0.413206019141E+03    0.50461E-05   -0.69446E-07  2418   0.148E-03    0.884E-04
RMM:  14    -0.413206018686E+03    0.45544E-06   -0.27254E-07  2076   0.942E-04
   39 T=    69. E= -.41286672E+03 F= -.41320602E+03 E0= -.41318488E+03  EK= 0.33930E+00 SP= 0.00E+00 SK= 0.00E+00
       N       E                     dE             d eps       ncg     rms          rms(c)
RMM:   1    -0.413225300567E+03   -0.19281E-01   -0.10520E+01  4309   0.112E+00    0.931E-01
RMM:   2    -0.413213502566E+03    0.11798E-01   -0.16171E-01  4249   0.135E-01    0.687E-01
RMM:   3    -0.413209803848E+03    0.36987E-02   -0.13354E-02  4961   0.597E-02    0.185E-01
RMM:   4    -0.413260092064E+03   -0.50288E-01   -0.54323E-02  5132   0.194E-01    0.929E-01
RMM:   5    -0.413208731844E+03    0.51360E-01   -0.25354E-02  4785   0.156E-01    0.586E-02
RMM:   6    -0.413208888220E+03   -0.15638E-03   -0.41598E-03  5827   0.604E-02    0.361E-02
RMM:   7    -0.413208898236E+03   -0.10016E-04   -0.49424E-04  5762   0.204E-02    0.200E-02
RMM:   8    -0.413208899120E+03   -0.88341E-06   -0.98693E-05  5207   0.976E-03    0.127E-02
RMM:   9    -0.413208888752E+03    0.10367E-04   -0.27855E-05  4744   0.577E-03    0.767E-03
RMM:  10    -0.413208884476E+03    0.42767E-05   -0.43009E-06  2809   0.296E-03    0.465E-03
RMM:  11    -0.413208881131E+03    0.33452E-05   -0.16748E-06  2511   0.212E-03    0.285E-03
RMM:  12    -0.413208873502E+03    0.76290E-05   -0.18367E-06  2541   0.220E-03    0.107E-03
RMM:  13    -0.413208869203E+03    0.42985E-05   -0.74619E-07  2437   0.151E-03    0.843E-04
RMM:  14    -0.413208868830E+03    0.37277E-06   -0.30402E-07  2128   0.982E-04
   40 T=    70. E= -.41286695E+03 F= -.41320887E+03 E0= -.41318776E+03  EK= 0.34192E+00 SP= 0.00E+00 SK= 0.00E+00
       N       E                     dE             d eps       ncg     rms          rms(c)
RMM:   1    -0.413222309115E+03   -0.13440E-01   -0.10603E+01  4311   0.113E+00    0.946E-01
RMM:   2    -0.413215458939E+03    0.68502E-02   -0.15236E-01  4252   0.140E-01    0.695E-01
RMM:   3    -0.413212285074E+03    0.31739E-02   -0.15205E-02  5004   0.654E-02    0.201E-01
RMM:   4    -0.413263926792E+03   -0.51642E-01   -0.59004E-02  5130   0.203E-01    0.945E-01
RMM:   5    -0.413210611354E+03    0.53315E-01   -0.25591E-02  4783   0.158E-01    0.602E-02
RMM:   6    -0.413210778672E+03   -0.16732E-03   -0.43003E-03  5820   0.613E-02    0.364E-02
RMM:   7    -0.413210791266E+03   -0.12594E-04   -0.52410E-04  5784   0.208E-02    0.214E-02
RMM:   8    -0.413210792957E+03   -0.16907E-05   -0.11705E-04  5231   0.107E-02    0.139E-02
RMM:   9    -0.413210780151E+03    0.12806E-04   -0.27163E-05  4716   0.599E-03    0.731E-03
RMM:  10    -0.413210776140E+03    0.40106E-05   -0.48897E-06  2902   0.302E-03    0.445E-03
RMM:  11    -0.413210773073E+03    0.30670E-05   -0.15441E-06  2503   0.208E-03    0.269E-03
RMM:  12    -0.413210766257E+03    0.68155E-05   -0.16012E-06  2526   0.207E-03    0.102E-03
RMM:  13    -0.413210761972E+03    0.42850E-05   -0.70580E-07  2434   0.145E-03    0.717E-04
RMM:  14    -0.413210761420E+03    0.55286E-06   -0.30305E-07  2097   0.968E-04
   41 T=    70. E= -.41286663E+03 F= -.41321076E+03 E0= -.41318969E+03  EK= 0.34413E+00 SP= 0.00E+00 SK= 0.00E+00
       N       E                     dE             d eps       ncg     rms          rms(c)
RMM:   1    -0.413217850617E+03   -0.70886E-02   -0.10561E+01  4311   0.115E+00    0.966E-01
RMM:   2    -0.413217118356E+03    0.73226E-03   -0.14470E-01  4286   0.135E-01    0.690E-01
RMM:   3    -0.413216133560E+03    0.98480E-03   -0.16757E-02  5067   0.747E-02    0.263E-01
RMM:   4    -0.413257034092E+03   -0.40901E-01   -0.54780E-02  5096   0.197E-01    0.862E-01
RMM:   5    -0.413213002764E+03    0.44031E-01   -0.19876E-02  4760   0.143E-01    0.607E-02
RMM:   6    -0.413213103191E+03   -0.10043E-03   -0.34717E-03  5787   0.557E-02    0.365E-02
RMM:   7    -0.413213109741E+03   -0.65495E-05   -0.47426E-04  5740   0.203E-02    0.223E-02
RMM:   8    -0.413213107730E+03    0.20107E-05   -0.12938E-04  5221   0.115E-02    0.135E-02
RMM:   9    -0.413213092090E+03    0.15640E-04   -0.22017E-05  4505   0.584E-03    0.595E-03
RMM:  10    -0.413213086062E+03    0.60284E-05   -0.49324E-06  2945   0.286E-03    0.372E-03
RMM:  11    -0.413213080848E+03    0.52140E-05   -0.12437E-06  2495   0.192E-03    0.210E-03
RMM:  12    -0.413213071377E+03    0.94709E-05   -0.97904E-07  2469   0.171E-03    0.810E-04
RMM:  13    -0.413213065597E+03    0.57803E-05   -0.47066E-07  2341   0.120E-03    0.449E-04
RMM:  14    -0.413213063934E+03    0.16625E-05   -0.23597E-07  1925   0.859E-04    0.316E-04
RMM:  15    -0.413213060380E+03    0.35538E-05   -0.12896E-07  1422   0.703E-04    0.157E-04
RMM:  16    -0.413213054021E+03    0.63597E-05   -0.10201E-07  1340   0.688E-04    0.176E-04
RMM:  17    -0.413213051163E+03    0.28573E-05   -0.56666E-08  1024   0.613E-04    0.107E-04
RMM:  18    -0.413213046579E+03    0.45843E-05   -0.61599E-08  1282   0.640E-04    0.854E-05
RMM:  19    -0.413213044124E+03    0.24548E-05   -0.38983E-08  1078   0.582E-04    0.459E-05
RMM:  20    -0.413213043324E+03    0.80033E-06   -0.21287E-08   837   0.536E-04
   42 T=    71. E= -.41286674E+03 F= -.41321304E+03 E0= -.41319200E+03  EK= 0.34630E+00 SP= 0.00E+00 SK= 0.00E+00
       N       E                     dE             d eps       ncg     rms          rms(c)
RMM:   1    -0.413248575767E+03   -0.35532E-01   -0.10822E+01  4311   0.135E+00    0.943E-01
RMM:   2    -0.413219159587E+03    0.29416E-01   -0.17072E-01  4309   0.149E-01    0.692E-01
RMM:   3    -0.413219491402E+03   -0.33181E-03   -0.16167E-02  5076   0.824E-02    0.324E-01
RMM:   4    -0.413256794805E+03   -0.37303E-01   -0.56377E-02  5094   0.201E-01    0.843E-01
RMM:   5    -0.413214894339E+03    0.41900E-01   -0.18348E-02  4735   0.141E-01    0.628E-02
RMM:   6    -0.413214966376E+03   -0.72037E-04   -0.32567E-03  5740   0.542E-02    0.361E-02
RMM:   7    -0.413214971204E+03   -0.48274E-05   -0.49230E-04  5776   0.201E-02    0.239E-02
RMM:   8    -0.413214967870E+03    0.33334E-05   -0.12794E-04  5192   0.117E-02    0.125E-02
RMM:   9    -0.413214955952E+03    0.11918E-04   -0.21058E-05  4485   0.577E-03    0.494E-03
RMM:  10    -0.413214952760E+03    0.31922E-05   -0.44576E-06  2864   0.267E-03    0.314E-03
RMM:  11    -0.413214949016E+03    0.37443E-05   -0.12744E-06  2493   0.188E-03    0.172E-03
RMM:  12    -0.413214943740E+03    0.52759E-05   -0.77259E-07  2450   0.149E-03    0.649E-04
RMM:  13    -0.413214940553E+03    0.31874E-05   -0.38739E-07  2141   0.106E-03    0.307E-04
RMM:  14    -0.413214938525E+03    0.20272E-05   -0.20904E-07  1683   0.814E-04    0.206E-04
RMM:  15    -0.413214934812E+03    0.37134E-05   -0.13798E-07  1349   0.718E-04    0.110E-04
RMM:  16    -0.413214932301E+03    0.25114E-05   -0.87464E-08  1148   0.662E-04    0.837E-05
RMM:  17    -0.413214929850E+03    0.24505E-05   -0.69408E-08  1163   0.642E-04    0.532E-05
RMM:  18    -0.413214927217E+03    0.26335E-05   -0.54469E-08  1129   0.619E-04    0.358E-05
RMM:  19    -0.413214925348E+03    0.18686E-05   -0.37189E-08   994   0.581E-04    0.229E-05
RMM:  20    -0.413214924812E+03    0.53548E-06   -0.19207E-08   773   0.546E-04
   43 T=    71. E= -.41286679E+03 F= -.41321492E+03 E0= -.41319391E+03  EK= 0.34814E+00 SP= 0.00E+00 SK= 0.00E+00
       N       E                     dE             d eps       ncg     rms          rms(c)
RMM:   1    -0.413225662434E+03   -0.10737E-01   -0.10698E+01  4311   0.129E+00    0.948E-01
RMM:   2    -0.413220309640E+03    0.53528E-02   -0.15500E-01  4306   0.156E-01    0.702E-01
RMM:   3    -0.413221674765E+03   -0.13651E-02   -0.19160E-02  5071   0.927E-02    0.342E-01
RMM:   4    -0.413254078913E+03   -0.32404E-01   -0.54615E-02  5066   0.199E-01    0.803E-01
RMM:   5    -0.413215878587E+03    0.38200E-01   -0.15866E-02  4712   0.133E-01    0.604E-02
RMM:   6    -0.413215926506E+03   -0.47919E-04   -0.29003E-03  5721   0.511E-02    0.348E-02
RMM:   7    -0.413215925866E+03    0.63966E-06   -0.43523E-04  5741   0.195E-02    0.227E-02
RMM:   8    -0.413215923171E+03    0.26950E-05   -0.11774E-04  5162   0.114E-02    0.117E-02
RMM:   9    -0.413215913106E+03    0.10065E-04   -0.18367E-05  4366   0.551E-03    0.473E-03
RMM:  10    -0.413215910745E+03    0.23610E-05   -0.38226E-06  2786   0.255E-03    0.296E-03
RMM:  11    -0.413215907969E+03    0.27762E-05   -0.12338E-06  2495   0.183E-03    0.160E-03
RMM:  12    -0.413215903809E+03    0.41596E-05   -0.78919E-07  2450   0.147E-03    0.621E-04
RMM:  13    -0.413215901323E+03    0.24863E-05   -0.38502E-07  2093   0.104E-03    0.295E-04
RMM:  14    -0.413215899599E+03    0.17241E-05   -0.21176E-07  1616   0.801E-04    0.191E-04
RMM:  15    -0.413215895942E+03    0.36571E-05   -0.15675E-07  1359   0.727E-04    0.122E-04
RMM:  16    -0.413215894194E+03    0.17473E-05   -0.90499E-08  1093   0.654E-04    0.819E-05
RMM:  17    -0.413215892003E+03    0.21918E-05   -0.75371E-08  1160   0.647E-04    0.516E-05
RMM:  18    -0.413215889602E+03    0.24004E-05   -0.60026E-08  1107   0.623E-04    0.345E-05
RMM:  19    -0.413215887957E+03    0.16447E-05   -0.38903E-08   983   0.590E-04    0.213E-05
RMM:  20    -0.413215887393E+03    0.56415E-06   -0.22122E-08   794   0.556E-04
   44 T=    71. E= -.41286656E+03 F= -.41321589E+03 E0= -.41319490E+03  EK= 0.34933E+00 SP= 0.00E+00 SK= 0.00E+00
       N       E                     dE             d eps       ncg     rms          rms(c)
RMM:   1    -0.413249278766E+03   -0.33391E-01   -0.10912E+01  4311   0.148E+00    0.971E-01
RMM:   2    -0.413220722812E+03    0.28556E-01   -0.16952E-01  4332   0.167E-01    0.699E-01
RMM:   3    -0.413225646840E+03   -0.49240E-02   -0.20509E-02  5112   0.104E-01    0.426E-01
RMM:   4    -0.413243948116E+03   -0.18301E-01   -0.47253E-02  5056   0.187E-01    0.684E-01
RMM:   5    -0.413216931469E+03    0.27017E-01   -0.10505E-02  4669   0.115E-01    0.597E-02
RMM:   6    -0.413216919180E+03    0.12289E-04   -0.20738E-03  5626   0.440E-02    0.347E-02
RMM:   7    -0.413216914104E+03    0.50756E-05   -0.35656E-04  5649   0.183E-02    0.228E-02
RMM:   8    -0.413216904699E+03    0.94049E-05   -0.12023E-04  5087   0.116E-02    0.108E-02
RMM:   9    -0.413216891873E+03    0.12827E-04   -0.16311E-05  4321   0.553E-03    0.436E-03
RMM:  10    -0.413216888012E+03    0.38607E-05   -0.31120E-06  2746   0.236E-03    0.258E-03
RMM:  11    -0.413216882192E+03    0.58204E-05   -0.11586E-06  2482   0.178E-03    0.140E-03
RMM:  12    -0.413216875909E+03    0.62832E-05   -0.62524E-07  2420   0.136E-03    0.628E-04
RMM:  13    -0.413216872217E+03    0.36917E-05   -0.29992E-07  1914   0.942E-04    0.297E-04
RMM:  14    -0.413216868882E+03    0.33349E-05   -0.17034E-07  1473   0.748E-04    0.169E-04
RMM:  15    -0.413216863653E+03    0.52294E-05   -0.12784E-07  1300   0.704E-04    0.124E-04
RMM:  16    -0.413216860764E+03    0.28882E-05   -0.83177E-08  1163   0.649E-04    0.944E-05
RMM:  17    -0.413216855932E+03    0.48322E-05   -0.83379E-08  1342   0.658E-04    0.656E-05
RMM:  18    -0.413216853886E+03    0.20457E-05   -0.45021E-08  1002   0.574E-04    0.418E-05
RMM:  19    -0.413216852272E+03    0.16142E-05   -0.31242E-08   890   0.551E-04    0.215E-05
RMM:  20    -0.413216851937E+03    0.33476E-06   -0.17878E-08   735   0.525E-04
   45 T=    71. E= -.41286690E+03 F= -.41321685E+03 E0= -.41319588E+03  EK= 0.34995E+00 SP= 0.00E+00 SK= 0.00E+00
       N       E                     dE             d eps       ncg     rms          rms(c)
RMM:   1    -0.413253229512E+03   -0.36377E-01   -0.10850E+01  4310   0.158E+00    0.951E-01
RMM:   2    -0.413220227353E+03    0.33002E-01   -0.17625E-01  4342   0.182E-01    0.694E-01
RMM:   3    -0.413227132187E+03   -0.69048E-02   -0.21412E-02  5112   0.113E-01    0.474E-01
RMM:   4    -0.413239188979E+03   -0.12057E-01   -0.45217E-02  5035   0.185E-01    0.634E-01
RMM:   5    -0.413216282583E+03    0.22906E-01   -0.85803E-03  4618   0.108E-01    0.589E-02
RMM:   6    -0.413216253403E+03    0.29180E-04   -0.17601E-03  5535   0.407E-02    0.335E-02
RMM:   7    -0.413216250548E+03    0.28549E-05   -0.31541E-04  5624   0.172E-02    0.224E-02
RMM:   8    -0.413216239965E+03    0.10583E-04   -0.12525E-04  5073   0.117E-02    0.105E-02
RMM:   9    -0.413216226897E+03    0.13068E-04   -0.16163E-05  4322   0.555E-03    0.425E-03
RMM:  10    -0.413216223623E+03    0.32740E-05   -0.28496E-06  2711   0.228E-03    0.246E-03
RMM:  11    -0.413216218158E+03    0.54653E-05   -0.12382E-06  2491   0.180E-03    0.133E-03
RMM:  12    -0.413216213107E+03    0.50509E-05   -0.59976E-07  2421   0.133E-03    0.669E-04
RMM:  13    -0.413216209712E+03    0.33951E-05   -0.28795E-07  1872   0.919E-04    0.319E-04
RMM:  14    -0.413216206338E+03    0.33736E-05   -0.16207E-07  1392   0.729E-04    0.172E-04
RMM:  15    -0.413216202136E+03    0.42020E-05   -0.12185E-07  1275   0.690E-04    0.120E-04
RMM:  16    -0.413216199366E+03    0.27701E-05   -0.80594E-08  1129   0.639E-04    0.992E-05
RMM:  17    -0.413216194906E+03    0.44600E-05   -0.82625E-08  1326   0.653E-04    0.673E-05
RMM:  18    -0.413216192970E+03    0.19365E-05   -0.43955E-08   991   0.569E-04    0.462E-05
RMM:  19    -0.413216191757E+03    0.12125E-05   -0.28868E-08   851   0.539E-04    0.261E-05
RMM:  20    -0.413216191135E+03    0.62164E-06   -0.18589E-08   756   0.526E-04
   46 T=    71. E= -.41286682E+03 F= -.41321619E+03 E0= -.41319524E+03  EK= 0.34937E+00 SP= 0.00E+00 SK= 0.00E+00
       N       E                     dE             d eps       ncg     rms          rms(c)
RMM:   1    -0.413234784581E+03   -0.18593E-01   -0.10693E+01  4310   0.156E+00    0.940E-01
RMM:   2    -0.413219063743E+03    0.15721E-01   -0.17313E-01  4354   0.188E-01    0.704E-01
RMM:   3    -0.413227470491E+03   -0.84067E-02   -0.23577E-02  5103   0.123E-01    0.504E-01
RMM:   4    -0.413237085352E+03   -0.96149E-02   -0.47170E-02  5031   0.190E-01    0.624E-01
RMM:   5    -0.413214656462E+03    0.22429E-01   -0.80191E-03  4606   0.106E-01    0.587E-02
RMM:   6    -0.413214608599E+03    0.47863E-04   -0.16473E-03  5473   0.395E-02    0.322E-02
RMM:   7    -0.413214604418E+03    0.41816E-05   -0.29080E-04  5644   0.167E-02    0.219E-02
RMM:   8    -0.413214594016E+03    0.10402E-04   -0.12771E-04  5073   0.118E-02    0.104E-02
RMM:   9    -0.413214582236E+03    0.11780E-04   -0.16156E-05  4289   0.560E-03    0.418E-03
RMM:  10    -0.413214580077E+03    0.21588E-05   -0.29298E-06  2731   0.229E-03    0.242E-03
RMM:  11    -0.413214576199E+03    0.38777E-05   -0.13204E-06  2502   0.184E-03    0.130E-03
RMM:  12    -0.413214572956E+03    0.32430E-05   -0.61556E-07  2419   0.135E-03    0.686E-04
RMM:  13    -0.413214570380E+03    0.25764E-05   -0.30472E-07  1844   0.936E-04    0.326E-04
RMM:  14    -0.413214567802E+03    0.25775E-05   -0.17686E-07  1406   0.742E-04    0.175E-04
RMM:  15    -0.413214564853E+03    0.29491E-05   -0.13030E-07  1271   0.693E-04    0.112E-04
RMM:  16    -0.413214562782E+03    0.20713E-05   -0.88910E-08  1181   0.646E-04    0.949E-05
RMM:  17    -0.413214559704E+03    0.30783E-05   -0.82793E-08  1263   0.643E-04    0.550E-05
RMM:  18    -0.413214557794E+03    0.19099E-05   -0.50465E-08  1021   0.585E-04    0.430E-05
RMM:  19    -0.413214557070E+03    0.72358E-06   -0.25232E-08   773   0.533E-04
   47 T=    71. E= -.41286692E+03 F= -.41321456E+03 E0= -.41319362E+03  EK= 0.34764E+00 SP= 0.00E+00 SK= 0.00E+00
       N       E                     dE             d eps       ncg     rms          rms(c)
RMM:   1    -0.413238275372E+03   -0.23718E-01   -0.10648E+01  4306   0.170E+00    0.960E-01
RMM:   2    -0.413215650277E+03    0.22625E-01   -0.16937E-01  4411   0.199E-01    0.698E-01
RMM:   3    -0.413231256861E+03   -0.15607E-01   -0.29462E-02  5139   0.142E-01    0.612E-01
RMM:   4    -0.413225301821E+03    0.59550E-02   -0.42266E-02  4990   0.183E-01    0.494E-01
RMM:   5    -0.413211760540E+03    0.13541E-01   -0.47220E-03  4544   0.903E-02    0.570E-02
RMM:   6    -0.413211661139E+03    0.99401E-04   -0.79557E-04  4960   0.307E-02    0.304E-02
RMM:   7    -0.413211645378E+03    0.15762E-04   -0.16925E-04  5724   0.127E-02    0.126E-02
RMM:   8    -0.413211643485E+03    0.18928E-05   -0.64571E-05  5235   0.841E-03    0.941E-03
RMM:   9    -0.413211633334E+03    0.10151E-04   -0.16307E-05  4342   0.483E-03    0.455E-03
RMM:  10    -0.413211630974E+03    0.23599E-05   -0.20856E-06  2551   0.232E-03    0.237E-03
RMM:  11    -0.413211624932E+03    0.60415E-05   -0.16356E-06  2499   0.203E-03    0.145E-03
RMM:  12    -0.413211620864E+03    0.40683E-05   -0.60280E-07  2383   0.139E-03    0.843E-04
RMM:  13    -0.413211616802E+03    0.40624E-05   -0.27746E-07  1840   0.943E-04    0.455E-04
RMM:  14    -0.413211612113E+03    0.46888E-05   -0.17341E-07  1629   0.757E-04    0.327E-04
RMM:  15    -0.413211607559E+03    0.45539E-05   -0.10402E-07  1079   0.617E-04    0.159E-04
RMM:  16    -0.413211605100E+03    0.24590E-05   -0.64713E-08   937   0.575E-04    0.113E-04
RMM:  17    -0.413211601918E+03    0.31817E-05   -0.60446E-08  1020   0.587E-04    0.885E-05
RMM:  18    -0.413211599256E+03    0.26625E-05   -0.44929E-08   945   0.572E-04    0.577E-05
RMM:  19    -0.413211598178E+03    0.10774E-05   -0.22807E-08   725   0.524E-04    0.383E-05
RMM:  20    -0.413211597191E+03    0.98741E-06   -0.19664E-08   715   0.516E-04
   48 T=    70. E= -.41286724E+03 F= -.41321160E+03 E0= -.41319067E+03  EK= 0.34436E+00 SP= 0.00E+00 SK= 0.00E+00
       N       E                     dE             d eps       ncg     rms          rms(c)
RMM:   1    -0.413237061620E+03   -0.25463E-01   -0.10455E+01  4306   0.182E+00    0.947E-01
RMM:   2    -0.413209680920E+03    0.27381E-01   -0.16948E-01  4473   0.209E-01    0.687E-01
RMM:   3    -0.413232008509E+03   -0.22328E-01   -0.34431E-02  5154   0.159E-01    0.701E-01
RMM:   4    -0.413215272319E+03    0.16736E-01   -0.40865E-02  4967   0.183E-01    0.417E-01
RMM:   5    -0.413206104426E+03    0.91679E-02   -0.39864E-03  4566   0.864E-02    0.605E-02
RMM:   6    -0.413205949395E+03    0.15503E-03   -0.47511E-04  4711   0.283E-02    0.322E-02
RMM:   7    -0.413205956038E+03   -0.66423E-05   -0.29630E-04  5764   0.178E-02    0.233E-02
RMM:   8    -0.413205922729E+03    0.33309E-04   -0.10083E-04  5028   0.115E-02    0.908E-03
RMM:   9    -0.413205916234E+03    0.64945E-05   -0.17004E-05  4635   0.541E-03    0.468E-03
RMM:  10    -0.413205912203E+03    0.40315E-05   -0.21140E-06  2600   0.234E-03    0.251E-03
RMM:  11    -0.413205906045E+03    0.61575E-05   -0.13156E-06  2491   0.188E-03    0.176E-03
RMM:  12    -0.413205902426E+03    0.36196E-05   -0.41603E-07  2378   0.120E-03    0.895E-04
RMM:  13    -0.413205897682E+03    0.47432E-05   -0.27672E-07  1972   0.891E-04    0.433E-04
RMM:  14    -0.413205892185E+03    0.54980E-05   -0.21796E-07  1800   0.795E-04    0.376E-04
RMM:  15    -0.413205887762E+03    0.44222E-05   -0.11054E-07  1116   0.630E-04    0.152E-04
RMM:  16    -0.413205885196E+03    0.25668E-05   -0.68970E-08  1020   0.595E-04    0.912E-05
RMM:  17    -0.413205881420E+03    0.37755E-05   -0.70430E-08  1139   0.616E-04    0.852E-05
RMM:  18    -0.413205880270E+03    0.11498E-05   -0.35845E-08   892   0.554E-04    0.697E-05
RMM:  19    -0.413205878116E+03    0.21540E-05   -0.38249E-08  1043   0.566E-04    0.438E-05
RMM:  20    -0.413205877272E+03    0.84381E-06   -0.21318E-08   803   0.512E-04
[...]
RMM:   7    -0.413162042306E+03   -0.37183E-04   -0.24914E-04  5831   0.132E-02    0.124E-02
RMM:   8    -0.413162057815E+03   -0.15510E-04   -0.35697E-05  4608   0.574E-03    0.683E-03
RMM:   9    -0.413162069115E+03   -0.11300E-04   -0.59682E-06  2911   0.284E-03    0.330E-03
RMM:  10    -0.413162078774E+03   -0.96588E-05   -0.22446E-06  2561   0.197E-03    0.205E-03
RMM:  11    -0.413162086739E+03   -0.79649E-05   -0.15035E-06  2516   0.161E-03    0.100E-03
RMM:  12    -0.413162091677E+03   -0.49382E-05   -0.10768E-06  2443   0.131E-03    0.369E-04
RMM:  13    -0.413162093314E+03   -0.16367E-05   -0.45429E-07  1888   0.936E-04    0.292E-04
RMM:  14    -0.413162094557E+03   -0.12436E-05   -0.41237E-07  1732   0.892E-04    0.156E-04
RMM:  15    -0.413162095228E+03   -0.67107E-06   -0.29239E-07  1739   0.807E-04
  139 T=    60. E= -.41286729E+03 F= -.41316210E+03 E0= -.41314139E+03  EK= 0.29481E+00 SP= 0.00E+00 SK= 0.00E+00
       N       E                     dE             d eps       ncg     rms          rms(c)
RMM:   1    -0.413156097118E+03    0.59974E-02   -0.95401E+00  4267   0.850E-01    0.782E-01
RMM:   2    -0.413164416199E+03   -0.83191E-02   -0.11056E-01  4297   0.954E-02    0.562E-01
RMM:   3    -0.413163649345E+03    0.76685E-03   -0.53023E-03  4853   0.380E-02    0.137E-01
RMM:   4    -0.413182638360E+03   -0.18989E-01   -0.19441E-02  5143   0.117E-01    0.577E-01
RMM:   5    -0.413163468668E+03    0.19170E-01   -0.96368E-03  4822   0.957E-02    0.358E-02
RMM:   6    -0.413163483687E+03   -0.15019E-04   -0.15583E-03  5719   0.374E-02    0.146E-02
RMM:   7    -0.413163524395E+03   -0.40709E-04   -0.19037E-04  5657   0.115E-02    0.104E-02
RMM:   8    -0.413163545864E+03   -0.21469E-04   -0.26165E-05  4247   0.500E-03    0.593E-03
RMM:   9    -0.413163564832E+03   -0.18967E-04   -0.46452E-06  2763   0.265E-03    0.287E-03
RMM:  10    -0.413163580270E+03   -0.15438E-04   -0.20829E-06  2559   0.187E-03    0.174E-03
RMM:  11    -0.413163592700E+03   -0.12430E-04   -0.14130E-06  2509   0.152E-03    0.869E-04
RMM:  12    -0.413163601249E+03   -0.85487E-05   -0.98505E-07  2341   0.121E-03    0.329E-04
RMM:  13    -0.413163605099E+03   -0.38508E-05   -0.47370E-07  1815   0.912E-04    0.250E-04
RMM:  14    -0.413163609131E+03   -0.40319E-05   -0.54616E-07  1935   0.940E-04    0.149E-04
RMM:  15    -0.413163610464E+03   -0.13328E-05   -0.20998E-07  1389   0.699E-04    0.883E-05
RMM:  16    -0.413163611503E+03   -0.10393E-05   -0.16488E-07  1302   0.681E-04    0.465E-05
RMM:  17    -0.413163611786E+03   -0.28244E-06   -0.79714E-08  1059   0.593E-04
  140 T=    60. E= -.41286765E+03 F= -.41316361E+03 E0= -.41314292E+03  EK= 0.29596E+00 SP= 0.00E+00 SK= 0.00E+00
       N       E                     dE             d eps       ncg     rms          rms(c)
RMM:   1    -0.413155193986E+03    0.84175E-02   -0.96202E+00  4265   0.839E-01    0.797E-01
RMM:   2    -0.413164111282E+03   -0.89173E-02   -0.10859E-01  4298   0.931E-02    0.563E-01
RMM:   3    -0.413163345845E+03    0.76544E-03   -0.52596E-03  4831   0.339E-02    0.133E-01
RMM:   4    -0.413174355343E+03   -0.11009E-01   -0.11365E-02  5157   0.894E-02    0.441E-01
RMM:   5    -0.413163288977E+03    0.11066E-01   -0.56438E-03  4828   0.732E-02    0.304E-02
RMM:   6    -0.413163290950E+03   -0.19723E-05   -0.93515E-04  5694   0.297E-02    0.133E-02
RMM:   7    -0.413163324325E+03   -0.33375E-04   -0.12048E-04  5417   0.939E-03    0.906E-03
RMM:   8    -0.413163343373E+03   -0.19047E-04   -0.17036E-05  3838   0.428E-03    0.493E-03
RMM:   9    -0.413163360967E+03   -0.17594E-04   -0.32784E-06  2618   0.238E-03    0.229E-03
RMM:  10    -0.413163374223E+03   -0.13257E-04   -0.16803E-06  2527   0.170E-03    0.138E-03
RMM:  11    -0.413163384289E+03   -0.10066E-04   -0.11902E-06  2473   0.136E-03    0.703E-04
RMM:  12    -0.413163391189E+03   -0.69000E-05   -0.83940E-07  2132   0.110E-03    0.288E-04
RMM:  13    -0.413163394406E+03   -0.32171E-05   -0.41657E-07  1725   0.878E-04    0.215E-04
RMM:  14    -0.413163398012E+03   -0.36059E-05   -0.55525E-07  1966   0.938E-04    0.130E-04
RMM:  15    -0.413163399042E+03   -0.10303E-05   -0.18042E-07  1252   0.662E-04    0.743E-05
RMM:  16    -0.413163399830E+03   -0.78827E-06   -0.13486E-07  1181   0.650E-04
  141 T=    60. E= -.41286735E+03 F= -.41316340E+03 E0= -.41314272E+03  EK= 0.29605E+00 SP= 0.00E+00 SK= 0.00E+00
       N       E                     dE             d eps       ncg     rms          rms(c)
RMM:   1    -0.413153856661E+03    0.95424E-02   -0.96210E+00  4265   0.837E-01    0.810E-01
RMM:   2    -0.413162168982E+03   -0.83123E-02   -0.10700E-01  4296   0.935E-02    0.554E-01
RMM:   3    -0.413161703532E+03    0.46545E-03   -0.54794E-03  4688   0.352E-02    0.136E-01
RMM:   4    -0.413165708222E+03   -0.40047E-02   -0.44566E-03  5164   0.568E-02    0.267E-01
RMM:   5    -0.413161715984E+03    0.39922E-02   -0.20666E-03  4831   0.447E-02    0.270E-02
RMM:   6    -0.413161709608E+03    0.63759E-05   -0.37747E-04  5570   0.200E-02    0.143E-02
RMM:   7    -0.413161735678E+03   -0.26070E-04   -0.57091E-05  5025   0.720E-03    0.791E-03
RMM:   8    -0.413161749638E+03   -0.13959E-04   -0.10583E-05  3424   0.371E-03    0.351E-03
RMM:   9    -0.413161761952E+03   -0.12315E-04   -0.26355E-06  2552   0.223E-03    0.189E-03
RMM:  10    -0.413161769839E+03   -0.78867E-05   -0.12552E-06  2501   0.154E-03    0.113E-03
RMM:  11    -0.413161776622E+03   -0.67833E-05   -0.10503E-06  2414   0.126E-03    0.568E-04
RMM:  12    -0.413161780422E+03   -0.37994E-05   -0.63847E-07  1895   0.971E-04    0.264E-04
RMM:  13    -0.413161782443E+03   -0.20216E-05   -0.37791E-07  1679   0.849E-04    0.181E-04
RMM:  14    -0.413161784150E+03   -0.17070E-05   -0.39313E-07  1802   0.836E-04    0.119E-04
RMM:  15    -0.413161785000E+03   -0.84997E-06   -0.21094E-07  1305   0.690E-04
  142 T=    60. E= -.41286730E+03 F= -.41316179E+03 E0= -.41314112E+03  EK= 0.29449E+00 SP= 0.00E+00 SK= 0.00E+00
       N       E                     dE             d eps       ncg     rms          rms(c)
RMM:   1    -0.413154154459E+03    0.76297E-02   -0.95288E+00  4264   0.838E-01    0.781E-01
RMM:   2    -0.413163398924E+03   -0.92445E-02   -0.10868E-01  4304   0.928E-02    0.556E-01
RMM:   3    -0.413162579065E+03    0.81986E-03   -0.49146E-03  4653   0.326E-02    0.129E-01
RMM:   4    -0.413162715316E+03   -0.13625E-03   -0.83222E-04  5153   0.228E-02    0.485E-02
RMM:   5    -0.413162631117E+03    0.84199E-04   -0.13398E-04  4957   0.121E-02    0.296E-02
RMM:   6    -0.413162603165E+03    0.27952E-04   -0.82809E-05  5137   0.971E-03    0.105E-02
RMM:   7    -0.413162640930E+03   -0.37765E-04   -0.19702E-05  4495   0.523E-03    0.666E-03
RMM:   8    -0.413162665059E+03   -0.24129E-04   -0.51158E-06  2845   0.304E-03    0.260E-03
RMM:   9    -0.413162679841E+03   -0.14782E-04   -0.18036E-06  2514   0.195E-03    0.141E-03
RMM:  10    -0.413162690444E+03   -0.10604E-04   -0.10146E-06  2394   0.140E-03    0.909E-04
RMM:  11    -0.413162702000E+03   -0.11556E-04   -0.94418E-07  2250   0.115E-03    0.508E-04
RMM:  12    -0.413162708887E+03   -0.68867E-05   -0.52936E-07  1653   0.830E-04    0.274E-04
RMM:  13    -0.413162715812E+03   -0.69246E-05   -0.73033E-07  1959   0.961E-04    0.217E-04
RMM:  14    -0.413162717600E+03   -0.17885E-05   -0.17392E-07  1113   0.587E-04    0.147E-04
RMM:  15    -0.413162719542E+03   -0.19416E-05   -0.20266E-07  1218   0.657E-04    0.533E-05
RMM:  16    -0.413162720102E+03   -0.55986E-06   -0.65142E-08   923   0.543E-04
  143 T=    60. E= -.41286763E+03 F= -.41316272E+03 E0= -.41314207E+03  EK= 0.29509E+00 SP= 0.00E+00 SK= 0.00E+00
       N       E                     dE             d eps       ncg     rms          rms(c)
RMM:   1    -0.413154602946E+03    0.81166E-02   -0.95770E+00  4264   0.839E-01    0.788E-01
RMM:   2    -0.413163941965E+03   -0.93390E-02   -0.10989E-01  4302   0.955E-02    0.565E-01
RMM:   3    -0.413162838752E+03    0.11032E-02   -0.50757E-03  4705   0.341E-02    0.127E-01
RMM:   4    -0.413165597932E+03   -0.27592E-02   -0.32952E-03  5184   0.493E-02    0.221E-01
RMM:   5    -0.413162861187E+03    0.27367E-02   -0.14097E-03  4836   0.373E-02    0.238E-02
RMM:   6    -0.413162853375E+03    0.78119E-05   -0.27576E-04  5526   0.170E-02    0.107E-02
RMM:   7    -0.413162892582E+03   -0.39207E-04   -0.41949E-05  4799   0.636E-03    0.686E-03
RMM:   8    -0.413162917460E+03   -0.24878E-04   -0.89914E-06  3390   0.359E-03    0.318E-03
RMM:   9    -0.413162936743E+03   -0.19283E-04   -0.20684E-06  2539   0.206E-03    0.162E-03
RMM:  10    -0.413162949774E+03   -0.13031E-04   -0.10231E-06  2479   0.139E-03    0.981E-04
RMM:  11    -0.413162964584E+03   -0.14811E-04   -0.12092E-06  2394   0.126E-03    0.583E-04
RMM:  12    -0.413162973776E+03   -0.91914E-05   -0.79641E-07  1942   0.997E-04    0.271E-04
RMM:  13    -0.413162978629E+03   -0.48529E-05   -0.43180E-07  1669   0.848E-04    0.196E-04
RMM:  14    -0.413162983046E+03   -0.44177E-05   -0.46278E-07  1817   0.856E-04    0.120E-04
RMM:  15    -0.413162985287E+03   -0.22407E-05   -0.24318E-07  1325   0.697E-04    0.612E-05
RMM:  16    -0.413162985767E+03   -0.48032E-06   -0.84448E-08  1004   0.568E-04
  144 T=    60. E= -.41286712E+03 F= -.41316299E+03 E0= -.41314234E+03  EK= 0.29586E+00 SP= 0.00E+00 SK= 0.00E+00
       N       E                     dE             d eps       ncg     rms          rms(c)
RMM:   1    -0.413154321765E+03    0.86635E-02   -0.95408E+00  4264   0.840E-01    0.811E-01
RMM:   2    -0.413162805679E+03   -0.84839E-02   -0.10689E-01  4303   0.956E-02    0.556E-01
RMM:   3    -0.413161981781E+03    0.82390E-03   -0.56130E-03  4806   0.368E-02    0.138E-01
RMM:   4    -0.413172496158E+03   -0.10514E-01   -0.10772E-02  5167   0.876E-02    0.430E-01
RMM:   5    -0.413161941539E+03    0.10555E-01   -0.53834E-03  4832   0.712E-02    0.335E-02
RMM:   6    -0.413161936119E+03    0.54197E-05   -0.88675E-04  5720   0.285E-02    0.157E-02
RMM:   7    -0.413161963462E+03   -0.27344E-04   -0.11074E-04  5260   0.915E-03    0.882E-03
RMM:   8    -0.413161979898E+03   -0.16436E-04   -0.17734E-05  3887   0.436E-03    0.464E-03
RMM:   9    -0.413161990370E+03   -0.10472E-04   -0.32030E-06  2650   0.236E-03    0.226E-03
RMM:  10    -0.413162000760E+03   -0.10390E-04   -0.16272E-06  2529   0.171E-03    0.142E-03
RMM:  11    -0.413162009818E+03   -0.90587E-05   -0.12516E-06  2463   0.137E-03    0.727E-04
RMM:  12    -0.413162015953E+03   -0.61346E-05   -0.87185E-07  2182   0.111E-03    0.336E-04
RMM:  13    -0.413162019093E+03   -0.31398E-05   -0.46097E-07  1741   0.889E-04    0.246E-04
RMM:  14    -0.413162022093E+03   -0.30005E-05   -0.53067E-07  1870   0.901E-04    0.141E-04
RMM:  15    -0.413162023352E+03   -0.12582E-05   -0.23782E-07  1417   0.714E-04    0.804E-05
RMM:  16    -0.413162024277E+03   -0.92570E-06   -0.16327E-07  1255   0.666E-04
  145 T=    60. E= -.41286740E+03 F= -.41316202E+03 E0= -.41314139E+03  EK= 0.29463E+00 SP= 0.00E+00 SK= 0.00E+00
       N       E                     dE             d eps       ncg     rms          rms(c)
RMM:   1    -0.413153960858E+03    0.80625E-02   -0.93664E+00  4264   0.837E-01    0.784E-01
RMM:   2    -0.413162885529E+03   -0.89247E-02   -0.10656E-01  4302   0.965E-02    0.553E-01
RMM:   3    -0.413161936130E+03    0.94940E-03   -0.54154E-03  4936   0.376E-02    0.138E-01
RMM:   4    -0.413181314750E+03   -0.19379E-01   -0.19863E-02  5142   0.118E-01    0.581E-01
RMM:   5    -0.413161733686E+03    0.19581E-01   -0.98389E-03  4827   0.964E-02    0.395E-02
RMM:   6    -0.413161757475E+03   -0.23790E-04   -0.15808E-03  5718   0.374E-02    0.155E-02
RMM:   7    -0.413161792787E+03   -0.35312E-04   -0.18862E-04  5608   0.113E-02    0.100E-02
RMM:   8    -0.413161813443E+03   -0.20656E-04   -0.24715E-05  4111   0.490E-03    0.531E-03
RMM:   9    -0.413161826451E+03   -0.13008E-04   -0.48865E-06  2821   0.267E-03    0.271E-03
RMM:  10    -0.413161839610E+03   -0.13158E-04   -0.19644E-06  2550   0.184E-03    0.172E-03
RMM:  11    -0.413161851396E+03   -0.11786E-04   -0.13006E-06  2489   0.145E-03    0.912E-04
RMM:  12    -0.413161860490E+03   -0.90946E-05   -0.10288E-06  2369   0.122E-03    0.379E-04
RMM:  13    -0.413161864442E+03   -0.39519E-05   -0.44534E-07  1728   0.893E-04    0.275E-04
RMM:  14    -0.413161868765E+03   -0.43227E-05   -0.54274E-07  1880   0.930E-04    0.171E-04
RMM:  15    -0.413161870745E+03   -0.19799E-05   -0.26682E-07  1510   0.745E-04    0.952E-05
RMM:  16    -0.413161872144E+03   -0.13993E-05   -0.18673E-07  1342   0.694E-04    0.525E-05
RMM:  17    -0.413161872521E+03   -0.37656E-06   -0.79524E-08  1071   0.588E-04
  146 T=    60. E= -.41286738E+03 F= -.41316187E+03 E0= -.41314124E+03  EK= 0.29450E+00 SP= 0.00E+00 SK= 0.00E+00
       N       E                     dE             d eps       ncg     rms          rms(c)
RMM:   1    -0.413155105865E+03    0.67663E-02   -0.93606E+00  4264   0.835E-01    0.781E-01
RMM:   2    -0.413164325622E+03   -0.92198E-02   -0.10852E-01  4303   0.951E-02    0.567E-01
RMM:   3    -0.413163084109E+03    0.12415E-02   -0.57907E-03  4989   0.385E-02    0.136E-01
RMM:   4    -0.413188346172E+03   -0.25262E-01   -0.26347E-02  5147   0.135E-01    0.662E-01
RMM:   5    -0.413162768351E+03    0.25578E-01   -0.12808E-02  4825   0.110E-01    0.435E-02
RMM:   6    -0.413162806830E+03   -0.38479E-04   -0.19866E-03  5723   0.425E-02    0.158E-02
RMM:   7    -0.413162850661E+03   -0.43831E-04   -0.24078E-04  5727   0.126E-02    0.106E-02
RMM:   8    -0.413162877349E+03   -0.26688E-04   -0.31295E-05  4348   0.538E-03    0.556E-03
RMM:   9    -0.413162892986E+03   -0.15637E-04   -0.63086E-06  2960   0.286E-03    0.288E-03
RMM:  10    -0.413162908329E+03   -0.15342E-04   -0.21133E-06  2548   0.190E-03    0.188E-03
RMM:  11    -0.413162922952E+03   -0.14624E-04   -0.13582E-06  2496   0.150E-03    0.103E-03
RMM:  12    -0.413162934832E+03   -0.11879E-04   -0.11330E-06  2421   0.127E-03    0.416E-04
RMM:  13    -0.413162939289E+03   -0.44573E-05   -0.42728E-07  1717   0.894E-04    0.299E-04
RMM:  14    -0.413162945244E+03   -0.59549E-05   -0.57605E-07  1943   0.968E-04    0.191E-04
RMM:  15    -0.413162948087E+03   -0.28434E-05   -0.30824E-07  1563   0.776E-04    0.108E-04
RMM:  16    -0.413162949730E+03   -0.16431E-05   -0.18768E-07  1371   0.704E-04    0.577E-05
RMM:  17    -0.413162950397E+03   -0.66699E-06   -0.10004E-07  1197   0.618E-04
  147 T=    60. E= -.41286715E+03 F= -.41316295E+03 E0= -.41314233E+03  EK= 0.29580E+00 SP= 0.00E+00 SK= 0.00E+00
       N       E                     dE             d eps       ncg     rms          rms(c)
RMM:   1    -0.413155670744E+03    0.72790E-02   -0.92876E+00  4264   0.836E-01    0.805E-01
RMM:   2    -0.413163904349E+03   -0.82336E-02   -0.10516E-01  4308   0.927E-02    0.561E-01
RMM:   3    -0.413162957142E+03    0.94721E-03   -0.63908E-03  5029   0.396E-02    0.148E-01
RMM:   4    -0.413191498229E+03   -0.28541E-01   -0.30212E-02  5150   0.144E-01    0.703E-01
RMM:   5    -0.413162562194E+03    0.28936E-01   -0.14436E-02  4822   0.117E-01    0.491E-02
RMM:   6    -0.413162607647E+03   -0.45453E-04   -0.22771E-03  5700   0.456E-02    0.196E-02
RMM:   7    -0.413162646942E+03   -0.39296E-04   -0.28648E-04  5844   0.139E-02    0.121E-02
RMM:   8    -0.413162663974E+03   -0.17031E-04   -0.37826E-05  4760   0.601E-03    0.590E-03
RMM:   9    -0.413162671939E+03   -0.79651E-05   -0.73234E-06  3068   0.296E-03    0.308E-03
RMM:  10    -0.413162680711E+03   -0.87718E-05   -0.21506E-06  2544   0.197E-03    0.209E-03
RMM:  11    -0.413162689258E+03   -0.85475E-05   -0.13687E-06  2505   0.156E-03    0.116E-03
RMM:  12    -0.413162695837E+03   -0.65792E-05   -0.10731E-06  2445   0.130E-03    0.466E-04
RMM:  13    -0.413162698140E+03   -0.23030E-05   -0.38254E-07  1775   0.892E-04    0.321E-04
RMM:  14    -0.413162701277E+03   -0.31364E-05   -0.46504E-07  1876   0.928E-04    0.210E-04
RMM:  15    -0.413162703303E+03   -0.20264E-05   -0.33383E-07  1664   0.811E-04    0.117E-04
RMM:  16    -0.413162704450E+03   -0.11469E-05   -0.19214E-07  1463   0.709E-04    0.765E-05
RMM:  17    -0.413162705165E+03   -0.71462E-06   -0.11279E-07  1278   0.616E-04
  148 T=    60. E= -.41286759E+03 F= -.41316271E+03 E0= -.41314209E+03  EK= 0.29512E+00 SP= 0.00E+00 SK= 0.00E+00
       N       E                     dE             d eps       ncg     rms          rms(c)
RMM:   1    -0.413154702488E+03    0.80020E-02   -0.91051E+00  4264   0.830E-01    0.791E-01
RMM:   2    -0.413162977593E+03   -0.82751E-02   -0.10336E-01  4308   0.924E-02    0.555E-01
RMM:   3    -0.413161959141E+03    0.10185E-02   -0.66454E-03  5048   0.431E-02    0.155E-01
RMM:   4    -0.413192662036E+03   -0.30703E-01   -0.33399E-02  5140   0.152E-01    0.730E-01
RMM:   5    -0.413161376922E+03    0.31285E-01   -0.15398E-02  4817   0.122E-01    0.523E-02
RMM:   6    -0.413161419260E+03   -0.42338E-04   -0.24368E-03  5686   0.474E-02    0.209E-02
RMM:   7    -0.413161458549E+03   -0.39289E-04   -0.31657E-04  5934   0.145E-02    0.128E-02
RMM:   8    -0.413161475186E+03   -0.16638E-04   -0.42945E-05  5037   0.648E-03    0.613E-03
RMM:   9    -0.413161482423E+03   -0.72371E-05   -0.79580E-06  3115   0.304E-03    0.314E-03
RMM:  10    -0.413161490574E+03   -0.81506E-05   -0.23315E-06  2568   0.205E-03    0.219E-03
RMM:  11    -0.413161498781E+03   -0.82069E-05   -0.14461E-06  2516   0.164E-03    0.126E-03
RMM:  12    -0.413161504749E+03   -0.59685E-05   -0.10080E-06  2453   0.131E-03    0.507E-04
RMM:  13    -0.413161506935E+03   -0.21859E-05   -0.37063E-07  1823   0.896E-04    0.328E-04
RMM:  14    -0.413161509985E+03   -0.30495E-05   -0.45207E-07  1813   0.908E-04    0.227E-04
RMM:  15    -0.413161511846E+03   -0.18610E-05   -0.30575E-07  1635   0.792E-04    0.117E-04
RMM:  16    -0.413161512929E+03   -0.10828E-05   -0.17164E-07  1414   0.692E-04    0.754E-05
RMM:  17    -0.413161513777E+03   -0.84859E-06   -0.12730E-07  1367   0.644E-04
  149 T=    60. E= -.41286734E+03 F= -.41316151E+03 E0= -.41314090E+03  EK= 0.29418E+00 SP= 0.00E+00 SK= 0.00E+00
       N       E                     dE             d eps       ncg     rms          rms(c)
RMM:   1    -0.413156338042E+03    0.51749E-02   -0.90383E+00  4264   0.830E-01    0.776E-01
RMM:   2    -0.413164924726E+03   -0.85867E-02   -0.10493E-01  4302   0.952E-02    0.566E-01
RMM:   3    -0.413163824434E+03    0.11003E-02   -0.72103E-03  5057   0.473E-02    0.160E-01
RMM:   4    -0.413197117360E+03   -0.33293E-01   -0.37630E-02  5131   0.161E-01    0.762E-01
RMM:   5    -0.413162918322E+03    0.34199E-01   -0.16576E-02  4809   0.127E-01    0.542E-02
RMM:   6    -0.413162961627E+03   -0.43305E-04   -0.25951E-03  5676   0.493E-02    0.202E-02
RMM:   7    -0.413163009214E+03   -0.47587E-04   -0.34431E-04  5989   0.151E-02    0.129E-02
RMM:   8    -0.413163031785E+03   -0.22571E-04   -0.47799E-05  5224   0.695E-03    0.640E-03
RMM:   9    -0.413163042698E+03   -0.10912E-04   -0.88150E-06  3162   0.317E-03    0.312E-03
RMM:  10    -0.413163054181E+03   -0.11483E-04   -0.26390E-06  2575   0.218E-03    0.220E-03
RMM:  11    -0.413163066414E+03   -0.12233E-04   -0.16011E-06  2518   0.175E-03    0.135E-03
RMM:  12    -0.413163075675E+03   -0.92605E-05   -0.10281E-06  2482   0.134E-03    0.558E-04
RMM:  13    -0.413163079139E+03   -0.34640E-05   -0.37865E-07  1831   0.906E-04    0.332E-04
RMM:  14    -0.413163084214E+03   -0.50751E-05   -0.48205E-07  2003   0.944E-04    0.290E-04
RMM:  15    -0.413163087313E+03   -0.30989E-05   -0.30563E-07  1575   0.781E-04    0.140E-04
RMM:  16    -0.413163088842E+03   -0.15293E-05   -0.16265E-07  1399   0.686E-04    0.653E-05
RMM:  17    -0.413163089860E+03   -0.10179E-05   -0.11248E-07  1313   0.626E-04    0.577E-05
RMM:  18    -0.413163090059E+03   -0.19874E-06   -0.46007E-08   919   0.524E-04
  150 T=    60. E= -.41286738E+03 F= -.41316309E+03 E0= -.41314248E+03  EK= 0.29571E+00 SP= 0.00E+00 SK= 0.00E+00
