       N       E                     dE             d eps       ncg     rms          rms(c)
RMM:   1     0.220130071754E+04    0.22013E+04   -0.52445E+04  2132   0.654E+02
RMM:   2     0.705794289436E+03   -0.14955E+04   -0.16262E+04  2132   0.177E+02
RMM:   3     0.138178638069E+03   -0.56762E+03   -0.65671E+03  2132   0.117E+02
RMM:   4    -0.159555607010E+03   -0.29773E+03   -0.27864E+03  2132   0.936E+01
RMM:   5    -0.287322470931E+03   -0.12777E+03   -0.11436E+03  2132   0.595E+01
RMM:   6    -0.349909674893E+03   -0.62587E+02   -0.55187E+02  2132   0.423E+01
RMM:   7    -0.382793206625E+03   -0.32884E+02   -0.30419E+02  2132   0.293E+01
RMM:   8    -0.404274658420E+03   -0.21481E+02   -0.18429E+02  2132   0.233E+01
RMM:   9    -0.436023245900E+03   -0.31749E+02   -0.30564E+02  6107   0.173E+01
RMM:  10    -0.441315381412E+03   -0.52921E+01   -0.62825E+01  6395   0.539E+00
RMM:  11    -0.442519401183E+03   -0.12040E+01   -0.11094E+01  6200   0.172E+00
RMM:  12    -0.442891458420E+03   -0.37206E+00   -0.27393E+00  6362   0.600E-01    0.134E+02
RMM:  13    -0.425589756112E+03    0.17302E+02   -0.80858E+01  4668   0.119E+01    0.712E+01
RMM:  14    -0.499278661028E+03   -0.73689E+02   -0.53832E+02  5416   0.232E+01    0.307E+01
RMM:  15    -0.417122354245E+03    0.82156E+02   -0.20208E+02  5113   0.164E+01    0.786E+00
RMM:  16    -0.414030512551E+03    0.30918E+01   -0.40162E+01  6097   0.617E+00    0.432E+00
RMM:  17    -0.413204829739E+03    0.82568E+00   -0.26459E+00  5409   0.193E+00    0.243E+00
RMM:  18    -0.413175921095E+03    0.28909E-01   -0.75415E-01  6001   0.884E-01    0.170E+00
RMM:  19    -0.413175665166E+03    0.25593E-03   -0.24589E-01  5656   0.542E-01    0.934E-01
RMM:  20    -0.413197562904E+03   -0.21898E-01   -0.35522E-01  5583   0.607E-01    0.704E-01
RMM:  21    -0.413171677766E+03    0.25885E-01   -0.38175E-02  4977   0.256E-01    0.343E-01
RMM:  22    -0.413166343824E+03    0.53339E-02   -0.32236E-02  5779   0.178E-01    0.143E-01
RMM:  23    -0.413165447715E+03    0.89611E-03   -0.57760E-03  5954   0.689E-02    0.865E-02
RMM:  24    -0.413164039680E+03    0.14080E-02   -0.17865E-03  5338   0.428E-02    0.561E-02
RMM:  25    -0.413163093322E+03    0.94636E-03   -0.87727E-04  4897   0.302E-02    0.416E-02
RMM:  26    -0.413163096221E+03   -0.28988E-05   -0.12276E-03  5811   0.358E-02    0.363E-02
RMM:  27    -0.413163472744E+03   -0.37652E-03   -0.20937E-04  4557   0.211E-02    0.204E-02
RMM:  28    -0.413163857732E+03   -0.38499E-03   -0.15949E-04  5169   0.174E-02    0.906E-03
RMM:  29    -0.413164238204E+03   -0.38047E-03   -0.10573E-04  4604   0.158E-02    0.476E-03
RMM:  30    -0.413164498397E+03   -0.26019E-03   -0.89489E-05  4470   0.118E-02    0.511E-03
RMM:  31    -0.413164630230E+03   -0.13183E-03   -0.60026E-05  3275   0.757E-03    0.376E-03
RMM:  32    -0.413164653002E+03   -0.22772E-04   -0.22314E-05  3005   0.328E-03    0.251E-03
RMM:  33    -0.413164662507E+03   -0.95046E-05   -0.91201E-06  2839   0.245E-03    0.771E-04
RMM:  34    -0.413164662254E+03    0.25328E-06   -0.50090E-06  2615   0.160E-03
    1 T=    61. E= -.41286689E+03 F= -.41316466E+03 E0= -.41314217E+03  EK= 0.29777E+00 SP= 0.00E+00 SK= 0.00E+00
       N       E                     dE             d eps       ncg     rms          rms(c)
RMM:   1    -0.413175286889E+03   -0.10624E-01   -0.59486E+00  4009   0.476E-01    0.915E-01
RMM:   2    -0.413171848946E+03    0.34379E-02   -0.77948E-02  3950   0.716E-02    0.665E-01
RMM:   3    -0.413168310979E+03    0.35380E-02   -0.56879E-02  5093   0.803E-02    0.338E-01
RMM:   4    -0.413184255487E+03   -0.15945E-01   -0.27271E-02  5166   0.141E-01    0.599E-01
RMM:   5    -0.413164282949E+03    0.19973E-01   -0.10737E-02  4756   0.102E-01    0.450E-02
RMM:   6    -0.413164399578E+03   -0.11663E-03   -0.16708E-03  5663   0.400E-02    0.279E-02
RMM:   7    -0.413164411165E+03   -0.11587E-04   -0.28096E-04  5749   0.152E-02    0.185E-02
RMM:   8    -0.413164412318E+03   -0.11522E-05   -0.36900E-05  4724   0.698E-03    0.599E-03
RMM:   9    -0.413164416087E+03   -0.37690E-05   -0.75157E-06  3104   0.290E-03    0.399E-03
RMM:  10    -0.413164421561E+03   -0.54743E-05   -0.16405E-06  2547   0.184E-03    0.250E-03
RMM:  11    -0.413164425715E+03   -0.41544E-05   -0.10003E-06  2435   0.135E-03    0.117E-03
RMM:  12    -0.413164431200E+03   -0.54843E-05   -0.91959E-07  2433   0.125E-03    0.581E-04
RMM:  13    -0.413164433801E+03   -0.26017E-05   -0.49212E-07  1940   0.927E-04    0.361E-04
RMM:  14    -0.413164434595E+03   -0.79379E-06   -0.29784E-07  1420   0.734E-04
    2 T=    61. E= -.41286676E+03 F= -.41316443E+03 E0= -.41314193E+03  EK= 0.29768E+00 SP= 0.00E+00 SK= 0.00E+00
       N       E                     dE             d eps       ncg     rms          rms(c)
RMM:   1    -0.413176389926E+03   -0.11956E-01   -0.58916E+00  4185   0.472E-01    0.931E-01
RMM:   2    -0.413172021078E+03    0.43688E-02   -0.78270E-02  4020   0.705E-02    0.665E-01
RMM:   3    -0.413169948087E+03    0.20730E-02   -0.53610E-02  5129   0.850E-02    0.341E-01
RMM:   4    -0.413183427369E+03   -0.13479E-01   -0.27817E-02  5123   0.144E-01    0.578E-01
RMM:   5    -0.413164869730E+03    0.18558E-01   -0.92834E-03  4695   0.966E-02    0.438E-02
RMM:   6    -0.413164961781E+03   -0.92051E-04   -0.14884E-03  5607   0.378E-02    0.295E-02
RMM:   7    -0.413164961806E+03   -0.24709E-07   -0.26599E-04  5587   0.158E-02    0.200E-02
RMM:   8    -0.413164958172E+03    0.36335E-05   -0.39324E-05  4872   0.741E-03    0.698E-03
RMM:   9    -0.413164957545E+03    0.62748E-06   -0.74518E-06  3116   0.311E-03
    3 T=    61. E= -.41286705E+03 F= -.41316496E+03 E0= -.41314246E+03  EK= 0.29791E+00 SP= 0.00E+00 SK= 0.00E+00
       N       E                     dE             d eps       ncg     rms          rms(c)
RMM:   1    -0.413175601953E+03   -0.10644E-01   -0.58561E+00  4217   0.478E-01    0.916E-01
RMM:   2    -0.413171725685E+03    0.38763E-02   -0.77704E-02  4184   0.697E-02    0.658E-01
RMM:   3    -0.413175271138E+03   -0.35455E-02   -0.57301E-02  5182   0.109E-01    0.464E-01
RMM:   4    -0.413176075429E+03   -0.80429E-03   -0.26898E-02  5060   0.145E-01    0.470E-01
RMM:   5    -0.413164701631E+03    0.11374E-01   -0.64033E-03  4544   0.787E-02    0.427E-02
RMM:   6    -0.413164714748E+03   -0.13117E-04   -0.85218E-04  5323   0.283E-02    0.276E-02
RMM:   7    -0.413164718560E+03   -0.38128E-05   -0.16892E-04  5356   0.126E-02    0.169E-02
RMM:   8    -0.413164715633E+03    0.29272E-05   -0.26388E-05  4493   0.622E-03    0.499E-03
RMM:   9    -0.413164716312E+03   -0.67900E-06   -0.35280E-06  2685   0.233E-03
    4 T=    61. E= -.41286674E+03 F= -.41316472E+03 E0= -.41314223E+03  EK= 0.29798E+00 SP= 0.00E+00 SK= 0.00E+00
       N       E                     dE             d eps       ncg     rms          rms(c)
RMM:   1    -0.413175558369E+03   -0.10843E-01   -0.59482E+00  4236   0.487E-01    0.913E-01
RMM:   2    -0.413172084187E+03    0.34742E-02   -0.77987E-02  4091   0.688E-02    0.664E-01
RMM:   3    -0.413172505046E+03   -0.42086E-03   -0.58843E-02  5153   0.954E-02    0.422E-01
RMM:   4    -0.413179409572E+03   -0.69045E-02   -0.26779E-02  5085   0.143E-01    0.530E-01
RMM:   5    -0.413164780058E+03    0.14630E-01   -0.83534E-03  4620   0.881E-02    0.425E-02
RMM:   6    -0.413164842928E+03   -0.62870E-04   -0.11679E-03  5483   0.326E-02    0.272E-02
RMM:   7    -0.413164855333E+03   -0.12405E-04   -0.21129E-04  5492   0.139E-02    0.176E-02
RMM:   8    -0.413164859512E+03   -0.41795E-05   -0.29851E-05  4592   0.656E-03    0.547E-03
RMM:   9    -0.413164863072E+03   -0.35594E-05   -0.46303E-06  2844   0.259E-03    0.348E-03
RMM:  10    -0.413164868068E+03   -0.49960E-05   -0.11647E-06  2524   0.167E-03    0.211E-03
RMM:  11    -0.413164871589E+03   -0.35210E-05   -0.72334E-07  2342   0.123E-03    0.993E-04
RMM:  12    -0.413164876207E+03   -0.46186E-05   -0.83249E-07  2430   0.119E-03    0.523E-04
RMM:  13    -0.413164878513E+03   -0.23063E-05   -0.46105E-07  1806   0.904E-04    0.333E-04
RMM:  14    -0.413164879184E+03   -0.67020E-06   -0.24615E-07  1369   0.743E-04
    5 T=    61. E= -.41286669E+03 F= -.41316488E+03 E0= -.41314240E+03  EK= 0.29819E+00 SP= 0.00E+00 SK= 0.00E+00
       N       E                     dE             d eps       ncg     rms          rms(c)
RMM:   1    -0.413176620478E+03   -0.11742E-01   -0.59111E+00  4246   0.486E-01    0.928E-01
RMM:   2    -0.413172401397E+03    0.42191E-02   -0.78039E-02  4071   0.687E-02    0.665E-01
RMM:   3    -0.413170710695E+03    0.16907E-02   -0.54638E-02  5139   0.843E-02    0.357E-01
RMM:   4    -0.413183007330E+03   -0.12297E-01   -0.27610E-02  5096   0.143E-01    0.569E-01
RMM:   5    -0.413165235359E+03    0.17772E-01   -0.90937E-03  4682   0.946E-02    0.434E-02
RMM:   6    -0.413165332848E+03   -0.97489E-04   -0.13958E-03  5571   0.364E-02    0.291E-02
RMM:   7    -0.413165339321E+03   -0.64729E-05   -0.24961E-04  5559   0.150E-02    0.197E-02
RMM:   8    -0.413165331911E+03    0.74106E-05   -0.35721E-05  4796   0.743E-03    0.666E-03
RMM:   9    -0.413165331803E+03    0.10806E-06   -0.68179E-06  3017   0.300E-03
    6 T=    61. E= -.41286691E+03 F= -.41316533E+03 E0= -.41314287E+03  EK= 0.29842E+00 SP= 0.00E+00 SK= 0.00E+00
       N       E                     dE             d eps       ncg     rms          rms(c)
RMM:   1    -0.413176228504E+03   -0.10897E-01   -0.58673E+00  4267   0.492E-01    0.923E-01
RMM:   2    -0.413172088062E+03    0.41404E-02   -0.77879E-02  4208   0.698E-02    0.660E-01
RMM:   3    -0.413175088232E+03   -0.30002E-02   -0.56327E-02  5156   0.105E-01    0.449E-01
RMM:   4    -0.413177102868E+03   -0.20146E-02   -0.27036E-02  5056   0.145E-01    0.478E-01
RMM:   5    -0.413165135603E+03    0.11967E-01   -0.63998E-03  4560   0.799E-02    0.431E-02
RMM:   6    -0.413165154179E+03   -0.18576E-04   -0.92291E-04  5352   0.290E-02    0.280E-02
RMM:   7    -0.413165166611E+03   -0.12432E-04   -0.17496E-04  5395   0.130E-02    0.173E-02
RMM:   8    -0.413165162982E+03    0.36284E-05   -0.27503E-05  4545   0.651E-03    0.518E-03
RMM:   9    -0.413165162158E+03    0.82441E-06   -0.38634E-06  2732   0.242E-03
    7 T=    61. E= -.41286678E+03 F= -.41316516E+03 E0= -.41314272E+03  EK= 0.29838E+00 SP= 0.00E+00 SK= 0.00E+00
       N       E                     dE             d eps       ncg     rms          rms(c)
RMM:   1    -0.413176428320E+03   -0.11265E-01   -0.59300E+00  4270   0.500E-01    0.911E-01
RMM:   2    -0.413173043867E+03    0.33845E-02   -0.77862E-02  4153   0.708E-02    0.662E-01
RMM:   3    -0.413173748939E+03   -0.70507E-03   -0.58564E-02  5123   0.996E-02    0.427E-01
RMM:   4    -0.413179875813E+03   -0.61269E-02   -0.26727E-02  5063   0.143E-01    0.524E-01
RMM:   5    -0.413165653974E+03    0.14222E-01   -0.81330E-03  4607   0.862E-02    0.422E-02
RMM:   6    -0.413165718189E+03   -0.64215E-04   -0.11396E-03  5479   0.320E-02    0.273E-02
RMM:   7    -0.413165713411E+03    0.47774E-05   -0.20504E-04  5460   0.138E-02    0.176E-02
RMM:   8    -0.413165715739E+03   -0.23275E-05   -0.28949E-05  4550   0.636E-03    0.541E-03
RMM:   9    -0.413165717986E+03   -0.22466E-05   -0.42722E-06  2817   0.254E-03    0.340E-03
RMM:  10    -0.413165721279E+03   -0.32938E-05   -0.11307E-06  2504   0.164E-03    0.205E-03
RMM:  11    -0.413165723370E+03   -0.20904E-05   -0.67798E-07  2296   0.120E-03    0.959E-04
RMM:  12    -0.413165725827E+03   -0.24576E-05   -0.75689E-07  2380   0.116E-03    0.515E-04
RMM:  13    -0.413165726811E+03   -0.98356E-06   -0.44619E-07  1779   0.893E-04
    8 T=    61. E= -.41286712E+03 F= -.41316573E+03 E0= -.41314330E+03  EK= 0.29860E+00 SP= 0.00E+00 SK= 0.00E+00
       N       E                     dE             d eps       ncg     rms          rms(c)
RMM:   1    -0.413177050717E+03   -0.11325E-01   -0.59286E+00  4285   0.500E-01    0.924E-01
RMM:   2    -0.413173225734E+03    0.38250E-02   -0.78060E-02  4160   0.723E-02    0.666E-01
RMM:   3    -0.413171259209E+03    0.19665E-02   -0.55670E-02  5080   0.883E-02    0.361E-01
RMM:   4    -0.413183754533E+03   -0.12495E-01   -0.27279E-02  5077   0.142E-01    0.573E-01
RMM:   5    -0.413165833353E+03    0.17921E-01   -0.93838E-03  4679   0.949E-02    0.424E-02
RMM:   6    -0.413165926470E+03   -0.93117E-04   -0.14449E-03  5598   0.366E-02    0.291E-02
RMM:   7    -0.413165924397E+03    0.20736E-05   -0.25664E-04  5530   0.154E-02    0.197E-02
RMM:   8    -0.413165920182E+03    0.42142E-05   -0.35618E-05  4768   0.719E-03    0.677E-03
RMM:   9    -0.413165920480E+03   -0.29775E-06   -0.65937E-06  3038   0.301E-03
    9 T=    61. E= -.41286713E+03 F= -.41316592E+03 E0= -.41314351E+03  EK= 0.29879E+00 SP= 0.00E+00 SK= 0.00E+00
       N       E                     dE             d eps       ncg     rms          rms(c)
RMM:   1    -0.413177280304E+03   -0.11360E-01   -0.58838E+00  4292   0.503E-01    0.929E-01
RMM:   2    -0.413172985202E+03    0.42951E-02   -0.78369E-02  4283   0.721E-02    0.662E-01
RMM:   3    -0.413176845978E+03   -0.38608E-02   -0.56788E-02  5149   0.111E-01    0.464E-01
RMM:   4    -0.413177221145E+03   -0.37517E-03   -0.27127E-02  5038   0.145E-01    0.464E-01
RMM:   5    -0.413165986371E+03    0.11235E-01   -0.59939E-03  4547   0.773E-02    0.428E-02
RMM:   6    -0.413165985944E+03    0.42695E-06   -0.84819E-04  5332   0.280E-02    0.282E-02
RMM:   7    -0.413165982268E+03    0.36754E-05   -0.17008E-04  5311   0.130E-02    0.172E-02
RMM:   8    -0.413165976508E+03    0.57605E-05   -0.26560E-05  4466   0.638E-03    0.505E-03
RMM:   9    -0.413165975098E+03    0.14098E-05   -0.36390E-06  2691   0.238E-03    0.288E-03
RMM:  10    -0.413165973290E+03    0.18076E-05   -0.10918E-06  2489   0.155E-03    0.168E-03
RMM:  11    -0.413165971510E+03    0.17806E-05   -0.62312E-07  2125   0.113E-03    0.784E-04
RMM:  12    -0.413165968489E+03    0.30204E-05   -0.63965E-07  2274   0.108E-03    0.465E-04
RMM:  13    -0.413165965460E+03    0.30295E-05   -0.37365E-07  1618   0.845E-04    0.294E-04
RMM:  14    -0.413165963146E+03    0.23137E-05   -0.22951E-07  1394   0.735E-04    0.187E-04
RMM:  15    -0.413165959530E+03    0.36161E-05   -0.30292E-07  1653   0.774E-04    0.287E-04
RMM:  16    -0.413165955137E+03    0.43926E-05   -0.31111E-07  1474   0.729E-04    0.143E-04
RMM:  17    -0.413165954417E+03    0.72067E-06   -0.79538E-08   896   0.538E-04
   10 T=    61. E= -.41286690E+03 F= -.41316595E+03 E0= -.41314357E+03  EK= 0.29905E+00 SP= 0.00E+00 SK= 0.00E+00
       N       E                     dE             d eps       ncg     rms          rms(c)
RMM:   1    -0.413177461007E+03   -0.11506E-01   -0.59164E+00  4288   0.511E-01    0.911E-01
RMM:   2    -0.413173978901E+03    0.34821E-02   -0.77735E-02  4216   0.725E-02    0.661E-01
RMM:   3    -0.413172010719E+03    0.19682E-02   -0.56450E-02  5080   0.870E-02    0.368E-01
RMM:   4    -0.413184551573E+03   -0.12541E-01   -0.27205E-02  5081   0.142E-01    0.575E-01
RMM:   5    -0.413166628989E+03    0.17923E-01   -0.96170E-03  4676   0.951E-02    0.423E-02
RMM:   6    -0.413166725489E+03   -0.96500E-04   -0.14578E-03  5582   0.365E-02    0.287E-02
RMM:   7    -0.413166724964E+03    0.52564E-06   -0.25496E-04  5496   0.153E-02    0.194E-02
RMM:   8    -0.413166723653E+03    0.13105E-05   -0.35365E-05  4774   0.706E-03    0.663E-03
RMM:   9    -0.413166725284E+03   -0.16310E-05   -0.64650E-06  3018   0.298E-03    0.401E-03
RMM:  10    -0.413166727998E+03   -0.27139E-05   -0.12179E-06  2497   0.179E-03    0.245E-03
RMM:  11    -0.413166729670E+03   -0.16715E-05   -0.68767E-07  2410   0.127E-03    0.121E-03
RMM:  12    -0.413166731573E+03   -0.19031E-05   -0.76119E-07  2447   0.124E-03    0.664E-04
RMM:  13    -0.413166731827E+03   -0.25424E-06   -0.30061E-07  1868   0.893E-04
   11 T=    61. E= -.41286709E+03 F= -.41316673E+03 E0= -.41314437E+03  EK= 0.29965E+00 SP= 0.00E+00 SK= 0.00E+00
       N       E                     dE             d eps       ncg     rms          rms(c)
RMM:   1    -0.413177702766E+03   -0.10971E-01   -0.59650E+00  4294   0.515E-01    0.922E-01
RMM:   2    -0.413173925090E+03    0.37777E-02   -0.78276E-02  4229   0.723E-02    0.668E-01
RMM:   3    -0.413171982800E+03    0.19423E-02   -0.56763E-02  5091   0.859E-02    0.366E-01
RMM:   4    -0.413184781654E+03   -0.12799E-01   -0.27447E-02  5075   0.142E-01    0.578E-01
RMM:   5    -0.413166575856E+03    0.18206E-01   -0.96479E-03  4672   0.957E-02    0.423E-02
RMM:   6    -0.413166695184E+03   -0.11933E-03   -0.14851E-03  5621   0.367E-02    0.289E-02
RMM:   7    -0.413166695700E+03   -0.51614E-06   -0.25877E-04  5501   0.157E-02    0.197E-02
RMM:   8    -0.413166691833E+03    0.38667E-05   -0.36080E-05  4747   0.731E-03    0.679E-03
RMM:   9    -0.413166692594E+03   -0.76052E-06   -0.69114E-06  3048   0.310E-03
   12 T=    61. E= -.41286674E+03 F= -.41316669E+03 E0= -.41314436E+03  EK= 0.29996E+00 SP= 0.00E+00 SK= 0.00E+00
       N       E                     dE             d eps       ncg     rms          rms(c)
RMM:   1    -0.413178734636E+03   -0.12043E-01   -0.59164E+00  4298   0.515E-01    0.934E-01
RMM:   2    -0.413174208915E+03    0.45257E-02   -0.78691E-02  4333   0.692E-02    0.665E-01
RMM:   3    -0.413179019101E+03   -0.48102E-02   -0.57380E-02  5165   0.112E-01    0.480E-01
RMM:   4    -0.413177859070E+03    0.11600E-02   -0.27446E-02  5031   0.146E-01    0.452E-01
RMM:   5    -0.413167258041E+03    0.10601E-01   -0.57316E-03  4512   0.763E-02    0.426E-02
RMM:   6    -0.413167259153E+03   -0.11127E-05   -0.77974E-04  5279   0.270E-02    0.282E-02
RMM:   7    -0.413167258422E+03    0.73147E-06   -0.16061E-04  5253   0.128E-02    0.169E-02
RMM:   8    -0.413167255991E+03    0.24308E-05   -0.25756E-05  4429   0.632E-03    0.488E-03
RMM:   9    -0.413167254124E+03    0.18673E-05   -0.35153E-06  2672   0.233E-03    0.278E-03
RMM:  10    -0.413167251670E+03    0.24540E-05   -0.10281E-06  2463   0.151E-03    0.162E-03
RMM:  11    -0.413167249134E+03    0.25355E-05   -0.61581E-07  2060   0.110E-03    0.744E-04
RMM:  12    -0.413167245093E+03    0.40411E-05   -0.58731E-07  2235   0.105E-03    0.458E-04
RMM:  13    -0.413167241945E+03    0.31480E-05   -0.27562E-07  1506   0.787E-04    0.316E-04
RMM:  14    -0.413167238145E+03    0.38002E-05   -0.23031E-07  1364   0.745E-04    0.178E-04
RMM:  15    -0.413167234019E+03    0.41255E-05   -0.21397E-07  1550   0.737E-04    0.275E-04
RMM:  16    -0.413167228702E+03    0.53177E-05   -0.23521E-07  1360   0.692E-04    0.135E-04
RMM:  17    -0.413167227443E+03    0.12584E-05   -0.70742E-08   870   0.540E-04    0.759E-05
RMM:  18    -0.413167226026E+03    0.14175E-05   -0.49809E-08   824   0.536E-04    0.306E-05
RMM:  19    -0.413167225659E+03    0.36681E-06   -0.23219E-08   669   0.506E-04
   13 T=    61. E= -.41286686E+03 F= -.41316723E+03 E0= -.41314492E+03  EK= 0.30037E+00 SP= 0.00E+00 SK= 0.00E+00
       N       E                     dE             d eps       ncg     rms          rms(c)
RMM:   1    -0.413178818288E+03   -0.11592E-01   -0.59105E+00  4293   0.523E-01    0.913E-01
RMM:   2    -0.413175088572E+03    0.37297E-02   -0.77861E-02  4245   0.701E-02    0.660E-01
RMM:   3    -0.413173544795E+03    0.15438E-02   -0.55659E-02  5106   0.855E-02    0.368E-01
RMM:   4    -0.413185597917E+03   -0.12053E-01   -0.27719E-02  5081   0.143E-01    0.570E-01
RMM:   5    -0.413167869360E+03    0.17729E-01   -0.93258E-03  4669   0.947E-02    0.426E-02
RMM:   6    -0.413167970619E+03   -0.10126E-03   -0.14265E-03  5576   0.360E-02    0.289E-02
RMM:   7    -0.413167975413E+03   -0.47945E-05   -0.24978E-04  5472   0.153E-02    0.195E-02
RMM:   8    -0.413167974179E+03    0.12340E-05   -0.35265E-05  4755   0.716E-03    0.660E-03
RMM:   9    -0.413167974188E+03   -0.87311E-08   -0.64472E-06  3005   0.300E-03
   14 T=    61. E= -.41286718E+03 F= -.41316797E+03 E0= -.41314571E+03  EK= 0.30080E+00 SP= 0.00E+00 SK= 0.00E+00
       N       E                     dE             d eps       ncg     rms          rms(c)
RMM:   1    -0.413178963537E+03   -0.10989E-01   -0.59943E+00  4296   0.529E-01    0.919E-01
RMM:   2    -0.413175423807E+03    0.35397E-02   -0.78640E-02  4308   0.719E-02    0.668E-01
RMM:   3    -0.413180185561E+03   -0.47618E-02   -0.61603E-02  5144   0.115E-01    0.503E-01
RMM:   4    -0.413178741475E+03    0.14441E-02   -0.27310E-02  5024   0.146E-01    0.468E-01
RMM:   5    -0.413167993895E+03    0.10748E-01   -0.68060E-03  4498   0.773E-02    0.413E-02
RMM:   6    -0.413168025698E+03   -0.31804E-04   -0.81669E-04  5292   0.269E-02    0.268E-02
RMM:   7    -0.413168026578E+03   -0.87947E-06   -0.16385E-04  5193   0.130E-02    0.161E-02
RMM:   8    -0.413168030378E+03   -0.38002E-05   -0.24446E-05  4308   0.605E-03    0.447E-03
RMM:   9    -0.413168031658E+03   -0.12801E-05   -0.31282E-06  2646   0.225E-03    0.290E-03
RMM:  10    -0.413168033761E+03   -0.21028E-05   -0.10108E-06  2454   0.148E-03    0.163E-03
RMM:  11    -0.413168034631E+03   -0.86996E-06   -0.53386E-07  1966   0.105E-03
   15 T=    61. E= -.41286699E+03 F= -.41316803E+03 E0= -.41314580E+03  EK= 0.30104E+00 SP= 0.00E+00 SK= 0.00E+00
       N       E                     dE             d eps       ncg     rms          rms(c)
RMM:   1    -0.413180629032E+03   -0.12595E-01   -0.59429E+00  4294   0.531E-01    0.936E-01
RMM:   2    -0.413176255706E+03    0.43733E-02   -0.78990E-02  4254   0.742E-02    0.667E-01
RMM:   3    -0.413174353013E+03    0.19027E-02   -0.53845E-02  5067   0.880E-02    0.347E-01
RMM:   4    -0.413187392714E+03   -0.13040E-01   -0.28122E-02  5067   0.144E-01    0.575E-01
RMM:   5    -0.413169034846E+03    0.18358E-01   -0.91040E-03  4678   0.955E-02    0.429E-02
RMM:   6    -0.413169132533E+03   -0.97686E-04   -0.15001E-03  5619   0.369E-02    0.301E-02
RMM:   7    -0.413169120363E+03    0.12170E-04   -0.26327E-04  5476   0.160E-02    0.205E-02
RMM:   8    -0.413169109509E+03    0.10854E-04   -0.36871E-05  4771   0.750E-03    0.721E-03
RMM:   9    -0.413169106501E+03    0.30085E-05   -0.75528E-06  3079   0.316E-03    0.419E-03
RMM:  10    -0.413169103809E+03    0.26913E-05   -0.13795E-06  2525   0.190E-03    0.254E-03
RMM:  11    -0.413169101204E+03    0.26051E-05   -0.76898E-07  2455   0.135E-03    0.130E-03
RMM:  12    -0.413169096004E+03    0.52005E-05   -0.94033E-07  2487   0.138E-03    0.727E-04
RMM:  13    -0.413169092201E+03    0.38031E-05   -0.38349E-07  1976   0.970E-04    0.470E-04
RMM:  14    -0.413169091241E+03    0.96016E-06   -0.15387E-07  1348   0.711E-04
   16 T=    61. E= -.41286736E+03 F= -.41316909E+03 E0= -.41314689E+03  EK= 0.30173E+00 SP= 0.00E+00 SK= 0.00E+00
       N       E                     dE             d eps       ncg     rms          rms(c)
RMM:   1    -0.413180542509E+03   -0.11450E-01   -0.59190E+00  4295   0.533E-01    0.918E-01
RMM:   2    -0.413176791081E+03    0.37514E-02   -0.78419E-02  4261   0.742E-02    0.661E-01
RMM:   3    -0.413175163074E+03    0.16280E-02   -0.54968E-02  5065   0.902E-02    0.363E-01
RMM:   4    -0.413187353495E+03   -0.12190E-01   -0.27836E-02  5057   0.144E-01    0.571E-01
RMM:   5    -0.413169434206E+03    0.17919E-01   -0.91888E-03  4670   0.945E-02    0.429E-02
RMM:   6    -0.413169522786E+03   -0.88580E-04   -0.14456E-03  5608   0.361E-02    0.292E-02
RMM:   7    -0.413169521075E+03    0.17104E-05   -0.25403E-04  5482   0.156E-02    0.198E-02
RMM:   8    -0.413169518345E+03    0.27299E-05   -0.35904E-05  4721   0.755E-03    0.670E-03
RMM:   9    -0.413169516807E+03    0.15385E-05   -0.73574E-06  3041   0.306E-03    0.394E-03
RMM:  10    -0.413169515884E+03    0.92301E-06   -0.12994E-06  2514   0.184E-03
   17 T=    62. E= -.41286721E+03 F= -.41316952E+03 E0= -.41314736E+03  EK= 0.30231E+00 SP= 0.00E+00 SK= 0.00E+00
       N       E                     dE             d eps       ncg     rms          rms(c)
RMM:   1    -0.413183264864E+03   -0.13748E-01   -0.60476E+00  4295   0.571E-01    0.915E-01
RMM:   2    -0.413177610855E+03    0.56540E-02   -0.84138E-02  4279   0.762E-02    0.669E-01
RMM:   3    -0.413177999231E+03   -0.38838E-03   -0.58054E-02  5104   0.101E-01    0.425E-01
RMM:   4    -0.413186023008E+03   -0.80238E-02   -0.29401E-02  5049   0.149E-01    0.550E-01
RMM:   5    -0.413169947035E+03    0.16076E-01   -0.86912E-03  4612   0.911E-02    0.430E-02
RMM:   6    -0.413170015282E+03   -0.68247E-04   -0.12763E-03  5499   0.335E-02    0.279E-02
RMM:   7    -0.413170007048E+03    0.82338E-05   -0.21686E-04  5467   0.143E-02    0.183E-02
RMM:   8    -0.413170004527E+03    0.25208E-05   -0.32236E-05  4639   0.696E-03    0.574E-03
RMM:   9    -0.413170005375E+03   -0.84826E-06   -0.54113E-06  2877   0.278E-03
   18 T=    62. E= -.41286706E+03 F= -.41317001E+03 E0= -.41314789E+03  EK= 0.30295E+00 SP= 0.00E+00 SK= 0.00E+00
       N       E                     dE             d eps       ncg     rms          rms(c)
RMM:   1    -0.413182651827E+03   -0.12647E-01   -0.59844E+00  4296   0.540E-01    0.936E-01
RMM:   2    -0.413178427405E+03    0.42244E-02   -0.79419E-02  4294   0.753E-02    0.669E-01
RMM:   3    -0.413181005441E+03   -0.25780E-02   -0.57071E-02  5135   0.106E-01    0.446E-01
RMM:   4    -0.413183838231E+03   -0.28328E-02   -0.27674E-02  5036   0.145E-01    0.489E-01
RMM:   5    -0.413171209566E+03    0.12629E-01   -0.66571E-03  4560   0.813E-02    0.426E-02
RMM:   6    -0.413171242950E+03   -0.33384E-04   -0.97776E-04  5408   0.294E-02    0.284E-02
RMM:   7    -0.413171242425E+03    0.52501E-06   -0.18423E-04  5315   0.138E-02    0.179E-02
RMM:   8    -0.413171237632E+03    0.47934E-05   -0.27676E-05  4481   0.688E-03    0.528E-03
RMM:   9    -0.413171235152E+03    0.24800E-05   -0.44674E-06  2777   0.254E-03    0.308E-03
RMM:  10    -0.413171232284E+03    0.28673E-05   -0.10942E-06  2503   0.162E-03    0.184E-03
RMM:  11    -0.413171229563E+03    0.27214E-05   -0.61118E-07  2194   0.115E-03    0.889E-04
RMM:  12    -0.413171224442E+03    0.51210E-05   -0.66014E-07  2280   0.112E-03    0.511E-04
RMM:  13    -0.413171219790E+03    0.46516E-05   -0.32112E-07  1631   0.832E-04    0.342E-04
RMM:  14    -0.413171216400E+03    0.33906E-05   -0.16138E-07  1195   0.688E-04    0.181E-04
RMM:  15    -0.413171210078E+03    0.63218E-05   -0.20787E-07  1485   0.742E-04    0.303E-04
RMM:  16    -0.413171203356E+03    0.67216E-05   -0.18321E-07  1306   0.679E-04    0.188E-04
RMM:  17    -0.413171202520E+03    0.83670E-06   -0.56403E-08   860   0.543E-04
   19 T=    62. E= -.41286733E+03 F= -.41317120E+03 E0= -.41314913E+03  EK= 0.30387E+00 SP= 0.00E+00 SK= 0.00E+00
       N       E                     dE             d eps       ncg     rms          rms(c)
RMM:   1    -0.413183144182E+03   -0.11941E-01   -0.59581E+00  4295   0.557E-01    0.926E-01
RMM:   2    -0.413178704437E+03    0.44397E-02   -0.79654E-02  4267   0.755E-02    0.664E-01
RMM:   3    -0.413176937792E+03    0.17666E-02   -0.53992E-02  5097   0.850E-02    0.351E-01
RMM:   4    -0.413190377554E+03   -0.13440E-01   -0.28782E-02  5077   0.145E-01    0.582E-01
RMM:   5    -0.413171516264E+03    0.18861E-01   -0.94094E-03  4683   0.968E-02    0.433E-02
RMM:   6    -0.413171622917E+03   -0.10665E-03   -0.15333E-03  5611   0.372E-02    0.298E-02
RMM:   7    -0.413171627163E+03   -0.42459E-05   -0.26510E-04  5516   0.159E-02    0.205E-02
RMM:   8    -0.413171625460E+03    0.17023E-05   -0.38292E-05  4768   0.785E-03    0.723E-03
RMM:   9    -0.413171623635E+03    0.18252E-05   -0.79621E-06  3083   0.327E-03    0.416E-03
RMM:  10    -0.413171622252E+03    0.13834E-05   -0.13848E-06  2527   0.190E-03    0.255E-03
RMM:  11    -0.413171620650E+03    0.16018E-05   -0.78614E-07  2464   0.134E-03    0.131E-03
RMM:  12    -0.413171617233E+03    0.34169E-05   -0.89249E-07  2487   0.135E-03    0.728E-04
RMM:  13    -0.413171614873E+03    0.23597E-05   -0.33629E-07  1935   0.934E-04    0.445E-04
RMM:  14    -0.413171613867E+03    0.10063E-05   -0.15483E-07  1341   0.708E-04    0.238E-04
RMM:  15    -0.413171610332E+03    0.35347E-05   -0.14374E-07  1316   0.708E-04    0.200E-04
RMM:  16    -0.413171606059E+03    0.42737E-05   -0.12623E-07  1265   0.669E-04    0.239E-04
RMM:  17    -0.413171604527E+03    0.15317E-05   -0.58472E-08   915   0.576E-04    0.187E-04
RMM:  18    -0.413171601825E+03    0.27019E-05   -0.56618E-08   969   0.577E-04    0.971E-05
RMM:  19    -0.413171600513E+03    0.13124E-05   -0.34106E-08   833   0.549E-04    0.282E-05
RMM:  20    -0.413171599933E+03    0.57963E-06   -0.16742E-08   702   0.531E-04
   20 T=    62. E= -.41286709E+03 F= -.41317160E+03 E0= -.41314957E+03  EK= 0.30451E+00 SP= 0.00E+00 SK= 0.00E+00
       N       E                     dE             d eps       ncg     rms          rms(c)
RMM:   1    -0.413183669626E+03   -0.12069E-01   -0.60466E+00  4292   0.553E-01    0.919E-01
RMM:   2    -0.413180127215E+03    0.35424E-02   -0.79184E-02  4279   0.732E-02    0.669E-01
RMM:   3    -0.413178210808E+03    0.19164E-02   -0.57823E-02  5097   0.853E-02    0.373E-01
RMM:   4    -0.413191312299E+03   -0.13101E-01   -0.27973E-02  5076   0.144E-01    0.585E-01
RMM:   5    -0.413172674303E+03    0.18638E-01   -0.99968E-03  4676   0.975E-02    0.424E-02
RMM:   6    -0.413172783645E+03   -0.10934E-03   -0.15457E-03  5653   0.368E-02    0.288E-02
RMM:   7    -0.413172788411E+03   -0.47662E-05   -0.26163E-04  5472   0.158E-02    0.197E-02
RMM:   8    -0.413172787923E+03    0.48736E-06   -0.36874E-05  4720   0.776E-03    0.684E-03
RMM:   9    -0.413172789005E+03   -0.10817E-05   -0.79021E-06  3096   0.333E-03    0.420E-03
RMM:  10    -0.413172791183E+03   -0.21779E-05   -0.12891E-06  2521   0.187E-03    0.259E-03
RMM:  11    -0.413172792450E+03   -0.12672E-05   -0.76530E-07  2454   0.133E-03    0.129E-03
RMM:  12    -0.413172793475E+03   -0.10249E-05   -0.81496E-07  2464   0.130E-03    0.721E-04
RMM:  13    -0.413172792845E+03    0.63063E-06   -0.28960E-07  1888   0.895E-04
   21 T=    62. E= -.41286741E+03 F= -.41317279E+03 E0= -.41315080E+03  EK= 0.30538E+00 SP= 0.00E+00 SK= 0.00E+00
       N       E                     dE             d eps       ncg     rms          rms(c)
RMM:   1    -0.413185320825E+03   -0.12527E-01   -0.60361E+00  4295   0.552E-01    0.935E-01
RMM:   2    -0.413181133944E+03    0.41869E-02   -0.79757E-02  4276   0.746E-02    0.672E-01
RMM:   3    -0.413178702082E+03    0.24319E-02   -0.55158E-02  5064   0.837E-02    0.342E-01
RMM:   4    -0.413193712822E+03   -0.15011E-01   -0.28597E-02  5072   0.145E-01    0.598E-01
RMM:   5    -0.413173757644E+03    0.19955E-01   -0.10109E-02  4692   0.100E-01    0.428E-02
RMM:   6    -0.413173882297E+03   -0.12465E-03   -0.16352E-03  5686   0.384E-02    0.299E-02
RMM:   7    -0.413173887374E+03   -0.50769E-05   -0.27832E-04  5489   0.167E-02    0.208E-02
RMM:   8    -0.413173883646E+03    0.37284E-05   -0.40780E-05  4779   0.810E-03    0.768E-03
RMM:   9    -0.413173881717E+03    0.19286E-05   -0.91293E-06  3205   0.344E-03    0.456E-03
RMM:  10    -0.413173880438E+03    0.12789E-05   -0.14146E-06  2530   0.195E-03    0.280E-03
RMM:  11    -0.413173878644E+03    0.17945E-05   -0.83380E-07  2484   0.140E-03    0.142E-03
RMM:  12    -0.413173875061E+03    0.35827E-05   -0.96755E-07  2488   0.141E-03    0.807E-04
RMM:  13    -0.413173872300E+03    0.27612E-05   -0.35236E-07  2019   0.964E-04    0.467E-04
RMM:  14    -0.413173871494E+03    0.80610E-06   -0.15565E-07  1353   0.706E-04
   22 T=    62. E= -.41286756E+03 F= -.41317387E+03 E0= -.41315193E+03  EK= 0.30631E+00 SP= 0.00E+00 SK= 0.00E+00
       N       E                     dE             d eps       ncg     rms          rms(c)
RMM:   1    -0.413186140052E+03   -0.12268E-01   -0.60066E+00  4293   0.558E-01    0.935E-01
RMM:   2    -0.413181852596E+03    0.42875E-02   -0.80001E-02  4295   0.765E-02    0.668E-01
RMM:   3    -0.413179305336E+03    0.25473E-02   -0.53508E-02  5051   0.852E-02    0.330E-01
RMM:   4    -0.413194802892E+03   -0.15498E-01   -0.28948E-02  5073   0.146E-01    0.600E-01
RMM:   5    -0.413174559755E+03    0.20243E-01   -0.99804E-03  4697   0.100E-01    0.435E-02
RMM:   6    -0.413174670618E+03   -0.11086E-03   -0.16390E-03  5674   0.387E-02    0.304E-02
RMM:   7    -0.413174661480E+03    0.91384E-05   -0.27972E-04  5488   0.167E-02    0.210E-02
RMM:   8    -0.413174653092E+03    0.83876E-05   -0.41186E-05  4860   0.777E-03    0.773E-03
RMM:   9    -0.413174649988E+03    0.31040E-05   -0.87387E-06  3186   0.337E-03    0.445E-03
RMM:  10    -0.413174647031E+03    0.29574E-05   -0.14435E-06  2533   0.197E-03    0.274E-03
RMM:  11    -0.413174644011E+03    0.30199E-05   -0.82610E-07  2477   0.139E-03    0.143E-03
RMM:  12    -0.413174638253E+03    0.57577E-05   -0.10277E-06  2508   0.144E-03    0.792E-04
RMM:  13    -0.413174634836E+03    0.34166E-05   -0.38196E-07  2037   0.979E-04    0.512E-04
RMM:  14    -0.413174633668E+03    0.11688E-05   -0.16666E-07  1422   0.721E-04    0.285E-04
RMM:  15    -0.413174628983E+03    0.46841E-05   -0.15339E-07  1413   0.719E-04    0.230E-04
RMM:  16    -0.413174622861E+03    0.61229E-05   -0.14483E-07  1383   0.687E-04    0.307E-04
RMM:  17    -0.413174621149E+03    0.17112E-05   -0.57771E-08   908   0.561E-04    0.245E-04
RMM:  18    -0.413174617381E+03    0.37680E-05   -0.58936E-08   961   0.572E-04    0.107E-04
RMM:  19    -0.413174615939E+03    0.14423E-05   -0.35572E-08   864   0.554E-04    0.365E-05
RMM:  20    -0.413174615400E+03    0.53942E-06   -0.18198E-08   738   0.536E-04
   23 T=    63. E= -.41286734E+03 F= -.41317462E+03 E0= -.41315272E+03  EK= 0.30727E+00 SP= 0.00E+00 SK= 0.00E+00
       N       E                     dE             d eps       ncg     rms          rms(c)
RMM:   1    -0.413187241105E+03   -0.12625E-01   -0.60728E+00  4291   0.567E-01    0.921E-01
RMM:   2    -0.413183754149E+03    0.34870E-02   -0.80312E-02  4291   0.794E-02    0.670E-01
RMM:   3    -0.413181087818E+03    0.26663E-02   -0.57014E-02  5027   0.886E-02    0.353E-01
RMM:   4    -0.413196378804E+03   -0.15291E-01   -0.28139E-02  5068   0.144E-01    0.605E-01
RMM:   5    -0.413176111196E+03    0.20268E-01   -0.10602E-02  4700   0.102E-01    0.426E-02
RMM:   6    -0.413176214181E+03   -0.10299E-03   -0.16632E-03  5704   0.388E-02    0.292E-02
RMM:   7    -0.413176218987E+03   -0.48058E-05   -0.28187E-04  5484   0.168E-02    0.204E-02
RMM:   8    -0.413176218307E+03    0.67935E-06   -0.41854E-05  4752   0.818E-03    0.747E-03
RMM:   9    -0.413176218487E+03   -0.17973E-06   -0.95377E-06  3237   0.353E-03
   24 T=    63. E= -.41286757E+03 F= -.41317622E+03 E0= -.41315437E+03  EK= 0.30865E+00 SP= 0.00E+00 SK= 0.00E+00
       N       E                     dE             d eps       ncg     rms          rms(c)
RMM:   1    -0.413188570480E+03   -0.12352E-01   -0.61167E+00  4298   0.570E-01    0.934E-01
RMM:   2    -0.413184832608E+03    0.37379E-02   -0.81164E-02  4336   0.811E-02    0.676E-01
RMM:   3    -0.413189777358E+03   -0.49448E-02   -0.60998E-02  5121   0.121E-01    0.501E-01
RMM:   4    -0.413188435716E+03    0.13416E-02   -0.27997E-02  5021   0.148E-01    0.471E-01
RMM:   5    -0.413177231385E+03    0.11204E-01   -0.65074E-03  4498   0.786E-02    0.418E-02
RMM:   6    -0.413177263918E+03   -0.32533E-04   -0.86444E-04  5381   0.274E-02    0.276E-02
RMM:   7    -0.413177261295E+03    0.26230E-05   -0.17119E-04  5183   0.133E-02    0.172E-02
RMM:   8    -0.413177257432E+03    0.38633E-05   -0.26327E-05  4375   0.672E-03    0.483E-03
RMM:   9    -0.413177256433E+03    0.99916E-06   -0.37834E-06  2700   0.241E-03
   25 T=    63. E= -.41286732E+03 F= -.41317726E+03 E0= -.41315546E+03  EK= 0.30993E+00 SP= 0.00E+00 SK= 0.00E+00
       N       E                     dE             d eps       ncg     rms          rms(c)
RMM:   1    -0.413190361540E+03   -0.13104E-01   -0.60879E+00  4293   0.569E-01    0.944E-01
RMM:   2    -0.413185919252E+03    0.44423E-02   -0.81411E-02  4305   0.787E-02    0.674E-01
RMM:   3    -0.413185522003E+03    0.39725E-03   -0.54931E-02  5070   0.101E-01    0.382E-01
RMM:   4    -0.413195435024E+03   -0.99130E-02   -0.28697E-02  5040   0.147E-01    0.552E-01
RMM:   5    -0.413178611923E+03    0.16823E-01   -0.81618E-03  4646   0.918E-02    0.434E-02
RMM:   6    -0.413178675456E+03   -0.63533E-04   -0.13457E-03  5641   0.347E-02    0.298E-02
RMM:   7    -0.413178669397E+03    0.60594E-05   -0.24141E-04  5413   0.159E-02    0.202E-02
RMM:   8    -0.413178663155E+03    0.62419E-05   -0.35685E-05  4699   0.761E-03    0.669E-03
RMM:   9    -0.413178658464E+03    0.46910E-05   -0.70757E-06  3005   0.305E-03    0.375E-03
RMM:  10    -0.413178653647E+03    0.48171E-05   -0.13165E-06  2522   0.183E-03    0.232E-03
RMM:  11    -0.413178649310E+03    0.43370E-05   -0.75059E-07  2394   0.129E-03    0.118E-03
RMM:  12    -0.413178641070E+03    0.82404E-05   -0.90560E-07  2460   0.130E-03    0.640E-04
RMM:  13    -0.413178635252E+03    0.58174E-05   -0.40268E-07  1882   0.922E-04    0.452E-04
RMM:  14    -0.413178632543E+03    0.27089E-05   -0.16647E-07  1282   0.706E-04    0.234E-04
RMM:  15    -0.413178623804E+03    0.87392E-05   -0.21622E-07  1548   0.762E-04    0.342E-04
RMM:  16    -0.413178614939E+03    0.88649E-05   -0.17154E-07  1305   0.680E-04    0.271E-04
RMM:  17    -0.413178613248E+03    0.16912E-05   -0.62542E-08   912   0.561E-04    0.207E-04
RMM:  18    -0.413178610430E+03    0.28175E-05   -0.50327E-08   979   0.567E-04    0.934E-05
RMM:  19    -0.413178608982E+03    0.14480E-05   -0.34260E-08   896   0.557E-04    0.498E-05
RMM:  20    -0.413178608915E+03    0.67335E-07   -0.11393E-08   633   0.516E-04
   26 T=    63. E= -.41286725E+03 F= -.41317861E+03 E0= -.41315686E+03  EK= 0.31136E+00 SP= 0.00E+00 SK= 0.00E+00
       N       E                     dE             d eps       ncg     rms          rms(c)
RMM:   1    -0.413191568304E+03   -0.12959E-01   -0.61212E+00  4292   0.579E-01    0.926E-01
RMM:   2    -0.413187958101E+03    0.36102E-02   -0.81129E-02  4285   0.804E-02    0.672E-01
RMM:   3    -0.413184871071E+03    0.30870E-02   -0.56123E-02  5029   0.869E-02    0.339E-01
RMM:   4    -0.413201571657E+03   -0.16701E-01   -0.28693E-02  5085   0.146E-01    0.616E-01
RMM:   5    -0.413180284221E+03    0.21287E-01   -0.10833E-02  4710   0.103E-01    0.430E-02
RMM:   6    -0.413180416458E+03   -0.13224E-03   -0.17511E-03  5751   0.396E-02    0.296E-02
RMM:   7    -0.413180427006E+03   -0.10548E-04   -0.28794E-04  5488   0.168E-02    0.210E-02
RMM:   8    -0.413180425992E+03    0.10140E-05   -0.44580E-05  4837   0.809E-03    0.818E-03
RMM:   9    -0.413180425303E+03    0.68950E-06   -0.96399E-06  3307   0.363E-03
   27 T=    64. E= -.41286751E+03 F= -.41318043E+03 E0= -.41315873E+03  EK= 0.31292E+00 SP= 0.00E+00 SK= 0.00E+00
       N       E                     dE             d eps       ncg     rms          rms(c)
RMM:   1    -0.413192908053E+03   -0.12482E-01   -0.62104E+00  4295   0.586E-01    0.936E-01
RMM:   2    -0.413189203706E+03    0.37043E-02   -0.82349E-02  4331   0.832E-02    0.680E-01
RMM:   3    -0.413194450532E+03   -0.52468E-02   -0.62451E-02  5136   0.120E-01    0.511E-01
RMM:   4    -0.413192965646E+03    0.14849E-02   -0.28736E-02  5012   0.150E-01    0.478E-01
RMM:   5    -0.413181604562E+03    0.11361E-01   -0.68279E-03  4491   0.805E-02    0.418E-02
RMM:   6    -0.413181626928E+03   -0.22365E-04   -0.88034E-04  5396   0.277E-02    0.273E-02
RMM:   7    -0.413181624667E+03    0.22605E-05   -0.17584E-04  5162   0.137E-02    0.172E-02
RMM:   8    -0.413181625676E+03   -0.10084E-05   -0.26768E-05  4405   0.686E-03    0.489E-03
RMM:   9    -0.413181625229E+03    0.44682E-06   -0.41270E-06  2707   0.250E-03
   28 T=    64. E= -.41286735E+03 F= -.41318163E+03 E0= -.41315998E+03  EK= 0.31428E+00 SP= 0.00E+00 SK= 0.00E+00
       N       E                     dE             d eps       ncg     rms          rms(c)
RMM:   1    -0.413195785383E+03   -0.14160E-01   -0.61786E+00  4294   0.595E-01    0.952E-01
RMM:   2    -0.413191114212E+03    0.46712E-02   -0.83499E-02  4295   0.846E-02    0.680E-01
RMM:   3    -0.413189914541E+03    0.11997E-02   -0.54767E-02  5089   0.935E-02    0.365E-01
RMM:   4    -0.413202325472E+03   -0.12411E-01   -0.29853E-02  5058   0.149E-01    0.579E-01
RMM:   5    -0.413183611441E+03    0.18714E-01   -0.89733E-03  4669   0.963E-02    0.440E-02
RMM:   6    -0.413183689758E+03   -0.78317E-04   -0.15324E-03  5683   0.369E-02    0.302E-02
RMM:   7    -0.413183696793E+03   -0.70348E-05   -0.26547E-04  5471   0.162E-02    0.210E-02
RMM:   8    -0.413183697251E+03   -0.45774E-06   -0.38969E-05  4777   0.785E-03    0.751E-03
RMM:   9    -0.413183693102E+03    0.41486E-05   -0.79449E-06  3095   0.334E-03    0.414E-03
RMM:  10    -0.413183688240E+03    0.48626E-05   -0.14225E-06  2531   0.194E-03    0.253E-03
RMM:  11    -0.413183683494E+03    0.47453E-05   -0.82016E-07  2461   0.138E-03    0.130E-03
RMM:  12    -0.413183674820E+03    0.86745E-05   -0.97859E-07  2481   0.137E-03    0.700E-04
RMM:  13    -0.413183670135E+03    0.46846E-05   -0.37571E-07  1965   0.948E-04    0.497E-04
RMM:  14    -0.413183667399E+03    0.27363E-05   -0.17317E-07  1377   0.721E-04    0.271E-04
RMM:  15    -0.413183658655E+03    0.87441E-05   -0.20912E-07  1638   0.769E-04    0.365E-04
RMM:  16    -0.413183649746E+03    0.89085E-05   -0.15921E-07  1317   0.669E-04    0.295E-04
RMM:  17    -0.413183646790E+03    0.29561E-05   -0.66183E-08   947   0.563E-04    0.207E-04
RMM:  18    -0.413183642987E+03    0.38027E-05   -0.59922E-08  1073   0.595E-04    0.696E-05
RMM:  19    -0.413183642326E+03    0.66189E-06   -0.24433E-08   765   0.538E-04
   29 T=    64. E= -.41286767E+03 F= -.41318364E+03 E0= -.41316204E+03  EK= 0.31597E+00 SP= 0.00E+00 SK= 0.00E+00
       N       E                     dE             d eps       ncg     rms          rms(c)
RMM:   1    -0.413198385211E+03   -0.14742E-01   -0.61976E+00  4295   0.612E-01    0.934E-01
RMM:   2    -0.413193247101E+03    0.51381E-02   -0.84031E-02  4278   0.852E-02    0.676E-01
RMM:   3    -0.413189276564E+03    0.39705E-02   -0.54844E-02  5010   0.828E-02    0.314E-01
RMM:   4    -0.413208728462E+03   -0.19452E-01   -0.29856E-02  5093   0.148E-01    0.641E-01
RMM:   5    -0.413185390765E+03    0.23338E-01   -0.11715E-02  4733   0.108E-01    0.434E-02
RMM:   6    -0.413185526136E+03   -0.13537E-03   -0.19400E-03  5786   0.417E-02    0.302E-02
RMM:   7    -0.413185540232E+03   -0.14096E-04   -0.30108E-04  5537   0.174E-02    0.216E-02
RMM:   8    -0.413185540570E+03   -0.33761E-06   -0.50572E-05  4837   0.883E-03    0.921E-03
RMM:   9    -0.413185538860E+03    0.17096E-05   -0.11435E-05  3475   0.405E-03    0.541E-03
RMM:  10    -0.413185537936E+03    0.92363E-06   -0.18771E-06  2567   0.223E-03
   30 T=    65. E= -.41286781E+03 F= -.41318554E+03 E0= -.41316399E+03  EK= 0.31773E+00 SP= 0.00E+00 SK= 0.00E+00
       N       E                     dE             d eps       ncg     rms          rms(c)
RMM:   1    -0.413199208058E+03   -0.13669E-01   -0.63152E+00  4304   0.622E-01    0.939E-01
RMM:   2    -0.413195402200E+03    0.38059E-02   -0.85574E-02  4292   0.942E-02    0.685E-01
RMM:   3    -0.413194766211E+03    0.63599E-03   -0.60189E-02  5056   0.106E-01    0.415E-01
RMM:   4    -0.413204814269E+03   -0.10048E-01   -0.29777E-02  5039   0.150E-01    0.575E-01
RMM:   5    -0.413187044243E+03    0.17770E-01   -0.94446E-03  4641   0.954E-02    0.430E-02
RMM:   6    -0.413187130211E+03   -0.85968E-04   -0.14481E-03  5667   0.355E-02    0.288E-02
RMM:   7    -0.413187140814E+03   -0.10604E-04   -0.25007E-04  5447   0.156E-02    0.197E-02
RMM:   8    -0.413187145342E+03   -0.45283E-05   -0.37391E-05  4705   0.779E-03    0.669E-03
RMM:   9    -0.413187144865E+03    0.47742E-06   -0.74561E-06  3032   0.326E-03
   31 T=    65. E= -.41286759E+03 F= -.41318714E+03 E0= -.41316565E+03  EK= 0.31955E+00 SP= 0.00E+00 SK= 0.00E+00
       N       E                     dE             d eps       ncg     rms          rms(c)
RMM:   1    -0.413201850457E+03   -0.14705E-01   -0.62820E+00  4298   0.615E-01    0.958E-01
RMM:   2    -0.413197631186E+03    0.42193E-02   -0.84929E-02  4290   0.968E-02    0.686E-01
RMM:   3    -0.413197552268E+03    0.78919E-04   -0.56930E-02  5058   0.110E-01    0.404E-01
RMM:   4    -0.413206374420E+03   -0.88222E-02   -0.29495E-02  5035   0.150E-01    0.552E-01
RMM:   5    -0.413189616835E+03    0.16758E-01   -0.81896E-03  4630   0.919E-02    0.437E-02
RMM:   6    -0.413189694167E+03   -0.77332E-04   -0.13520E-03  5657   0.345E-02    0.299E-02
RMM:   7    -0.413189703639E+03   -0.94718E-05   -0.24205E-04  5375   0.158E-02    0.204E-02
RMM:   8    -0.413189700962E+03    0.26771E-05   -0.37085E-05  4740   0.769E-03    0.691E-03
RMM:   9    -0.413189696594E+03    0.43673E-05   -0.70140E-06  2985   0.314E-03    0.369E-03
RMM:  10    -0.413189691804E+03    0.47907E-05   -0.13348E-06  2525   0.187E-03    0.228E-03
RMM:  11    -0.413189687052E+03    0.47518E-05   -0.74468E-07  2412   0.132E-03    0.115E-03
RMM:  12    -0.413189678968E+03    0.80841E-05   -0.75987E-07  2418   0.124E-03    0.597E-04
RMM:  13    -0.413189674578E+03    0.43897E-05   -0.30750E-07  1833   0.887E-04    0.443E-04
RMM:  14    -0.413189670417E+03    0.41608E-05   -0.16359E-07  1317   0.712E-04    0.228E-04
RMM:  15    -0.413189661134E+03    0.92830E-05   -0.19032E-07  1543   0.749E-04    0.325E-04
RMM:  16    -0.413189651635E+03    0.94991E-05   -0.14375E-07  1260   0.669E-04    0.212E-04
RMM:  17    -0.413189648772E+03    0.28629E-05   -0.67587E-08  1048   0.584E-04    0.153E-04
RMM:  18    -0.413189645570E+03    0.32018E-05   -0.49883E-08  1045   0.581E-04    0.464E-05
RMM:  19    -0.413189644589E+03    0.98148E-06   -0.25855E-08   813   0.537E-04
   32 T=    66. E= -.41286782E+03 F= -.41318964E+03 E0= -.41316819E+03  EK= 0.32183E+00 SP= 0.00E+00 SK= 0.00E+00
       N       E                     dE             d eps       ncg     rms          rms(c)
RMM:   1    -0.413203340770E+03   -0.13695E-01   -0.62803E+00  4298   0.632E-01    0.947E-01
RMM:   2    -0.413199410820E+03    0.39299E-02   -0.85302E-02  4269   0.987E-02    0.682E-01
RMM:   3    -0.413194425791E+03    0.49850E-02   -0.54715E-02  4891   0.901E-02    0.285E-01
RMM:   4    -0.413215339914E+03   -0.20914E-01   -0.28435E-02  5106   0.145E-01    0.647E-01
RMM:   5    -0.413191232583E+03    0.24107E-01   -0.12036E-02  4763   0.109E-01    0.433E-02
RMM:   6    -0.413191395921E+03   -0.16334E-03   -0.20211E-03  5818   0.423E-02    0.300E-02
RMM:   7    -0.413191426385E+03   -0.30463E-04   -0.27977E-04  5538   0.173E-02    0.204E-02
RMM:   8    -0.413191430605E+03   -0.42207E-05   -0.58734E-05  4891   0.892E-03    0.993E-03
RMM:   9    -0.413191427886E+03    0.27192E-05   -0.12705E-05  3740   0.434E-03    0.599E-03
RMM:  10    -0.413191426288E+03    0.15977E-05   -0.21443E-06  2586   0.243E-03    0.361E-03
RMM:  11    -0.413191423689E+03    0.25997E-05   -0.12464E-06  2509   0.177E-03    0.182E-03
RMM:  12    -0.413191419417E+03    0.42714E-05   -0.13232E-06  2509   0.174E-03    0.113E-03
RMM:  13    -0.413191417251E+03    0.21664E-05   -0.41045E-07  2226   0.111E-03    0.677E-04
RMM:  14    -0.413191416261E+03    0.98952E-06   -0.19123E-07  1567   0.767E-04
   33 T=    66. E= -.41286742E+03 F= -.41319142E+03 E0= -.41317001E+03  EK= 0.32399E+00 SP= 0.00E+00 SK= 0.00E+00
       N       E                     dE             d eps       ncg     rms          rms(c)
RMM:   1    -0.413205562620E+03   -0.14145E-01   -0.64167E+00  4308   0.650E-01    0.945E-01
RMM:   2    -0.413201835549E+03    0.37271E-02   -0.87257E-02  4268   0.104E-01    0.690E-01
RMM:   3    -0.413196381989E+03    0.54536E-02   -0.58230E-02  4783   0.884E-02    0.297E-01
RMM:   4    -0.413213796111E+03   -0.17414E-01   -0.22867E-02  5113   0.130E-01    0.593E-01
RMM:   5    -0.413193611978E+03    0.20184E-01   -0.10217E-02  4776   0.100E-01    0.407E-02
RMM:   6    -0.413193750511E+03   -0.13853E-03   -0.16892E-03  5825   0.385E-02    0.272E-02
RMM:   7    -0.413193774235E+03   -0.23723E-04   -0.19797E-04  5518   0.151E-02    0.158E-02
RMM:   8    -0.413193778793E+03   -0.45584E-05   -0.46810E-05  4887   0.751E-03    0.885E-03
RMM:   9    -0.413193776057E+03    0.27362E-05   -0.11229E-05  3779   0.396E-03    0.575E-03
RMM:  10    -0.413193776445E+03   -0.38814E-06   -0.17729E-06  2548   0.231E-03
   34 T=    66. E= -.41286745E+03 F= -.41319378E+03 E0= -.41317242E+03  EK= 0.32633E+00 SP= 0.00E+00 SK= 0.00E+00
       N       E                     dE             d eps       ncg     rms          rms(c)
RMM:   1    -0.413210402243E+03   -0.16626E-01   -0.64323E+00  4305   0.670E-01    0.966E-01
RMM:   2    -0.413204101467E+03    0.63008E-02   -0.87897E-02  4283   0.113E-01    0.693E-01
RMM:   3    -0.413200865818E+03    0.32356E-02   -0.56096E-02  4927   0.107E-01    0.323E-01
RMM:   4    -0.413219966574E+03   -0.19101E-01   -0.30881E-02  5075   0.151E-01    0.644E-01
RMM:   5    -0.413196337714E+03    0.23629E-01   -0.11642E-02  4723   0.109E-01    0.445E-02
RMM:   6    -0.413196487430E+03   -0.14972E-03   -0.20348E-03  5750   0.419E-02    0.315E-02
RMM:   7    -0.413196501479E+03   -0.14049E-04   -0.31007E-04  5499   0.175E-02    0.222E-02
RMM:   8    -0.413196501358E+03    0.12105E-06   -0.50602E-05  4853   0.892E-03    0.932E-03
RMM:   9    -0.413196497825E+03    0.35330E-05   -0.11648E-05  3516   0.423E-03    0.527E-03
RMM:  10    -0.413196494189E+03    0.36359E-05   -0.19906E-06  2582   0.235E-03    0.323E-03
RMM:  11    -0.413196490158E+03    0.40310E-05   -0.10316E-06  2500   0.161E-03    0.168E-03
RMM:  12    -0.413196482770E+03    0.73884E-05   -0.11914E-06  2497   0.166E-03    0.961E-04
RMM:  13    -0.413196479122E+03    0.36479E-05   -0.41656E-07  2199   0.109E-03    0.682E-04
RMM:  14    -0.413196477348E+03    0.17733E-05   -0.19236E-07  1578   0.773E-04    0.384E-04
RMM:  15    -0.413196469113E+03    0.82357E-05   -0.21749E-07  1858   0.806E-04    0.434E-04
RMM:  16    -0.413196462657E+03    0.64560E-05   -0.11957E-07  1293   0.649E-04    0.415E-04
RMM:  17    -0.413196456027E+03    0.66302E-05   -0.94167E-08  1069   0.608E-04    0.298E-04
RMM:  18    -0.413196453237E+03    0.27898E-05   -0.57735E-08  1026   0.589E-04    0.910E-05
RMM:  19    -0.413196450878E+03    0.23583E-05   -0.44821E-08  1062   0.585E-04    0.971E-05
RMM:  20    -0.413196450713E+03    0.16516E-06   -0.18481E-08   722   0.522E-04
   35 T=    67. E= -.41286774E+03 F= -.41319645E+03 E0= -.41317514E+03  EK= 0.32871E+00 SP= 0.00E+00 SK= 0.00E+00
       N       E                     dE             d eps       ncg     rms          rms(c)
RMM:   1    -0.413212081691E+03   -0.15631E-01   -0.64181E+00  4306   0.702E-01    0.961E-01
RMM:   2    -0.413206104645E+03    0.59770E-02   -0.92465E-02  4261   0.122E-01    0.691E-01
RMM:   3    -0.413199856799E+03    0.62478E-02   -0.53424E-02  4478   0.934E-02    0.220E-01
RMM:   4    -0.413204514335E+03   -0.46575E-02   -0.75326E-03  5119   0.752E-02    0.327E-01
RMM:   5    -0.413198488897E+03    0.60254E-02   -0.30091E-03  4790   0.543E-02    0.363E-02
RMM:   6    -0.413198539231E+03   -0.50333E-04   -0.68750E-04  5692   0.251E-02    0.294E-02
RMM:   7    -0.413198559924E+03   -0.20693E-04   -0.20235E-04  5198   0.155E-02    0.195E-02
RMM:   8    -0.413198549447E+03    0.10477E-04   -0.24931E-05  4302   0.609E-03    0.666E-03
RMM:   9    -0.413198548120E+03    0.13278E-05   -0.43004E-06  2751   0.256E-03    0.370E-03
RMM:  10    -0.413198545440E+03    0.26801E-05   -0.12884E-06  2508   0.186E-03    0.192E-03
RMM:  11    -0.413198542066E+03    0.33732E-05   -0.80611E-07  2422   0.141E-03    0.919E-04
RMM:  12    -0.413198538718E+03    0.33482E-05   -0.41417E-07  2105   0.103E-03    0.519E-04
RMM:  13    -0.413198536350E+03    0.23684E-05   -0.18825E-07  1484   0.757E-04    0.263E-04
RMM:  14    -0.413198532163E+03    0.41871E-05   -0.12862E-07  1168   0.688E-04    0.209E-04
RMM:  15    -0.413198525877E+03    0.62860E-05   -0.11143E-07  1143   0.672E-04    0.119E-04
RMM:  16    -0.413198522734E+03    0.31427E-05   -0.65458E-08  1061   0.619E-04    0.104E-04
RMM:  17    -0.413198517045E+03    0.56886E-05   -0.68601E-08  1202   0.626E-04    0.631E-05
RMM:  18    -0.413198514977E+03    0.20687E-05   -0.33905E-08   903   0.556E-04    0.318E-05
RMM:  19    -0.413198514151E+03    0.82607E-06   -0.19104E-08   744   0.528E-04
   36 T=    67. E= -.41286759E+03 F= -.41319851E+03 E0= -.41317725E+03  EK= 0.33092E+00 SP= 0.00E+00 SK= 0.00E+00
       N       E                     dE             d eps       ncg     rms          rms(c)
RMM:   1    -0.413214383108E+03   -0.15868E-01   -0.65231E+00  4310   0.706E-01    0.950E-01
RMM:   2    -0.413209546320E+03    0.48368E-02   -0.93879E-02  4264   0.120E-01    0.695E-01
RMM:   3    -0.413203198057E+03    0.63483E-02   -0.57066E-02  4346   0.967E-02    0.253E-01
RMM:   4    -0.413201683317E+03    0.15147E-02   -0.29936E-03  4543   0.319E-02    0.436E-02
RMM:   5    -0.413201725704E+03   -0.42387E-04   -0.23006E-04  4952   0.121E-02    0.472E-02
RMM:   6    -0.413201695852E+03    0.29852E-04   -0.27248E-04  5098   0.154E-02    0.298E-02
RMM:   7    -0.413201708871E+03   -0.13019E-04   -0.14253E-04  4773   0.134E-02    0.218E-02
RMM:   8    -0.413201698678E+03    0.10193E-04   -0.32237E-05  3838   0.487E-03    0.466E-03
RMM:   9    -0.413201699890E+03   -0.12116E-05   -0.66272E-06  2398   0.212E-03    0.405E-03
RMM:  10    -0.413201699761E+03    0.12847E-06   -0.14910E-06  2306   0.148E-03
   37 T=    68. E= -.41286814E+03 F= -.41320170E+03 E0= -.41318048E+03  EK= 0.33356E+00 SP= 0.00E+00 SK= 0.00E+00
       N       E                     dE             d eps       ncg     rms          rms(c)
RMM:   1    -0.413217123157E+03   -0.15423E-01   -0.65675E+00  4310   0.722E-01    0.969E-01
RMM:   2    -0.413212424024E+03    0.46991E-02   -0.93672E-02  4258   0.115E-01    0.702E-01
RMM:   3    -0.413205786050E+03    0.66380E-02   -0.56536E-02  4427   0.894E-02    0.240E-01
RMM:   4    -0.413205694772E+03    0.91278E-04   -0.39441E-03  5054   0.481E-02    0.162E-01
RMM:   5    -0.413204310614E+03    0.13842E-02   -0.75797E-04  4754   0.283E-02    0.368E-02
RMM:   6    -0.413204318307E+03   -0.76923E-05   -0.34215E-04  5320   0.186E-02    0.294E-02
RMM:   7    -0.413204340925E+03   -0.22619E-04   -0.15693E-04  4855   0.138E-02    0.199E-02
RMM:   8    -0.413204332828E+03    0.80968E-05   -0.26576E-05  4484   0.555E-03    0.617E-03
RMM:   9    -0.413204332444E+03    0.38457E-06   -0.67363E-06  2563   0.230E-03
   38 T=    68. E= -.41286820E+03 F= -.41320433E+03 E0= -.41318315E+03  EK= 0.33613E+00 SP= 0.00E+00 SK= 0.00E+00
       N       E                     dE             d eps       ncg     rms          rms(c)
RMM:   1    -0.413220937090E+03   -0.16604E-01   -0.65662E+00  4307   0.771E-01    0.977E-01
RMM:   2    -0.413214948439E+03    0.59887E-02   -0.95307E-02  4264   0.114E-01    0.700E-01
RMM:   3    -0.413208308806E+03    0.66396E-02   -0.53352E-02  4460   0.843E-02    0.208E-01
RMM:   4    -0.413209456032E+03   -0.11472E-02   -0.41611E-03  5111   0.528E-02    0.209E-01
RMM:   5    -0.413207094228E+03    0.23618E-02   -0.12272E-03  4785   0.356E-02    0.374E-02
RMM:   6    -0.413207097339E+03   -0.31111E-05   -0.41329E-04  5427   0.206E-02    0.301E-02
RMM:   7    -0.413207108170E+03   -0.10831E-04   -0.17438E-04  5024   0.142E-02    0.203E-02
RMM:   8    -0.413207096487E+03    0.11683E-04   -0.27966E-05  4775   0.626E-03    0.807E-03
RMM:   9    -0.413207094138E+03    0.23489E-05   -0.88175E-06  2625   0.249E-03    0.301E-03
RMM:  10    -0.413207087724E+03    0.64136E-05   -0.12700E-06  2485   0.157E-03    0.132E-03
RMM:  11    -0.413207080740E+03    0.69843E-05   -0.60273E-07  2103   0.108E-03    0.576E-04
RMM:  12    -0.413207074719E+03    0.60207E-05   -0.27166E-07  1642   0.833E-04    0.307E-04
RMM:  13    -0.413207066900E+03    0.78192E-05   -0.19018E-07  1365   0.741E-04    0.230E-04
RMM:  14    -0.413207056355E+03    0.10545E-04   -0.17392E-07  1423   0.715E-04    0.168E-04
RMM:  15    -0.413207044249E+03    0.12106E-04   -0.15411E-07  1513   0.711E-04    0.146E-04
RMM:  16    -0.413207040914E+03    0.33349E-05   -0.59405E-08   987   0.563E-04    0.105E-04
RMM:  17    -0.413207038164E+03    0.27506E-05   -0.42631E-08   964   0.558E-04    0.415E-05
RMM:  18    -0.413207037140E+03    0.10237E-05   -0.26719E-08   767   0.515E-04    0.308E-05
RMM:  19    -0.413207036703E+03    0.43672E-06   -0.17417E-08   678   0.500E-04
   39 T=    69. E= -.41286808E+03 F= -.41320704E+03 E0= -.41318590E+03  EK= 0.33895E+00 SP= 0.00E+00 SK= 0.00E+00
       N       E                     dE             d eps       ncg     rms          rms(c)
RMM:   1    -0.413223453905E+03   -0.16417E-01   -0.66388E+00  4306   0.787E-01    0.962E-01
RMM:   2    -0.413218662278E+03    0.47916E-02   -0.96357E-02  4258   0.113E-01    0.701E-01
RMM:   3    -0.413212476450E+03    0.61858E-02   -0.57093E-02  4725   0.903E-02    0.261E-01
RMM:   4    -0.413229210453E+03   -0.16734E-01   -0.21263E-02  5115   0.125E-01    0.575E-01
RMM:   5    -0.413210348936E+03    0.18862E-01   -0.93310E-03  4793   0.964E-02    0.420E-02
RMM:   6    -0.413210376289E+03   -0.27354E-04   -0.15656E-03  5759   0.382E-02    0.289E-02
RMM:   7    -0.413210409079E+03   -0.32790E-04   -0.28138E-04  5562   0.162E-02    0.202E-02
RMM:   8    -0.413210401547E+03    0.75328E-05   -0.52112E-05  5051   0.798E-03    0.934E-03
RMM:   9    -0.413210403024E+03   -0.14773E-05   -0.10484E-05  3477   0.392E-03    0.484E-03
RMM:  10    -0.413210403007E+03    0.17299E-07   -0.18340E-06  2563   0.214E-03
   40 T=    70. E= -.41286838E+03 F= -.41321040E+03 E0= -.41318930E+03  EK= 0.34203E+00 SP= 0.00E+00 SK= 0.00E+00
       N       E                     dE             d eps       ncg     rms          rms(c)
RMM:   1    -0.413226650611E+03   -0.16248E-01   -0.67476E+00  4315   0.824E-01    0.975E-01
RMM:   2    -0.413221217811E+03    0.54328E-02   -0.99775E-02  4272   0.115E-01    0.711E-01
RMM:   3    -0.413216377345E+03    0.48405E-02   -0.58238E-02  4935   0.992E-02    0.307E-01
RMM:   4    -0.413241495562E+03   -0.25118E-01   -0.35097E-02  5087   0.160E-01    0.709E-01
RMM:   5    -0.413212644949E+03    0.28851E-01   -0.13977E-02  4765   0.119E-01    0.469E-02
RMM:   6    -0.413212708034E+03   -0.63085E-04   -0.23068E-03  5790   0.450E-02    0.291E-02
RMM:   7    -0.413212732152E+03   -0.24118E-04   -0.25828E-04  5657   0.153E-02    0.171E-02
RMM:   8    -0.413212734180E+03   -0.20286E-05   -0.39225E-05  4700   0.648E-03    0.767E-03
RMM:   9    -0.413212732435E+03    0.17450E-05   -0.12555E-05  3836   0.388E-03    0.536E-03
RMM:  10    -0.413212731122E+03    0.13134E-05   -0.30095E-06  2712   0.244E-03    0.322E-03
RMM:  11    -0.413212728549E+03    0.25726E-05   -0.13103E-06  2498   0.177E-03    0.181E-03
RMM:  12    -0.413212722502E+03    0.60474E-05   -0.13118E-06  2506   0.165E-03    0.100E-03
RMM:  13    -0.413212718937E+03    0.35650E-05   -0.40466E-07  2236   0.108E-03    0.627E-04
RMM:  14    -0.413212717570E+03    0.13665E-05   -0.17897E-07  1494   0.755E-04    0.347E-04
RMM:  15    -0.413212710393E+03    0.71775E-05   -0.18146E-07  1638   0.766E-04    0.314E-04
RMM:  16    -0.413212705182E+03    0.52110E-05   -0.10368E-07  1316   0.656E-04    0.291E-04
RMM:  17    -0.413212701362E+03    0.38194E-05   -0.61008E-08  1066   0.592E-04    0.188E-04
RMM:  18    -0.413212695516E+03    0.58462E-05   -0.70623E-08  1385   0.636E-04    0.117E-04
RMM:  19    -0.413212694675E+03    0.84145E-06   -0.23904E-08   830   0.517E-04
   41 T=    70. E= -.41286800E+03 F= -.41321269E+03 E0= -.41319162E+03  EK= 0.34469E+00 SP= 0.00E+00 SK= 0.00E+00
       N       E                     dE             d eps       ncg     rms          rms(c)
RMM:   1    -0.413237552170E+03   -0.24857E-01   -0.68001E+00  4316   0.930E-01    0.987E-01
RMM:   2    -0.413223872374E+03    0.13680E-01   -0.11286E-01  4300   0.125E-01    0.711E-01
RMM:   3    -0.413217706193E+03    0.61662E-02   -0.49018E-02  4904   0.863E-02    0.221E-01
RMM:   4    -0.413248484856E+03   -0.30779E-01   -0.37204E-02  5113   0.163E-01    0.752E-01
RMM:   5    -0.413215427483E+03    0.33057E-01   -0.15799E-02  4784   0.125E-01    0.489E-02
RMM:   6    -0.413215510507E+03   -0.83024E-04   -0.26267E-03  5802   0.481E-02    0.310E-02
RMM:   7    -0.413215545964E+03   -0.35457E-04   -0.31024E-04  5714   0.163E-02    0.189E-02
RMM:   8    -0.413215545678E+03    0.28591E-06   -0.51708E-05  4964   0.751E-03    0.981E-03
RMM:   9    -0.413215546389E+03   -0.71058E-06   -0.19696E-05  4447   0.481E-03    0.656E-03
RMM:  10    -0.413215541828E+03    0.45605E-05   -0.28974E-06  2647   0.271E-03    0.365E-03
RMM:  11    -0.413215539231E+03    0.25977E-05   -0.13563E-06  2500   0.186E-03    0.213E-03
RMM:  12    -0.413215532837E+03    0.63940E-05   -0.14043E-06  2492   0.188E-03    0.116E-03
RMM:  13    -0.413215528974E+03    0.38632E-05   -0.51773E-07  2352   0.126E-03    0.805E-04
RMM:  14    -0.413215527804E+03    0.11697E-05   -0.21498E-07  1805   0.831E-04    0.436E-04
RMM:  15    -0.413215522955E+03    0.48492E-05   -0.13921E-07  1502   0.736E-04    0.237E-04
RMM:  16    -0.413215518309E+03    0.46459E-05   -0.89669E-08  1299   0.658E-04    0.317E-04
RMM:  17    -0.413215514850E+03    0.34592E-05   -0.55514E-08  1053   0.590E-04    0.290E-04
RMM:  18    -0.413215509161E+03    0.56885E-05   -0.58485E-08  1173   0.605E-04    0.124E-04
RMM:  19    -0.413215507372E+03    0.17890E-05   -0.29901E-08   902   0.549E-04    0.624E-05
RMM:  20    -0.413215506366E+03    0.10058E-05   -0.22235E-08   838   0.536E-04    0.377E-05
RMM:  21    -0.413215505990E+03    0.37583E-06   -0.16142E-08   777   0.520E-04
   42 T=    71. E= -.41286804E+03 F= -.41321551E+03 E0= -.41319447E+03  EK= 0.34747E+00 SP= 0.00E+00 SK= 0.00E+00
       N       E                     dE             d eps       ncg     rms          rms(c)
RMM:   1    -0.413233752353E+03   -0.18246E-01   -0.67721E+00  4316   0.926E-01    0.973E-01
RMM:   2    -0.413226376119E+03    0.73762E-02   -0.10169E-01  4377   0.118E-01    0.708E-01
RMM:   3    -0.413220646238E+03    0.57299E-02   -0.55614E-02  4911   0.925E-02    0.272E-01
RMM:   4    -0.413247200960E+03   -0.26555E-01   -0.34377E-02  5110   0.158E-01    0.714E-01
RMM:   5    -0.413217699199E+03    0.29502E-01   -0.14245E-02  4779   0.120E-01    0.476E-02
RMM:   6    -0.413217761599E+03   -0.62400E-04   -0.23470E-03  5771   0.455E-02    0.293E-02
RMM:   7    -0.413217798960E+03   -0.37362E-04   -0.30225E-04  5762   0.163E-02    0.188E-02
RMM:   8    -0.413217797148E+03    0.18127E-05   -0.64529E-05  5073   0.831E-03    0.106E-02
RMM:   9    -0.413217797392E+03   -0.24452E-06   -0.16682E-05  4276   0.481E-03    0.558E-03
RMM:  10    -0.413217795476E+03    0.19161E-05   -0.27185E-06  2637   0.256E-03    0.336E-03
RMM:  11    -0.413217793956E+03    0.15207E-05   -0.11821E-06  2499   0.173E-03    0.194E-03
RMM:  12    -0.413217789656E+03    0.42997E-05   -0.12346E-06  2502   0.171E-03    0.108E-03
RMM:  13    -0.413217786255E+03    0.34011E-05   -0.49763E-07  2297   0.117E-03    0.746E-04
RMM:  14    -0.413217784809E+03    0.14454E-05   -0.20950E-07  1664   0.794E-04    0.353E-04
RMM:  15    -0.413217780602E+03    0.42076E-05   -0.14413E-07  1350   0.720E-04    0.199E-04
RMM:  16    -0.413217776137E+03    0.44643E-05   -0.10536E-07  1308   0.680E-04    0.257E-04
RMM:  17    -0.413217772852E+03    0.32859E-05   -0.69706E-08  1111   0.617E-04    0.225E-04
RMM:  18    -0.413217768659E+03    0.41925E-05   -0.62824E-08  1213   0.614E-04    0.144E-04
RMM:  19    -0.413217766563E+03    0.20959E-05   -0.34687E-08   907   0.555E-04    0.470E-05
RMM:  20    -0.413217765977E+03    0.58630E-06   -0.21480E-08   778   0.532E-04
   43 T=    71. E= -.41286797E+03 F= -.41321777E+03 E0= -.41319675E+03  EK= 0.34979E+00 SP= 0.00E+00 SK= 0.00E+00
       N       E                     dE             d eps       ncg     rms          rms(c)
RMM:   1    -0.413238844616E+03   -0.21078E-01   -0.69318E+00  4316   0.103E+00    0.980E-01
RMM:   2    -0.413227808600E+03    0.11036E-01   -0.10302E-01  4401   0.130E-01    0.717E-01
RMM:   3    -0.413222780753E+03    0.50278E-02   -0.59233E-02  4922   0.100E-01    0.310E-01
RMM:   4    -0.413248653722E+03   -0.25873E-01   -0.36249E-02  5093   0.163E-01    0.720E-01
RMM:   5    -0.413218901331E+03    0.29752E-01   -0.14319E-02  4765   0.121E-01    0.480E-02
RMM:   6    -0.413218953193E+03   -0.51862E-04   -0.23340E-03  5763   0.452E-02    0.281E-02
RMM:   7    -0.413218986612E+03   -0.33418E-04   -0.27206E-04  5737   0.154E-02    0.170E-02
RMM:   8    -0.413218988659E+03   -0.20473E-05   -0.50572E-05  4992   0.738E-03    0.884E-03
RMM:   9    -0.413218990976E+03   -0.23168E-05   -0.17496E-05  4297   0.460E-03    0.562E-03
RMM:  10    -0.413218989226E+03    0.17498E-05   -0.27068E-06  2635   0.258E-03    0.329E-03
RMM:  11    -0.413218988321E+03    0.90494E-06   -0.12303E-06  2503   0.175E-03
   44 T=    72. E= -.41286769E+03 F= -.41321899E+03 E0= -.41319800E+03  EK= 0.35129E+00 SP= 0.00E+00 SK= 0.00E+00
       N       E                     dE             d eps       ncg     rms          rms(c)
RMM:   1    -0.413239171135E+03   -0.20182E-01   -0.68578E+00  4316   0.104E+00    0.997E-01
RMM:   2    -0.413229203836E+03    0.99673E-02   -0.10608E-01  4419   0.133E-01    0.717E-01
RMM:   3    -0.413223563282E+03    0.56406E-02   -0.53437E-02  4930   0.969E-02    0.265E-01
RMM:   4    -0.413252731943E+03   -0.29169E-01   -0.38524E-02  5101   0.168E-01    0.747E-01
RMM:   5    -0.413220316745E+03    0.32415E-01   -0.15211E-02  4771   0.125E-01    0.500E-02
RMM:   6    -0.413220371785E+03   -0.55040E-04   -0.25434E-03  5767   0.473E-02    0.295E-02
RMM:   7    -0.413220402424E+03   -0.30639E-04   -0.31891E-04  5804   0.166E-02    0.192E-02
RMM:   8    -0.413220398901E+03    0.35238E-05   -0.71076E-05  5106   0.875E-03    0.112E-02
RMM:   9    -0.413220395936E+03    0.29641E-05   -0.18504E-05  4393   0.512E-03    0.552E-03
RMM:  10    -0.413220391028E+03    0.49081E-05   -0.33245E-06  2709   0.276E-03    0.342E-03
RMM:  11    -0.413220387570E+03    0.34584E-05   -0.12829E-06  2506   0.183E-03    0.200E-03
RMM:  12    -0.413220379183E+03    0.83873E-05   -0.11126E-06  2493   0.169E-03    0.106E-03
RMM:  13    -0.413220373055E+03    0.61274E-05   -0.49692E-07  2306   0.117E-03    0.712E-04
RMM:  14    -0.413220370605E+03    0.24503E-05   -0.21248E-07  1675   0.804E-04    0.349E-04
RMM:  15    -0.413220363093E+03    0.75121E-05   -0.16047E-07  1474   0.753E-04    0.252E-04
RMM:  16    -0.413220356530E+03    0.65629E-05   -0.11624E-07  1475   0.695E-04    0.316E-04
RMM:  17    -0.413220352533E+03    0.39973E-05   -0.68713E-08  1111   0.603E-04    0.249E-04
RMM:  18    -0.413220347438E+03    0.50944E-05   -0.65480E-08  1292   0.622E-04    0.110E-04
RMM:  19    -0.413220345261E+03    0.21770E-05   -0.37327E-08   987   0.557E-04    0.532E-05
RMM:  20    -0.413220344642E+03    0.61952E-06   -0.23807E-08   838   0.526E-04
   45 T=    72. E= -.41286806E+03 F= -.41322034E+03 E0= -.41319938E+03  EK= 0.35228E+00 SP= 0.00E+00 SK= 0.00E+00
       N       E                     dE             d eps       ncg     rms          rms(c)
RMM:   1    -0.413238111541E+03   -0.17766E-01   -0.68066E+00  4316   0.111E+00    0.979E-01
RMM:   2    -0.413228676719E+03    0.94348E-02   -0.10632E-01  4441   0.140E-01    0.710E-01
RMM:   3    -0.413225871545E+03    0.28052E-02   -0.54787E-02  5002   0.113E-01    0.342E-01
RMM:   4    -0.413248327363E+03   -0.22456E-01   -0.40003E-02  5074   0.173E-01    0.702E-01
RMM:   5    -0.413219927611E+03    0.28400E-01   -0.12663E-02  4717   0.118E-01    0.495E-02
RMM:   6    -0.413219950524E+03   -0.22913E-04   -0.21259E-03  5721   0.436E-02    0.280E-02
RMM:   7    -0.413219977946E+03   -0.27422E-04   -0.23843E-04  5727   0.149E-02    0.169E-02
RMM:   8    -0.413219986335E+03   -0.83888E-05   -0.64691E-05  5131   0.823E-03    0.102E-02
RMM:   9    -0.413219979228E+03    0.71065E-05   -0.17977E-05  4352   0.493E-03    0.494E-03
RMM:  10    -0.413219976945E+03    0.22830E-05   -0.28839E-06  2657   0.260E-03    0.304E-03
RMM:  11    -0.413219974347E+03    0.25985E-05   -0.12723E-06  2500   0.180E-03    0.161E-03
RMM:  12    -0.413219969054E+03    0.52928E-05   -0.82712E-07  2463   0.146E-03    0.809E-04
RMM:  13    -0.413219964430E+03    0.46241E-05   -0.36224E-07  2101   0.994E-04    0.410E-04
RMM:  14    -0.413219962007E+03    0.24227E-05   -0.16778E-07  1367   0.728E-04    0.199E-04
RMM:  15    -0.413219955617E+03    0.63901E-05   -0.14021E-07  1296   0.715E-04    0.171E-04
RMM:  16    -0.413219951655E+03    0.39616E-05   -0.94802E-08  1267   0.662E-04    0.140E-04
RMM:  17    -0.413219948122E+03    0.35334E-05   -0.72601E-08  1243   0.626E-04    0.804E-05
RMM:  18    -0.413219943946E+03    0.41757E-05   -0.56834E-08  1186   0.603E-04    0.415E-05
RMM:  19    -0.413219942420E+03    0.15261E-05   -0.30113E-08   881   0.542E-04    0.332E-05
RMM:  20    -0.413219942158E+03    0.26227E-06   -0.16747E-08   729   0.517E-04
   46 T=    72. E= -.41286796E+03 F= -.41321994E+03 E0= -.41319899E+03  EK= 0.35198E+00 SP= 0.00E+00 SK= 0.00E+00
       N       E                     dE             d eps       ncg     rms          rms(c)
RMM:   1    -0.413239707002E+03   -0.19765E-01   -0.69072E+00  4316   0.124E+00    0.968E-01
RMM:   2    -0.413227981713E+03    0.11725E-01   -0.11258E-01  4457   0.155E-01    0.717E-01
RMM:   3    -0.413228184839E+03   -0.20313E-03   -0.58805E-02  5025   0.130E-01    0.426E-01
RMM:   4    -0.413243656055E+03   -0.15471E-01   -0.41512E-02  5046   0.179E-01    0.664E-01
RMM:   5    -0.413218745082E+03    0.24911E-01   -0.10950E-02  4671   0.112E-01    0.490E-02
RMM:   6    -0.413218740889E+03    0.41927E-05   -0.18002E-03  5651   0.406E-02    0.260E-02
RMM:   7    -0.413218764384E+03   -0.23494E-04   -0.22429E-04  5718   0.148E-02    0.173E-02
RMM:   8    -0.413218775305E+03   -0.10922E-04   -0.79955E-05  5126   0.935E-03    0.103E-02
RMM:   9    -0.413218770117E+03    0.51877E-05   -0.13324E-05  4006   0.487E-03    0.436E-03
RMM:  10    -0.413218768825E+03    0.12928E-05   -0.29309E-06  2705   0.245E-03    0.272E-03
RMM:  11    -0.413218766908E+03    0.19169E-05   -0.13439E-06  2504   0.175E-03    0.127E-03
RMM:  12    -0.413218763444E+03    0.34642E-05   -0.81894E-07  2409   0.137E-03    0.658E-04
RMM:  13    -0.413218760202E+03    0.32414E-05   -0.37682E-07  1853   0.955E-04    0.304E-04
RMM:  14    -0.413218757537E+03    0.26655E-05   -0.20271E-07  1429   0.763E-04    0.156E-04
RMM:  15    -0.413218752637E+03    0.48999E-05   -0.18683E-07  1487   0.754E-04    0.134E-04
RMM:  16    -0.413218749296E+03    0.33410E-05   -0.12323E-07  1311   0.667E-04    0.100E-04
RMM:  17    -0.413218744374E+03    0.49218E-05   -0.11272E-07  1404   0.664E-04    0.593E-05
RMM:  18    -0.413218742484E+03    0.18900E-05   -0.54538E-08   956   0.558E-04    0.382E-05
RMM:  19    -0.413218741686E+03    0.79798E-06   -0.32668E-08   842   0.534E-04
   47 T=    71. E= -.41286816E+03 F= -.41321874E+03 E0= -.41319780E+03  EK= 0.35059E+00 SP= 0.00E+00 SK= 0.00E+00
       N       E                     dE             d eps       ncg     rms          rms(c)
RMM:   1    -0.413241641462E+03   -0.22899E-01   -0.68387E+00  4313   0.133E+00    0.984E-01
RMM:   2    -0.413225213905E+03    0.16428E-01   -0.11040E-01  4504   0.166E-01    0.714E-01
RMM:   3    -0.413229202665E+03   -0.39888E-02   -0.58106E-02  5068   0.142E-01    0.480E-01
RMM:   4    -0.413235201691E+03   -0.59990E-02   -0.38824E-02  5022   0.176E-01    0.577E-01
RMM:   5    -0.413216461125E+03    0.18741E-01   -0.76511E-03  4615   0.995E-02    0.487E-02
RMM:   6    -0.413216430790E+03    0.30335E-04   -0.12871E-03  5423   0.351E-02    0.255E-02
RMM:   7    -0.413216452047E+03   -0.21257E-04   -0.16715E-04  5629   0.131E-02    0.151E-02
RMM:   8    -0.413216460710E+03   -0.86627E-05   -0.74309E-05  5186   0.899E-03    0.103E-02
RMM:   9    -0.413216451047E+03    0.96628E-05   -0.13193E-05  4021   0.480E-03    0.403E-03
RMM:  10    -0.413216448305E+03    0.27418E-05   -0.29442E-06  2708   0.246E-03    0.246E-03
RMM:  11    -0.413216444325E+03    0.39799E-05   -0.12890E-06  2489   0.182E-03    0.120E-03
RMM:  12    -0.413216439685E+03    0.46398E-05   -0.60415E-07  2367   0.129E-03    0.656E-04
RMM:  13    -0.413216435533E+03    0.41520E-05   -0.27647E-07  1766   0.890E-04    0.292E-04
RMM:  14    -0.413216431217E+03    0.43167E-05   -0.16387E-07  1369   0.733E-04    0.157E-04
RMM:  15    -0.413216426343E+03    0.48733E-05   -0.12159E-07  1280   0.692E-04    0.115E-04
RMM:  16    -0.413216422141E+03    0.42023E-05   -0.91897E-08  1302   0.657E-04    0.845E-05
RMM:  17    -0.413216415730E+03    0.64111E-05   -0.91418E-08  1472   0.666E-04    0.626E-05
RMM:  18    -0.413216414052E+03    0.16779E-05   -0.37500E-08   906   0.530E-04    0.429E-05
RMM:  19    -0.413216412745E+03    0.13071E-05   -0.24858E-08   815   0.518E-04    0.184E-05
RMM:  20    -0.413216412099E+03    0.64549E-06   -0.16571E-08   720   0.500E-04
   48 T=    71. E= -.41286854E+03 F= -.41321641E+03 E0= -.41319548E+03  EK= 0.34787E+00 SP= 0.00E+00 SK= 0.00E+00
       N       E                     dE             d eps       ncg     rms          rms(c)
RMM:   1    -0.413237454397E+03   -0.21042E-01   -0.67059E+00  4310   0.142E+00    0.969E-01
RMM:   2    -0.413220323057E+03    0.17131E-01   -0.11164E-01  4561   0.174E-01    0.704E-01
RMM:   3    -0.413231345745E+03   -0.11023E-01   -0.59454E-02  5098   0.160E-01    0.585E-01
RMM:   4    -0.413224964682E+03    0.63811E-02   -0.39031E-02  4973   0.180E-01    0.487E-01
RMM:   5    -0.413211747752E+03    0.13217E-01   -0.53298E-03  4575   0.895E-02    0.488E-02
RMM:   6    -0.413211673049E+03    0.74703E-04   -0.72828E-04  4957   0.292E-02    0.252E-02
RMM:   7    -0.413211701634E+03   -0.28585E-04   -0.13058E-04  5633   0.123E-02    0.116E-02
RMM:   8    -0.413211702522E+03   -0.88867E-06   -0.24482E-05  4699   0.598E-03    0.554E-03
RMM:   9    -0.413211699213E+03    0.33095E-05   -0.44510E-06  2912   0.271E-03    0.296E-03
RMM:  10    -0.413211695477E+03    0.37356E-05   -0.15650E-06  2513   0.200E-03    0.194E-03
RMM:  11    -0.413211690958E+03    0.45197E-05   -0.80474E-07  2430   0.151E-03    0.114E-03
RMM:  12    -0.413211687929E+03    0.30283E-05   -0.35361E-07  1927   0.101E-03    0.623E-04
RMM:  13    -0.413211682983E+03    0.49459E-05   -0.27637E-07  2000   0.899E-04    0.419E-04
RMM:  14    -0.413211677400E+03    0.55835E-05   -0.15402E-07  1255   0.693E-04    0.201E-04
RMM:  15    -0.413211673723E+03    0.36768E-05   -0.98527E-08  1090   0.630E-04    0.108E-04
RMM:  16    -0.413211669355E+03    0.43677E-05   -0.79909E-08  1147   0.627E-04    0.852E-05
RMM:  17    -0.413211662323E+03    0.70328E-05   -0.92191E-08  1464   0.673E-04    0.121E-04
RMM:  18    -0.413211661804E+03    0.51816E-06   -0.27901E-08   749   0.512E-04
   49 T=    70. E= -.41286835E+03 F= -.41321166E+03 E0= -.41319074E+03  EK= 0.34331E+00 SP= 0.00E+00 SK= 0.00E+00
       N       E                     dE             d eps       ncg     rms          rms(c)
RMM:   1    -0.413232194951E+03   -0.20533E-01   -0.66699E+00  4310   0.154E+00    0.936E-01
RMM:   2    -0.413214970435E+03    0.17225E-01   -0.12191E-01  4676   0.186E-01    0.702E-01
RMM:   3    -0.413236420746E+03   -0.21450E-01   -0.64539E-02  5119   0.186E-01    0.721E-01
RMM:   4    -0.413216563802E+03    0.19857E-01   -0.44812E-02  4943   0.195E-01    0.438E-01
RMM:   5    -0.413206120242E+03    0.10444E-01   -0.51786E-03  4600   0.916E-02    0.529E-02
RMM:   6    -0.413206003602E+03    0.11664E-03   -0.53339E-04  4780   0.283E-02    0.258E-02
RMM:   7    -0.413206031813E+03   -0.28211E-04   -0.19167E-04  5679   0.155E-02    0.165E-02
RMM:   8    -0.413206021042E+03    0.10771E-04   -0.51140E-05  5063   0.814E-03    0.872E-03
RMM:   9    -0.413206019905E+03    0.11371E-05   -0.12062E-05  4159   0.459E-03    0.391E-03
RMM:  10    -0.413206016991E+03    0.29135E-05   -0.18813E-06  2607   0.223E-03    0.237E-03
RMM:  11    -0.413206012746E+03    0.42454E-05   -0.10004E-06  2501   0.163E-03    0.157E-03
RMM:  12    -0.413206009720E+03    0.30261E-05   -0.43175E-07  2155   0.106E-03    0.797E-04
RMM:  13    -0.413206005617E+03    0.41024E-05   -0.39774E-07  2177   0.970E-04    0.399E-04
RMM:  14    -0.413206002198E+03    0.34194E-05   -0.20518E-07  1464   0.743E-04    0.307E-04
RMM:  15    -0.413205996783E+03    0.54143E-05   -0.18895E-07  1342   0.716E-04    0.134E-04
RMM:  16    -0.413205993870E+03    0.29129E-05   -0.11015E-07  1259   0.635E-04    0.899E-05
RMM:  17    -0.413205989331E+03    0.45390E-05   -0.10868E-07  1303   0.637E-04    0.902E-05
RMM:  18    -0.413205987707E+03    0.16246E-05   -0.55235E-08   992   0.549E-04    0.686E-05
RMM:  19    -0.413205985967E+03    0.17398E-05   -0.39354E-08   926   0.535E-04    0.352E-05
RMM:  20    -0.413205984662E+03    0.13054E-05   -0.31711E-08   880   0.520E-04    0.253E-05
RMM:  21    -0.413205984536E+03    0.12571E-06   -0.12614E-08   675   0.481E-04
   50 T=    69. E= -.41286873E+03 F= -.41320598E+03 E0= -.41318506E+03  EK= 0.33725E+00 SP= 0.00E+00 SK= 0.00E+00
       N       E                     dE             d eps       ncg     rms          rms(c)
RMM:   1    -0.413225326427E+03   -0.19342E-01   -0.65303E+00  4308   0.161E+00    0.939E-01
RMM:   2    -0.413206284378E+03    0.19042E-01   -0.12155E-01  4777   0.195E-01    0.697E-01
RMM:   3    -0.413237819412E+03   -0.31535E-01   -0.68848E-02  5134   0.205E-01    0.826E-01
RMM:   4    -0.413204879792E+03    0.32940E-01   -0.46730E-02  4927   0.203E-01    0.366E-01
RMM:   5    -0.413197745669E+03    0.71341E-02   -0.50339E-03  4848   0.926E-02    0.610E-02
RMM:   6    -0.413197569341E+03    0.17633E-03   -0.47791E-04  4614   0.292E-02    0.286E-02
RMM:   7    -0.413197601361E+03   -0.32021E-04   -0.24438E-04  5631   0.175E-02    0.218E-02
RMM:   8    -0.413197585805E+03    0.15556E-04   -0.64460E-05  4994   0.976E-03    0.101E-02
RMM:   9    -0.413197583417E+03    0.23886E-05   -0.18377E-05  4616   0.543E-03    0.412E-03
RMM:  10    -0.413197579867E+03    0.35493E-05   -0.29628E-06  2750   0.257E-03    0.265E-03
RMM:  11    -0.413197574765E+03    0.51028E-05   -0.10081E-06  2504   0.174E-03    0.160E-03
RMM:  12    -0.413197570934E+03    0.38311E-05   -0.45822E-07  2187   0.110E-03    0.738E-04
RMM:  13    -0.413197566734E+03    0.41995E-05   -0.40030E-07  2213   0.100E-03    0.430E-04
RMM:  14    -0.413197562597E+03    0.41366E-05   -0.23952E-07  1645   0.804E-04    0.324E-04
RMM:  15    -0.413197557369E+03    0.52283E-05   -0.17448E-07  1324   0.725E-04    0.160E-04
RMM:  16    -0.413197554183E+03    0.31864E-05   -0.11635E-07  1288   0.665E-04    0.866E-05
RMM:  17    -0.413197548653E+03    0.55302E-05   -0.12766E-07  1511   0.692E-04    0.119E-04
RMM:  18    -0.413197547603E+03    0.10495E-05   -0.56820E-08  1011   0.545E-04    0.916E-05
RMM:  19    -0.413197545918E+03    0.16854E-05   -0.44697E-08   996   0.542E-04    0.310E-05
RMM:  20    -0.413197544734E+03    0.11833E-05   -0.31454E-08   887   0.524E-04    0.249E-05
RMM:  21    -0.413197544559E+03    0.17523E-06   -0.16327E-08   735   0.496E-04
   51 T=    67. E= -.41286861E+03 F= -.41319754E+03 E0= -.41317662E+03  EK= 0.32894E+00 SP= 0.00E+00 SK= 0.00E+00
       N       E                     dE             d eps       ncg     rms          rms(c)
RMM:   1    -0.413216120263E+03   -0.18576E-01   -0.62941E+00  4303   0.171E+00    0.930E-01
RMM:   2    -0.413195160595E+03    0.20960E-01   -0.12079E-01  4839   0.207E-01    0.680E-01
RMM:   3    -0.413237583044E+03   -0.42422E-01   -0.71693E-02  5148   0.221E-01    0.925E-01
RMM:   4    -0.413191660936E+03    0.45922E-01   -0.48623E-02  4900   0.210E-01    0.290E-01
RMM:   5    -0.413187259410E+03    0.44015E-02   -0.56204E-03  5161   0.961E-02    0.743E-02
[...]
RMM:   6    -0.413144010726E+03    0.52763E-04   -0.21276E-03  5637   0.462E-02    0.266E-02
RMM:   7    -0.413144038697E+03   -0.27970E-04   -0.34063E-04  5978   0.167E-02    0.178E-02
RMM:   8    -0.413144068006E+03   -0.29310E-04   -0.59384E-05  5244   0.747E-03    0.935E-03
RMM:   9    -0.413144096799E+03   -0.28793E-04   -0.15134E-05  3783   0.434E-03    0.406E-03
RMM:  10    -0.413144118917E+03   -0.22118E-04   -0.36415E-06  2670   0.253E-03    0.209E-03
RMM:  11    -0.413144137870E+03   -0.18954E-04   -0.15587E-06  2569   0.180E-03    0.136E-03
RMM:  12    -0.413144157570E+03   -0.19699E-04   -0.13677E-06  2552   0.151E-03    0.909E-04
RMM:  13    -0.413144167233E+03   -0.96634E-05   -0.62566E-07  1913   0.104E-03    0.470E-04
RMM:  14    -0.413144177785E+03   -0.10552E-04   -0.59720E-07  2290   0.106E-03    0.407E-04
RMM:  15    -0.413144185463E+03   -0.76781E-05   -0.36903E-07  1554   0.813E-04    0.240E-04
RMM:  16    -0.413144192416E+03   -0.69529E-05   -0.29192E-07  1632   0.794E-04    0.123E-04
RMM:  17    -0.413144193748E+03   -0.13318E-05   -0.10965E-07  1218   0.622E-04    0.903E-05
RMM:  18    -0.413144195367E+03   -0.16192E-05   -0.74269E-08  1219   0.601E-04    0.465E-05
RMM:  19    -0.413144196836E+03   -0.14695E-05   -0.56282E-08  1202   0.584E-04    0.420E-05
RMM:  20    -0.413144197286E+03   -0.44976E-06   -0.28394E-08   925   0.522E-04
  140 T=    55. E= -.41287519E+03 F= -.41314420E+03 E0= -.41312328E+03  EK= 0.26901E+00 SP= 0.00E+00 SK= 0.00E+00
       N       E                     dE             d eps       ncg     rms          rms(c)
RMM:   1    -0.413143597160E+03    0.59968E-03   -0.70353E+00  4275   0.118E+00    0.717E-01
RMM:   2    -0.413145312403E+03   -0.17152E-02   -0.77151E-02  4451   0.125E-01    0.496E-01
RMM:   3    -0.413145627642E+03   -0.31524E-03   -0.61740E-03  5149   0.672E-02    0.154E-01
RMM:   4    -0.413166495769E+03   -0.20868E-01   -0.24310E-02  5147   0.134E-01    0.608E-01
RMM:   5    -0.413144871740E+03    0.21624E-01   -0.11026E-02  4880   0.107E-01    0.656E-02
RMM:   6    -0.413144762259E+03    0.10948E-03   -0.18696E-03  5529   0.448E-02    0.198E-02
RMM:   7    -0.413144779360E+03   -0.17101E-04   -0.33849E-04  6033   0.166E-02    0.134E-02
RMM:   8    -0.413144786343E+03   -0.69832E-05   -0.43387E-05  4842   0.611E-03    0.775E-03
RMM:   9    -0.413144791399E+03   -0.50560E-05   -0.79722E-06  3204   0.344E-03    0.370E-03
RMM:  10    -0.413144796852E+03   -0.54531E-05   -0.27218E-06  2616   0.244E-03    0.216E-03
RMM:  11    -0.413144801562E+03   -0.47100E-05   -0.11768E-06  2527   0.172E-03    0.113E-03
RMM:  12    -0.413144804843E+03   -0.32814E-05   -0.61777E-07  2415   0.120E-03    0.702E-04
RMM:  13    -0.413144806599E+03   -0.17554E-05   -0.29416E-07  1640   0.852E-04    0.348E-04
RMM:  14    -0.413144808980E+03   -0.23810E-05   -0.29447E-07  1755   0.855E-04    0.202E-04
RMM:  15    -0.413144810485E+03   -0.15056E-05   -0.17184E-07  1411   0.720E-04    0.123E-04
RMM:  16    -0.413144811768E+03   -0.12825E-05   -0.12921E-07  1328   0.667E-04    0.881E-05
RMM:  17    -0.413144812966E+03   -0.11985E-05   -0.10061E-07  1282   0.628E-04    0.527E-05
RMM:  18    -0.413144813717E+03   -0.75092E-06   -0.61061E-08  1076   0.571E-04
  141 T=    54. E= -.41287820E+03 F= -.41314481E+03 E0= -.41312396E+03  EK= 0.26661E+00 SP= 0.00E+00 SK= 0.00E+00
       N       E                     dE             d eps       ncg     rms          rms(c)
RMM:   1    -0.413124496633E+03    0.20316E-01   -0.75070E+00  4278   0.119E+00    0.819E-01
RMM:   2    -0.413123964364E+03    0.53227E-03   -0.72127E-02  4432   0.125E-01    0.502E-01
RMM:   3    -0.413123946541E+03    0.17823E-04   -0.10031E-02  5096   0.650E-02    0.136E-01
RMM:   4    -0.413139684409E+03   -0.15738E-01   -0.17399E-02  5161   0.114E-01    0.528E-01
RMM:   5    -0.413123704544E+03    0.15980E-01   -0.84669E-03  4896   0.932E-02    0.696E-02
RMM:   6    -0.413123584751E+03    0.11979E-03   -0.15303E-03  5489   0.419E-02    0.251E-02
RMM:   7    -0.413123600854E+03   -0.16103E-04   -0.31258E-04  6016   0.164E-02    0.176E-02
RMM:   8    -0.413123601745E+03   -0.89097E-06   -0.44327E-05  4914   0.677E-03    0.844E-03
RMM:   9    -0.413123598555E+03    0.31896E-05   -0.10306E-05  3543   0.388E-03    0.382E-03
RMM:  10    -0.413123595591E+03    0.29640E-05   -0.32811E-06  2716   0.268E-03    0.246E-03
RMM:  11    -0.413123591794E+03    0.37974E-05   -0.14889E-06  2542   0.193E-03    0.126E-03
RMM:  12    -0.413123588274E+03    0.35204E-05   -0.78751E-07  2443   0.131E-03    0.791E-04
RMM:  13    -0.413123586230E+03    0.20440E-05   -0.35977E-07  1816   0.907E-04    0.418E-04
RMM:  14    -0.413123582611E+03    0.36186E-05   -0.41600E-07  1926   0.919E-04    0.288E-04
RMM:  15    -0.413123580206E+03    0.24049E-05   -0.23468E-07  1497   0.738E-04    0.187E-04
RMM:  16    -0.413123578375E+03    0.18314E-05   -0.15300E-07  1355   0.675E-04    0.120E-04
RMM:  17    -0.413123576990E+03    0.13847E-05   -0.10829E-07  1264   0.631E-04    0.811E-05
RMM:  18    -0.413123576715E+03    0.27544E-06   -0.49682E-08   982   0.553E-04
  142 T=    52. E= -.41286769E+03 F= -.41312358E+03 E0= -.41310279E+03  EK= 0.25588E+00 SP= 0.00E+00 SK= 0.00E+00
       N       E                     dE             d eps       ncg     rms          rms(c)
RMM:   1    -0.413138425605E+03   -0.14849E-01   -0.68477E+00  4266   0.115E+00    0.646E-01
RMM:   2    -0.413143814547E+03   -0.53889E-02   -0.75308E-02  4439   0.123E-01    0.492E-01
RMM:   3    -0.413143900744E+03   -0.86197E-04   -0.76250E-03  5192   0.717E-02    0.180E-01
RMM:   4    -0.413163428008E+03   -0.19527E-01   -0.26258E-02  5124   0.139E-01    0.600E-01
RMM:   5    -0.413142218866E+03    0.21209E-01   -0.10010E-02  4833   0.105E-01    0.558E-02
RMM:   6    -0.413142158855E+03    0.60010E-04   -0.17223E-03  5595   0.413E-02    0.178E-02
RMM:   7    -0.413142176782E+03   -0.17927E-04   -0.26842E-04  5980   0.147E-02    0.107E-02
RMM:   8    -0.413142193758E+03   -0.16976E-04   -0.35841E-05  4718   0.562E-03    0.654E-03
RMM:   9    -0.413142212372E+03   -0.18614E-04   -0.64445E-06  3009   0.322E-03    0.347E-03
RMM:  10    -0.413142232817E+03   -0.20445E-04   -0.28736E-06  2634   0.243E-03    0.173E-03
RMM:  11    -0.413142245811E+03   -0.12993E-04   -0.12435E-06  2545   0.161E-03    0.102E-03
RMM:  12    -0.413142255553E+03   -0.97427E-05   -0.76294E-07  2443   0.123E-03    0.693E-04
RMM:  13    -0.413142261372E+03   -0.58185E-05   -0.41109E-07  1778   0.929E-04    0.380E-04
RMM:  14    -0.413142270261E+03   -0.88888E-05   -0.52316E-07  2183   0.100E-03    0.347E-04
RMM:  15    -0.413142274129E+03   -0.38683E-05   -0.22461E-07  1423   0.715E-04    0.207E-04
RMM:  16    -0.413142279664E+03   -0.55350E-05   -0.24493E-07  1503   0.755E-04    0.109E-04
RMM:  17    -0.413142280615E+03   -0.95069E-06   -0.90498E-08  1156   0.613E-04
  143 T=    54. E= -.41287939E+03 F= -.41314228E+03 E0= -.41312156E+03  EK= 0.26289E+00 SP= 0.00E+00 SK= 0.00E+00
       N       E                     dE             d eps       ncg     rms          rms(c)
RMM:   1    -0.413115647495E+03    0.26632E-01   -0.72560E+00  4265   0.115E+00    0.705E-01
RMM:   2    -0.413119624325E+03   -0.39768E-02   -0.91898E-02  4448   0.126E-01    0.547E-01
RMM:   3    -0.413118931286E+03    0.69304E-03   -0.10051E-02  5160   0.755E-02    0.188E-01
RMM:   4    -0.413144460132E+03   -0.25529E-01   -0.33211E-02  5122   0.156E-01    0.680E-01
RMM:   5    -0.413117016868E+03    0.27443E-01   -0.12672E-02  4812   0.117E-01    0.579E-02
RMM:   6    -0.413116997374E+03    0.19493E-04   -0.22030E-03  5689   0.456E-02    0.202E-02
RMM:   7    -0.413117022472E+03   -0.25098E-04   -0.31834E-04  5994   0.158E-02    0.133E-02
RMM:   8    -0.413117042107E+03   -0.19635E-04   -0.44085E-05  4817   0.604E-03    0.795E-03
RMM:   9    -0.413117064928E+03   -0.22821E-04   -0.87068E-06  3173   0.348E-03    0.399E-03
RMM:  10    -0.413117089111E+03   -0.24183E-04   -0.34015E-06  2634   0.255E-03    0.201E-03
RMM:  11    -0.413117105988E+03   -0.16878E-04   -0.15534E-06  2563   0.175E-03    0.122E-03
RMM:  12    -0.413117117214E+03   -0.11225E-04   -0.84605E-07  2478   0.129E-03    0.797E-04
RMM:  13    -0.413117124357E+03   -0.71430E-05   -0.48783E-07  1836   0.975E-04    0.429E-04
RMM:  14    -0.413117134823E+03   -0.10467E-04   -0.60437E-07  2355   0.108E-03    0.447E-04
RMM:  15    -0.413117139139E+03   -0.43161E-05   -0.23758E-07  1378   0.732E-04    0.246E-04
RMM:  16    -0.413117146274E+03   -0.71350E-05   -0.32145E-07  1736   0.837E-04    0.158E-04
RMM:  17    -0.413117147022E+03   -0.74738E-06   -0.94312E-08  1148   0.612E-04
  144 T=    52. E= -.41286044E+03 F= -.41311715E+03 E0= -.41309649E+03  EK= 0.25671E+00 SP= 0.00E+00 SK= 0.00E+00
       N       E                     dE             d eps       ncg     rms          rms(c)
RMM:   1    -0.413117773102E+03   -0.62683E-03   -0.82601E+00  4275   0.121E+00    0.961E-01
RMM:   2    -0.413113340132E+03    0.44330E-02   -0.82068E-02  4449   0.122E-01    0.562E-01
RMM:   3    -0.413112325567E+03    0.10146E-02   -0.15068E-02  5029   0.627E-02    0.121E-01
RMM:   4    -0.413124824019E+03   -0.12498E-01   -0.13161E-02  5184   0.100E-01    0.468E-01
RMM:   5    -0.413112351518E+03    0.12473E-01   -0.65289E-03  4884   0.808E-02    0.631E-02
RMM:   6    -0.413112280397E+03    0.71121E-04   -0.12663E-03  5609   0.378E-02    0.275E-02
RMM:   7    -0.413112295827E+03   -0.15430E-04   -0.26238E-04  5993   0.157E-02    0.184E-02
RMM:   8    -0.413112288949E+03    0.68781E-05   -0.55061E-05  5038   0.800E-03    0.736E-03
RMM:   9    -0.413112282074E+03    0.68744E-05   -0.12324E-05  3856   0.415E-03    0.394E-03
RMM:  10    -0.413112276497E+03    0.55768E-05   -0.25874E-06  2617   0.249E-03    0.265E-03
RMM:  11    -0.413112267133E+03    0.93648E-05   -0.19320E-06  2579   0.204E-03    0.139E-03
RMM:  12    -0.413112260045E+03    0.70872E-05   -0.91403E-07  2464   0.136E-03    0.839E-04
RMM:  13    -0.413112255975E+03    0.40703E-05   -0.40169E-07  1889   0.934E-04    0.477E-04
RMM:  14    -0.413112247208E+03    0.87670E-05   -0.64142E-07  2300   0.108E-03    0.440E-04
RMM:  15    -0.413112243756E+03    0.34521E-05   -0.22452E-07  1391   0.721E-04    0.282E-04
RMM:  16    -0.413112239819E+03    0.39376E-05   -0.18656E-07  1491   0.740E-04    0.153E-04
RMM:  17    -0.413112237990E+03    0.18288E-05   -0.10315E-07  1322   0.639E-04    0.155E-04
RMM:  18    -0.413112237695E+03    0.29482E-06   -0.46899E-08   979   0.545E-04
  145 T=    51. E= -.41285953E+03 F= -.41311224E+03 E0= -.41309164E+03  EK= 0.25271E+00 SP= 0.00E+00 SK= 0.00E+00
       N       E                     dE             d eps       ncg     rms          rms(c)
RMM:   1    -0.413122072179E+03   -0.98342E-02   -0.62505E+00  4264   0.111E+00    0.606E-01
RMM:   2    -0.413125228022E+03   -0.31558E-02   -0.68935E-02  4455   0.117E-01    0.450E-01
RMM:   3    -0.413124925728E+03    0.30229E-03   -0.49789E-03  5156   0.591E-02    0.130E-01
RMM:   4    -0.413144069171E+03   -0.19143E-01   -0.22247E-02  5150   0.127E-01    0.582E-01
RMM:   5    -0.413124197519E+03    0.19872E-01   -0.95925E-03  4839   0.996E-02    0.477E-02
RMM:   6    -0.413124176962E+03    0.20557E-04   -0.16394E-03  5701   0.395E-02    0.157E-02
RMM:   7    -0.413124194317E+03   -0.17355E-04   -0.24782E-04  6008   0.140E-02    0.112E-02
RMM:   8    -0.413124205799E+03   -0.11482E-04   -0.34217E-05  4670   0.558E-03    0.598E-03
RMM:   9    -0.413124218109E+03   -0.12310E-04   -0.72126E-06  3075   0.329E-03    0.305E-03
RMM:  10    -0.413124227793E+03   -0.96846E-05   -0.19230E-06  2560   0.206E-03    0.173E-03
RMM:  11    -0.413124237560E+03   -0.97665E-05   -0.11037E-06  2531   0.155E-03    0.107E-03
RMM:  12    -0.413124245235E+03   -0.76751E-05   -0.67566E-07  2260   0.117E-03    0.629E-04
RMM:  13    -0.413124248789E+03   -0.35543E-05   -0.31916E-07  1617   0.861E-04    0.327E-04
RMM:  14    -0.413124253541E+03   -0.47512E-05   -0.33232E-07  1877   0.883E-04    0.234E-04
RMM:  15    -0.413124256771E+03   -0.32304E-05   -0.19272E-07  1360   0.719E-04    0.140E-04
RMM:  16    -0.413124260113E+03   -0.33420E-05   -0.17629E-07  1450   0.718E-04    0.926E-05
RMM:  17    -0.413124261454E+03   -0.13409E-05   -0.89564E-08  1172   0.608E-04    0.532E-05
RMM:  18    -0.413124262625E+03   -0.11715E-05   -0.63267E-08  1113   0.578E-04    0.305E-05
RMM:  19    -0.413124262957E+03   -0.33170E-06   -0.33367E-08   882   0.532E-04
  146 T=    52. E= -.41286687E+03 F= -.41312426E+03 E0= -.41310372E+03  EK= 0.25739E+00 SP= 0.00E+00 SK= 0.00E+00
       N       E                     dE             d eps       ncg     rms          rms(c)
RMM:   1    -0.413089560275E+03    0.34702E-01   -0.78871E+00  4264   0.112E+00    0.802E-01
RMM:   2    -0.413094543825E+03   -0.49836E-02   -0.96720E-02  4407   0.127E-01    0.630E-01
RMM:   3    -0.413091000625E+03    0.35432E-02   -0.31079E-02  5008   0.956E-02    0.297E-01
RMM:   4    -0.413113049747E+03   -0.22049E-01   -0.29245E-02  5127   0.149E-01    0.653E-01
RMM:   5    -0.413088869394E+03    0.24180E-01   -0.11127E-02  4767   0.111E-01    0.597E-02
RMM:   6    -0.413088915737E+03   -0.46343E-04   -0.19517E-03  5778   0.422E-02    0.317E-02
RMM:   7    -0.413088957064E+03   -0.41327E-04   -0.26707E-04  5933   0.150E-02    0.209E-02
RMM:   8    -0.413088996350E+03   -0.39286E-04   -0.51389E-05  4958   0.717E-03    0.106E-02
RMM:   9    -0.413089039445E+03   -0.43095E-04   -0.16061E-05  3553   0.438E-03    0.408E-03
RMM:  10    -0.413089069496E+03   -0.30051E-04   -0.38212E-06  2666   0.254E-03    0.221E-03
RMM:  11    -0.413089103098E+03   -0.33602E-04   -0.24567E-06  2633   0.215E-03    0.159E-03
RMM:  12    -0.413089124523E+03   -0.21425E-04   -0.13825E-06  2538   0.151E-03    0.966E-04
RMM:  13    -0.413089134637E+03   -0.10114E-04   -0.62600E-07  1919   0.103E-03    0.542E-04
RMM:  14    -0.413089148989E+03   -0.14352E-04   -0.76897E-07  2473   0.118E-03    0.540E-04
RMM:  15    -0.413089157152E+03   -0.81628E-05   -0.39075E-07  1460   0.838E-04    0.242E-04
RMM:  16    -0.413089164090E+03   -0.69382E-05   -0.31198E-07  1864   0.860E-04    0.198E-04
RMM:  17    -0.413089165001E+03   -0.91026E-06   -0.10706E-07  1212   0.594E-04
  147 T=    51. E= -.41284068E+03 F= -.41308917E+03 E0= -.41306867E+03  EK= 0.24849E+00 SP= 0.00E+00 SK= 0.00E+00
       N       E                     dE             d eps       ncg     rms          rms(c)
RMM:   1    -0.413116766474E+03   -0.27602E-01   -0.84789E+00  4269   0.121E+00    0.104E+00
RMM:   2    -0.413107156963E+03    0.96095E-02   -0.88825E-02  4429   0.123E-01    0.603E-01
RMM:   3    -0.413104699657E+03    0.24573E-02   -0.19426E-02  4812   0.672E-02    0.110E-01
RMM:   4    -0.413111514380E+03   -0.68147E-02   -0.72295E-03  5209   0.751E-02    0.345E-01
RMM:   5    -0.413104828822E+03    0.66856E-02   -0.35007E-03  4886   0.595E-02    0.536E-02
RMM:   6    -0.413104810742E+03    0.18080E-04   -0.79709E-04  5630   0.300E-02    0.305E-02
RMM:   7    -0.413104815420E+03   -0.46777E-05   -0.22322E-04  5642   0.152E-02    0.175E-02
RMM:   8    -0.413104800577E+03    0.14843E-04   -0.56216E-05  4958   0.859E-03    0.672E-03
RMM:   9    -0.413104794636E+03    0.59407E-05   -0.10222E-05  3705   0.378E-03    0.402E-03
RMM:  10    -0.413104788654E+03    0.59820E-05   -0.19725E-06  2536   0.227E-03    0.255E-03
RMM:  11    -0.413104775143E+03    0.13511E-04   -0.21786E-06  2581   0.201E-03    0.134E-03
RMM:  12    -0.413104766264E+03    0.88792E-05   -0.94355E-07  2415   0.132E-03    0.771E-04
RMM:  13    -0.413104760473E+03    0.57906E-05   -0.46152E-07  1967   0.953E-04    0.484E-04
RMM:  14    -0.413104749699E+03    0.10774E-04   -0.68425E-07  2382   0.110E-03    0.422E-04
RMM:  15    -0.413104746144E+03    0.35547E-05   -0.19451E-07  1329   0.687E-04    0.258E-04
RMM:  16    -0.413104741120E+03    0.50242E-05   -0.19127E-07  1481   0.734E-04    0.123E-04
RMM:  17    -0.413104739658E+03    0.14620E-05   -0.78524E-08  1230   0.614E-04    0.117E-04
RMM:  18    -0.413104739141E+03    0.51672E-06   -0.47350E-08  1039   0.559E-04
  148 T=    51. E= -.41285353E+03 F= -.41310474E+03 E0= -.41308428E+03  EK= 0.25121E+00 SP= 0.00E+00 SK= 0.00E+00
       N       E                     dE             d eps       ncg     rms          rms(c)
RMM:   1    -0.413102551650E+03    0.21880E-02   -0.56706E+00  4264   0.104E+00    0.595E-01
RMM:   2    -0.413106704743E+03   -0.41531E-02   -0.59548E-02  4509   0.105E-01    0.433E-01
RMM:   3    -0.413105841374E+03    0.86337E-03   -0.56075E-03  5143   0.533E-02    0.102E-01
RMM:   4    -0.413121917140E+03   -0.16076E-01   -0.17893E-02  5162   0.114E-01    0.532E-01
RMM:   5    -0.413105394997E+03    0.16522E-01   -0.79615E-03  4837   0.900E-02    0.431E-02
RMM:   6    -0.413105393624E+03    0.13731E-05   -0.13852E-03  5752   0.359E-02    0.196E-02
RMM:   7    -0.413105408995E+03   -0.15372E-04   -0.22076E-04  5957   0.138E-02    0.140E-02
RMM:   8    -0.413105418503E+03   -0.95073E-05   -0.45275E-05  4985   0.691E-03    0.554E-03
RMM:   9    -0.413105425213E+03   -0.67105E-05   -0.90809E-06  3361   0.353E-03    0.319E-03
RMM:  10    -0.413105430177E+03   -0.49633E-05   -0.13613E-06  2541   0.190E-03    0.194E-03
RMM:  11    -0.413105438196E+03   -0.80193E-05   -0.11257E-06  2531   0.158E-03    0.124E-03
RMM:  12    -0.413105444383E+03   -0.61871E-05   -0.72351E-07  2218   0.119E-03    0.647E-04
RMM:  13    -0.413105446566E+03   -0.21829E-05   -0.28286E-07  1621   0.844E-04    0.326E-04
RMM:  14    -0.413105449045E+03   -0.24796E-05   -0.23953E-07  1648   0.809E-04    0.167E-04
RMM:  15    -0.413105452097E+03   -0.30516E-05   -0.24596E-07  1509   0.765E-04    0.146E-04
RMM:  16    -0.413105453153E+03   -0.10561E-05   -0.11103E-07  1213   0.640E-04    0.945E-05
RMM:  17    -0.413105454520E+03   -0.13669E-05   -0.10464E-07  1253   0.635E-04    0.411E-05
RMM:  18    -0.413105455226E+03   -0.70579E-06   -0.59679E-08  1064   0.574E-04
  149 T=    51. E= -.41285483E+03 F= -.41310546E+03 E0= -.41308504E+03  EK= 0.25063E+00 SP= 0.00E+00 SK= 0.00E+00
       N       E                     dE             d eps       ncg     rms          rms(c)
RMM:   1    -0.413081957751E+03    0.23497E-01   -0.79991E+00  4264   0.110E+00    0.857E-01
RMM:   2    -0.413085335335E+03   -0.33776E-02   -0.10212E-01  4489   0.119E-01    0.670E-01
RMM:   3    -0.413080832393E+03    0.45029E-02   -0.49512E-02  4930   0.982E-02    0.386E-01
RMM:   4    -0.413097139741E+03   -0.16307E-01   -0.24131E-02  5129   0.136E-01    0.592E-01
RMM:   5    -0.413077606198E+03    0.19534E-01   -0.92342E-03  4773   0.101E-01    0.590E-02
RMM:   6    -0.413077676076E+03   -0.69879E-04   -0.16245E-03  5771   0.389E-02    0.344E-02
RMM:   7    -0.413077735203E+03   -0.59126E-04   -0.25000E-04  5833   0.150E-02    0.201E-02
RMM:   8    -0.413077786047E+03   -0.50844E-04   -0.55148E-05  5014   0.777E-03    0.898E-03
RMM:   9    -0.413077831298E+03   -0.45252E-04   -0.14311E-05  3451   0.420E-03    0.417E-03
RMM:  10    -0.413077862189E+03   -0.30891E-04   -0.30278E-06  2646   0.239E-03    0.244E-03
RMM:  11    -0.413077906112E+03   -0.43922E-04   -0.29026E-06  2640   0.233E-03    0.166E-03
RMM:  12    -0.413077929805E+03   -0.23694E-04   -0.13838E-06  2536   0.152E-03    0.876E-04
RMM:  13    -0.413077942046E+03   -0.12241E-04   -0.65999E-07  2053   0.106E-03    0.542E-04
RMM:  14    -0.413077956742E+03   -0.14696E-04   -0.67766E-07  2274   0.109E-03    0.413E-04
RMM:  15    -0.413077969527E+03   -0.12785E-04   -0.61627E-07  1848   0.977E-04    0.210E-04
RMM:  16    -0.413077973483E+03   -0.39557E-05   -0.22691E-07  1514   0.728E-04    0.148E-04
RMM:  17    -0.413077974741E+03   -0.12577E-05   -0.11772E-07  1267   0.630E-04    0.100E-04
RMM:  18    -0.413077975411E+03   -0.67069E-06   -0.93263E-08  1239   0.605E-04
  150 T=    49. E= -.41283578E+03 F= -.41307798E+03 E0= -.41305759E+03  EK= 0.24220E+00 SP= 0.00E+00 SK= 0.00E+00
