       N       E                     dE             d eps       ncg     rms          rms(c)
RMM:   1     0.220087054070E+04    0.22009E+04   -0.52445E+04  2132   0.654E+02
RMM:   2     0.705553721566E+03   -0.14953E+04   -0.16260E+04  2132   0.177E+02
RMM:   3     0.137803950247E+03   -0.56775E+03   -0.65662E+03  2132   0.117E+02
RMM:   4    -0.159245345182E+03   -0.29705E+03   -0.27867E+03  2132   0.936E+01
RMM:   5    -0.287440025288E+03   -0.12819E+03   -0.11440E+03  2132   0.595E+01
RMM:   6    -0.349784661115E+03   -0.62345E+02   -0.55170E+02  2132   0.423E+01
RMM:   7    -0.382709178399E+03   -0.32925E+02   -0.30475E+02  2132   0.293E+01
RMM:   8    -0.404263478167E+03   -0.21554E+02   -0.18430E+02  2132   0.233E+01
RMM:   9    -0.436012396619E+03   -0.31749E+02   -0.30638E+02  6096   0.173E+01
RMM:  10    -0.441303655178E+03   -0.52913E+01   -0.63032E+01  6391   0.539E+00
RMM:  11    -0.442519115184E+03   -0.12155E+01   -0.11171E+01  6208   0.173E+00
RMM:  12    -0.442889841203E+03   -0.37073E+00   -0.27609E+00  6359   0.603E-01    0.134E+02
RMM:  13    -0.425603694034E+03    0.17286E+02   -0.81119E+01  4671   0.119E+01    0.712E+01
RMM:  14    -0.499234916326E+03   -0.73631E+02   -0.53920E+02  5415   0.232E+01    0.307E+01
RMM:  15    -0.416619254624E+03    0.82616E+02   -0.20122E+02  5115   0.164E+01    0.750E+00
RMM:  16    -0.414024491836E+03    0.25948E+01   -0.39750E+01  6091   0.612E+00    0.430E+00
RMM:  17    -0.413208386142E+03    0.81611E+00   -0.26212E+00  5404   0.191E+00    0.243E+00
RMM:  18    -0.413175470059E+03    0.32916E-01   -0.75487E-01  5991   0.889E-01    0.169E+00
RMM:  19    -0.413171424515E+03    0.40455E-02   -0.25812E-01  5679   0.551E-01    0.907E-01
RMM:  20    -0.413192711619E+03   -0.21287E-01   -0.31901E-01  5579   0.583E-01    0.675E-01
RMM:  21    -0.413168561401E+03    0.24150E-01   -0.36866E-02  4994   0.250E-01    0.319E-01
RMM:  22    -0.413164557686E+03    0.40037E-02   -0.27128E-02  5826   0.160E-01    0.139E-01
RMM:  23    -0.413163904127E+03    0.65356E-03   -0.59789E-03  6037   0.684E-02    0.865E-02
RMM:  24    -0.413162898231E+03    0.10059E-02   -0.17841E-03  5325   0.428E-02    0.540E-02
RMM:  25    -0.413162371935E+03    0.52630E-03   -0.87383E-04  4934   0.293E-02    0.439E-02
RMM:  26    -0.413162495334E+03   -0.12340E-03   -0.11463E-03  5749   0.350E-02    0.340E-02
RMM:  27    -0.413162918680E+03   -0.42335E-03   -0.20268E-04  4602   0.197E-02    0.197E-02
RMM:  28    -0.413163374088E+03   -0.45541E-03   -0.15001E-04  5020   0.173E-02    0.102E-02
RMM:  29    -0.413163764065E+03   -0.38998E-03   -0.11027E-04  4684   0.151E-02    0.439E-03
RMM:  30    -0.413164018121E+03   -0.25406E-03   -0.80731E-05  4457   0.109E-02    0.441E-03
RMM:  31    -0.413164175780E+03   -0.15766E-03   -0.61263E-05  3365   0.785E-03    0.368E-03
RMM:  32    -0.413164208244E+03   -0.32464E-04   -0.23782E-05  2989   0.332E-03    0.219E-03
RMM:  33    -0.413164223856E+03   -0.15612E-04   -0.97052E-06  2837   0.237E-03    0.754E-04
RMM:  34    -0.413164227144E+03   -0.32889E-05   -0.52066E-06  2633   0.159E-03    0.500E-04
RMM:  35    -0.413164228683E+03   -0.15386E-05   -0.23585E-06  2477   0.140E-03    0.808E-04
RMM:  36    -0.413164228320E+03    0.36301E-06   -0.14025E-06  1958   0.986E-04
    1 T=    61. E= -.41286642E+03 F= -.41316423E+03 E0= -.41314173E+03  EK= 0.29780E+00 SP= 0.00E+00 SK= 0.00E+00
       N       E                     dE             d eps       ncg     rms          rms(c)
RMM:   1    -0.413154168146E+03    0.10061E-01   -0.11191E+01  3971   0.701E-01    0.886E-01
RMM:   2    -0.413165180950E+03   -0.11013E-01   -0.13829E-01  3868   0.101E-01    0.640E-01
RMM:   3    -0.413163705625E+03    0.14753E-02   -0.61958E-03  4583   0.344E-02    0.154E-01
RMM:   4    -0.413175448775E+03   -0.11743E-01   -0.12254E-02  5221   0.927E-02    0.455E-01
RMM:   5    -0.413163555216E+03    0.11894E-01   -0.58793E-03  4864   0.755E-02    0.232E-02
RMM:   6    -0.413163622182E+03   -0.66965E-04   -0.93874E-04  5836   0.294E-02    0.136E-02
RMM:   7    -0.413163634052E+03   -0.11871E-04   -0.11723E-04  5525   0.942E-03    0.994E-03
RMM:   8    -0.413163641008E+03   -0.69556E-05   -0.14112E-05  3529   0.375E-03    0.565E-03
RMM:   9    -0.413163648376E+03   -0.73683E-05   -0.29624E-06  2660   0.224E-03    0.353E-03
RMM:  10    -0.413163656259E+03   -0.78831E-05   -0.14792E-06  2531   0.172E-03    0.185E-03
RMM:  11    -0.413163663205E+03   -0.69457E-05   -0.10681E-06  2503   0.142E-03    0.778E-04
RMM:  12    -0.413163666311E+03   -0.31063E-05   -0.54908E-07  2185   0.103E-03    0.327E-04
RMM:  13    -0.413163668198E+03   -0.18872E-05   -0.33213E-07  1543   0.793E-04    0.190E-04
RMM:  14    -0.413163670579E+03   -0.23800E-05   -0.27834E-07  1380   0.741E-04    0.134E-04
RMM:  15    -0.413163671961E+03   -0.13823E-05   -0.20721E-07  1230   0.679E-04    0.643E-05
RMM:  16    -0.413163672744E+03   -0.78363E-06   -0.15877E-07  1173   0.642E-04
    2 T=    61. E= -.41286594E+03 F= -.41316367E+03 E0= -.41314117E+03  EK= 0.29773E+00 SP= 0.00E+00 SK= 0.00E+00
       N       E                     dE             d eps       ncg     rms          rms(c)
RMM:   1    -0.413155333448E+03    0.83385E-02   -0.11229E+01  4195   0.705E-01    0.911E-01
RMM:   2    -0.413165378263E+03   -0.10045E-01   -0.13552E-01  3931   0.967E-02    0.633E-01
RMM:   3    -0.413164683919E+03    0.69434E-03   -0.67473E-03  4847   0.392E-02    0.171E-01
RMM:   4    -0.413194665869E+03   -0.29982E-01   -0.30356E-02  5184   0.145E-01    0.721E-01
RMM:   5    -0.413164253853E+03    0.30412E-01   -0.14746E-02  4828   0.121E-01    0.370E-02
RMM:   6    -0.413164442202E+03   -0.18835E-03   -0.23819E-03  5796   0.474E-02    0.183E-02
RMM:   7    -0.413164455751E+03   -0.13549E-04   -0.28430E-04  5893   0.139E-02    0.137E-02
RMM:   8    -0.413164456504E+03   -0.75295E-06   -0.36049E-05  4369   0.519E-03    0.874E-03
RMM:   9    -0.413164455754E+03    0.75022E-06   -0.54990E-06  2918   0.265E-03
    3 T=    61. E= -.41286638E+03 F= -.41316446E+03 E0= -.41314196E+03  EK= 0.29807E+00 SP= 0.00E+00 SK= 0.00E+00
       N       E                     dE             d eps       ncg     rms          rms(c)
RMM:   1    -0.413154821738E+03    0.96348E-02   -0.11146E+01  4225   0.706E-01    0.895E-01
RMM:   2    -0.413165571723E+03   -0.10750E-01   -0.13433E-01  4176   0.100E-01    0.627E-01
RMM:   3    -0.413167465452E+03   -0.18937E-02   -0.88870E-03  5167   0.648E-02    0.289E-01
RMM:   4    -0.413194950568E+03   -0.27485E-01   -0.41136E-02  5142   0.171E-01    0.730E-01
RMM:   5    -0.413164037800E+03    0.30913E-01   -0.13092E-02  4738   0.122E-01    0.533E-02
RMM:   6    -0.413164101534E+03   -0.63734E-04   -0.22143E-03  5589   0.470E-02    0.158E-02
RMM:   7    -0.413164125515E+03   -0.23981E-04   -0.31169E-04  6043   0.150E-02    0.118E-02
RMM:   8    -0.413164128566E+03   -0.30510E-05   -0.39001E-05  4635   0.547E-03    0.751E-03
RMM:   9    -0.413164130415E+03   -0.18496E-05   -0.66819E-06  3064   0.357E-03    0.360E-03
RMM:  10    -0.413164132402E+03   -0.19864E-05   -0.20287E-06  2561   0.222E-03    0.218E-03
RMM:  11    -0.413164134455E+03   -0.20532E-05   -0.98942E-07  2536   0.155E-03    0.987E-04
RMM:  12    -0.413164135501E+03   -0.10459E-05   -0.46021E-07  2084   0.104E-03    0.439E-04
RMM:  13    -0.413164136699E+03   -0.11979E-05   -0.37818E-07  1812   0.897E-04    0.224E-04
RMM:  14    -0.413164137219E+03   -0.52068E-06   -0.20527E-07  1350   0.722E-04
    4 T=    61. E= -.41286604E+03 F= -.41316414E+03 E0= -.41314165E+03  EK= 0.29809E+00 SP= 0.00E+00 SK= 0.00E+00
       N       E                     dE             d eps       ncg     rms          rms(c)
RMM:   1    -0.413154568864E+03    0.95678E-02   -0.11184E+01  4236   0.712E-01    0.884E-01
RMM:   2    -0.413165663415E+03   -0.11095E-01   -0.13850E-01  4002   0.968E-02    0.639E-01
RMM:   3    -0.413164593217E+03    0.10702E-02   -0.63057E-03  4933   0.367E-02    0.167E-01
RMM:   4    -0.413196399029E+03   -0.31806E-01   -0.32524E-02  5163   0.151E-01    0.743E-01
RMM:   5    -0.413164011924E+03    0.32387E-01   -0.15601E-02  4813   0.124E-01    0.367E-02
RMM:   6    -0.413164210073E+03   -0.19815E-03   -0.25218E-03  5790   0.486E-02    0.164E-02
RMM:   7    -0.413164229511E+03   -0.19438E-04   -0.29262E-04  5887   0.140E-02    0.130E-02
RMM:   8    -0.413164234326E+03   -0.48151E-05   -0.36209E-05  4348   0.519E-03    0.838E-03
RMM:   9    -0.413164238535E+03   -0.42089E-05   -0.53638E-06  2895   0.268E-03    0.574E-03
RMM:  10    -0.413164245549E+03   -0.70135E-05   -0.22940E-06  2578   0.221E-03    0.273E-03
RMM:  11    -0.413164251299E+03   -0.57499E-05   -0.14688E-06  2541   0.179E-03    0.137E-03
RMM:  12    -0.413164254702E+03   -0.34032E-05   -0.74296E-07  2437   0.133E-03    0.480E-04
RMM:  13    -0.413164256219E+03   -0.15167E-05   -0.33430E-07  2005   0.933E-04    0.302E-04
RMM:  14    -0.413164257971E+03   -0.17524E-05   -0.23702E-07  1575   0.791E-04    0.184E-04
RMM:  15    -0.413164259622E+03   -0.16509E-05   -0.19809E-07  1407   0.730E-04    0.124E-04
RMM:  16    -0.413164259993E+03   -0.37112E-06   -0.94688E-08  1086   0.632E-04
    5 T=    61. E= -.41286605E+03 F= -.41316426E+03 E0= -.41314178E+03  EK= 0.29821E+00 SP= 0.00E+00 SK= 0.00E+00
       N       E                     dE             d eps       ncg     rms          rms(c)
RMM:   1    -0.413155616228E+03    0.86434E-02   -0.11238E+01  4248   0.717E-01    0.907E-01
RMM:   2    -0.413166043015E+03   -0.10427E-01   -0.13543E-01  4001   0.971E-02    0.635E-01
RMM:   3    -0.413165101996E+03    0.94102E-03   -0.65144E-03  4836   0.371E-02    0.169E-01
RMM:   4    -0.413193483446E+03   -0.28381E-01   -0.28680E-02  5165   0.141E-01    0.702E-01
RMM:   5    -0.413164693761E+03    0.28790E-01   -0.14046E-02  4822   0.117E-01    0.355E-02
RMM:   6    -0.413164871751E+03   -0.17799E-03   -0.22410E-03  5787   0.457E-02    0.177E-02
RMM:   7    -0.413164883370E+03   -0.11618E-04   -0.26332E-04  5855   0.133E-02    0.132E-02
RMM:   8    -0.413164884218E+03   -0.84866E-06   -0.33159E-05  4289   0.505E-03    0.846E-03
RMM:   9    -0.413164883799E+03    0.41918E-06   -0.52308E-06  2886   0.265E-03
    6 T=    61. E= -.41286639E+03 F= -.41316488E+03 E0= -.41314242E+03  EK= 0.29849E+00 SP= 0.00E+00 SK= 0.00E+00
       N       E                     dE             d eps       ncg     rms          rms(c)
RMM:   1    -0.413155276680E+03    0.96075E-02   -0.11178E+01  4270   0.724E-01    0.902E-01
RMM:   2    -0.413165250402E+03   -0.99737E-02   -0.13492E-01  4233   0.100E-01    0.627E-01
RMM:   3    -0.413167432179E+03   -0.21818E-02   -0.89023E-03  5143   0.623E-02    0.282E-01
RMM:   4    -0.413196020829E+03   -0.28589E-01   -0.41459E-02  5129   0.171E-01    0.740E-01
RMM:   5    -0.413164300792E+03    0.31720E-01   -0.13625E-02  4751   0.123E-01    0.529E-02
RMM:   6    -0.413164374943E+03   -0.74152E-04   -0.22545E-03  5607   0.474E-02    0.159E-02
RMM:   7    -0.413164397528E+03   -0.22585E-04   -0.31158E-04  6034   0.150E-02    0.119E-02
RMM:   8    -0.413164399169E+03   -0.16405E-05   -0.39094E-05  4623   0.546E-03    0.756E-03
RMM:   9    -0.413164398012E+03    0.11562E-05   -0.63113E-06  2964   0.346E-03    0.354E-03
RMM:  10    -0.413164397993E+03    0.19449E-07   -0.20463E-06  2550   0.220E-03
    7 T=    61. E= -.41286593E+03 F= -.41316440E+03 E0= -.41314195E+03  EK= 0.29847E+00 SP= 0.00E+00 SK= 0.00E+00
       N       E                     dE             d eps       ncg     rms          rms(c)
RMM:   1    -0.413155410687E+03    0.89873E-02   -0.11174E+01  4277   0.726E-01    0.883E-01
RMM:   2    -0.413166500789E+03   -0.11090E-01   -0.13764E-01  4092   0.958E-02    0.636E-01
RMM:   3    -0.413165776267E+03    0.72452E-03   -0.64901E-03  5014   0.409E-02    0.182E-01
RMM:   4    -0.413207257346E+03   -0.41481E-01   -0.43454E-02  5143   0.173E-01    0.845E-01
RMM:   5    -0.413164973984E+03    0.42283E-01   -0.20254E-02  4802   0.142E-01    0.439E-02
RMM:   6    -0.413165202041E+03   -0.22806E-03   -0.32550E-03  5763   0.554E-02    0.165E-02
RMM:   7    -0.413165231443E+03   -0.29402E-04   -0.39586E-04  5951   0.158E-02    0.137E-02
RMM:   8    -0.413165235790E+03   -0.43470E-05   -0.44879E-05  4426   0.558E-03    0.872E-03
RMM:   9    -0.413165238955E+03   -0.31651E-05   -0.67439E-06  2960   0.277E-03    0.590E-03
RMM:  10    -0.413165244486E+03   -0.55301E-05   -0.26936E-06  2594   0.233E-03    0.275E-03
RMM:  11    -0.413165248677E+03   -0.41916E-05   -0.15001E-06  2536   0.180E-03    0.131E-03
RMM:  12    -0.413165251157E+03   -0.24799E-05   -0.80757E-07  2456   0.137E-03    0.432E-04
RMM:  13    -0.413165252572E+03   -0.14155E-05   -0.39479E-07  2048   0.974E-04    0.292E-04
RMM:  14    -0.413165253864E+03   -0.12912E-05   -0.30011E-07  1652   0.822E-04    0.203E-04
RMM:  15    -0.413165254577E+03   -0.71312E-06   -0.19661E-07  1359   0.724E-04
    8 T=    61. E= -.41286644E+03 F= -.41316525E+03 E0= -.41314283E+03  EK= 0.29881E+00 SP= 0.00E+00 SK= 0.00E+00
       N       E                     dE             d eps       ncg     rms          rms(c)
RMM:   1    -0.413155898790E+03    0.93551E-02   -0.11243E+01  4282   0.730E-01    0.901E-01
RMM:   2    -0.413166413392E+03   -0.10515E-01   -0.13687E-01  4173   0.101E-01    0.638E-01
RMM:   3    -0.413165530161E+03    0.88323E-03   -0.64983E-03  4835   0.393E-02    0.169E-01
RMM:   4    -0.413195689258E+03   -0.30159E-01   -0.30626E-02  5155   0.145E-01    0.724E-01
RMM:   5    -0.413164993656E+03    0.30696E-01   -0.15012E-02  4814   0.121E-01    0.357E-02
RMM:   6    -0.413165179798E+03   -0.18614E-03   -0.23733E-03  5792   0.471E-02    0.173E-02
RMM:   7    -0.413165192692E+03   -0.12894E-04   -0.27828E-04  5853   0.137E-02    0.132E-02
RMM:   8    -0.413165193997E+03   -0.13047E-05   -0.34825E-05  4335   0.514E-03    0.858E-03
RMM:   9    -0.413165193784E+03    0.21324E-06   -0.53518E-06  2889   0.266E-03
    9 T=    61. E= -.41286613E+03 F= -.41316519E+03 E0= -.41314279E+03  EK= 0.29907E+00 SP= 0.00E+00 SK= 0.00E+00
       N       E                     dE             d eps       ncg     rms          rms(c)
RMM:   1    -0.413156359708E+03    0.88343E-02   -0.11231E+01  4296   0.734E-01    0.910E-01
RMM:   2    -0.413166125156E+03   -0.97654E-02   -0.13491E-01  4279   0.974E-02    0.629E-01
RMM:   3    -0.413168775282E+03   -0.26501E-02   -0.93692E-03  5144   0.655E-02    0.296E-01
RMM:   4    -0.413194445234E+03   -0.25670E-01   -0.39685E-02  5112   0.168E-01    0.712E-01
RMM:   5    -0.413165335476E+03    0.29110E-01   -0.12309E-02  4734   0.118E-01    0.524E-02
RMM:   6    -0.413165389232E+03   -0.53757E-04   -0.20561E-03  5594   0.451E-02    0.166E-02
RMM:   7    -0.413165408003E+03   -0.18771E-04   -0.28696E-04  6037   0.147E-02    0.120E-02
RMM:   8    -0.413165408470E+03   -0.46722E-06   -0.35779E-05  4596   0.537E-03    0.752E-03
RMM:   9    -0.413165405075E+03    0.33957E-05   -0.66606E-06  3026   0.360E-03    0.359E-03
RMM:  10    -0.413165403718E+03    0.13568E-05   -0.19506E-06  2545   0.219E-03    0.212E-03
RMM:  11    -0.413165402170E+03    0.15475E-05   -0.97008E-07  2526   0.155E-03    0.959E-04
RMM:  12    -0.413165401217E+03    0.95353E-06   -0.44944E-07  2091   0.103E-03
   10 T=    61. E= -.41286600E+03 F= -.41316540E+03 E0= -.41314302E+03  EK= 0.29940E+00 SP= 0.00E+00 SK= 0.00E+00
       N       E                     dE             d eps       ncg     rms          rms(c)
RMM:   1    -0.413157137666E+03    0.82645E-02   -0.11190E+01  4290   0.745E-01    0.885E-01
RMM:   2    -0.413167526920E+03   -0.10389E-01   -0.13629E-01  4193   0.961E-02    0.633E-01
RMM:   3    -0.413166445824E+03    0.10811E-02   -0.61740E-03  4859   0.392E-02    0.167E-01
RMM:   4    -0.413195786641E+03   -0.29341E-01   -0.29783E-02  5151   0.144E-01    0.715E-01
RMM:   5    -0.413165901104E+03    0.29886E-01   -0.14690E-02  4815   0.119E-01    0.344E-02
RMM:   6    -0.413166080518E+03   -0.17941E-03   -0.22659E-03  5791   0.463E-02    0.170E-02
RMM:   7    -0.413166094691E+03   -0.14173E-04   -0.26705E-04  5837   0.135E-02    0.129E-02
RMM:   8    -0.413166097087E+03   -0.23959E-05   -0.34118E-05  4366   0.514E-03    0.858E-03
RMM:   9    -0.413166097697E+03   -0.61011E-06   -0.53689E-06  2892   0.270E-03
   11 T=    61. E= -.41286622E+03 F= -.41316610E+03 E0= -.41314374E+03  EK= 0.29988E+00 SP= 0.00E+00 SK= 0.00E+00
       N       E                     dE             d eps       ncg     rms          rms(c)
RMM:   1    -0.413156489129E+03    0.96080E-02   -0.11265E+01  4298   0.745E-01    0.896E-01
RMM:   2    -0.413167145137E+03   -0.10656E-01   -0.13857E-01  4289   0.995E-02    0.641E-01
RMM:   3    -0.413169462365E+03   -0.23172E-02   -0.90992E-03  5134   0.666E-02    0.297E-01
RMM:   4    -0.413199181769E+03   -0.29719E-01   -0.44580E-02  5106   0.177E-01    0.757E-01
RMM:   5    -0.413165796799E+03    0.33385E-01   -0.14163E-02  4730   0.125E-01    0.529E-02
RMM:   6    -0.413165878007E+03   -0.81208E-04   -0.23659E-03  5615   0.481E-02    0.144E-02
RMM:   7    -0.413165903620E+03   -0.25613E-04   -0.31622E-04  6034   0.152E-02    0.115E-02
RMM:   8    -0.413165906883E+03   -0.32631E-05   -0.38983E-05  4636   0.547E-03    0.730E-03
RMM:   9    -0.413165909357E+03   -0.24735E-05   -0.65091E-06  2977   0.349E-03    0.369E-03
RMM:  10    -0.413165911290E+03   -0.19333E-05   -0.22058E-06  2556   0.225E-03    0.217E-03
RMM:  11    -0.413165912941E+03   -0.16506E-05   -0.11567E-06  2547   0.160E-03    0.961E-04
RMM:  12    -0.413165913671E+03   -0.73052E-06   -0.48547E-07  2119   0.105E-03
   12 T=    61. E= -.41286577E+03 F= -.41316591E+03 E0= -.41314358E+03  EK= 0.30014E+00 SP= 0.00E+00 SK= 0.00E+00
       N       E                     dE             d eps       ncg     rms          rms(c)
RMM:   1    -0.413157553857E+03    0.83591E-02   -0.11292E+01  4297   0.749E-01    0.915E-01
RMM:   2    -0.413167527350E+03   -0.99735E-02   -0.13528E-01  4222   0.946E-02    0.631E-01
RMM:   3    -0.413166944406E+03    0.58294E-03   -0.67370E-03  4913   0.366E-02    0.173E-01
RMM:   4    -0.413196083090E+03   -0.29139E-01   -0.29458E-02  5148   0.143E-01    0.711E-01
RMM:   5    -0.413166519515E+03    0.29564E-01   -0.14458E-02  4808   0.118E-01    0.363E-02
RMM:   6    -0.413166701420E+03   -0.18191E-03   -0.23346E-03  5810   0.461E-02    0.188E-02
RMM:   7    -0.413166710588E+03   -0.91675E-05   -0.27169E-04  5846   0.136E-02    0.137E-02
RMM:   8    -0.413166708598E+03    0.19899E-05   -0.34688E-05  4399   0.520E-03    0.910E-03
RMM:   9    -0.413166704016E+03    0.45814E-05   -0.55962E-06  2904   0.271E-03    0.625E-03
RMM:  10    -0.413166699557E+03    0.44591E-05   -0.20609E-06  2554   0.213E-03    0.306E-03
RMM:  11    -0.413166696235E+03    0.33221E-05   -0.15529E-06  2543   0.186E-03    0.152E-03
RMM:  12    -0.413166693669E+03    0.25658E-05   -0.72896E-07  2434   0.137E-03    0.508E-04
RMM:  13    -0.413166692748E+03    0.92161E-06   -0.31774E-07  2045   0.940E-04
   13 T=    61. E= -.41286602E+03 F= -.41316669E+03 E0= -.41314439E+03  EK= 0.30067E+00 SP= 0.00E+00 SK= 0.00E+00
       N       E                     dE             d eps       ncg     rms          rms(c)
RMM:   1    -0.413157623397E+03    0.90703E-02   -0.11206E+01  4293   0.753E-01    0.889E-01
RMM:   2    -0.413168285902E+03   -0.10663E-01   -0.13720E-01  4227   0.961E-02    0.632E-01
RMM:   3    -0.413167432961E+03    0.85294E-03   -0.62633E-03  4839   0.372E-02    0.169E-01
RMM:   4    -0.413195775691E+03   -0.28343E-01   -0.28798E-02  5148   0.141E-01    0.702E-01
RMM:   5    -0.413166953711E+03    0.28822E-01   -0.14162E-02  4813   0.117E-01    0.342E-02
RMM:   6    -0.413167127829E+03   -0.17412E-03   -0.22162E-03  5794   0.454E-02    0.170E-02
RMM:   7    -0.413167139225E+03   -0.11396E-04   -0.25786E-04  5833   0.133E-02    0.129E-02
RMM:   8    -0.413167139638E+03   -0.41367E-06   -0.32662E-05  4304   0.505E-03    0.845E-03
RMM:   9    -0.413167137973E+03    0.16657E-05   -0.51372E-06  2868   0.266E-03    0.584E-03
RMM:  10    -0.413167137188E+03    0.78490E-06   -0.20972E-06  2557   0.216E-03
   14 T=    61. E= -.41286607E+03 F= -.41316714E+03 E0= -.41314487E+03  EK= 0.30106E+00 SP= 0.00E+00 SK= 0.00E+00
       N       E                     dE             d eps       ncg     rms          rms(c)
RMM:   1    -0.413157543906E+03    0.95941E-02   -0.11293E+01  4304   0.758E-01    0.892E-01
RMM:   2    -0.413169064897E+03   -0.11521E-01   -0.13962E-01  4287   0.101E-01    0.643E-01
RMM:   3    -0.413170862156E+03   -0.17973E-02   -0.89087E-03  5114   0.657E-02    0.293E-01
RMM:   4    -0.413202445430E+03   -0.31583E-01   -0.46184E-02  5105   0.180E-01    0.775E-01
RMM:   5    -0.413167299304E+03    0.35146E-01   -0.15064E-02  4733   0.128E-01    0.508E-02
RMM:   6    -0.413167398014E+03   -0.98710E-04   -0.24409E-03  5636   0.490E-02    0.138E-02
RMM:   7    -0.413167423666E+03   -0.25652E-04   -0.31721E-04  6014   0.149E-02    0.112E-02
RMM:   8    -0.413167426975E+03   -0.33086E-05   -0.38304E-05  4535   0.536E-03    0.695E-03
RMM:   9    -0.413167428933E+03   -0.19580E-05   -0.57127E-06  2850   0.317E-03    0.343E-03
RMM:  10    -0.413167430765E+03   -0.18321E-05   -0.22847E-06  2563   0.217E-03    0.201E-03
RMM:  11    -0.413167431943E+03   -0.11780E-05   -0.10361E-06  2534   0.149E-03    0.833E-04
RMM:  12    -0.413167432599E+03   -0.65599E-06   -0.48259E-07  1949   0.103E-03
   15 T=    61. E= -.41286601E+03 F= -.41316743E+03 E0= -.41314520E+03  EK= 0.30142E+00 SP= 0.00E+00 SK= 0.00E+00
       N       E                     dE             d eps       ncg     rms          rms(c)
RMM:   1    -0.413159283310E+03    0.81486E-02   -0.11341E+01  4303   0.766E-01    0.916E-01
RMM:   2    -0.413169269068E+03   -0.99858E-02   -0.13673E-01  4246   0.101E-01    0.635E-01
RMM:   3    -0.413168597915E+03    0.67115E-03   -0.67372E-03  4913   0.382E-02    0.176E-01
RMM:   4    -0.413201013647E+03   -0.32416E-01   -0.33059E-02  5151   0.151E-01    0.749E-01
RMM:   5    -0.413168079946E+03    0.32934E-01   -0.16102E-02  4809   0.125E-01    0.378E-02
RMM:   6    -0.413168272195E+03   -0.19225E-03   -0.25806E-03  5798   0.487E-02    0.188E-02
RMM:   7    -0.413168281731E+03   -0.95359E-05   -0.29875E-04  5865   0.142E-02    0.140E-02
RMM:   8    -0.413168279419E+03    0.23120E-05   -0.38047E-05  4471   0.538E-03    0.940E-03
RMM:   9    -0.413168274371E+03    0.50483E-05   -0.58999E-06  2925   0.276E-03    0.650E-03
RMM:  10    -0.413168268865E+03    0.55057E-05   -0.22103E-06  2556   0.223E-03    0.313E-03
RMM:  11    -0.413168264854E+03    0.40116E-05   -0.15723E-06  2529   0.190E-03    0.157E-03
RMM:  12    -0.413168261800E+03    0.30537E-05   -0.76180E-07  2448   0.142E-03    0.511E-04
RMM:  13    -0.413168260662E+03    0.11385E-05   -0.33504E-07  2105   0.967E-04    0.320E-04
RMM:  14    -0.413168259113E+03    0.15487E-05   -0.20126E-07  1620   0.779E-04    0.186E-04
RMM:  15    -0.413168256623E+03    0.24898E-05   -0.18644E-07  1488   0.741E-04    0.137E-04
RMM:  16    -0.413168255976E+03    0.64695E-06   -0.77475E-08  1050   0.618E-04
   16 T=    61. E= -.41286624E+03 F= -.41316826E+03 E0= -.41314606E+03  EK= 0.30201E+00 SP= 0.00E+00 SK= 0.00E+00
       N       E                     dE             d eps       ncg     rms          rms(c)
RMM:   1    -0.413159019708E+03    0.92369E-02   -0.11249E+01  4293   0.761E-01    0.896E-01
RMM:   2    -0.413169869976E+03   -0.10850E-01   -0.13754E-01  4251   0.978E-02    0.631E-01
RMM:   3    -0.413169022850E+03    0.84713E-03   -0.63808E-03  4881   0.403E-02    0.177E-01
RMM:   4    -0.413203494100E+03   -0.34471E-01   -0.35274E-02  5148   0.156E-01    0.772E-01
RMM:   5    -0.413168499243E+03    0.34995E-01   -0.17164E-02  4801   0.129E-01    0.382E-02
RMM:   6    -0.413168703075E+03   -0.20383E-03   -0.27421E-03  5776   0.502E-02    0.183E-02
RMM:   7    -0.413168714440E+03   -0.11365E-04   -0.31462E-04  5877   0.146E-02    0.139E-02
RMM:   8    -0.413168713142E+03    0.12979E-05   -0.39328E-05  4434   0.538E-03    0.927E-03
RMM:   9    -0.413168709293E+03    0.38492E-05   -0.61524E-06  2945   0.274E-03    0.647E-03
RMM:  10    -0.413168705497E+03    0.37961E-05   -0.22489E-06  2555   0.224E-03    0.308E-03
RMM:  11    -0.413168703064E+03    0.24326E-05   -0.15772E-06  2529   0.189E-03    0.154E-03
RMM:  12    -0.413168701236E+03    0.18282E-05   -0.75106E-07  2438   0.141E-03    0.515E-04
RMM:  13    -0.413168700523E+03    0.71268E-06   -0.33421E-07  2107   0.970E-04
   17 T=    62. E= -.41286616E+03 F= -.41316870E+03 E0= -.41314654E+03  EK= 0.30254E+00 SP= 0.00E+00 SK= 0.00E+00
       N       E                     dE             d eps       ncg     rms          rms(c)
RMM:   1    -0.413159404041E+03    0.92972E-02   -0.11333E+01  4296   0.768E-01    0.890E-01
RMM:   2    -0.413170953000E+03   -0.11549E-01   -0.14006E-01  4260   0.101E-01    0.643E-01
RMM:   3    -0.413169612508E+03    0.13405E-02   -0.62030E-03  4861   0.384E-02    0.170E-01
RMM:   4    -0.413200479421E+03   -0.30867E-01   -0.31568E-02  5152   0.148E-01    0.732E-01
RMM:   5    -0.413169054984E+03    0.31424E-01   -0.15422E-02  4805   0.122E-01    0.353E-02
RMM:   6    -0.413169238881E+03   -0.18390E-03   -0.24536E-03  5800   0.474E-02    0.169E-02
RMM:   7    -0.413169251615E+03   -0.12734E-04   -0.27469E-04  5838   0.138E-02    0.130E-02
RMM:   8    -0.413169252561E+03   -0.94634E-06   -0.35548E-05  4381   0.520E-03    0.872E-03
RMM:   9    -0.413169251469E+03    0.10927E-05   -0.55984E-06  2915   0.273E-03    0.604E-03
RMM:  10    -0.413169251844E+03   -0.37499E-06   -0.22544E-06  2564   0.223E-03
   18 T=    62. E= -.41286601E+03 F= -.41316925E+03 E0= -.41314713E+03  EK= 0.30325E+00 SP= 0.00E+00 SK= 0.00E+00
       N       E                     dE             d eps       ncg     rms          rms(c)
RMM:   1    -0.413161104272E+03    0.81472E-02   -0.11395E+01  4308   0.774E-01    0.915E-01
RMM:   2    -0.413171376858E+03   -0.10273E-01   -0.13862E-01  4304   0.101E-01    0.639E-01
RMM:   3    -0.413174302393E+03   -0.29255E-02   -0.96510E-03  5132   0.679E-02    0.312E-01
RMM:   4    -0.413199362657E+03   -0.25060E-01   -0.41105E-02  5094   0.170E-01    0.710E-01
RMM:   5    -0.413170257830E+03    0.29105E-01   -0.12133E-02  4709   0.117E-01    0.496E-02
RMM:   6    -0.413170313291E+03   -0.55461E-04   -0.20407E-03  5594   0.446E-02    0.157E-02
RMM:   7    -0.413170327855E+03   -0.14564E-04   -0.26770E-04  6001   0.140E-02    0.114E-02
RMM:   8    -0.413170326060E+03    0.17949E-05   -0.33008E-05  4414   0.513E-03    0.700E-03
RMM:   9    -0.413170318601E+03    0.74587E-05   -0.54144E-06  2804   0.329E-03    0.333E-03
RMM:  10    -0.413170314590E+03    0.40110E-05   -0.18949E-06  2533   0.209E-03    0.190E-03
RMM:  11    -0.413170310904E+03    0.36868E-05   -0.86084E-07  2516   0.144E-03    0.829E-04
RMM:  12    -0.413170308704E+03    0.21998E-05   -0.42394E-07  1921   0.101E-03    0.408E-04
RMM:  13    -0.413170306026E+03    0.26780E-05   -0.32779E-07  1868   0.903E-04    0.235E-04
RMM:  14    -0.413170304557E+03    0.14690E-05   -0.17736E-07  1396   0.722E-04    0.135E-04
RMM:  15    -0.413170301754E+03    0.28022E-05   -0.19195E-07  1541   0.737E-04    0.897E-05
RMM:  16    -0.413170300036E+03    0.17179E-05   -0.11659E-07  1252   0.641E-04    0.711E-05
RMM:  17    -0.413170297845E+03    0.21911E-05   -0.10469E-07  1242   0.631E-04    0.413E-05
RMM:  18    -0.413170296244E+03    0.16018E-05   -0.66023E-08  1023   0.577E-04    0.231E-05
RMM:  19    -0.413170295818E+03    0.42541E-06   -0.31281E-08   795   0.531E-04
   19 T=    62. E= -.41286618E+03 F= -.41317030E+03 E0= -.41314822E+03  EK= 0.30412E+00 SP= 0.00E+00 SK= 0.00E+00
       N       E                     dE             d eps       ncg     rms          rms(c)
RMM:   1    -0.413161672201E+03    0.86240E-02   -0.11348E+01  4295   0.789E-01    0.905E-01
RMM:   2    -0.413172013003E+03   -0.10341E-01   -0.13749E-01  4258   0.100E-01    0.632E-01
RMM:   3    -0.413171425121E+03    0.58788E-03   -0.65630E-03  4964   0.407E-02    0.187E-01
RMM:   4    -0.413210914616E+03   -0.39489E-01   -0.41278E-02  5145   0.168E-01    0.825E-01
RMM:   5    -0.413170706901E+03    0.40208E-01   -0.19666E-02  4792   0.138E-01    0.421E-02
RMM:   6    -0.413170915847E+03   -0.20895E-03   -0.31225E-03  5758   0.543E-02    0.190E-02
RMM:   7    -0.413170930212E+03   -0.14365E-04   -0.36864E-04  5874   0.156E-02    0.146E-02
RMM:   8    -0.413170927665E+03    0.25471E-05   -0.45315E-05  4559   0.573E-03    0.970E-03
RMM:   9    -0.413170922042E+03    0.56231E-05   -0.68280E-06  2998   0.283E-03    0.672E-03
RMM:  10    -0.413170915875E+03    0.61673E-05   -0.24611E-06  2563   0.233E-03    0.314E-03
RMM:  11    -0.413170911830E+03    0.40446E-05   -0.15703E-06  2521   0.192E-03    0.155E-03
RMM:  12    -0.413170908903E+03    0.29273E-05   -0.77845E-07  2448   0.145E-03    0.500E-04
RMM:  13    -0.413170907828E+03    0.10754E-05   -0.34428E-07  2141   0.997E-04    0.331E-04
RMM:  14    -0.413170906519E+03    0.13086E-05   -0.19074E-07  1633   0.783E-04    0.194E-04
RMM:  15    -0.413170904202E+03    0.23171E-05   -0.15727E-07  1476   0.733E-04    0.126E-04
RMM:  16    -0.413170903658E+03    0.54437E-06   -0.71518E-08  1054   0.619E-04
   20 T=    62. E= -.41286605E+03 F= -.41317090E+03 E0= -.41314887E+03  EK= 0.30485E+00 SP= 0.00E+00 SK= 0.00E+00
       N       E                     dE             d eps       ncg     rms          rms(c)
RMM:   1    -0.413167899006E+03    0.30052E-02   -0.11445E+01  4296   0.822E-01    0.891E-01
RMM:   2    -0.413173226544E+03   -0.53275E-02   -0.14245E-01  4274   0.104E-01    0.643E-01
RMM:   3    -0.413172125987E+03    0.11006E-02   -0.63390E-03  4923   0.403E-02    0.177E-01
RMM:   4    -0.413209073937E+03   -0.36948E-01   -0.38237E-02  5146   0.162E-01    0.799E-01
RMM:   5    -0.413171435192E+03    0.37639E-01   -0.18529E-02  4797   0.134E-01    0.388E-02
RMM:   6    -0.413171641031E+03   -0.20584E-03   -0.29478E-03  5787   0.527E-02    0.176E-02
RMM:   7    -0.413171658130E+03   -0.17099E-04   -0.34182E-04  5885   0.152E-02    0.138E-02
RMM:   8    -0.413171658351E+03   -0.22097E-06   -0.43548E-05  4543   0.562E-03    0.939E-03
RMM:   9    -0.413171655873E+03    0.24786E-05   -0.65527E-06  2980   0.282E-03    0.662E-03
RMM:  10    -0.413171654340E+03    0.15330E-05   -0.24438E-06  2575   0.235E-03    0.320E-03
RMM:  11    -0.413171653616E+03    0.72395E-06   -0.17364E-06  2542   0.197E-03
   21 T=    62. E= -.41286595E+03 F= -.41317165E+03 E0= -.41314967E+03  EK= 0.30570E+00 SP= 0.00E+00 SK= 0.00E+00
       N       E                     dE             d eps       ncg     rms          rms(c)
RMM:   1    -0.413163138310E+03    0.85160E-02   -0.11468E+01  4299   0.788E-01    0.912E-01
RMM:   2    -0.413174057798E+03   -0.10919E-01   -0.14069E-01  4293   0.101E-01    0.643E-01
RMM:   3    -0.413174010625E+03    0.47173E-04   -0.71162E-03  5025   0.490E-02    0.213E-01
RMM:   4    -0.413219649897E+03   -0.45639E-01   -0.50740E-02  5128   0.187E-01    0.889E-01
RMM:   5    -0.413172716834E+03    0.46933E-01   -0.22409E-02  4784   0.149E-01    0.465E-02
RMM:   6    -0.413172926487E+03   -0.20965E-03   -0.34872E-03  5752   0.584E-02    0.183E-02
RMM:   7    -0.413172946440E+03   -0.19954E-04   -0.42336E-04  5949   0.168E-02    0.149E-02
RMM:   8    -0.413172944727E+03    0.17131E-05   -0.51963E-05  4715   0.605E-03    0.981E-03
RMM:   9    -0.413172939268E+03    0.54593E-05   -0.72848E-06  3001   0.289E-03    0.637E-03
RMM:  10    -0.413172933304E+03    0.59635E-05   -0.27511E-06  2586   0.243E-03    0.288E-03
RMM:  11    -0.413172929176E+03    0.41281E-05   -0.14619E-06  2516   0.186E-03    0.135E-03
RMM:  12    -0.413172926043E+03    0.31330E-05   -0.75470E-07  2454   0.140E-03    0.442E-04
RMM:  13    -0.413172924409E+03    0.16340E-05   -0.33748E-07  2105   0.978E-04    0.310E-04
RMM:  14    -0.413172921992E+03    0.24173E-05   -0.21897E-07  1676   0.801E-04    0.212E-04
RMM:  15    -0.413172919856E+03    0.21358E-05   -0.14320E-07  1366   0.705E-04    0.101E-04
RMM:  16    -0.413172918991E+03    0.86564E-06   -0.77909E-08  1099   0.629E-04
   22 T=    62. E= -.41286628E+03 F= -.41317292E+03 E0= -.41315098E+03  EK= 0.30663E+00 SP= 0.00E+00 SK= 0.00E+00
       N       E                     dE             d eps       ncg     rms          rms(c)
RMM:   1    -0.413164223455E+03    0.86964E-02   -0.11462E+01  4296   0.792E-01    0.915E-01
RMM:   2    -0.413174638175E+03   -0.10415E-01   -0.13908E-01  4281   0.106E-01    0.635E-01
RMM:   3    -0.413174059857E+03    0.57832E-03   -0.67343E-03  4882   0.440E-02    0.185E-01
RMM:   4    -0.413211787036E+03   -0.37727E-01   -0.38940E-02  5145   0.164E-01    0.807E-01
RMM:   5    -0.413173341207E+03    0.38446E-01   -0.18867E-02  4794   0.136E-01    0.405E-02
RMM:   6    -0.413173542508E+03   -0.20130E-03   -0.30162E-03  5779   0.535E-02    0.195E-02
RMM:   7    -0.413173554019E+03   -0.11511E-04   -0.34738E-04  5884   0.154E-02    0.147E-02
RMM:   8    -0.413173550420E+03    0.35991E-05   -0.44464E-05  4600   0.573E-03    0.100E-02
RMM:   9    -0.413173543193E+03    0.72271E-05   -0.67526E-06  2997   0.288E-03    0.701E-03
RMM:  10    -0.413173534684E+03    0.85083E-05   -0.24133E-06  2570   0.240E-03    0.338E-03
RMM:  11    -0.413173528104E+03    0.65805E-05   -0.16560E-06  2526   0.200E-03    0.169E-03
RMM:  12    -0.413173523465E+03    0.46393E-05   -0.80077E-07  2452   0.149E-03    0.541E-04
RMM:  13    -0.413173521756E+03    0.17088E-05   -0.35222E-07  2164   0.101E-03    0.351E-04
RMM:  14    -0.413173519482E+03    0.22740E-05   -0.19558E-07  1669   0.791E-04    0.201E-04
RMM:  15    -0.413173515747E+03    0.37342E-05   -0.15775E-07  1525   0.740E-04    0.142E-04
RMM:  16    -0.413173515041E+03    0.70625E-06   -0.70074E-08  1065   0.616E-04
   23 T=    63. E= -.41286592E+03 F= -.41317352E+03 E0= -.41315162E+03  EK= 0.30760E+00 SP= 0.00E+00 SK= 0.00E+00
       N       E                     dE             d eps       ncg     rms          rms(c)
RMM:   1    -0.413165139663E+03    0.83761E-02   -0.11461E+01  4293   0.795E-01    0.894E-01
RMM:   2    -0.413176745810E+03   -0.11606E-01   -0.14255E-01  4279   0.105E-01    0.643E-01
RMM:   3    -0.413175422128E+03    0.13237E-02   -0.61807E-03  4826   0.404E-02    0.173E-01
RMM:   4    -0.413204889196E+03   -0.29467E-01   -0.29946E-02  5152   0.144E-01    0.714E-01
RMM:   5    -0.413174973575E+03    0.29916E-01   -0.14822E-02  4805   0.119E-01    0.338E-02
RMM:   6    -0.413175139701E+03   -0.16613E-03   -0.23226E-03  5783   0.468E-02    0.168E-02
RMM:   7    -0.413175151180E+03   -0.11479E-04   -0.25310E-04  5801   0.134E-02    0.124E-02
RMM:   8    -0.413175150357E+03    0.82224E-06   -0.34687E-05  4437   0.515E-03    0.891E-03
RMM:   9    -0.413175146112E+03    0.42456E-05   -0.55522E-06  2935   0.275E-03    0.622E-03
RMM:  10    -0.413175142817E+03    0.32953E-05   -0.20171E-06  2547   0.219E-03    0.309E-03
RMM:  11    -0.413175140473E+03    0.23433E-05   -0.15761E-06  2533   0.190E-03    0.156E-03
RMM:  12    -0.413175138723E+03    0.17507E-05   -0.68824E-07  2420   0.137E-03    0.548E-04
RMM:  13    -0.413175138085E+03    0.63775E-06   -0.30300E-07  2036   0.933E-04
   24 T=    63. E= -.41286621E+03 F= -.41317514E+03 E0= -.41315329E+03  EK= 0.30893E+00 SP= 0.00E+00 SK= 0.00E+00
       N       E                     dE             d eps       ncg     rms          rms(c)
RMM:   1    -0.413166357971E+03    0.87808E-02   -0.11577E+01  4294   0.806E-01    0.910E-01
RMM:   2    -0.413177703780E+03   -0.11346E-01   -0.14255E-01  4277   0.107E-01    0.648E-01
RMM:   3    -0.413176317696E+03    0.13861E-02   -0.63276E-03  4745   0.428E-02    0.173E-01
RMM:   4    -0.413202591801E+03   -0.26274E-01   -0.26349E-02  5144   0.136E-01    0.675E-01
RMM:   5    -0.413175999691E+03    0.26592E-01   -0.13195E-02  4809   0.113E-01    0.317E-02
RMM:   6    -0.413176140272E+03   -0.14058E-03   -0.19947E-03  5782   0.438E-02    0.165E-02
RMM:   7    -0.413176149247E+03   -0.89744E-05   -0.21255E-04  5714   0.126E-02    0.116E-02
RMM:   8    -0.413176147639E+03    0.16081E-05   -0.29867E-05  4291   0.490E-03    0.851E-03
RMM:   9    -0.413176142485E+03    0.51537E-05   -0.53310E-06  2936   0.279E-03    0.585E-03
RMM:  10    -0.413176137734E+03    0.47513E-05   -0.18878E-06  2541   0.219E-03    0.292E-03
RMM:  11    -0.413176133743E+03    0.39908E-05   -0.14749E-06  2525   0.187E-03    0.144E-03
RMM:  12    -0.413176131145E+03    0.25976E-05   -0.61715E-07  2406   0.132E-03    0.518E-04
RMM:  13    -0.413176130113E+03    0.10320E-05   -0.27029E-07  1951   0.893E-04    0.311E-04
RMM:  14    -0.413176128184E+03    0.19289E-05   -0.17765E-07  1586   0.765E-04    0.182E-04
RMM:  15    -0.413176126024E+03    0.21601E-05   -0.12863E-07  1414   0.698E-04    0.152E-04
RMM:  16    -0.413176125367E+03    0.65730E-06   -0.56367E-08   939   0.592E-04
   25 T=    63. E= -.41286613E+03 F= -.41317613E+03 E0= -.41315433E+03  EK= 0.31000E+00 SP= 0.00E+00 SK= 0.00E+00
       N       E                     dE             d eps       ncg     rms          rms(c)
RMM:   1    -0.413167625590E+03    0.85004E-02   -0.11606E+01  4292   0.813E-01    0.925E-01
RMM:   2    -0.413178084300E+03   -0.10459E-01   -0.14173E-01  4273   0.111E-01    0.640E-01
RMM:   3    -0.413177323330E+03    0.76097E-03   -0.66084E-03  4640   0.404E-02    0.173E-01
RMM:   4    -0.413195862448E+03   -0.18539E-01   -0.18630E-02  5151   0.115E-01    0.570E-01
RMM:   5    -0.413177074980E+03    0.18787E-01   -0.93465E-03  4809   0.945E-02    0.292E-02
RMM:   6    -0.413177165405E+03   -0.90426E-04   -0.14668E-03  5811   0.362E-02    0.160E-02
RMM:   7    -0.413177168031E+03   -0.26254E-05   -0.14091E-04  5413   0.104E-02    0.998E-03
RMM:   8    -0.413177160449E+03    0.75822E-05   -0.16474E-05  3529   0.377E-03    0.671E-03
RMM:   9    -0.413177152887E+03    0.75615E-05   -0.39622E-06  2721   0.257E-03    0.416E-03
RMM:  10    -0.413177147844E+03    0.50433E-05   -0.12159E-06  2514   0.179E-03    0.257E-03
RMM:  11    -0.413177139467E+03    0.83764E-05   -0.10642E-06  2507   0.167E-03    0.120E-03
RMM:  12    -0.413177135398E+03    0.40691E-05   -0.44630E-07  2311   0.115E-03    0.485E-04
RMM:  13    -0.413177133661E+03    0.17373E-05   -0.20024E-07  1681   0.808E-04    0.252E-04
RMM:  14    -0.413177130330E+03    0.33306E-05   -0.14060E-07  1462   0.726E-04    0.148E-04
RMM:  15    -0.413177126884E+03    0.34464E-05   -0.10791E-07  1395   0.684E-04    0.149E-04
RMM:  16    -0.413177125688E+03    0.11961E-05   -0.50394E-08   955   0.585E-04    0.872E-05
RMM:  17    -0.413177121915E+03    0.37723E-05   -0.87185E-08  1363   0.651E-04    0.561E-05
RMM:  18    -0.413177120639E+03    0.12768E-05   -0.35628E-08   915   0.547E-04    0.242E-05
RMM:  19    -0.413177119978E+03    0.66019E-06   -0.20547E-08   784   0.521E-04
   26 T=    63. E= -.41286583E+03 F= -.41317712E+03 E0= -.41315537E+03  EK= 0.31129E+00 SP= 0.00E+00 SK= 0.00E+00
       N       E                     dE             d eps       ncg     rms          rms(c)
RMM:   1    -0.413168947222E+03    0.81734E-02   -0.11578E+01  4288   0.816E-01    0.900E-01
RMM:   2    -0.413180303009E+03   -0.11356E-01   -0.14323E-01  4274   0.104E-01    0.643E-01
RMM:   3    -0.413179351589E+03    0.95142E-03   -0.62547E-03  4690   0.406E-02    0.174E-01
RMM:   4    -0.413201546336E+03   -0.22195E-01   -0.22290E-02  5156   0.125E-01    0.622E-01
RMM:   5    -0.413179064143E+03    0.22482E-01   -0.11154E-02  4810   0.103E-01    0.296E-02
RMM:   6    -0.413179181491E+03   -0.11735E-03   -0.17573E-03  5821   0.394E-02    0.157E-02
RMM:   7    -0.413179188687E+03   -0.71957E-05   -0.16922E-04  5549   0.114E-02    0.104E-02
RMM:   8    -0.413179186089E+03    0.25984E-05   -0.23034E-05  3969   0.436E-03    0.770E-03
RMM:   9    -0.413179181174E+03    0.49145E-05   -0.50930E-06  2951   0.273E-03    0.532E-03
RMM:  10    -0.413179177154E+03    0.40204E-05   -0.16188E-06  2524   0.209E-03    0.282E-03
RMM:  11    -0.413179173254E+03    0.38996E-05   -0.13477E-06  2514   0.180E-03    0.143E-03
RMM:  12    -0.413179170764E+03    0.24901E-05   -0.55140E-07  2387   0.127E-03    0.540E-04
RMM:  13    -0.413179169772E+03    0.99194E-06   -0.23972E-07  1909   0.870E-04
   27 T=    64. E= -.41286616E+03 F= -.41317917E+03 E0= -.41315747E+03  EK= 0.31301E+00 SP= 0.00E+00 SK= 0.00E+00
       N       E                     dE             d eps       ncg     rms          rms(c)
RMM:   1    -0.413172607262E+03    0.65635E-02   -0.11740E+01  4291   0.843E-01    0.909E-01
RMM:   2    -0.413181452548E+03   -0.88453E-02   -0.14749E-01  4270   0.108E-01    0.654E-01
RMM:   3    -0.413180245521E+03    0.12070E-02   -0.63440E-03  4535   0.414E-02    0.170E-01
RMM:   4    -0.413193444369E+03   -0.13199E-01   -0.13553E-02  5157   0.993E-02    0.484E-01
RMM:   5    -0.413179978125E+03    0.13466E-01   -0.66533E-03  4820   0.793E-02    0.235E-02
RMM:   6    -0.413180033645E+03   -0.55520E-04   -0.10407E-03  5849   0.299E-02    0.135E-02
RMM:   7    -0.413180037855E+03   -0.42098E-05   -0.10025E-04  5265   0.897E-03    0.904E-03
RMM:   8    -0.413180033317E+03    0.45383E-05   -0.14247E-05  3700   0.380E-03    0.624E-03
RMM:   9    -0.413180030389E+03    0.29273E-05   -0.34231E-06  2747   0.254E-03    0.417E-03
RMM:  10    -0.413180026137E+03    0.42522E-05   -0.11529E-06  2501   0.183E-03    0.216E-03
RMM:  11    -0.413180022421E+03    0.37167E-05   -0.95964E-07  2495   0.152E-03    0.110E-03
RMM:  12    -0.413180019704E+03    0.27167E-05   -0.43348E-07  2303   0.110E-03    0.373E-04
RMM:  13    -0.413180018694E+03    0.10096E-05   -0.17981E-07  1565   0.764E-04    0.222E-04
RMM:  14    -0.413180016869E+03    0.18252E-05   -0.12031E-07  1304   0.692E-04    0.137E-04
RMM:  15    -0.413180014543E+03    0.23259E-05   -0.99786E-08  1269   0.669E-04    0.119E-04
RMM:  16    -0.413180013509E+03    0.10337E-05   -0.50608E-08   987   0.591E-04    0.710E-05
RMM:  17    -0.413180011073E+03    0.24364E-05   -0.64566E-08  1143   0.611E-04    0.447E-05
RMM:  18    -0.413180009891E+03    0.11824E-05   -0.29495E-08   841   0.548E-04    0.231E-05
RMM:  19    -0.413180009495E+03    0.39586E-06   -0.13380E-08   693   0.525E-04
   28 T=    64. E= -.41286558E+03 F= -.41318001E+03 E0= -.41315836E+03  EK= 0.31443E+00 SP= 0.00E+00 SK= 0.00E+00
       N       E                     dE             d eps       ncg     rms          rms(c)
RMM:   1    -0.413172806124E+03    0.72038E-02   -0.11795E+01  4286   0.843E-01    0.933E-01
RMM:   2    -0.413183310732E+03   -0.10505E-01   -0.14468E-01  4268   0.114E-01    0.646E-01
RMM:   3    -0.413182458698E+03    0.85203E-03   -0.67414E-03  4462   0.420E-02    0.174E-01
RMM:   4    -0.413192027740E+03   -0.95690E-02   -0.97917E-03  5178   0.837E-02    0.410E-01
RMM:   5    -0.413182421558E+03    0.96062E-02   -0.47659E-03  4833   0.670E-02    0.237E-02
RMM:   6    -0.413182452551E+03   -0.30994E-04   -0.76435E-04  5858   0.255E-02    0.149E-02
RMM:   7    -0.413182451624E+03    0.92774E-06   -0.87631E-05  5352   0.868E-03    0.981E-03
RMM:   8    -0.413182443400E+03    0.82237E-05   -0.10659E-05  3342   0.363E-03    0.544E-03
RMM:   9    -0.413182436507E+03    0.68928E-05   -0.22534E-06  2599   0.225E-03    0.334E-03
RMM:  10    -0.413182429141E+03    0.73662E-05   -0.10003E-06  2498   0.163E-03    0.173E-03
RMM:  11    -0.413182423539E+03    0.56019E-05   -0.61145E-07  2420   0.127E-03    0.783E-04
RMM:  12    -0.413182419281E+03    0.42579E-05   -0.31804E-07  2067   0.953E-04    0.310E-04
RMM:  13    -0.413182416976E+03    0.23047E-05   -0.15206E-07  1408   0.726E-04    0.170E-04
RMM:  14    -0.413182413735E+03    0.32412E-05   -0.10424E-07  1238   0.677E-04    0.107E-04
RMM:  15    -0.413182410587E+03    0.31487E-05   -0.82100E-08  1245   0.656E-04    0.750E-05
RMM:  16    -0.413182408905E+03    0.16813E-05   -0.53984E-08  1098   0.602E-04    0.680E-05
RMM:  17    -0.413182405908E+03    0.29976E-05   -0.61139E-08  1234   0.607E-04    0.274E-05
RMM:  18    -0.413182404802E+03    0.11059E-05   -0.28897E-08   843   0.531E-04    0.208E-05
RMM:  19    -0.413182404676E+03    0.12620E-06   -0.12838E-08   677   0.503E-04
   29 T=    64. E= -.41286612E+03 F= -.41318240E+03 E0= -.41316081E+03  EK= 0.31628E+00 SP= 0.00E+00 SK= 0.00E+00
       N       E                     dE             d eps       ncg     rms          rms(c)
RMM:   1    -0.413174239366E+03    0.81654E-02   -0.11756E+01  4287   0.853E-01    0.911E-01
RMM:   2    -0.413185286065E+03   -0.11047E-01   -0.14744E-01  4268   0.110E-01    0.646E-01
RMM:   3    -0.413184143500E+03    0.11426E-02   -0.63146E-03  4444   0.422E-02    0.173E-01
RMM:   4    -0.413192056388E+03   -0.79129E-02   -0.84054E-03  5151   0.797E-02    0.376E-01
RMM:   5    -0.413183992838E+03    0.80636E-02   -0.39637E-03  4825   0.613E-02    0.209E-02
RMM:   6    -0.413184014553E+03   -0.21715E-04   -0.63473E-04  5847   0.234E-02    0.137E-02
RMM:   7    -0.413184012854E+03    0.16990E-05   -0.73712E-05  5250   0.808E-03    0.897E-03
RMM:   8    -0.413184005846E+03    0.70079E-05   -0.84750E-06  3159   0.342E-03    0.477E-03
RMM:   9    -0.413184000531E+03    0.53146E-05   -0.19360E-06  2566   0.215E-03    0.282E-03
RMM:  10    -0.413183994993E+03    0.55379E-05   -0.90410E-07  2493   0.155E-03    0.147E-03
RMM:  11    -0.413183990742E+03    0.42514E-05   -0.52331E-07  2344   0.118E-03    0.637E-04
RMM:  12    -0.413183987569E+03    0.31729E-05   -0.27692E-07  1930   0.899E-04    0.237E-04
RMM:  13    -0.413183985500E+03    0.20691E-05   -0.14276E-07  1345   0.715E-04    0.138E-04
RMM:  14    -0.413183982852E+03    0.26480E-05   -0.10524E-07  1292   0.678E-04    0.974E-05
RMM:  15    -0.413183980182E+03    0.26703E-05   -0.82417E-08  1223   0.646E-04    0.627E-05
RMM:  16    -0.413183978652E+03    0.15300E-05   -0.49597E-08   994   0.591E-04    0.453E-05
RMM:  17    -0.413183976347E+03    0.23046E-05   -0.56029E-08  1140   0.602E-04    0.248E-05
RMM:  18    -0.413183975582E+03    0.76499E-06   -0.23523E-08   782   0.532E-04
   30 T=    65. E= -.41286602E+03 F= -.41318398E+03 E0= -.41316243E+03  EK= 0.31795E+00 SP= 0.00E+00 SK= 0.00E+00
       N       E                     dE             d eps       ncg     rms          rms(c)
RMM:   1    -0.413176202095E+03    0.77743E-02   -0.11889E+01  4290   0.878E-01    0.911E-01
RMM:   2    -0.413187865421E+03   -0.11663E-01   -0.15257E-01  4267   0.122E-01    0.660E-01
RMM:   3    -0.413185858082E+03    0.20073E-02   -0.61356E-03  4400   0.398E-02    0.171E-01
RMM:   4    -0.413190458162E+03   -0.46001E-02   -0.52543E-03  5138   0.622E-02    0.285E-01
RMM:   5    -0.413185859108E+03    0.45991E-02   -0.22680E-03  4820   0.463E-02    0.177E-02
RMM:   6    -0.413185864386E+03   -0.52778E-05   -0.35878E-04  5778   0.182E-02    0.122E-02
RMM:   7    -0.413185862999E+03    0.13877E-05   -0.47841E-05  4936   0.684E-03    0.706E-03
RMM:   8    -0.413185857999E+03    0.49992E-05   -0.62857E-06  2990   0.318E-03    0.337E-03
RMM:   9    -0.413185855172E+03    0.28269E-05   -0.13560E-06  2532   0.187E-03    0.188E-03
RMM:  10    -0.413185852093E+03    0.30796E-05   -0.68424E-07  2395   0.128E-03    0.104E-03
RMM:  11    -0.413185849560E+03    0.25326E-05   -0.40751E-07  2111   0.997E-04    0.430E-04
RMM:  12    -0.413185847418E+03    0.21426E-05   -0.23835E-07  1585   0.813E-04    0.159E-04
RMM:  13    -0.413185845831E+03    0.15867E-05   -0.13851E-07  1225   0.702E-04    0.106E-04
RMM:  14    -0.413185843993E+03    0.18381E-05   -0.10969E-07  1269   0.674E-04    0.603E-05
RMM:  15    -0.413185842172E+03    0.18211E-05   -0.84278E-08  1182   0.636E-04    0.500E-05
RMM:  16    -0.413185841322E+03    0.84933E-06   -0.42418E-08   839   0.570E-04
   31 T=    65. E= -.41286611E+03 F= -.41318584E+03 E0= -.41316434E+03  EK= 0.31973E+00 SP= 0.00E+00 SK= 0.00E+00
       N       E                     dE             d eps       ncg     rms          rms(c)
RMM:   1    -0.413182706949E+03    0.31352E-02   -0.12038E+01  4295   0.916E-01    0.938E-01
RMM:   2    -0.413189577836E+03   -0.68709E-02   -0.15250E-01  4266   0.119E-01    0.654E-01
RMM:   3    -0.413188553737E+03    0.10241E-02   -0.67222E-03  4295   0.491E-02    0.178E-01
RMM:   4    -0.413191636357E+03   -0.30826E-02   -0.37644E-03  5119   0.546E-02    0.233E-01
RMM:   5    -0.413188562358E+03    0.30740E-02   -0.14858E-03  4810   0.381E-02    0.196E-02
RMM:   6    -0.413188557703E+03    0.46544E-05   -0.25530E-04  5730   0.159E-02    0.139E-02
RMM:   7    -0.413188548235E+03    0.94685E-05   -0.38419E-05  4692   0.661E-03    0.615E-03
RMM:   8    -0.413188538973E+03    0.92619E-05   -0.50947E-06  2907   0.309E-03    0.288E-03
RMM:   9    -0.413188533661E+03    0.53120E-05   -0.10693E-06  2508   0.175E-03    0.165E-03
RMM:  10    -0.413188526831E+03    0.68298E-05   -0.57819E-07  2372   0.123E-03    0.876E-04
RMM:  11    -0.413188521796E+03    0.50357E-05   -0.32806E-07  1970   0.933E-04    0.365E-04
RMM:  12    -0.413188517090E+03    0.47060E-05   -0.19799E-07  1557   0.787E-04    0.151E-04
RMM:  13    -0.413188513387E+03    0.37026E-05   -0.12479E-07  1310   0.696E-04    0.916E-05
RMM:  14    -0.413188509532E+03    0.38549E-05   -0.96680E-08  1285   0.663E-04    0.626E-05
RMM:  15    -0.413188505248E+03    0.42838E-05   -0.87270E-08  1307   0.647E-04    0.659E-05
RMM:  16    -0.413188503666E+03    0.15824E-05   -0.45185E-08   929   0.564E-04    0.322E-05
RMM:  17    -0.413188502197E+03    0.14691E-05   -0.36456E-08   908   0.551E-04    0.183E-05
RMM:  18    -0.413188501963E+03    0.23336E-06   -0.17377E-08   680   0.512E-04
   32 T=    66. E= -.41286647E+03 F= -.41318850E+03 E0= -.41316705E+03  EK= 0.32203E+00 SP= 0.00E+00 SK= 0.00E+00
       N       E                     dE             d eps       ncg     rms          rms(c)
RMM:   1    -0.413185176425E+03    0.33258E-02   -0.12026E+01  4291   0.924E-01    0.925E-01
RMM:   2    -0.413191872681E+03   -0.66963E-02   -0.15493E-01  4271   0.131E-01    0.651E-01
RMM:   3    -0.413190435544E+03    0.14371E-02   -0.62665E-03  4193   0.391E-02    0.181E-01
RMM:   4    -0.413191043377E+03   -0.60783E-03   -0.15940E-03  5051   0.338E-02    0.105E-01
RMM:   5    -0.413190426991E+03    0.61639E-03   -0.29951E-04  4743   0.178E-02    0.180E-02
RMM:   6    -0.413190416292E+03    0.10699E-04   -0.86635E-05  5392   0.984E-03    0.127E-02
RMM:   7    -0.413190404103E+03    0.12189E-04   -0.16101E-05  3787   0.496E-03    0.413E-03
RMM:   8    -0.413190395870E+03    0.82334E-05   -0.30070E-06  2650   0.264E-03    0.218E-03
RMM:   9    -0.413190391654E+03    0.42156E-05   -0.68243E-07  2404   0.152E-03    0.114E-03
RMM:  10    -0.413190386291E+03    0.53629E-05   -0.36910E-07  2072   0.102E-03    0.538E-04
RMM:  11    -0.413190381178E+03    0.51127E-05   -0.21415E-07  1608   0.789E-04    0.214E-04
RMM:  12    -0.413190377354E+03    0.38239E-05   -0.12069E-07  1357   0.685E-04    0.129E-04
RMM:  13    -0.413190372393E+03    0.49617E-05   -0.99037E-08  1323   0.658E-04    0.728E-05
RMM:  14    -0.413190368570E+03    0.38232E-05   -0.62262E-08  1074   0.595E-04    0.628E-05
RMM:  15    -0.413190366389E+03    0.21801E-05   -0.38697E-08   916   0.557E-04    0.417E-05
RMM:  16    -0.413190363769E+03    0.26204E-05   -0.40032E-08   958   0.557E-04    0.237E-05
RMM:  17    -0.413190363195E+03    0.57421E-06   -0.14458E-08   630   0.495E-04
   33 T=    66. E= -.41286617E+03 F= -.41319036E+03 E0= -.41316896E+03  EK= 0.32420E+00 SP= 0.00E+00 SK= 0.00E+00
       N       E                     dE             d eps       ncg     rms          rms(c)
RMM:   1    -0.413183252203E+03    0.71116E-02   -0.12112E+01  4292   0.917E-01    0.916E-01
RMM:   2    -0.413194533000E+03   -0.11281E-01   -0.15750E-01  4257   0.126E-01    0.664E-01
RMM:   3    -0.413192960452E+03    0.15725E-02   -0.61452E-03  4343   0.431E-02    0.179E-01
RMM:   4    -0.413196522305E+03   -0.35619E-02   -0.43279E-03  5137   0.591E-02    0.252E-01
RMM:   5    -0.413192957779E+03    0.35645E-02   -0.16971E-03  4789   0.412E-02    0.182E-02
RMM:   6    -0.413192947371E+03    0.10409E-04   -0.28750E-04  5696   0.175E-02    0.121E-02
RMM:   7    -0.413192945140E+03    0.22308E-05   -0.40570E-05  4763   0.685E-03    0.653E-03
RMM:   8    -0.413192939829E+03    0.53107E-05   -0.63365E-06  3082   0.327E-03    0.316E-03
RMM:   9    -0.413192936559E+03    0.32699E-05   -0.12242E-06  2518   0.187E-03    0.157E-03
RMM:  10    -0.413192933164E+03    0.33955E-05   -0.60336E-07  2358   0.123E-03    0.870E-04
RMM:  11    -0.413192930215E+03    0.29485E-05   -0.36170E-07  2002   0.961E-04    0.419E-04
RMM:  12    -0.413192927027E+03    0.31884E-05   -0.25512E-07  1698   0.828E-04    0.160E-04
RMM:  13    -0.413192925381E+03    0.16457E-05   -0.12722E-07  1170   0.683E-04    0.967E-05
RMM:  14    -0.413192923689E+03    0.16915E-05   -0.91974E-08  1086   0.646E-04    0.523E-05
RMM:  15    -0.413192921601E+03    0.20882E-05   -0.80619E-08  1131   0.633E-04    0.400E-05
RMM:  16    -0.413192920725E+03    0.87649E-06   -0.40819E-08   804   0.573E-04
   34 T=    67. E= -.41286627E+03 F= -.41319292E+03 E0= -.41317157E+03  EK= 0.32665E+00 SP= 0.00E+00 SK= 0.00E+00
       N       E                     dE             d eps       ncg     rms          rms(c)
RMM:   1    -0.413186118121E+03    0.68035E-02   -0.12247E+01  4299   0.948E-01    0.942E-01
RMM:   2    -0.413196785755E+03   -0.10668E-01   -0.15985E-01  4256   0.136E-01    0.664E-01
RMM:   3    -0.413195644289E+03    0.11415E-02   -0.64800E-03  4545   0.444E-02    0.188E-01
RMM:   4    -0.413207749616E+03   -0.12105E-01   -0.12487E-02  5160   0.956E-02    0.466E-01
RMM:   5    -0.413195404357E+03    0.12345E-01   -0.62392E-03  4811   0.769E-02    0.255E-02
RMM:   6    -0.413195402260E+03    0.20971E-05   -0.99068E-04  5812   0.301E-02    0.147E-02
RMM:   7    -0.413195403898E+03   -0.16380E-05   -0.11969E-04  5444   0.970E-03    0.101E-02
RMM:   8    -0.413195396547E+03    0.73505E-05   -0.14098E-05  3588   0.386E-03    0.593E-03
RMM:   9    -0.413195389369E+03    0.71781E-05   -0.26651E-06  2635   0.239E-03    0.334E-03
RMM:  10    -0.413195381331E+03    0.80380E-05   -0.11676E-06  2497   0.175E-03    0.156E-03
RMM:  11    -0.413195375194E+03    0.61373E-05   -0.68980E-07  2448   0.133E-03    0.760E-04
RMM:  12    -0.413195370056E+03    0.51381E-05   -0.35853E-07  2200   0.101E-03    0.300E-04
RMM:  13    -0.413195367605E+03    0.24511E-05   -0.16884E-07  1475   0.748E-04    0.181E-04
RMM:  14    -0.413195363792E+03    0.38128E-05   -0.10857E-07  1218   0.678E-04    0.122E-04
RMM:  15    -0.413195359965E+03    0.38267E-05   -0.85376E-08  1223   0.653E-04    0.698E-05
RMM:  16    -0.413195357725E+03    0.22404E-05   -0.54206E-08  1045   0.609E-04    0.585E-05
RMM:  17    -0.413195354318E+03    0.34065E-05   -0.53286E-08  1152   0.613E-04    0.366E-05
RMM:  18    -0.413195352604E+03    0.17148E-05   -0.33228E-08   931   0.561E-04    0.193E-05
RMM:  19    -0.413195352438E+03    0.16567E-06   -0.14452E-08   668   0.521E-04
   35 T=    67. E= -.41286610E+03 F= -.41319535E+03 E0= -.41317405E+03  EK= 0.32925E+00 SP= 0.00E+00 SK= 0.00E+00
       N       E                     dE             d eps       ncg     rms          rms(c)
RMM:   1    -0.413189056137E+03    0.62965E-02   -0.12296E+01  4297   0.967E-01    0.943E-01
RMM:   2    -0.413198712777E+03   -0.96566E-02   -0.15817E-01  4254   0.120E-01    0.657E-01
RMM:   3    -0.413197913691E+03    0.79909E-03   -0.67864E-03  4837   0.451E-02    0.199E-01
RMM:   4    -0.413231309038E+03   -0.33395E-01   -0.33700E-02  5155   0.154E-01    0.761E-01
RMM:   5    -0.413197507933E+03    0.33801E-01   -0.16979E-02  4802   0.127E-01    0.379E-02
RMM:   6    -0.413197583497E+03   -0.75564E-04   -0.26776E-03  5862   0.480E-02    0.184E-02
RMM:   7    -0.413197596224E+03   -0.12727E-04   -0.26919E-04  5742   0.138E-02    0.130E-02
RMM:   8    -0.413197589976E+03    0.62476E-05   -0.33142E-05  4289   0.505E-03    0.918E-03
RMM:   9    -0.413197584209E+03    0.57674E-05   -0.79331E-06  3256   0.326E-03    0.629E-03
RMM:  10    -0.413197573514E+03    0.10695E-04   -0.24022E-06  2558   0.261E-03    0.273E-03
RMM:  11    -0.413197565964E+03    0.75508E-05   -0.15343E-06  2512   0.196E-03    0.155E-03
RMM:  12    -0.413197558907E+03    0.70567E-05   -0.71069E-07  2444   0.149E-03    0.580E-04
RMM:  13    -0.413197556371E+03    0.25362E-05   -0.30137E-07  2143   0.981E-04    0.399E-04
RMM:  14    -0.413197553966E+03    0.24042E-05   -0.14175E-07  1528   0.738E-04    0.228E-04
RMM:  15    -0.413197547566E+03    0.64009E-05   -0.13429E-07  1758   0.745E-04    0.256E-04
RMM:  16    -0.413197546809E+03    0.75608E-06   -0.43904E-08   927   0.566E-04
   36 T=    67. E= -.41286600E+03 F= -.41319755E+03 E0= -.41317629E+03  EK= 0.33155E+00 SP= 0.00E+00 SK= 0.00E+00
       N       E                     dE             d eps       ncg     rms          rms(c)
RMM:   1    -0.413190065478E+03    0.74821E-02   -0.12343E+01  4299   0.990E-01    0.925E-01
RMM:   2    -0.413202102657E+03   -0.12037E-01   -0.16467E-01  4255   0.136E-01    0.669E-01
RMM:   3    -0.413201001905E+03    0.11008E-02   -0.65461E-03  4833   0.523E-02    0.208E-01
RMM:   4    -0.413244859799E+03   -0.43858E-01   -0.44875E-02  5157   0.177E-01    0.869E-01
RMM:   5    -0.413200267018E+03    0.44593E-01   -0.22536E-02  4801   0.146E-01    0.411E-02
RMM:   6    -0.413200392522E+03   -0.12550E-03   -0.34085E-03  5856   0.547E-02    0.191E-02
RMM:   7    -0.413200409697E+03   -0.17176E-04   -0.33413E-04  5735   0.153E-02    0.132E-02
RMM:   8    -0.413200406626E+03    0.30711E-05   -0.38284E-05  4017   0.501E-03    0.918E-03
RMM:   9    -0.413200398565E+03    0.80608E-05   -0.73430E-06  3075   0.330E-03    0.445E-03
RMM:  10    -0.413200395626E+03    0.29399E-05   -0.28958E-06  2617   0.240E-03    0.288E-03
RMM:  11    -0.413200389384E+03    0.62416E-05   -0.13859E-06  2500   0.200E-03    0.139E-03
RMM:  12    -0.413200385096E+03    0.42885E-05   -0.66368E-07  2430   0.138E-03    0.550E-04
RMM:  13    -0.413200383449E+03    0.16469E-05   -0.30385E-07  2085   0.959E-04    0.341E-04
RMM:  14    -0.413200380944E+03    0.25046E-05   -0.16497E-07  1586   0.763E-04    0.196E-04
RMM:  15    -0.413200377461E+03    0.34828E-05   -0.11811E-07  1424   0.701E-04    0.130E-04
RMM:  16    -0.413200376056E+03    0.14056E-05   -0.60454E-08  1042   0.609E-04    0.713E-05
RMM:  17    -0.413200373702E+03    0.23539E-05   -0.51969E-08  1077   0.608E-04    0.460E-05
RMM:  18    -0.413200371251E+03    0.24509E-05   -0.46386E-08  1065   0.594E-04    0.284E-05
RMM:  19    -0.413200370836E+03    0.41505E-06   -0.19608E-08   775   0.547E-04
   37 T=    68. E= -.41286617E+03 F= -.41320037E+03 E0= -.41317915E+03  EK= 0.33420E+00 SP= 0.00E+00 SK= 0.00E+00
       N       E                     dE             d eps       ncg     rms          rms(c)
RMM:   1    -0.413197570184E+03    0.28011E-02   -0.12560E+01  4304   0.106E+00    0.946E-01
RMM:   2    -0.413205184242E+03   -0.76141E-02   -0.16379E-01  4251   0.132E-01    0.673E-01
RMM:   3    -0.413203789012E+03    0.13952E-02   -0.67673E-03  4772   0.515E-02    0.204E-01
RMM:   4    -0.413241022065E+03   -0.37233E-01   -0.37589E-02  5155   0.162E-01    0.802E-01
RMM:   5    -0.413203248643E+03    0.37773E-01   -0.19126E-02  4801   0.134E-01    0.383E-02
RMM:   6    -0.413203344772E+03   -0.96129E-04   -0.29268E-03  5846   0.503E-02    0.186E-02
RMM:   7    -0.413203359279E+03   -0.14507E-04   -0.28650E-04  5746   0.143E-02    0.131E-02
RMM:   8    -0.413203354195E+03    0.50835E-05   -0.35248E-05  4223   0.506E-03    0.919E-03
RMM:   9    -0.413203350104E+03    0.40912E-05   -0.90223E-06  3386   0.329E-03    0.649E-03
RMM:  10    -0.413203341575E+03    0.85290E-05   -0.25262E-06  2567   0.260E-03    0.285E-03
RMM:  11    -0.413203335485E+03    0.60898E-05   -0.17315E-06  2527   0.204E-03    0.165E-03
RMM:  12    -0.413203330258E+03    0.52274E-05   -0.74884E-07  2454   0.152E-03    0.614E-04
RMM:  13    -0.413203328412E+03    0.18456E-05   -0.31389E-07  2188   0.100E-03    0.436E-04
RMM:  14    -0.413203326462E+03    0.19504E-05   -0.14665E-07  1561   0.746E-04    0.236E-04
RMM:  15    -0.413203321125E+03    0.53373E-05   -0.14407E-07  1768   0.755E-04    0.275E-04
RMM:  16    -0.413203320592E+03    0.53307E-06   -0.44409E-08   947   0.575E-04
   38 T=    69. E= -.41286652E+03 F= -.41320332E+03 E0= -.41318215E+03  EK= 0.33680E+00 SP= 0.00E+00 SK= 0.00E+00
       N       E                     dE             d eps       ncg     rms          rms(c)
RMM:   1    -0.413201096065E+03    0.22251E-02   -0.12633E+01  4304   0.108E+00    0.959E-01
RMM:   2    -0.413206709055E+03   -0.56130E-02   -0.16823E-01  4262   0.127E-01    0.667E-01
RMM:   3    -0.413206035807E+03    0.67325E-03   -0.72229E-03  4946   0.545E-02    0.228E-01
RMM:   4    -0.413256314613E+03   -0.50279E-01   -0.52867E-02  5139   0.191E-01    0.931E-01
RMM:   5    -0.413204987906E+03    0.51327E-01   -0.25575E-02  4790   0.156E-01    0.465E-02
RMM:   6    -0.413205149449E+03   -0.16154E-03   -0.40194E-03  5846   0.587E-02    0.212E-02
RMM:   7    -0.413205167996E+03   -0.18547E-04   -0.39602E-04  5810   0.166E-02    0.146E-02
RMM:   8    -0.413205165137E+03    0.28591E-05   -0.51743E-05  4550   0.582E-03    0.110E-02
RMM:   9    -0.413205156021E+03    0.91164E-05   -0.10429E-05  3488   0.347E-03    0.724E-03
RMM:  10    -0.413205144976E+03    0.11045E-04   -0.34454E-06  2641   0.290E-03    0.326E-03
RMM:  11    -0.413205136525E+03    0.84510E-05   -0.17707E-06  2517   0.215E-03    0.184E-03
RMM:  12    -0.413205128042E+03    0.84827E-05   -0.90180E-07  2463   0.167E-03    0.616E-04
RMM:  13    -0.413205124255E+03    0.37878E-05   -0.37630E-07  2268   0.110E-03    0.443E-04
RMM:  14    -0.413205121242E+03    0.30126E-05   -0.18427E-07  1771   0.801E-04    0.319E-04
RMM:  15    -0.413205112369E+03    0.88728E-05   -0.17151E-07  1965   0.796E-04    0.325E-04
RMM:  16    -0.413205111992E+03    0.37704E-06   -0.54488E-08  1013   0.569E-04
   39 T=    69. E= -.41286600E+03 F= -.41320511E+03 E0= -.41318398E+03  EK= 0.33911E+00 SP= 0.00E+00 SK= 0.00E+00
       N       E                     dE             d eps       ncg     rms          rms(c)
RMM:   1    -0.413206416984E+03   -0.13046E-02   -0.12678E+01  4309   0.115E+00    0.936E-01
RMM:   2    -0.413210139284E+03   -0.37223E-02   -0.16837E-01  4260   0.136E-01    0.672E-01
RMM:   3    -0.413209293311E+03    0.84597E-03   -0.68983E-03  4973   0.527E-02    0.231E-01
RMM:   4    -0.413262684781E+03   -0.53391E-01   -0.57006E-02  5139   0.198E-01    0.957E-01
RMM:   5    -0.413208122559E+03    0.54562E-01   -0.26920E-02  4784   0.161E-01    0.482E-02
RMM:   6    -0.413208311391E+03   -0.18883E-03   -0.43849E-03  5825   0.605E-02    0.204E-02
RMM:   7    -0.413208335659E+03   -0.24268E-04   -0.43303E-04  5835   0.172E-02    0.146E-02
RMM:   8    -0.413208335098E+03    0.56143E-06   -0.57187E-05  4666   0.610E-03    0.112E-02
RMM:   9    -0.413208327620E+03    0.74777E-05   -0.10850E-05  3500   0.351E-03    0.728E-03
RMM:  10    -0.413208319752E+03    0.78678E-05   -0.36128E-06  2658   0.292E-03    0.329E-03
RMM:  11    -0.413208313999E+03    0.57532E-05   -0.18087E-06  2513   0.217E-03    0.188E-03
RMM:  12    -0.413208308199E+03    0.58002E-05   -0.93686E-07  2471   0.167E-03    0.633E-04
RMM:  13    -0.413208305747E+03    0.24514E-05   -0.39286E-07  2277   0.111E-03    0.447E-04
RMM:  14    -0.413208303551E+03    0.21966E-05   -0.19833E-07  1807   0.811E-04    0.312E-04
RMM:  15    -0.413208297646E+03    0.59050E-05   -0.16810E-07  1821   0.777E-04    0.270E-04
RMM:  16    -0.413208297305E+03    0.34083E-06   -0.60458E-08  1045   0.585E-04
   40 T=    70. E= -.41286657E+03 F= -.41320830E+03 E0= -.41318720E+03  EK= 0.34172E+00 SP= 0.00E+00 SK= 0.00E+00
       N       E                     dE             d eps       ncg     rms          rms(c)
RMM:   1    -0.413204069737E+03    0.42279E-02   -0.12805E+01  4305   0.118E+00    0.948E-01
RMM:   2    -0.413211282222E+03   -0.72125E-02   -0.17545E-01  4268   0.140E-01    0.683E-01
RMM:   3    -0.413210969966E+03    0.31226E-03   -0.73564E-03  5039   0.555E-02    0.257E-01
RMM:   4    -0.413267547842E+03   -0.56578E-01   -0.63059E-02  5131   0.208E-01    0.988E-01
RMM:   5    -0.413209310001E+03    0.58238E-01   -0.28209E-02  4772   0.166E-01    0.520E-02
RMM:   6    -0.413209513532E+03   -0.20353E-03   -0.46734E-03  5821   0.625E-02    0.202E-02
RMM:   7    -0.413209540546E+03   -0.27014E-04   -0.47604E-04  5926   0.181E-02    0.155E-02
RMM:   8    -0.413209540957E+03   -0.41134E-06   -0.66097E-05  4892   0.666E-03    0.117E-02
RMM:   9    -0.413209532909E+03    0.80484E-05   -0.98300E-06  3335   0.353E-03    0.698E-03
RMM:  10    -0.413209524902E+03    0.80066E-05   -0.38931E-06  2699   0.300E-03    0.305E-03
RMM:  11    -0.413209518995E+03    0.59076E-05   -0.17574E-06  2511   0.215E-03    0.155E-03
RMM:  12    -0.413209513659E+03    0.53356E-05   -0.89452E-07  2467   0.160E-03    0.600E-04
RMM:  13    -0.413209511330E+03    0.23294E-05   -0.37791E-07  2239   0.108E-03    0.432E-04
RMM:  14    -0.413209508430E+03    0.28999E-05   -0.20521E-07  1788   0.815E-04    0.306E-04
RMM:  15    -0.413209503737E+03    0.46929E-05   -0.14395E-07  1521   0.728E-04    0.171E-04
RMM:  16    -0.413209502687E+03    0.10497E-05   -0.66334E-08  1044   0.608E-04    0.889E-05
RMM:  17    -0.413209500596E+03    0.20913E-05   -0.55580E-08  1038   0.600E-04    0.477E-05
RMM:  18    -0.413209496562E+03    0.40341E-05   -0.60182E-08  1171   0.630E-04    0.459E-05
RMM:  19    -0.413209495959E+03    0.60329E-06   -0.24508E-08   813   0.564E-04
   41 T=    70. E= -.41286593E+03 F= -.41320950E+03 E0= -.41318843E+03  EK= 0.34357E+00 SP= 0.00E+00 SK= 0.00E+00
       N       E                     dE             d eps       ncg     rms          rms(c)
RMM:   1    -0.413212866164E+03   -0.33696E-02   -0.12941E+01  4308   0.126E+00    0.972E-01
RMM:   2    -0.413213049662E+03   -0.18350E-03   -0.17874E-01  4293   0.146E-01    0.675E-01
RMM:   3    -0.413215781156E+03   -0.27315E-02   -0.97622E-03  5124   0.723E-02    0.333E-01
RMM:   4    -0.413250357167E+03   -0.34576E-01   -0.50234E-02  5093   0.188E-01    0.817E-01
RMM:   5    -0.413212058227E+03    0.38299E-01   -0.17315E-02  4731   0.136E-01    0.494E-02
RMM:   6    -0.413212112285E+03   -0.54058E-04   -0.28064E-03  5755   0.500E-02    0.178E-02
RMM:   7    -0.413212126085E+03   -0.13800E-04   -0.32651E-04  5897   0.155E-02    0.139E-02
RMM:   8    -0.413212123829E+03    0.22556E-05   -0.48520E-05  4764   0.598E-03    0.936E-03
RMM:   9    -0.413212112380E+03    0.11450E-04   -0.71023E-06  3113   0.362E-03    0.455E-03
RMM:  10    -0.413212102264E+03    0.10115E-04   -0.27117E-06  2571   0.257E-03    0.233E-03
RMM:  11    -0.413212094402E+03    0.78629E-05   -0.10366E-06  2511   0.166E-03    0.955E-04
RMM:  12    -0.413212089343E+03    0.50591E-05   -0.41227E-07  2312   0.111E-03    0.521E-04
RMM:  13    -0.413212084299E+03    0.50435E-05   -0.24939E-07  1684   0.859E-04    0.248E-04
RMM:  14    -0.413212080402E+03    0.38970E-05   -0.15925E-07  1393   0.746E-04    0.150E-04
RMM:  15    -0.413212075511E+03    0.48906E-05   -0.12359E-07  1361   0.709E-04    0.995E-05
RMM:  16    -0.413212070814E+03    0.46970E-05   -0.97079E-08  1386   0.670E-04    0.533E-05
RMM:  17    -0.413212066799E+03    0.40157E-05   -0.74252E-08  1274   0.627E-04    0.492E-05
RMM:  18    -0.413212065493E+03    0.13062E-05   -0.44030E-08   967   0.557E-04    0.339E-05
RMM:  19    -0.413212064663E+03    0.82956E-06   -0.31694E-08   866   0.537E-04
   42 T=    70. E= -.41286653E+03 F= -.41321206E+03 E0= -.41319103E+03  EK= 0.34554E+00 SP= 0.00E+00 SK= 0.00E+00
       N       E                     dE             d eps       ncg     rms          rms(c)
RMM:   1    -0.413212507122E+03   -0.44163E-03   -0.12890E+01  4311   0.133E+00    0.948E-01
RMM:   2    -0.413214715164E+03   -0.22080E-02   -0.17807E-01  4306   0.154E-01    0.675E-01
RMM:   3    -0.413218685416E+03   -0.39703E-02   -0.10598E-02  5108   0.811E-02    0.368E-01
RMM:   4    -0.413247239053E+03   -0.28554E-01   -0.47720E-02  5063   0.184E-01    0.767E-01
RMM:   5    -0.413213739111E+03    0.33500E-01   -0.14679E-02  4703   0.129E-01    0.480E-02
RMM:   6    -0.413213764472E+03   -0.25360E-04   -0.24213E-03  5737   0.467E-02    0.167E-02
RMM:   7    -0.413213774618E+03   -0.10146E-04   -0.27837E-04  5893   0.148E-02    0.133E-02
RMM:   8    -0.413213772481E+03    0.21368E-05   -0.42795E-05  4698   0.572E-03    0.864E-03
RMM:   9    -0.413213762834E+03    0.96464E-05   -0.69479E-06  3116   0.375E-03    0.427E-03
RMM:  10    -0.413213755197E+03    0.76370E-05   -0.25404E-06  2571   0.254E-03    0.239E-03
RMM:  11    -0.413213749378E+03    0.58189E-05   -0.10320E-06  2512   0.163E-03    0.101E-03
RMM:  12    -0.413213745899E+03    0.34795E-05   -0.42511E-07  2328   0.111E-03    0.539E-04
RMM:  13    -0.413213741534E+03    0.43649E-05   -0.29761E-07  1783   0.901E-04    0.276E-04
RMM:  14    -0.413213739145E+03    0.23890E-05   -0.17188E-07  1363   0.744E-04    0.150E-04
RMM:  15    -0.413213735575E+03    0.35704E-05   -0.12977E-07  1249   0.700E-04    0.945E-05
RMM:  16    -0.413213731796E+03    0.37787E-05   -0.10151E-07  1213   0.676E-04    0.487E-05
RMM:  17    -0.413213728829E+03    0.29665E-05   -0.81150E-08  1276   0.646E-04    0.404E-05
RMM:  18    -0.413213727065E+03    0.17642E-05   -0.53271E-08  1038   0.588E-04    0.340E-05
RMM:  19    -0.413213726062E+03    0.10035E-05   -0.36278E-08   876   0.552E-04    0.203E-05
RMM:  20    -0.413213725684E+03    0.37800E-06   -0.22700E-08   756   0.528E-04
   43 T=    71. E= -.41286653E+03 F= -.41321373E+03 E0= -.41319273E+03  EK= 0.34719E+00 SP= 0.00E+00 SK= 0.00E+00
       N       E                     dE             d eps       ncg     rms          rms(c)
RMM:   1    -0.413243943936E+03   -0.30218E-01   -0.13321E+01  4312   0.153E+00    0.949E-01
RMM:   2    -0.413215624901E+03    0.28319E-01   -0.20047E-01  4311   0.175E-01    0.692E-01
RMM:   3    -0.413221253302E+03   -0.56284E-02   -0.12036E-02  5104   0.918E-02    0.419E-01
RMM:   4    -0.413245528056E+03   -0.24275E-01   -0.48121E-02  5058   0.186E-01    0.743E-01
RMM:   5    -0.413214497178E+03    0.31031E-01   -0.13389E-02  4679   0.127E-01    0.502E-02
RMM:   6    -0.413214500832E+03   -0.36538E-05   -0.22807E-03  5680   0.453E-02    0.172E-02
RMM:   7    -0.413214510341E+03   -0.95090E-05   -0.26533E-04  5913   0.147E-02    0.137E-02
RMM:   8    -0.413214508230E+03    0.21110E-05   -0.39901E-05  4691   0.566E-03    0.872E-03
RMM:   9    -0.413214499720E+03    0.85096E-05   -0.80520E-06  3300   0.415E-03    0.445E-03
RMM:  10    -0.413214493501E+03    0.62199E-05   -0.27651E-06  2605   0.267E-03    0.268E-03
RMM:  11    -0.413214489055E+03    0.44460E-05   -0.12608E-06  2525   0.178E-03    0.112E-03
RMM:  12    -0.413214486550E+03    0.25048E-05   -0.50808E-07  2434   0.122E-03    0.637E-04
RMM:  13    -0.413214482918E+03    0.36319E-05   -0.38853E-07  1982   0.995E-04    0.399E-04
RMM:  14    -0.413214481233E+03    0.16852E-05   -0.19769E-07  1446   0.779E-04    0.204E-04
RMM:  15    -0.413214478721E+03    0.25118E-05   -0.14220E-07  1252   0.714E-04    0.130E-04
RMM:  16    -0.413214475715E+03    0.30057E-05   -0.11351E-07  1213   0.684E-04    0.580E-05
RMM:  17    -0.413214474049E+03    0.16663E-05   -0.75364E-08  1091   0.636E-04    0.447E-05
RMM:  18    -0.413214471933E+03    0.21154E-05   -0.62476E-08  1080   0.617E-04    0.415E-05
RMM:  19    -0.413214470852E+03    0.10812E-05   -0.41858E-08   918   0.575E-04    0.329E-05
RMM:  20    -0.413214470488E+03    0.36409E-06   -0.24033E-08   741   0.545E-04
   44 T=    71. E= -.41286620E+03 F= -.41321447E+03 E0= -.41319350E+03  EK= 0.34827E+00 SP= 0.00E+00 SK= 0.00E+00
       N       E                     dE             d eps       ncg     rms          rms(c)
RMM:   1    -0.413243223577E+03   -0.28753E-01   -0.13372E+01  4306   0.158E+00    0.978E-01
RMM:   2    -0.413216141620E+03    0.27082E-01   -0.19109E-01  4361   0.182E-01    0.683E-01
RMM:   3    -0.413228715121E+03   -0.12574E-01   -0.18234E-02  5143   0.117E-01    0.532E-01
RMM:   4    -0.413231508787E+03   -0.27937E-02   -0.37484E-02  5017   0.168E-01    0.547E-01
RMM:   5    -0.413215993258E+03    0.15516E-01   -0.60385E-03  4568   0.957E-02    0.426E-02
RMM:   6    -0.413215946499E+03    0.46759E-04   -0.10536E-03  5349   0.319E-02    0.158E-02
RMM:   7    -0.413215946482E+03    0.16342E-07   -0.11766E-04  5677   0.104E-02    0.120E-02
RMM:   8    -0.413215942182E+03    0.43003E-05   -0.24029E-05  4547   0.484E-03    0.779E-03
RMM:   9    -0.413215926570E+03    0.15612E-04   -0.63894E-06  3107   0.407E-03    0.403E-03
RMM:  10    -0.413215919592E+03    0.69785E-05   -0.14565E-06  2530   0.216E-03    0.177E-03
RMM:  11    -0.413215913563E+03    0.60286E-05   -0.87337E-07  2490   0.149E-03    0.830E-04
RMM:  12    -0.413215908762E+03    0.48012E-05   -0.42879E-07  2388   0.111E-03    0.482E-04
RMM:  13    -0.413215903382E+03    0.53797E-05   -0.25591E-07  1723   0.848E-04    0.271E-04
RMM:  14    -0.413215900589E+03    0.27931E-05   -0.13343E-07  1180   0.695E-04    0.173E-04
RMM:  15    -0.413215895967E+03    0.46225E-05   -0.10578E-07  1178   0.676E-04    0.764E-05
RMM:  16    -0.413215891482E+03    0.44848E-05   -0.87900E-08  1227   0.661E-04    0.873E-05
RMM:  17    -0.413215889127E+03    0.23547E-05   -0.55516E-08  1033   0.593E-04    0.676E-05
RMM:  18    -0.413215885671E+03    0.34558E-05   -0.57038E-08  1152   0.596E-04    0.409E-05
RMM:  19    -0.413215885210E+03    0.46114E-06   -0.23657E-08   724   0.519E-04
   45 T=    71. E= -.41286658E+03 F= -.41321589E+03 E0= -.41319494E+03  EK= 0.34931E+00 SP= 0.00E+00 SK= 0.00E+00
       N       E                     dE             d eps       ncg     rms          rms(c)
RMM:   1    -0.413236011509E+03   -0.20126E-01   -0.13213E+01  4306   0.166E+00    0.960E-01
RMM:   2    -0.413215870827E+03    0.20141E-01   -0.18774E-01  4364   0.192E-01    0.679E-01
RMM:   3    -0.413230889413E+03   -0.15019E-01   -0.20189E-02  5135   0.126E-01    0.570E-01
RMM:   4    -0.413229044813E+03    0.18446E-02   -0.36759E-02  4993   0.168E-01    0.511E-01
RMM:   5    -0.413215768982E+03    0.13276E-01   -0.52448E-03  4550   0.929E-02    0.428E-02
RMM:   6    -0.413215704579E+03    0.64403E-04   -0.83174E-04  5135   0.293E-02    0.154E-02
RMM:   7    -0.413215705155E+03   -0.57591E-06   -0.98658E-05  5612   0.936E-03    0.105E-02
RMM:   8    -0.413215702071E+03    0.30840E-05   -0.25276E-05  4729   0.504E-03    0.749E-03
RMM:   9    -0.413215688316E+03    0.13755E-04   -0.10661E-05  3793   0.447E-03    0.445E-03
RMM:  10    -0.413215682560E+03    0.57560E-05   -0.16281E-06  2500   0.221E-03    0.192E-03
RMM:  11    -0.413215677116E+03    0.54434E-05   -0.12433E-06  2490   0.174E-03    0.982E-04
RMM:  12    -0.413215672935E+03    0.41810E-05   -0.45311E-07  2353   0.122E-03    0.617E-04
RMM:  13    -0.413215668942E+03    0.39929E-05   -0.21886E-07  1653   0.829E-04    0.321E-04
RMM:  14    -0.413215665176E+03    0.37658E-05   -0.12371E-07  1185   0.686E-04    0.172E-04
RMM:  15    -0.413215659602E+03    0.55743E-05   -0.11753E-07  1331   0.682E-04    0.102E-04
RMM:  16    -0.413215656841E+03    0.27609E-05   -0.61321E-08   954   0.580E-04    0.911E-05
RMM:  17    -0.413215652632E+03    0.42094E-05   -0.62407E-08  1065   0.592E-04    0.541E-05
RMM:  18    -0.413215650925E+03    0.17067E-05   -0.35297E-08   825   0.535E-04    0.351E-05
RMM:  19    -0.413215650058E+03    0.86656E-06   -0.19950E-08   649   0.511E-04
   46 T=    71. E= -.41286637E+03 F= -.41321565E+03 E0= -.41319473E+03  EK= 0.34928E+00 SP= 0.00E+00 SK= 0.00E+00
       N       E                     dE             d eps       ncg     rms          rms(c)
RMM:   1    -0.413264961432E+03   -0.49311E-01   -0.13555E+01  4308   0.183E+00    0.944E-01
RMM:   2    -0.413215402042E+03    0.49559E-01   -0.23016E-01  4392   0.216E-01    0.696E-01
RMM:   3    -0.413229396367E+03   -0.13994E-01   -0.19362E-02  5139   0.125E-01    0.590E-01
RMM:   4    -0.413229882667E+03   -0.48630E-03   -0.38916E-02  5003   0.173E-01    0.560E-01
RMM:   5    -0.413214633277E+03    0.15249E-01   -0.67450E-03  4550   0.102E-01    0.488E-02
RMM:   6    -0.413214556284E+03    0.76993E-04   -0.10425E-03  5200   0.329E-02    0.177E-02
RMM:   7    -0.413214556983E+03   -0.69867E-06   -0.13681E-04  5811   0.110E-02    0.131E-02
RMM:   8    -0.413214553680E+03    0.33024E-05   -0.28427E-05  4749   0.510E-03    0.878E-03
RMM:   9    -0.413214541704E+03    0.11977E-04   -0.94865E-06  3550   0.451E-03    0.494E-03
RMM:  10    -0.413214536426E+03    0.52775E-05   -0.20061E-06  2531   0.236E-03    0.233E-03
RMM:  11    -0.413214532419E+03    0.40068E-05   -0.16098E-06  2538   0.193E-03    0.122E-03
RMM:  12    -0.413214529808E+03    0.26110E-05   -0.54779E-07  2427   0.134E-03    0.747E-04
RMM:  13    -0.413214526964E+03    0.28442E-05   -0.29680E-07  2002   0.927E-04    0.398E-04
RMM:  14    -0.413214524534E+03    0.24303E-05   -0.16214E-07  1294   0.721E-04    0.215E-04
RMM:  15    -0.413214521924E+03    0.26101E-05   -0.11554E-07  1154   0.668E-04    0.954E-05
RMM:  16    -0.413214519517E+03    0.24065E-05   -0.91097E-08  1145   0.638E-04    0.857E-05
RMM:  17    -0.413214517801E+03    0.17162E-05   -0.57792E-08   953   0.586E-04    0.783E-05
RMM:  18    -0.413214516257E+03    0.15437E-05   -0.40712E-08   842   0.562E-04    0.374E-05
RMM:  19    -0.413214515722E+03    0.53523E-06   -0.26294E-08   725   0.537E-04
   47 T=    71. E= -.41286640E+03 F= -.41321452E+03 E0= -.41319361E+03  EK= 0.34811E+00 SP= 0.00E+00 SK= 0.00E+00
       N       E                     dE             d eps       ncg     rms          rms(c)
RMM:   1    -0.413259675756E+03   -0.45159E-01   -0.13490E+01  4304   0.195E+00    0.971E-01
RMM:   2    -0.413212332599E+03    0.47343E-01   -0.20845E-01  4488   0.212E-01    0.688E-01
RMM:   3    -0.413236944906E+03   -0.24612E-01   -0.29136E-02  5161   0.153E-01    0.712E-01
RMM:   4    -0.413220394745E+03    0.16550E-01   -0.37202E-02  4958   0.174E-01    0.431E-01
RMM:   5    -0.413212180875E+03    0.82139E-02   -0.44865E-03  4568   0.902E-02    0.539E-02
RMM:   6    -0.413212010679E+03    0.17020E-03   -0.44936E-04  4684   0.278E-02    0.201E-02
RMM:   7    -0.413212012370E+03   -0.16916E-05   -0.11146E-04  5845   0.104E-02    0.133E-02
RMM:   8    -0.413212004751E+03    0.76189E-05   -0.21050E-05  4454   0.486E-03    0.979E-03
RMM:   9    -0.413211990092E+03    0.14660E-04   -0.75484E-06  3243   0.413E-03    0.526E-03
RMM:  10    -0.413211981991E+03    0.81008E-05   -0.27339E-06  2641   0.275E-03    0.226E-03
RMM:  11    -0.413211975847E+03    0.61442E-05   -0.20947E-06  2570   0.221E-03    0.138E-03
RMM:  12    -0.413211970549E+03    0.52976E-05   -0.78273E-07  2435   0.155E-03    0.777E-04
RMM:  13    -0.413211966510E+03    0.40389E-05   -0.36513E-07  2256   0.102E-03    0.438E-04
RMM:  14    -0.413211962525E+03    0.39858E-05   -0.19062E-07  1513   0.745E-04    0.232E-04
RMM:  15    -0.413211957198E+03    0.53266E-05   -0.14584E-07  1396   0.708E-04    0.120E-04
RMM:  16    -0.413211954079E+03    0.31194E-05   -0.89837E-08  1200   0.633E-04    0.113E-04
RMM:  17    -0.413211951417E+03    0.26617E-05   -0.60383E-08  1058   0.591E-04    0.789E-05
RMM:  18    -0.413211949089E+03    0.23274E-05   -0.43622E-08   974   0.573E-04    0.414E-05
RMM:  19    -0.413211948367E+03    0.72278E-06   -0.20978E-08   729   0.536E-04
   48 T=    70. E= -.41286643E+03 F= -.41321195E+03 E0= -.41319106E+03  EK= 0.34552E+00 SP= 0.00E+00 SK= 0.00E+00
       N       E                     dE             d eps       ncg     rms          rms(c)
RMM:   1    -0.413260565059E+03   -0.48616E-01   -0.13346E+01  4304   0.207E+00    0.961E-01
RMM:   2    -0.413207059543E+03    0.53506E-01   -0.20419E-01  4511   0.223E-01    0.676E-01
[...]
RMM:   1    -0.413151908805E+03    0.82159E-02   -0.10584E+01  4266   0.826E-01    0.872E-01
RMM:   2    -0.413161876924E+03   -0.99681E-02   -0.12643E-01  4301   0.987E-02    0.618E-01
RMM:   3    -0.413161155796E+03    0.72113E-03   -0.67053E-03  5030   0.443E-02    0.182E-01
RMM:   4    -0.413201118904E+03   -0.39963E-01   -0.43597E-02  5150   0.173E-01    0.831E-01
RMM:   5    -0.413160383832E+03    0.40735E-01   -0.19743E-02  4798   0.140E-01    0.520E-02
RMM:   6    -0.413160433275E+03   -0.49443E-04   -0.32626E-03  5708   0.538E-02    0.159E-02
RMM:   7    -0.413160471181E+03   -0.37906E-04   -0.38880E-04  5956   0.158E-02    0.125E-02
RMM:   8    -0.413160477219E+03   -0.60383E-05   -0.44388E-05  4565   0.593E-03    0.722E-03
RMM:   9    -0.413160480679E+03   -0.34598E-05   -0.74334E-06  3041   0.310E-03    0.361E-03
RMM:  10    -0.413160484713E+03   -0.40334E-05   -0.23052E-06  2569   0.201E-03    0.208E-03
RMM:  11    -0.413160488561E+03   -0.38483E-05   -0.10539E-06  2478   0.149E-03    0.103E-03
RMM:  12    -0.413160491456E+03   -0.28949E-05   -0.67589E-07  2291   0.117E-03    0.335E-04
RMM:  13    -0.413160492462E+03   -0.10061E-05   -0.30479E-07  1779   0.877E-04    0.223E-04
RMM:  14    -0.413160493941E+03   -0.14789E-05   -0.29754E-07  1535   0.823E-04    0.129E-04
RMM:  15    -0.413160494657E+03   -0.71627E-06   -0.20598E-07  1459   0.742E-04
  136 T=    60. E= -.41286587E+03 F= -.41316049E+03 E0= -.41313977E+03  EK= 0.29462E+00 SP= 0.00E+00 SK= 0.00E+00
       N       E                     dE             d eps       ncg     rms          rms(c)
RMM:   1    -0.413152231824E+03    0.82621E-02   -0.10471E+01  4266   0.824E-01    0.878E-01
RMM:   2    -0.413161249595E+03   -0.90178E-02   -0.12447E-01  4301   0.993E-02    0.610E-01
RMM:   3    -0.413160768150E+03    0.48145E-03   -0.70039E-03  5022   0.424E-02    0.173E-01
RMM:   4    -0.413197020784E+03   -0.36253E-01   -0.38677E-02  5147   0.164E-01    0.792E-01
RMM:   5    -0.413160161101E+03    0.36860E-01   -0.18020E-02  4807   0.133E-01    0.506E-02
RMM:   6    -0.413160196735E+03   -0.35634E-04   -0.29589E-03  5716   0.513E-02    0.188E-02
RMM:   7    -0.413160225149E+03   -0.28414E-04   -0.35861E-04  5913   0.153E-02    0.131E-02
RMM:   8    -0.413160227131E+03   -0.19825E-05   -0.43146E-05  4741   0.621E-03    0.697E-03
RMM:   9    -0.413160226353E+03    0.77836E-06   -0.81192E-06  3135   0.320E-03
  137 T=    60. E= -.41286558E+03 F= -.41316023E+03 E0= -.41313952E+03  EK= 0.29465E+00 SP= 0.00E+00 SK= 0.00E+00
       N       E                     dE             d eps       ncg     rms          rms(c)
RMM:   1    -0.413153052939E+03    0.71742E-02   -0.10312E+01  4276   0.824E-01    0.853E-01
RMM:   2    -0.413162855429E+03   -0.98025E-02   -0.12500E-01  4307   0.985E-02    0.615E-01
RMM:   3    -0.413163379029E+03   -0.52360E-03   -0.82188E-03  5148   0.567E-02    0.239E-01
RMM:   4    -0.413198016840E+03   -0.34638E-01   -0.45414E-02  5120   0.178E-01    0.792E-01
RMM:   5    -0.413161251445E+03    0.36765E-01   -0.16931E-02  4779   0.133E-01    0.611E-02
RMM:   6    -0.413161175752E+03    0.75693E-04   -0.27223E-03  5560   0.512E-02    0.185E-02
RMM:   7    -0.413161217097E+03   -0.41345E-04   -0.39750E-04  6081   0.170E-02    0.134E-02
RMM:   8    -0.413161224956E+03   -0.78585E-05   -0.55504E-05  5320   0.722E-03    0.757E-03
RMM:   9    -0.413161230145E+03   -0.51894E-05   -0.10986E-05  3542   0.385E-03    0.373E-03
RMM:  10    -0.413161233541E+03   -0.33956E-05   -0.20780E-06  2572   0.206E-03    0.220E-03
RMM:  11    -0.413161239140E+03   -0.55992E-05   -0.16248E-06  2558   0.185E-03    0.144E-03
RMM:  12    -0.413161242141E+03   -0.30010E-05   -0.81537E-07  2487   0.135E-03    0.623E-04
RMM:  13    -0.413161243759E+03   -0.16187E-05   -0.40870E-07  1791   0.924E-04    0.343E-04
RMM:  14    -0.413161244871E+03   -0.11112E-05   -0.27626E-07  1460   0.807E-04    0.184E-04
RMM:  15    -0.413161245921E+03   -0.10506E-05   -0.36369E-07  1846   0.856E-04    0.221E-04
RMM:  16    -0.413161246115E+03   -0.19362E-06   -0.17198E-07  1272   0.659E-04
  138 T=    60. E= -.41286595E+03 F= -.41316125E+03 E0= -.41314055E+03  EK= 0.29530E+00 SP= 0.00E+00 SK= 0.00E+00
       N       E                     dE             d eps       ncg     rms          rms(c)
RMM:   1    -0.413153796115E+03    0.74498E-02   -0.10250E+01  4264   0.825E-01    0.864E-01
RMM:   2    -0.413163283904E+03   -0.94878E-02   -0.12410E-01  4290   0.102E-01    0.622E-01
RMM:   3    -0.413161508168E+03    0.17757E-02   -0.71783E-03  4842   0.412E-02    0.139E-01
RMM:   4    -0.413182885833E+03   -0.21378E-01   -0.22088E-02  5151   0.124E-01    0.611E-01
RMM:   5    -0.413161240099E+03    0.21646E-01   -0.10853E-02  4817   0.102E-01    0.412E-02
RMM:   6    -0.413161251597E+03   -0.11498E-04   -0.17791E-03  5719   0.401E-02    0.202E-02
RMM:   7    -0.413161271128E+03   -0.19531E-04   -0.22238E-04  5658   0.124E-02    0.113E-02
RMM:   8    -0.413161277834E+03   -0.67059E-05   -0.32303E-05  4584   0.572E-03    0.574E-03
RMM:   9    -0.413161279963E+03   -0.21287E-05   -0.59433E-06  3036   0.291E-03    0.307E-03
RMM:  10    -0.413161283761E+03   -0.37981E-05   -0.17337E-06  2543   0.189E-03    0.204E-03
RMM:  11    -0.413161287577E+03   -0.38158E-05   -0.10376E-06  2493   0.149E-03    0.904E-04
RMM:  12    -0.413161289964E+03   -0.23875E-05   -0.64626E-07  2241   0.114E-03    0.342E-04
RMM:  13    -0.413161290872E+03   -0.90776E-06   -0.32241E-07  1709   0.863E-04
  139 T=    60. E= -.41286561E+03 F= -.41316129E+03 E0= -.41314061E+03  EK= 0.29568E+00 SP= 0.00E+00 SK= 0.00E+00
       N       E                     dE             d eps       ncg     rms          rms(c)
RMM:   1    -0.413155060154E+03    0.62298E-02   -0.10091E+01  4267   0.819E-01    0.880E-01
RMM:   2    -0.413163201817E+03   -0.81417E-02   -0.12067E-01  4297   0.101E-01    0.616E-01
RMM:   3    -0.413161711593E+03    0.14902E-02   -0.78084E-03  4839   0.367E-02    0.136E-01
RMM:   4    -0.413174974312E+03   -0.13263E-01   -0.13874E-02  5160   0.989E-02    0.483E-01
RMM:   5    -0.413161608020E+03    0.13366E-01   -0.67823E-03  4828   0.807E-02    0.402E-02
RMM:   6    -0.413161599325E+03    0.86950E-05   -0.11757E-03  5669   0.332E-02    0.236E-02
RMM:   7    -0.413161606576E+03   -0.72505E-05   -0.17895E-04  5606   0.114E-02    0.104E-02
RMM:   8    -0.413161606352E+03    0.22383E-06   -0.29833E-05  4723   0.576E-03    0.583E-03
RMM:   9    -0.413161605443E+03    0.90939E-06   -0.38044E-06  2828   0.254E-03
  140 T=    60. E= -.41286564E+03 F= -.41316161E+03 E0= -.41314093E+03  EK= 0.29597E+00 SP= 0.00E+00 SK= 0.00E+00
       N       E                     dE             d eps       ncg     rms          rms(c)
RMM:   1    -0.413156091585E+03    0.55148E-02   -0.98400E+00  4270   0.822E-01    0.855E-01
RMM:   2    -0.413164350673E+03   -0.82591E-02   -0.11913E-01  4303   0.986E-02    0.616E-01
RMM:   3    -0.413162886298E+03    0.14644E-02   -0.84220E-03  5003   0.470E-02    0.156E-01
RMM:   4    -0.413199089836E+03   -0.36204E-01   -0.39218E-02  5142   0.165E-01    0.791E-01
RMM:   5    -0.413162205665E+03    0.36884E-01   -0.18028E-02  4809   0.133E-01    0.568E-02
RMM:   6    -0.413162217478E+03   -0.11813E-04   -0.30237E-03  5676   0.521E-02    0.244E-02
RMM:   7    -0.413162250594E+03   -0.33115E-04   -0.39965E-04  6013   0.164E-02    0.147E-02
RMM:   8    -0.413162255568E+03   -0.49748E-05   -0.62138E-05  5291   0.793E-03    0.821E-03
RMM:   9    -0.413162255255E+03    0.31349E-06   -0.10838E-05  3478   0.374E-03    0.360E-03
RMM:  10    -0.413162257399E+03   -0.21436E-05   -0.30315E-06  2655   0.233E-03    0.253E-03
RMM:  11    -0.413162259268E+03   -0.18693E-05   -0.14937E-06  2536   0.185E-03    0.138E-03
RMM:  12    -0.413162260120E+03   -0.85215E-06   -0.88292E-07  2490   0.138E-03
  141 T=    60. E= -.41286572E+03 F= -.41316226E+03 E0= -.41314160E+03  EK= 0.29654E+00 SP= 0.00E+00 SK= 0.00E+00
       N       E                     dE             d eps       ncg     rms          rms(c)
RMM:   1    -0.413156845654E+03    0.54136E-02   -0.97169E+00  4271   0.811E-01    0.858E-01
RMM:   2    -0.413165101279E+03   -0.82556E-02   -0.11894E-01  4298   0.985E-02    0.627E-01
RMM:   3    -0.413162484360E+03    0.26169E-02   -0.90861E-03  4613   0.383E-02    0.982E-02
RMM:   4    -0.413163937088E+03   -0.14527E-02   -0.21475E-03  5180   0.386E-02    0.162E-01
RMM:   5    -0.413162494093E+03    0.14430E-02   -0.79827E-04  4851   0.285E-02    0.350E-02
RMM:   6    -0.413162480005E+03    0.14088E-04   -0.24114E-04  5391   0.163E-02    0.241E-02
RMM:   7    -0.413162494073E+03   -0.14067E-04   -0.13633E-04  5112   0.859E-03    0.130E-02
RMM:   8    -0.413162491854E+03    0.22191E-05   -0.13696E-05  4064   0.446E-03    0.633E-03
RMM:   9    -0.413162492909E+03   -0.10552E-05   -0.28770E-06  2525   0.190E-03    0.275E-03
RMM:  10    -0.413162497914E+03   -0.50050E-05   -0.14915E-06  2522   0.167E-03    0.128E-03
RMM:  11    -0.413162500432E+03   -0.25184E-05   -0.77671E-07  2315   0.125E-03    0.596E-04
RMM:  12    -0.413162501917E+03   -0.14850E-05   -0.46922E-07  2010   0.970E-04    0.369E-04
RMM:  13    -0.413162502588E+03   -0.67080E-06   -0.35012E-07  1650   0.818E-04
  142 T=    60. E= -.41286545E+03 F= -.41316250E+03 E0= -.41314185E+03  EK= 0.29706E+00 SP= 0.00E+00 SK= 0.00E+00
       N       E                     dE             d eps       ncg     rms          rms(c)
RMM:   1    -0.413158885245E+03    0.36167E-02   -0.95025E+00  4264   0.807E-01    0.878E-01
RMM:   2    -0.413165598045E+03   -0.67128E-02   -0.11468E-01  4298   0.961E-02    0.623E-01
RMM:   3    -0.413163231278E+03    0.23668E-02   -0.10004E-02  4577   0.402E-02    0.104E-01
RMM:   4    -0.413163475271E+03   -0.24399E-03   -0.10826E-03  5165   0.264E-02    0.744E-02
RMM:   5    -0.413163269285E+03    0.20599E-03   -0.25347E-04  4904   0.166E-02    0.445E-02
RMM:   6    -0.413163219707E+03    0.49577E-04   -0.21823E-04  5170   0.153E-02    0.273E-02
RMM:   7    -0.413163209442E+03    0.10265E-04   -0.15074E-04  4716   0.939E-03    0.148E-02
RMM:   8    -0.413163205364E+03    0.40779E-05   -0.99052E-06  3538   0.405E-03    0.667E-03
RMM:   9    -0.413163205604E+03   -0.24007E-06   -0.40280E-06  2512   0.211E-03
  143 T=    61. E= -.41286566E+03 F= -.41316321E+03 E0= -.41314257E+03  EK= 0.29755E+00 SP= 0.00E+00 SK= 0.00E+00
       N       E                     dE             d eps       ncg     rms          rms(c)
RMM:   1    -0.413159623918E+03    0.35814E-02   -0.91929E+00  4264   0.799E-01    0.859E-01
RMM:   2    -0.413166346756E+03   -0.67228E-02   -0.11205E-01  4298   0.959E-02    0.620E-01
RMM:   3    -0.413163510449E+03    0.28363E-02   -0.10781E-02  4521   0.401E-02    0.879E-02
RMM:   4    -0.413163841738E+03   -0.33129E-03   -0.97793E-04  5211   0.242E-02    0.837E-02
RMM:   5    -0.413163537331E+03    0.30441E-03   -0.26572E-04  4904   0.167E-02    0.402E-02
RMM:   6    -0.413163518669E+03    0.18662E-04   -0.22727E-04  5266   0.155E-02    0.276E-02
RMM:   7    -0.413163506439E+03    0.12230E-04   -0.16558E-04  4742   0.997E-03    0.160E-02
RMM:   8    -0.413163502312E+03    0.41272E-05   -0.11538E-05  3647   0.414E-03    0.706E-03
RMM:   9    -0.413163502947E+03   -0.63505E-06   -0.50164E-06  2546   0.224E-03
  144 T=    61. E= -.41286544E+03 F= -.41316350E+03 E0= -.41314287E+03  EK= 0.29806E+00 SP= 0.00E+00 SK= 0.00E+00
       N       E                     dE             d eps       ncg     rms          rms(c)
RMM:   1    -0.413161169621E+03    0.23327E-02   -0.90197E+00  4264   0.792E-01    0.857E-01
RMM:   2    -0.413167591131E+03   -0.64215E-02   -0.11104E-01  4301   0.957E-02    0.632E-01
RMM:   3    -0.413164108953E+03    0.34822E-02   -0.12866E-02  4582   0.421E-02    0.634E-02
RMM:   4    -0.413165321943E+03   -0.12130E-02   -0.16425E-03  5209   0.347E-02    0.151E-01
RMM:   5    -0.413164122797E+03    0.11991E-02   -0.69047E-04  4847   0.267E-02    0.389E-02
RMM:   6    -0.413164116214E+03    0.65825E-05   -0.29835E-04  5407   0.178E-02    0.278E-02
RMM:   7    -0.413164121819E+03   -0.56047E-05   -0.18492E-04  4958   0.103E-02    0.170E-02
RMM:   8    -0.413164117006E+03    0.48123E-05   -0.15435E-05  3936   0.443E-03    0.728E-03
RMM:   9    -0.413164118137E+03   -0.11307E-05   -0.52787E-06  2571   0.230E-03    0.264E-03
RMM:  10    -0.413164121155E+03   -0.30178E-05   -0.16710E-06  2529   0.190E-03    0.150E-03
RMM:  11    -0.413164122741E+03   -0.15860E-05   -0.10384E-06  2456   0.149E-03    0.789E-04
RMM:  12    -0.413164122888E+03   -0.14731E-06   -0.49782E-07  2082   0.105E-03
  145 T=    61. E= -.41286526E+03 F= -.41316412E+03 E0= -.41314350E+03  EK= 0.29886E+00 SP= 0.00E+00 SK= 0.00E+00
       N       E                     dE             d eps       ncg     rms          rms(c)
RMM:   1    -0.413163426677E+03    0.69606E-03   -0.87620E+00  4264   0.788E-01    0.876E-01
RMM:   2    -0.413168368964E+03   -0.49423E-02   -0.10734E-01  4297   0.934E-02    0.631E-01
RMM:   3    -0.413164978967E+03    0.33900E-02   -0.13933E-02  4645   0.410E-02    0.687E-02
RMM:   4    -0.413165766163E+03   -0.78720E-03   -0.13327E-03  5216   0.317E-02    0.124E-01
RMM:   5    -0.413165001608E+03    0.76456E-03   -0.51569E-04  4888   0.233E-02    0.436E-02
RMM:   6    -0.413164980407E+03    0.21202E-04   -0.32547E-04  5283   0.186E-02    0.302E-02
RMM:   7    -0.413164968886E+03    0.11521E-04   -0.18521E-04  4796   0.104E-02    0.172E-02
RMM:   8    -0.413164963165E+03    0.57204E-05   -0.14186E-05  3862   0.434E-03    0.759E-03
RMM:   9    -0.413164962885E+03    0.28042E-06   -0.61733E-06  2594   0.244E-03
  146 T=    61. E= -.41286549E+03 F= -.41316496E+03 E0= -.41314435E+03  EK= 0.29948E+00 SP= 0.00E+00 SK= 0.00E+00
       N       E                     dE             d eps       ncg     rms          rms(c)
RMM:   1    -0.413164303921E+03    0.65924E-03   -0.84368E+00  4265   0.778E-01    0.868E-01
RMM:   2    -0.413168581664E+03   -0.42777E-02   -0.10408E-01  4303   0.920E-02    0.627E-01
RMM:   3    -0.413165182419E+03    0.33992E-02   -0.15640E-02  4840   0.453E-02    0.830E-02
RMM:   4    -0.413179784622E+03   -0.14602E-01   -0.15237E-02  5150   0.104E-01    0.509E-01
RMM:   5    -0.413164983669E+03    0.14801E-01   -0.74705E-03  4841   0.841E-02    0.488E-02
RMM:   6    -0.413164985436E+03   -0.17671E-05   -0.13659E-03  5674   0.357E-02    0.320E-02
RMM:   7    -0.413164981956E+03    0.34796E-05   -0.28451E-04  5690   0.145E-02    0.161E-02
RMM:   8    -0.413164977520E+03    0.44357E-05   -0.36448E-05  5122   0.665E-03    0.720E-03
RMM:   9    -0.413164975390E+03    0.21308E-05   -0.55176E-06  3010   0.286E-03    0.400E-03
RMM:  10    -0.413164972584E+03    0.28051E-05   -0.17681E-06  2537   0.208E-03    0.226E-03
RMM:  11    -0.413164969237E+03    0.33472E-05   -0.96994E-07  2499   0.156E-03    0.116E-03
RMM:  12    -0.413164965369E+03    0.38687E-05   -0.66528E-07  2397   0.126E-03    0.605E-04
RMM:  13    -0.413164962410E+03    0.29586E-05   -0.36502E-07  2022   0.959E-04    0.328E-04
RMM:  14    -0.413164959896E+03    0.25140E-05   -0.21681E-07  1599   0.791E-04    0.246E-04
RMM:  15    -0.413164955481E+03    0.44146E-05   -0.21408E-07  1653   0.777E-04    0.161E-04
RMM:  16    -0.413164951401E+03    0.40807E-05   -0.15586E-07  1458   0.697E-04    0.115E-04
RMM:  17    -0.413164950126E+03    0.12744E-05   -0.66676E-08  1011   0.566E-04    0.729E-05
RMM:  18    -0.413164947402E+03    0.27244E-05   -0.66976E-08  1152   0.592E-04    0.404E-05
RMM:  19    -0.413164946997E+03    0.40471E-06   -0.25815E-08   779   0.519E-04
  147 T=    61. E= -.41286515E+03 F= -.41316495E+03 E0= -.41314434E+03  EK= 0.29979E+00 SP= 0.00E+00 SK= 0.00E+00
       N       E                     dE             d eps       ncg     rms          rms(c)
RMM:   1    -0.413166166103E+03   -0.12187E-02   -0.82137E+00  4264   0.770E-01    0.858E-01
RMM:   2    -0.413170238690E+03   -0.40726E-02   -0.10223E-01  4299   0.917E-02    0.635E-01
RMM:   3    -0.413166371083E+03    0.38676E-02   -0.19201E-02  4860   0.501E-02    0.907E-02
RMM:   4    -0.413182939313E+03   -0.16568E-01   -0.17722E-02  5143   0.112E-01    0.543E-01
RMM:   5    -0.413166006281E+03    0.16933E-01   -0.84005E-03  4834   0.894E-02    0.505E-02
RMM:   6    -0.413166007685E+03   -0.14037E-05   -0.15292E-03  5643   0.374E-02    0.310E-02
RMM:   7    -0.413166023264E+03   -0.15580E-04   -0.29330E-04  5761   0.144E-02    0.157E-02
RMM:   8    -0.413166022818E+03    0.44655E-06   -0.37573E-05  5105   0.677E-03    0.712E-03
RMM:   9    -0.413166022952E+03   -0.13450E-06   -0.58326E-06  3063   0.292E-03
  148 T=    61. E= -.41286535E+03 F= -.41316602E+03 E0= -.41314542E+03  EK= 0.30068E+00 SP= 0.00E+00 SK= 0.00E+00
       N       E                     dE             d eps       ncg     rms          rms(c)
RMM:   1    -0.413168317945E+03   -0.22951E-02   -0.79504E+00  4268   0.757E-01    0.875E-01
RMM:   2    -0.413171317833E+03   -0.29999E-02   -0.98804E-02  4309   0.909E-02    0.638E-01
RMM:   3    -0.413168459617E+03    0.28582E-02   -0.22116E-02  5063   0.638E-02    0.180E-01
RMM:   4    -0.413200615251E+03   -0.32156E-01   -0.39881E-02  5109   0.168E-01    0.759E-01
RMM:   5    -0.413166725338E+03    0.33890E-01   -0.15812E-02  4810   0.126E-01    0.658E-02
RMM:   6    -0.413166709436E+03    0.15902E-04   -0.26789E-03  5577   0.509E-02    0.314E-02
RMM:   7    -0.413166744175E+03   -0.34739E-04   -0.45760E-04  6058   0.183E-02    0.193E-02
RMM:   8    -0.413166741611E+03    0.25634E-05   -0.79073E-05  5408   0.976E-03    0.929E-03
RMM:   9    -0.413166738301E+03    0.33106E-05   -0.11503E-05  3734   0.414E-03    0.412E-03
RMM:  10    -0.413166737595E+03    0.70549E-06   -0.27307E-06  2650   0.237E-03
  149 T=    61. E= -.41286542E+03 F= -.41316674E+03 E0= -.41314614E+03  EK= 0.30132E+00 SP= 0.00E+00 SK= 0.00E+00
       N       E                     dE             d eps       ncg     rms          rms(c)
RMM:   1    -0.413169637058E+03   -0.28988E-02   -0.76338E+00  4277   0.749E-01    0.878E-01
RMM:   2    -0.413171805363E+03   -0.21683E-02   -0.95565E-02  4300   0.902E-02    0.634E-01
RMM:   3    -0.413167622956E+03    0.41824E-02   -0.22973E-02  4947   0.558E-02    0.121E-01
RMM:   4    -0.413191908354E+03   -0.24285E-01   -0.26854E-02  5127   0.138E-01    0.656E-01
RMM:   5    -0.413166905482E+03    0.25003E-01   -0.12169E-02  4823   0.108E-01    0.574E-02
RMM:   6    -0.413166914765E+03   -0.92834E-05   -0.21535E-03  5658   0.450E-02    0.327E-02
RMM:   7    -0.413166921907E+03   -0.71415E-05   -0.36882E-04  5917   0.168E-02    0.182E-02
RMM:   8    -0.413166916975E+03    0.49321E-05   -0.55661E-05  5323   0.827E-03    0.832E-03
RMM:   9    -0.413166912924E+03    0.40511E-05   -0.87643E-06  3354   0.349E-03    0.422E-03
RMM:  10    -0.413166909051E+03    0.38720E-05   -0.24697E-06  2606   0.231E-03    0.262E-03
RMM:  11    -0.413166904622E+03    0.44298E-05   -0.11116E-06  2508   0.170E-03    0.139E-03
RMM:  12    -0.413166898743E+03    0.58787E-05   -0.74652E-07  2459   0.137E-03    0.683E-04
RMM:  13    -0.413166895229E+03    0.35135E-05   -0.36529E-07  2069   0.999E-04    0.390E-04
RMM:  14    -0.413166891603E+03    0.36267E-05   -0.23456E-07  1690   0.832E-04    0.254E-04
RMM:  15    -0.413166886894E+03    0.47091E-05   -0.17685E-07  1528   0.759E-04    0.173E-04
RMM:  16    -0.413166880887E+03    0.60064E-05   -0.16873E-07  1552   0.740E-04    0.133E-04
RMM:  17    -0.413166878948E+03    0.19394E-05   -0.73127E-08  1122   0.597E-04    0.967E-05
RMM:  18    -0.413166876310E+03    0.26377E-05   -0.56708E-08  1120   0.588E-04    0.347E-05
RMM:  19    -0.413166875141E+03    0.11695E-05   -0.33429E-08   947   0.539E-04    0.344E-05
RMM:  20    -0.413166874679E+03    0.46217E-06   -0.19694E-08   787   0.512E-04
  150 T=    61. E= -.41286516E+03 F= -.41316687E+03 E0= -.41314628E+03  EK= 0.30172E+00 SP= 0.00E+00 SK= 0.00E+00
