       N       E                     dE             d eps       ncg     rms          rms(c)
RMM:   1     0.220130255765E+04    0.22013E+04   -0.52440E+04  2132   0.654E+02
RMM:   2     0.705140335132E+03   -0.14962E+04   -0.16263E+04  2132   0.177E+02
RMM:   3     0.137791492885E+03   -0.56735E+03   -0.65676E+03  2132   0.117E+02
RMM:   4    -0.159302982249E+03   -0.29709E+03   -0.27866E+03  2132   0.937E+01
RMM:   5    -0.287307494774E+03   -0.12800E+03   -0.11430E+03  2132   0.595E+01
RMM:   6    -0.349755423807E+03   -0.62448E+02   -0.55167E+02  2132   0.423E+01
RMM:   7    -0.382718995748E+03   -0.32964E+02   -0.30463E+02  2132   0.293E+01
RMM:   8    -0.404182709637E+03   -0.21464E+02   -0.18441E+02  2132   0.233E+01
RMM:   9    -0.435976128010E+03   -0.31793E+02   -0.30726E+02  6106   0.173E+01
RMM:  10    -0.441302737807E+03   -0.53266E+01   -0.63809E+01  6392   0.539E+00
RMM:  11    -0.442491614099E+03   -0.11889E+01   -0.11098E+01  6220   0.173E+00
RMM:  12    -0.442868659840E+03   -0.37705E+00   -0.26130E+00  6366   0.601E-01    0.134E+02
RMM:  13    -0.425586487541E+03    0.17282E+02   -0.81190E+01  4676   0.119E+01    0.712E+01
RMM:  14    -0.499147531404E+03   -0.73561E+02   -0.54005E+02  5413   0.232E+01    0.306E+01
RMM:  15    -0.414095564170E+03    0.85052E+02   -0.19414E+02  5056   0.162E+01    0.596E+00
RMM:  16    -0.414067097158E+03    0.28467E-01   -0.38910E+01  6072   0.600E+00    0.429E+00
RMM:  17    -0.413225388407E+03    0.84171E+00   -0.22529E+00  5325   0.180E+00    0.247E+00
RMM:  18    -0.413164035626E+03    0.61353E-01   -0.93976E-01  5938   0.100E+00    0.156E+00
RMM:  19    -0.413168773669E+03   -0.47380E-02   -0.29348E-01  5745   0.572E-01    0.859E-01
RMM:  20    -0.413181230575E+03   -0.12457E-01   -0.17507E-01  5272   0.472E-01    0.505E-01
RMM:  21    -0.413167404294E+03    0.13826E-01   -0.31421E-02  5009   0.218E-01    0.240E-01
RMM:  22    -0.413166127835E+03    0.12765E-02   -0.12026E-02  6112   0.913E-02    0.154E-01
RMM:  23    -0.413164340452E+03    0.17874E-02   -0.50383E-03  5801   0.670E-02    0.809E-02
RMM:  24    -0.413162902684E+03    0.14378E-02   -0.19832E-03  5702   0.440E-02    0.327E-02
RMM:  25    -0.413162766538E+03    0.13615E-03   -0.72345E-04  5890   0.224E-02    0.268E-02
RMM:  26    -0.413163025982E+03   -0.25944E-03   -0.45174E-04  5742   0.228E-02    0.274E-02
RMM:  27    -0.413163470956E+03   -0.44497E-03   -0.17257E-04  4540   0.188E-02    0.142E-02
RMM:  28    -0.413163989650E+03   -0.51869E-03   -0.17722E-04  5108   0.198E-02    0.885E-03
RMM:  29    -0.413164315009E+03   -0.32536E-03   -0.93429E-05  4367   0.133E-02    0.363E-03
RMM:  30    -0.413164525124E+03   -0.21011E-03   -0.71842E-05  4057   0.974E-03    0.261E-03
RMM:  31    -0.413164609604E+03   -0.84480E-04   -0.41779E-05  3088   0.532E-03    0.174E-03
RMM:  32    -0.413164630007E+03   -0.20403E-04   -0.15948E-05  2914   0.267E-03    0.951E-04
RMM:  33    -0.413164635469E+03   -0.54618E-05   -0.74214E-06  2718   0.181E-03    0.674E-04
RMM:  34    -0.413164636230E+03   -0.76069E-06   -0.33997E-06  2370   0.130E-03
    1 T=    61. E= -.41286685E+03 F= -.41316464E+03 E0= -.41314214E+03  EK= 0.29779E+00 SP= 0.00E+00 SK= 0.00E+00
       N       E                     dE             d eps       ncg     rms          rms(c)
RMM:   1    -0.413161310367E+03    0.33251E-02   -0.94806E+00  3989   0.634E-01    0.885E-01
RMM:   2    -0.413167960652E+03   -0.66503E-02   -0.11623E-01  4075   0.929E-02    0.649E-01
RMM:   3    -0.413164563177E+03    0.33975E-02   -0.13520E-02  4729   0.459E-02    0.932E-02
RMM:   4    -0.413183602095E+03   -0.19039E-01   -0.20146E-02  5211   0.118E-01    0.577E-01
RMM:   5    -0.413164234877E+03    0.19367E-01   -0.96140E-03  4862   0.968E-02    0.446E-02
RMM:   6    -0.413164364093E+03   -0.12922E-03   -0.17179E-03  5747   0.404E-02    0.314E-02
RMM:   7    -0.413164365591E+03   -0.14986E-05   -0.34230E-04  5648   0.166E-02    0.175E-02
RMM:   8    -0.413164365370E+03    0.22121E-06   -0.36071E-05  4757   0.648E-03    0.726E-03
RMM:   9    -0.413164368887E+03   -0.35166E-05   -0.73296E-06  3174   0.286E-03    0.551E-03
RMM:  10    -0.413164374297E+03   -0.54101E-05   -0.17657E-06  2560   0.198E-03    0.324E-03
RMM:  11    -0.413164379706E+03   -0.54087E-05   -0.12468E-06  2523   0.164E-03    0.152E-03
RMM:  12    -0.413164385723E+03   -0.60170E-05   -0.11109E-06  2487   0.149E-03    0.602E-04
RMM:  13    -0.413164387270E+03   -0.15470E-05   -0.49307E-07  2122   0.104E-03    0.403E-04
RMM:  14    -0.413164387847E+03   -0.57729E-06   -0.29662E-07  1634   0.773E-04
    2 T=    61. E= -.41286669E+03 F= -.41316439E+03 E0= -.41314189E+03  EK= 0.29770E+00 SP= 0.00E+00 SK= 0.00E+00
       N       E                     dE             d eps       ncg     rms          rms(c)
RMM:   1    -0.413162333037E+03    0.20542E-02   -0.94869E+00  4192   0.640E-01    0.905E-01
RMM:   2    -0.413168035531E+03   -0.57025E-02   -0.11471E-01  4089   0.912E-02    0.644E-01
RMM:   3    -0.413165344712E+03    0.26908E-02   -0.13161E-02  4850   0.475E-02    0.121E-01
RMM:   4    -0.413194068731E+03   -0.28724E-01   -0.30167E-02  5173   0.145E-01    0.707E-01
RMM:   5    -0.413164766663E+03    0.29302E-01   -0.14141E-02  4834   0.118E-01    0.488E-02
RMM:   6    -0.413164954628E+03   -0.18796E-03   -0.24560E-03  5753   0.487E-02    0.336E-02
RMM:   7    -0.413164948119E+03    0.65094E-05   -0.43347E-04  5692   0.191E-02    0.206E-02
RMM:   8    -0.413164940195E+03    0.79238E-05   -0.59830E-05  5151   0.840E-03    0.936E-03
RMM:   9    -0.413164938426E+03    0.17695E-05   -0.12259E-05  3799   0.383E-03    0.699E-03
RMM:  10    -0.413164938645E+03   -0.21896E-06   -0.20009E-06  2587   0.220E-03
    3 T=    61. E= -.41286706E+03 F= -.41316494E+03 E0= -.41314244E+03  EK= 0.29788E+00 SP= 0.00E+00 SK= 0.00E+00
       N       E                     dE             d eps       ncg     rms          rms(c)
RMM:   1    -0.413161825926E+03    0.31125E-02   -0.94158E+00  4222   0.643E-01    0.890E-01
RMM:   2    -0.413167681179E+03   -0.58553E-02   -0.11421E-01  4233   0.909E-02    0.638E-01
RMM:   3    -0.413169726549E+03   -0.20454E-02   -0.16515E-02  5158   0.785E-02    0.312E-01
RMM:   4    -0.413190415387E+03   -0.20689E-01   -0.39519E-02  5115   0.170E-01    0.663E-01
RMM:   5    -0.413164676417E+03    0.25739E-01   -0.10067E-02  4715   0.109E-01    0.600E-02
RMM:   6    -0.413164699317E+03   -0.22900E-04   -0.19195E-03  5468   0.441E-02    0.305E-02
RMM:   7    -0.413164718365E+03   -0.19048E-04   -0.36358E-04  6013   0.171E-02    0.188E-02
RMM:   8    -0.413164714511E+03    0.38540E-05   -0.66850E-05  5201   0.924E-03    0.791E-03
RMM:   9    -0.413164712302E+03    0.22094E-05   -0.89120E-06  3529   0.376E-03    0.397E-03
RMM:  10    -0.413164713432E+03   -0.11305E-05   -0.17824E-06  2554   0.215E-03    0.258E-03
RMM:  11    -0.413164715248E+03   -0.18155E-05   -0.14898E-06  2546   0.188E-03    0.156E-03
RMM:  12    -0.413164716086E+03   -0.83820E-06   -0.76036E-07  2493   0.142E-03
    4 T=    61. E= -.41286687E+03 F= -.41316472E+03 E0= -.41314223E+03  EK= 0.29785E+00 SP= 0.00E+00 SK= 0.00E+00
       N       E                     dE             d eps       ncg     rms          rms(c)
RMM:   1    -0.413161765308E+03    0.29499E-02   -0.94741E+00  4235   0.647E-01    0.883E-01
RMM:   2    -0.413168217561E+03   -0.64523E-02   -0.11628E-01  4100   0.895E-02    0.647E-01
RMM:   3    -0.413165344884E+03    0.28727E-02   -0.13605E-02  4935   0.463E-02    0.117E-01
RMM:   4    -0.413196104445E+03   -0.30760E-01   -0.32455E-02  5144   0.150E-01    0.732E-01
RMM:   5    -0.413164668678E+03    0.31436E-01   -0.15018E-02  4814   0.122E-01    0.484E-02
RMM:   6    -0.413164866368E+03   -0.19769E-03   -0.25458E-03  5757   0.497E-02    0.317E-02
RMM:   7    -0.413164873316E+03   -0.69475E-05   -0.42419E-04  5764   0.188E-02    0.202E-02
RMM:   8    -0.413164870981E+03    0.23347E-05   -0.63999E-05  5111   0.852E-03    0.938E-03
RMM:   9    -0.413164871776E+03   -0.79512E-06   -0.12538E-05  3855   0.397E-03    0.690E-03
RMM:  10    -0.413164875824E+03   -0.40476E-05   -0.19090E-06  2579   0.216E-03    0.433E-03
RMM:  11    -0.413164879726E+03   -0.39021E-05   -0.12409E-06  2529   0.176E-03    0.232E-03
RMM:  12    -0.413164885452E+03   -0.57263E-05   -0.18348E-06  2597   0.193E-03    0.101E-03
RMM:  13    -0.413164886835E+03   -0.13828E-05   -0.53531E-07  2348   0.125E-03    0.690E-04
RMM:  14    -0.413164886831E+03    0.35798E-08   -0.22786E-07  1834   0.833E-04
    5 T=    61. E= -.41286687E+03 F= -.41316489E+03 E0= -.41314241E+03  EK= 0.29802E+00 SP= 0.00E+00 SK= 0.00E+00
       N       E                     dE             d eps       ncg     rms          rms(c)
RMM:   1    -0.413162654245E+03    0.22326E-02   -0.94986E+00  4247   0.655E-01    0.902E-01
RMM:   2    -0.413168226567E+03   -0.55723E-02   -0.11516E-01  4121   0.920E-02    0.646E-01
RMM:   3    -0.413165599553E+03    0.26270E-02   -0.13157E-02  4823   0.436E-02    0.109E-01
RMM:   4    -0.413188904968E+03   -0.23305E-01   -0.24020E-02  5150   0.129E-01    0.639E-01
RMM:   5    -0.413165179627E+03    0.23725E-01   -0.11502E-02  4820   0.106E-01    0.459E-02
RMM:   6    -0.413165341556E+03   -0.16193E-03   -0.20394E-03  5767   0.437E-02    0.315E-02
RMM:   7    -0.413165336044E+03    0.55118E-05   -0.37181E-04  5635   0.182E-02    0.195E-02
RMM:   8    -0.413165327544E+03    0.84997E-05   -0.51504E-05  4972   0.798E-03    0.907E-03
RMM:   9    -0.413165326225E+03    0.13194E-05   -0.10081E-05  3576   0.359E-03    0.693E-03
RMM:  10    -0.413165326693E+03   -0.46886E-06   -0.17191E-06  2549   0.217E-03
    6 T=    61. E= -.41286697E+03 F= -.41316533E+03 E0= -.41314286E+03  EK= 0.29836E+00 SP= 0.00E+00 SK= 0.00E+00
       N       E                     dE             d eps       ncg     rms          rms(c)
RMM:   1    -0.413162299686E+03    0.30265E-02   -0.94527E+00  4255   0.657E-01    0.897E-01
RMM:   2    -0.413167999820E+03   -0.57001E-02   -0.11457E-01  4246   0.901E-02    0.639E-01
RMM:   3    -0.413168957713E+03   -0.95789E-03   -0.15630E-02  5124   0.712E-02    0.278E-01
RMM:   4    -0.413194600852E+03   -0.25643E-01   -0.41376E-02  5107   0.172E-01    0.709E-01
RMM:   5    -0.413165024786E+03    0.29576E-01   -0.12109E-02  4732   0.116E-01    0.601E-02
RMM:   6    -0.413165087742E+03   -0.62956E-04   -0.22384E-03  5526   0.472E-02    0.312E-02
RMM:   7    -0.413165107037E+03   -0.19295E-04   -0.39087E-04  6017   0.174E-02    0.190E-02
RMM:   8    -0.413165101744E+03    0.52925E-05   -0.68150E-05  5210   0.919E-03    0.810E-03
RMM:   9    -0.413165098013E+03    0.37314E-05   -0.91336E-06  3461   0.368E-03    0.418E-03
RMM:  10    -0.413165097884E+03    0.12852E-06   -0.21250E-06  2579   0.222E-03
    7 T=    61. E= -.41286661E+03 F= -.41316510E+03 E0= -.41314265E+03  EK= 0.29848E+00 SP= 0.00E+00 SK= 0.00E+00
       N       E                     dE             d eps       ncg     rms          rms(c)
RMM:   1    -0.413162512554E+03    0.25855E-02   -0.94740E+00  4261   0.662E-01    0.882E-01
RMM:   2    -0.413169101339E+03   -0.65888E-02   -0.11599E-01  4183   0.907E-02    0.645E-01
RMM:   3    -0.413166297585E+03    0.28038E-02   -0.13537E-02  4944   0.497E-02    0.130E-01
RMM:   4    -0.413200876412E+03   -0.34579E-01   -0.37106E-02  5142   0.160E-01    0.776E-01
RMM:   5    -0.413165451040E+03    0.35425E-01   -0.16866E-02  4806   0.129E-01    0.507E-02
RMM:   6    -0.413165653884E+03   -0.20284E-03   -0.28369E-03  5750   0.526E-02    0.325E-02
RMM:   7    -0.413165661806E+03   -0.79224E-05   -0.46205E-04  5810   0.193E-02    0.208E-02
RMM:   8    -0.413165659456E+03    0.23507E-05   -0.68429E-05  5182   0.882E-03    0.958E-03
RMM:   9    -0.413165658995E+03    0.46074E-06   -0.13244E-05  3901   0.408E-03    0.677E-03
RMM:  10    -0.413165661950E+03   -0.29551E-05   -0.20524E-06  2578   0.219E-03    0.428E-03
RMM:  11    -0.413165664702E+03   -0.27523E-05   -0.12257E-06  2519   0.174E-03    0.228E-03
RMM:  12    -0.413165668461E+03   -0.37585E-05   -0.18355E-06  2596   0.193E-03    0.967E-04
RMM:  13    -0.413165669494E+03   -0.10328E-05   -0.57563E-07  2362   0.127E-03    0.695E-04
RMM:  14    -0.413165669308E+03    0.18521E-06   -0.23488E-07  1840   0.840E-04
    8 T=    61. E= -.41286686E+03 F= -.41316567E+03 E0= -.41314324E+03  EK= 0.29880E+00 SP= 0.00E+00 SK= 0.00E+00
       N       E                     dE             d eps       ncg     rms          rms(c)
RMM:   1    -0.413162943327E+03    0.27262E-02   -0.95195E+00  4281   0.668E-01    0.897E-01
RMM:   2    -0.413169199445E+03   -0.62561E-02   -0.11581E-01  4199   0.929E-02    0.648E-01
RMM:   3    -0.413166135528E+03    0.30639E-02   -0.13216E-02  4796   0.454E-02    0.106E-01
RMM:   4    -0.413189739206E+03   -0.23604E-01   -0.24294E-02  5142   0.130E-01    0.643E-01
RMM:   5    -0.413165705925E+03    0.24033E-01   -0.11717E-02  4814   0.107E-01    0.452E-02
RMM:   6    -0.413165860489E+03   -0.15456E-03   -0.20038E-03  5768   0.435E-02    0.303E-02
RMM:   7    -0.413165858550E+03    0.19398E-05   -0.35582E-04  5622   0.179E-02    0.191E-02
RMM:   8    -0.413165850166E+03    0.83840E-05   -0.53917E-05  4967   0.811E-03    0.902E-03
RMM:   9    -0.413165848739E+03    0.14265E-05   -0.10905E-05  3697   0.371E-03    0.691E-03
RMM:  10    -0.413165849426E+03   -0.68641E-06   -0.16727E-06  2546   0.214E-03
    9 T=    61. E= -.41286685E+03 F= -.41316585E+03 E0= -.41314344E+03  EK= 0.29900E+00 SP= 0.00E+00 SK= 0.00E+00
       N       E                     dE             d eps       ncg     rms          rms(c)
RMM:   1    -0.413163267831E+03    0.25809E-02   -0.94967E+00  4293   0.670E-01    0.904E-01
RMM:   2    -0.413168973137E+03   -0.57053E-02   -0.11471E-01  4282   0.968E-02    0.641E-01
RMM:   3    -0.413169591084E+03   -0.61795E-03   -0.15473E-02  5097   0.716E-02    0.272E-01
RMM:   4    -0.413196148822E+03   -0.26558E-01   -0.41592E-02  5101   0.172E-01    0.718E-01
RMM:   5    -0.413165857773E+03    0.30291E-01   -0.12573E-02  4732   0.118E-01    0.594E-02
RMM:   6    -0.413165932269E+03   -0.74496E-04   -0.22921E-03  5557   0.476E-02    0.316E-02
RMM:   7    -0.413165941033E+03   -0.87639E-05   -0.38718E-04  5992   0.172E-02    0.192E-02
RMM:   8    -0.413165935326E+03    0.57072E-05   -0.67203E-05  5189   0.908E-03    0.814E-03
RMM:   9    -0.413165930396E+03    0.49295E-05   -0.93107E-06  3476   0.369E-03    0.422E-03
RMM:  10    -0.413165929114E+03    0.12829E-05   -0.22061E-06  2589   0.223E-03    0.282E-03
RMM:  11    -0.413165927271E+03    0.18423E-05   -0.12748E-06  2519   0.180E-03    0.151E-03
RMM:  12    -0.413165925347E+03    0.19247E-05   -0.79767E-07  2483   0.143E-03    0.553E-04
RMM:  13    -0.413165924351E+03    0.99576E-06   -0.39321E-07  2121   0.102E-03
   10 T=    61. E= -.41286672E+03 F= -.41316592E+03 E0= -.41314354E+03  EK= 0.29921E+00 SP= 0.00E+00 SK= 0.00E+00
       N       E                     dE             d eps       ncg     rms          rms(c)
RMM:   1    -0.413163560978E+03    0.23644E-02   -0.94699E+00  4294   0.674E-01    0.882E-01
RMM:   2    -0.413169940496E+03   -0.63795E-02   -0.11584E-01  4238   0.937E-02    0.643E-01
RMM:   3    -0.413167201540E+03    0.27390E-02   -0.13230E-02  4890   0.491E-02    0.123E-01
RMM:   4    -0.413199243566E+03   -0.32042E-01   -0.33953E-02  5134   0.153E-01    0.747E-01
RMM:   5    -0.413166485814E+03    0.32758E-01   -0.15749E-02  4800   0.124E-01    0.491E-02
RMM:   6    -0.413166685250E+03   -0.19944E-03   -0.26729E-03  5756   0.503E-02    0.325E-02
RMM:   7    -0.413166686864E+03   -0.16144E-05   -0.43375E-04  5720   0.190E-02    0.205E-02
RMM:   8    -0.413166681041E+03    0.58237E-05   -0.64942E-05  5111   0.865E-03    0.961E-03
RMM:   9    -0.413166679230E+03    0.18102E-05   -0.13008E-05  3900   0.405E-03    0.702E-03
RMM:  10    -0.413166680362E+03   -0.11318E-05   -0.19022E-06  2573   0.216E-03    0.440E-03
RMM:  11    -0.413166681552E+03   -0.11895E-05   -0.12635E-06  2517   0.178E-03    0.231E-03
RMM:  12    -0.413166683076E+03   -0.15247E-05   -0.17406E-06  2581   0.192E-03    0.981E-04
RMM:  13    -0.413166683334E+03   -0.25779E-06   -0.51425E-07  2336   0.125E-03
   11 T=    61. E= -.41286702E+03 F= -.41316668E+03 E0= -.41314432E+03  EK= 0.29967E+00 SP= 0.00E+00 SK= 0.00E+00
       N       E                     dE             d eps       ncg     rms          rms(c)
RMM:   1    -0.413163634452E+03    0.30486E-02   -0.95439E+00  4294   0.680E-01    0.893E-01
RMM:   2    -0.413169894455E+03   -0.62600E-02   -0.11663E-01  4238   0.927E-02    0.650E-01
RMM:   3    -0.413166968991E+03    0.29255E-02   -0.13362E-02  4822   0.452E-02    0.108E-01
RMM:   4    -0.413192762253E+03   -0.25793E-01   -0.26809E-02  5132   0.136E-01    0.671E-01
RMM:   5    -0.413166470602E+03    0.26292E-01   -0.12737E-02  4808   0.111E-01    0.459E-02
RMM:   6    -0.413166640326E+03   -0.16972E-03   -0.21999E-03  5793   0.451E-02    0.301E-02
RMM:   7    -0.413166643113E+03   -0.27869E-05   -0.35774E-04  5679   0.179E-02    0.192E-02
RMM:   8    -0.413166635648E+03    0.74644E-05   -0.60853E-05  4991   0.841E-03    0.939E-03
RMM:   9    -0.413166633785E+03    0.18633E-05   -0.11935E-05  3859   0.394E-03    0.713E-03
RMM:  10    -0.413166634577E+03   -0.79205E-06   -0.17245E-06  2550   0.215E-03
   12 T=    61. E= -.41286668E+03 F= -.41316663E+03 E0= -.41314430E+03  EK= 0.29995E+00 SP= 0.00E+00 SK= 0.00E+00
       N       E                     dE             d eps       ncg     rms          rms(c)
RMM:   1    -0.413164628729E+03    0.20051E-02   -0.95426E+00  4302   0.683E-01    0.908E-01
RMM:   2    -0.413169865906E+03   -0.52372E-02   -0.11542E-01  4300   0.889E-02    0.644E-01
RMM:   3    -0.413171786936E+03   -0.19210E-02   -0.16345E-02  5119   0.747E-02    0.301E-01
RMM:   4    -0.413194256138E+03   -0.22469E-01   -0.40360E-02  5093   0.170E-01    0.680E-01
RMM:   5    -0.413167151389E+03    0.27105E-01   -0.10772E-02  4699   0.111E-01    0.592E-02
RMM:   6    -0.413167200465E+03   -0.49076E-04   -0.20680E-03  5496   0.450E-02    0.315E-02
RMM:   7    -0.413167211306E+03   -0.10841E-04   -0.36505E-04  5979   0.171E-02    0.191E-02
RMM:   8    -0.413167203657E+03    0.76486E-05   -0.65521E-05  5167   0.911E-03    0.805E-03
RMM:   9    -0.413167197867E+03    0.57903E-05   -0.86008E-06  3419   0.368E-03    0.410E-03
RMM:  10    -0.413167195980E+03    0.18866E-05   -0.19672E-06  2571   0.219E-03    0.268E-03
RMM:  11    -0.413167192928E+03    0.30523E-05   -0.13342E-06  2518   0.183E-03    0.150E-03
RMM:  12    -0.413167190238E+03    0.26896E-05   -0.74289E-07  2470   0.142E-03    0.574E-04
RMM:  13    -0.413167188698E+03    0.15404E-05   -0.37745E-07  2110   0.102E-03    0.332E-04
RMM:  14    -0.413167187278E+03    0.14204E-05   -0.22693E-07  1647   0.810E-04    0.228E-04
RMM:  15    -0.413167184953E+03    0.23242E-05   -0.21444E-07  1539   0.765E-04    0.139E-04
RMM:  16    -0.413167182776E+03    0.21778E-05   -0.17276E-07  1398   0.704E-04    0.131E-04
RMM:  17    -0.413167180584E+03    0.21916E-05   -0.14560E-07  1364   0.670E-04    0.706E-05
RMM:  18    -0.413167179473E+03    0.11107E-05   -0.75363E-08  1027   0.581E-04    0.406E-05
RMM:  19    -0.413167178576E+03    0.89697E-06   -0.48985E-08   899   0.552E-04
   13 T=    61. E= -.41286670E+03 F= -.41316718E+03 E0= -.41314488E+03  EK= 0.30048E+00 SP= 0.00E+00 SK= 0.00E+00
       N       E                     dE             d eps       ncg     rms          rms(c)
RMM:   1    -0.413168241697E+03   -0.10622E-02   -0.95230E+00  4293   0.716E-01    0.885E-01
RMM:   2    -0.413170909825E+03   -0.26681E-02   -0.12118E-01  4245   0.919E-02    0.642E-01
RMM:   3    -0.413168404471E+03    0.25054E-02   -0.12721E-02  4937   0.455E-02    0.132E-01
RMM:   4    -0.413202306684E+03   -0.33902E-01   -0.36159E-02  5139   0.158E-01    0.767E-01
RMM:   5    -0.413167664654E+03    0.34642E-01   -0.16754E-02  4794   0.128E-01    0.502E-02
RMM:   6    -0.413167867908E+03   -0.20325E-03   -0.28254E-03  5747   0.518E-02    0.332E-02
RMM:   7    -0.413167868166E+03   -0.25785E-06   -0.45055E-04  5690   0.194E-02    0.210E-02
RMM:   8    -0.413167860946E+03    0.72196E-05   -0.68703E-05  5153   0.889E-03    0.987E-03
RMM:   9    -0.413167857736E+03    0.32099E-05   -0.13883E-05  4012   0.418E-03    0.710E-03
RMM:  10    -0.413167857505E+03    0.23061E-06   -0.19662E-06  2569   0.217E-03
   14 T=    61. E= -.41286681E+03 F= -.41316786E+03 E0= -.41314559E+03  EK= 0.30105E+00 SP= 0.00E+00 SK= 0.00E+00
       N       E                     dE             d eps       ncg     rms          rms(c)
RMM:   1    -0.413164826233E+03    0.30315E-02   -0.95808E+00  4306   0.693E-01    0.891E-01
RMM:   2    -0.413171412608E+03   -0.65864E-02   -0.11742E-01  4313   0.923E-02    0.652E-01
RMM:   3    -0.413173855347E+03   -0.24427E-02   -0.17820E-02  5128   0.822E-02    0.335E-01
RMM:   4    -0.413194223226E+03   -0.20368E-01   -0.42220E-02  5076   0.175E-01    0.669E-01
RMM:   5    -0.413167851439E+03    0.26372E-01   -0.10048E-02  4683   0.109E-01    0.587E-02
RMM:   6    -0.413167881016E+03   -0.29577E-04   -0.19426E-03  5453   0.434E-02    0.295E-02
RMM:   7    -0.413167900915E+03   -0.19899E-04   -0.34409E-04  5974   0.169E-02    0.182E-02
RMM:   8    -0.413167899391E+03    0.15238E-05   -0.65217E-05  5160   0.907E-03    0.768E-03
RMM:   9    -0.413167897336E+03    0.20553E-05   -0.85331E-06  3392   0.371E-03    0.385E-03
RMM:  10    -0.413167898425E+03   -0.10895E-05   -0.17626E-06  2547   0.210E-03    0.251E-03
RMM:  11    -0.413167899960E+03   -0.15350E-05   -0.14241E-06  2531   0.184E-03    0.153E-03
RMM:  12    -0.413167900412E+03   -0.45166E-06   -0.70281E-07  2464   0.139E-03
   15 T=    61. E= -.41286649E+03 F= -.41316790E+03 E0= -.41314567E+03  EK= 0.30141E+00 SP= 0.00E+00 SK= 0.00E+00
       N       E                     dE             d eps       ncg     rms          rms(c)
RMM:   1    -0.413166285915E+03    0.16140E-02   -0.95916E+00  4296   0.695E-01    0.910E-01
RMM:   2    -0.413172058751E+03   -0.57728E-02   -0.11622E-01  4256   0.948E-02    0.646E-01
RMM:   3    -0.413169594446E+03    0.24643E-02   -0.13237E-02  4923   0.497E-02    0.140E-01
RMM:   4    -0.413204843950E+03   -0.35250E-01   -0.37866E-02  5131   0.162E-01    0.782E-01
RMM:   5    -0.413168764118E+03    0.36080E-01   -0.17373E-02  4788   0.130E-01    0.514E-02
RMM:   6    -0.413168967966E+03   -0.20385E-03   -0.29648E-03  5760   0.530E-02    0.344E-02
RMM:   7    -0.413168961530E+03    0.64359E-05   -0.46862E-04  5730   0.200E-02    0.218E-02
RMM:   8    -0.413168949678E+03    0.11852E-04   -0.73062E-05  5183   0.916E-03    0.105E-02
RMM:   9    -0.413168943345E+03    0.63335E-05   -0.14370E-05  4073   0.428E-03    0.747E-03
RMM:  10    -0.413168939547E+03    0.37979E-05   -0.20965E-06  2578   0.225E-03    0.466E-03
RMM:  11    -0.413168936633E+03    0.29136E-05   -0.12656E-06  2519   0.178E-03    0.258E-03
RMM:  12    -0.413168931387E+03    0.52456E-05   -0.18678E-06  2586   0.204E-03    0.105E-03
RMM:  13    -0.413168929003E+03    0.23845E-05   -0.59833E-07  2394   0.134E-03    0.805E-04
RMM:  14    -0.413168929187E+03   -0.18365E-06   -0.24826E-07  1931   0.874E-04
   16 T=    62. E= -.41286684E+03 F= -.41316893E+03 E0= -.41314673E+03  EK= 0.30209E+00 SP= 0.00E+00 SK= 0.00E+00
       N       E                     dE             d eps       ncg     rms          rms(c)
RMM:   1    -0.413166329787E+03    0.25992E-02   -0.95271E+00  4299   0.701E-01    0.892E-01
RMM:   2    -0.413172638630E+03   -0.63088E-02   -0.11607E-01  4269   0.943E-02    0.642E-01
RMM:   3    -0.413169812746E+03    0.28259E-02   -0.12830E-02  4810   0.483E-02    0.120E-01
RMM:   4    -0.413198605965E+03   -0.28793E-01   -0.30133E-02  5124   0.144E-01    0.708E-01
RMM:   5    -0.413169230819E+03    0.29375E-01   -0.14304E-02  4801   0.117E-01    0.476E-02
RMM:   6    -0.413169405466E+03   -0.17465E-03   -0.24148E-03  5790   0.476E-02    0.316E-02
RMM:   7    -0.413169402343E+03    0.31232E-05   -0.39101E-04  5661   0.186E-02    0.199E-02
RMM:   8    -0.413169391647E+03    0.10696E-04   -0.65518E-05  5052   0.871E-03    0.978E-03
RMM:   9    -0.413169386927E+03    0.47201E-05   -0.12929E-05  3964   0.409E-03    0.730E-03
RMM:  10    -0.413169384517E+03    0.24101E-05   -0.18373E-06  2564   0.216E-03    0.453E-03
RMM:  11    -0.413169382233E+03    0.22843E-05   -0.13150E-06  2513   0.185E-03    0.232E-03
RMM:  12    -0.413169378922E+03    0.33107E-05   -0.15444E-06  2545   0.189E-03    0.952E-04
RMM:  13    -0.413169377792E+03    0.11295E-05   -0.46819E-07  2309   0.122E-03    0.606E-04
RMM:  14    -0.413169377614E+03    0.17884E-06   -0.21568E-07  1811   0.819E-04
   17 T=    62. E= -.41286673E+03 F= -.41316938E+03 E0= -.41314722E+03  EK= 0.30265E+00 SP= 0.00E+00 SK= 0.00E+00
       N       E                     dE             d eps       ncg     rms          rms(c)
RMM:   1    -0.413166775522E+03    0.26023E-02   -0.96132E+00  4296   0.705E-01    0.889E-01
RMM:   2    -0.413173337979E+03   -0.65625E-02   -0.11832E-01  4275   0.948E-02    0.653E-01
RMM:   3    -0.413170344274E+03    0.29937E-02   -0.13588E-02  4856   0.493E-02    0.117E-01
RMM:   4    -0.413201181074E+03   -0.30837E-01   -0.32542E-02  5119   0.150E-01    0.732E-01
RMM:   5    -0.413169688556E+03    0.31493E-01   -0.15261E-02  4794   0.121E-01    0.484E-02
RMM:   6    -0.413169877533E+03   -0.18898E-03   -0.25871E-03  5768   0.493E-02    0.319E-02
RMM:   7    -0.413169880023E+03   -0.24894E-05   -0.42212E-04  5667   0.187E-02    0.202E-02
RMM:   8    -0.413169873156E+03    0.68667E-05   -0.64299E-05  5096   0.862E-03    0.952E-03
RMM:   9    -0.413169870579E+03    0.25769E-05   -0.13011E-05  3914   0.406E-03    0.697E-03
RMM:  10    -0.413169870875E+03   -0.29598E-06   -0.18283E-06  2555   0.213E-03
   18 T=    62. E= -.41286660E+03 F= -.41316987E+03 E0= -.41314775E+03  EK= 0.30327E+00 SP= 0.00E+00 SK= 0.00E+00
       N       E                     dE             d eps       ncg     rms          rms(c)
RMM:   1    -0.413168828912E+03    0.10417E-02   -0.96446E+00  4301   0.723E-01    0.910E-01
RMM:   2    -0.413174054724E+03   -0.52258E-02   -0.11728E-01  4324   0.928E-02    0.650E-01
RMM:   3    -0.413176147573E+03   -0.20928E-02   -0.16765E-02  5107   0.785E-02    0.314E-01
RMM:   4    -0.413198076465E+03   -0.21929E-01   -0.41201E-02  5077   0.172E-01    0.678E-01
RMM:   5    -0.413171044828E+03    0.27032E-01   -0.10621E-02  4692   0.111E-01    0.587E-02
RMM:   6    -0.413171093288E+03   -0.48460E-04   -0.20360E-03  5484   0.446E-02    0.311E-02
RMM:   7    -0.413171101113E+03   -0.78248E-05   -0.35966E-04  5971   0.170E-02    0.192E-02
RMM:   8    -0.413171092700E+03    0.84122E-05   -0.67125E-05  5163   0.916E-03    0.808E-03
RMM:   9    -0.413171086005E+03    0.66953E-05   -0.88204E-06  3462   0.374E-03    0.405E-03
RMM:  10    -0.413171083683E+03    0.23225E-05   -0.19056E-06  2557   0.216E-03    0.264E-03
RMM:  11    -0.413171079846E+03    0.38364E-05   -0.12712E-06  2509   0.180E-03    0.149E-03
RMM:  12    -0.413171076525E+03    0.33216E-05   -0.67479E-07  2462   0.139E-03    0.552E-04
RMM:  13    -0.413171074581E+03    0.19434E-05   -0.34119E-07  2074   0.985E-04    0.321E-04
RMM:  14    -0.413171072845E+03    0.17364E-05   -0.19585E-07  1585   0.783E-04    0.222E-04
RMM:  15    -0.413171069808E+03    0.30367E-05   -0.17472E-07  1461   0.735E-04    0.131E-04
RMM:  16    -0.413171067185E+03    0.26226E-05   -0.13068E-07  1311   0.676E-04    0.123E-04
RMM:  17    -0.413171064311E+03    0.28742E-05   -0.11587E-07  1316   0.657E-04    0.687E-05
RMM:  18    -0.413171062788E+03    0.15233E-05   -0.62125E-08  1001   0.579E-04    0.412E-05
RMM:  19    -0.413171061790E+03    0.99828E-06   -0.37623E-08   863   0.549E-04
   19 T=    62. E= -.41286693E+03 F= -.41317106E+03 E0= -.41314898E+03  EK= 0.30414E+00 SP= 0.00E+00 SK= 0.00E+00
       N       E                     dE             d eps       ncg     rms          rms(c)
RMM:   1    -0.413168528948E+03    0.25338E-02   -0.95899E+00  4298   0.710E-01    0.900E-01
RMM:   2    -0.413174210863E+03   -0.56819E-02   -0.11693E-01  4266   0.917E-02    0.644E-01
RMM:   3    -0.413172157584E+03    0.20533E-02   -0.13095E-02  4961   0.481E-02    0.143E-01
RMM:   4    -0.413208458043E+03   -0.36300E-01   -0.39480E-02  5124   0.165E-01    0.794E-01
RMM:   5    -0.413171247756E+03    0.37210E-01   -0.17929E-02  4784   0.132E-01    0.520E-02
RMM:   6    -0.413171456363E+03   -0.20861E-03   -0.30295E-03  5748   0.535E-02    0.345E-02
RMM:   7    -0.413171449969E+03    0.63942E-05   -0.47686E-04  5700   0.199E-02    0.218E-02
RMM:   8    -0.413171439009E+03    0.10960E-04   -0.74699E-05  5209   0.927E-03    0.104E-02
RMM:   9    -0.413171432721E+03    0.62877E-05   -0.14784E-05  4111   0.435E-03    0.724E-03
RMM:  10    -0.413171429212E+03    0.35091E-05   -0.21131E-06  2578   0.223E-03    0.456E-03
RMM:  11    -0.413171426532E+03    0.26801E-05   -0.11789E-06  2510   0.173E-03    0.255E-03
RMM:  12    -0.413171421861E+03    0.46709E-05   -0.16928E-06  2556   0.198E-03    0.103E-03
RMM:  13    -0.413171419599E+03    0.22623E-05   -0.57830E-07  2376   0.133E-03    0.821E-04
RMM:  14    -0.413171419805E+03   -0.20659E-06   -0.25002E-07  1936   0.876E-04
   20 T=    62. E= -.41286664E+03 F= -.41317142E+03 E0= -.41314939E+03  EK= 0.30478E+00 SP= 0.00E+00 SK= 0.00E+00
       N       E                     dE             d eps       ncg     rms          rms(c)
RMM:   1    -0.413169844657E+03    0.15749E-02   -0.96538E+00  4293   0.729E-01    0.889E-01
RMM:   2    -0.413175972218E+03   -0.61276E-02   -0.11961E-01  4274   0.927E-02    0.653E-01
RMM:   3    -0.413172942582E+03    0.30296E-02   -0.13409E-02  4868   0.460E-02    0.110E-01
RMM:   4    -0.413200308558E+03   -0.27366E-01   -0.28655E-02  5126   0.141E-01    0.691E-01
RMM:   5    -0.413172404267E+03    0.27904E-01   -0.13644E-02  4793   0.114E-01    0.465E-02
RMM:   6    -0.413172566994E+03   -0.16273E-03   -0.23047E-03  5810   0.460E-02    0.296E-02
RMM:   7    -0.413172570913E+03   -0.39192E-05   -0.34458E-04  5673   0.177E-02    0.184E-02
RMM:   8    -0.413172564028E+03    0.68851E-05   -0.67951E-05  5027   0.867E-03    0.985E-03
RMM:   9    -0.413172560024E+03    0.40035E-05   -0.13077E-05  4039   0.418E-03    0.729E-03
RMM:  10    -0.413172559435E+03    0.58899E-06   -0.17372E-06  2552   0.214E-03
   21 T=    62. E= -.41286684E+03 F= -.41317256E+03 E0= -.41315057E+03  EK= 0.30572E+00 SP= 0.00E+00 SK= 0.00E+00
       N       E                     dE             d eps       ncg     rms          rms(c)
RMM:   1    -0.413171881957E+03    0.67807E-03   -0.97112E+00  4299   0.757E-01    0.908E-01
RMM:   2    -0.413176925343E+03   -0.50434E-02   -0.11997E-01  4316   0.969E-02    0.654E-01
RMM:   3    -0.413177700979E+03   -0.77564E-03   -0.15979E-02  5101   0.735E-02    0.283E-01
RMM:   4    -0.413205669372E+03   -0.27968E-01   -0.44837E-02  5094   0.179E-01    0.737E-01
RMM:   5    -0.413173555876E+03    0.32113E-01   -0.13293E-02  4718   0.121E-01    0.583E-02
RMM:   6    -0.413173644973E+03   -0.89098E-04   -0.24433E-03  5580   0.486E-02    0.315E-02
RMM:   7    -0.413173651562E+03   -0.65887E-05   -0.39655E-04  5944   0.178E-02    0.196E-02
RMM:   8    -0.413173645335E+03    0.62276E-05   -0.70956E-05  5172   0.934E-03    0.843E-03
RMM:   9    -0.413173638826E+03    0.65090E-05   -0.10567E-05  3606   0.393E-03    0.436E-03
RMM:  10    -0.413173636468E+03    0.23578E-05   -0.22589E-06  2597   0.224E-03    0.295E-03
RMM:  11    -0.413173633098E+03    0.33692E-05   -0.11464E-06  2499   0.174E-03    0.154E-03
RMM:  12    -0.413173629301E+03    0.37974E-05   -0.76751E-07  2469   0.142E-03    0.515E-04
RMM:  13    -0.413173627303E+03    0.19986E-05   -0.36316E-07  2126   0.101E-03    0.316E-04
RMM:  14    -0.413173625890E+03    0.14129E-05   -0.19954E-07  1622   0.785E-04    0.223E-04
RMM:  15    -0.413173623266E+03    0.26233E-05   -0.15146E-07  1376   0.718E-04    0.117E-04
RMM:  16    -0.413173620403E+03    0.28629E-05   -0.12472E-07  1328   0.687E-04    0.147E-04
RMM:  17    -0.413173618310E+03    0.20937E-05   -0.85768E-08  1158   0.627E-04    0.821E-05
RMM:  18    -0.413173615680E+03    0.26292E-05   -0.79133E-08  1171   0.617E-04    0.360E-05
RMM:  19    -0.413173614680E+03    0.10001E-05   -0.36633E-08   858   0.554E-04    0.237E-05
RMM:  20    -0.413173614234E+03    0.44612E-06   -0.18483E-08   738   0.537E-04
   22 T=    62. E= -.41286694E+03 F= -.41317361E+03 E0= -.41315167E+03  EK= 0.30668E+00 SP= 0.00E+00 SK= 0.00E+00
       N       E                     dE             d eps       ncg     rms          rms(c)
RMM:   1    -0.413171486528E+03    0.21282E-02   -0.96800E+00  4294   0.725E-01    0.909E-01
RMM:   2    -0.413177508987E+03   -0.60225E-02   -0.11811E-01  4284   0.955E-02    0.647E-01
RMM:   3    -0.413174875495E+03    0.26335E-02   -0.13049E-02  4886   0.492E-02    0.134E-01
RMM:   4    -0.413208072330E+03   -0.33197E-01   -0.35267E-02  5128   0.156E-01    0.759E-01
RMM:   5    -0.413174163779E+03    0.33909E-01   -0.16524E-02  4791   0.127E-01    0.503E-02
RMM:   6    -0.413174353559E+03   -0.18978E-03   -0.28134E-03  5784   0.512E-02    0.337E-02
RMM:   7    -0.413174347671E+03    0.58879E-05   -0.43344E-04  5669   0.197E-02    0.210E-02
RMM:   8    -0.413174335398E+03    0.12273E-04   -0.75464E-05  5136   0.929E-03    0.106E-02
RMM:   9    -0.413174328050E+03    0.73478E-05   -0.14785E-05  4116   0.438E-03    0.763E-03
RMM:  10    -0.413174323378E+03    0.46717E-05   -0.20457E-06  2577   0.225E-03    0.480E-03
RMM:  11    -0.413174319478E+03    0.39000E-05   -0.12779E-06  2513   0.181E-03    0.262E-03
RMM:  12    -0.413174313144E+03    0.63343E-05   -0.17521E-06  2557   0.203E-03    0.106E-03
RMM:  13    -0.413174310739E+03    0.24050E-05   -0.55249E-07  2367   0.133E-03    0.746E-04
RMM:  14    -0.413174310727E+03    0.12486E-07   -0.24717E-07  1930   0.875E-04
   23 T=    63. E= -.41286668E+03 F= -.41317431E+03 E0= -.41315242E+03  EK= 0.30763E+00 SP= 0.00E+00 SK= 0.00E+00
       N       E                     dE             d eps       ncg     rms          rms(c)
RMM:   1    -0.413172876827E+03    0.14339E-02   -0.97025E+00  4297   0.744E-01    0.892E-01
RMM:   2    -0.413179607712E+03   -0.67309E-02   -0.12046E-01  4287   0.984E-02    0.653E-01
RMM:   3    -0.413176162711E+03    0.34450E-02   -0.13130E-02  4750   0.468E-02    0.104E-01
RMM:   4    -0.413198546628E+03   -0.22384E-01   -0.23048E-02  5133   0.126E-01    0.626E-01
RMM:   5    -0.413175779718E+03    0.22767E-01   -0.11280E-02  4804   0.104E-01    0.445E-02
RMM:   6    -0.413175901552E+03   -0.12183E-03   -0.19196E-03  5821   0.415E-02    0.278E-02
RMM:   7    -0.413175902942E+03   -0.13899E-05   -0.25925E-04  5641   0.160E-02    0.152E-02
RMM:   8    -0.413175898452E+03    0.44897E-05   -0.55484E-05  4981   0.774E-03    0.953E-03
RMM:   9    -0.413175893813E+03    0.46389E-05   -0.11160E-05  3876   0.389E-03    0.709E-03
RMM:  10    -0.413175892279E+03    0.15347E-05   -0.16538E-06  2550   0.215E-03    0.437E-03
RMM:  11    -0.413175890363E+03    0.19157E-05   -0.14813E-06  2518   0.197E-03    0.216E-03
RMM:  12    -0.413175887874E+03    0.24893E-05   -0.12649E-06  2505   0.176E-03    0.835E-04
RMM:  13    -0.413175887086E+03    0.78759E-06   -0.41505E-07  2219   0.113E-03
   24 T=    63. E= -.41286691E+03 F= -.41317589E+03 E0= -.41315404E+03  EK= 0.30898E+00 SP= 0.00E+00 SK= 0.00E+00
       N       E                     dE             d eps       ncg     rms          rms(c)
RMM:   1    -0.413175606810E+03    0.28106E-03   -0.98029E+00  4298   0.765E-01    0.906E-01
RMM:   2    -0.413180493544E+03   -0.48867E-02   -0.12490E-01  4283   0.103E-01    0.659E-01
RMM:   3    -0.413177067883E+03    0.34257E-02   -0.13012E-02  4678   0.476E-02    0.106E-01
RMM:   4    -0.413196418074E+03   -0.19350E-01   -0.19782E-02  5133   0.117E-01    0.583E-01
RMM:   5    -0.413176762190E+03    0.19656E-01   -0.97354E-03  4808   0.962E-02    0.435E-02
RMM:   6    -0.413176855815E+03   -0.93625E-04   -0.16543E-03  5823   0.383E-02    0.261E-02
RMM:   7    -0.413176852829E+03    0.29856E-05   -0.19765E-04  5596   0.140E-02    0.125E-02
RMM:   8    -0.413176848409E+03    0.44198E-05   -0.36122E-05  4812   0.621E-03    0.855E-03
RMM:   9    -0.413176844921E+03    0.34885E-05   -0.81646E-06  3456   0.326E-03    0.652E-03
RMM:  10    -0.413176843079E+03    0.18419E-05   -0.14743E-06  2534   0.207E-03    0.410E-03
RMM:  11    -0.413176839797E+03    0.32820E-05   -0.18132E-06  2560   0.210E-03    0.198E-03
RMM:  12    -0.413176836064E+03    0.37327E-05   -0.10883E-06  2478   0.170E-03    0.970E-04
RMM:  13    -0.413176835347E+03    0.71691E-06   -0.34724E-07  2195   0.106E-03
   25 T=    63. E= -.41286665E+03 F= -.41317684E+03 E0= -.41315504E+03  EK= 0.31018E+00 SP= 0.00E+00 SK= 0.00E+00
       N       E                     dE             d eps       ncg     rms          rms(c)
RMM:   1    -0.413175510779E+03    0.13253E-02   -0.97969E+00  4296   0.743E-01    0.919E-01
RMM:   2    -0.413181272268E+03   -0.57615E-02   -0.11991E-01  4283   0.989E-02    0.652E-01
RMM:   3    -0.413178461705E+03    0.28106E-02   -0.12996E-02  4682   0.468E-02    0.112E-01
RMM:   4    -0.413198012137E+03   -0.19550E-01   -0.19999E-02  5137   0.118E-01    0.586E-01
RMM:   5    -0.413178151700E+03    0.19860E-01   -0.99273E-03  4810   0.968E-02    0.447E-02
RMM:   6    -0.413178243475E+03   -0.91775E-04   -0.16952E-03  5820   0.388E-02    0.273E-02
RMM:   7    -0.413178235306E+03    0.81694E-05   -0.22031E-04  5629   0.151E-02    0.142E-02
RMM:   8    -0.413178228118E+03    0.71881E-05   -0.46704E-05  4940   0.715E-03    0.933E-03
RMM:   9    -0.413178221800E+03    0.63175E-05   -0.92619E-06  3672   0.359E-03    0.700E-03
RMM:  10    -0.413178216824E+03    0.49767E-05   -0.15098E-06  2527   0.212E-03    0.419E-03
RMM:  11    -0.413178210386E+03    0.64376E-05   -0.15243E-06  2527   0.198E-03    0.208E-03
RMM:  12    -0.413178203043E+03    0.73425E-05   -0.10604E-06  2468   0.166E-03    0.761E-04
RMM:  13    -0.413178200959E+03    0.20845E-05   -0.38860E-07  2193   0.108E-03    0.535E-04
RMM:  14    -0.413178200067E+03    0.89232E-06   -0.18654E-07  1663   0.781E-04
   26 T=    63. E= -.41286663E+03 F= -.41317820E+03 E0= -.41315645E+03  EK= 0.31157E+00 SP= 0.00E+00 SK= 0.00E+00
       N       E                     dE             d eps       ncg     rms          rms(c)
RMM:   1    -0.413182083471E+03   -0.38825E-02   -0.98319E+00  4293   0.810E-01    0.898E-01
RMM:   2    -0.413183243789E+03   -0.11603E-02   -0.12255E-01  4282   0.103E-01    0.654E-01
RMM:   3    -0.413180360116E+03    0.28837E-02   -0.13189E-02  4798   0.492E-02    0.114E-01
RMM:   4    -0.413206845182E+03   -0.26485E-01   -0.27387E-02  5133   0.138E-01    0.679E-01
RMM:   5    -0.413179896414E+03    0.26949E-01   -0.13342E-02  4799   0.113E-01    0.470E-02
RMM:   6    -0.413180040240E+03   -0.14383E-03   -0.22734E-03  5813   0.457E-02    0.312E-02
RMM:   7    -0.413180037603E+03    0.26364E-05   -0.36257E-04  5635   0.182E-02    0.191E-02
RMM:   8    -0.413180028337E+03    0.92661E-05   -0.65477E-05  5050   0.870E-03    0.988E-03
RMM:   9    -0.413180022754E+03    0.55827E-05   -0.12407E-05  3927   0.410E-03    0.718E-03
RMM:  10    -0.413180019746E+03    0.30085E-05   -0.17626E-06  2551   0.217E-03    0.442E-03
RMM:  11    -0.413180016747E+03    0.29987E-05   -0.12737E-06  2512   0.183E-03    0.226E-03
RMM:  12    -0.413180012545E+03    0.42023E-05   -0.14212E-06  2517   0.184E-03    0.920E-04
RMM:  13    -0.413180010906E+03    0.16391E-05   -0.45508E-07  2296   0.120E-03    0.593E-04
RMM:  14    -0.413180010630E+03    0.27622E-06   -0.21300E-07  1790   0.818E-04
   27 T=    64. E= -.41286685E+03 F= -.41318001E+03 E0= -.41315831E+03  EK= 0.31316E+00 SP= 0.00E+00 SK= 0.00E+00
       N       E                     dE             d eps       ncg     rms          rms(c)
RMM:   1    -0.413180715089E+03   -0.70418E-03   -0.99216E+00  4295   0.787E-01    0.907E-01
RMM:   2    -0.413184526728E+03   -0.38116E-02   -0.12517E-01  4278   0.103E-01    0.664E-01
RMM:   3    -0.413181402816E+03    0.31239E-02   -0.13476E-02  4695   0.495E-02    0.102E-01
RMM:   4    -0.413200308131E+03   -0.18905E-01   -0.19300E-02  5142   0.116E-01    0.576E-01
RMM:   5    -0.413181123659E+03    0.19184E-01   -0.95615E-03  4813   0.952E-02    0.437E-02
RMM:   6    -0.413181213819E+03   -0.90160E-04   -0.16632E-03  5835   0.381E-02    0.267E-02
RMM:   7    -0.413181211773E+03    0.20457E-05   -0.21380E-04  5599   0.148E-02    0.136E-02
RMM:   8    -0.413181207851E+03    0.39217E-05   -0.43142E-05  4910   0.690E-03    0.902E-03
RMM:   9    -0.413181203598E+03    0.42535E-05   -0.92637E-06  3674   0.354E-03    0.678E-03
RMM:  10    -0.413181201725E+03    0.18727E-05   -0.14534E-06  2526   0.209E-03    0.411E-03
RMM:  11    -0.413181199176E+03    0.25488E-05   -0.15001E-06  2529   0.195E-03    0.203E-03
RMM:  12    -0.413181195825E+03    0.33515E-05   -0.10877E-06  2473   0.166E-03    0.776E-04
RMM:  13    -0.413181194868E+03    0.95624E-06   -0.37091E-07  2181   0.107E-03
   28 T=    64. E= -.41286661E+03 F= -.41318119E+03 E0= -.41315955E+03  EK= 0.31459E+00 SP= 0.00E+00 SK= 0.00E+00
       N       E                     dE             d eps       ncg     rms          rms(c)
RMM:   1    -0.413180443829E+03    0.75200E-03   -0.99265E+00  4292   0.766E-01    0.927E-01
RMM:   2    -0.413186282700E+03   -0.58389E-02   -0.12228E-01  4274   0.104E-01    0.659E-01
RMM:   3    -0.413183240623E+03    0.30421E-02   -0.13270E-02  4446   0.483E-02    0.101E-01
RMM:   4    -0.413190025762E+03   -0.67851E-02   -0.71186E-03  5151   0.705E-02    0.348E-01
RMM:   5    -0.413183199759E+03    0.68260E-02   -0.35168E-03  4834   0.575E-02    0.404E-02
RMM:   6    -0.413183221935E+03   -0.22176E-04   -0.75177E-04  5754   0.258E-02    0.258E-02
RMM:   7    -0.413183207709E+03    0.14225E-04   -0.23690E-04  5297   0.156E-02    0.165E-02
RMM:   8    -0.413183192793E+03    0.14917E-04   -0.17130E-05  4103   0.560E-03    0.686E-03
RMM:   9    -0.413183189092E+03    0.37011E-05   -0.36572E-06  2807   0.246E-03    0.456E-03
RMM:  10    -0.413183183537E+03    0.55551E-05   -0.14285E-06  2495   0.197E-03    0.245E-03
RMM:  11    -0.413183177487E+03    0.60493E-05   -0.82230E-07  2456   0.154E-03    0.114E-03
RMM:  12    -0.413183172838E+03    0.46491E-05   -0.42467E-07  2184   0.111E-03    0.517E-04
RMM:  13    -0.413183169879E+03    0.29590E-05   -0.24751E-07  1811   0.854E-04    0.274E-04
RMM:  14    -0.413183165867E+03    0.40123E-05   -0.14387E-07  1442   0.725E-04    0.173E-04
RMM:  15    -0.413183160955E+03    0.49115E-05   -0.11011E-07  1297   0.678E-04    0.928E-05
RMM:  16    -0.413183158314E+03    0.26410E-05   -0.64735E-08  1093   0.614E-04    0.717E-05
RMM:  17    -0.413183153780E+03    0.45341E-05   -0.77317E-08  1239   0.633E-04    0.470E-05
RMM:  18    -0.413183152625E+03    0.11558E-05   -0.30285E-08   860   0.548E-04    0.266E-05
RMM:  19    -0.413183152121E+03    0.50321E-06   -0.14447E-08   717   0.525E-04
   29 T=    64. E= -.41286679E+03 F= -.41318315E+03 E0= -.41316155E+03  EK= 0.31637E+00 SP= 0.00E+00 SK= 0.00E+00
       N       E                     dE             d eps       ncg     rms          rms(c)
RMM:   1    -0.413183899211E+03   -0.74659E-03   -0.99170E+00  4287   0.814E-01    0.907E-01
RMM:   2    -0.413188560101E+03   -0.46609E-02   -0.12342E-01  4268   0.113E-01    0.657E-01
RMM:   3    -0.413185085200E+03    0.34749E-02   -0.13260E-02  4484   0.530E-02    0.983E-02
RMM:   4    -0.413194874257E+03   -0.97891E-02   -0.10025E-02  5146   0.840E-02    0.417E-01
RMM:   5    -0.413184997787E+03    0.98765E-02   -0.50443E-03  4825   0.687E-02    0.406E-02
RMM:   6    -0.413185033692E+03   -0.35904E-04   -0.93669E-04  5817   0.287E-02    0.253E-02
RMM:   7    -0.413185033601E+03    0.90637E-07   -0.23559E-04  5387   0.155E-02    0.168E-02
RMM:   8    -0.413185017099E+03    0.16503E-04   -0.26803E-05  4594   0.642E-03    0.740E-03
RMM:   9    -0.413185015094E+03    0.20050E-05   -0.50006E-06  2975   0.280E-03    0.528E-03
RMM:  10    -0.413185011789E+03    0.33042E-05   -0.14930E-06  2500   0.202E-03    0.289E-03
RMM:  11    -0.413185008362E+03    0.34274E-05   -0.97166E-07  2477   0.165E-03    0.144E-03
RMM:  12    -0.413185005178E+03    0.31837E-05   -0.55544E-07  2344   0.125E-03    0.726E-04
RMM:  13    -0.413185003638E+03    0.15405E-05   -0.26199E-07  1937   0.887E-04    0.319E-04
RMM:  14    -0.413185001881E+03    0.17568E-05   -0.14438E-07  1426   0.716E-04    0.196E-04
RMM:  15    -0.413184999234E+03    0.26475E-05   -0.96006E-08  1213   0.663E-04    0.960E-05
RMM:  16    -0.413184997298E+03    0.19360E-05   -0.58768E-08   986   0.620E-04    0.713E-05
RMM:  17    -0.413184995460E+03    0.18376E-05   -0.44511E-08   961   0.603E-04    0.484E-05
RMM:  18    -0.413184992690E+03    0.27700E-05   -0.55819E-08  1115   0.614E-04    0.347E-05
RMM:  19    -0.413184992045E+03    0.64499E-06   -0.20184E-08   751   0.543E-04
   30 T=    65. E= -.41286675E+03 F= -.41318499E+03 E0= -.41316344E+03  EK= 0.31824E+00 SP= 0.00E+00 SK= 0.00E+00
       N       E                     dE             d eps       ncg     rms          rms(c)
RMM:   1    -0.413187225646E+03   -0.22330E-02   -0.10064E+01  4292   0.825E-01    0.910E-01
RMM:   2    -0.413190785018E+03   -0.35594E-02   -0.12924E-01  4280   0.119E-01    0.669E-01
RMM:   3    -0.413186654392E+03    0.41306E-02   -0.13780E-02  4379   0.592E-02    0.891E-02
RMM:   4    -0.413192581118E+03   -0.59267E-02   -0.62276E-03  5159   0.663E-02    0.326E-01
RMM:   5    -0.413186621026E+03    0.59601E-02   -0.30633E-03  4827   0.538E-02    0.391E-02
RMM:   6    -0.413186649455E+03   -0.28429E-04   -0.67342E-04  5759   0.246E-02    0.260E-02
RMM:   7    -0.413186643072E+03    0.63826E-05   -0.23316E-04  5266   0.154E-02    0.166E-02
RMM:   8    -0.413186631070E+03    0.12002E-04   -0.19499E-05  4282   0.571E-03    0.694E-03
RMM:   9    -0.413186629980E+03    0.10901E-05   -0.30601E-06  2722   0.233E-03    0.453E-03
RMM:  10    -0.413186628421E+03    0.15592E-05   -0.13449E-06  2498   0.184E-03    0.242E-03
RMM:  11    -0.413186626979E+03    0.14417E-05   -0.80873E-07  2432   0.146E-03    0.114E-03
RMM:  12    -0.413186625419E+03    0.15603E-05   -0.43520E-07  2197   0.109E-03    0.516E-04
RMM:  13    -0.413186624267E+03    0.11515E-05   -0.22574E-07  1720   0.821E-04    0.271E-04
RMM:  14    -0.413186622826E+03    0.14414E-05   -0.12505E-07  1262   0.691E-04    0.174E-04
RMM:  15    -0.413186620510E+03    0.23158E-05   -0.99017E-08  1151   0.662E-04    0.853E-05
RMM:  16    -0.413186619388E+03    0.11215E-05   -0.53021E-08   950   0.604E-04    0.643E-05
RMM:  17    -0.413186617315E+03    0.20736E-05   -0.54178E-08  1017   0.604E-04    0.355E-05
RMM:  18    -0.413186615814E+03    0.15012E-05   -0.38413E-08   927   0.575E-04    0.281E-05
RMM:  19    -0.413186615237E+03    0.57684E-06   -0.13994E-08   676   0.535E-04
   31 T=    65. E= -.41286651E+03 F= -.41318662E+03 E0= -.41316512E+03  EK= 0.32011E+00 SP= 0.00E+00 SK= 0.00E+00
       N       E                     dE             d eps       ncg     rms          rms(c)
RMM:   1    -0.413186789176E+03   -0.17336E-03   -0.10083E+01  4287   0.810E-01    0.933E-01
RMM:   2    -0.413192832281E+03   -0.60431E-02   -0.12621E-01  4279   0.124E-01    0.666E-01
RMM:   3    -0.413189185414E+03    0.36469E-02   -0.13566E-02  4265   0.566E-02    0.984E-02
RMM:   4    -0.413189489123E+03   -0.30371E-03   -0.95133E-04  5030   0.226E-02    0.743E-02
RMM:   5    -0.413189261754E+03    0.22737E-03   -0.21354E-04  4813   0.146E-02    0.429E-02
RMM:   6    -0.413189264608E+03   -0.28537E-05   -0.34343E-04  5276   0.183E-02    0.294E-02
RMM:   7    -0.413189219865E+03    0.44743E-04   -0.18490E-04  4814   0.142E-02    0.157E-02
RMM:   8    -0.413189216061E+03    0.38036E-05   -0.22204E-05  4351   0.510E-03    0.565E-03
RMM:   9    -0.413189214788E+03    0.12729E-05   -0.31455E-06  2472   0.213E-03    0.217E-03
RMM:  10    -0.413189207004E+03    0.77847E-05   -0.99920E-07  2386   0.153E-03    0.827E-04
RMM:  11    -0.413189202922E+03    0.40818E-05   -0.26185E-07  1822   0.871E-04    0.464E-04
RMM:  12    -0.413189199504E+03    0.34179E-05   -0.16799E-07  1569   0.750E-04    0.278E-04
RMM:  13    -0.413189195503E+03    0.40011E-05   -0.13357E-07  1411   0.700E-04    0.157E-04
RMM:  14    -0.413189190300E+03    0.52028E-05   -0.99950E-08  1134   0.652E-04    0.131E-04
RMM:  15    -0.413189187769E+03    0.25314E-05   -0.42035E-08   801   0.573E-04    0.888E-05
RMM:  16    -0.413189184141E+03    0.36276E-05   -0.45958E-08   870   0.586E-04    0.457E-05
RMM:  17    -0.413189183235E+03    0.90575E-06   -0.18509E-08   626   0.536E-04
   32 T=    66. E= -.41286686E+03 F= -.41318918E+03 E0= -.41316773E+03  EK= 0.32232E+00 SP= 0.00E+00 SK= 0.00E+00
       N       E                     dE             d eps       ncg     rms          rms(c)
RMM:   1    -0.413188476181E+03    0.70796E-03   -0.10060E+01  4284   0.821E-01    0.920E-01
RMM:   2    -0.413194638175E+03   -0.61620E-02   -0.12716E-01  4273   0.123E-01    0.662E-01
RMM:   3    -0.413191176138E+03    0.34620E-02   -0.13358E-02  4269   0.584E-02    0.972E-02
RMM:   4    -0.413191578952E+03   -0.40281E-03   -0.10175E-03  5072   0.241E-02    0.865E-02
RMM:   5    -0.413191243891E+03    0.33506E-03   -0.25536E-04  4793   0.161E-02    0.411E-02
RMM:   6    -0.413191251205E+03   -0.73147E-05   -0.34671E-04  5334   0.182E-02    0.292E-02
RMM:   7    -0.413191209164E+03    0.42041E-04   -0.18910E-04  4848   0.139E-02    0.164E-02
RMM:   8    -0.413191204346E+03    0.48180E-05   -0.22230E-05  4395   0.511E-03    0.598E-03
RMM:   9    -0.413191203166E+03    0.11806E-05   -0.33685E-06  2427   0.214E-03    0.231E-03
RMM:  10    -0.413191196987E+03    0.61788E-05   -0.89299E-07  2318   0.146E-03    0.958E-04
RMM:  11    -0.413191193173E+03    0.38140E-05   -0.29765E-07  1843   0.906E-04    0.433E-04
RMM:  12    -0.413191189078E+03    0.40946E-05   -0.19032E-07  1523   0.774E-04    0.214E-04
RMM:  13    -0.413191185628E+03    0.34504E-05   -0.11167E-07  1147   0.673E-04    0.183E-04
RMM:  14    -0.413191181540E+03    0.40883E-05   -0.80301E-08  1016   0.633E-04    0.107E-04
RMM:  15    -0.413191177138E+03    0.44012E-05   -0.67413E-08   948   0.614E-04    0.653E-05
RMM:  16    -0.413191174421E+03    0.27172E-05   -0.40092E-08   801   0.571E-04    0.609E-05
RMM:  17    -0.413191173406E+03    0.10146E-05   -0.17731E-08   578   0.528E-04    0.322E-05
RMM:  18    -0.413191172668E+03    0.73837E-06   -0.13501E-08   538   0.523E-04
   33 T=    66. E= -.41286671E+03 F= -.41319117E+03 E0= -.41316977E+03  EK= 0.32446E+00 SP= 0.00E+00 SK= 0.00E+00
       N       E                     dE             d eps       ncg     rms          rms(c)
RMM:   1    -0.413197359363E+03   -0.61860E-02   -0.10240E+01  4301   0.881E-01    0.915E-01
RMM:   2    -0.413197239382E+03    0.11998E-03   -0.13627E-01  4274   0.130E-01    0.675E-01
RMM:   3    -0.413193587304E+03    0.36521E-02   -0.13592E-02  4271   0.616E-02    0.928E-02
RMM:   4    -0.413194154122E+03   -0.56682E-03   -0.12024E-03  5090   0.268E-02    0.101E-01
RMM:   5    -0.413193645061E+03    0.50906E-03   -0.31336E-04  4780   0.179E-02    0.393E-02
RMM:   6    -0.413193662741E+03   -0.17680E-04   -0.33920E-04  5365   0.179E-02    0.278E-02
RMM:   7    -0.413193631471E+03    0.31270E-04   -0.18724E-04  4858   0.136E-02    0.177E-02
RMM:   8    -0.413193626382E+03    0.50885E-05   -0.23053E-05  4171   0.487E-03    0.554E-03
RMM:   9    -0.413193625995E+03    0.38747E-06   -0.26103E-06  2466   0.207E-03
   34 T=    67. E= -.41286674E+03 F= -.41319363E+03 E0= -.41317227E+03  EK= 0.32689E+00 SP= 0.00E+00 SK= 0.00E+00
       N       E                     dE             d eps       ncg     rms          rms(c)
RMM:   1    -0.413197514684E+03   -0.38883E-02   -0.10293E+01  4303   0.912E-01    0.937E-01
RMM:   2    -0.413199591430E+03   -0.20767E-02   -0.13525E-01  4275   0.132E-01    0.676E-01
RMM:   3    -0.413196402994E+03    0.31884E-02   -0.13586E-02  4455   0.636E-02    0.109E-01
RMM:   4    -0.413205653932E+03   -0.92509E-02   -0.95301E-03  5172   0.831E-02    0.406E-01
RMM:   5    -0.413196398219E+03    0.92557E-02   -0.47632E-03  4829   0.676E-02    0.428E-02
RMM:   6    -0.413196391503E+03    0.67159E-05   -0.91179E-04  5749   0.304E-02    0.316E-02
RMM:   7    -0.413196378548E+03    0.12955E-04   -0.28908E-04  5318   0.166E-02    0.167E-02
RMM:   8    -0.413196366428E+03    0.12120E-04   -0.28184E-05  4660   0.622E-03    0.713E-03
RMM:   9    -0.413196363602E+03    0.28258E-05   -0.46542E-06  2894   0.261E-03    0.422E-03
RMM:  10    -0.413196357687E+03    0.59151E-05   -0.12250E-06  2499   0.186E-03    0.220E-03
RMM:  11    -0.413196351606E+03    0.60804E-05   -0.77814E-07  2456   0.143E-03    0.113E-03
RMM:  12    -0.413196345969E+03    0.56374E-05   -0.45160E-07  2251   0.111E-03    0.516E-04
RMM:  13    -0.413196342909E+03    0.30605E-05   -0.22857E-07  1756   0.824E-04    0.273E-04
RMM:  14    -0.413196339204E+03    0.37046E-05   -0.12921E-07  1249   0.697E-04    0.178E-04
RMM:  15    -0.413196333157E+03    0.60468E-05   -0.11076E-07  1262   0.682E-04    0.996E-05
RMM:  16    -0.413196330262E+03    0.28949E-05   -0.66049E-08  1073   0.617E-04    0.808E-05
RMM:  17    -0.413196326154E+03    0.41081E-05   -0.64029E-08  1189   0.621E-04    0.480E-05
RMM:  18    -0.413196323558E+03    0.25959E-05   -0.40004E-08   989   0.572E-04    0.236E-05
RMM:  19    -0.413196323047E+03    0.51123E-06   -0.18996E-08   720   0.521E-04
   35 T=    67. E= -.41286688E+03 F= -.41319632E+03 E0= -.41317501E+03  EK= 0.32944E+00 SP= 0.00E+00 SK= 0.00E+00
       N       E                     dE             d eps       ncg     rms          rms(c)
RMM:   1    -0.413196028528E+03    0.29503E-03   -0.10263E+01  4302   0.881E-01    0.937E-01
RMM:   2    -0.413201484693E+03   -0.54562E-02   -0.13223E-01  4253   0.132E-01    0.670E-01
RMM:   3    -0.413198469037E+03    0.30157E-02   -0.13552E-02  4405   0.632E-02    0.109E-01
RMM:   4    -0.413203522518E+03   -0.50535E-02   -0.54678E-03  5173   0.626E-02    0.302E-01
RMM:   5    -0.413198493977E+03    0.50285E-02   -0.26126E-03  4821   0.502E-02    0.412E-02
RMM:   6    -0.413198499903E+03   -0.59261E-05   -0.63836E-04  5673   0.255E-02    0.301E-02
RMM:   7    -0.413198476741E+03    0.23162E-04   -0.25884E-04  5161   0.162E-02    0.168E-02
RMM:   8    -0.413198466013E+03    0.10728E-04   -0.24156E-05  4619   0.591E-03    0.715E-03
RMM:   9    -0.413198463576E+03    0.24365E-05   -0.35126E-06  2712   0.237E-03    0.399E-03
RMM:  10    -0.413198457824E+03    0.57520E-05   -0.11663E-06  2486   0.180E-03    0.209E-03
RMM:  11    -0.413198452672E+03    0.51526E-05   -0.65166E-07  2409   0.131E-03    0.103E-03
RMM:  12    -0.413198447619E+03    0.50529E-05   -0.37783E-07  2116   0.103E-03    0.441E-04
RMM:  13    -0.413198444034E+03    0.35846E-05   -0.19990E-07  1638   0.793E-04    0.240E-04
RMM:  14    -0.413198440495E+03    0.35387E-05   -0.10598E-07  1158   0.674E-04    0.173E-04
RMM:  15    -0.413198435300E+03    0.51950E-05   -0.83772E-08  1153   0.654E-04    0.810E-05
RMM:  16    -0.413198432606E+03    0.26943E-05   -0.54766E-08  1012   0.607E-04    0.667E-05
RMM:  17    -0.413198429519E+03    0.30868E-05   -0.49081E-08  1093   0.597E-04    0.391E-05
RMM:  18    -0.413198426687E+03    0.28317E-05   -0.36051E-08   981   0.571E-04    0.284E-05
RMM:  19    -0.413198426330E+03    0.35774E-06   -0.14610E-08   677   0.519E-04
   36 T=    68. E= -.41286664E+03 F= -.41319843E+03 E0= -.41317716E+03  EK= 0.33178E+00 SP= 0.00E+00 SK= 0.00E+00
       N       E                     dE             d eps       ncg     rms          rms(c)
RMM:   1    -0.413207758182E+03   -0.93315E-02   -0.10430E+01  4305   0.978E-01    0.921E-01
RMM:   2    -0.413205316780E+03    0.24414E-02   -0.15135E-01  4253   0.139E-01    0.681E-01
RMM:   3    -0.413201471336E+03    0.38454E-02   -0.12752E-02  4543   0.598E-02    0.129E-01
RMM:   4    -0.413217843107E+03   -0.16372E-01   -0.16659E-02  5157   0.109E-01    0.538E-01
RMM:   5    -0.413201366481E+03    0.16477E-01   -0.83526E-03  4811   0.893E-02    0.445E-02
RMM:   6    -0.413201374826E+03   -0.83450E-05   -0.14591E-03  5829   0.366E-02    0.288E-02
RMM:   7    -0.413201386466E+03   -0.11640E-04   -0.30784E-04  5488   0.170E-02    0.184E-02
RMM:   8    -0.413201369473E+03    0.16993E-04   -0.48329E-05  4935   0.786E-03    0.839E-03
RMM:   9    -0.413201368407E+03    0.10666E-05   -0.90378E-06  3540   0.369E-03    0.579E-03
RMM:  10    -0.413201365691E+03    0.27157E-05   -0.15406E-06  2532   0.215E-03    0.324E-03
RMM:  11    -0.413201363085E+03    0.26060E-05   -0.97654E-07  2496   0.162E-03    0.174E-03
RMM:  12    -0.413201359183E+03    0.39022E-05   -0.94790E-07  2473   0.154E-03    0.907E-04
RMM:  13    -0.413201357336E+03    0.18470E-05   -0.36561E-07  2140   0.103E-03    0.457E-04
RMM:  14    -0.413201356418E+03    0.91742E-06   -0.17316E-07  1511   0.747E-04
   37 T=    68. E= -.41286696E+03 F= -.41320136E+03 E0= -.41318014E+03  EK= 0.33440E+00 SP= 0.00E+00 SK= 0.00E+00
       N       E                     dE             d eps       ncg     rms          rms(c)
RMM:   1    -0.413220085278E+03   -0.18728E-01   -0.10637E+01  4308   0.107E+00    0.940E-01
RMM:   2    -0.413207926702E+03    0.12159E-01   -0.16066E-01  4255   0.138E-01    0.688E-01
RMM:   3    -0.413204147437E+03    0.37793E-02   -0.12623E-02  4756   0.573E-02    0.159E-01
RMM:   4    -0.413238986121E+03   -0.34839E-01   -0.35764E-02  5150   0.158E-01    0.777E-01
RMM:   5    -0.413203687440E+03    0.35299E-01   -0.17743E-02  4796   0.130E-01    0.518E-02
RMM:   6    -0.413203766297E+03   -0.78857E-04   -0.29805E-03  5849   0.511E-02    0.329E-02
RMM:   7    -0.413203774727E+03   -0.84305E-05   -0.36909E-04  5653   0.180E-02    0.169E-02
RMM:   8    -0.413203766178E+03    0.85498E-05   -0.53582E-05  4909   0.760E-03    0.954E-03
RMM:   9    -0.413203765708E+03    0.46927E-06   -0.20830E-05  4535   0.479E-03    0.790E-03
RMM:  10    -0.413203759501E+03    0.62071E-05   -0.32093E-06  2725   0.274E-03    0.446E-03
RMM:  11    -0.413203756406E+03    0.30955E-05   -0.15293E-06  2509   0.197E-03    0.278E-03
RMM:  12    -0.413203748409E+03    0.79969E-05   -0.20217E-06  2556   0.230E-03    0.130E-03
RMM:  13    -0.413203744971E+03    0.34381E-05   -0.68985E-07  2412   0.148E-03    0.848E-04
RMM:  14    -0.413203744822E+03    0.14845E-06   -0.27169E-07  2047   0.935E-04
   38 T=    69. E= -.41286685E+03 F= -.41320374E+03 E0= -.41318256E+03  EK= 0.33690E+00 SP= 0.00E+00 SK= 0.00E+00
       N       E                     dE             d eps       ncg     rms          rms(c)
RMM:   1    -0.413206732013E+03   -0.29870E-02   -0.10506E+01  4306   0.998E-01    0.954E-01
RMM:   2    -0.413210120796E+03   -0.33888E-02   -0.13770E-01  4262   0.125E-01    0.679E-01
RMM:   3    -0.413206968050E+03    0.31527E-02   -0.14067E-02  4910   0.584E-02    0.162E-01
RMM:   4    -0.413249113328E+03   -0.42145E-01   -0.44947E-02  5131   0.177E-01    0.853E-01
RMM:   5    -0.413206152727E+03    0.42961E-01   -0.21224E-02  4792   0.143E-01    0.555E-02
RMM:   6    -0.413206260185E+03   -0.10746E-03   -0.35204E-03  5831   0.558E-02    0.345E-02
RMM:   7    -0.413206268374E+03   -0.81890E-05   -0.42571E-04  5684   0.191E-02    0.179E-02
RMM:   8    -0.413206258017E+03    0.10357E-04   -0.52822E-05  4826   0.734E-03    0.923E-03
RMM:   9    -0.413206255142E+03    0.28752E-05   -0.18937E-05  4317   0.445E-03    0.744E-03
RMM:  10    -0.413206248439E+03    0.67026E-05   -0.38578E-06  2852   0.272E-03    0.436E-03
RMM:  11    -0.413206242918E+03    0.55217E-05   -0.15836E-06  2511   0.205E-03    0.259E-03
RMM:  12    -0.413206231180E+03    0.11738E-04   -0.18382E-06  2534   0.221E-03    0.118E-03
RMM:  13    -0.413206227647E+03    0.35330E-05   -0.54889E-07  2422   0.139E-03    0.762E-04
RMM:  14    -0.413206227541E+03    0.10601E-06   -0.23548E-07  1984   0.875E-04
   39 T=    69. E= -.41286677E+03 F= -.41320623E+03 E0= -.41318509E+03  EK= 0.33946E+00 SP= 0.00E+00 SK= 0.00E+00
       N       E                     dE             d eps       ncg     rms          rms(c)
RMM:   1    -0.413229573746E+03   -0.23346E-01   -0.10733E+01  4311   0.117E+00    0.931E-01
RMM:   2    -0.413213641319E+03    0.15932E-01   -0.16675E-01  4266   0.137E-01    0.687E-01
RMM:   3    -0.413210398558E+03    0.32428E-02   -0.12722E-02  4998   0.607E-02    0.207E-01
RMM:   4    -0.413264310305E+03   -0.53912E-01   -0.59639E-02  5133   0.204E-01    0.962E-01
RMM:   5    -0.413209014098E+03    0.55296E-01   -0.27053E-02  4785   0.162E-01    0.607E-02
RMM:   6    -0.413209181548E+03   -0.16745E-03   -0.44084E-03  5814   0.627E-02    0.364E-02
RMM:   7    -0.413209195148E+03   -0.13600E-04   -0.55636E-04  5788   0.211E-02    0.219E-02
RMM:   8    -0.413209197155E+03   -0.20079E-05   -0.12573E-04  5243   0.110E-02    0.140E-02
RMM:   9    -0.413209183534E+03    0.13622E-04   -0.27918E-05  4711   0.613E-03    0.703E-03
RMM:  10    -0.413209179245E+03    0.42890E-05   -0.52369E-06  2937   0.301E-03    0.439E-03
RMM:  11    -0.413209175885E+03    0.33598E-05   -0.15618E-06  2506   0.207E-03    0.263E-03
RMM:  12    -0.413209168835E+03    0.70494E-05   -0.15011E-06  2511   0.203E-03    0.956E-04
RMM:  13    -0.413209164506E+03    0.43293E-05   -0.67423E-07  2423   0.142E-03    0.693E-04
RMM:  14    -0.413209164031E+03    0.47533E-06   -0.29539E-07  2080   0.953E-04
   40 T=    70. E= -.41286697E+03 F= -.41320916E+03 E0= -.41318806E+03  EK= 0.34219E+00 SP= 0.00E+00 SK= 0.00E+00
       N       E                     dE             d eps       ncg     rms          rms(c)
RMM:   1    -0.413223475974E+03   -0.14311E-01   -0.10787E+01  4311   0.115E+00    0.946E-01
RMM:   2    -0.413215810388E+03    0.76656E-02   -0.15827E-01  4271   0.141E-01    0.696E-01
RMM:   3    -0.413213084638E+03    0.27257E-02   -0.14356E-02  5025   0.659E-02    0.221E-01
RMM:   4    -0.413265807425E+03   -0.52723E-01   -0.61518E-02  5125   0.207E-01    0.956E-01
RMM:   5    -0.413211106350E+03    0.54701E-01   -0.26077E-02  4778   0.160E-01    0.613E-02
RMM:   6    -0.413211271265E+03   -0.16492E-03   -0.43607E-03  5809   0.621E-02    0.360E-02
RMM:   7    -0.413211285687E+03   -0.14422E-04   -0.54683E-04  5795   0.210E-02    0.220E-02
RMM:   8    -0.413211287037E+03   -0.13496E-05   -0.12739E-04  5254   0.111E-02    0.142E-02
RMM:   9    -0.413211273212E+03    0.13825E-04   -0.26911E-05  4686   0.609E-03    0.683E-03
RMM:  10    -0.413211269355E+03    0.38572E-05   -0.54477E-06  2976   0.305E-03    0.423E-03
RMM:  11    -0.413211266178E+03    0.31767E-05   -0.15232E-06  2507   0.206E-03    0.251E-03
RMM:  12    -0.413211259768E+03    0.64107E-05   -0.13446E-06  2501   0.194E-03    0.910E-04
RMM:  13    -0.413211255762E+03    0.40058E-05   -0.62633E-07  2413   0.137E-03    0.601E-04
RMM:  14    -0.413211254993E+03    0.76847E-06   -0.28324E-07  2040   0.931E-04
   41 T=    70. E= -.41286663E+03 F= -.41321125E+03 E0= -.41319018E+03  EK= 0.34462E+00 SP= 0.00E+00 SK= 0.00E+00
       N       E                     dE             d eps       ncg     rms          rms(c)
RMM:   1    -0.413217473468E+03   -0.62177E-02   -0.10734E+01  4312   0.116E+00    0.967E-01
RMM:   2    -0.413217685812E+03   -0.21234E-03   -0.14643E-01  4302   0.134E-01    0.690E-01
RMM:   3    -0.413216992009E+03    0.69380E-03   -0.16112E-02  5071   0.743E-02    0.269E-01
RMM:   4    -0.413257416860E+03   -0.40425E-01   -0.54690E-02  5098   0.197E-01    0.859E-01
RMM:   5    -0.413213749271E+03    0.43668E-01   -0.19631E-02  4753   0.143E-01    0.608E-02
RMM:   6    -0.413213846145E+03   -0.96874E-04   -0.34511E-03  5778   0.555E-02    0.359E-02
RMM:   7    -0.413213850905E+03   -0.47600E-05   -0.47638E-04  5751   0.200E-02    0.221E-02
RMM:   8    -0.413213847403E+03    0.35021E-05   -0.13090E-04  5215   0.115E-02    0.135E-02
RMM:   9    -0.413213831606E+03    0.15797E-04   -0.22129E-05  4517   0.585E-03    0.578E-03
RMM:  10    -0.413213825718E+03    0.58885E-05   -0.49847E-06  2954   0.284E-03    0.363E-03
RMM:  11    -0.413213820330E+03    0.53881E-05   -0.12424E-06  2493   0.192E-03    0.203E-03
RMM:  12    -0.413213810973E+03    0.93564E-05   -0.92288E-07  2467   0.166E-03    0.776E-04
RMM:  13    -0.413213805291E+03    0.56823E-05   -0.44107E-07  2319   0.117E-03    0.417E-04
RMM:  14    -0.413213803556E+03    0.17346E-05   -0.22365E-07  1865   0.839E-04    0.288E-04
RMM:  15    -0.413213799299E+03    0.42573E-05   -0.12723E-07  1398   0.703E-04    0.138E-04
RMM:  16    -0.413213793894E+03    0.54054E-05   -0.91039E-08  1248   0.667E-04    0.144E-04
RMM:  17    -0.413213790517E+03    0.33765E-05   -0.60920E-08  1107   0.622E-04    0.979E-05
RMM:  18    -0.413213786893E+03    0.36245E-05   -0.55976E-08  1213   0.619E-04    0.654E-05
RMM:  19    -0.413213784034E+03    0.28586E-05   -0.37475E-08  1051   0.586E-04    0.392E-05
RMM:  20    -0.413213783393E+03    0.64068E-06   -0.19763E-08   807   0.542E-04
   42 T=    71. E= -.41286675E+03 F= -.41321378E+03 E0= -.41319274E+03  EK= 0.34704E+00 SP= 0.00E+00 SK= 0.00E+00
       N       E                     dE             d eps       ncg     rms          rms(c)
RMM:   1    -0.413244902660E+03   -0.31119E-01   -0.10959E+01  4312   0.136E+00    0.944E-01
RMM:   2    -0.413219863233E+03    0.25039E-01   -0.17118E-01  4312   0.147E-01    0.691E-01
RMM:   3    -0.413220182535E+03   -0.31930E-03   -0.15502E-02  5081   0.804E-02    0.321E-01
RMM:   4    -0.413258232655E+03   -0.38050E-01   -0.56587E-02  5097   0.201E-01    0.849E-01
RMM:   5    -0.413215745140E+03    0.42488E-01   -0.18702E-02  4735   0.142E-01    0.626E-02
RMM:   6    -0.413215819936E+03   -0.74795E-04   -0.33213E-03  5744   0.547E-02    0.357E-02
RMM:   7    -0.413215826142E+03   -0.62063E-05   -0.49348E-04  5779   0.200E-02    0.236E-02
RMM:   8    -0.413215823037E+03    0.31054E-05   -0.13009E-04  5200   0.117E-02    0.126E-02
RMM:   9    -0.413215810481E+03    0.12556E-04   -0.21664E-05  4511   0.582E-03    0.496E-03
RMM:  10    -0.413215807197E+03    0.32841E-05   -0.46301E-06  2871   0.269E-03    0.315E-03
RMM:  11    -0.413215803438E+03    0.37590E-05   -0.13152E-06  2496   0.189E-03    0.172E-03
RMM:  12    -0.413215798128E+03    0.53102E-05   -0.77397E-07  2452   0.150E-03    0.657E-04
RMM:  13    -0.413215794916E+03    0.32123E-05   -0.38729E-07  2141   0.106E-03    0.305E-04
RMM:  14    -0.413215792886E+03    0.20293E-05   -0.20848E-07  1678   0.812E-04    0.204E-04
RMM:  15    -0.413215789003E+03    0.38836E-05   -0.13905E-07  1350   0.718E-04    0.114E-04
RMM:  16    -0.413215786638E+03    0.23642E-05   -0.86508E-08  1137   0.658E-04    0.818E-05
RMM:  17    -0.413215784067E+03    0.25712E-05   -0.69187E-08  1154   0.642E-04    0.520E-05
RMM:  18    -0.413215781491E+03    0.25763E-05   -0.53779E-08  1119   0.620E-04    0.346E-05
RMM:  19    -0.413215779637E+03    0.18536E-05   -0.37028E-08   992   0.584E-04    0.262E-05
RMM:  20    -0.413215779179E+03    0.45885E-06   -0.18319E-08   766   0.547E-04
   43 T=    71. E= -.41286678E+03 F= -.41321578E+03 E0= -.41319477E+03  EK= 0.34900E+00 SP= 0.00E+00 SK= 0.00E+00
       N       E                     dE             d eps       ncg     rms          rms(c)
RMM:   1    -0.413228335307E+03   -0.12556E-01   -0.10898E+01  4312   0.132E+00    0.949E-01
RMM:   2    -0.413221311003E+03    0.70243E-02   -0.15908E-01  4303   0.159E-01    0.702E-01
RMM:   3    -0.413222445500E+03   -0.11345E-02   -0.18072E-02  5072   0.903E-02    0.339E-01
RMM:   4    -0.413256357806E+03   -0.33912E-01   -0.55502E-02  5075   0.200E-01    0.816E-01
RMM:   5    -0.413216910869E+03    0.39447E-01   -0.16594E-02  4712   0.135E-01    0.608E-02
RMM:   6    -0.413216963478E+03   -0.52609E-04   -0.30106E-03  5731   0.522E-02    0.346E-02
RMM:   7    -0.413216965228E+03   -0.17493E-05   -0.44031E-04  5753   0.195E-02    0.227E-02
RMM:   8    -0.413216963275E+03    0.19532E-05   -0.11909E-04  5177   0.113E-02    0.118E-02
RMM:   9    -0.413216952928E+03    0.10347E-04   -0.19272E-05  4407   0.558E-03    0.471E-03
RMM:  10    -0.413216950567E+03    0.23605E-05   -0.39809E-06  2803   0.257E-03    0.296E-03
RMM:  11    -0.413216947729E+03    0.28389E-05   -0.12716E-06  2496   0.185E-03    0.159E-03
RMM:  12    -0.413216943645E+03    0.40837E-05   -0.78201E-07  2444   0.147E-03    0.615E-04
RMM:  13    -0.413216941143E+03    0.25018E-05   -0.38583E-07  2092   0.104E-03    0.289E-04
RMM:  14    -0.413216939392E+03    0.17509E-05   -0.21354E-07  1616   0.800E-04    0.188E-04
RMM:  15    -0.413216935830E+03    0.35619E-05   -0.15670E-07  1339   0.727E-04    0.117E-04
RMM:  16    -0.413216934115E+03    0.17147E-05   -0.93877E-08  1127   0.659E-04    0.796E-05
RMM:  17    -0.413216931857E+03    0.22584E-05   -0.75794E-08  1144   0.647E-04    0.479E-05
RMM:  18    -0.413216929619E+03    0.22385E-05   -0.59540E-08  1122   0.624E-04    0.345E-05
RMM:  19    -0.413216928151E+03    0.14671E-05   -0.37791E-08   949   0.583E-04    0.208E-05
RMM:  20    -0.413216927523E+03    0.62825E-06   -0.21731E-08   779   0.553E-04
   44 T=    71. E= -.41286661E+03 F= -.41321693E+03 E0= -.41319594E+03  EK= 0.35032E+00 SP= 0.00E+00 SK= 0.00E+00
       N       E                     dE             d eps       ncg     rms          rms(c)
RMM:   1    -0.413251237039E+03   -0.34309E-01   -0.11106E+01  4312   0.150E+00    0.973E-01
RMM:   2    -0.413221945255E+03    0.29292E-01   -0.17042E-01  4329   0.169E-01    0.699E-01
RMM:   3    -0.413227108659E+03   -0.51634E-02   -0.20267E-02  5122   0.104E-01    0.430E-01
RMM:   4    -0.413244750306E+03   -0.17642E-01   -0.46912E-02  5051   0.187E-01    0.678E-01
RMM:   5    -0.413218242942E+03    0.26507E-01   -0.10204E-02  4660   0.114E-01    0.596E-02
RMM:   6    -0.413218229717E+03    0.13225E-04   -0.20971E-03  5620   0.438E-02    0.343E-02
RMM:   7    -0.413218224701E+03    0.50166E-05   -0.35459E-04  5622   0.181E-02    0.226E-02
RMM:   8    -0.413218215077E+03    0.96234E-05   -0.12045E-04  5085   0.115E-02    0.108E-02
RMM:   9    -0.413218201927E+03    0.13150E-04   -0.16509E-05  4337   0.554E-03    0.437E-03
RMM:  10    -0.413218198069E+03    0.38578E-05   -0.31862E-06  2742   0.236E-03    0.259E-03
RMM:  11    -0.413218192292E+03    0.57767E-05   -0.11680E-06  2480   0.179E-03    0.140E-03
RMM:  12    -0.413218186138E+03    0.61542E-05   -0.61940E-07  2430   0.136E-03    0.634E-04
RMM:  13    -0.413218182500E+03    0.36384E-05   -0.29505E-07  1905   0.938E-04    0.295E-04
RMM:  14    -0.413218179178E+03    0.33221E-05   -0.16786E-07  1476   0.744E-04    0.168E-04
RMM:  15    -0.413218174136E+03    0.50413E-05   -0.12414E-07  1281   0.699E-04    0.121E-04
RMM:  16    -0.413218171379E+03    0.27570E-05   -0.79726E-08  1120   0.644E-04    0.894E-05
RMM:  17    -0.413218166723E+03    0.46565E-05   -0.82409E-08  1351   0.660E-04    0.635E-05
RMM:  18    -0.413218164631E+03    0.20919E-05   -0.44494E-08  1016   0.579E-04    0.419E-05
RMM:  19    -0.413218163131E+03    0.15003E-05   -0.30570E-08   895   0.550E-04    0.211E-05
RMM:  20    -0.413218162779E+03    0.35124E-06   -0.17358E-08   729   0.521E-04
   45 T=    71. E= -.41286700E+03 F= -.41321816E+03 E0= -.41319720E+03  EK= 0.35116E+00 SP= 0.00E+00 SK= 0.00E+00
       N       E                     dE             d eps       ncg     rms          rms(c)
RMM:   1    -0.413263847080E+03   -0.45684E-01   -0.11132E+01  4311   0.163E+00    0.954E-01
RMM:   2    -0.413221753691E+03    0.42093E-01   -0.19019E-01  4356   0.187E-01    0.695E-01
RMM:   3    -0.413229045009E+03   -0.72913E-02   -0.20563E-02  5120   0.112E-01    0.487E-01
RMM:   4    -0.413240490779E+03   -0.11446E-01   -0.45022E-02  5037   0.184E-01    0.633E-01
RMM:   5    -0.413218006580E+03    0.22484E-01   -0.87505E-03  4617   0.108E-01    0.597E-02
RMM:   6    -0.413217964591E+03    0.41988E-04   -0.17240E-03  5492   0.407E-02    0.336E-02
RMM:   7    -0.413217957150E+03    0.74407E-05   -0.30802E-04  5643   0.171E-02    0.230E-02
RMM:   8    -0.413217945750E+03    0.11401E-04   -0.12687E-04  5082   0.117E-02    0.106E-02
RMM:   9    -0.413217932223E+03    0.13527E-04   -0.17624E-05  4380   0.575E-03    0.424E-03
RMM:  10    -0.413217929058E+03    0.31648E-05   -0.29589E-06  2725   0.229E-03    0.244E-03
RMM:  11    -0.413217923354E+03    0.57040E-05   -0.13520E-06  2507   0.185E-03    0.137E-03
RMM:  12    -0.413217918719E+03    0.46350E-05   -0.58756E-07  2440   0.135E-03    0.699E-04
RMM:  13    -0.413217915242E+03    0.34773E-05   -0.28171E-07  1840   0.914E-04    0.329E-04
RMM:  14    -0.413217911749E+03    0.34930E-05   -0.16120E-07  1388   0.728E-04    0.177E-04
RMM:  15    -0.413217907942E+03    0.38062E-05   -0.11705E-07  1255   0.681E-04    0.120E-04
RMM:  16    -0.413217905083E+03    0.28591E-05   -0.81376E-08  1137   0.640E-04    0.102E-04
RMM:  17    -0.413217901108E+03    0.39751E-05   -0.77044E-08  1264   0.645E-04    0.648E-05
RMM:  18    -0.413217898934E+03    0.21742E-05   -0.47046E-08  1045   0.580E-04    0.523E-05
RMM:  19    -0.413217897994E+03    0.94009E-06   -0.26149E-08   814   0.533E-04
   46 T=    71. E= -.41286696E+03 F= -.41321790E+03 E0= -.41319695E+03  EK= 0.35093E+00 SP= 0.00E+00 SK= 0.00E+00
       N       E                     dE             d eps       ncg     rms          rms(c)
RMM:   1    -0.413241635981E+03   -0.23737E-01   -0.10938E+01  4311   0.161E+00    0.942E-01
RMM:   2    -0.413221179123E+03    0.20457E-01   -0.18334E-01  4369   0.193E-01    0.706E-01
RMM:   3    -0.413230266494E+03   -0.90874E-02   -0.23037E-02  5117   0.123E-01    0.521E-01
RMM:   4    -0.413238588603E+03   -0.83221E-02   -0.46912E-02  5028   0.189E-01    0.617E-01
RMM:   5    -0.413216931659E+03    0.21657E-01   -0.79571E-03  4600   0.106E-01    0.594E-02
RMM:   6    -0.413216875136E+03    0.56522E-04   -0.15906E-03  5446   0.392E-02    0.323E-02
RMM:   7    -0.413216869483E+03    0.56530E-05   -0.27929E-04  5638   0.164E-02    0.223E-02
RMM:   8    -0.413216859397E+03    0.10086E-04   -0.12984E-04  5095   0.118E-02    0.104E-02
RMM:   9    -0.413216847155E+03    0.12243E-04   -0.17387E-05  4364   0.574E-03    0.420E-03
RMM:  10    -0.413216845038E+03    0.21170E-05   -0.30150E-06  2727   0.228E-03    0.242E-03
RMM:  11    -0.413216841161E+03    0.38769E-05   -0.14167E-06  2509   0.189E-03    0.134E-03
RMM:  12    -0.413216838143E+03    0.30173E-05   -0.61750E-07  2437   0.136E-03    0.717E-04
RMM:  13    -0.413216835497E+03    0.26460E-05   -0.31224E-07  1871   0.945E-04    0.346E-04
RMM:  14    -0.413216832873E+03    0.26243E-05   -0.17998E-07  1416   0.749E-04    0.180E-04
RMM:  15    -0.413216830131E+03    0.27423E-05   -0.13304E-07  1281   0.694E-04    0.119E-04
RMM:  16    -0.413216828020E+03    0.21106E-05   -0.92011E-08  1202   0.648E-04    0.101E-04
RMM:  17    -0.413216825109E+03    0.29112E-05   -0.83081E-08  1222   0.639E-04    0.555E-05
RMM:  18    -0.413216823324E+03    0.17849E-05   -0.50865E-08  1001   0.578E-04    0.457E-05
RMM:  19    -0.413216822637E+03    0.68734E-06   -0.27598E-08   803   0.534E-04
   47 T=    71. E= -.41286707E+03 F= -.41321682E+03 E0= -.41319589E+03  EK= 0.34975E+00 SP= 0.00E+00 SK= 0.00E+00
       N       E                     dE             d eps       ncg     rms          rms(c)
RMM:   1    -0.413242364659E+03   -0.25541E-01   -0.10878E+01  4306   0.173E+00    0.964E-01
RMM:   2    -0.413218602156E+03    0.23763E-01   -0.17485E-01  4422   0.202E-01    0.700E-01
RMM:   3    -0.413235848284E+03   -0.17246E-01   -0.30336E-02  5142   0.146E-01    0.637E-01
RMM:   4    -0.413227400844E+03    0.84474E-02   -0.42309E-02  4982   0.184E-01    0.480E-01
RMM:   5    -0.413214816166E+03    0.12585E-01   -0.46228E-03  4533   0.901E-02    0.582E-02
RMM:   6    -0.413214702767E+03    0.11340E-03   -0.70160E-04  4899   0.300E-02    0.307E-02
RMM:   7    -0.413214688066E+03    0.14701E-04   -0.17641E-04  5862   0.130E-02    0.125E-02
RMM:   8    -0.413214679272E+03    0.87941E-05   -0.40620E-05  5152   0.767E-03    0.703E-03
RMM:   9    -0.413214674682E+03    0.45897E-05   -0.56826E-06  3012   0.312E-03    0.315E-03
RMM:  10    -0.413214669731E+03    0.49512E-05   -0.25229E-06  2599   0.242E-03    0.186E-03
RMM:  11    -0.413214665505E+03    0.42261E-05   -0.10215E-06  2437   0.175E-03    0.125E-03
RMM:  12    -0.413214661495E+03    0.40093E-05   -0.42596E-07  2332   0.118E-03    0.727E-04
RMM:  13    -0.413214659105E+03    0.23903E-05   -0.20567E-07  1490   0.778E-04    0.444E-04
RMM:  14    -0.413214653530E+03    0.55750E-05   -0.23732E-07  2008   0.848E-04    0.544E-04
RMM:  15    -0.413214650830E+03    0.26999E-05   -0.95873E-08  1021   0.600E-04    0.264E-04
RMM:  16    -0.413214647572E+03    0.32586E-05   -0.79807E-08  1027   0.610E-04    0.107E-04
RMM:  17    -0.413214644126E+03    0.34458E-05   -0.65010E-08   994   0.603E-04    0.135E-04
RMM:  18    -0.413214643374E+03    0.75197E-06   -0.30971E-08   735   0.549E-04
   48 T=    71. E= -.41286731E+03 F= -.41321464E+03 E0= -.41319372E+03  EK= 0.34733E+00 SP= 0.00E+00 SK= 0.00E+00
       N       E                     dE             d eps       ncg     rms          rms(c)
RMM:   1    -0.413243051825E+03   -0.28408E-01   -0.10722E+01  4306   0.186E+00    0.954E-01
RMM:   2    -0.413213917161E+03    0.29135E-01   -0.17556E-01  4482   0.213E-01    0.690E-01
RMM:   3    -0.413238715785E+03   -0.24799E-01   -0.36284E-02  5156   0.164E-01    0.733E-01
RMM:   4    -0.413218659296E+03    0.20056E-01   -0.41365E-02  4957   0.185E-01    0.402E-01
RMM:   5    -0.413210373912E+03    0.82854E-02   -0.42124E-03  4627   0.883E-02    0.648E-02
RMM:   6    -0.413210187058E+03    0.18685E-03   -0.46974E-04  4678   0.292E-02    0.334E-02
RMM:   7    -0.413210197210E+03   -0.10151E-04   -0.30918E-04  5737   0.184E-02    0.251E-02
RMM:   8    -0.413210159294E+03    0.37916E-04   -0.10196E-04  4986   0.116E-02    0.947E-03
RMM:   9    -0.413210152468E+03    0.68265E-05   -0.21617E-05  5049   0.582E-03    0.482E-03
RMM:  10    -0.413210148258E+03    0.42099E-05   -0.25270E-06  2652   0.246E-03    0.263E-03
RMM:  11    -0.413210142210E+03    0.60475E-05   -0.14661E-06  2498   0.199E-03    0.187E-03
RMM:  12    -0.413210138371E+03    0.38389E-05   -0.44672E-07  2405   0.125E-03    0.977E-04
RMM:  13    -0.413210133942E+03    0.44288E-05   -0.26725E-07  2024   0.886E-04    0.473E-04
RMM:  14    -0.413210128468E+03    0.54742E-05   -0.21958E-07  1759   0.798E-04    0.366E-04
RMM:  15    -0.413210123593E+03    0.48757E-05   -0.12218E-07  1170   0.651E-04    0.151E-04
RMM:  16    -0.413210121013E+03    0.25791E-05   -0.71485E-08  1043   0.599E-04    0.918E-05
RMM:  17    -0.413210117228E+03    0.37851E-05   -0.76209E-08  1196   0.623E-04    0.696E-05
RMM:  18    -0.413210115809E+03    0.14191E-05   -0.39880E-08   953   0.555E-04    0.599E-05
RMM:  19    -0.413210114392E+03    0.14172E-05   -0.30144E-08   886   0.536E-04    0.339E-05
RMM:  20    -0.413210113414E+03    0.97785E-06   -0.25713E-08   857   0.520E-04
   49 T=    70. E= -.41286707E+03 F= -.41321011E+03 E0= -.41318920E+03  EK= 0.34305E+00 SP= 0.00E+00 SK= 0.00E+00
       N       E                     dE             d eps       ncg     rms          rms(c)
RMM:   1    -0.413234168399E+03   -0.24054E-01   -0.10525E+01  4306   0.194E+00    0.926E-01
RMM:   2    -0.413208653902E+03    0.25514E-01   -0.17440E-01  4518   0.221E-01    0.692E-01
RMM:   3    -0.413235705181E+03   -0.27051E-01   -0.38361E-02  5156   0.172E-01    0.766E-01
RMM:   4    -0.413212445470E+03    0.23260E-01   -0.42848E-02  4944   0.190E-01    0.390E-01
RMM:   5    -0.413204566288E+03    0.78792E-02   -0.45945E-03  4739   0.919E-02    0.699E-02
RMM:   6    -0.413204329484E+03    0.23680E-03   -0.48273E-04  4644   0.309E-02    0.344E-02
RMM:   7    -0.413204337330E+03   -0.78465E-05   -0.29784E-04  5729   0.184E-02    0.253E-02
[...]
RMM:  13    -0.413134509938E+03   -0.16554E-05   -0.47026E-07  2078   0.104E-03    0.460E-04
RMM:  14    -0.413134511615E+03   -0.16773E-05   -0.39693E-07  1692   0.885E-04    0.285E-04
RMM:  15    -0.413134513186E+03   -0.15702E-05   -0.44276E-07  1808   0.883E-04    0.222E-04
RMM:  16    -0.413134513990E+03   -0.80452E-06   -0.17717E-07  1371   0.684E-04
  138 T=    55. E= -.41286388E+03 F= -.41313451E+03 E0= -.41311361E+03  EK= 0.27063E+00 SP= 0.00E+00 SK= 0.00E+00
       N       E                     dE             d eps       ncg     rms          rms(c)
RMM:   1    -0.413144395727E+03   -0.98825E-02   -0.58520E+00  4264   0.109E+00    0.671E-01
RMM:   2    -0.413146695357E+03   -0.22996E-02   -0.65758E-02  4460   0.119E-01    0.514E-01
RMM:   3    -0.413145742965E+03    0.95239E-03   -0.23360E-02  5144   0.964E-02    0.254E-01
RMM:   4    -0.413159546483E+03   -0.13804E-01   -0.21426E-02  5089   0.129E-01    0.540E-01
RMM:   5    -0.413143193921E+03    0.16353E-01   -0.79653E-03  4841   0.965E-02    0.652E-02
RMM:   6    -0.413143148064E+03    0.45857E-04   -0.12858E-03  5560   0.370E-02    0.278E-02
RMM:   7    -0.413143179653E+03   -0.31589E-04   -0.25942E-04  5736   0.158E-02    0.185E-02
RMM:   8    -0.413143219628E+03   -0.39976E-04   -0.76233E-05  5294   0.903E-03    0.887E-03
RMM:   9    -0.413143241827E+03   -0.22199E-04   -0.17250E-05  4250   0.484E-03    0.422E-03
RMM:  10    -0.413143259458E+03   -0.17630E-04   -0.41889E-06  2876   0.273E-03    0.246E-03
RMM:  11    -0.413143275909E+03   -0.16451E-04   -0.14702E-06  2534   0.192E-03    0.172E-03
RMM:  12    -0.413143301527E+03   -0.25619E-04   -0.19623E-06  2580   0.184E-03    0.122E-03
RMM:  13    -0.413143313566E+03   -0.12038E-04   -0.81766E-07  2230   0.115E-03    0.636E-04
RMM:  14    -0.413143320966E+03   -0.74000E-05   -0.42250E-07  1722   0.889E-04    0.367E-04
RMM:  15    -0.413143332083E+03   -0.11117E-04   -0.66854E-07  2250   0.106E-03    0.382E-04
RMM:  16    -0.413143334961E+03   -0.28777E-05   -0.16900E-07  1209   0.635E-04    0.233E-04
RMM:  17    -0.413143339466E+03   -0.45052E-05   -0.15632E-07  1339   0.690E-04    0.821E-05
RMM:  18    -0.413143341136E+03   -0.16703E-05   -0.74566E-08  1199   0.606E-04    0.735E-05
RMM:  19    -0.413143341648E+03   -0.51199E-06   -0.34500E-08   946   0.539E-04
  139 T=    56. E= -.41286627E+03 F= -.41314334E+03 E0= -.41312251E+03  EK= 0.27707E+00 SP= 0.00E+00 SK= 0.00E+00
       N       E                     dE             d eps       ncg     rms          rms(c)
RMM:   1    -0.413146892095E+03   -0.35510E-02   -0.54701E+00  4267   0.107E+00    0.662E-01
RMM:   2    -0.413147237498E+03   -0.34540E-03   -0.54517E-02  4454   0.111E-01    0.452E-01
RMM:   3    -0.413146387731E+03    0.84977E-03   -0.95328E-03  5023   0.711E-02    0.116E-01
RMM:   4    -0.413160827683E+03   -0.14440E-01   -0.16602E-02  5135   0.112E-01    0.509E-01
RMM:   5    -0.413145884871E+03    0.14943E-01   -0.75925E-03  4876   0.883E-02    0.590E-02
RMM:   6    -0.413145816619E+03    0.68252E-04   -0.12805E-03  5542   0.374E-02    0.254E-02
RMM:   7    -0.413145844983E+03   -0.28364E-04   -0.30985E-04  5926   0.169E-02    0.201E-02
RMM:   8    -0.413145848758E+03   -0.37748E-05   -0.81861E-05  5116   0.956E-03    0.742E-03
RMM:   9    -0.413145852933E+03   -0.41756E-05   -0.15944E-05  4279   0.467E-03    0.388E-03
RMM:  10    -0.413145857036E+03   -0.41025E-05   -0.24031E-06  2625   0.235E-03    0.249E-03
RMM:  11    -0.413145861258E+03   -0.42218E-05   -0.12668E-06  2530   0.176E-03    0.151E-03
RMM:  12    -0.413145866452E+03   -0.51947E-05   -0.15594E-06  2540   0.167E-03    0.107E-03
RMM:  13    -0.413145867777E+03   -0.13249E-05   -0.38591E-07  1977   0.972E-04    0.417E-04
RMM:  14    -0.413145869450E+03   -0.16729E-05   -0.38202E-07  1755   0.890E-04    0.243E-04
RMM:  15    -0.413145870794E+03   -0.13440E-05   -0.30992E-07  1666   0.802E-04    0.201E-04
RMM:  16    -0.413145871624E+03   -0.82963E-06   -0.15256E-07  1316   0.660E-04
  140 T=    56. E= -.41287272E+03 F= -.41314587E+03 E0= -.41312511E+03  EK= 0.27315E+00 SP= 0.00E+00 SK= 0.00E+00
       N       E                     dE             d eps       ncg     rms          rms(c)
RMM:   1    -0.413126353962E+03    0.19517E-01   -0.56922E+00  4267   0.109E+00    0.680E-01
RMM:   2    -0.413126157909E+03    0.19605E-03   -0.53952E-02  4451   0.110E-01    0.442E-01
RMM:   3    -0.413125183788E+03    0.97412E-03   -0.97702E-03  5013   0.683E-02    0.113E-01
RMM:   4    -0.413138095905E+03   -0.12912E-01   -0.14640E-02  5144   0.105E-01    0.481E-01
RMM:   5    -0.413124811206E+03    0.13285E-01   -0.68355E-03  4883   0.837E-02    0.581E-02
RMM:   6    -0.413124751608E+03    0.59598E-04   -0.11874E-03  5550   0.361E-02    0.264E-02
RMM:   7    -0.413124779024E+03   -0.27416E-04   -0.30207E-04  5911   0.169E-02    0.205E-02
RMM:   8    -0.413124777048E+03    0.19764E-05   -0.80018E-05  5063   0.963E-03    0.713E-03
RMM:   9    -0.413124778756E+03   -0.17080E-05   -0.15734E-05  4210   0.457E-03    0.396E-03
RMM:  10    -0.413124780888E+03   -0.21328E-05   -0.22064E-06  2594   0.234E-03    0.255E-03
RMM:  11    -0.413124782764E+03   -0.18755E-05   -0.14203E-06  2544   0.181E-03    0.147E-03
RMM:  12    -0.413124783714E+03   -0.95003E-06   -0.14612E-06  2532   0.161E-03
  141 T=    53. E= -.41286515E+03 F= -.41312478E+03 E0= -.41310408E+03  EK= 0.25964E+00 SP= 0.00E+00 SK= 0.00E+00
       N       E                     dE             d eps       ncg     rms          rms(c)
RMM:   1    -0.413138075425E+03   -0.13293E-01   -0.57588E+00  4264   0.107E+00    0.602E-01
RMM:   2    -0.413141854121E+03   -0.37787E-02   -0.60034E-02  4479   0.109E-01    0.454E-01
RMM:   3    -0.413140899598E+03    0.95452E-03   -0.10341E-02  5109   0.740E-02    0.156E-01
RMM:   4    -0.413156210882E+03   -0.15311E-01   -0.19897E-02  5119   0.122E-01    0.534E-01
RMM:   5    -0.413139712387E+03    0.16498E-01   -0.78521E-03  4839   0.925E-02    0.533E-02
RMM:   6    -0.413139682593E+03    0.29793E-04   -0.13126E-03  5618   0.364E-02    0.228E-02
RMM:   7    -0.413139712567E+03   -0.29974E-04   -0.25095E-04  5878   0.150E-02    0.165E-02
RMM:   8    -0.413139745036E+03   -0.32469E-04   -0.63611E-05  5163   0.813E-03    0.679E-03
RMM:   9    -0.413139765780E+03   -0.20744E-04   -0.13935E-05  3901   0.435E-03    0.346E-03
RMM:  10    -0.413139780774E+03   -0.14994E-04   -0.25984E-06  2635   0.232E-03    0.223E-03
RMM:  11    -0.413139797700E+03   -0.16925E-04   -0.14404E-06  2544   0.178E-03    0.146E-03
RMM:  12    -0.413139822408E+03   -0.24708E-04   -0.23516E-06  2591   0.186E-03    0.116E-03
RMM:  13    -0.413139828981E+03   -0.65729E-05   -0.57879E-07  1924   0.101E-03    0.590E-04
RMM:  14    -0.413139835124E+03   -0.61428E-05   -0.41932E-07  1813   0.910E-04    0.313E-04
RMM:  15    -0.413139843040E+03   -0.79158E-05   -0.55884E-07  1902   0.938E-04    0.288E-04
RMM:  16    -0.413139846022E+03   -0.29822E-05   -0.19280E-07  1292   0.678E-04    0.159E-04
RMM:  17    -0.413139849557E+03   -0.35349E-05   -0.18182E-07  1402   0.699E-04    0.712E-05
RMM:  18    -0.413139850473E+03   -0.91593E-06   -0.71521E-08  1095   0.580E-04
  142 T=    54. E= -.41287278E+03 F= -.41313985E+03 E0= -.41311921E+03  EK= 0.26707E+00 SP= 0.00E+00 SK= 0.00E+00
       N       E                     dE             d eps       ncg     rms          rms(c)
RMM:   1    -0.413130040183E+03    0.98094E-02   -0.59634E+00  4264   0.111E+00    0.616E-01
RMM:   2    -0.413131931076E+03   -0.18909E-02   -0.66312E-02  4481   0.108E-01    0.457E-01
RMM:   3    -0.413130902265E+03    0.10288E-02   -0.70574E-03  5069   0.655E-02    0.122E-01
RMM:   4    -0.413148828952E+03   -0.17927E-01   -0.20826E-02  5137   0.124E-01    0.565E-01
RMM:   5    -0.413130191826E+03    0.18637E-01   -0.90561E-03  4844   0.964E-02    0.509E-02
RMM:   6    -0.413130175859E+03    0.15967E-04   -0.15179E-03  5663   0.387E-02    0.206E-02
RMM:   7    -0.413130204527E+03   -0.28668E-04   -0.26145E-04  5968   0.149E-02    0.153E-02
RMM:   8    -0.413130231356E+03   -0.26829E-04   -0.54299E-05  5087   0.750E-03    0.633E-03
RMM:   9    -0.413130250658E+03   -0.19302E-04   -0.12265E-05  3683   0.409E-03    0.329E-03
RMM:  10    -0.413130263572E+03   -0.12914E-04   -0.22169E-06  2594   0.218E-03    0.212E-03
RMM:  11    -0.413130280380E+03   -0.16809E-04   -0.16230E-06  2566   0.177E-03    0.137E-03
RMM:  12    -0.413130297458E+03   -0.17078E-04   -0.17408E-06  2513   0.159E-03    0.968E-04
RMM:  13    -0.413130301858E+03   -0.44001E-05   -0.45766E-07  1787   0.943E-04    0.505E-04
RMM:  14    -0.413130307704E+03   -0.58458E-05   -0.46874E-07  2006   0.966E-04    0.295E-04
RMM:  15    -0.413130312795E+03   -0.50912E-05   -0.38199E-07  1593   0.813E-04    0.232E-04
RMM:  16    -0.413130316423E+03   -0.36276E-05   -0.26863E-07  1490   0.747E-04    0.113E-04
RMM:  17    -0.413130318462E+03   -0.20398E-05   -0.14400E-07  1320   0.656E-04    0.791E-05
RMM:  18    -0.413130318998E+03   -0.53585E-06   -0.63793E-08  1017   0.563E-04
  143 T=    54. E= -.41286488E+03 F= -.41313032E+03 E0= -.41310974E+03  EK= 0.26543E+00 SP= 0.00E+00 SK= 0.00E+00
       N       E                     dE             d eps       ncg     rms          rms(c)
RMM:   1    -0.413118096022E+03    0.12222E-01   -0.66474E+00  4264   0.108E+00    0.774E-01
RMM:   2    -0.413118501376E+03   -0.40535E-03   -0.60852E-02  4473   0.107E-01    0.467E-01
RMM:   3    -0.413117373808E+03    0.11276E-02   -0.10389E-02  5019   0.597E-02    0.106E-01
RMM:   4    -0.413128499973E+03   -0.11126E-01   -0.11813E-02  5168   0.944E-02    0.444E-01
RMM:   5    -0.413117274452E+03    0.11226E-01   -0.58516E-03  4872   0.764E-02    0.556E-02
RMM:   6    -0.413117232679E+03    0.41773E-04   -0.10826E-03  5583   0.347E-02    0.250E-02
RMM:   7    -0.413117255900E+03   -0.23221E-04   -0.24384E-04  5956   0.151E-02    0.175E-02
RMM:   8    -0.413117255882E+03    0.18183E-07   -0.55520E-05  5010   0.806E-03    0.662E-03
RMM:   9    -0.413117255971E+03   -0.88774E-07   -0.11010E-05  3724   0.393E-03    0.377E-03
RMM:  10    -0.413117256603E+03   -0.63171E-06   -0.23194E-06  2584   0.238E-03
  144 T=    52. E= -.41286358E+03 F= -.41311726E+03 E0= -.41309673E+03  EK= 0.25368E+00 SP= 0.00E+00 SK= 0.00E+00
       N       E                     dE             d eps       ncg     rms          rms(c)
RMM:   1    -0.413121411764E+03   -0.41558E-02   -0.57911E+00  4264   0.103E+00    0.562E-01
RMM:   2    -0.413126225214E+03   -0.48134E-02   -0.56235E-02  4455   0.105E-01    0.407E-01
RMM:   3    -0.413125312212E+03    0.91300E-03   -0.41698E-03  4922   0.562E-02    0.674E-02
RMM:   4    -0.413131450925E+03   -0.61387E-02   -0.66253E-03  5181   0.722E-02    0.330E-01
RMM:   5    -0.413125272971E+03    0.61780E-02   -0.31674E-03  4870   0.564E-02    0.376E-02
RMM:   6    -0.413125250586E+03    0.22386E-04   -0.58310E-04  5612   0.254E-02    0.146E-02
RMM:   7    -0.413125275726E+03   -0.25140E-04   -0.11548E-04  5858   0.102E-02    0.115E-02
RMM:   8    -0.413125302031E+03   -0.26305E-04   -0.29848E-05  4696   0.585E-03    0.463E-03
RMM:   9    -0.413125317051E+03   -0.15020E-04   -0.57102E-06  2977   0.315E-03    0.266E-03
RMM:  10    -0.413125327929E+03   -0.10877E-04   -0.15533E-06  2541   0.196E-03    0.177E-03
RMM:  11    -0.413125345639E+03   -0.17711E-04   -0.18776E-06  2572   0.180E-03    0.110E-03
RMM:  12    -0.413125358588E+03   -0.12949E-04   -0.15480E-06  2474   0.143E-03    0.661E-04
RMM:  13    -0.413125362313E+03   -0.37246E-05   -0.43137E-07  1564   0.855E-04    0.390E-04
RMM:  14    -0.413125368099E+03   -0.57861E-05   -0.65297E-07  2220   0.105E-03    0.355E-04
RMM:  15    -0.413125370450E+03   -0.23510E-05   -0.25671E-07  1331   0.692E-04    0.216E-04
RMM:  16    -0.413125373113E+03   -0.26627E-05   -0.28421E-07  1524   0.767E-04    0.108E-04
RMM:  17    -0.413125374015E+03   -0.90218E-06   -0.99054E-08  1157   0.604E-04
  145 T=    52. E= -.41286839E+03 F= -.41312537E+03 E0= -.41310489E+03  EK= 0.25699E+00 SP= 0.00E+00 SK= 0.00E+00
       N       E                     dE             d eps       ncg     rms          rms(c)
RMM:   1    -0.413111285912E+03    0.14087E-01   -0.66657E+00  4264   0.105E+00    0.653E-01
RMM:   2    -0.413116755187E+03   -0.54693E-02   -0.71868E-02  4455   0.110E-01    0.504E-01
RMM:   3    -0.413114261135E+03    0.24941E-02   -0.10856E-02  4891   0.689E-02    0.108E-01
RMM:   4    -0.413126756725E+03   -0.12496E-01   -0.13645E-02  5144   0.101E-01    0.472E-01
RMM:   5    -0.413113905563E+03    0.12851E-01   -0.61757E-03  4819   0.792E-02    0.410E-02
RMM:   6    -0.413113921663E+03   -0.16100E-04   -0.10335E-03  5740   0.315E-02    0.195E-02
RMM:   7    -0.413113957235E+03   -0.35572E-04   -0.15516E-04  5882   0.115E-02    0.140E-02
RMM:   8    -0.413113996326E+03   -0.39091E-04   -0.32131E-05  4710   0.591E-03    0.625E-03
RMM:   9    -0.413114034407E+03   -0.38082E-04   -0.86239E-06  3110   0.362E-03    0.291E-03
RMM:  10    -0.413114058917E+03   -0.24510E-04   -0.23738E-06  2593   0.215E-03    0.177E-03
RMM:  11    -0.413114086706E+03   -0.27790E-04   -0.20743E-06  2596   0.183E-03    0.117E-03
RMM:  12    -0.413114106689E+03   -0.19983E-04   -0.15011E-06  2497   0.143E-03    0.710E-04
RMM:  13    -0.413114114440E+03   -0.77507E-05   -0.56112E-07  1657   0.934E-04    0.402E-04
RMM:  14    -0.413114124383E+03   -0.99425E-05   -0.66737E-07  2380   0.110E-03    0.414E-04
RMM:  15    -0.413114128260E+03   -0.38776E-05   -0.24045E-07  1279   0.686E-04    0.232E-04
RMM:  16    -0.413114133786E+03   -0.55261E-05   -0.29130E-07  1538   0.787E-04    0.124E-04
RMM:  17    -0.413114134919E+03   -0.11323E-05   -0.94264E-08  1141   0.613E-04    0.904E-05
RMM:  18    -0.413114135506E+03   -0.58753E-06   -0.57850E-08  1031   0.571E-04
  146 T=    53. E= -.41285600E+03 F= -.41311414E+03 E0= -.41309370E+03  EK= 0.25814E+00 SP= 0.00E+00 SK= 0.00E+00
       N       E                     dE             d eps       ncg     rms          rms(c)
RMM:   1    -0.413118309456E+03   -0.41745E-02   -0.69462E+00  4264   0.108E+00    0.799E-01
RMM:   2    -0.413116243362E+03    0.20661E-02   -0.63827E-02  4446   0.105E-01    0.474E-01
RMM:   3    -0.413115765362E+03    0.47800E-03   -0.98977E-03  4895   0.561E-02    0.986E-02
RMM:   4    -0.413121605397E+03   -0.58400E-02   -0.61155E-03  5207   0.693E-02    0.320E-01
RMM:   5    -0.413115850793E+03    0.57546E-02   -0.30296E-03  4883   0.550E-02    0.458E-02
RMM:   6    -0.413115826045E+03    0.24748E-04   -0.64282E-04  5607   0.270E-02    0.224E-02
RMM:   7    -0.413115834843E+03   -0.87983E-05   -0.13179E-04  5859   0.114E-02    0.139E-02
RMM:   8    -0.413115837519E+03   -0.26756E-05   -0.27351E-05  4578   0.578E-03    0.539E-03
RMM:   9    -0.413115839029E+03   -0.15098E-05   -0.63438E-06  3142   0.321E-03    0.317E-03
RMM:  10    -0.413115840500E+03   -0.14711E-05   -0.26566E-06  2631   0.239E-03    0.212E-03
RMM:  11    -0.413115839954E+03    0.54612E-06   -0.25119E-06  2600   0.203E-03
  147 T=    51. E= -.41286513E+03 F= -.41311584E+03 E0= -.41309544E+03  EK= 0.25071E+00 SP= 0.00E+00 SK= 0.00E+00
       N       E                     dE             d eps       ncg     rms          rms(c)
RMM:   1    -0.413105842019E+03    0.99985E-02   -0.56948E+00  4264   0.101E+00    0.561E-01
RMM:   2    -0.413110624476E+03   -0.47825E-02   -0.55094E-02  4469   0.101E-01    0.390E-01
RMM:   3    -0.413110309801E+03    0.31468E-03   -0.33884E-03  4998   0.495E-02    0.836E-02
RMM:   4    -0.413118191008E+03   -0.78812E-02   -0.80961E-03  5190   0.777E-02    0.373E-01
RMM:   5    -0.413110257492E+03    0.79335E-02   -0.40040E-03  4855   0.629E-02    0.320E-02
RMM:   6    -0.413110261270E+03   -0.37784E-05   -0.71589E-04  5733   0.267E-02    0.130E-02
RMM:   7    -0.413110278963E+03   -0.17693E-04   -0.10893E-04  5732   0.960E-03    0.979E-03
RMM:   8    -0.413110296078E+03   -0.17115E-04   -0.15748E-05  3812   0.427E-03    0.501E-03
RMM:   9    -0.413110313380E+03   -0.17303E-04   -0.45296E-06  2759   0.291E-03    0.252E-03
RMM:  10    -0.413110326511E+03   -0.13130E-04   -0.23062E-06  2587   0.211E-03    0.155E-03
RMM:  11    -0.413110337585E+03   -0.11075E-04   -0.17047E-06  2561   0.166E-03    0.907E-04
RMM:  12    -0.413110343065E+03   -0.54792E-05   -0.82646E-07  2192   0.113E-03    0.511E-04
RMM:  13    -0.413110346613E+03   -0.35480E-05   -0.55236E-07  1812   0.959E-04    0.298E-04
RMM:  14    -0.413110349633E+03   -0.30205E-05   -0.57563E-07  1962   0.956E-04    0.235E-04
RMM:  15    -0.413110350980E+03   -0.13465E-05   -0.30932E-07  1495   0.751E-04    0.115E-04
RMM:  16    -0.413110351776E+03   -0.79638E-06   -0.20589E-07  1368   0.694E-04
  148 T=    50. E= -.41286350E+03 F= -.41311035E+03 E0= -.41308999E+03  EK= 0.24685E+00 SP= 0.00E+00 SK= 0.00E+00
       N       E                     dE             d eps       ncg     rms          rms(c)
RMM:   1    -0.413109286847E+03    0.10641E-02   -0.66562E+00  4264   0.103E+00    0.661E-01
RMM:   2    -0.413114648394E+03   -0.53615E-02   -0.74530E-02  4469   0.106E-01    0.516E-01
RMM:   3    -0.413111418153E+03    0.32302E-02   -0.14385E-02  4755   0.690E-02    0.136E-01
RMM:   4    -0.413119436701E+03   -0.80185E-02   -0.87288E-03  5141   0.846E-02    0.379E-01
RMM:   5    -0.413111256357E+03    0.81803E-02   -0.37916E-03  4816   0.631E-02    0.372E-02
RMM:   6    -0.413111278039E+03   -0.21682E-04   -0.67376E-04  5752   0.256E-02    0.220E-02
RMM:   7    -0.413111317487E+03   -0.39447E-04   -0.10121E-04  5632   0.971E-03    0.144E-02
RMM:   8    -0.413111361937E+03   -0.44451E-04   -0.23884E-05  4210   0.535E-03    0.608E-03
RMM:   9    -0.413111403999E+03   -0.42062E-04   -0.78205E-06  2912   0.350E-03    0.267E-03
RMM:  10    -0.413111431200E+03   -0.27201E-04   -0.25847E-06  2607   0.220E-03    0.175E-03
RMM:  11    -0.413111458216E+03   -0.27016E-04   -0.20935E-06  2594   0.182E-03    0.108E-03
RMM:  12    -0.413111475647E+03   -0.17431E-04   -0.12806E-06  2420   0.133E-03    0.584E-04
RMM:  13    -0.413111484291E+03   -0.86441E-05   -0.58033E-07  1666   0.933E-04    0.326E-04
RMM:  14    -0.413111493165E+03   -0.88743E-05   -0.50278E-07  2133   0.975E-04    0.274E-04
RMM:  15    -0.413111498460E+03   -0.52946E-05   -0.26127E-07  1428   0.714E-04    0.155E-04
RMM:  16    -0.413111501895E+03   -0.34347E-05   -0.15618E-07  1271   0.663E-04    0.864E-05
RMM:  17    -0.413111503155E+03   -0.12602E-05   -0.86057E-08  1136   0.604E-04    0.592E-05
RMM:  18    -0.413111503817E+03   -0.66275E-06   -0.56459E-08  1021   0.568E-04
  149 T=    51. E= -.41285928E+03 F= -.41311150E+03 E0= -.41309117E+03  EK= 0.25223E+00 SP= 0.00E+00 SK= 0.00E+00
       N       E                     dE             d eps       ncg     rms          rms(c)
RMM:   1    -0.413118878974E+03   -0.73758E-02   -0.61146E+00  4264   0.101E+00    0.708E-01
RMM:   2    -0.413120726396E+03   -0.18474E-02   -0.58360E-02  4447   0.101E-01    0.446E-01
RMM:   3    -0.413119978322E+03    0.74807E-03   -0.71959E-03  4945   0.491E-02    0.827E-02
RMM:   4    -0.413120298881E+03   -0.32056E-03   -0.80425E-04  5393   0.274E-02    0.740E-02
RMM:   5    -0.413120104083E+03    0.19480E-03   -0.30396E-04  5113   0.177E-02    0.452E-02
RMM:   6    -0.413120052344E+03    0.51738E-04   -0.18714E-04  5325   0.153E-02    0.211E-02
RMM:   7    -0.413120066196E+03   -0.13852E-04   -0.76624E-05  5349   0.993E-03    0.123E-02
RMM:   8    -0.413120071255E+03   -0.50592E-05   -0.19451E-05  4150   0.569E-03    0.468E-03
RMM:   9    -0.413120073448E+03   -0.21928E-05   -0.37756E-06  2895   0.274E-03    0.271E-03
RMM:  10    -0.413120076005E+03   -0.25565E-05   -0.21627E-06  2560   0.219E-03    0.175E-03
RMM:  11    -0.413120079091E+03   -0.30864E-05   -0.25627E-06  2574   0.204E-03    0.953E-04
RMM:  12    -0.413120079041E+03    0.49553E-07   -0.11255E-06  2381   0.130E-03
  150 T=    51. E= -.41287154E+03 F= -.41312008E+03 E0= -.41309977E+03  EK= 0.24854E+00 SP= 0.00E+00 SK= 0.00E+00
