       N       E                     dE             d eps       ncg     rms          rms(c)
RMM:   1     0.220097248603E+04    0.22010E+04   -0.52445E+04  2132   0.654E+02
RMM:   2     0.705328296711E+03   -0.14956E+04   -0.16262E+04  2132   0.177E+02
RMM:   3     0.137637800456E+03   -0.56769E+03   -0.65665E+03  2132   0.117E+02
RMM:   4    -0.159470529586E+03   -0.29711E+03   -0.27825E+03  2132   0.936E+01
RMM:   5    -0.287500317275E+03   -0.12803E+03   -0.11431E+03  2132   0.595E+01
RMM:   6    -0.349912735449E+03   -0.62412E+02   -0.55126E+02  2132   0.423E+01
RMM:   7    -0.382750944742E+03   -0.32838E+02   -0.30393E+02  2132   0.293E+01
RMM:   8    -0.404246621258E+03   -0.21496E+02   -0.18434E+02  2132   0.233E+01
RMM:   9    -0.436007929942E+03   -0.31761E+02   -0.30643E+02  6105   0.173E+01
RMM:  10    -0.441293417495E+03   -0.52855E+01   -0.63042E+01  6399   0.538E+00
RMM:  11    -0.442497684981E+03   -0.12043E+01   -0.11131E+01  6201   0.173E+00
RMM:  12    -0.442876236582E+03   -0.37855E+00   -0.25926E+00  6359   0.598E-01    0.134E+02
RMM:  13    -0.425563660998E+03    0.17313E+02   -0.80955E+01  4671   0.119E+01    0.712E+01
RMM:  14    -0.498572193207E+03   -0.73009E+02   -0.53443E+02  5413   0.231E+01    0.305E+01
RMM:  15    -0.416602740525E+03    0.81969E+02   -0.19927E+02  5095   0.163E+01    0.748E+00
RMM:  16    -0.414032641982E+03    0.25701E+01   -0.39852E+01  6088   0.613E+00    0.431E+00
RMM:  17    -0.413203450627E+03    0.82919E+00   -0.26251E+00  5388   0.191E+00    0.242E+00
RMM:  18    -0.413176077749E+03    0.27373E-01   -0.76157E-01  5990   0.889E-01    0.169E+00
RMM:  19    -0.413172185630E+03    0.38921E-02   -0.25497E-01  5649   0.550E-01    0.907E-01
RMM:  20    -0.413192881753E+03   -0.20696E-01   -0.32151E-01  5579   0.583E-01    0.671E-01
RMM:  21    -0.413168667900E+03    0.24214E-01   -0.36463E-02  4980   0.251E-01    0.312E-01
RMM:  22    -0.413164882113E+03    0.37858E-02   -0.25870E-02  5867   0.155E-01    0.135E-01
RMM:  23    -0.413164167737E+03    0.71438E-03   -0.60089E-03  6058   0.696E-02    0.866E-02
RMM:  24    -0.413163202725E+03    0.96501E-03   -0.17136E-03  5281   0.428E-02    0.563E-02
RMM:  25    -0.413162655312E+03    0.54741E-03   -0.84089E-04  5045   0.304E-02    0.384E-02
RMM:  26    -0.413162806346E+03   -0.15103E-03   -0.10134E-03  5817   0.324E-02    0.335E-02
RMM:  27    -0.413163233932E+03   -0.42759E-03   -0.18885E-04  4604   0.197E-02    0.201E-02
RMM:  28    -0.413163680301E+03   -0.44637E-03   -0.15854E-04  5142   0.177E-02    0.945E-03
RMM:  29    -0.413164086644E+03   -0.40634E-03   -0.10901E-04  4559   0.157E-02    0.437E-03
RMM:  30    -0.413164332005E+03   -0.24536E-03   -0.80065E-05  4474   0.108E-02    0.453E-03
RMM:  31    -0.413164480248E+03   -0.14824E-03   -0.57832E-05  3278   0.756E-03    0.357E-03
RMM:  32    -0.413164510720E+03   -0.30472E-04   -0.22344E-05  2994   0.326E-03    0.220E-03
RMM:  33    -0.413164525637E+03   -0.14917E-04   -0.93015E-06  2833   0.243E-03    0.664E-04
RMM:  34    -0.413164528233E+03   -0.25961E-05   -0.50967E-06  2623   0.160E-03    0.547E-04
RMM:  35    -0.413164529245E+03   -0.10120E-05   -0.23306E-06  2449   0.136E-03    0.882E-04
RMM:  36    -0.413164528895E+03    0.34975E-06   -0.13745E-06  1977   0.987E-04
    1 T=    61. E= -.41286673E+03 F= -.41316453E+03 E0= -.41314203E+03  EK= 0.29780E+00 SP= 0.00E+00 SK= 0.00E+00
       N       E                     dE             d eps       ncg     rms          rms(c)
RMM:   1    -0.413159917197E+03    0.46120E-02   -0.11062E+01  3982   0.723E-01    0.886E-01
RMM:   2    -0.413165865980E+03   -0.59488E-02   -0.13905E-01  3961   0.101E-01    0.642E-01
RMM:   3    -0.413164204713E+03    0.16613E-02   -0.67049E-03  4624   0.354E-02    0.151E-01
RMM:   4    -0.413177623393E+03   -0.13419E-01   -0.14063E-02  5211   0.991E-02    0.487E-01
RMM:   5    -0.413163988938E+03    0.13634E-01   -0.67770E-03  4856   0.811E-02    0.276E-02
RMM:   6    -0.413164071561E+03   -0.82623E-04   -0.10948E-03  5831   0.318E-02    0.174E-02
RMM:   7    -0.413164082740E+03   -0.11179E-04   -0.15148E-04  5674   0.109E-02    0.116E-02
RMM:   8    -0.413164089708E+03   -0.69681E-05   -0.21315E-05  4153   0.473E-03    0.548E-03
RMM:   9    -0.413164095447E+03   -0.57388E-05   -0.44325E-06  2848   0.254E-03    0.394E-03
RMM:  10    -0.413164101122E+03   -0.56757E-05   -0.11883E-06  2523   0.161E-03    0.255E-03
RMM:  11    -0.413164109003E+03   -0.78805E-05   -0.12477E-06  2528   0.153E-03    0.108E-03
RMM:  12    -0.413164113690E+03   -0.46873E-05   -0.71319E-07  2301   0.116E-03    0.418E-04
RMM:  13    -0.413164114434E+03   -0.74407E-06   -0.32966E-07  1606   0.798E-04
    2 T=    61. E= -.41286644E+03 F= -.41316411E+03 E0= -.41314161E+03  EK= 0.29767E+00 SP= 0.00E+00 SK= 0.00E+00
       N       E                     dE             d eps       ncg     rms          rms(c)
RMM:   1    -0.413156423989E+03    0.76897E-02   -0.11046E+01  4196   0.699E-01    0.911E-01
RMM:   2    -0.413165848531E+03   -0.94245E-02   -0.13306E-01  4049   0.970E-02    0.634E-01
RMM:   3    -0.413164945240E+03    0.90329E-03   -0.71930E-03  4829   0.380E-02    0.162E-01
RMM:   4    -0.413190719765E+03   -0.25775E-01   -0.26128E-02  5184   0.135E-01    0.669E-01
RMM:   5    -0.413164604418E+03    0.26115E-01   -0.12711E-02  4829   0.112E-01    0.369E-02
RMM:   6    -0.413164770508E+03   -0.16609E-03   -0.20849E-03  5812   0.440E-02    0.209E-02
RMM:   7    -0.413164780457E+03   -0.99489E-05   -0.26115E-04  5899   0.138E-02    0.144E-02
RMM:   8    -0.413164781000E+03   -0.54271E-06   -0.37003E-05  4674   0.578E-03    0.774E-03
RMM:   9    -0.413164780576E+03    0.42365E-06   -0.73471E-06  3201   0.308E-03
    3 T=    61. E= -.41286692E+03 F= -.41316478E+03 E0= -.41314229E+03  EK= 0.29786E+00 SP= 0.00E+00 SK= 0.00E+00
       N       E                     dE             d eps       ncg     rms          rms(c)
RMM:   1    -0.413155900932E+03    0.88801E-02   -0.10955E+01  4228   0.698E-01    0.894E-01
RMM:   2    -0.413165867206E+03   -0.99663E-02   -0.13191E-01  4260   0.982E-02    0.628E-01
RMM:   3    -0.413170017773E+03   -0.41506E-02   -0.11282E-02  5191   0.764E-02    0.348E-01
RMM:   4    -0.413186998299E+03   -0.16981E-01   -0.36425E-02  5114   0.163E-01    0.627E-01
RMM:   5    -0.413164521075E+03    0.22477E-01   -0.88100E-03  4705   0.105E-01    0.536E-02
RMM:   6    -0.413164508285E+03    0.12790E-04   -0.15405E-03  5464   0.395E-02    0.197E-02
RMM:   7    -0.413164527058E+03   -0.18773E-04   -0.24974E-04  6011   0.146E-02    0.132E-02
RMM:   8    -0.413164529428E+03   -0.23702E-05   -0.37622E-05  5043   0.628E-03    0.686E-03
RMM:   9    -0.413164530795E+03   -0.13665E-05   -0.88405E-06  3453   0.381E-03    0.364E-03
RMM:  10    -0.413164532130E+03   -0.13351E-05   -0.13970E-06  2535   0.197E-03    0.219E-03
RMM:  11    -0.413164534307E+03   -0.21774E-05   -0.12251E-06  2542   0.171E-03    0.127E-03
RMM:  12    -0.413164535327E+03   -0.10192E-05   -0.55171E-07  2346   0.118E-03    0.458E-04
RMM:  13    -0.413164536229E+03   -0.90197E-06   -0.35922E-07  1652   0.852E-04
    4 T=    61. E= -.41286671E+03 F= -.41316454E+03 E0= -.41314205E+03  EK= 0.29782E+00 SP= 0.00E+00 SK= 0.00E+00
       N       E                     dE             d eps       ncg     rms          rms(c)
RMM:   1    -0.413155729348E+03    0.88060E-02   -0.10995E+01  4235   0.705E-01    0.883E-01
RMM:   2    -0.413166232345E+03   -0.10503E-01   -0.13583E-01  3980   0.949E-02    0.640E-01
RMM:   3    -0.413164973721E+03    0.12586E-02   -0.68660E-03  4936   0.382E-02    0.159E-01
RMM:   4    -0.413196532433E+03   -0.31559E-01   -0.32402E-02  5156   0.150E-01    0.740E-01
RMM:   5    -0.413164425180E+03    0.32107E-01   -0.15558E-02  4811   0.124E-01    0.387E-02
RMM:   6    -0.413164622557E+03   -0.19738E-03   -0.25268E-03  5780   0.485E-02    0.198E-02
RMM:   7    -0.413164641455E+03   -0.18897E-04   -0.30965E-04  5906   0.146E-02    0.145E-02
RMM:   8    -0.413164646974E+03   -0.55190E-05   -0.42024E-05  4749   0.599E-03    0.806E-03
RMM:   9    -0.413164651282E+03   -0.43081E-05   -0.84331E-06  3262   0.320E-03    0.536E-03
RMM:  10    -0.413164656785E+03   -0.55031E-05   -0.19544E-06  2560   0.199E-03    0.319E-03
RMM:  11    -0.413164662906E+03   -0.61209E-05   -0.15297E-06  2551   0.181E-03    0.154E-03
RMM:  12    -0.413164667219E+03   -0.43131E-05   -0.91177E-07  2465   0.143E-03    0.478E-04
RMM:  13    -0.413164668035E+03   -0.81638E-06   -0.33426E-07  2039   0.954E-04
    5 T=    61. E= -.41286670E+03 F= -.41316467E+03 E0= -.41314219E+03  EK= 0.29796E+00 SP= 0.00E+00 SK= 0.00E+00
       N       E                     dE             d eps       ncg     rms          rms(c)
RMM:   1    -0.413156671130E+03    0.79961E-02   -0.11044E+01  4250   0.713E-01    0.906E-01
RMM:   2    -0.413166438486E+03   -0.97674E-02   -0.13309E-01  4080   0.967E-02    0.636E-01
RMM:   3    -0.413165452815E+03    0.98567E-03   -0.70595E-03  4828   0.382E-02    0.161E-01
RMM:   4    -0.413192461648E+03   -0.27009E-01   -0.27394E-02  5161   0.138E-01    0.686E-01
RMM:   5    -0.413165031578E+03    0.27430E-01   -0.13386E-02  4819   0.114E-01    0.370E-02
RMM:   6    -0.413165202319E+03   -0.17074E-03   -0.21682E-03  5798   0.448E-02    0.207E-02
RMM:   7    -0.413165212559E+03   -0.10240E-04   -0.26958E-04  5889   0.139E-02    0.145E-02
RMM:   8    -0.413165212986E+03   -0.42750E-06   -0.38490E-05  4700   0.590E-03    0.796E-03
RMM:   9    -0.413165212324E+03    0.66224E-06   -0.77593E-06  3232   0.316E-03
    6 T=    61. E= -.41286690E+03 F= -.41316521E+03 E0= -.41314275E+03  EK= 0.29831E+00 SP= 0.00E+00 SK= 0.00E+00
       N       E                     dE             d eps       ncg     rms          rms(c)
RMM:   1    -0.413156384153E+03    0.88288E-02   -0.10989E+01  4271   0.716E-01    0.901E-01
RMM:   2    -0.413165898797E+03   -0.95146E-02   -0.13235E-01  4289   0.993E-02    0.629E-01
RMM:   3    -0.413170283565E+03   -0.43848E-02   -0.11463E-02  5165   0.759E-02    0.347E-01
RMM:   4    -0.413187099073E+03   -0.16816E-01   -0.36065E-02  5091   0.162E-01    0.624E-01
RMM:   5    -0.413164845558E+03    0.22254E-01   -0.86751E-03  4693   0.103E-01    0.531E-02
RMM:   6    -0.413164834920E+03    0.10638E-04   -0.15388E-03  5470   0.392E-02    0.199E-02
RMM:   7    -0.413164851085E+03   -0.16165E-04   -0.24351E-04  6010   0.145E-02    0.132E-02
RMM:   8    -0.413164851798E+03   -0.71317E-06   -0.37556E-05  5045   0.629E-03    0.682E-03
RMM:   9    -0.413164850352E+03    0.14459E-05   -0.84696E-06  3370   0.375E-03    0.358E-03
RMM:  10    -0.413164850531E+03   -0.17837E-06   -0.13444E-06  2530   0.196E-03
    7 T=    61. E= -.41286642E+03 F= -.41316485E+03 E0= -.41314240E+03  EK= 0.29843E+00 SP= 0.00E+00 SK= 0.00E+00
       N       E                     dE             d eps       ncg     rms          rms(c)
RMM:   1    -0.413156483843E+03    0.83665E-02   -0.10987E+01  4267   0.720E-01    0.883E-01
RMM:   2    -0.413167084251E+03   -0.10600E-01   -0.13511E-01  4107   0.951E-02    0.638E-01
RMM:   3    -0.413165811320E+03    0.12729E-02   -0.68729E-03  4944   0.386E-02    0.162E-01
RMM:   4    -0.413198601285E+03   -0.32790E-01   -0.33677E-02  5149   0.153E-01    0.753E-01
RMM:   5    -0.413165307223E+03    0.33294E-01   -0.16191E-02  4812   0.126E-01    0.401E-02
RMM:   6    -0.413165500033E+03   -0.19281E-03   -0.25868E-03  5758   0.492E-02    0.198E-02
RMM:   7    -0.413165519669E+03   -0.19636E-04   -0.32395E-04  5915   0.148E-02    0.144E-02
RMM:   8    -0.413165524376E+03   -0.47070E-05   -0.39924E-05  4627   0.586E-03    0.756E-03
RMM:   9    -0.413165527715E+03   -0.33391E-05   -0.84246E-06  3236   0.314E-03    0.503E-03
RMM:  10    -0.413165531738E+03   -0.40224E-05   -0.19429E-06  2557   0.198E-03    0.301E-03
RMM:  11    -0.413165536226E+03   -0.44885E-05   -0.14740E-06  2550   0.176E-03    0.139E-03
RMM:  12    -0.413165539058E+03   -0.28319E-05   -0.87451E-07  2456   0.138E-03    0.421E-04
RMM:  13    -0.413165539619E+03   -0.56091E-06   -0.32675E-07  1980   0.926E-04
    8 T=    61. E= -.41286674E+03 F= -.41316554E+03 E0= -.41314311E+03  EK= 0.29880E+00 SP= 0.00E+00 SK= 0.00E+00
       N       E                     dE             d eps       ncg     rms          rms(c)
RMM:   1    -0.413156961957E+03    0.85771E-02   -0.11049E+01  4285   0.723E-01    0.900E-01
RMM:   2    -0.413166953029E+03   -0.99911E-02   -0.13431E-01  4183   0.101E-01    0.639E-01
RMM:   3    -0.413165878350E+03    0.10747E-02   -0.70200E-03  4803   0.384E-02    0.158E-01
RMM:   4    -0.413192002063E+03   -0.26124E-01   -0.26559E-02  5152   0.136E-01    0.675E-01
RMM:   5    -0.413165427528E+03    0.26575E-01   -0.13036E-02  4809   0.112E-01    0.358E-02
RMM:   6    -0.413165591950E+03   -0.16442E-03   -0.20850E-03  5795   0.439E-02    0.201E-02
RMM:   7    -0.413165602908E+03   -0.10958E-04   -0.25751E-04  5853   0.137E-02    0.142E-02
RMM:   8    -0.413165603958E+03   -0.10500E-05   -0.37568E-05  4692   0.588E-03    0.786E-03
RMM:   9    -0.413165603572E+03    0.38617E-06   -0.76113E-06  3216   0.318E-03
    9 T=    61. E= -.41286662E+03 F= -.41316560E+03 E0= -.41314319E+03  EK= 0.29898E+00 SP= 0.00E+00 SK= 0.00E+00
       N       E                     dE             d eps       ncg     rms          rms(c)
RMM:   1    -0.413157386882E+03    0.82171E-02   -0.11029E+01  4291   0.729E-01    0.909E-01
RMM:   2    -0.413166650224E+03   -0.92633E-02   -0.13252E-01  4300   0.982E-02    0.631E-01
RMM:   3    -0.413171339180E+03   -0.46890E-02   -0.11789E-02  5151   0.777E-02    0.354E-01
RMM:   4    -0.413187050775E+03   -0.15712E-01   -0.35444E-02  5085   0.160E-01    0.613E-01
RMM:   5    -0.413165743468E+03    0.21307E-01   -0.83235E-03  4691   0.102E-01    0.523E-02
RMM:   6    -0.413165732538E+03    0.10930E-04   -0.14764E-03  5460   0.380E-02    0.203E-02
RMM:   7    -0.413165746573E+03   -0.14035E-04   -0.23352E-04  6002   0.142E-02    0.134E-02
RMM:   8    -0.413165745571E+03    0.10017E-05   -0.36551E-05  5040   0.626E-03    0.677E-03
RMM:   9    -0.413165741547E+03    0.40242E-05   -0.81423E-06  3295   0.369E-03    0.354E-03
RMM:  10    -0.413165740783E+03    0.76466E-06   -0.13152E-06  2523   0.194E-03
   10 T=    61. E= -.41286657E+03 F= -.41316574E+03 E0= -.41314336E+03  EK= 0.29917E+00 SP= 0.00E+00 SK= 0.00E+00
       N       E                     dE             d eps       ncg     rms          rms(c)
RMM:   1    -0.413157601775E+03    0.81398E-02   -0.10975E+01  4300   0.728E-01    0.884E-01
RMM:   2    -0.413168068458E+03   -0.10467E-01   -0.13403E-01  4205   0.975E-02    0.635E-01
RMM:   3    -0.413166952792E+03    0.11157E-02   -0.68607E-03  4917   0.416E-02    0.166E-01
RMM:   4    -0.413201641496E+03   -0.34689E-01   -0.35810E-02  5143   0.157E-01    0.775E-01
RMM:   5    -0.413166280997E+03    0.35360E-01   -0.17212E-02  4808   0.130E-01    0.414E-02
RMM:   6    -0.413166485734E+03   -0.20474E-03   -0.27611E-03  5767   0.507E-02    0.206E-02
RMM:   7    -0.413166503033E+03   -0.17299E-04   -0.34506E-04  5925   0.152E-02    0.150E-02
RMM:   8    -0.413166504910E+03   -0.18775E-05   -0.43155E-05  4718   0.609E-03    0.799E-03
RMM:   9    -0.413166505622E+03   -0.71159E-06   -0.91873E-06  3307   0.327E-03
   11 T=    61. E= -.41286689E+03 F= -.41316651E+03 E0= -.41314415E+03  EK= 0.29962E+00 SP= 0.00E+00 SK= 0.00E+00
       N       E                     dE             d eps       ncg     rms          rms(c)
RMM:   1    -0.413158589360E+03    0.79156E-02   -0.11063E+01  4301   0.752E-01    0.895E-01
RMM:   2    -0.413167841625E+03   -0.92523E-02   -0.13540E-01  4298   0.996E-02    0.642E-01
RMM:   3    -0.413171769267E+03   -0.39276E-02   -0.11294E-02  5151   0.761E-02    0.344E-01
RMM:   4    -0.413192238705E+03   -0.20469E-01   -0.40615E-02  5096   0.171E-01    0.670E-01
RMM:   5    -0.413166327789E+03    0.25911E-01   -0.10378E-02  4697   0.111E-01    0.542E-02
RMM:   6    -0.413166340116E+03   -0.12327E-04   -0.18073E-03  5497   0.420E-02    0.189E-02
RMM:   7    -0.413166360834E+03   -0.20718E-04   -0.27240E-04  6017   0.150E-02    0.130E-02
RMM:   8    -0.413166364088E+03   -0.32542E-05   -0.41285E-05  5077   0.641E-03    0.693E-03
RMM:   9    -0.413166365686E+03   -0.15985E-05   -0.88228E-06  3330   0.376E-03    0.369E-03
RMM:  10    -0.413166367078E+03   -0.13922E-05   -0.16000E-06  2546   0.200E-03    0.219E-03
RMM:  11    -0.413166369018E+03   -0.19397E-05   -0.13520E-06  2542   0.176E-03    0.136E-03
RMM:  12    -0.413166369671E+03   -0.65264E-06   -0.58670E-07  2390   0.123E-03
   12 T=    61. E= -.41286652E+03 F= -.41316637E+03 E0= -.41314404E+03  EK= 0.29985E+00 SP= 0.00E+00 SK= 0.00E+00
       N       E                     dE             d eps       ncg     rms          rms(c)
RMM:   1    -0.413158665878E+03    0.77031E-02   -0.11069E+01  4293   0.742E-01    0.914E-01
RMM:   2    -0.413167953862E+03   -0.92880E-02   -0.13265E-01  4222   0.943E-02    0.633E-01
RMM:   3    -0.413167549661E+03    0.40420E-03   -0.74876E-03  5028   0.403E-02    0.180E-01
RMM:   4    -0.413206588769E+03   -0.39039E-01   -0.41082E-02  5146   0.168E-01    0.821E-01
RMM:   5    -0.413166792245E+03    0.39797E-01   -0.19311E-02  4799   0.137E-01    0.450E-02
RMM:   6    -0.413167003349E+03   -0.21110E-03   -0.30432E-03  5755   0.537E-02    0.228E-02
RMM:   7    -0.413167015860E+03   -0.12511E-04   -0.38184E-04  5935   0.162E-02    0.164E-02
RMM:   8    -0.413167012967E+03    0.28932E-05   -0.51974E-05  4992   0.670E-03    0.915E-03
RMM:   9    -0.413167007751E+03    0.52163E-05   -0.10058E-05  3414   0.344E-03    0.574E-03
RMM:  10    -0.413167004282E+03    0.34685E-05   -0.22363E-06  2564   0.210E-03    0.334E-03
RMM:  11    -0.413167000882E+03    0.34003E-05   -0.15284E-06  2539   0.185E-03    0.154E-03
RMM:  12    -0.413166997753E+03    0.31293E-05   -0.91278E-07  2476   0.148E-03    0.455E-04
RMM:  13    -0.413166996991E+03    0.76131E-06   -0.35543E-07  2102   0.100E-03
   13 T=    61. E= -.41286664E+03 F= -.41316700E+03 E0= -.41314470E+03  EK= 0.30036E+00 SP= 0.00E+00 SK= 0.00E+00
       N       E                     dE             d eps       ncg     rms          rms(c)
RMM:   1    -0.413159534436E+03    0.74633E-02   -0.10993E+01  4293   0.754E-01    0.888E-01
RMM:   2    -0.413168893251E+03   -0.93588E-02   -0.13418E-01  4234   0.956E-02    0.633E-01
RMM:   3    -0.413167913888E+03    0.97936E-03   -0.69024E-03  4896   0.380E-02    0.163E-01
RMM:   4    -0.413198597222E+03   -0.30683E-01   -0.31526E-02  5144   0.148E-01    0.730E-01
RMM:   5    -0.413167359371E+03    0.31238E-01   -0.15351E-02  4801   0.122E-01    0.380E-02
RMM:   6    -0.413167546422E+03   -0.18705E-03   -0.24073E-03  5786   0.476E-02    0.208E-02
RMM:   7    -0.413167557259E+03   -0.10836E-04   -0.29333E-04  5890   0.146E-02    0.147E-02
RMM:   8    -0.413167556970E+03    0.28860E-06   -0.43986E-05  4820   0.625E-03    0.847E-03
RMM:   9    -0.413167554588E+03    0.23819E-05   -0.88806E-06  3352   0.335E-03    0.567E-03
RMM:  10    -0.413167554220E+03    0.36803E-06   -0.18496E-06  2550   0.200E-03
   14 T=    61. E= -.41286664E+03 F= -.41316755E+03 E0= -.41314529E+03  EK= 0.30092E+00 SP= 0.00E+00 SK= 0.00E+00
       N       E                     dE             d eps       ncg     rms          rms(c)
RMM:   1    -0.413158831280E+03    0.87233E-02   -0.11076E+01  4306   0.751E-01    0.892E-01
RMM:   2    -0.413169566616E+03   -0.10735E-01   -0.13665E-01  4283   0.990E-02    0.644E-01
RMM:   3    -0.413170721250E+03   -0.11546E-02   -0.92266E-03  5117   0.627E-02    0.275E-01
RMM:   4    -0.413204961697E+03   -0.34240E-01   -0.47857E-02  5111   0.183E-01    0.798E-01
RMM:   5    -0.413167570417E+03    0.37391E-01   -0.16278E-02  4745   0.132E-01    0.519E-02
RMM:   6    -0.413167692705E+03   -0.12229E-03   -0.26448E-03  5647   0.508E-02    0.182E-02
RMM:   7    -0.413167718398E+03   -0.25693E-04   -0.34331E-04  6013   0.155E-02    0.137E-02
RMM:   8    -0.413167721954E+03   -0.35559E-05   -0.48267E-05  5064   0.663E-03    0.723E-03
RMM:   9    -0.413167722353E+03   -0.39828E-06   -0.87436E-06  3145   0.337E-03
   15 T=    61. E= -.41286637E+03 F= -.41316772E+03 E0= -.41314549E+03  EK= 0.30135E+00 SP= 0.00E+00 SK= 0.00E+00
       N       E                     dE             d eps       ncg     rms          rms(c)
RMM:   1    -0.413160554591E+03    0.71674E-02   -0.11113E+01  4299   0.758E-01    0.915E-01
RMM:   2    -0.413169840418E+03   -0.92858E-02   -0.13394E-01  4262   0.100E-01    0.636E-01
RMM:   3    -0.413169097409E+03    0.74301E-03   -0.73968E-03  4928   0.406E-02    0.171E-01
RMM:   4    -0.413203022060E+03   -0.33925E-01   -0.34970E-02  5144   0.155E-01    0.766E-01
RMM:   5    -0.413168482873E+03    0.34539E-01   -0.16896E-02  4804   0.128E-01    0.415E-02
RMM:   6    -0.413168678393E+03   -0.19552E-03   -0.26732E-03  5811   0.503E-02    0.226E-02
RMM:   7    -0.413168686312E+03   -0.79193E-05   -0.33862E-04  5926   0.156E-02    0.159E-02
RMM:   8    -0.413168681949E+03    0.43628E-05   -0.45352E-05  4842   0.637E-03    0.855E-03
RMM:   9    -0.413168676496E+03    0.54531E-05   -0.96005E-06  3392   0.338E-03    0.572E-03
RMM:  10    -0.413168672784E+03    0.37126E-05   -0.19356E-06  2548   0.205E-03    0.341E-03
RMM:  11    -0.413168668545E+03    0.42382E-05   -0.16708E-06  2560   0.193E-03    0.155E-03
RMM:  12    -0.413168664722E+03    0.38235E-05   -0.92761E-07  2488   0.150E-03    0.511E-04
RMM:  13    -0.413168663938E+03    0.78369E-06   -0.32749E-07  2085   0.964E-04
   16 T=    61. E= -.41286665E+03 F= -.41316866E+03 E0= -.41314647E+03  EK= 0.30201E+00 SP= 0.00E+00 SK= 0.00E+00
       N       E                     dE             d eps       ncg     rms          rms(c)
RMM:   1    -0.413160427668E+03    0.82371E-02   -0.11023E+01  4299   0.752E-01    0.895E-01
RMM:   2    -0.413170531837E+03   -0.10104E-01   -0.13445E-01  4258   0.995E-02    0.633E-01
RMM:   3    -0.413169430345E+03    0.11015E-02   -0.70358E-03  4900   0.423E-02    0.170E-01
RMM:   4    -0.413203725190E+03   -0.34295E-01   -0.35320E-02  5138   0.156E-01    0.770E-01
RMM:   5    -0.413168876628E+03    0.34849E-01   -0.17080E-02  4798   0.129E-01    0.405E-02
RMM:   6    -0.413169078644E+03   -0.20202E-03   -0.27282E-03  5792   0.502E-02    0.220E-02
RMM:   7    -0.413169088759E+03   -0.10115E-04   -0.33179E-04  5906   0.153E-02    0.156E-02
RMM:   8    -0.413169086060E+03    0.26991E-05   -0.47447E-05  4901   0.645E-03    0.891E-03
RMM:   9    -0.413169081513E+03    0.45469E-05   -0.98899E-06  3443   0.345E-03    0.589E-03
RMM:  10    -0.413169078980E+03    0.25328E-05   -0.20084E-06  2552   0.206E-03    0.351E-03
RMM:  11    -0.413169075952E+03    0.30279E-05   -0.17897E-06  2557   0.199E-03    0.162E-03
RMM:  12    -0.413169073390E+03    0.25625E-05   -0.89213E-07  2476   0.151E-03    0.528E-04
RMM:  13    -0.413169072884E+03    0.50632E-06   -0.32870E-07  2088   0.971E-04
   17 T=    62. E= -.41286657E+03 F= -.41316907E+03 E0= -.41314691E+03  EK= 0.30251E+00 SP= 0.00E+00 SK= 0.00E+00
       N       E                     dE             d eps       ncg     rms          rms(c)
RMM:   1    -0.413160989672E+03    0.80837E-02   -0.11099E+01  4301   0.771E-01    0.890E-01
RMM:   2    -0.413171505499E+03   -0.10516E-01   -0.13715E-01  4281   0.102E-01    0.645E-01
RMM:   3    -0.413170067348E+03    0.14382E-02   -0.70215E-03  4915   0.411E-02    0.166E-01
RMM:   4    -0.413205986492E+03   -0.35919E-01   -0.37340E-02  5140   0.160E-01    0.788E-01
RMM:   5    -0.413169382731E+03    0.36604E-01   -0.17944E-02  4796   0.132E-01    0.409E-02
RMM:   6    -0.413169592274E+03   -0.20954E-03   -0.28537E-03  5787   0.514E-02    0.214E-02
RMM:   7    -0.413169606991E+03   -0.14717E-04   -0.34207E-04  5900   0.156E-02    0.154E-02
RMM:   8    -0.413169607583E+03   -0.59221E-06   -0.49354E-05  4930   0.656E-03    0.888E-03
RMM:   9    -0.413169605975E+03    0.16075E-05   -0.10297E-05  3481   0.352E-03    0.582E-03
RMM:  10    -0.413169606445E+03   -0.46936E-06   -0.21583E-06  2557   0.211E-03
   18 T=    62. E= -.41286649E+03 F= -.41316961E+03 E0= -.41314749E+03  EK= 0.30312E+00 SP= 0.00E+00 SK= 0.00E+00
       N       E                     dE             d eps       ncg     rms          rms(c)
RMM:   1    -0.413162390446E+03    0.72155E-02   -0.11147E+01  4302   0.764E-01    0.914E-01
RMM:   2    -0.413171925657E+03   -0.95352E-02   -0.13540E-01  4314   0.985E-02    0.640E-01
RMM:   3    -0.413174635501E+03   -0.27098E-02   -0.10252E-02  5120   0.686E-02    0.305E-01
RMM:   4    -0.413200385561E+03   -0.25750E-01   -0.41733E-02  5090   0.172E-01    0.716E-01
RMM:   5    -0.413170650501E+03    0.29735E-01   -0.12407E-02  4712   0.118E-01    0.508E-02
RMM:   6    -0.413170726939E+03   -0.76438E-04   -0.21194E-03  5588   0.451E-02    0.200E-02
RMM:   7    -0.413170740715E+03   -0.13776E-04   -0.28299E-04  5992   0.146E-02    0.137E-02
RMM:   8    -0.413170737621E+03    0.30940E-05   -0.43307E-05  5061   0.652E-03    0.700E-03
RMM:   9    -0.413170730308E+03    0.73135E-05   -0.78036E-06  3054   0.333E-03    0.309E-03
RMM:  10    -0.413170727691E+03    0.26164E-05   -0.18177E-06  2545   0.194E-03    0.189E-03
RMM:  11    -0.413170723652E+03    0.40395E-05   -0.10564E-06  2521   0.155E-03    0.112E-03
RMM:  12    -0.413170720868E+03    0.27841E-05   -0.51109E-07  2195   0.114E-03    0.507E-04
RMM:  13    -0.413170718519E+03    0.23487E-05   -0.30015E-07  1844   0.892E-04    0.229E-04
RMM:  14    -0.413170716741E+03    0.17786E-05   -0.18814E-07  1459   0.743E-04    0.144E-04
RMM:  15    -0.413170713420E+03    0.33202E-05   -0.22438E-07  1658   0.766E-04    0.148E-04
RMM:  16    -0.413170711803E+03    0.16169E-05   -0.11763E-07  1242   0.630E-04    0.116E-04
RMM:  17    -0.413170709664E+03    0.21398E-05   -0.99778E-08  1215   0.613E-04    0.483E-05
RMM:  18    -0.413170708303E+03    0.13611E-05   -0.61432E-08   995   0.559E-04    0.345E-05
RMM:  19    -0.413170707605E+03    0.69731E-06   -0.34138E-08   825   0.528E-04
   19 T=    62. E= -.41286671E+03 F= -.41317071E+03 E0= -.41314863E+03  EK= 0.30400E+00 SP= 0.00E+00 SK= 0.00E+00
       N       E                     dE             d eps       ncg     rms          rms(c)
RMM:   1    -0.413162697640E+03    0.80107E-02   -0.11089E+01  4299   0.771E-01    0.904E-01
RMM:   2    -0.413172497663E+03   -0.98000E-02   -0.13467E-01  4271   0.100E-01    0.634E-01
RMM:   3    -0.413171790073E+03    0.70759E-03   -0.72703E-03  4964   0.423E-02    0.180E-01
RMM:   4    -0.413211224733E+03   -0.39435E-01   -0.41583E-02  5144   0.169E-01    0.825E-01
RMM:   5    -0.413171019128E+03    0.40206E-01   -0.19687E-02  4795   0.138E-01    0.443E-02
RMM:   6    -0.413171233070E+03   -0.21394E-03   -0.30838E-03  5780   0.538E-02    0.231E-02
RMM:   7    -0.413171242843E+03   -0.97731E-05   -0.37863E-04  5889   0.164E-02    0.165E-02
RMM:   8    -0.413171238597E+03    0.42460E-05   -0.53670E-05  5046   0.688E-03    0.927E-03
RMM:   9    -0.413171232119E+03    0.64780E-05   -0.10991E-05  3543   0.360E-03    0.591E-03
RMM:  10    -0.413171227898E+03    0.42213E-05   -0.21813E-06  2554   0.213E-03    0.348E-03
RMM:  11    -0.413171223719E+03    0.41789E-05   -0.15512E-06  2532   0.190E-03    0.163E-03
RMM:  12    -0.413171220208E+03    0.35109E-05   -0.85767E-07  2468   0.150E-03    0.476E-04
RMM:  13    -0.413171219409E+03    0.79911E-06   -0.34211E-07  2125   0.100E-03
   20 T=    62. E= -.41286651E+03 F= -.41317122E+03 E0= -.41314919E+03  EK= 0.30471E+00 SP= 0.00E+00 SK= 0.00E+00
       N       E                     dE             d eps       ncg     rms          rms(c)
RMM:   1    -0.413163403792E+03    0.78164E-02   -0.11130E+01  4302   0.777E-01    0.890E-01
RMM:   2    -0.413174013900E+03   -0.10610E-01   -0.13818E-01  4279   0.101E-01    0.645E-01
RMM:   3    -0.413172672798E+03    0.13411E-02   -0.70855E-03  4937   0.412E-02    0.168E-01
RMM:   4    -0.413209173737E+03   -0.36501E-01   -0.38075E-02  5140   0.162E-01    0.794E-01
RMM:   5    -0.413171970511E+03    0.37203E-01   -0.18331E-02  4796   0.133E-01    0.412E-02
RMM:   6    -0.413172181927E+03   -0.21142E-03   -0.29102E-03  5796   0.520E-02    0.217E-02
RMM:   7    -0.413172195574E+03   -0.13647E-04   -0.34393E-04  5908   0.157E-02    0.155E-02
RMM:   8    -0.413172194761E+03    0.81235E-06   -0.51890E-05  4975   0.675E-03    0.915E-03
RMM:   9    -0.413172191274E+03    0.34878E-05   -0.10892E-05  3539   0.364E-03    0.596E-03
RMM:  10    -0.413172190379E+03    0.89508E-06   -0.22306E-06  2570   0.215E-03
   21 T=    62. E= -.41286658E+03 F= -.41317219E+03 E0= -.41315020E+03  EK= 0.30561E+00 SP= 0.00E+00 SK= 0.00E+00
       N       E                     dE             d eps       ncg     rms          rms(c)
RMM:   1    -0.413164707790E+03    0.74835E-02   -0.11200E+01  4300   0.776E-01    0.911E-01
RMM:   2    -0.413174790489E+03   -0.10083E-01   -0.13696E-01  4317   0.987E-02    0.645E-01
RMM:   3    -0.413177191017E+03   -0.24005E-02   -0.10206E-02  5113   0.683E-02    0.303E-01
RMM:   4    -0.413204763657E+03   -0.27573E-01   -0.43732E-02  5094   0.176E-01    0.735E-01
RMM:   5    -0.413173259867E+03    0.31504E-01   -0.13261E-02  4708   0.122E-01    0.509E-02
RMM:   6    -0.413173343704E+03   -0.83837E-04   -0.22741E-03  5613   0.465E-02    0.198E-02
RMM:   7    -0.413173357055E+03   -0.13351E-04   -0.29779E-04  5993   0.148E-02    0.139E-02
RMM:   8    -0.413173353852E+03    0.32026E-05   -0.44922E-05  5075   0.665E-03    0.709E-03
RMM:   9    -0.413173346528E+03    0.73237E-05   -0.82890E-06  3127   0.339E-03    0.312E-03
RMM:  10    -0.413173343877E+03    0.26510E-05   -0.18904E-06  2549   0.196E-03    0.194E-03
RMM:  11    -0.413173339878E+03    0.39995E-05   -0.10363E-06  2515   0.155E-03    0.111E-03
RMM:  12    -0.413173336984E+03    0.28938E-05   -0.51207E-07  2198   0.114E-03    0.475E-04
RMM:  13    -0.413173334680E+03    0.23041E-05   -0.28466E-07  1807   0.881E-04    0.216E-04
RMM:  14    -0.413173332464E+03    0.22157E-05   -0.19538E-07  1488   0.757E-04    0.126E-04
RMM:  15    -0.413173329314E+03    0.31504E-05   -0.19313E-07  1576   0.743E-04    0.133E-04
RMM:  16    -0.413173327884E+03    0.14302E-05   -0.10377E-07  1204   0.623E-04    0.104E-04
RMM:  17    -0.413173325737E+03    0.21469E-05   -0.88676E-08  1195   0.612E-04    0.440E-05
RMM:  18    -0.413173324200E+03    0.15370E-05   -0.59370E-08  1021   0.566E-04    0.386E-05
RMM:  19    -0.413173323668E+03    0.53207E-06   -0.29728E-08   819   0.529E-04
   22 T=    62. E= -.41286676E+03 F= -.41317332E+03 E0= -.41315138E+03  EK= 0.30656E+00 SP= 0.00E+00 SK= 0.00E+00
       N       E                     dE             d eps       ncg     rms          rms(c)
RMM:   1    -0.413165770030E+03    0.75542E-02   -0.11181E+01  4297   0.791E-01    0.914E-01
RMM:   2    -0.413175224568E+03   -0.94545E-02   -0.13565E-01  4278   0.106E-01    0.637E-01
RMM:   3    -0.413174454536E+03    0.77003E-03   -0.74491E-03  4907   0.439E-02    0.176E-01
RMM:   4    -0.413211233120E+03   -0.36779E-01   -0.38245E-02  5150   0.162E-01    0.797E-01
RMM:   5    -0.413173786558E+03    0.37447E-01   -0.18343E-02  4792   0.134E-01    0.431E-02
RMM:   6    -0.413173992588E+03   -0.20603E-03   -0.30310E-03  5798   0.522E-02    0.238E-02
RMM:   7    -0.413173999545E+03   -0.69570E-05   -0.35193E-04  5849   0.161E-02    0.165E-02
RMM:   8    -0.413173993616E+03    0.59295E-05   -0.54040E-05  5019   0.696E-03    0.965E-03
RMM:   9    -0.413173985123E+03    0.84928E-05   -0.11295E-05  3628   0.373E-03    0.630E-03
RMM:  10    -0.413173979423E+03    0.57000E-05   -0.21879E-06  2570   0.217E-03    0.378E-03
RMM:  11    -0.413173972910E+03    0.65126E-05   -0.18605E-06  2559   0.209E-03    0.174E-03
RMM:  12    -0.413173967842E+03    0.50681E-05   -0.89839E-07  2474   0.159E-03    0.558E-04
RMM:  13    -0.413173966918E+03    0.92392E-06   -0.34728E-07  2161   0.103E-03
   23 T=    63. E= -.41286653E+03 F= -.41317397E+03 E0= -.41315207E+03  EK= 0.30744E+00 SP= 0.00E+00 SK= 0.00E+00
       N       E                     dE             d eps       ncg     rms          rms(c)
RMM:   1    -0.413167173138E+03    0.67947E-02   -0.11179E+01  4296   0.793E-01    0.893E-01
RMM:   2    -0.413177423014E+03   -0.10250E-01   -0.13887E-01  4279   0.103E-01    0.645E-01
RMM:   3    -0.413175832596E+03    0.15904E-02   -0.70284E-03  4828   0.419E-02    0.164E-01
RMM:   4    -0.413206477690E+03   -0.30645E-01   -0.31468E-02  5152   0.147E-01    0.728E-01
RMM:   5    -0.413175356853E+03    0.31121E-01   -0.15379E-02  4803   0.121E-01    0.381E-02
RMM:   6    -0.413175528014E+03   -0.17116E-03   -0.24997E-03  5814   0.471E-02    0.213E-02
RMM:   7    -0.413175537333E+03   -0.93197E-05   -0.27130E-04  5842   0.144E-02    0.140E-02
RMM:   8    -0.413175535963E+03    0.13704E-05   -0.48182E-05  4924   0.652E-03    0.905E-03
RMM:   9    -0.413175530474E+03    0.54890E-05   -0.10858E-05  3699   0.372E-03    0.600E-03
RMM:  10    -0.413175528289E+03    0.21850E-05   -0.19318E-06  2548   0.213E-03    0.369E-03
RMM:  11    -0.413175525400E+03    0.28886E-05   -0.20609E-06  2585   0.215E-03    0.175E-03
RMM:  12    -0.413175522897E+03    0.25030E-05   -0.87017E-07  2474   0.156E-03    0.587E-04
RMM:  13    -0.413175522425E+03    0.47253E-06   -0.31641E-07  2102   0.977E-04
   24 T=    63. E= -.41286681E+03 F= -.41317552E+03 E0= -.41315368E+03  EK= 0.30871E+00 SP= 0.00E+00 SK= 0.00E+00
       N       E                     dE             d eps       ncg     rms          rms(c)
RMM:   1    -0.413167900046E+03    0.76229E-02   -0.11275E+01  4299   0.796E-01    0.909E-01
RMM:   2    -0.413178411393E+03   -0.10511E-01   -0.13864E-01  4279   0.107E-01    0.650E-01
RMM:   3    -0.413176909081E+03    0.15023E-02   -0.72083E-03  4809   0.434E-02    0.166E-01
RMM:   4    -0.413207772720E+03   -0.30864E-01   -0.31538E-02  5147   0.148E-01    0.731E-01
RMM:   5    -0.413176404010E+03    0.31369E-01   -0.15476E-02  4803   0.122E-01    0.386E-02
RMM:   6    -0.413176576831E+03   -0.17282E-03   -0.25228E-03  5821   0.474E-02    0.219E-02
RMM:   7    -0.413176584431E+03   -0.75993E-05   -0.27482E-04  5848   0.145E-02    0.143E-02
RMM:   8    -0.413176581766E+03    0.26647E-05   -0.49077E-05  4942   0.663E-03    0.920E-03
RMM:   9    -0.413176575150E+03    0.66155E-05   -0.11215E-05  3750   0.378E-03    0.609E-03
RMM:  10    -0.413176571826E+03    0.33247E-05   -0.19390E-06  2549   0.215E-03    0.375E-03
RMM:  11    -0.413176567468E+03    0.43581E-05   -0.20476E-06  2578   0.216E-03    0.176E-03
RMM:  12    -0.413176563934E+03    0.35332E-05   -0.85216E-07  2476   0.157E-03    0.571E-04
RMM:  13    -0.413176563273E+03    0.66164E-06   -0.31813E-07  2111   0.983E-04
   25 T=    63. E= -.41286666E+03 F= -.41317656E+03 E0= -.41315477E+03  EK= 0.30990E+00 SP= 0.00E+00 SK= 0.00E+00
       N       E                     dE             d eps       ncg     rms          rms(c)
RMM:   1    -0.413169768173E+03    0.67958E-02   -0.11302E+01  4299   0.811E-01    0.924E-01
RMM:   2    -0.413178929082E+03   -0.91609E-02   -0.13772E-01  4276   0.109E-01    0.642E-01
RMM:   3    -0.413178005275E+03    0.92381E-03   -0.74624E-03  4791   0.432E-02    0.169E-01
RMM:   4    -0.413206468635E+03   -0.28463E-01   -0.28937E-02  5152   0.142E-01    0.702E-01
RMM:   5    -0.413177624206E+03    0.28844E-01   -0.14361E-02  4804   0.117E-01    0.386E-02
RMM:   6    -0.413177772535E+03   -0.14833E-03   -0.23032E-03  5816   0.455E-02    0.223E-02
RMM:   7    -0.413177774931E+03   -0.23958E-05   -0.24645E-04  5797   0.139E-02    0.135E-02
RMM:   8    -0.413177769131E+03    0.57996E-05   -0.46455E-05  4927   0.647E-03    0.907E-03
RMM:   9    -0.413177760203E+03    0.89283E-05   -0.11103E-05  3797   0.376E-03    0.613E-03
RMM:  10    -0.413177754224E+03    0.59787E-05   -0.17901E-06  2542   0.213E-03    0.383E-03
RMM:  11    -0.413177745750E+03    0.84741E-05   -0.20029E-06  2572   0.217E-03    0.178E-03
RMM:  12    -0.413177738636E+03    0.71138E-05   -0.84249E-07  2474   0.158E-03    0.577E-04
RMM:  13    -0.413177737484E+03    0.11526E-05   -0.30963E-07  2113   0.979E-04    0.427E-04
RMM:  14    -0.413177736054E+03    0.14295E-05   -0.14208E-07  1481   0.726E-04    0.259E-04
RMM:  15    -0.413177730589E+03    0.54655E-05   -0.17969E-07  1908   0.796E-04    0.354E-04
RMM:  16    -0.413177729981E+03    0.60816E-06   -0.54311E-08   955   0.570E-04
   26 T=    63. E= -.41286653E+03 F= -.41317773E+03 E0= -.41315598E+03  EK= 0.31120E+00 SP= 0.00E+00 SK= 0.00E+00
       N       E                     dE             d eps       ncg     rms          rms(c)
RMM:   1    -0.413170677965E+03    0.70526E-02   -0.11257E+01  4293   0.803E-01    0.899E-01
RMM:   2    -0.413181132115E+03   -0.10454E-01   -0.13916E-01  4282   0.104E-01    0.645E-01
RMM:   3    -0.413179948108E+03    0.11840E-02   -0.71500E-03  4812   0.429E-02    0.167E-01
RMM:   4    -0.413209876783E+03   -0.29929E-01   -0.30530E-02  5151   0.145E-01    0.720E-01
RMM:   5    -0.413179501015E+03    0.30376E-01   -0.15159E-02  4804   0.120E-01    0.382E-02
RMM:   6    -0.413179657530E+03   -0.15651E-03   -0.23962E-03  5820   0.466E-02    0.220E-02
RMM:   7    -0.413179663918E+03   -0.63882E-05   -0.27499E-04  5845   0.145E-02    0.145E-02
RMM:   8    -0.413179660433E+03    0.34851E-05   -0.47983E-05  4934   0.666E-03    0.887E-03
RMM:   9    -0.413179654028E+03    0.64049E-05   -0.10828E-05  3684   0.374E-03    0.588E-03
RMM:  10    -0.413179650639E+03    0.33892E-05   -0.18463E-06  2548   0.208E-03    0.364E-03
RMM:  11    -0.413179646361E+03    0.42774E-05   -0.18270E-06  2551   0.207E-03    0.167E-03
RMM:  12    -0.413179642851E+03    0.35107E-05   -0.81999E-07  2468   0.153E-03    0.562E-04
RMM:  13    -0.413179642255E+03    0.59546E-06   -0.30219E-07  2063   0.959E-04
   27 T=    64. E= -.41286691E+03 F= -.41317964E+03 E0= -.41315794E+03  EK= 0.31274E+00 SP= 0.00E+00 SK= 0.00E+00
       N       E                     dE             d eps       ncg     rms          rms(c)
RMM:   1    -0.413172012342E+03    0.76305E-02   -0.11379E+01  4294   0.829E-01    0.908E-01
RMM:   2    -0.413182357875E+03   -0.10346E-01   -0.14226E-01  4273   0.108E-01    0.656E-01
RMM:   3    -0.413180912910E+03    0.14450E-02   -0.72783E-03  4653   0.439E-02    0.158E-01
RMM:   4    -0.413200694957E+03   -0.19782E-01   -0.20124E-02  5153   0.119E-01    0.589E-01
RMM:   5    -0.413180585421E+03    0.20110E-01   -0.10003E-02  4809   0.974E-02    0.326E-02
RMM:   6    -0.413180680410E+03   -0.94989E-04   -0.15886E-03  5838   0.373E-02    0.192E-02
RMM:   7    -0.413180683410E+03   -0.30000E-05   -0.15847E-04  5597   0.115E-02    0.101E-02
RMM:   8    -0.413180677688E+03    0.57223E-05   -0.24086E-05  4275   0.484E-03    0.624E-03
RMM:   9    -0.413180675814E+03    0.18739E-05   -0.62633E-06  3083   0.289E-03    0.485E-03
RMM:  10    -0.413180673345E+03    0.24688E-05   -0.12078E-06  2536   0.179E-03    0.326E-03
RMM:  11    -0.413180668514E+03    0.48318E-05   -0.16486E-06  2542   0.200E-03    0.156E-03
RMM:  12    -0.413180665883E+03    0.26305E-05   -0.68006E-07  2425   0.139E-03    0.763E-04
RMM:  13    -0.413180665356E+03    0.52717E-06   -0.21550E-07  1892   0.850E-04
   28 T=    64. E= -.41286653E+03 F= -.41318067E+03 E0= -.41315902E+03  EK= 0.31413E+00 SP= 0.00E+00 SK= 0.00E+00
       N       E                     dE             d eps       ncg     rms          rms(c)
RMM:   1    -0.413182696150E+03   -0.20303E-02   -0.11520E+01  4295   0.871E-01    0.932E-01
RMM:   2    -0.413183960758E+03   -0.12646E-02   -0.14377E-01  4273   0.110E-01    0.649E-01
RMM:   3    -0.413182861219E+03    0.10995E-02   -0.76044E-03  4468   0.426E-02    0.165E-01
RMM:   4    -0.413191600928E+03   -0.87397E-02   -0.90838E-03  5173   0.801E-02    0.392E-01
RMM:   5    -0.413182874834E+03    0.87261E-02   -0.43644E-03  4833   0.641E-02    0.292E-02
RMM:   6    -0.413182900098E+03   -0.25264E-04   -0.73717E-04  5856   0.251E-02    0.191E-02
RMM:   7    -0.413182894853E+03    0.52446E-05   -0.12868E-04  5469   0.110E-02    0.114E-02
RMM:   8    -0.413182881995E+03    0.12859E-04   -0.17240E-05  4083   0.486E-03    0.482E-03
RMM:   9    -0.413182877209E+03    0.47859E-05   -0.33605E-06  2801   0.246E-03    0.374E-03
RMM:  10    -0.413182871653E+03    0.55552E-05   -0.83425E-07  2486   0.159E-03    0.226E-03
RMM:  11    -0.413182864138E+03    0.75155E-05   -0.67680E-07  2456   0.138E-03    0.103E-03
RMM:  12    -0.413182858206E+03    0.59317E-05   -0.37232E-07  2165   0.103E-03    0.393E-04
RMM:  13    -0.413182856142E+03    0.20641E-05   -0.15977E-07  1468   0.738E-04    0.207E-04
RMM:  14    -0.413182853320E+03    0.28220E-05   -0.99626E-08  1180   0.664E-04    0.122E-04
RMM:  15    -0.413182848029E+03    0.52910E-05   -0.11055E-07  1475   0.699E-04    0.145E-04
RMM:  16    -0.413182847349E+03    0.68051E-06   -0.43595E-08   905   0.568E-04
   29 T=    64. E= -.41286688E+03 F= -.41318285E+03 E0= -.41316125E+03  EK= 0.31597E+00 SP= 0.00E+00 SK= 0.00E+00
       N       E                     dE             d eps       ncg     rms          rms(c)
RMM:   1    -0.413175698346E+03    0.71497E-02   -0.11384E+01  4291   0.831E-01    0.909E-01
RMM:   2    -0.413186187008E+03   -0.10489E-01   -0.14190E-01  4274   0.110E-01    0.648E-01
RMM:   3    -0.413184721414E+03    0.14656E-02   -0.73213E-03  4443   0.460E-02    0.159E-01
RMM:   4    -0.413193230868E+03   -0.85095E-02   -0.89691E-03  5154   0.813E-02    0.389E-01
RMM:   5    -0.413184644904E+03    0.85860E-02   -0.43107E-03  4832   0.637E-02    0.278E-02
RMM:   6    -0.413184664744E+03   -0.19840E-04   -0.67668E-04  5831   0.246E-02    0.187E-02
RMM:   7    -0.413184661460E+03    0.32836E-05   -0.12155E-04  5444   0.108E-02    0.108E-02
RMM:   8    -0.413184651085E+03    0.10376E-04   -0.16447E-05  4058   0.478E-03    0.450E-03
RMM:   9    -0.413184648100E+03    0.29847E-05   -0.31871E-06  2776   0.240E-03    0.344E-03
RMM:  10    -0.413184644429E+03    0.36710E-05   -0.78313E-07  2481   0.152E-03    0.211E-03
RMM:  11    -0.413184639574E+03    0.48544E-05   -0.62181E-07  2433   0.130E-03    0.975E-04
RMM:  12    -0.413184635808E+03    0.37659E-05   -0.34827E-07  2097   0.980E-04    0.380E-04
RMM:  13    -0.413184634281E+03    0.15278E-05   -0.14802E-07  1353   0.713E-04    0.191E-04
RMM:  14    -0.413184632174E+03    0.21068E-05   -0.98912E-08  1135   0.659E-04    0.102E-04
RMM:  15    -0.413184628896E+03    0.32781E-05   -0.93217E-08  1274   0.669E-04    0.111E-04
RMM:  16    -0.413184628140E+03    0.75614E-06   -0.44447E-08   908   0.584E-04
   30 T=    65. E= -.41286682E+03 F= -.41318463E+03 E0= -.41316308E+03  EK= 0.31781E+00 SP= 0.00E+00 SK= 0.00E+00
       N       E                     dE             d eps       ncg     rms          rms(c)
RMM:   1    -0.413184800339E+03   -0.17144E-03   -0.11590E+01  4293   0.910E-01    0.911E-01
RMM:   2    -0.413188652627E+03   -0.38523E-02   -0.14796E-01  4276   0.123E-01    0.662E-01
RMM:   3    -0.413186237856E+03    0.24148E-02   -0.73052E-03  4267   0.435E-02    0.154E-01
RMM:   4    -0.413187844866E+03   -0.16070E-02   -0.24726E-03  5092   0.414E-02    0.169E-01
RMM:   5    -0.413186253059E+03    0.15918E-02   -0.78483E-04  4796   0.281E-02    0.241E-02
RMM:   6    -0.413186248884E+03    0.41756E-05   -0.17617E-04  5625   0.136E-02    0.182E-02
RMM:   7    -0.413186241880E+03    0.70035E-05   -0.75651E-05  4906   0.844E-03    0.710E-03
RMM:   8    -0.413186238575E+03    0.33050E-05   -0.56193E-06  3078   0.322E-03    0.376E-03
RMM:   9    -0.413186237750E+03    0.82562E-06   -0.80857E-07  2473   0.161E-03
   31 T=    65. E= -.41286651E+03 F= -.41318624E+03 E0= -.41316474E+03  EK= 0.31973E+00 SP= 0.00E+00 SK= 0.00E+00
       N       E                     dE             d eps       ncg     rms          rms(c)
RMM:   1    -0.413183390407E+03    0.28482E-02   -0.11635E+01  4293   0.897E-01    0.937E-01
RMM:   2    -0.413190389106E+03   -0.69987E-02   -0.14863E-01  4289   0.124E-01    0.657E-01
RMM:   3    -0.413188914333E+03    0.14748E-02   -0.77309E-03  4365   0.497E-02    0.166E-01
RMM:   4    -0.413192346626E+03   -0.34323E-02   -0.41231E-03  5139   0.576E-02    0.246E-01
RMM:   5    -0.413188981968E+03    0.33647E-02   -0.16549E-03  4813   0.409E-02    0.288E-02
RMM:   6    -0.413188964589E+03    0.17379E-04   -0.33179E-04  5668   0.187E-02    0.210E-02
RMM:   7    -0.413188949599E+03    0.14990E-04   -0.94294E-05  5129   0.952E-03    0.807E-03
RMM:   8    -0.413188941996E+03    0.76033E-05   -0.12484E-05  3917   0.425E-03    0.432E-03
RMM:   9    -0.413188939164E+03    0.28321E-05   -0.12440E-06  2531   0.184E-03    0.242E-03
RMM:  10    -0.413188931243E+03    0.79201E-05   -0.77343E-07  2449   0.139E-03    0.122E-03
RMM:  11    -0.413188924388E+03    0.68560E-05   -0.39905E-07  2168   0.103E-03    0.592E-04
RMM:  12    -0.413188919643E+03    0.47443E-05   -0.21120E-07  1554   0.803E-04    0.259E-04
RMM:  13    -0.413188915875E+03    0.37682E-05   -0.12896E-07  1165   0.691E-04    0.155E-04
RMM:  14    -0.413188910976E+03    0.48986E-05   -0.10612E-07  1214   0.673E-04    0.111E-04
RMM:  15    -0.413188904962E+03    0.60146E-05   -0.10859E-07  1379   0.677E-04    0.889E-05
RMM:  16    -0.413188903688E+03    0.12743E-05   -0.46549E-08   836   0.540E-04    0.647E-05
RMM:  17    -0.413188900517E+03    0.31704E-05   -0.51410E-08   919   0.561E-04    0.296E-05
RMM:  18    -0.413188899943E+03    0.57418E-06   -0.23443E-08   641   0.505E-04
   32 T=    66. E= -.41286685E+03 F= -.41318890E+03 E0= -.41316745E+03  EK= 0.32205E+00 SP= 0.00E+00 SK= 0.00E+00
       N       E                     dE             d eps       ncg     rms          rms(c)
RMM:   1    -0.413185843168E+03    0.30573E-02   -0.11610E+01  4287   0.918E-01    0.923E-01
RMM:   2    -0.413192637304E+03   -0.67941E-02   -0.15088E-01  4283   0.132E-01    0.654E-01
RMM:   3    -0.413190857548E+03    0.17798E-02   -0.73308E-03  4379   0.422E-02    0.169E-01
RMM:   4    -0.413194582596E+03   -0.37250E-02   -0.44673E-03  5131   0.582E-02    0.259E-01
RMM:   5    -0.413190847004E+03    0.37356E-02   -0.18458E-03  4804   0.427E-02    0.275E-02
RMM:   6    -0.413190834654E+03    0.12350E-04   -0.35139E-04  5717   0.189E-02    0.200E-02
RMM:   7    -0.413190822882E+03    0.11772E-04   -0.99419E-05  5172   0.970E-03    0.845E-03
RMM:   8    -0.413190815578E+03    0.73043E-05   -0.11147E-05  3711   0.409E-03    0.420E-03
RMM:   9    -0.413190813074E+03    0.25037E-05   -0.13371E-06  2545   0.190E-03    0.257E-03
RMM:  10    -0.413190807073E+03    0.60013E-05   -0.70777E-07  2450   0.136E-03    0.131E-03
RMM:  11    -0.413190801459E+03    0.56140E-05   -0.41339E-07  2199   0.104E-03    0.589E-04
RMM:  12    -0.413190797142E+03    0.43172E-05   -0.22247E-07  1694   0.823E-04    0.246E-04
RMM:  13    -0.413190794596E+03    0.25452E-05   -0.11819E-07  1160   0.679E-04    0.141E-04
RMM:  14    -0.413190791613E+03    0.29835E-05   -0.83206E-08  1098   0.646E-04    0.101E-04
RMM:  15    -0.413190786864E+03    0.47487E-05   -0.91894E-08  1356   0.664E-04    0.669E-05
RMM:  16    -0.413190785586E+03    0.12783E-05   -0.44182E-08   933   0.562E-04    0.593E-05
RMM:  17    -0.413190783047E+03    0.25394E-05   -0.40586E-08   967   0.564E-04    0.270E-05
RMM:  18    -0.413190782114E+03    0.93258E-06   -0.24094E-08   768   0.524E-04
   33 T=    66. E= -.41286659E+03 F= -.41319078E+03 E0= -.41316938E+03  EK= 0.32419E+00 SP= 0.00E+00 SK= 0.00E+00
       N       E                     dE             d eps       ncg     rms          rms(c)
RMM:   1    -0.413186231241E+03    0.45518E-02   -0.11705E+01  4294   0.933E-01    0.915E-01
RMM:   2    -0.413195330435E+03   -0.90992E-02   -0.15352E-01  4277   0.132E-01    0.667E-01
RMM:   3    -0.413193427317E+03    0.19031E-02   -0.73677E-03  4429   0.489E-02    0.163E-01
RMM:   4    -0.413200418980E+03   -0.69917E-02   -0.75307E-03  5152   0.760E-02    0.353E-01
RMM:   5    -0.413193421851E+03    0.69971E-02   -0.34157E-03  4807   0.579E-02    0.285E-02
RMM:   6    -0.413193410439E+03    0.11412E-04   -0.58279E-04  5779   0.240E-02    0.197E-02
RMM:   7    -0.413193409531E+03    0.90777E-06   -0.11929E-04  5358   0.106E-02    0.985E-03
RMM:   8    -0.413193402397E+03    0.71341E-05   -0.16907E-05  4136   0.478E-03    0.452E-03
RMM:   9    -0.413193400947E+03    0.14501E-05   -0.25542E-06  2716   0.228E-03    0.299E-03
RMM:  10    -0.413193398240E+03    0.27071E-05   -0.71928E-07  2454   0.144E-03    0.175E-03
RMM:  11    -0.413193394589E+03    0.36511E-05   -0.59000E-07  2396   0.121E-03    0.790E-04
RMM:  12    -0.413193391872E+03    0.27170E-05   -0.31268E-07  1851   0.900E-04    0.324E-04
RMM:  13    -0.413193390507E+03    0.13644E-05   -0.14692E-07  1261   0.704E-04    0.171E-04
RMM:  14    -0.413193388997E+03    0.15098E-05   -0.98253E-08  1066   0.655E-04    0.978E-05
RMM:  15    -0.413193386344E+03    0.26530E-05   -0.96540E-08  1186   0.665E-04    0.900E-05
RMM:  16    -0.413193385663E+03    0.68114E-06   -0.48899E-08   929   0.594E-04
   34 T=    67. E= -.41286674E+03 F= -.41319339E+03 E0= -.41317203E+03  EK= 0.32665E+00 SP= 0.00E+00 SK= 0.00E+00
       N       E                     dE             d eps       ncg     rms          rms(c)
RMM:   1    -0.413187756221E+03    0.56301E-02   -0.11800E+01  4301   0.919E-01    0.941E-01
RMM:   2    -0.413197946460E+03   -0.10190E-01   -0.15218E-01  4264   0.133E-01    0.667E-01
RMM:   3    -0.413196279586E+03    0.16669E-02   -0.76222E-03  4394   0.465E-02    0.167E-01
RMM:   4    -0.413199878621E+03   -0.35990E-02   -0.44179E-03  5161   0.563E-02    0.257E-01
RMM:   5    -0.413196215106E+03    0.36635E-02   -0.18471E-03  4815   0.426E-02    0.284E-02
RMM:   6    -0.413196201868E+03    0.13238E-04   -0.35082E-04  5714   0.188E-02    0.208E-02
RMM:   7    -0.413196189743E+03    0.12124E-04   -0.10261E-04  5160   0.973E-03    0.826E-03
RMM:   8    -0.413196182727E+03    0.70162E-05   -0.10996E-05  3648   0.399E-03    0.417E-03
RMM:   9    -0.413196180116E+03    0.26116E-05   -0.13168E-06  2542   0.188E-03    0.251E-03
RMM:  10    -0.413196173439E+03    0.66763E-05   -0.73353E-07  2453   0.137E-03    0.125E-03
RMM:  11    -0.413196167606E+03    0.58337E-05   -0.40038E-07  2178   0.102E-03    0.582E-04
RMM:  12    -0.413196162917E+03    0.46887E-05   -0.21599E-07  1616   0.812E-04    0.228E-04
RMM:  13    -0.413196160122E+03    0.27946E-05   -0.12255E-07  1192   0.687E-04    0.140E-04
RMM:  14    -0.413196156354E+03    0.37681E-05   -0.91826E-08  1165   0.655E-04    0.104E-04
RMM:  15    -0.413196150717E+03    0.56373E-05   -0.96009E-08  1386   0.671E-04    0.757E-05
RMM:  16    -0.413196149349E+03    0.13678E-05   -0.45087E-08   940   0.560E-04    0.593E-05
RMM:  17    -0.413196146299E+03    0.30496E-05   -0.44130E-08  1018   0.571E-04    0.260E-05
RMM:  18    -0.413196145629E+03    0.67053E-06   -0.23146E-08   773   0.518E-04
   35 T=    67. E= -.41286696E+03 F= -.41319615E+03 E0= -.41317484E+03  EK= 0.32919E+00 SP= 0.00E+00 SK= 0.00E+00
       N       E                     dE             d eps       ncg     rms          rms(c)
RMM:   1    -0.413197790461E+03   -0.16442E-02   -0.11886E+01  4298   0.990E-01    0.940E-01
RMM:   2    -0.413199835788E+03   -0.20453E-02   -0.15586E-01  4259   0.126E-01    0.661E-01
RMM:   3    -0.413198501346E+03    0.13344E-02   -0.78312E-03  4777   0.470E-02    0.186E-01
RMM:   4    -0.413227595084E+03   -0.29094E-01   -0.29395E-02  5162   0.144E-01    0.711E-01
RMM:   5    -0.413198209300E+03    0.29386E-01   -0.14811E-02  4800   0.119E-01    0.409E-02
RMM:   6    -0.413198247118E+03   -0.37818E-04   -0.23855E-03  5851   0.458E-02    0.237E-02
RMM:   7    -0.413198255771E+03   -0.86527E-05   -0.27046E-04  5773   0.146E-02    0.143E-02
RMM:   8    -0.413198246171E+03    0.95996E-05   -0.47628E-05  4953   0.687E-03    0.888E-03
RMM:   9    -0.413198241073E+03    0.50980E-05   -0.14574E-05  4152   0.431E-03    0.586E-03
RMM:  10    -0.413198233896E+03    0.71773E-05   -0.21565E-06  2582   0.233E-03    0.342E-03
RMM:  11    -0.413198228058E+03    0.58380E-05   -0.13252E-06  2504   0.183E-03    0.193E-03
RMM:  12    -0.413198218114E+03    0.99438E-05   -0.10543E-06  2480   0.175E-03    0.752E-04
RMM:  13    -0.413198214837E+03    0.32764E-05   -0.37931E-07  2249   0.112E-03    0.518E-04
RMM:  14    -0.413198214156E+03    0.68148E-06   -0.16091E-07  1589   0.757E-04
   36 T=    67. E= -.41286671E+03 F= -.41319821E+03 E0= -.41317695E+03  EK= 0.33150E+00 SP= 0.00E+00 SK= 0.00E+00
       N       E                     dE             d eps       ncg     rms          rms(c)
RMM:   1    -0.413196388811E+03    0.18260E-02   -0.11909E+01  4305   0.100E+00    0.923E-01
RMM:   2    -0.413203527196E+03   -0.71384E-02   -0.15948E-01  4260   0.135E-01    0.672E-01
RMM:   3    -0.413201518252E+03    0.20089E-02   -0.75656E-03  4694   0.514E-02    0.180E-01
RMM:   4    -0.413227327514E+03   -0.25809E-01   -0.26093E-02  5157   0.136E-01    0.672E-01
RMM:   5    -0.413201213076E+03    0.26114E-01   -0.13188E-02  4800   0.112E-01    0.387E-02
RMM:   6    -0.413201238199E+03   -0.25123E-04   -0.20943E-03  5854   0.431E-02    0.227E-02
RMM:   7    -0.413201249246E+03   -0.11047E-04   -0.25753E-04  5792   0.141E-02    0.143E-02
RMM:   8    -0.413201240393E+03    0.88534E-05   -0.46961E-05  4973   0.691E-03    0.821E-03
RMM:   9    -0.413201236846E+03    0.35466E-05   -0.11407E-05  3840   0.398E-03    0.486E-03
RMM:  10    -0.413201232354E+03    0.44921E-05   -0.19714E-06  2570   0.212E-03    0.297E-03
RMM:  11    -0.413201227837E+03    0.45174E-05   -0.11840E-06  2498   0.172E-03    0.152E-03
RMM:  12    -0.413201221862E+03    0.59745E-05   -0.82714E-07  2440   0.149E-03    0.578E-04
RMM:  13    -0.413201220012E+03    0.18496E-05   -0.31419E-07  2074   0.986E-04    0.400E-04
RMM:  14    -0.413201219186E+03    0.82687E-06   -0.14831E-07  1413   0.721E-04
   37 T=    68. E= -.41286700E+03 F= -.41320122E+03 E0= -.41318000E+03  EK= 0.33422E+00 SP= 0.00E+00 SK= 0.00E+00
       N       E                     dE             d eps       ncg     rms          rms(c)
RMM:   1    -0.413195999478E+03    0.52205E-02   -0.12015E+01  4307   0.101E+00    0.945E-01
RMM:   2    -0.413206158430E+03   -0.10159E-01   -0.15808E-01  4260   0.128E-01    0.676E-01
RMM:   3    -0.413204034224E+03    0.21242E-02   -0.79630E-03  4736   0.513E-02    0.184E-01
RMM:   4    -0.413234331908E+03   -0.30298E-01   -0.30600E-02  5153   0.147E-01    0.726E-01
RMM:   5    -0.413203676964E+03    0.30655E-01   -0.15550E-02  4809   0.121E-01    0.410E-02
RMM:   6    -0.413203716311E+03   -0.39347E-04   -0.23800E-03  5839   0.463E-02    0.238E-02
RMM:   7    -0.413203727543E+03   -0.11232E-04   -0.29122E-04  5822   0.151E-02    0.151E-02
RMM:   8    -0.413203717542E+03    0.10002E-04   -0.51039E-05  5017   0.718E-03    0.873E-03
RMM:   9    -0.413203712832E+03    0.47095E-05   -0.13194E-05  4008   0.418E-03    0.523E-03
RMM:  10    -0.413203706987E+03    0.58447E-05   -0.21552E-06  2585   0.220E-03    0.315E-03
RMM:  11    -0.413203701565E+03    0.54220E-05   -0.12248E-06  2498   0.176E-03    0.167E-03
RMM:  12    -0.413203693728E+03    0.78380E-05   -0.87275E-07  2458   0.157E-03    0.624E-04
RMM:  13    -0.413203691187E+03    0.25409E-05   -0.33731E-07  2166   0.104E-03    0.444E-04
RMM:  14    -0.413203690315E+03    0.87210E-06   -0.15472E-07  1497   0.737E-04
   38 T=    69. E= -.41286697E+03 F= -.41320369E+03 E0= -.41318251E+03  EK= 0.33672E+00 SP= 0.00E+00 SK= 0.00E+00
       N       E                     dE             d eps       ncg     rms          rms(c)
RMM:   1    -0.413204789555E+03   -0.10984E-02   -0.12116E+01  4304   0.108E+00    0.957E-01
RMM:   2    -0.413207912733E+03   -0.31232E-02   -0.16188E-01  4268   0.126E-01    0.670E-01
RMM:   3    -0.413206882299E+03    0.10304E-02   -0.85187E-03  4994   0.541E-02    0.219E-01
RMM:   4    -0.413257139682E+03   -0.50257E-01   -0.53946E-02  5137   0.193E-01    0.930E-01
RMM:   5    -0.413205843035E+03    0.51297E-01   -0.25468E-02  4789   0.157E-01    0.518E-02
RMM:   6    -0.413205975585E+03   -0.13255E-03   -0.40234E-03  5832   0.598E-02    0.273E-02
RMM:   7    -0.413205992322E+03   -0.16737E-04   -0.42521E-04  5804   0.177E-02    0.166E-02
RMM:   8    -0.413205986351E+03    0.59711E-05   -0.61362E-05  5016   0.716E-03    0.992E-03
RMM:   9    -0.413205976970E+03    0.93804E-05   -0.21710E-05  4476   0.483E-03    0.652E-03
RMM:  10    -0.413205970191E+03    0.67798E-05   -0.47125E-06  2870   0.295E-03    0.355E-03
RMM:  11    -0.413205963505E+03    0.66855E-05   -0.18180E-06  2535   0.213E-03    0.210E-03
RMM:  12    -0.413205953024E+03    0.10481E-04   -0.10138E-06  2479   0.177E-03    0.629E-04
RMM:  13    -0.413205949009E+03    0.40151E-05   -0.42241E-07  2312   0.117E-03    0.470E-04
RMM:  14    -0.413205946969E+03    0.20405E-05   -0.18702E-07  1818   0.815E-04    0.306E-04
RMM:  15    -0.413205940447E+03    0.65214E-05   -0.12616E-07  1552   0.734E-04    0.208E-04
RMM:  16    -0.413205938842E+03    0.16051E-05   -0.58517E-08  1019   0.599E-04    0.111E-04
RMM:  17    -0.413205935355E+03    0.34869E-05   -0.52091E-08  1076   0.608E-04    0.791E-05
RMM:  18    -0.413205931106E+03    0.42492E-05   -0.54338E-08  1255   0.629E-04    0.524E-05
RMM:  19    -0.413205929851E+03    0.12553E-05   -0.25514E-08   898   0.553E-04    0.386E-05
RMM:  20    -0.413205929351E+03    0.49923E-06   -0.16250E-08   799   0.531E-04
   39 T=    69. E= -.41286677E+03 F= -.41320593E+03 E0= -.41318479E+03  EK= 0.33916E+00 SP= 0.00E+00 SK= 0.00E+00
       N       E                     dE             d eps       ncg     rms          rms(c)
RMM:   1    -0.413203189340E+03    0.27405E-02   -0.12082E+01  4310   0.110E+00    0.934E-01
RMM:   2    -0.413211504749E+03   -0.83154E-02   -0.16289E-01  4266   0.131E-01    0.676E-01
RMM:   3    -0.413210317571E+03    0.11872E-02   -0.85108E-03  5016   0.569E-02    0.232E-01
RMM:   4    -0.413263890958E+03   -0.53573E-01   -0.59643E-02  5134   0.203E-01    0.961E-01
RMM:   5    -0.413208849611E+03    0.55041E-01   -0.26964E-02  4778   0.162E-01    0.537E-02
RMM:   6    -0.413209001206E+03   -0.15159E-03   -0.42943E-03  5810   0.616E-02    0.272E-02
RMM:   7    -0.413209021615E+03   -0.20409E-04   -0.47538E-04  5903   0.186E-02    0.181E-02
RMM:   8    -0.413209022008E+03   -0.39324E-06   -0.87467E-05  5240   0.862E-03    0.122E-02
RMM:   9    -0.413209011460E+03    0.10548E-04   -0.21286E-05  4461   0.513E-03    0.607E-03
RMM:  10    -0.413209006835E+03    0.46243E-05   -0.44518E-06  2749   0.282E-03    0.343E-03
RMM:  11    -0.413209003123E+03    0.37128E-05   -0.16038E-06  2503   0.204E-03    0.196E-03
RMM:  12    -0.413208997696E+03    0.54269E-05   -0.93651E-07  2474   0.166E-03    0.652E-04
RMM:  13    -0.413208995015E+03    0.26810E-05   -0.42310E-07  2290   0.115E-03    0.384E-04
RMM:  14    -0.413208993287E+03    0.17278E-05   -0.20796E-07  1811   0.821E-04    0.253E-04
RMM:  15    -0.413208989152E+03    0.41345E-05   -0.14108E-07  1436   0.728E-04    0.185E-04
RMM:  16    -0.413208988309E+03    0.84344E-06   -0.72105E-08  1044   0.617E-04
   40 T=    70. E= -.41286716E+03 F= -.41320899E+03 E0= -.41318788E+03  EK= 0.34183E+00 SP= 0.00E+00 SK= 0.00E+00
       N       E                     dE             d eps       ncg     rms          rms(c)
RMM:   1    -0.413226812494E+03   -0.17823E-01   -0.12443E+01  4305   0.127E+00    0.947E-01
RMM:   2    -0.413213163054E+03    0.13649E-01   -0.17507E-01  4272   0.141E-01    0.687E-01
RMM:   3    -0.413212514078E+03    0.64898E-03   -0.90132E-03  5047   0.606E-02    0.259E-01
RMM:   4    -0.413267258572E+03   -0.54744E-01   -0.63307E-02  5125   0.209E-01    0.976E-01
RMM:   5    -0.413210538909E+03    0.56720E-01   -0.27416E-02  4774   0.165E-01    0.562E-02
RMM:   6    -0.413210696637E+03   -0.15773E-03   -0.43851E-03  5808   0.624E-02    0.274E-02
RMM:   7    -0.413210717252E+03   -0.20614E-04   -0.49517E-04  5920   0.190E-02    0.191E-02
RMM:   8    -0.413210716954E+03    0.29771E-06   -0.93274E-05  5267   0.899E-03    0.123E-02
RMM:   9    -0.413210705679E+03    0.11275E-04   -0.20469E-05  4394   0.517E-03    0.557E-03
RMM:  10    -0.413210700905E+03    0.47744E-05   -0.47521E-06  2789   0.283E-03    0.320E-03
RMM:  11    -0.413210697062E+03    0.38429E-05   -0.14965E-06  2505   0.197E-03    0.179E-03
RMM:  12    -0.413210691733E+03    0.53284E-05   -0.82023E-07  2463   0.155E-03    0.650E-04
RMM:  13    -0.413210688785E+03    0.29480E-05   -0.39027E-07  2240   0.109E-03    0.330E-04
RMM:  14    -0.413210686312E+03    0.24735E-05   -0.20593E-07  1721   0.809E-04    0.215E-04
RMM:  15    -0.413210682351E+03    0.39611E-05   -0.13829E-07  1324   0.712E-04    0.127E-04
RMM:  16    -0.413210681108E+03    0.12426E-05   -0.81041E-08  1103   0.638E-04    0.690E-05
RMM:  17    -0.413210678943E+03    0.21650E-05   -0.67040E-08  1121   0.632E-04    0.596E-05
RMM:  18    -0.413210676296E+03    0.26478E-05   -0.56376E-08  1099   0.622E-04    0.336E-05
RMM:  19    -0.413210675074E+03    0.12220E-05   -0.36355E-08   963   0.585E-04    0.244E-05
RMM:  20    -0.413210674412E+03    0.66110E-06   -0.22736E-08   836   0.561E-04
   41 T=    70. E= -.41286668E+03 F= -.41321067E+03 E0= -.41318960E+03  EK= 0.34399E+00 SP= 0.00E+00 SK= 0.00E+00
       N       E                     dE             d eps       ncg     rms          rms(c)
RMM:   1    -0.413240839481E+03   -0.30164E-01   -0.12611E+01  4310   0.133E+00    0.971E-01
RMM:   2    -0.413215035181E+03    0.25804E-01   -0.17958E-01  4285   0.145E-01    0.680E-01
RMM:   3    -0.413217048901E+03   -0.20137E-02   -0.11153E-02  5118   0.736E-02    0.328E-01
RMM:   4    -0.413252640471E+03   -0.35592E-01   -0.51855E-02  5092   0.191E-01    0.825E-01
RMM:   5    -0.413213186534E+03    0.39454E-01   -0.17764E-02  4736   0.138E-01    0.550E-02
RMM:   6    -0.413213238109E+03   -0.51575E-04   -0.29689E-03  5744   0.517E-02    0.266E-02
RMM:   7    -0.413213248013E+03   -0.99041E-05   -0.37867E-04  5857   0.171E-02    0.190E-02
RMM:   8    -0.413213243410E+03    0.46027E-05   -0.83188E-05  5174   0.882E-03    0.108E-02
RMM:   9    -0.413213229491E+03    0.13920E-04   -0.17000E-05  4167   0.499E-03    0.415E-03
RMM:  10    -0.413213223642E+03    0.58483E-05   -0.35329E-06  2704   0.245E-03    0.248E-03
RMM:  11    -0.413213216991E+03    0.66512E-05   -0.11945E-06  2502   0.175E-03    0.130E-03
RMM:  12    -0.413213210330E+03    0.66607E-05   -0.55072E-07  2392   0.129E-03    0.558E-04
RMM:  13    -0.413213206060E+03    0.42706E-05   -0.28457E-07  1860   0.915E-04    0.247E-04
RMM:  14    -0.413213202126E+03    0.39335E-05   -0.16945E-07  1406   0.752E-04    0.141E-04
RMM:  15    -0.413213195911E+03    0.62148E-05   -0.13914E-07  1419   0.728E-04    0.107E-04
RMM:  16    -0.413213194089E+03    0.18223E-05   -0.86973E-08  1195   0.644E-04    0.776E-05
RMM:  17    -0.413213189842E+03    0.42466E-05   -0.81775E-08  1351   0.649E-04    0.578E-05
RMM:  18    -0.413213187429E+03    0.24136E-05   -0.51688E-08  1075   0.584E-04    0.415E-05
RMM:  19    -0.413213186837E+03    0.59198E-06   -0.29828E-08   837   0.538E-04
   42 T=    71. E= -.41286685E+03 F= -.41321319E+03 E0= -.41319215E+03  EK= 0.34634E+00 SP= 0.00E+00 SK= 0.00E+00
       N       E                     dE             d eps       ncg     rms          rms(c)
RMM:   1    -0.413215393481E+03   -0.22061E-02   -0.12294E+01  4311   0.130E+00    0.946E-01
RMM:   2    -0.413217175990E+03   -0.17825E-02   -0.16967E-01  4287   0.150E-01    0.680E-01
RMM:   3    -0.413219926353E+03   -0.27504E-02   -0.11643E-02  5098   0.797E-02    0.346E-01
RMM:   4    -0.413252040770E+03   -0.32114E-01   -0.50732E-02  5077   0.190E-01    0.797E-01
RMM:   5    -0.413215274292E+03    0.36766E-01   -0.16184E-02  4713   0.133E-01    0.534E-02
RMM:   6    -0.413215313143E+03   -0.38851E-04   -0.27177E-03  5743   0.497E-02    0.258E-02
RMM:   7    -0.413215320092E+03   -0.69489E-05   -0.33983E-04  5852   0.165E-02    0.185E-02
RMM:   8    -0.413215316459E+03    0.36330E-05   -0.77013E-05  5159   0.859E-03    0.102E-02
RMM:   9    -0.413215305067E+03    0.11392E-04   -0.16416E-05  4144   0.492E-03    0.394E-03
RMM:  10    -0.413215301030E+03    0.40375E-05   -0.32705E-06  2694   0.238E-03    0.233E-03
RMM:  11    -0.413215296089E+03    0.49408E-05   -0.12058E-06  2501   0.174E-03    0.123E-03
RMM:  12    -0.413215291424E+03    0.46650E-05   -0.54302E-07  2386   0.127E-03    0.530E-04
RMM:  13    -0.413215288352E+03    0.30718E-05   -0.28133E-07  1766   0.893E-04    0.241E-04
RMM:  14    -0.413215285428E+03    0.29239E-05   -0.17499E-07  1385   0.751E-04    0.133E-04
RMM:  15    -0.413215280651E+03    0.47771E-05   -0.14861E-07  1359   0.725E-04    0.988E-05
RMM:  16    -0.413215279119E+03    0.15323E-05   -0.88187E-08  1153   0.646E-04    0.683E-05
RMM:  17    -0.413215275782E+03    0.33373E-05   -0.83248E-08  1289   0.648E-04    0.587E-05
RMM:  18    -0.413215273794E+03    0.19875E-05   -0.55989E-08  1104   0.588E-04    0.403E-05
RMM:  19    -0.413215273140E+03    0.65473E-06   -0.29392E-08   818   0.539E-04
   43 T=    71. E= -.41286688E+03 F= -.41321527E+03 E0= -.41319426E+03  EK= 0.34839E+00 SP= 0.00E+00 SK= 0.00E+00
       N       E                     dE             d eps       ncg     rms          rms(c)
RMM:   1    -0.413259229514E+03   -0.43956E-01   -0.12843E+01  4311   0.155E+00    0.948E-01
RMM:   2    -0.413218636340E+03    0.40593E-01   -0.20904E-01  4292   0.174E-01    0.699E-01
RMM:   3    -0.413222352408E+03   -0.37161E-02   -0.12287E-02  5103   0.881E-02    0.405E-01
RMM:   4    -0.413252361376E+03   -0.30009E-01   -0.52629E-02  5057   0.194E-01    0.796E-01
RMM:   5    -0.413216375281E+03    0.35986E-01   -0.15915E-02  4703   0.135E-01    0.576E-02
RMM:   6    -0.413216388208E+03   -0.12927E-04   -0.26591E-03  5691   0.494E-02    0.265E-02
RMM:   7    -0.413216396336E+03   -0.81283E-05   -0.34632E-04  5902   0.167E-02    0.195E-02
RMM:   8    -0.413216392283E+03    0.40534E-05   -0.75359E-05  5177   0.855E-03    0.104E-02
RMM:   9    -0.413216382164E+03    0.10119E-04   -0.18707E-05  4213   0.526E-03    0.419E-03
RMM:  10    -0.413216379256E+03    0.29075E-05   -0.34863E-06  2715   0.242E-03    0.241E-03
RMM:  11    -0.413216375583E+03    0.36729E-05   -0.16893E-06  2556   0.193E-03    0.138E-03
RMM:  12    -0.413216372763E+03    0.28200E-05   -0.58117E-07  2451   0.135E-03    0.641E-04
RMM:  13    -0.413216370281E+03    0.24819E-05   -0.32001E-07  1700   0.914E-04    0.305E-04
RMM:  14    -0.413216367977E+03    0.23047E-05   -0.20900E-07  1407   0.781E-04    0.159E-04
RMM:  15    -0.413216365288E+03    0.26885E-05   -0.16043E-07  1378   0.729E-04    0.890E-05
RMM:  16    -0.413216363187E+03    0.21010E-05   -0.11220E-07  1232   0.670E-04    0.594E-05
RMM:  17    -0.413216361338E+03    0.18488E-05   -0.84257E-08  1185   0.630E-04    0.480E-05
RMM:  18    -0.413216359224E+03    0.21140E-05   -0.68144E-08  1136   0.603E-04    0.384E-05
RMM:  19    -0.413216358585E+03    0.63924E-06   -0.36163E-08   844   0.548E-04
   44 T=    71. E= -.41286657E+03 F= -.41321636E+03 E0= -.41319538E+03  EK= 0.34979E+00 SP= 0.00E+00 SK= 0.00E+00
       N       E                     dE             d eps       ncg     rms          rms(c)
RMM:   1    -0.413240273640E+03   -0.23914E-01   -0.12671E+01  4310   0.155E+00    0.978E-01
RMM:   2    -0.413219388940E+03    0.20885E-01   -0.17464E-01  4337   0.176E-01    0.688E-01
RMM:   3    -0.413230204235E+03   -0.10815E-01   -0.19088E-02  5136   0.115E-01    0.507E-01
RMM:   4    -0.413235445882E+03   -0.52416E-02   -0.39407E-02  5018   0.173E-01    0.565E-01
RMM:   5    -0.413218108065E+03    0.17338E-01   -0.65196E-03  4591   0.969E-02    0.481E-02
RMM:   6    -0.413218067026E+03    0.41039E-04   -0.12168E-03  5431   0.342E-02    0.242E-02
RMM:   7    -0.413218064169E+03    0.28573E-05   -0.16576E-04  5630   0.126E-02    0.169E-02
RMM:   8    -0.413218056306E+03    0.78631E-05   -0.73204E-05  5096   0.868E-03    0.873E-03
RMM:   9    -0.413218041787E+03    0.14519E-04   -0.13595E-05  4049   0.487E-03    0.352E-03
RMM:  10    -0.413218037988E+03    0.37987E-05   -0.21053E-06  2620   0.207E-03    0.196E-03
RMM:  11    -0.413218030654E+03    0.73341E-05   -0.10773E-06  2482   0.166E-03    0.113E-03
RMM:  12    -0.413218025164E+03    0.54897E-05   -0.46279E-07  2373   0.120E-03    0.545E-04
RMM:  13    -0.413218021345E+03    0.38191E-05   -0.22154E-07  1624   0.809E-04    0.266E-04
RMM:  14    -0.413218017562E+03    0.37837E-05   -0.13093E-07  1227   0.680E-04    0.139E-04
RMM:  15    -0.413218011798E+03    0.57633E-05   -0.12015E-07  1288   0.685E-04    0.117E-04
RMM:  16    -0.413218009511E+03    0.22878E-05   -0.68954E-08  1069   0.608E-04    0.105E-04
RMM:  17    -0.413218006733E+03    0.27776E-05   -0.54053E-08  1031   0.587E-04    0.533E-05
RMM:  18    -0.413218002879E+03    0.38544E-05   -0.56878E-08  1164   0.604E-04    0.539E-05
RMM:  19    -0.413218002588E+03    0.29066E-06   -0.21298E-08   724   0.512E-04
   45 T=    71. E= -.41286695E+03 F= -.41321800E+03 E0= -.41319704E+03  EK= 0.35105E+00 SP= 0.00E+00 SK= 0.00E+00
       N       E                     dE             d eps       ncg     rms          rms(c)
RMM:   1    -0.413232850921E+03   -0.14848E-01   -0.12490E+01  4308   0.160E+00    0.958E-01
RMM:   2    -0.413219592596E+03    0.13258E-01   -0.18183E-01  4358   0.187E-01    0.685E-01
RMM:   3    -0.413232798609E+03   -0.13206E-01   -0.20875E-02  5129   0.124E-01    0.555E-01
RMM:   4    -0.413233195099E+03   -0.39649E-03   -0.38927E-02  5002   0.173E-01    0.532E-01
RMM:   5    -0.413218262977E+03    0.14932E-01   -0.57368E-03  4561   0.939E-02    0.487E-02
RMM:   6    -0.413218202227E+03    0.60750E-04   -0.98269E-04  5234   0.317E-02    0.239E-02
RMM:   7    -0.413218197937E+03    0.42898E-05   -0.13627E-04  5675   0.114E-02    0.156E-02
RMM:   8    -0.413218194598E+03    0.33394E-05   -0.81854E-05  5169   0.904E-03    0.988E-03
RMM:   9    -0.413218179313E+03    0.15285E-04   -0.17973E-05  4367   0.547E-03    0.384E-03
RMM:  10    -0.413218176406E+03    0.29065E-05   -0.25221E-06  2681   0.220E-03    0.213E-03
RMM:  11    -0.413218170490E+03    0.59166E-05   -0.13308E-06  2487   0.183E-03    0.126E-03
RMM:  12    -0.413218166113E+03    0.43767E-05   -0.51429E-07  2397   0.130E-03    0.665E-04
RMM:  13    -0.413218162439E+03    0.36740E-05   -0.23351E-07  1680   0.867E-04    0.325E-04
RMM:  14    -0.413218158847E+03    0.35924E-05   -0.12981E-07  1302   0.703E-04    0.161E-04
RMM:  15    -0.413218154314E+03    0.45321E-05   -0.10552E-07  1227   0.666E-04    0.129E-04
RMM:  16    -0.413218152273E+03    0.20410E-05   -0.57331E-08   949   0.581E-04    0.111E-04
RMM:  17    -0.413218149120E+03    0.31536E-05   -0.53449E-08   998   0.582E-04    0.651E-05
RMM:  18    -0.413218146291E+03    0.28291E-05   -0.44698E-08   987   0.572E-04    0.492E-05
RMM:  19    -0.413218145752E+03    0.53871E-06   -0.16885E-08   655   0.507E-04
   46 T=    72. E= -.41286688E+03 F= -.41321815E+03 E0= -.41319720E+03  EK= 0.35127E+00 SP= 0.00E+00 SK= 0.00E+00
       N       E                     dE             d eps       ncg     rms          rms(c)
RMM:   1    -0.413247378908E+03   -0.29233E-01   -0.12668E+01  4310   0.174E+00    0.946E-01
RMM:   2    -0.413219675301E+03    0.27704E-01   -0.20327E-01  4352   0.210E-01    0.700E-01
RMM:   3    -0.413233179190E+03   -0.13504E-01   -0.21243E-02  5135   0.128E-01    0.580E-01
RMM:   4    -0.413233911062E+03   -0.73187E-03   -0.41532E-02  5002   0.179E-01    0.557E-01
RMM:   5    -0.413217688285E+03    0.16223E-01   -0.65916E-03  4563   0.100E-01    0.521E-02
RMM:   6    -0.413217616127E+03    0.72157E-04   -0.10818E-03  5248   0.336E-02    0.250E-02
RMM:   7    -0.413217612070E+03    0.40577E-05   -0.15553E-04  5733   0.121E-02    0.174E-02
RMM:   8    -0.413217607538E+03    0.45321E-05   -0.81442E-05  5190   0.902E-03    0.100E-02
RMM:   9    -0.413217593728E+03    0.13809E-04   -0.18993E-05  4379   0.563E-03    0.408E-03
RMM:  10    -0.413217591574E+03    0.21544E-05   -0.27258E-06  2687   0.224E-03    0.224E-03
RMM:  11    -0.413217587770E+03    0.38044E-05   -0.15466E-06  2514   0.192E-03    0.140E-03
RMM:  12    -0.413217584891E+03    0.28783E-05   -0.54533E-07  2410   0.135E-03    0.712E-04
RMM:  13    -0.413217582187E+03    0.27047E-05   -0.27058E-07  1740   0.897E-04    0.323E-04
RMM:  14    -0.413217579707E+03    0.24797E-05   -0.16590E-07  1399   0.733E-04    0.170E-04
RMM:  15    -0.413217576592E+03    0.31152E-05   -0.13869E-07  1307   0.695E-04    0.118E-04
RMM:  16    -0.413217574878E+03    0.17135E-05   -0.74395E-08   943   0.595E-04    0.873E-05
RMM:  17    -0.413217572682E+03    0.21964E-05   -0.70820E-08  1055   0.602E-04    0.565E-05
RMM:  18    -0.413217571191E+03    0.14904E-05   -0.45961E-08   901   0.565E-04    0.375E-05
RMM:  19    -0.413217570696E+03    0.49565E-06   -0.21725E-08   679   0.521E-04
   47 T=    71. E= -.41286698E+03 F= -.41321757E+03 E0= -.41319664E+03  EK= 0.35059E+00 SP= 0.00E+00 SK= 0.00E+00
       N       E                     dE             d eps       ncg     rms          rms(c)
RMM:   1    -0.413279168670E+03   -0.61597E-01   -0.12949E+01  4306   0.196E+00    0.973E-01
RMM:   2    -0.413217784044E+03    0.61385E-01   -0.20716E-01  4459   0.211E-01    0.695E-01
RMM:   3    -0.413240419410E+03   -0.22635E-01   -0.29483E-02  5148   0.152E-01    0.699E-01
RMM:   4    -0.413225614350E+03    0.14805E-01   -0.38759E-02  4965   0.177E-01    0.444E-01
RMM:   5    -0.413216499912E+03    0.91144E-02   -0.47252E-03  4554   0.904E-02    0.574E-02
RMM:   6    -0.413216343536E+03    0.15638E-03   -0.48319E-04  4750   0.285E-02    0.270E-02
RMM:   7    -0.413216344933E+03   -0.13967E-05   -0.18266E-04  5904   0.137E-02    0.187E-02
RMM:   8    -0.413216326479E+03    0.18454E-04   -0.68901E-05  5087   0.910E-03    0.989E-03
RMM:   9    -0.413216315280E+03    0.11200E-04   -0.14279E-05  4052   0.488E-03    0.485E-03
RMM:  10    -0.413216310628E+03    0.46519E-05   -0.22266E-06  2572   0.238E-03    0.243E-03
RMM:  11    -0.413216305078E+03    0.55493E-05   -0.17340E-06  2511   0.204E-03    0.174E-03
RMM:  12    -0.413216301071E+03    0.40078E-05   -0.53666E-07  2392   0.137E-03    0.872E-04
RMM:  13    -0.413216296609E+03    0.44615E-05   -0.26815E-07  1809   0.896E-04    0.434E-04
RMM:  14    -0.413216291514E+03    0.50946E-05   -0.20190E-07  1780   0.782E-04    0.312E-04
RMM:  15    -0.413216287088E+03    0.44270E-05   -0.12433E-07  1140   0.616E-04    0.136E-04
RMM:  16    -0.413216284328E+03    0.27594E-05   -0.83087E-08  1083   0.590E-04    0.878E-05
RMM:  17    -0.413216281961E+03    0.23668E-05   -0.63224E-08  1057   0.575E-04    0.554E-05
RMM:  18    -0.413216279703E+03    0.22584E-05   -0.47572E-08   979   0.558E-04    0.442E-05
RMM:  19    -0.413216278981E+03    0.72180E-06   -0.24014E-08   741   0.511E-04
   48 T=    71. E= -.41286743E+03 F= -.41321628E+03 E0= -.41319537E+03  EK= 0.34885E+00 SP= 0.00E+00 SK= 0.00E+00
       N       E                     dE             d eps       ncg     rms          rms(c)
RMM:   1    -0.413277734618E+03   -0.61455E-01   -0.12766E+01  4306   0.209E+00    0.962E-01
RMM:   2    -0.413213953998E+03    0.63781E-01   -0.20980E-01  4483   0.226E-01    0.685E-01
RMM:   3    -0.413242533586E+03   -0.28580E-01   -0.34763E-02  5159   0.167E-01    0.773E-01
RMM:   4    -0.413219092252E+03    0.23441E-01   -0.38433E-02  4933   0.179E-01    0.396E-01
RMM:   5    -0.413212749283E+03    0.63430E-02   -0.50435E-03  4743   0.924E-02    0.690E-02
RMM:   6    -0.413212494573E+03    0.25471E-03   -0.50678E-04  4656   0.315E-02    0.309E-02
RMM:   7    -0.413212490905E+03    0.36680E-05   -0.16996E-04  5774   0.140E-02    0.211E-02
RMM:   8    -0.413212469809E+03    0.21096E-04   -0.50845E-05  4982   0.786E-03    0.975E-03
RMM:   9    -0.413212457601E+03    0.12208E-04   -0.14243E-05  3669   0.448E-03    0.430E-03
RMM:  10    -0.413212452055E+03    0.55459E-05   -0.23348E-06  2608   0.238E-03    0.247E-03
RMM:  11    -0.413212445154E+03    0.69007E-05   -0.11259E-06  2494   0.173E-03    0.153E-03
RMM:  12    -0.413212440978E+03    0.41764E-05   -0.43079E-07  2407   0.118E-03    0.728E-04
RMM:  13    -0.413212435533E+03    0.54448E-05   -0.29449E-07  1702   0.883E-04    0.363E-04
RMM:  14    -0.413212431015E+03    0.45179E-05   -0.20513E-07  1547   0.779E-04    0.280E-04
RMM:  15    -0.413212426064E+03    0.49510E-05   -0.16463E-07  1299   0.711E-04    0.131E-04
RMM:  16    -0.413212423780E+03    0.22844E-05   -0.10002E-07  1209   0.641E-04    0.990E-05
RMM:  17    -0.413212420807E+03    0.29726E-05   -0.86088E-08  1243   0.626E-04    0.517E-05
RMM:  18    -0.413212419625E+03    0.11819E-05   -0.48980E-08   994   0.559E-04    0.404E-05
RMM:  19    -0.413212418882E+03    0.74382E-06   -0.32103E-08   867   0.532E-04
   49 T=    70. E= -.41286716E+03 F= -.41321242E+03 E0= -.41319151E+03  EK= 0.34526E+00 SP= 0.00E+00 SK= 0.00E+00
       N       E                     dE             d eps       ncg     rms          rms(c)
RMM:   1    -0.413238764366E+03   -0.26345E-01   -0.12251E+01  4305   0.205E+00    0.931E-01
RMM:   2    -0.413209840230E+03    0.28924E-01   -0.20837E-01  4511   0.233E-01    0.692E-01
RMM:   3    -0.413237464415E+03   -0.27624E-01   -0.33851E-02  5162   0.167E-01    0.774E-01
RMM:   4    -0.413214989902E+03    0.22475E-01   -0.39296E-02  4937   0.181E-01    0.407E-01
RMM:   5    -0.413208007446E+03    0.69825E-02   -0.56073E-03  4766   0.963E-02    0.729E-02
RMM:   6    -0.413207720664E+03    0.28678E-03   -0.54503E-04  4652   0.330E-02    0.320E-02
RMM:   7    -0.413207716975E+03    0.36886E-05   -0.17825E-04  5775   0.143E-02    0.215E-02
RMM:   8    -0.413207697061E+03    0.19914E-04   -0.53312E-05  5032   0.792E-03    0.101E-02
RMM:   9    -0.413207687240E+03    0.98215E-05   -0.15762E-05  3753   0.468E-03    0.438E-03
RMM:  10    -0.413207682806E+03    0.44344E-05   -0.27484E-06  2647   0.251E-03    0.257E-03
RMM:  11    -0.413207678082E+03    0.47233E-05   -0.11701E-06  2497   0.178E-03    0.156E-03
RMM:  12    -0.413207675096E+03    0.29866E-05   -0.45237E-07  2424   0.120E-03    0.757E-04
RMM:  13    -0.413207671206E+03    0.38900E-05   -0.33767E-07  1842   0.922E-04    0.397E-04
RMM:  14    -0.413207668171E+03    0.30348E-05   -0.22904E-07  1565   0.783E-04    0.305E-04
RMM:  15    -0.413207664984E+03    0.31864E-05   -0.19219E-07  1347   0.725E-04    0.129E-04
RMM:  16    -0.413207663507E+03    0.14778E-05   -0.10951E-07  1220   0.648E-04    0.937E-05
RMM:  17    -0.413207661845E+03    0.16612E-05   -0.95790E-08  1229   0.631E-04    0.536E-05
RMM:  18    -0.413207661264E+03    0.58175E-06   -0.51379E-08   979   0.562E-04
   50 T=    69. E= -.41286749E+03 F= -.41320766E+03 E0= -.41318676E+03  EK= 0.34017E+00 SP= 0.00E+00 SK= 0.00E+00
       N       E                     dE             d eps       ncg     rms          rms(c)
RMM:   1    -0.413236280973E+03   -0.28619E-01   -0.12092E+01  4301   0.219E+00    0.944E-01
RMM:   2    -0.413202347091E+03    0.33934E-01   -0.20623E-01  4566   0.248E-01    0.686E-01
RMM:   3    -0.413240177867E+03   -0.37831E-01   -0.43690E-02  5169   0.190E-01    0.881E-01
RMM:   4    -0.413204837393E+03    0.35340E-01   -0.40872E-02  4911   0.188E-01    0.351E-01
RMM:   5    -0.413200852120E+03    0.39853E-02   -0.72541E-03  5139   0.105E-01    0.966E-02
RMM:   6    -0.413200313202E+03    0.53892E-03   -0.10189E-03  4724   0.430E-02    0.375E-02
RMM:   7    -0.413200306075E+03    0.71272E-05   -0.26462E-04  5740   0.176E-02    0.238E-02
RMM:   8    -0.413200284359E+03    0.21717E-04   -0.51841E-05  5088   0.801E-03    0.112E-02
RMM:   9    -0.413200272112E+03    0.12247E-04   -0.17716E-05  3838   0.490E-03    0.458E-03
RMM:  10    -0.413200265664E+03    0.64477E-05   -0.38468E-06  2760   0.286E-03    0.301E-03
RMM:  11    -0.413200259125E+03    0.65388E-05   -0.14434E-06  2529   0.201E-03    0.158E-03
RMM:  12    -0.413200255670E+03    0.34547E-05   -0.54498E-07  2440   0.129E-03    0.753E-04
[...]
RMM:   7    -0.413648321574E+03    0.10924E-02   -0.25704E-03  4876   0.690E-02    0.607E-02
RMM:   8    -0.413648312001E+03    0.95734E-05   -0.68255E-04  5687   0.307E-02    0.385E-02
RMM:   9    -0.413648303398E+03    0.86029E-05   -0.26445E-04  4727   0.208E-02    0.166E-02
RMM:  10    -0.413648304425E+03   -0.10267E-05   -0.66052E-05  5618   0.969E-03    0.110E-02
RMM:  11    -0.413648305132E+03   -0.70732E-06   -0.19312E-05  4545   0.546E-03    0.595E-03
RMM:  12    -0.413648308009E+03   -0.28772E-05   -0.55646E-06  3082   0.342E-03    0.316E-03
RMM:  13    -0.413648309670E+03   -0.16610E-05   -0.19425E-06  2646   0.213E-03    0.127E-03
RMM:  14    -0.413648310795E+03   -0.11246E-05   -0.97606E-07  2456   0.157E-03    0.794E-04
RMM:  15    -0.413648311530E+03   -0.73577E-06   -0.63733E-07  2257   0.119E-03
  139 T=   159. E= -.41286678E+03 F= -.41364831E+03 E0= -.41362649E+03  EK= 0.78153E+00 SP= 0.00E+00 SK= 0.00E+00
       N       E                     dE             d eps       ncg     rms          rms(c)
RMM:   1    -0.413839749907E+03   -0.19144E+00   -0.19109E+01  4268   0.813E+00    0.108E+00
RMM:   2    -0.413765972802E+03    0.73777E-01   -0.56915E-01  5414   0.913E-01    0.106E+00
RMM:   3    -0.413786104709E+03   -0.20132E-01   -0.11927E-01  5638   0.371E-01    0.115E+00
RMM:   4    -0.413749181670E+03    0.36923E-01   -0.49121E-02  5295   0.262E-01    0.592E-01
RMM:   5    -0.413746789249E+03    0.23924E-02   -0.24742E-02  4498   0.221E-01    0.222E-01
RMM:   6    -0.413746411248E+03    0.37800E-03   -0.12990E-02  5114   0.137E-01    0.140E-01
RMM:   7    -0.413745314193E+03    0.10971E-02   -0.29240E-03  4984   0.707E-02    0.650E-02
RMM:   8    -0.413745270961E+03    0.43232E-04   -0.71839E-04  5604   0.324E-02    0.399E-02
RMM:   9    -0.413745257070E+03    0.13890E-04   -0.30253E-04  4769   0.225E-02    0.177E-02
RMM:  10    -0.413745258080E+03   -0.10101E-05   -0.78580E-05  5671   0.107E-02    0.120E-02
RMM:  11    -0.413745257518E+03    0.56177E-06   -0.20062E-05  4522   0.569E-03    0.580E-03
RMM:  12    -0.413745259690E+03   -0.21719E-05   -0.59289E-06  3139   0.345E-03    0.313E-03
RMM:  13    -0.413745261498E+03   -0.18075E-05   -0.18992E-06  2638   0.218E-03    0.138E-03
RMM:  14    -0.413745262918E+03   -0.14197E-05   -0.94233E-07  2492   0.157E-03    0.785E-04
RMM:  15    -0.413745264134E+03   -0.12161E-05   -0.61190E-07  2236   0.117E-03    0.426E-04
RMM:  16    -0.413745264987E+03   -0.85315E-06   -0.38189E-07  1701   0.909E-04
  140 T=   177. E= -.41287530E+03 F= -.41374526E+03 E0= -.41372373E+03  EK= 0.86996E+00 SP= 0.00E+00 SK= 0.00E+00
       N       E                     dE             d eps       ncg     rms          rms(c)
RMM:   1    -0.413900989088E+03   -0.15572E+00   -0.22036E+01  4264   0.852E+00    0.152E+00
RMM:   2    -0.413781978462E+03    0.11901E+00   -0.69302E-01  5412   0.100E+00    0.135E+00
RMM:   3    -0.413847862876E+03   -0.65884E-01   -0.16694E-01  5583   0.440E-01    0.147E+00
RMM:   4    -0.413793338318E+03    0.54525E-01   -0.96452E-02  5275   0.334E-01    0.882E-01
RMM:   5    -0.413777420068E+03    0.15918E-01   -0.62236E-02  4699   0.330E-01    0.269E-01
RMM:   6    -0.413774577005E+03    0.28431E-02   -0.83551E-03  4895   0.130E-01    0.120E-01
RMM:   7    -0.413774191685E+03    0.38532E-03   -0.22151E-03  5279   0.604E-02    0.714E-02
RMM:   8    -0.413774042318E+03    0.14937E-03   -0.92412E-04  5390   0.374E-02    0.427E-02
RMM:   9    -0.413774033065E+03    0.92528E-05   -0.40578E-04  5182   0.251E-02    0.264E-02
RMM:  10    -0.413774024954E+03    0.81114E-05   -0.98535E-05  5510   0.127E-02    0.150E-02
RMM:  11    -0.413774024681E+03    0.27295E-06   -0.41736E-05  5386   0.764E-03    0.735E-03
RMM:  12    -0.413774026965E+03   -0.22841E-05   -0.72409E-06  3240   0.365E-03    0.395E-03
RMM:  13    -0.413774030514E+03   -0.35495E-05   -0.33332E-06  2753   0.285E-03    0.238E-03
RMM:  14    -0.413774034274E+03   -0.37592E-05   -0.13416E-06  2550   0.201E-03    0.114E-03
RMM:  15    -0.413774037390E+03   -0.31162E-05   -0.81985E-07  2480   0.138E-03    0.628E-04
RMM:  16    -0.413774040431E+03   -0.30417E-05   -0.65117E-07  2183   0.111E-03    0.349E-04
RMM:  17    -0.413774043259E+03   -0.28280E-05   -0.55566E-07  1960   0.974E-04    0.241E-04
RMM:  18    -0.413774045658E+03   -0.23985E-05   -0.46958E-07  1868   0.892E-04    0.180E-04
RMM:  19    -0.413774047794E+03   -0.21359E-05   -0.39264E-07  1670   0.814E-04    0.141E-04
RMM:  20    -0.413774049102E+03   -0.13078E-05   -0.20888E-07  1283   0.677E-04    0.110E-04
RMM:  21    -0.413774050234E+03   -0.11328E-05   -0.14019E-07  1169   0.634E-04    0.564E-05
RMM:  22    -0.413774050695E+03   -0.46094E-06   -0.73302E-08   990   0.583E-04
  141 T=   181. E= -.41288724E+03 F= -.41377405E+03 E0= -.41375277E+03  EK= 0.88681E+00 SP= 0.00E+00 SK= 0.00E+00
       N       E                     dE             d eps       ncg     rms          rms(c)
RMM:   1    -0.413743709040E+03    0.30341E-01   -0.20815E+01  4264   0.834E+00    0.172E+00
RMM:   2    -0.413643472677E+03    0.10024E+00   -0.65118E-01  5399   0.979E-01    0.147E+00
RMM:   3    -0.413654052850E+03   -0.10580E-01   -0.12892E-01  5320   0.424E-01    0.954E-01
RMM:   4    -0.413892620490E+03   -0.23857E+00   -0.27911E-01  5248   0.491E-01    0.210E+00
RMM:   5    -0.413642108887E+03    0.25051E+00   -0.14434E-01  4930   0.430E-01    0.283E-01
RMM:   6    -0.413639728397E+03    0.23805E-02   -0.24353E-02  5577   0.180E-01    0.108E-01
RMM:   7    -0.413639766022E+03   -0.37625E-04   -0.48757E-03  5783   0.712E-02    0.654E-02
RMM:   8    -0.413639711952E+03    0.54070E-04   -0.13702E-03  5531   0.399E-02    0.454E-02
RMM:   9    -0.413639673284E+03    0.38667E-04   -0.36337E-04  5192   0.233E-02    0.238E-02
RMM:  10    -0.413639668775E+03    0.45093E-05   -0.11150E-04  5731   0.123E-02    0.132E-02
RMM:  11    -0.413639669793E+03   -0.10178E-05   -0.33913E-05  5160   0.648E-03    0.720E-03
RMM:  12    -0.413639672055E+03   -0.22621E-05   -0.73099E-06  3277   0.375E-03    0.378E-03
RMM:  13    -0.413639676151E+03   -0.40965E-05   -0.28269E-06  2722   0.271E-03    0.197E-03
RMM:  14    -0.413639680542E+03   -0.43906E-05   -0.12420E-06  2561   0.183E-03    0.923E-04
RMM:  15    -0.413639684808E+03   -0.42663E-05   -0.93356E-07  2522   0.144E-03    0.596E-04
RMM:  16    -0.413639690135E+03   -0.53264E-05   -0.10624E-06  2407   0.133E-03    0.419E-04
RMM:  17    -0.413639693850E+03   -0.37156E-05   -0.74785E-07  2095   0.107E-03    0.248E-04
RMM:  18    -0.413639696665E+03   -0.28150E-05   -0.51380E-07  1903   0.920E-04    0.200E-04
RMM:  19    -0.413639699934E+03   -0.32691E-05   -0.53255E-07  1874   0.898E-04    0.141E-04
RMM:  20    -0.413639701449E+03   -0.15145E-05   -0.22850E-07  1236   0.673E-04    0.995E-05
RMM:  21    -0.413639702605E+03   -0.11559E-05   -0.13911E-07  1109   0.621E-04    0.524E-05
RMM:  22    -0.413639703481E+03   -0.87586E-06   -0.85029E-08  1010   0.588E-04
  142 T=   157. E= -.41287008E+03 F= -.41363970E+03 E0= -.41361860E+03  EK= 0.76962E+00 SP= 0.00E+00 SK= 0.00E+00
       N       E                     dE             d eps       ncg     rms          rms(c)
RMM:   1    -0.413744175479E+03   -0.10447E+00   -0.17478E+01  4264   0.746E+00    0.106E+00
RMM:   2    -0.413620699485E+03    0.12348E+00   -0.51005E-01  5406   0.860E-01    0.877E-01
RMM:   3    -0.413639692654E+03   -0.18993E-01   -0.84510E-02  5513   0.342E-01    0.835E-01
RMM:   4    -0.413636598795E+03    0.30939E-02   -0.50398E-02  5400   0.231E-01    0.719E-01
RMM:   5    -0.413618208463E+03    0.18390E-01   -0.28298E-02  4575   0.226E-01    0.157E-01
RMM:   6    -0.413617677019E+03    0.53144E-03   -0.48114E-03  5254   0.944E-02    0.843E-02
RMM:   7    -0.413617543760E+03    0.13326E-03   -0.91429E-04  5140   0.380E-02    0.462E-02
RMM:   8    -0.413617510081E+03    0.33679E-04   -0.49569E-04  5418   0.275E-02    0.311E-02
RMM:   9    -0.413617511035E+03   -0.95413E-06   -0.21175E-04  5545   0.171E-02    0.226E-02
RMM:  10    -0.413617492016E+03    0.19019E-04   -0.76594E-05  5426   0.107E-02    0.116E-02
RMM:  11    -0.413617493217E+03   -0.12007E-05   -0.33116E-05  5338   0.650E-03    0.747E-03
RMM:  12    -0.413617493566E+03   -0.34960E-06   -0.50135E-06  3050   0.347E-03
  143 T=   153. E= -.41286594E+03 F= -.41361749E+03 E0= -.41359651E+03  EK= 0.75155E+00 SP= 0.00E+00 SK= 0.00E+00
       N       E                     dE             d eps       ncg     rms          rms(c)
RMM:   1    -0.413900549478E+03   -0.28306E+00   -0.21464E+01  4278   0.804E+00    0.199E+00
RMM:   2    -0.413757844921E+03    0.14270E+00   -0.83122E-01  5373   0.106E+00    0.175E+00
RMM:   3    -0.413884145047E+03   -0.12630E+00   -0.25105E-01  5480   0.536E-01    0.209E+00
RMM:   4    -0.413750874322E+03    0.13327E+00   -0.16483E-01  5153   0.466E-01    0.892E-01
RMM:   5    -0.413736752973E+03    0.14121E-01   -0.62351E-02  4637   0.349E-01    0.232E-01
RMM:   6    -0.413735486880E+03    0.12661E-02   -0.99362E-03  5323   0.131E-01    0.126E-01
RMM:   7    -0.413735077819E+03    0.40906E-03   -0.26566E-03  5161   0.625E-02    0.765E-02
RMM:   8    -0.413734885112E+03    0.19271E-03   -0.96838E-04  5036   0.406E-02    0.439E-02
RMM:   9    -0.413734878967E+03    0.61455E-05   -0.44142E-04  5530   0.258E-02    0.307E-02
RMM:  10    -0.413734864057E+03    0.14910E-04   -0.11097E-04  5422   0.135E-02    0.152E-02
RMM:  11    -0.413734867300E+03   -0.32429E-05   -0.71246E-05  5690   0.940E-03    0.984E-03
RMM:  12    -0.413734868295E+03   -0.99478E-06   -0.10062E-05  3960   0.453E-03    0.461E-03
RMM:  13    -0.413734870981E+03   -0.26859E-05   -0.59902E-06  3338   0.340E-03    0.242E-03
RMM:  14    -0.413734873680E+03   -0.26991E-05   -0.12838E-06  2553   0.207E-03    0.105E-03
RMM:  15    -0.413734875836E+03   -0.21558E-05   -0.84021E-07  2482   0.144E-03    0.567E-04
RMM:  16    -0.413734877735E+03   -0.18993E-05   -0.65677E-07  2328   0.119E-03    0.343E-04
RMM:  17    -0.413734878987E+03   -0.12520E-05   -0.44623E-07  1976   0.953E-04    0.277E-04
RMM:  18    -0.413734880164E+03   -0.11776E-05   -0.43163E-07  1851   0.914E-04    0.189E-04
RMM:  19    -0.413734880845E+03   -0.68036E-06   -0.27433E-07  1507   0.750E-04
  144 T=   167. E= -.41291330E+03 F= -.41373488E+03 E0= -.41371376E+03  EK= 0.82159E+00 SP= 0.00E+00 SK= 0.00E+00
       N       E                     dE             d eps       ncg     rms          rms(c)
RMM:   1    -0.413602848585E+03    0.13203E+00   -0.20527E+01  4282   0.804E+00    0.236E+00
RMM:   2    -0.413519227282E+03    0.83621E-01   -0.82323E-01  5351   0.107E+00    0.211E+00
RMM:   3    -0.413674475920E+03   -0.15525E+00   -0.29983E-01  5467   0.580E-01    0.242E+00
RMM:   4    -0.413512207363E+03    0.16227E+00   -0.21864E-01  5169   0.529E-01    0.105E+00
RMM:   5    -0.413491828607E+03    0.20379E-01   -0.85711E-02  4775   0.402E-01    0.287E-01
RMM:   6    -0.413489581994E+03    0.22466E-02   -0.14177E-02  5239   0.157E-01    0.146E-01
RMM:   7    -0.413488835363E+03    0.74663E-03   -0.32411E-03  4999   0.733E-02    0.805E-02
RMM:   8    -0.413488642196E+03    0.19317E-03   -0.11737E-03  5201   0.445E-02    0.485E-02
RMM:   9    -0.413488640207E+03    0.19886E-05   -0.50770E-04  5643   0.274E-02    0.326E-02
RMM:  10    -0.413488623190E+03    0.17018E-04   -0.12396E-04  5401   0.140E-02    0.165E-02
RMM:  11    -0.413488626838E+03   -0.36487E-05   -0.90784E-05  5663   0.107E-02    0.105E-02
RMM:  12    -0.413488626208E+03    0.63072E-06   -0.12726E-05  4176   0.495E-03    0.471E-03
RMM:  13    -0.413488627307E+03   -0.10995E-05   -0.66609E-06  3438   0.337E-03    0.248E-03
RMM:  14    -0.413488628073E+03   -0.76557E-06   -0.13500E-06  2558   0.209E-03
  145 T=   125. E= -.41287687E+03 F= -.41348863E+03 E0= -.41346703E+03  EK= 0.61176E+00 SP= 0.00E+00 SK= 0.00E+00
       N       E                     dE             d eps       ncg     rms          rms(c)
RMM:   1    -0.413385885187E+03    0.10274E+00   -0.11144E+01  4285   0.614E+00    0.101E+00
RMM:   2    -0.413374427877E+03    0.11457E-01   -0.34316E-01  5399   0.688E-01    0.109E+00
RMM:   3    -0.413362674243E+03    0.11754E-01   -0.70407E-02  5556   0.298E-01    0.968E-01
RMM:   4    -0.413346725128E+03    0.15949E-01   -0.31030E-02  5218   0.216E-01    0.523E-01
RMM:   5    -0.413347242001E+03   -0.51687E-03   -0.22882E-02  4760   0.203E-01    0.225E-01
RMM:   6    -0.413345791822E+03    0.14502E-02   -0.12439E-02  4992   0.134E-01    0.126E-01
RMM:   7    -0.413344908776E+03    0.88305E-03   -0.16505E-03  4704   0.598E-02    0.492E-02
RMM:   8    -0.413344906973E+03    0.18034E-05   -0.51723E-04  5809   0.263E-02    0.342E-02
RMM:   9    -0.413344899654E+03    0.73182E-05   -0.16529E-04  4773   0.167E-02    0.139E-02
RMM:  10    -0.413344901676E+03   -0.20214E-05   -0.42591E-05  5339   0.811E-03    0.811E-03
RMM:  11    -0.413344904026E+03   -0.23506E-05   -0.10866E-05  3934   0.438E-03    0.443E-03
RMM:  12    -0.413344906845E+03   -0.28183E-05   -0.32568E-06  2812   0.277E-03    0.263E-03
RMM:  13    -0.413344907961E+03   -0.11165E-05   -0.13654E-06  2582   0.180E-03    0.111E-03
RMM:  14    -0.413344908106E+03   -0.14444E-06   -0.81887E-07  2415   0.133E-03
  146 T=   100. E= -.41285332E+03 F= -.41334491E+03 E0= -.41332275E+03  EK= 0.49159E+00 SP= 0.00E+00 SK= 0.00E+00
       N       E                     dE             d eps       ncg     rms          rms(c)
RMM:   1    -0.413649432110E+03   -0.30452E+00   -0.14511E+01  4290   0.675E+00    0.179E+00
RMM:   2    -0.413622959595E+03    0.26473E-01   -0.50649E-01  5383   0.855E-01    0.167E+00
RMM:   3    -0.413646940290E+03   -0.23981E-01   -0.18246E-01  5457   0.461E-01    0.171E+00
RMM:   4    -0.413580870188E+03    0.66070E-01   -0.12140E-01  5173   0.414E-01    0.712E-01
RMM:   5    -0.413573849460E+03    0.70207E-02   -0.60610E-02  4852   0.324E-01    0.258E-01
RMM:   6    -0.413570868709E+03    0.29808E-02   -0.17772E-02  5142   0.165E-01    0.145E-01
RMM:   7    -0.413569864471E+03    0.10042E-02   -0.19148E-03  4557   0.664E-02    0.631E-02
RMM:   8    -0.413569819627E+03    0.44844E-04   -0.65960E-04  5490   0.325E-02    0.375E-02
RMM:   9    -0.413569827023E+03   -0.73951E-05   -0.27968E-04  5343   0.209E-02    0.210E-02
RMM:  10    -0.413569824371E+03    0.26514E-05   -0.58151E-05  5552   0.954E-03    0.116E-02
RMM:  11    -0.413569825994E+03   -0.16225E-05   -0.30277E-05  5230   0.654E-03    0.556E-03
RMM:  12    -0.413569829085E+03   -0.30916E-05   -0.62117E-06  3173   0.341E-03    0.372E-03
RMM:  13    -0.413569830405E+03   -0.13201E-05   -0.19148E-06  2626   0.231E-03    0.169E-03
RMM:  14    -0.413569831120E+03   -0.71492E-06   -0.95296E-07  2499   0.158E-03
  147 T=   138. E= -.41289308E+03 F= -.41356983E+03 E0= -.41354738E+03  EK= 0.67675E+00 SP= 0.00E+00 SK= 0.00E+00
       N       E                     dE             d eps       ncg     rms          rms(c)
RMM:   1    -0.413830601268E+03   -0.26077E+00   -0.19407E+01  4296   0.768E+00    0.188E+00
RMM:   2    -0.413678295060E+03    0.15231E+00   -0.59170E-01  5397   0.937E-01    0.171E+00
RMM:   3    -0.413744594856E+03   -0.66300E-01   -0.20499E-01  5542   0.483E-01    0.189E+00
RMM:   4    -0.413653869125E+03    0.90726E-01   -0.12975E-01  5165   0.422E-01    0.808E-01
RMM:   5    -0.413645773794E+03    0.80953E-02   -0.66609E-02  4768   0.343E-01    0.258E-01
RMM:   6    -0.413643275341E+03    0.24985E-02   -0.18726E-02  5164   0.170E-01    0.155E-01
RMM:   7    -0.413641961167E+03    0.13142E-02   -0.26209E-03  4670   0.734E-02    0.713E-02
RMM:   8    -0.413641901716E+03    0.59452E-04   -0.87439E-04  5612   0.361E-02    0.470E-02
RMM:   9    -0.413641897065E+03    0.46504E-05   -0.36740E-04  4844   0.248E-02    0.220E-02
RMM:  10    -0.413641898253E+03   -0.11880E-05   -0.89092E-05  5743   0.115E-02    0.129E-02
RMM:  11    -0.413641899521E+03   -0.12678E-05   -0.34431E-05  5225   0.704E-03    0.686E-03
RMM:  12    -0.413641903323E+03   -0.38019E-05   -0.92096E-06  3696   0.412E-03    0.455E-03
RMM:  13    -0.413641905075E+03   -0.17518E-05   -0.27593E-06  2750   0.265E-03    0.181E-03
RMM:  14    -0.413641906487E+03   -0.14120E-05   -0.12393E-06  2533   0.179E-03    0.963E-04
RMM:  15    -0.413641907150E+03   -0.66361E-06   -0.75379E-07  2393   0.134E-03
  148 T=   155. E= -.41288050E+03 F= -.41364191E+03 E0= -.41361952E+03  EK= 0.76141E+00 SP= 0.00E+00 SK= 0.00E+00
       N       E                     dE             d eps       ncg     rms          rms(c)
RMM:   1    -0.413740567996E+03   -0.98662E-01   -0.17797E+01  4298   0.763E+00    0.107E+00
RMM:   2    -0.413611635964E+03    0.12893E+00   -0.44173E-01  5403   0.800E-01    0.101E+00
RMM:   3    -0.413628708284E+03   -0.17072E-01   -0.99462E-02  5741   0.339E-01    0.110E+00
RMM:   4    -0.413596850639E+03    0.31858E-01   -0.36042E-02  5120   0.229E-01    0.554E-01
RMM:   5    -0.413596425500E+03    0.42514E-03   -0.35669E-02  4707   0.244E-01    0.262E-01
RMM:   6    -0.413594676777E+03    0.17487E-02   -0.15593E-02  5034   0.153E-01    0.146E-01
RMM:   7    -0.413593689959E+03    0.98682E-03   -0.22704E-03  5025   0.675E-02    0.855E-02
RMM:   8    -0.413593567847E+03    0.12211E-03   -0.75980E-04  5453   0.339E-02    0.496E-02
RMM:   9    -0.413593549243E+03    0.18604E-04   -0.45687E-04  4534   0.269E-02    0.168E-02
RMM:  10    -0.413593559484E+03   -0.10241E-04   -0.91750E-05  5708   0.113E-02    0.116E-02
RMM:  11    -0.413593564329E+03   -0.48450E-05   -0.23220E-05  4548   0.638E-03    0.592E-03
RMM:  12    -0.413593572176E+03   -0.78478E-05   -0.71964E-06  3294   0.389E-03    0.369E-03
RMM:  13    -0.413593576146E+03   -0.39691E-05   -0.26970E-06  2771   0.239E-03    0.162E-03
RMM:  14    -0.413593579466E+03   -0.33205E-05   -0.15929E-06  2599   0.182E-03    0.855E-04
RMM:  15    -0.413593581378E+03   -0.19119E-05   -0.10036E-06  2339   0.135E-03    0.620E-04
RMM:  16    -0.413593582555E+03   -0.11773E-05   -0.85297E-07  2223   0.119E-03    0.323E-04
RMM:  17    -0.413593582866E+03   -0.31056E-06   -0.54842E-07  1802   0.936E-04
  149 T=   147. E= -.41287178E+03 F= -.41359358E+03 E0= -.41357135E+03  EK= 0.72180E+00 SP= 0.00E+00 SK= 0.00E+00
       N       E                     dE             d eps       ncg     rms          rms(c)
RMM:   1    -0.413609174682E+03   -0.15592E-01   -0.15162E+01  4300   0.736E+00    0.851E-01
RMM:   2    -0.413545562007E+03    0.63613E-01   -0.35068E-01  5373   0.695E-01    0.773E-01
RMM:   3    -0.413558005364E+03   -0.12443E-01   -0.70608E-02  5716   0.281E-01    0.877E-01
RMM:   4    -0.413536227615E+03    0.21778E-01   -0.22211E-02  5069   0.181E-01    0.425E-01
RMM:   5    -0.413537050099E+03   -0.82248E-03   -0.27595E-02  4932   0.205E-01    0.257E-01
RMM:   6    -0.413535245124E+03    0.18050E-02   -0.13115E-02  5080   0.139E-01    0.132E-01
RMM:   7    -0.413534645573E+03    0.59955E-03   -0.20149E-03  5397   0.609E-02    0.863E-02
RMM:   8    -0.413534496312E+03    0.14926E-03   -0.78309E-04  4908   0.346E-02    0.367E-02
RMM:   9    -0.413534530361E+03   -0.34049E-04   -0.39521E-04  5091   0.229E-02    0.188E-02
RMM:  10    -0.413534533582E+03   -0.32217E-05   -0.55696E-05  5272   0.923E-03    0.107E-02
RMM:  11    -0.413534541713E+03   -0.81305E-05   -0.22936E-05  4432   0.617E-03    0.533E-03
RMM:  12    -0.413534552333E+03   -0.10620E-04   -0.66593E-06  3143   0.367E-03    0.266E-03
RMM:  13    -0.413534558422E+03   -0.60885E-05   -0.27310E-06  2759   0.221E-03    0.142E-03
RMM:  14    -0.413534563677E+03   -0.52551E-05   -0.22545E-06  2685   0.199E-03    0.761E-04
RMM:  15    -0.413534567313E+03   -0.36367E-05   -0.17421E-06  2455   0.161E-03    0.478E-04
RMM:  16    -0.413534568720E+03   -0.14068E-05   -0.11210E-06  2200   0.123E-03    0.330E-04
RMM:  17    -0.413534569058E+03   -0.33735E-06   -0.83778E-07  2131   0.111E-03
  150 T=   135. E= -.41287024E+03 F= -.41353457E+03 E0= -.41351254E+03  EK= 0.66433E+00 SP= 0.00E+00 SK= 0.00E+00
