       N       E                     dE             d eps       ncg     rms          rms(c)
RMM:   1     0.220125932106E+04    0.22013E+04   -0.52438E+04  2132   0.654E+02
RMM:   2     0.705405574319E+03   -0.14959E+04   -0.16260E+04  2132   0.177E+02
RMM:   3     0.137325602628E+03   -0.56808E+03   -0.65708E+03  2132   0.117E+02
RMM:   4    -0.159208187306E+03   -0.29653E+03   -0.27851E+03  2132   0.936E+01
RMM:   5    -0.287496001681E+03   -0.12829E+03   -0.11450E+03  2132   0.595E+01
RMM:   6    -0.349820614414E+03   -0.62325E+02   -0.55126E+02  2132   0.423E+01
RMM:   7    -0.382771114529E+03   -0.32951E+02   -0.30437E+02  2132   0.293E+01
RMM:   8    -0.404253441890E+03   -0.21482E+02   -0.18433E+02  2132   0.233E+01
RMM:   9    -0.435964951818E+03   -0.31712E+02   -0.30666E+02  6096   0.173E+01
RMM:  10    -0.441299384284E+03   -0.53344E+01   -0.63137E+01  6399   0.539E+00
RMM:  11    -0.442512515452E+03   -0.12131E+01   -0.10974E+01  6215   0.172E+00
RMM:  12    -0.442889853651E+03   -0.37734E+00   -0.27075E+00  6365   0.602E-01    0.134E+02
RMM:  13    -0.425609000111E+03    0.17281E+02   -0.80861E+01  4669   0.119E+01    0.712E+01
RMM:  14    -0.499569564285E+03   -0.73961E+02   -0.53981E+02  5407   0.232E+01    0.307E+01
RMM:  15    -0.416360154535E+03    0.83209E+02   -0.19979E+02  5098   0.164E+01    0.733E+00
RMM:  16    -0.414025647173E+03    0.23345E+01   -0.40018E+01  6089   0.613E+00    0.430E+00
RMM:  17    -0.413207055081E+03    0.81859E+00   -0.25986E+00  5390   0.190E+00    0.243E+00
RMM:  18    -0.413175034212E+03    0.32021E-01   -0.78166E-01  5990   0.900E-01    0.168E+00
RMM:  19    -0.413172376481E+03    0.26577E-02   -0.25591E-01  5660   0.548E-01    0.902E-01
RMM:  20    -0.413194680321E+03   -0.22304E-01   -0.32819E-01  5560   0.593E-01    0.689E-01
RMM:  21    -0.413169171864E+03    0.25508E-01   -0.36526E-02  4962   0.254E-01    0.323E-01
RMM:  22    -0.413165062824E+03    0.41090E-02   -0.26725E-02  5848   0.159E-01    0.138E-01
RMM:  23    -0.413164286474E+03    0.77635E-03   -0.63998E-03  6084   0.712E-02    0.857E-02
RMM:  24    -0.413163245400E+03    0.10411E-02   -0.17313E-03  5306   0.426E-02    0.522E-02
RMM:  25    -0.413162710219E+03    0.53518E-03   -0.80010E-04  4987   0.275E-02    0.434E-02
RMM:  26    -0.413162802871E+03   -0.92652E-04   -0.10769E-03  5681   0.344E-02    0.318E-02
RMM:  27    -0.413163221463E+03   -0.41859E-03   -0.20156E-04  4607   0.194E-02    0.189E-02
RMM:  28    -0.413163685742E+03   -0.46428E-03   -0.14847E-04  4878   0.176E-02    0.104E-02
RMM:  29    -0.413164076115E+03   -0.39037E-03   -0.12227E-04  4748   0.156E-02    0.453E-03
RMM:  30    -0.413164307779E+03   -0.23166E-03   -0.74629E-05  4218   0.101E-02    0.361E-03
RMM:  31    -0.413164457410E+03   -0.14963E-03   -0.58537E-05  3320   0.751E-03    0.334E-03
RMM:  32    -0.413164488949E+03   -0.31539E-04   -0.23111E-05  2978   0.323E-03    0.194E-03
RMM:  33    -0.413164502703E+03   -0.13754E-04   -0.91399E-06  2803   0.216E-03    0.775E-04
RMM:  34    -0.413164506275E+03   -0.35721E-05   -0.48776E-06  2592   0.150E-03    0.461E-04
RMM:  35    -0.413164507638E+03   -0.13629E-05   -0.22714E-06  2427   0.132E-03    0.727E-04
RMM:  36    -0.413164507430E+03    0.20806E-06   -0.38319E-06  1789   0.951E-04
    1 T=    61. E= -.41286670E+03 F= -.41316451E+03 E0= -.41314201E+03  EK= 0.29781E+00 SP= 0.00E+00 SK= 0.00E+00
       N       E                     dE             d eps       ncg     rms          rms(c)
RMM:   1    -0.413156548716E+03    0.79589E-02   -0.10709E+01  3991   0.689E-01    0.886E-01
RMM:   2    -0.413166279012E+03   -0.97303E-02   -0.13147E-01  3897   0.982E-02    0.643E-01
RMM:   3    -0.413164300243E+03    0.19788E-02   -0.77872E-03  4672   0.372E-02    0.134E-01
RMM:   4    -0.413179085225E+03   -0.14785E-01   -0.15541E-02  5213   0.103E-01    0.510E-01
RMM:   5    -0.413164074736E+03    0.15010E-01   -0.75258E-03  4857   0.852E-02    0.327E-02
RMM:   6    -0.413164169666E+03   -0.94930E-04   -0.12368E-03  5825   0.337E-02    0.215E-02
RMM:   7    -0.413164179370E+03   -0.97035E-05   -0.19982E-04  5725   0.128E-02    0.134E-02
RMM:   8    -0.413164183481E+03   -0.41114E-05   -0.29442E-05  4513   0.567E-03    0.586E-03
RMM:   9    -0.413164187713E+03   -0.42317E-05   -0.61970E-06  3051   0.282E-03    0.463E-03
RMM:  10    -0.413164192658E+03   -0.49453E-05   -0.12920E-06  2538   0.172E-03    0.302E-03
RMM:  11    -0.413164199713E+03   -0.70544E-05   -0.12372E-06  2525   0.159E-03    0.134E-03
RMM:  12    -0.413164205556E+03   -0.58431E-05   -0.92401E-07  2391   0.131E-03    0.544E-04
RMM:  13    -0.413164206221E+03   -0.66495E-06   -0.36671E-07  1833   0.863E-04
    2 T=    61. E= -.41286642E+03 F= -.41316421E+03 E0= -.41314171E+03  EK= 0.29779E+00 SP= 0.00E+00 SK= 0.00E+00
       N       E                     dE             d eps       ncg     rms          rms(c)
RMM:   1    -0.413157543933E+03    0.66616E-02   -0.10739E+01  4190   0.686E-01    0.909E-01
RMM:   2    -0.413166304947E+03   -0.87610E-02   -0.12909E-01  3882   0.946E-02    0.636E-01
RMM:   3    -0.413164925271E+03    0.13797E-02   -0.80862E-03  4848   0.377E-02    0.151E-01
RMM:   4    -0.413189405404E+03   -0.24480E-01   -0.25043E-02  5185   0.132E-01    0.653E-01
RMM:   5    -0.413164599594E+03    0.24806E-01   -0.12133E-02  4835   0.109E-01    0.394E-02
RMM:   6    -0.413164758136E+03   -0.15854E-03   -0.20149E-03  5810   0.433E-02    0.245E-02
RMM:   7    -0.413164764140E+03   -0.60037E-05   -0.28185E-04  5831   0.149E-02    0.158E-02
RMM:   8    -0.413164762298E+03    0.18424E-05   -0.44633E-05  4910   0.672E-03    0.756E-03
RMM:   9    -0.413164761411E+03    0.88616E-06   -0.92600E-06  3483   0.342E-03
    3 T=    61. E= -.41286669E+03 F= -.41316476E+03 E0= -.41314227E+03  EK= 0.29807E+00 SP= 0.00E+00 SK= 0.00E+00
       N       E                     dE             d eps       ncg     rms          rms(c)
RMM:   1    -0.413156967912E+03    0.77944E-02   -0.10653E+01  4226   0.687E-01    0.893E-01
RMM:   2    -0.413166175736E+03   -0.92078E-02   -0.12817E-01  4306   0.967E-02    0.630E-01
RMM:   3    -0.413171899365E+03   -0.57236E-02   -0.13773E-02  5201   0.857E-02    0.388E-01
RMM:   4    -0.413183019727E+03   -0.11120E-01   -0.34649E-02  5100   0.160E-01    0.568E-01
RMM:   5    -0.413164576930E+03    0.18443E-01   -0.67328E-03  4666   0.953E-02    0.549E-02
RMM:   6    -0.413164517077E+03    0.59853E-04   -0.12486E-03  5357   0.359E-02    0.236E-02
RMM:   7    -0.413164533201E+03   -0.16124E-04   -0.24806E-04  5992   0.152E-02    0.152E-02
RMM:   8    -0.413164533071E+03    0.12948E-06   -0.44794E-05  5225   0.738E-03    0.668E-03
RMM:   9    -0.413164532935E+03    0.13641E-06   -0.10095E-05  3769   0.396E-03    0.362E-03
RMM:  10    -0.413164534064E+03   -0.11295E-05   -0.12512E-06  2527   0.192E-03    0.221E-03
RMM:  11    -0.413164536293E+03   -0.22288E-05   -0.12542E-06  2532   0.176E-03    0.135E-03
RMM:  12    -0.413164537454E+03   -0.11611E-05   -0.55199E-07  2359   0.122E-03    0.455E-04
RMM:  13    -0.413164538364E+03   -0.90957E-06   -0.30951E-07  1653   0.823E-04
    4 T=    61. E= -.41286645E+03 F= -.41316454E+03 E0= -.41314205E+03  EK= 0.29809E+00 SP= 0.00E+00 SK= 0.00E+00
       N       E                     dE             d eps       ncg     rms          rms(c)
RMM:   1    -0.413158631375E+03    0.59061E-02   -0.10719E+01  4235   0.715E-01    0.883E-01
RMM:   2    -0.413166702875E+03   -0.80715E-02   -0.13159E-01  3902   0.939E-02    0.642E-01
RMM:   3    -0.413164984786E+03    0.17181E-02   -0.78786E-03  4916   0.387E-02    0.147E-01
RMM:   4    -0.413194846510E+03   -0.29862E-01   -0.30739E-02  5169   0.146E-01    0.720E-01
RMM:   5    -0.413164491018E+03    0.30355E-01   -0.14748E-02  4817   0.120E-01    0.408E-02
RMM:   6    -0.413164674292E+03   -0.18327E-03   -0.24115E-03  5777   0.474E-02    0.237E-02
RMM:   7    -0.413164689748E+03   -0.15456E-04   -0.31846E-04  5875   0.153E-02    0.159E-02
RMM:   8    -0.413164694265E+03   -0.45169E-05   -0.48450E-05  4968   0.687E-03    0.782E-03
RMM:   9    -0.413164697371E+03   -0.31064E-05   -0.10570E-05  3589   0.360E-03    0.549E-03
RMM:  10    -0.413164701909E+03   -0.45378E-05   -0.17609E-06  2569   0.195E-03    0.358E-03
RMM:  11    -0.413164708126E+03   -0.62171E-05   -0.15975E-06  2569   0.188E-03    0.160E-03
RMM:  12    -0.413164713056E+03   -0.49301E-05   -0.10747E-06  2491   0.154E-03    0.616E-04
RMM:  13    -0.413164713474E+03   -0.41785E-06   -0.33062E-07  2045   0.968E-04
    5 T=    61. E= -.41286651E+03 F= -.41316471E+03 E0= -.41314224E+03  EK= 0.29821E+00 SP= 0.00E+00 SK= 0.00E+00
       N       E                     dE             d eps       ncg     rms          rms(c)
RMM:   1    -0.413157838981E+03    0.68741E-02   -0.10740E+01  4250   0.699E-01    0.905E-01
RMM:   2    -0.413166796822E+03   -0.89578E-02   -0.12929E-01  3982   0.948E-02    0.638E-01
RMM:   3    -0.413165443557E+03    0.13533E-02   -0.79784E-03  4814   0.381E-02    0.149E-01
RMM:   4    -0.413189842515E+03   -0.24399E-01   -0.24863E-02  5158   0.131E-01    0.653E-01
RMM:   5    -0.413165042522E+03    0.24800E-01   -0.12118E-02  4823   0.109E-01    0.388E-02
RMM:   6    -0.413165197970E+03   -0.15545E-03   -0.20015E-03  5800   0.429E-02    0.239E-02
RMM:   7    -0.413165203028E+03   -0.50574E-05   -0.27447E-04  5818   0.147E-02    0.156E-02
RMM:   8    -0.413165200753E+03    0.22752E-05   -0.45176E-05  4890   0.679E-03    0.771E-03
RMM:   9    -0.413165199513E+03    0.12396E-05   -0.92492E-06  3492   0.349E-03    0.569E-03
RMM:  10    -0.413165200176E+03   -0.66291E-06   -0.14419E-06  2545   0.190E-03
    6 T=    61. E= -.41286677E+03 F= -.41316520E+03 E0= -.41314274E+03  EK= 0.29843E+00 SP= 0.00E+00 SK= 0.00E+00
       N       E                     dE             d eps       ncg     rms          rms(c)
RMM:   1    -0.413157881951E+03    0.73176E-02   -0.10684E+01  4257   0.710E-01    0.900E-01
RMM:   2    -0.413166365081E+03   -0.84831E-02   -0.12825E-01  4151   0.952E-02    0.631E-01
RMM:   3    -0.413166942273E+03   -0.57719E-03   -0.94122E-03  5106   0.562E-02    0.235E-01
RMM:   4    -0.413202977798E+03   -0.36036E-01   -0.45512E-02  5137   0.178E-01    0.806E-01
RMM:   5    -0.413164785020E+03    0.38193E-01   -0.17159E-02  4776   0.134E-01    0.536E-02
RMM:   6    -0.413164918144E+03   -0.13312E-03   -0.27976E-03  5662   0.523E-02    0.240E-02
RMM:   7    -0.413164938665E+03   -0.20521E-04   -0.37799E-04  6012   0.161E-02    0.161E-02
RMM:   8    -0.413164938149E+03    0.51600E-06   -0.58559E-05  5232   0.765E-03    0.767E-03
RMM:   9    -0.413164934856E+03    0.32928E-05   -0.10550E-05  3441   0.358E-03    0.369E-03
RMM:  10    -0.413164934851E+03    0.54824E-08   -0.24393E-06  2594   0.214E-03
    7 T=    61. E= -.41286649E+03 F= -.41316493E+03 E0= -.41314249E+03  EK= 0.29845E+00 SP= 0.00E+00 SK= 0.00E+00
       N       E                     dE             d eps       ncg     rms          rms(c)
RMM:   1    -0.413157717602E+03    0.72173E-02   -0.10680E+01  4266   0.708E-01    0.882E-01
RMM:   2    -0.413167439189E+03   -0.97216E-02   -0.13099E-01  4130   0.950E-02    0.639E-01
RMM:   3    -0.413167117248E+03    0.32194E-03   -0.88975E-03  5095   0.536E-02    0.215E-01
RMM:   4    -0.413209362223E+03   -0.42245E-01   -0.50299E-02  5143   0.187E-01    0.863E-01
RMM:   5    -0.413165279692E+03    0.44083E-01   -0.20243E-02  4790   0.144E-01    0.521E-02
RMM:   6    -0.413165465748E+03   -0.18606E-03   -0.32139E-03  5707   0.562E-02    0.233E-02
RMM:   7    -0.413165492977E+03   -0.27229E-04   -0.42454E-04  6013   0.172E-02    0.170E-02
RMM:   8    -0.413165497800E+03   -0.48231E-05   -0.65754E-05  5235   0.787E-03    0.861E-03
RMM:   9    -0.413165498875E+03   -0.10751E-05   -0.12242E-05  3604   0.382E-03    0.434E-03
RMM:  10    -0.413165502551E+03   -0.36758E-05   -0.27464E-06  2615   0.218E-03    0.290E-03
RMM:  11    -0.413165506285E+03   -0.37343E-05   -0.12051E-06  2521   0.165E-03    0.144E-03
RMM:  12    -0.413165509477E+03   -0.31922E-05   -0.89648E-07  2458   0.138E-03    0.346E-04
RMM:  13    -0.413165510681E+03   -0.12036E-05   -0.41658E-07  2026   0.999E-04    0.268E-04
RMM:  14    -0.413165511186E+03   -0.50513E-06   -0.22783E-07  1510   0.794E-04
    8 T=    61. E= -.41286673E+03 F= -.41316551E+03 E0= -.41314308E+03  EK= 0.29878E+00 SP= 0.00E+00 SK= 0.00E+00
       N       E                     dE             d eps       ncg     rms          rms(c)
RMM:   1    -0.413158162029E+03    0.73487E-02   -0.10739E+01  4280   0.713E-01    0.899E-01
RMM:   2    -0.413167496651E+03   -0.93346E-02   -0.13020E-01  4145   0.986E-02    0.641E-01
RMM:   3    -0.413166031073E+03    0.14656E-02   -0.80725E-03  4898   0.408E-02    0.153E-01
RMM:   4    -0.413196858768E+03   -0.30828E-01   -0.31773E-02  5153   0.148E-01    0.732E-01
RMM:   5    -0.413165472826E+03    0.31386E-01   -0.15298E-02  4808   0.122E-01    0.421E-02
RMM:   6    -0.413165661721E+03   -0.18890E-03   -0.25265E-03  5773   0.481E-02    0.248E-02
RMM:   7    -0.413165670661E+03   -0.89402E-05   -0.33215E-04  5874   0.156E-02    0.165E-02
RMM:   8    -0.413165669971E+03    0.69042E-06   -0.49350E-05  4971   0.698E-03    0.815E-03
RMM:   9    -0.413165668697E+03    0.12741E-05   -0.10922E-05  3619   0.365E-03    0.571E-03
RMM:  10    -0.413165669538E+03   -0.84149E-06   -0.17126E-06  2557   0.197E-03
    9 T=    61. E= -.41286661E+03 F= -.41316567E+03 E0= -.41314326E+03  EK= 0.29906E+00 SP= 0.00E+00 SK= 0.00E+00
       N       E                     dE             d eps       ncg     rms          rms(c)
RMM:   1    -0.413159342891E+03    0.63258E-02   -0.10729E+01  4294   0.728E-01    0.908E-01
RMM:   2    -0.413167185915E+03   -0.78430E-02   -0.13066E-01  4236   0.970E-02    0.633E-01
RMM:   3    -0.413168213502E+03   -0.10276E-02   -0.98935E-03  5097   0.610E-02    0.255E-01
RMM:   4    -0.413201005720E+03   -0.32792E-01   -0.44138E-02  5130   0.176E-01    0.778E-01
RMM:   5    -0.413165623594E+03    0.35382E-01   -0.15623E-02  4757   0.129E-01    0.537E-02
RMM:   6    -0.413165743545E+03   -0.11995E-03   -0.26030E-03  5642   0.504E-02    0.242E-02
RMM:   7    -0.413165760696E+03   -0.17151E-04   -0.35963E-04  6012   0.159E-02    0.161E-02
RMM:   8    -0.413165758793E+03    0.19025E-05   -0.56881E-05  5233   0.768E-03    0.756E-03
RMM:   9    -0.413165753893E+03    0.49003E-05   -0.10050E-05  3399   0.357E-03    0.351E-03
RMM:  10    -0.413165752729E+03    0.11647E-05   -0.22730E-06  2575   0.212E-03    0.243E-03
RMM:  11    -0.413165751095E+03    0.16331E-05   -0.11313E-06  2516   0.164E-03    0.127E-03
RMM:  12    -0.413165749408E+03    0.16874E-05   -0.68345E-07  2423   0.128E-03    0.392E-04
RMM:  13    -0.413165748585E+03    0.82323E-06   -0.33123E-07  1916   0.924E-04
   10 T=    61. E= -.41286642E+03 F= -.41316575E+03 E0= -.41314336E+03  EK= 0.29933E+00 SP= 0.00E+00 SK= 0.00E+00
       N       E                     dE             d eps       ncg     rms          rms(c)
RMM:   1    -0.413159719344E+03    0.60301E-02   -0.10681E+01  4288   0.735E-01    0.883E-01
RMM:   2    -0.413168398672E+03   -0.86793E-02   -0.13011E-01  4195   0.952E-02    0.637E-01
RMM:   3    -0.413166917373E+03    0.14813E-02   -0.78172E-03  4884   0.421E-02    0.152E-01
RMM:   4    -0.413198479295E+03   -0.31562E-01   -0.32635E-02  5149   0.150E-01    0.741E-01
RMM:   5    -0.413166314309E+03    0.32165E-01   -0.15764E-02  4808   0.124E-01    0.416E-02
RMM:   6    -0.413166505078E+03   -0.19077E-03   -0.25148E-03  5775   0.484E-02    0.245E-02
RMM:   7    -0.413166516064E+03   -0.10985E-04   -0.33314E-04  5851   0.157E-02    0.164E-02
RMM:   8    -0.413166516264E+03   -0.20001E-06   -0.52141E-05  4996   0.715E-03    0.831E-03
RMM:   9    -0.413166515443E+03    0.82060E-06   -0.11511E-05  3690   0.377E-03    0.574E-03
RMM:  10    -0.413166516995E+03   -0.15520E-05   -0.18383E-06  2565   0.200E-03    0.372E-03
RMM:  11    -0.413166519241E+03   -0.22461E-05   -0.17390E-06  2566   0.199E-03    0.160E-03
RMM:  12    -0.413166520657E+03   -0.14156E-05   -0.10344E-06  2488   0.156E-03    0.623E-04
RMM:  13    -0.413166520753E+03   -0.96170E-07   -0.33004E-07  2057   0.979E-04
   11 T=    61. E= -.41286672E+03 F= -.41316652E+03 E0= -.41314416E+03  EK= 0.29980E+00 SP= 0.00E+00 SK= 0.00E+00
       N       E                     dE             d eps       ncg     rms          rms(c)
RMM:   1    -0.413158811061E+03    0.77096E-02   -0.10749E+01  4294   0.726E-01    0.895E-01
RMM:   2    -0.413168326722E+03   -0.95157E-02   -0.13155E-01  4209   0.970E-02    0.644E-01
RMM:   3    -0.413166694538E+03    0.16322E-02   -0.79702E-03  4855   0.398E-02    0.147E-01
RMM:   4    -0.413194407706E+03   -0.27713E-01   -0.28481E-02  5149   0.140E-01    0.695E-01
RMM:   5    -0.413166225869E+03    0.28182E-01   -0.13819E-02  4810   0.116E-01    0.397E-02
RMM:   6    -0.413166402653E+03   -0.17678E-03   -0.22771E-03  5805   0.453E-02    0.238E-02
RMM:   7    -0.413166412629E+03   -0.99763E-05   -0.29332E-04  5828   0.150E-02    0.158E-02
RMM:   8    -0.413166412235E+03    0.39372E-06   -0.50062E-05  4953   0.704E-03    0.825E-03
RMM:   9    -0.413166410937E+03    0.12983E-05   -0.10623E-05  3655   0.371E-03    0.586E-03
RMM:  10    -0.413166412208E+03   -0.12705E-05   -0.16381E-06  2554   0.196E-03    0.382E-03
RMM:  11    -0.413166414002E+03   -0.17946E-05   -0.18652E-06  2576   0.207E-03    0.166E-03
RMM:  12    -0.413166414954E+03   -0.95195E-06   -0.99726E-07  2481   0.156E-03
   12 T=    61. E= -.41286645E+03 F= -.41316641E+03 E0= -.41314408E+03  EK= 0.29997E+00 SP= 0.00E+00 SK= 0.00E+00
       N       E                     dE             d eps       ncg     rms          rms(c)
RMM:   1    -0.413159872639E+03    0.65414E-02   -0.10754E+01  4291   0.731E-01    0.913E-01
RMM:   2    -0.413168324815E+03   -0.84522E-02   -0.12886E-01  4208   0.946E-02    0.635E-01
RMM:   3    -0.413167279540E+03    0.10453E-02   -0.82012E-03  4856   0.380E-02    0.154E-01
RMM:   4    -0.413193521762E+03   -0.26242E-01   -0.26877E-02  5149   0.136E-01    0.676E-01
RMM:   5    -0.413166846956E+03    0.26675E-01   -0.13090E-02  4808   0.113E-01    0.404E-02
RMM:   6    -0.413167008175E+03   -0.16122E-03   -0.21789E-03  5801   0.444E-02    0.245E-02
RMM:   7    -0.413167011017E+03   -0.28425E-05   -0.27717E-04  5830   0.150E-02    0.157E-02
RMM:   8    -0.413167005011E+03    0.60057E-05   -0.52603E-05  4962   0.720E-03    0.857E-03
RMM:   9    -0.413166999589E+03    0.54227E-05   -0.10728E-05  3729   0.377E-03    0.623E-03
RMM:  10    -0.413166996889E+03    0.27000E-05   -0.15604E-06  2548   0.199E-03    0.402E-03
RMM:  11    -0.413166993121E+03    0.37675E-05   -0.18214E-06  2567   0.207E-03    0.183E-03
RMM:  12    -0.413166989556E+03    0.35654E-05   -0.10475E-06  2484   0.161E-03    0.654E-04
RMM:  13    -0.413166989176E+03    0.37961E-06   -0.33530E-07  2093   0.987E-04
   13 T=    61. E= -.41286658E+03 F= -.41316699E+03 E0= -.41314469E+03  EK= 0.30040E+00 SP= 0.00E+00 SK= 0.00E+00
       N       E                     dE             d eps       ncg     rms          rms(c)
RMM:   1    -0.413160009596E+03    0.69800E-02   -0.10670E+01  4297   0.730E-01    0.887E-01
RMM:   2    -0.413169415123E+03   -0.94055E-02   -0.12996E-01  4211   0.931E-02    0.635E-01
RMM:   3    -0.413167931652E+03    0.14835E-02   -0.78260E-03  4827   0.388E-02    0.149E-01
RMM:   4    -0.413194210830E+03   -0.26279E-01   -0.26970E-02  5146   0.136E-01    0.677E-01
RMM:   5    -0.413167506548E+03    0.26704E-01   -0.13111E-02  4812   0.112E-01    0.392E-02
RMM:   6    -0.413167668813E+03   -0.16227E-03   -0.21611E-03  5813   0.440E-02    0.238E-02
RMM:   7    -0.413167675816E+03   -0.70028E-05   -0.27578E-04  5824   0.148E-02    0.156E-02
RMM:   8    -0.413167672878E+03    0.29383E-05   -0.50019E-05  4933   0.706E-03    0.817E-03
RMM:   9    -0.413167669948E+03    0.29293E-05   -0.10502E-05  3654   0.372E-03    0.591E-03
RMM:  10    -0.413167669599E+03    0.34924E-06   -0.15712E-06  2548   0.195E-03
   14 T=    61. E= -.41286671E+03 F= -.41316767E+03 E0= -.41314540E+03  EK= 0.30096E+00 SP= 0.00E+00 SK= 0.00E+00
       N       E                     dE             d eps       ncg     rms          rms(c)
RMM:   1    -0.413160334181E+03    0.73358E-02   -0.10761E+01  4301   0.748E-01    0.891E-01
RMM:   2    -0.413169894546E+03   -0.95604E-02   -0.13231E-01  4273   0.985E-02    0.646E-01
RMM:   3    -0.413170060833E+03   -0.16629E-03   -0.96590E-03  5087   0.594E-02    0.243E-01
RMM:   4    -0.413208944502E+03   -0.38884E-01   -0.50020E-02  5123   0.187E-01    0.836E-01
RMM:   5    -0.413167539903E+03    0.41405E-01   -0.18546E-02  4765   0.139E-01    0.536E-02
RMM:   6    -0.413167694176E+03   -0.15427E-03   -0.30286E-03  5668   0.542E-02    0.230E-02
RMM:   7    -0.413167718013E+03   -0.23838E-04   -0.39975E-04  5999   0.166E-02    0.162E-02
RMM:   8    -0.413167720406E+03   -0.23928E-05   -0.61148E-05  5221   0.775E-03    0.790E-03
RMM:   9    -0.413167719181E+03    0.12249E-05   -0.11873E-05  3534   0.373E-03    0.371E-03
RMM:  10    -0.413167720593E+03   -0.14118E-05   -0.26898E-06  2612   0.216E-03    0.256E-03
RMM:  11    -0.413167721871E+03   -0.12782E-05   -0.11180E-06  2511   0.161E-03    0.130E-03
RMM:  12    -0.413167722604E+03   -0.73283E-06   -0.74181E-07  2416   0.128E-03
   15 T=    61. E= -.41286638E+03 F= -.41316772E+03 E0= -.41314549E+03  EK= 0.30134E+00 SP= 0.00E+00 SK= 0.00E+00
       N       E                     dE             d eps       ncg     rms          rms(c)
RMM:   1    -0.413161726860E+03    0.59950E-02   -0.10785E+01  4295   0.741E-01    0.914E-01
RMM:   2    -0.413170316426E+03   -0.85896E-02   -0.12960E-01  4249   0.994E-02    0.639E-01
RMM:   3    -0.413169192885E+03    0.11235E-02   -0.84027E-03  4923   0.421E-02    0.163E-01
RMM:   4    -0.413203671848E+03   -0.34479E-01   -0.35915E-02  5146   0.157E-01    0.773E-01
RMM:   5    -0.413168541301E+03    0.35131E-01   -0.17128E-02  4800   0.129E-01    0.448E-02
RMM:   6    -0.413168746909E+03   -0.20561E-03   -0.28741E-03  5799   0.508E-02    0.268E-02
RMM:   7    -0.413168751060E+03   -0.41510E-05   -0.36251E-04  5834   0.167E-02    0.177E-02
RMM:   8    -0.413168744268E+03    0.67926E-05   -0.59584E-05  5048   0.767E-03    0.939E-03
RMM:   9    -0.413168737609E+03    0.66590E-05   -0.12824E-05  3848   0.400E-03    0.646E-03
RMM:  10    -0.413168733963E+03    0.36460E-05   -0.20503E-06  2578   0.211E-03    0.415E-03
RMM:  11    -0.413168729658E+03    0.43049E-05   -0.17438E-06  2553   0.203E-03    0.190E-03
RMM:  12    -0.413168725185E+03    0.44725E-05   -0.12076E-06  2507   0.172E-03    0.661E-04
RMM:  13    -0.413168724478E+03    0.70725E-06   -0.38071E-07  2200   0.108E-03
   16 T=    61. E= -.41286667E+03 F= -.41316872E+03 E0= -.41314653E+03  EK= 0.30205E+00 SP= 0.00E+00 SK= 0.00E+00
       N       E                     dE             d eps       ncg     rms          rms(c)
RMM:   1    -0.413161915155E+03    0.68100E-02   -0.10702E+01  4296   0.751E-01    0.894E-01
RMM:   2    -0.413170944758E+03   -0.90296E-02   -0.13008E-01  4245   0.968E-02    0.635E-01
RMM:   3    -0.413169411230E+03    0.15335E-02   -0.79509E-03  4872   0.411E-02    0.155E-01
RMM:   4    -0.413199680983E+03   -0.30270E-01   -0.31201E-02  5142   0.146E-01    0.725E-01
RMM:   5    -0.413168924056E+03    0.30757E-01   -0.15067E-02  4803   0.121E-01    0.417E-02
RMM:   6    -0.413169110269E+03   -0.18621E-03   -0.24916E-03  5806   0.473E-02    0.250E-02
RMM:   7    -0.413169116784E+03   -0.65147E-05   -0.31458E-04  5823   0.157E-02    0.165E-02
RMM:   8    -0.413169112316E+03    0.44675E-05   -0.55724E-05  4998   0.741E-03    0.885E-03
RMM:   9    -0.413169107251E+03    0.50651E-05   -0.11785E-05  3797   0.390E-03    0.622E-03
RMM:  10    -0.413169105046E+03    0.22047E-05   -0.17892E-06  2556   0.204E-03    0.403E-03
RMM:  11    -0.413169101895E+03    0.31516E-05   -0.19457E-06  2575   0.213E-03    0.177E-03
RMM:  12    -0.413169098985E+03    0.29093E-05   -0.10386E-06  2489   0.164E-03    0.657E-04
RMM:  13    -0.413169098651E+03    0.33453E-06   -0.33622E-07  2119   0.999E-04
   17 T=    62. E= -.41286651E+03 F= -.41316910E+03 E0= -.41314694E+03  EK= 0.30259E+00 SP= 0.00E+00 SK= 0.00E+00
       N       E                     dE             d eps       ncg     rms          rms(c)
RMM:   1    -0.413161976648E+03    0.71223E-02   -0.10772E+01  4296   0.757E-01    0.889E-01
RMM:   2    -0.413171814372E+03   -0.98377E-02   -0.13276E-01  4252   0.996E-02    0.647E-01
RMM:   3    -0.413169998653E+03    0.18157E-02   -0.80739E-03  4854   0.420E-02    0.149E-01
RMM:   4    -0.413200833147E+03   -0.30834E-01   -0.31951E-02  5145   0.148E-01    0.732E-01
RMM:   5    -0.413169413113E+03    0.31420E-01   -0.15364E-02  4796   0.122E-01    0.414E-02
RMM:   6    -0.413169606627E+03   -0.19351E-03   -0.25572E-03  5807   0.477E-02    0.245E-02
RMM:   7    -0.413169617037E+03   -0.10411E-04   -0.31659E-04  5845   0.156E-02    0.163E-02
RMM:   8    -0.413169616002E+03    0.10358E-05   -0.55789E-05  5005   0.737E-03    0.876E-03
RMM:   9    -0.413169613329E+03    0.26728E-05   -0.12257E-05  3845   0.396E-03    0.609E-03
RMM:  10    -0.413169613619E+03   -0.29046E-06   -0.18776E-06  2563   0.205E-03
   18 T=    62. E= -.41286646E+03 F= -.41316961E+03 E0= -.41314749E+03  EK= 0.30316E+00 SP= 0.00E+00 SK= 0.00E+00
       N       E                     dE             d eps       ncg     rms          rms(c)
RMM:   1    -0.413163731870E+03    0.58815E-02   -0.10813E+01  4304   0.757E-01    0.913E-01
RMM:   2    -0.413172475648E+03   -0.87438E-02   -0.13096E-01  4296   0.979E-02    0.642E-01
RMM:   3    -0.413174090398E+03   -0.16147E-02   -0.10687E-02  5101   0.659E-02    0.279E-01
RMM:   4    -0.413204001731E+03   -0.29911E-01   -0.44105E-02  5107   0.176E-01    0.754E-01
RMM:   5    -0.413170738484E+03    0.33263E-01   -0.14336E-02  4734   0.125E-01    0.532E-02
RMM:   6    -0.413170840843E+03   -0.10236E-03   -0.24309E-03  5627   0.482E-02    0.244E-02
RMM:   7    -0.413170852993E+03   -0.12150E-04   -0.33344E-04  5993   0.155E-02    0.160E-02
RMM:   8    -0.413170848769E+03    0.42236E-05   -0.55834E-05  5198   0.767E-03    0.749E-03
RMM:   9    -0.413170841768E+03    0.70014E-05   -0.99456E-06  3393   0.359E-03    0.339E-03
RMM:  10    -0.413170839144E+03    0.26240E-05   -0.21872E-06  2568   0.209E-03    0.232E-03
RMM:  11    -0.413170835221E+03    0.39228E-05   -0.11108E-06  2516   0.165E-03    0.126E-03
RMM:  12    -0.413170831742E+03    0.34787E-05   -0.59815E-07  2385   0.125E-03    0.416E-04
RMM:  13    -0.413170829932E+03    0.18098E-05   -0.29478E-07  1890   0.902E-04    0.236E-04
RMM:  14    -0.413170828274E+03    0.16583E-05   -0.18271E-07  1452   0.757E-04    0.160E-04
RMM:  15    -0.413170825286E+03    0.29875E-05   -0.18842E-07  1494   0.748E-04    0.967E-05
RMM:  16    -0.413170823580E+03    0.17066E-05   -0.11527E-07  1302   0.660E-04    0.819E-05
RMM:  17    -0.413170820578E+03    0.30019E-05   -0.12975E-07  1452   0.671E-04    0.452E-05
RMM:  18    -0.413170819438E+03    0.11399E-05   -0.59950E-08   976   0.555E-04    0.323E-05
RMM:  19    -0.413170819007E+03    0.43163E-06   -0.30102E-08   801   0.523E-04
   19 T=    62. E= -.41286683E+03 F= -.41317082E+03 E0= -.41314874E+03  EK= 0.30399E+00 SP= 0.00E+00 SK= 0.00E+00
       N       E                     dE             d eps       ncg     rms          rms(c)
RMM:   1    -0.413163983054E+03    0.68364E-02   -0.10748E+01  4296   0.753E-01    0.902E-01
RMM:   2    -0.413172841170E+03   -0.88581E-02   -0.13013E-01  4249   0.976E-02    0.636E-01
RMM:   3    -0.413171856951E+03    0.98422E-03   -0.83028E-03  4955   0.431E-02    0.170E-01
RMM:   4    -0.413210506859E+03   -0.38650E-01   -0.41109E-02  5144   0.168E-01    0.817E-01
RMM:   5    -0.413171039471E+03    0.39467E-01   -0.19188E-02  4791   0.137E-01    0.474E-02
RMM:   6    -0.413171260199E+03   -0.22073E-03   -0.32080E-03  5762   0.539E-02    0.273E-02
RMM:   7    -0.413171265287E+03   -0.50886E-05   -0.40694E-04  5824   0.173E-02    0.184E-02
RMM:   8    -0.413171258731E+03    0.65567E-05   -0.64218E-05  5123   0.789E-03    0.954E-03
RMM:   9    -0.413171251678E+03    0.70526E-05   -0.14224E-05  3966   0.412E-03    0.630E-03
RMM:  10    -0.413171247961E+03    0.37167E-05   -0.22614E-06  2587   0.216E-03    0.407E-03
RMM:  11    -0.413171244038E+03    0.39232E-05   -0.14883E-06  2519   0.191E-03    0.195E-03
RMM:  12    -0.413171239706E+03    0.43321E-05   -0.11510E-06  2506   0.171E-03    0.595E-04
RMM:  13    -0.413171238757E+03    0.94921E-06   -0.40038E-07  2232   0.111E-03
   20 T=    62. E= -.41286657E+03 F= -.41317124E+03 E0= -.41314920E+03  EK= 0.30467E+00 SP= 0.00E+00 SK= 0.00E+00
       N       E                     dE             d eps       ncg     rms          rms(c)
RMM:   1    -0.413168022080E+03    0.32176E-02   -0.10820E+01  4298   0.798E-01    0.888E-01
RMM:   2    -0.413174544527E+03   -0.65224E-02   -0.13966E-01  4259   0.101E-01    0.648E-01
RMM:   3    -0.413172650838E+03    0.18937E-02   -0.79233E-03  4884   0.406E-02    0.156E-01
RMM:   4    -0.413203704611E+03   -0.31054E-01   -0.32171E-02  5141   0.149E-01    0.733E-01
RMM:   5    -0.413172122593E+03    0.31582E-01   -0.15573E-02  4808   0.122E-01    0.416E-02
RMM:   6    -0.413172307653E+03   -0.18506E-03   -0.25548E-03  5815   0.476E-02    0.246E-02
RMM:   7    -0.413172317776E+03   -0.10123E-04   -0.31365E-04  5844   0.157E-02    0.161E-02
RMM:   8    -0.413172315949E+03    0.18272E-05   -0.58626E-05  5009   0.756E-03    0.900E-03
RMM:   9    -0.413172311873E+03    0.40762E-05   -0.12767E-05  3923   0.405E-03    0.622E-03
RMM:  10    -0.413172311201E+03    0.67186E-06   -0.19102E-06  2567   0.208E-03
   21 T=    62. E= -.41286671E+03 F= -.41317231E+03 E0= -.41315032E+03  EK= 0.30560E+00 SP= 0.00E+00 SK= 0.00E+00
       N       E                     dE             d eps       ncg     rms          rms(c)
RMM:   1    -0.413166164180E+03    0.61477E-02   -0.10848E+01  4300   0.765E-01    0.910E-01
RMM:   2    -0.413175244977E+03   -0.90808E-02   -0.13238E-01  4296   0.995E-02    0.647E-01
RMM:   3    -0.413176400984E+03   -0.11560E-02   -0.10549E-02  5091   0.650E-02    0.272E-01
RMM:   4    -0.413209149423E+03   -0.32748E-01   -0.46524E-02  5109   0.180E-01    0.782E-01
RMM:   5    -0.413173216668E+03    0.35933E-01   -0.15701E-02  4741   0.130E-01    0.531E-02
RMM:   6    -0.413173330573E+03   -0.11391E-03   -0.26244E-03  5650   0.503E-02    0.245E-02
RMM:   7    -0.413173342581E+03   -0.12008E-04   -0.35666E-04  5988   0.162E-02    0.165E-02
RMM:   8    -0.413173338095E+03    0.44852E-05   -0.58820E-05  5197   0.785E-03    0.778E-03
RMM:   9    -0.413173330945E+03    0.71507E-05   -0.10953E-05  3496   0.372E-03    0.359E-03
RMM:  10    -0.413173328255E+03    0.26893E-05   -0.23318E-06  2588   0.213E-03    0.248E-03
RMM:  11    -0.413173324443E+03    0.38125E-05   -0.10680E-06  2509   0.163E-03    0.128E-03
RMM:  12    -0.413173320774E+03    0.36687E-05   -0.61003E-07  2391   0.126E-03    0.370E-04
RMM:  13    -0.413173318944E+03    0.18305E-05   -0.29551E-07  1887   0.907E-04    0.224E-04
RMM:  14    -0.413173316906E+03    0.20376E-05   -0.18818E-07  1454   0.764E-04    0.130E-04
RMM:  15    -0.413173314203E+03    0.27033E-05   -0.16056E-07  1426   0.733E-04    0.880E-05
RMM:  16    -0.413173312519E+03    0.16837E-05   -0.10855E-07  1326   0.665E-04    0.809E-05
RMM:  17    -0.413173309831E+03    0.26877E-05   -0.10620E-07  1386   0.652E-04    0.443E-05
RMM:  18    -0.413173308502E+03    0.13294E-05   -0.55368E-08   989   0.565E-04    0.287E-05
RMM:  19    -0.413173308064E+03    0.43757E-06   -0.28108E-08   809   0.530E-04
   22 T=    62. E= -.41286675E+03 F= -.41317331E+03 E0= -.41315137E+03  EK= 0.30656E+00 SP= 0.00E+00 SK= 0.00E+00
       N       E                     dE             d eps       ncg     rms          rms(c)
RMM:   1    -0.413167045608E+03    0.62629E-02   -0.10825E+01  4295   0.775E-01    0.912E-01
RMM:   2    -0.413175789074E+03   -0.87435E-02   -0.13145E-01  4268   0.105E-01    0.640E-01
RMM:   3    -0.413174481622E+03    0.13075E-02   -0.84961E-03  4878   0.455E-02    0.165E-01
RMM:   4    -0.413209499007E+03   -0.35017E-01   -0.36546E-02  5144   0.158E-01    0.778E-01
RMM:   5    -0.413173830684E+03    0.35668E-01   -0.17603E-02  4797   0.130E-01    0.451E-02
RMM:   6    -0.413174022968E+03   -0.19228E-03   -0.28641E-03  5799   0.512E-02    0.274E-02
RMM:   7    -0.413174024788E+03   -0.18201E-05   -0.36336E-04  5801   0.169E-02    0.178E-02
RMM:   8    -0.413174017256E+03    0.75324E-05   -0.64282E-05  5090   0.794E-03    0.966E-03
RMM:   9    -0.413174008945E+03    0.83108E-05   -0.13762E-05  3993   0.416E-03    0.656E-03
RMM:  10    -0.413174004077E+03    0.48682E-05   -0.20800E-06  2582   0.212E-03    0.424E-03
RMM:  11    -0.413173998396E+03    0.56805E-05   -0.16271E-06  2526   0.201E-03    0.196E-03
RMM:  12    -0.413173992413E+03    0.59834E-05   -0.11654E-06  2492   0.174E-03    0.668E-04
RMM:  13    -0.413173991346E+03    0.10669E-05   -0.39191E-07  2227   0.111E-03    0.471E-04
RMM:  14    -0.413173990941E+03    0.40493E-06   -0.18476E-07  1691   0.783E-04
   23 T=    63. E= -.41286646E+03 F= -.41317399E+03 E0= -.41315210E+03  EK= 0.30753E+00 SP= 0.00E+00 SK= 0.00E+00
       N       E                     dE             d eps       ncg     rms          rms(c)
RMM:   1    -0.413168019830E+03    0.59715E-02   -0.10820E+01  4298   0.779E-01    0.892E-01
RMM:   2    -0.413177906442E+03   -0.98866E-02   -0.13391E-01  4269   0.103E-01    0.647E-01
RMM:   3    -0.413175832152E+03    0.20743E-02   -0.81329E-03  4768   0.430E-02    0.147E-01
RMM:   4    -0.413201833069E+03   -0.26001E-01   -0.26611E-02  5143   0.136E-01    0.672E-01
RMM:   5    -0.413175459297E+03    0.26374E-01   -0.13088E-02  4806   0.112E-01    0.396E-02
RMM:   6    -0.413175607169E+03   -0.14787E-03   -0.21558E-03  5809   0.439E-02    0.244E-02
RMM:   7    -0.413175611574E+03   -0.44049E-05   -0.27551E-04  5776   0.151E-02    0.154E-02
RMM:   8    -0.413175607715E+03    0.38589E-05   -0.53803E-05  4973   0.737E-03    0.846E-03
RMM:   9    -0.413175602786E+03    0.49282E-05   -0.11339E-05  3793   0.388E-03    0.602E-03
RMM:  10    -0.413175601018E+03    0.17687E-05   -0.15765E-06  2543   0.199E-03    0.396E-03
RMM:  11    -0.413175598227E+03    0.27911E-05   -0.18300E-06  2556   0.211E-03    0.172E-03
RMM:  12    -0.413175595765E+03    0.24616E-05   -0.93693E-07  2465   0.158E-03    0.651E-04
RMM:  13    -0.413175595466E+03    0.29896E-06   -0.30876E-07  2055   0.962E-04
   24 T=    63. E= -.41286677E+03 F= -.41317560E+03 E0= -.41315375E+03  EK= 0.30883E+00 SP= 0.00E+00 SK= 0.00E+00
       N       E                     dE             d eps       ncg     rms          rms(c)
RMM:   1    -0.413169394097E+03    0.62017E-02   -0.10909E+01  4296   0.794E-01    0.908E-01
RMM:   2    -0.413178856934E+03   -0.94628E-02   -0.13415E-01  4273   0.105E-01    0.652E-01
RMM:   3    -0.413176838106E+03    0.20188E-02   -0.82821E-03  4701   0.438E-02    0.144E-01
RMM:   4    -0.413197195262E+03   -0.20357E-01   -0.20796E-02  5145   0.120E-01    0.597E-01
RMM:   5    -0.413176499033E+03    0.20696E-01   -0.10264E-02  4808   0.989E-02    0.370E-02
RMM:   6    -0.413176599348E+03   -0.10031E-03   -0.16452E-03  5825   0.382E-02    0.221E-02
RMM:   7    -0.413176600532E+03   -0.11835E-05   -0.17731E-04  5630   0.125E-02    0.104E-02
RMM:   8    -0.413176595126E+03    0.54060E-05   -0.28800E-05  4586   0.537E-03    0.660E-03
RMM:   9    -0.413176591739E+03    0.33863E-05   -0.36867E-06  2735   0.227E-03    0.440E-03
RMM:  10    -0.413176590576E+03    0.11631E-05   -0.10570E-06  2489   0.153E-03    0.335E-03
RMM:  11    -0.413176585480E+03    0.50960E-05   -0.16096E-06  2529   0.208E-03    0.157E-03
RMM:  12    -0.413176583065E+03    0.24151E-05   -0.68873E-07  2390   0.141E-03    0.840E-04
RMM:  13    -0.413176582640E+03    0.42539E-06   -0.24391E-07  1901   0.878E-04
   25 T=    63. E= -.41286666E+03 F= -.41317658E+03 E0= -.41315478E+03  EK= 0.30992E+00 SP= 0.00E+00 SK= 0.00E+00
       N       E                     dE             d eps       ncg     rms          rms(c)
RMM:   1    -0.413175795663E+03    0.78740E-03   -0.10968E+01  4294   0.822E-01    0.922E-01
RMM:   2    -0.413179497477E+03   -0.37018E-02   -0.14166E-01  4271   0.109E-01    0.646E-01
RMM:   3    -0.413178002518E+03    0.14950E-02   -0.83331E-03  4673   0.437E-02    0.162E-01
RMM:   4    -0.413198221729E+03   -0.20219E-01   -0.20567E-02  5144   0.120E-01    0.594E-01
RMM:   5    -0.413177767082E+03    0.20455E-01   -0.10268E-02  4812   0.985E-02    0.383E-02
RMM:   6    -0.413177859304E+03   -0.92222E-04   -0.16063E-03  5822   0.381E-02    0.231E-02
RMM:   7    -0.413177853635E+03    0.56690E-05   -0.18353E-04  5668   0.130E-02    0.113E-02
RMM:   8    -0.413177847112E+03    0.65235E-05   -0.37739E-05  4847   0.618E-03    0.765E-03
RMM:   9    -0.413177840975E+03    0.61371E-05   -0.89683E-06  3603   0.343E-03    0.583E-03
RMM:  10    -0.413177836602E+03    0.43730E-05   -0.13201E-06  2533   0.196E-03    0.377E-03
RMM:  11    -0.413177828816E+03    0.77852E-05   -0.16605E-06  2537   0.204E-03    0.174E-03
RMM:  12    -0.413177821116E+03    0.77005E-05   -0.85544E-07  2443   0.155E-03    0.676E-04
RMM:  13    -0.413177820462E+03    0.65422E-06   -0.27377E-07  2017   0.930E-04
   26 T=    63. E= -.41286660E+03 F= -.41317782E+03 E0= -.41315607E+03  EK= 0.31122E+00 SP= 0.00E+00 SK= 0.00E+00
       N       E                     dE             d eps       ncg     rms          rms(c)
RMM:   1    -0.413172105340E+03    0.57158E-02   -0.10874E+01  4296   0.791E-01    0.898E-01
RMM:   2    -0.413181585305E+03   -0.94800E-02   -0.13420E-01  4272   0.102E-01    0.647E-01
RMM:   3    -0.413179769368E+03    0.18159E-02   -0.82383E-03  4617   0.426E-02    0.142E-01
RMM:   4    -0.413195347969E+03   -0.15579E-01   -0.15947E-02  5147   0.105E-01    0.524E-01
RMM:   5    -0.413179561050E+03    0.15787E-01   -0.79282E-03  4817   0.862E-02    0.349E-02
RMM:   6    -0.413179619730E+03   -0.58679E-04   -0.12442E-03  5836   0.331E-02    0.206E-02
RMM:   7    -0.413179618661E+03    0.10684E-05   -0.14297E-04  5577   0.115E-02    0.958E-03
RMM:   8    -0.413179612024E+03    0.66368E-05   -0.26442E-05  4604   0.526E-03    0.635E-03
RMM:   9    -0.413179610682E+03    0.13427E-05   -0.67329E-06  3254   0.304E-03    0.537E-03
RMM:  10    -0.413179607569E+03    0.31127E-05   -0.10292E-06  2515   0.181E-03    0.342E-03
RMM:  11    -0.413179602802E+03    0.47674E-05   -0.13585E-06  2516   0.186E-03    0.166E-03
RMM:  12    -0.413179598742E+03    0.40593E-05   -0.72147E-07  2397   0.139E-03    0.617E-04
RMM:  13    -0.413179597810E+03    0.93266E-06   -0.22757E-07  1859   0.849E-04
   27 T=    64. E= -.41286675E+03 F= -.41317960E+03 E0= -.41315790E+03  EK= 0.31284E+00 SP= 0.00E+00 SK= 0.00E+00
       N       E                     dE             d eps       ncg     rms          rms(c)
RMM:   1    -0.413184512755E+03   -0.49140E-02   -0.11101E+01  4293   0.876E-01    0.906E-01
RMM:   2    -0.413183013150E+03    0.14996E-02   -0.14891E-01  4273   0.111E-01    0.660E-01
RMM:   3    -0.413180890059E+03    0.21231E-02   -0.81499E-03  4506   0.427E-02    0.153E-01
RMM:   4    -0.413191299342E+03   -0.10409E-01   -0.11004E-02  5144   0.891E-02    0.430E-01
RMM:   5    -0.413180746485E+03    0.10553E-01   -0.52749E-03  4822   0.705E-02    0.326E-02
RMM:   6    -0.413180774421E+03   -0.27936E-04   -0.84973E-04  5850   0.272E-02    0.195E-02
RMM:   7    -0.413180777815E+03   -0.33934E-05   -0.14446E-04  5548   0.118E-02    0.121E-02
RMM:   8    -0.413180766153E+03    0.11662E-04   -0.27791E-05  4628   0.584E-03    0.561E-03
RMM:   9    -0.413180764609E+03    0.15445E-05   -0.51749E-06  3025   0.291E-03    0.451E-03
RMM:  10    -0.413180762249E+03    0.23599E-05   -0.93917E-07  2494   0.175E-03    0.274E-03
RMM:  11    -0.413180759154E+03    0.30948E-05   -0.73157E-07  2471   0.143E-03    0.136E-03
RMM:  12    -0.413180755598E+03    0.35563E-05   -0.53750E-07  2276   0.115E-03    0.489E-04
RMM:  13    -0.413180754603E+03    0.99474E-06   -0.18950E-07  1635   0.784E-04
   28 T=    64. E= -.41286642E+03 F= -.41318075E+03 E0= -.41315911E+03  EK= 0.31434E+00 SP= 0.00E+00 SK= 0.00E+00
       N       E                     dE             d eps       ncg     rms          rms(c)
RMM:   1    -0.413176405928E+03    0.43497E-02   -0.11036E+01  4292   0.822E-01    0.930E-01
RMM:   2    -0.413184609699E+03   -0.82038E-02   -0.13584E-01  4268   0.106E-01    0.652E-01
RMM:   3    -0.413182879147E+03    0.17306E-02   -0.88454E-03  4469   0.443E-02    0.147E-01
RMM:   4    -0.413190886147E+03   -0.80070E-02   -0.84557E-03  5166   0.770E-02    0.376E-01
RMM:   5    -0.413182858008E+03    0.80281E-02   -0.40793E-03  4828   0.619E-02    0.337E-02
RMM:   6    -0.413182874286E+03   -0.16279E-04   -0.72368E-04  5828   0.251E-02    0.214E-02
RMM:   7    -0.413182868112E+03    0.61741E-05   -0.17233E-04  5433   0.129E-02    0.134E-02
RMM:   8    -0.413182853253E+03    0.14859E-04   -0.19517E-05  4278   0.543E-03    0.567E-03
RMM:   9    -0.413182849367E+03    0.38863E-05   -0.37043E-06  2849   0.255E-03    0.423E-03
RMM:  10    -0.413182843672E+03    0.56943E-05   -0.11624E-06  2486   0.182E-03    0.241E-03
RMM:  11    -0.413182836885E+03    0.67877E-05   -0.76680E-07  2457   0.149E-03    0.114E-03
RMM:  12    -0.413182831248E+03    0.56367E-05   -0.41662E-07  2228   0.111E-03    0.495E-04
RMM:  13    -0.413182829000E+03    0.22477E-05   -0.19507E-07  1693   0.790E-04    0.236E-04
RMM:  14    -0.413182825796E+03    0.32040E-05   -0.11616E-07  1287   0.688E-04    0.148E-04
RMM:  15    -0.413182820666E+03    0.51302E-05   -0.10772E-07  1361   0.691E-04    0.979E-05
RMM:  16    -0.413182819435E+03    0.12311E-05   -0.50446E-08   976   0.593E-04    0.738E-05
RMM:  17    -0.413182814877E+03    0.45585E-05   -0.79494E-08  1331   0.646E-04    0.466E-05
RMM:  18    -0.413182813324E+03    0.15520E-05   -0.36975E-08   927   0.549E-04    0.242E-05
RMM:  19    -0.413182812876E+03    0.44866E-06   -0.15377E-08   715   0.513E-04
   29 T=    64. E= -.41286668E+03 F= -.41318281E+03 E0= -.41316121E+03  EK= 0.31613E+00 SP= 0.00E+00 SK= 0.00E+00
       N       E                     dE             d eps       ncg     rms          rms(c)
RMM:   1    -0.413177944236E+03    0.48691E-02   -0.10980E+01  4288   0.824E-01    0.908E-01
RMM:   2    -0.413186792895E+03   -0.88487E-02   -0.13639E-01  4263   0.111E-01    0.650E-01
RMM:   3    -0.413184775490E+03    0.20174E-02   -0.85961E-03  4454   0.467E-02    0.142E-01
RMM:   4    -0.413193215367E+03   -0.84399E-02   -0.89404E-03  5159   0.799E-02    0.388E-01
RMM:   5    -0.413184684924E+03    0.85304E-02   -0.43018E-03  4825   0.638E-02    0.332E-02
RMM:   6    -0.413184707562E+03   -0.22638E-04   -0.74547E-04  5824   0.256E-02    0.215E-02
RMM:   7    -0.413184705661E+03    0.19010E-05   -0.17379E-04  5428   0.129E-02    0.133E-02
RMM:   8    -0.413184692217E+03    0.13445E-04   -0.20942E-05  4357   0.555E-03    0.560E-03
RMM:   9    -0.413184689798E+03    0.24189E-05   -0.38578E-06  2877   0.258E-03    0.420E-03
RMM:  10    -0.413184686239E+03    0.35590E-05   -0.10880E-06  2486   0.177E-03    0.243E-03
RMM:  11    -0.413184681960E+03    0.42790E-05   -0.74402E-07  2453   0.145E-03    0.116E-03
RMM:  12    -0.413184678303E+03    0.36569E-05   -0.42325E-07  2225   0.109E-03    0.495E-04
RMM:  13    -0.413184676868E+03    0.14351E-05   -0.18356E-07  1631   0.774E-04    0.228E-04
RMM:  14    -0.413184674888E+03    0.19801E-05   -0.10631E-07  1194   0.670E-04    0.136E-04
RMM:  15    -0.413184671712E+03    0.31761E-05   -0.91596E-08  1212   0.664E-04    0.787E-05
RMM:  16    -0.413184670822E+03    0.88988E-06   -0.45838E-08   915   0.594E-04
   30 T=    65. E= -.41286673E+03 F= -.41318467E+03 E0= -.41316312E+03  EK= 0.31794E+00 SP= 0.00E+00 SK= 0.00E+00
       N       E                     dE             d eps       ncg     rms          rms(c)
RMM:   1    -0.413193758974E+03   -0.90873E-02   -0.11240E+01  4291   0.952E-01    0.909E-01
RMM:   2    -0.413189111908E+03    0.46471E-02   -0.14984E-01  4271   0.126E-01    0.665E-01
RMM:   3    -0.413186254533E+03    0.28574E-02   -0.85543E-03  4359   0.466E-02    0.146E-01
RMM:   4    -0.413189948664E+03   -0.36941E-02   -0.44843E-03  5138   0.568E-02    0.256E-01
RMM:   5    -0.413186279448E+03    0.36692E-02   -0.18392E-03  4820   0.422E-02    0.305E-02
RMM:   6    -0.413186284721E+03   -0.52736E-05   -0.36977E-04  5736   0.189E-02    0.211E-02
RMM:   7    -0.413186278032E+03    0.66888E-05   -0.14567E-04  5193   0.118E-02    0.113E-02
RMM:   8    -0.413186270663E+03    0.73694E-05   -0.10768E-05  3762   0.439E-03    0.500E-03
RMM:   9    -0.413186269480E+03    0.11825E-05   -0.16883E-06  2565   0.194E-03    0.318E-03
RMM:  10    -0.413186266732E+03    0.27482E-05   -0.10185E-06  2473   0.158E-03    0.157E-03
RMM:  11    -0.413186264675E+03    0.20571E-05   -0.50065E-07  2279   0.115E-03    0.742E-04
RMM:  12    -0.413186262626E+03    0.20490E-05   -0.28181E-07  1905   0.893E-04    0.308E-04
RMM:  13    -0.413186261244E+03    0.13826E-05   -0.13574E-07  1250   0.694E-04    0.186E-04
RMM:  14    -0.413186259546E+03    0.16974E-05   -0.98567E-08  1145   0.653E-04    0.128E-04
RMM:  15    -0.413186257131E+03    0.24148E-05   -0.89429E-08  1175   0.652E-04    0.639E-05
RMM:  16    -0.413186256300E+03    0.83162E-06   -0.45638E-08   922   0.584E-04
   31 T=    65. E= -.41286648E+03 F= -.41318626E+03 E0= -.41316476E+03  EK= 0.31978E+00 SP= 0.00E+00 SK= 0.00E+00
       N       E                     dE             d eps       ncg     rms          rms(c)
RMM:   1    -0.413182118127E+03    0.41390E-02   -0.11156E+01  4292   0.845E-01    0.935E-01
RMM:   2    -0.413190973534E+03   -0.88554E-02   -0.13930E-01  4282   0.122E-01    0.659E-01
RMM:   3    -0.413188931865E+03    0.20417E-02   -0.91350E-03  4253   0.508E-02    0.144E-01
RMM:   4    -0.413190134743E+03   -0.12029E-02   -0.20788E-03  5075   0.383E-02    0.147E-01
RMM:   5    -0.413188952577E+03    0.11822E-02   -0.61627E-04  4790   0.250E-02    0.324E-02
RMM:   6    -0.413188949167E+03    0.34099E-05   -0.23186E-04  5479   0.155E-02    0.236E-02
RMM:   7    -0.413188923813E+03    0.25354E-04   -0.13645E-04  4925   0.114E-02    0.115E-02
RMM:   8    -0.413188919915E+03    0.38980E-05   -0.98244E-06  3477   0.399E-03    0.463E-03
RMM:   9    -0.413188918051E+03    0.18647E-05   -0.15856E-06  2477   0.189E-03    0.256E-03
RMM:  10    -0.413188909792E+03    0.82581E-05   -0.83550E-07  2408   0.146E-03    0.111E-03
RMM:  11    -0.413188905762E+03    0.40300E-05   -0.34440E-07  2004   0.959E-04    0.419E-04
RMM:  12    -0.413188901312E+03    0.44503E-05   -0.20538E-07  1710   0.808E-04    0.220E-04
RMM:  13    -0.413188898324E+03    0.29884E-05   -0.10610E-07  1215   0.671E-04    0.130E-04
RMM:  14    -0.413188893177E+03    0.51472E-05   -0.96198E-08  1256   0.667E-04    0.995E-05
RMM:  15    -0.413188889299E+03    0.38779E-05   -0.69144E-08  1157   0.616E-04    0.774E-05
RMM:  16    -0.413188886467E+03    0.28315E-05   -0.49934E-08  1020   0.574E-04    0.480E-05
RMM:  17    -0.413188884748E+03    0.17190E-05   -0.30774E-08   810   0.533E-04    0.252E-05
RMM:  18    -0.413188884062E+03    0.68636E-06   -0.18029E-08   685   0.510E-04
   32 T=    66. E= -.41286685E+03 F= -.41318888E+03 E0= -.41316743E+03  EK= 0.32203E+00 SP= 0.00E+00 SK= 0.00E+00
       N       E                     dE             d eps       ncg     rms          rms(c)
RMM:   1    -0.413183861880E+03    0.50229E-02   -0.11116E+01  4285   0.858E-01    0.922E-01
RMM:   2    -0.413193189758E+03   -0.93279E-02   -0.14033E-01  4275   0.127E-01    0.656E-01
RMM:   3    -0.413190798394E+03    0.23914E-02   -0.88727E-03  4237   0.457E-02    0.146E-01
RMM:   4    -0.413191937038E+03   -0.11386E-02   -0.19890E-03  5084   0.382E-02    0.140E-01
RMM:   5    -0.413190880724E+03    0.10563E-02   -0.54030E-04  4765   0.238E-02    0.320E-02
RMM:   6    -0.413190874821E+03    0.59026E-05   -0.21469E-04  5497   0.151E-02    0.234E-02
RMM:   7    -0.413190855049E+03    0.19773E-04   -0.13944E-04  4922   0.111E-02    0.121E-02
RMM:   8    -0.413190850178E+03    0.48707E-05   -0.10081E-05  3557   0.410E-03    0.494E-03
RMM:   9    -0.413190848587E+03    0.15907E-05   -0.18218E-06  2449   0.185E-03    0.242E-03
RMM:  10    -0.413190841679E+03    0.69079E-05   -0.75481E-07  2350   0.142E-03    0.112E-03
RMM:  11    -0.413190838137E+03    0.35426E-05   -0.30556E-07  1924   0.924E-04    0.557E-04
RMM:  12    -0.413190833605E+03    0.45314E-05   -0.19731E-07  1579   0.789E-04    0.209E-04
RMM:  13    -0.413190830553E+03    0.30521E-05   -0.88631E-08   975   0.643E-04    0.131E-04
RMM:  14    -0.413190826470E+03    0.40835E-05   -0.75851E-08  1016   0.640E-04    0.106E-04
RMM:  15    -0.413190821706E+03    0.47637E-05   -0.80086E-08  1186   0.642E-04    0.630E-05
RMM:  16    -0.413190819914E+03    0.17921E-05   -0.35635E-08   763   0.545E-04    0.478E-05
RMM:  17    -0.413190818232E+03    0.16823E-05   -0.24936E-08   672   0.524E-04    0.222E-05
RMM:  18    -0.413190817560E+03    0.67124E-06   -0.14560E-08   570   0.505E-04
   33 T=    66. E= -.41286658E+03 F= -.41319082E+03 E0= -.41316942E+03  EK= 0.32424E+00 SP= 0.00E+00 SK= 0.00E+00
       N       E                     dE             d eps       ncg     rms          rms(c)
RMM:   1    -0.413204948464E+03   -0.14130E-01   -0.11404E+01  4296   0.989E-01    0.912E-01
RMM:   2    -0.413195889352E+03    0.90591E-02   -0.16710E-01  4276   0.137E-01    0.672E-01
RMM:   3    -0.413193326809E+03    0.25625E-02   -0.82479E-03  4350   0.490E-02    0.172E-01
RMM:   4    -0.413197339595E+03   -0.40128E-02   -0.50518E-03  5128   0.630E-02    0.267E-01
RMM:   5    -0.413193354969E+03    0.39846E-02   -0.19455E-03  4796   0.441E-02    0.323E-02
RMM:   6    -0.413193348105E+03    0.68649E-05   -0.39124E-04  5716   0.202E-02    0.228E-02
RMM:   7    -0.413193341754E+03    0.63503E-05   -0.15875E-04  5171   0.122E-02    0.115E-02
RMM:   8    -0.413193333928E+03    0.78260E-05   -0.12590E-05  3929   0.465E-03    0.501E-03
RMM:   9    -0.413193332799E+03    0.11290E-05   -0.20613E-06  2615   0.207E-03    0.297E-03
RMM:  10    -0.413193330018E+03    0.27812E-05   -0.93518E-07  2469   0.157E-03    0.152E-03
RMM:  11    -0.413193327311E+03    0.27075E-05   -0.51389E-07  2271   0.116E-03    0.729E-04
RMM:  12    -0.413193324913E+03    0.23980E-05   -0.28377E-07  1850   0.883E-04    0.316E-04
RMM:  13    -0.413193323224E+03    0.16891E-05   -0.14505E-07  1258   0.701E-04    0.174E-04
RMM:  14    -0.413193321504E+03    0.17196E-05   -0.97028E-08  1077   0.651E-04    0.126E-04
RMM:  15    -0.413193318704E+03    0.27997E-05   -0.92678E-08  1140   0.651E-04    0.609E-05
RMM:  16    -0.413193317843E+03    0.86102E-06   -0.43830E-08   863   0.584E-04
   34 T=    67. E= -.41286663E+03 F= -.41319332E+03 E0= -.41317196E+03  EK= 0.32669E+00 SP= 0.00E+00 SK= 0.00E+00
       N       E                     dE             d eps       ncg     rms          rms(c)
RMM:   1    -0.413189377039E+03    0.39417E-02   -0.11306E+01  4299   0.895E-01    0.939E-01
RMM:   2    -0.413198281366E+03   -0.89043E-02   -0.14511E-01  4260   0.130E-01    0.669E-01
RMM:   3    -0.413196029261E+03    0.22521E-02   -0.91424E-03  4376   0.497E-02    0.148E-01
RMM:   4    -0.413199430075E+03   -0.34008E-02   -0.41727E-03  5152   0.544E-02    0.248E-01
RMM:   5    -0.413196024097E+03    0.34060E-02   -0.17320E-03  4817   0.413E-02    0.340E-02
RMM:   6    -0.413196015735E+03    0.83624E-05   -0.38393E-04  5674   0.197E-02    0.247E-02
RMM:   7    -0.413196002010E+03    0.13725E-04   -0.16943E-04  5133   0.123E-02    0.124E-02
RMM:   8    -0.413195994384E+03    0.76264E-05   -0.13696E-05  3943   0.459E-03    0.532E-03
RMM:   9    -0.413195992153E+03    0.22305E-05   -0.20665E-06  2563   0.200E-03    0.294E-03
RMM:  10    -0.413195985851E+03    0.63025E-05   -0.89752E-07  2470   0.155E-03    0.146E-03
RMM:  11    -0.413195981270E+03    0.45808E-05   -0.43830E-07  2228   0.108E-03    0.800E-04
RMM:  12    -0.413195976510E+03    0.47602E-05   -0.26922E-07  1873   0.883E-04    0.288E-04
RMM:  13    -0.413195973544E+03    0.29658E-05   -0.13363E-07  1280   0.700E-04    0.169E-04
RMM:  14    -0.413195969941E+03    0.36033E-05   -0.91757E-08  1108   0.652E-04    0.138E-04
RMM:  15    -0.413195964995E+03    0.49458E-05   -0.84528E-08  1188   0.649E-04    0.654E-05
RMM:  16    -0.413195963296E+03    0.16989E-05   -0.48865E-08   981   0.584E-04    0.554E-05
RMM:  17    -0.413195960191E+03    0.31048E-05   -0.46495E-08  1033   0.587E-04    0.282E-05
RMM:  18    -0.413195958889E+03    0.13027E-05   -0.26476E-08   818   0.538E-04    0.162E-05
RMM:  19    -0.413195958648E+03    0.24082E-06   -0.12188E-08   634   0.512E-04
   35 T=    67. E= -.41286683E+03 F= -.41319596E+03 E0= -.41317465E+03  EK= 0.32913E+00 SP= 0.00E+00 SK= 0.00E+00
       N       E                     dE             d eps       ncg     rms          rms(c)
RMM:   1    -0.413194351120E+03    0.16078E-02   -0.11322E+01  4298   0.954E-01    0.938E-01
RMM:   2    -0.413200009483E+03   -0.56584E-02   -0.14757E-01  4252   0.130E-01    0.664E-01
RMM:   3    -0.413198153391E+03    0.18561E-02   -0.93016E-03  4695   0.517E-02    0.166E-01
RMM:   4    -0.413222546427E+03   -0.24393E-01   -0.24682E-02  5163   0.132E-01    0.653E-01
RMM:   5    -0.413197923959E+03    0.24622E-01   -0.12504E-02  4797   0.109E-01    0.426E-02
RMM:   6    -0.413197951698E+03   -0.27738E-04   -0.19846E-03  5852   0.425E-02    0.266E-02
RMM:   7    -0.413197960149E+03   -0.84512E-05   -0.27585E-04  5698   0.155E-02    0.153E-02
RMM:   8    -0.413197948017E+03    0.12132E-04   -0.54301E-05  4985   0.767E-03    0.860E-03
RMM:   9    -0.413197944129E+03    0.38877E-05   -0.13092E-05  4089   0.430E-03    0.594E-03
RMM:  10    -0.413197937882E+03    0.62472E-05   -0.18128E-06  2575   0.219E-03    0.356E-03
RMM:  11    -0.413197932863E+03    0.50197E-05   -0.10341E-06  2492   0.166E-03    0.206E-03
RMM:  12    -0.413197923309E+03    0.95536E-05   -0.11490E-06  2486   0.178E-03    0.914E-04
RMM:  13    -0.413197919659E+03    0.36497E-05   -0.41890E-07  2244   0.115E-03    0.542E-04
RMM:  14    -0.413197919022E+03    0.63713E-06   -0.18267E-07  1647   0.782E-04
   36 T=    67. E= -.41286650E+03 F= -.41319792E+03 E0= -.41317666E+03  EK= 0.33142E+00 SP= 0.00E+00 SK= 0.00E+00
       N       E                     dE             d eps       ncg     rms          rms(c)
RMM:   1    -0.413208347017E+03   -0.10427E-01   -0.11486E+01  4304   0.105E+00    0.922E-01
RMM:   2    -0.413203846971E+03    0.45000E-02   -0.15790E-01  4251   0.139E-01    0.675E-01
RMM:   3    -0.413201173726E+03    0.26732E-02   -0.90313E-03  4615   0.546E-02    0.162E-01
RMM:   4    -0.413220434785E+03   -0.19261E-01   -0.19661E-02  5159   0.118E-01    0.582E-01
RMM:   5    -0.413200992300E+03    0.19442E-01   -0.98305E-03  4803   0.966E-02    0.406E-02
RMM:   6    -0.413201008375E+03   -0.16075E-04   -0.16371E-03  5844   0.381E-02    0.261E-02
RMM:   7    -0.413201018572E+03   -0.10197E-04   -0.26922E-04  5635   0.150E-02    0.154E-02
RMM:   8    -0.413201005953E+03    0.12619E-04   -0.49268E-05  4973   0.756E-03    0.757E-03
RMM:   9    -0.413201003653E+03    0.23000E-05   -0.96200E-06  3640   0.380E-03    0.499E-03
RMM:  10    -0.413200999699E+03    0.39541E-05   -0.14350E-06  2542   0.198E-03    0.309E-03
RMM:  11    -0.413200995402E+03    0.42972E-05   -0.97085E-07  2494   0.159E-03    0.156E-03
RMM:  12    -0.413200989832E+03    0.55701E-05   -0.80387E-07  2420   0.142E-03    0.655E-04
RMM:  13    -0.413200987708E+03    0.21237E-05   -0.30984E-07  2022   0.960E-04    0.400E-04
RMM:  14    -0.413200986816E+03    0.89241E-06   -0.14535E-07  1385   0.714E-04
   37 T=    68. E= -.41286681E+03 F= -.41320099E+03 E0= -.41317977E+03  EK= 0.33418E+00 SP= 0.00E+00 SK= 0.00E+00
       N       E                     dE             d eps       ncg     rms          rms(c)
RMM:   1    -0.413203104700E+03   -0.21170E-02   -0.11518E+01  4306   0.104E+00    0.942E-01
RMM:   2    -0.413206410968E+03   -0.33063E-02   -0.15317E-01  4254   0.131E-01    0.679E-01
RMM:   3    -0.413203638063E+03    0.27729E-02   -0.95771E-03  4758   0.540E-02    0.169E-01
RMM:   4    -0.413235702912E+03   -0.32065E-01   -0.32633E-02  5148   0.151E-01    0.746E-01
RMM:   5    -0.413203263614E+03    0.32439E-01   -0.16516E-02  4805   0.125E-01    0.457E-02
RMM:   6    -0.413203313918E+03   -0.50304E-04   -0.25492E-03  5842   0.479E-02    0.280E-02
RMM:   7    -0.413203325402E+03   -0.11484E-04   -0.32926E-04  5763   0.166E-02    0.161E-02
RMM:   8    -0.413203315286E+03    0.10115E-04   -0.62664E-05  5046   0.810E-03    0.950E-03
RMM:   9    -0.413203311753E+03    0.35329E-05   -0.17464E-05  4392   0.476E-03    0.615E-03
RMM:  10    -0.413203306151E+03    0.56026E-05   -0.23780E-06  2627   0.235E-03    0.375E-03
RMM:  11    -0.413203301926E+03    0.42251E-05   -0.12197E-06  2500   0.178E-03    0.216E-03
RMM:  12    -0.413203293510E+03    0.84158E-05   -0.12908E-06  2501   0.186E-03    0.934E-04
RMM:  13    -0.413203290103E+03    0.34068E-05   -0.46378E-07  2301   0.122E-03    0.630E-04
RMM:  14    -0.413203289843E+03    0.26046E-06   -0.20138E-07  1762   0.809E-04
   38 T=    69. E= -.41286662E+03 F= -.41320329E+03 E0= -.41318211E+03  EK= 0.33667E+00 SP= 0.00E+00 SK= 0.00E+00
       N       E                     dE             d eps       ncg     rms          rms(c)
RMM:   1    -0.413214013219E+03   -0.10723E-01   -0.11618E+01  4302   0.110E+00    0.955E-01
RMM:   2    -0.413208447373E+03    0.55658E-02   -0.15516E-01  4252   0.125E-01    0.673E-01
RMM:   3    -0.413206472301E+03    0.19751E-02   -0.99790E-03  4945   0.542E-02    0.195E-01
RMM:   4    -0.413252492776E+03   -0.46020E-01   -0.48662E-02  5139   0.183E-01    0.890E-01
RMM:   5    -0.413205657965E+03    0.46835E-01   -0.23414E-02  4791   0.150E-01    0.532E-02
RMM:   6    -0.413205779592E+03   -0.12163E-03   -0.37443E-03  5834   0.574E-02    0.312E-02
RMM:   7    -0.413205791520E+03   -0.11927E-04   -0.41628E-04  5723   0.182E-02    0.168E-02
RMM:   8    -0.413205782974E+03    0.85459E-05   -0.53579E-05  4829   0.699E-03    0.878E-03
RMM:   9    -0.413205774806E+03    0.81679E-05   -0.14180E-05  3851   0.392E-03    0.576E-03
RMM:  10    -0.413205771318E+03    0.34884E-05   -0.36057E-06  2767   0.252E-03    0.397E-03
RMM:  11    -0.413205764274E+03    0.70434E-05   -0.14120E-06  2495   0.201E-03    0.224E-03
RMM:  12    -0.413205752716E+03    0.11558E-04   -0.13005E-06  2491   0.192E-03    0.841E-04
RMM:  13    -0.413205749544E+03    0.31719E-05   -0.45085E-07  2354   0.123E-03    0.635E-04
RMM:  14    -0.413205749247E+03    0.29746E-06   -0.20117E-07  1830   0.819E-04
   39 T=    69. E= -.41286662E+03 F= -.41320575E+03 E0= -.41318461E+03  EK= 0.33913E+00 SP= 0.00E+00 SK= 0.00E+00
       N       E                     dE             d eps       ncg     rms          rms(c)
RMM:   1    -0.413215717315E+03   -0.99678E-02   -0.11602E+01  4308   0.116E+00    0.933E-01
RMM:   2    -0.413211803265E+03    0.39140E-02   -0.15834E-01  4256   0.132E-01    0.679E-01
RMM:   3    -0.413209494379E+03    0.23089E-02   -0.98888E-03  4976   0.562E-02    0.202E-01
RMM:   4    -0.413260167680E+03   -0.50673E-01   -0.54721E-02  5132   0.194E-01    0.933E-01
RMM:   5    -0.413208418045E+03    0.51750E-01   -0.25630E-02  4788   0.157E-01    0.548E-02
RMM:   6    -0.413208565172E+03   -0.14713E-03   -0.40974E-03  5820   0.599E-02    0.310E-02
RMM:   7    -0.413208581432E+03   -0.16260E-04   -0.44964E-04  5763   0.186E-02    0.174E-02
RMM:   8    -0.413208578224E+03    0.32078E-05   -0.70248E-05  5065   0.787E-03    0.100E-02
RMM:   9    -0.413208571466E+03    0.67579E-05   -0.24523E-05  4586   0.510E-03    0.688E-03
RMM:  10    -0.413208567321E+03    0.41451E-05   -0.49939E-06  2916   0.299E-03    0.401E-03
RMM:  11    -0.413208563234E+03    0.40867E-05   -0.18542E-06  2540   0.216E-03    0.239E-03
RMM:  12    -0.413208555537E+03    0.76976E-05   -0.13137E-06  2496   0.193E-03    0.744E-04
RMM:  13    -0.413208552435E+03    0.31021E-05   -0.52390E-07  2367   0.129E-03    0.604E-04
RMM:  14    -0.413208551591E+03    0.84370E-06   -0.22674E-07  1946   0.865E-04
   40 T=    70. E= -.41286691E+03 F= -.41320855E+03 E0= -.41318745E+03  EK= 0.34164E+00 SP= 0.00E+00 SK= 0.00E+00
       N       E                     dE             d eps       ncg     rms          rms(c)
RMM:   1    -0.413236324901E+03   -0.27772E-01   -0.11905E+01  4309   0.127E+00    0.944E-01
RMM:   2    -0.413213667695E+03    0.22657E-01   -0.18493E-01  4265   0.147E-01    0.692E-01
RMM:   3    -0.413212139538E+03    0.15282E-02   -0.10056E-02  5044   0.606E-02    0.261E-01
RMM:   4    -0.413269839111E+03   -0.57700E-01   -0.66306E-02  5129   0.214E-01    0.100E+00
RMM:   5    -0.413210181114E+03    0.59658E-01   -0.29000E-02  4780   0.169E-01    0.608E-02
RMM:   6    -0.413210355209E+03   -0.17410E-03   -0.46693E-03  5808   0.642E-02    0.324E-02
RMM:   7    -0.413210374501E+03   -0.19292E-04   -0.55119E-04  5878   0.204E-02    0.215E-02
RMM:   8    -0.413210374603E+03   -0.10128E-06   -0.12050E-04  5279   0.106E-02    0.134E-02
RMM:   9    -0.413210361195E+03    0.13407E-04   -0.26079E-05  4622   0.592E-03    0.583E-03
RMM:  10    -0.413210356876E+03    0.43192E-05   -0.57308E-06  2956   0.298E-03    0.364E-03
RMM:  11    -0.413210353185E+03    0.36909E-05   -0.15031E-06  2506   0.200E-03    0.211E-03
RMM:  12    -0.413210347188E+03    0.59969E-05   -0.96646E-07  2481   0.167E-03    0.694E-04
RMM:  13    -0.413210343787E+03    0.34018E-05   -0.46869E-07  2322   0.118E-03    0.371E-04
RMM:  14    -0.413210342003E+03    0.17835E-05   -0.23657E-07  1857   0.854E-04    0.263E-04
RMM:  15    -0.413210338669E+03    0.33341E-05   -0.14148E-07  1355   0.713E-04    0.120E-04
RMM:  16    -0.413210336148E+03    0.25206E-05   -0.94278E-08  1166   0.657E-04    0.913E-05
RMM:  17    -0.413210333826E+03    0.23221E-05   -0.70547E-08  1128   0.633E-04    0.665E-05
RMM:  18    -0.413210331181E+03    0.26457E-05   -0.57170E-08  1118   0.621E-04    0.376E-05
RMM:  19    -0.413210329319E+03    0.18613E-05   -0.40739E-08  1032   0.597E-04    0.306E-05
RMM:  20    -0.413210328781E+03    0.53870E-06   -0.20589E-08   799   0.556E-04
   41 T=    70. E= -.41286662E+03 F= -.41321033E+03 E0= -.41318926E+03  EK= 0.34370E+00 SP= 0.00E+00 SK= 0.00E+00
       N       E                     dE             d eps       ncg     rms          rms(c)
RMM:   1    -0.413213765870E+03   -0.34366E-02   -0.11674E+01  4309   0.120E+00    0.968E-01
RMM:   2    -0.413215262475E+03   -0.14966E-02   -0.15852E-01  4282   0.138E-01    0.683E-01
RMM:   3    -0.413216294222E+03   -0.10317E-02   -0.12829E-02  5089   0.740E-02    0.304E-01
RMM:   4    -0.413253100255E+03   -0.36806E-01   -0.52626E-02  5092   0.193E-01    0.831E-01
RMM:   5    -0.413212626857E+03    0.40473E-01   -0.18152E-02  4740   0.139E-01    0.575E-02
RMM:   6    -0.413212697316E+03   -0.70459E-04   -0.31002E-03  5761   0.527E-02    0.317E-02
RMM:   7    -0.413212705554E+03   -0.82381E-05   -0.42045E-04  5803   0.184E-02    0.210E-02
RMM:   8    -0.413212701355E+03    0.41990E-05   -0.10912E-04  5188   0.105E-02    0.117E-02
RMM:   9    -0.413212687311E+03    0.14044E-04   -0.19675E-05  4405   0.544E-03    0.468E-03
RMM:  10    -0.413212682049E+03    0.52616E-05   -0.41320E-06  2812   0.258E-03    0.296E-03
RMM:  11    -0.413212676273E+03    0.57757E-05   -0.11778E-06  2495   0.182E-03    0.159E-03
RMM:  12    -0.413212668532E+03    0.77412E-05   -0.69410E-07  2437   0.145E-03    0.580E-04
RMM:  13    -0.413212664370E+03    0.41624E-05   -0.34069E-07  2088   0.101E-03    0.286E-04
RMM:  14    -0.413212661635E+03    0.27344E-05   -0.18359E-07  1563   0.778E-04    0.179E-04
RMM:  15    -0.413212655938E+03    0.56977E-05   -0.13148E-07  1333   0.716E-04    0.123E-04
RMM:  16    -0.413212653661E+03    0.22764E-05   -0.84530E-08  1171   0.655E-04    0.838E-05
RMM:  17    -0.413212650163E+03    0.34980E-05   -0.70164E-08  1201   0.648E-04    0.587E-05
RMM:  18    -0.413212647334E+03    0.28294E-05   -0.56543E-08  1170   0.615E-04    0.353E-05
RMM:  19    -0.413212645680E+03    0.16538E-05   -0.37124E-08   987   0.571E-04    0.288E-05
RMM:  20    -0.413212645423E+03    0.25714E-06   -0.17653E-08   733   0.533E-04
   42 T=    70. E= -.41286681E+03 F= -.41321265E+03 E0= -.41319160E+03  EK= 0.34584E+00 SP= 0.00E+00 SK= 0.00E+00
       N       E                     dE             d eps       ncg     rms          rms(c)
RMM:   1    -0.413222068815E+03   -0.94231E-02   -0.11672E+01  4310   0.130E+00    0.944E-01
RMM:   2    -0.413217211190E+03    0.48576E-02   -0.16503E-01  4291   0.148E-01    0.683E-01
RMM:   3    -0.413219173747E+03   -0.19626E-02   -0.13358E-02  5093   0.811E-02    0.336E-01
RMM:   4    -0.413252388105E+03   -0.33214E-01   -0.52243E-02  5085   0.193E-01    0.805E-01
RMM:   5    -0.413214480509E+03    0.37908E-01   -0.16586E-02  4720   0.135E-01    0.574E-02
RMM:   6    -0.413214525749E+03   -0.45240E-04   -0.28643E-03  5752   0.508E-02    0.310E-02
RMM:   7    -0.413214530714E+03   -0.49650E-05   -0.39059E-04  5792   0.179E-02    0.209E-02
RMM:   8    -0.413214527314E+03    0.34001E-05   -0.10313E-04  5162   0.103E-02    0.110E-02
RMM:   9    -0.413214515569E+03    0.11745E-04   -0.19075E-05  4364   0.539E-03    0.426E-03
RMM:  10    -0.413214512086E+03    0.34838E-05   -0.37102E-06  2759   0.249E-03    0.266E-03
RMM:  11    -0.413214507656E+03    0.44295E-05   -0.12375E-06  2493   0.181E-03    0.143E-03
RMM:  12    -0.413214502454E+03    0.52025E-05   -0.65097E-07  2428   0.138E-03    0.562E-04
RMM:  13    -0.413214499528E+03    0.29260E-05   -0.32079E-07  1934   0.961E-04    0.260E-04
RMM:  14    -0.413214497067E+03    0.24603E-05   -0.18373E-07  1479   0.768E-04    0.153E-04
RMM:  15    -0.413214492670E+03    0.43975E-05   -0.14119E-07  1314   0.722E-04    0.110E-04
RMM:  16    -0.413214491065E+03    0.16052E-05   -0.87535E-08  1150   0.656E-04    0.794E-05
RMM:  17    -0.413214487845E+03    0.32196E-05   -0.80512E-08  1275   0.657E-04    0.584E-05
RMM:  18    -0.413214485688E+03    0.21572E-05   -0.55552E-08  1099   0.604E-04    0.393E-05
RMM:  19    -0.413214484759E+03    0.92828E-06   -0.31946E-08   869   0.558E-04
   43 T=    71. E= -.41286686E+03 F= -.41321448E+03 E0= -.41319347E+03  EK= 0.34762E+00 SP= 0.00E+00 SK= 0.00E+00
       N       E                     dE             d eps       ncg     rms          rms(c)
RMM:   1    -0.413238078851E+03   -0.23593E-01   -0.11914E+01  4311   0.142E+00    0.945E-01
RMM:   2    -0.413218500946E+03    0.19578E-01   -0.18803E-01  4289   0.168E-01    0.699E-01
RMM:   3    -0.413221205584E+03   -0.27046E-02   -0.13927E-02  5079   0.890E-02    0.378E-01
RMM:   4    -0.413253464675E+03   -0.32259E-01   -0.54531E-02  5067   0.198E-01    0.809E-01
RMM:   5    -0.413215401090E+03    0.38064E-01   -0.16563E-02  4714   0.136E-01    0.598E-02
RMM:   6    -0.413215431673E+03   -0.30583E-04   -0.28239E-03  5709   0.507E-02    0.312E-02
RMM:   7    -0.413215436248E+03   -0.45742E-05   -0.38932E-04  5844   0.179E-02    0.216E-02
RMM:   8    -0.413215433169E+03    0.30789E-05   -0.10120E-04  5182   0.102E-02    0.109E-02
RMM:   9    -0.413215423130E+03    0.10039E-04   -0.20717E-05  4419   0.559E-03    0.415E-03
RMM:  10    -0.413215420750E+03    0.23795E-05   -0.39309E-06  2774   0.248E-03    0.249E-03
RMM:  11    -0.413215417335E+03    0.34152E-05   -0.14983E-06  2527   0.188E-03    0.141E-03
RMM:  12    -0.413215414036E+03    0.32995E-05   -0.63156E-07  2442   0.137E-03    0.618E-04
RMM:  13    -0.413215411773E+03    0.22632E-05   -0.31904E-07  1828   0.935E-04    0.273E-04
RMM:  14    -0.413215409544E+03    0.22284E-05   -0.19757E-07  1449   0.773E-04    0.151E-04
RMM:  15    -0.413215406620E+03    0.29246E-05   -0.15007E-07  1315   0.718E-04    0.922E-05
RMM:  16    -0.413215404840E+03    0.17797E-05   -0.96760E-08  1159   0.663E-04    0.698E-05
RMM:  17    -0.413215402484E+03    0.23561E-05   -0.84181E-08  1253   0.653E-04    0.515E-05
RMM:  18    -0.413215400729E+03    0.17551E-05   -0.55884E-08  1046   0.597E-04    0.382E-05
RMM:  19    -0.413215399807E+03    0.92190E-06   -0.35204E-08   880   0.562E-04
   44 T=    71. E= -.41286661E+03 F= -.41321540E+03 E0= -.41319441E+03  EK= 0.34879E+00 SP= 0.00E+00 SK= 0.00E+00
       N       E                     dE             d eps       ncg     rms          rms(c)
RMM:   1    -0.413228838264E+03   -0.13438E-01   -0.11792E+01  4310   0.146E+00    0.973E-01
RMM:   2    -0.413218897136E+03    0.99411E-02   -0.16893E-01  4323   0.170E-01    0.691E-01
RMM:   3    -0.413226825556E+03   -0.79284E-02   -0.19026E-02  5126   0.109E-01    0.466E-01
RMM:   4    -0.413238023906E+03   -0.11198E-01   -0.42543E-02  5038   0.178E-01    0.618E-01
RMM:   5    -0.413216528191E+03    0.21496E-01   -0.81291E-03  4617   0.105E-01    0.539E-02
RMM:   6    -0.413216504689E+03    0.23501E-04   -0.16295E-03  5553   0.388E-02    0.297E-02
RMM:   7    -0.413216501402E+03    0.32870E-05   -0.25855E-04  5629   0.155E-02    0.201E-02
RMM:   8    -0.413216492331E+03    0.90717E-05   -0.10135E-04  5066   0.104E-02    0.952E-03
RMM:   9    -0.413216478970E+03    0.13361E-04   -0.14907E-05  4213   0.521E-03    0.386E-03
RMM:  10    -0.413216475126E+03    0.38436E-05   -0.24719E-06  2667   0.218E-03    0.224E-03
RMM:  11    -0.413216468410E+03    0.67163E-05   -0.11303E-06  2479   0.173E-03    0.124E-03
RMM:  12    -0.413216462420E+03    0.59903E-05   -0.53892E-07  2399   0.128E-03    0.591E-04
RMM:  13    -0.413216458853E+03    0.35662E-05   -0.24920E-07  1758   0.864E-04    0.288E-04
RMM:  14    -0.413216455354E+03    0.34991E-05   -0.14073E-07  1284   0.701E-04    0.151E-04
RMM:  15    -0.413216450095E+03    0.52596E-05   -0.11918E-07  1269   0.687E-04    0.119E-04
RMM:  16    -0.413216447626E+03    0.24690E-05   -0.73347E-08  1089   0.626E-04    0.100E-04
RMM:  17    -0.413216443625E+03    0.40009E-05   -0.68316E-08  1199   0.632E-04    0.613E-05
RMM:  18    -0.413216440657E+03    0.29683E-05   -0.51343E-08  1099   0.589E-04    0.437E-05
RMM:  19    -0.413216439973E+03    0.68381E-06   -0.25364E-08   806   0.529E-04
   45 T=    71. E= -.41286688E+03 F= -.41321644E+03 E0= -.41319547E+03  EK= 0.34956E+00 SP= 0.00E+00 SK= 0.00E+00
       N       E                     dE             d eps       ncg     rms          rms(c)
RMM:   1    -0.413252153767E+03   -0.35713E-01   -0.11893E+01  4309   0.163E+00    0.954E-01
RMM:   2    -0.413218490055E+03    0.33664E-01   -0.18012E-01  4342   0.185E-01    0.687E-01
RMM:   3    -0.413228595924E+03   -0.10106E-01   -0.20493E-02  5123   0.117E-01    0.514E-01
RMM:   4    -0.413234355307E+03   -0.57594E-02   -0.41461E-02  5020   0.177E-01    0.577E-01
RMM:   5    -0.413216032879E+03    0.18322E-01   -0.69109E-03  4590   0.996E-02    0.538E-02
RMM:   6    -0.413215988716E+03    0.44162E-04   -0.13388E-03  5415   0.358E-02    0.291E-02
RMM:   7    -0.413215983472E+03    0.52449E-05   -0.21609E-04  5619   0.144E-02    0.196E-02
RMM:   8    -0.413215974499E+03    0.89726E-05   -0.10993E-04  5086   0.107E-02    0.982E-03
RMM:   9    -0.413215960597E+03    0.13902E-04   -0.16162E-05  4305   0.546E-03    0.393E-03
RMM:  10    -0.413215957555E+03    0.30421E-05   -0.26860E-06  2688   0.220E-03    0.225E-03
RMM:  11    -0.413215951464E+03    0.60909E-05   -0.12742E-06  2490   0.181E-03    0.126E-03
RMM:  12    -0.413215946901E+03    0.45630E-05   -0.54784E-07  2418   0.131E-03    0.664E-04
RMM:  13    -0.413215943441E+03    0.34598E-05   -0.25381E-07  1750   0.879E-04    0.323E-04
RMM:  14    -0.413215940102E+03    0.33396E-05   -0.13851E-07  1289   0.701E-04    0.166E-04
RMM:  15    -0.413215936013E+03    0.40886E-05   -0.10845E-07  1218   0.672E-04    0.115E-04
RMM:  16    -0.413215933704E+03    0.23091E-05   -0.70662E-08  1096   0.620E-04    0.106E-04
RMM:  17    -0.413215931010E+03    0.26944E-05   -0.56377E-08  1076   0.603E-04    0.584E-05
RMM:  18    -0.413215927701E+03    0.33081E-05   -0.55060E-08  1111   0.598E-04    0.499E-05
RMM:  19    -0.413215927223E+03    0.47852E-06   -0.20645E-08   736   0.523E-04
   46 T=    71. E= -.41286667E+03 F= -.41321593E+03 E0= -.41319497E+03  EK= 0.34926E+00 SP= 0.00E+00 SK= 0.00E+00
       N       E                     dE             d eps       ncg     rms          rms(c)
RMM:   1    -0.413234747514E+03   -0.18820E-01   -0.11716E+01  4310   0.165E+00    0.942E-01
RMM:   2    -0.413217708318E+03    0.17039E-01   -0.18605E-01  4339   0.199E-01    0.700E-01
RMM:   3    -0.413228233623E+03   -0.10525E-01   -0.21127E-02  5120   0.123E-01    0.533E-01
RMM:   4    -0.413234373649E+03   -0.61400E-02   -0.44324E-02  5018   0.184E-01    0.596E-01
RMM:   5    -0.413214654420E+03    0.19719E-01   -0.74484E-03  4590   0.104E-01    0.557E-02
RMM:   6    -0.413214598892E+03    0.55528E-04   -0.14061E-03  5420   0.369E-02    0.294E-02
RMM:   7    -0.413214594484E+03    0.44083E-05   -0.22492E-04  5652   0.146E-02    0.204E-02
RMM:   8    -0.413214585498E+03    0.89856E-05   -0.11188E-04  5122   0.108E-02    0.100E-02
RMM:   9    -0.413214572457E+03    0.13042E-04   -0.17530E-05  4344   0.561E-03    0.397E-03
RMM:  10    -0.413214570314E+03    0.21423E-05   -0.28276E-06  2707   0.224E-03    0.228E-03
RMM:  11    -0.413214566207E+03    0.41069E-05   -0.14032E-06  2506   0.186E-03    0.131E-03
RMM:  12    -0.413214563210E+03    0.29972E-05   -0.58087E-07  2430   0.134E-03    0.689E-04
RMM:  13    -0.413214560620E+03    0.25902E-05   -0.28387E-07  1773   0.915E-04    0.328E-04
RMM:  14    -0.413214558233E+03    0.23872E-05   -0.16121E-07  1355   0.731E-04    0.175E-04
RMM:  15    -0.413214555414E+03    0.28194E-05   -0.12166E-07  1213   0.682E-04    0.106E-04
RMM:  16    -0.413214553556E+03    0.18574E-05   -0.81796E-08  1109   0.632E-04    0.939E-05
RMM:  17    -0.413214551603E+03    0.19535E-05   -0.65826E-08  1126   0.613E-04    0.555E-05
RMM:  18    -0.413214549306E+03    0.22970E-05   -0.58637E-08  1085   0.598E-04    0.397E-05
RMM:  19    -0.413214548878E+03    0.42804E-06   -0.23682E-08   747   0.532E-04
   47 T=    71. E= -.41286659E+03 F= -.41321455E+03 E0= -.41319361E+03  EK= 0.34795E+00 SP= 0.00E+00 SK= 0.00E+00
       N       E                     dE             d eps       ncg     rms          rms(c)
RMM:   1    -0.413249490651E+03   -0.34941E-01   -0.11779E+01  4305   0.181E+00    0.964E-01
RMM:   2    -0.413214762966E+03    0.34728E-01   -0.18915E-01  4394   0.204E-01    0.695E-01
RMM:   3    -0.413232556261E+03   -0.17793E-01   -0.27400E-02  5142   0.143E-01    0.640E-01
RMM:   4    -0.413224036074E+03    0.85202E-02   -0.40177E-02  4983   0.179E-01    0.479E-01
RMM:   5    -0.413212206431E+03    0.11830E-01   -0.48309E-03  4524   0.907E-02    0.557E-02
RMM:   6    -0.413212095979E+03    0.11045E-03   -0.65661E-04  4892   0.293E-02    0.289E-02
RMM:   7    -0.413212084875E+03    0.11104E-04   -0.16805E-04  5920   0.128E-02    0.133E-02
RMM:   8    -0.413212077977E+03    0.68981E-05   -0.76411E-05  5210   0.993E-03    0.118E-02
RMM:   9    -0.413212069250E+03    0.87271E-05   -0.20381E-05  4501   0.540E-03    0.432E-03
RMM:  10    -0.413212065727E+03    0.35231E-05   -0.27909E-06  2615   0.263E-03    0.233E-03
RMM:  11    -0.413212060344E+03    0.53833E-05   -0.19368E-06  2506   0.225E-03    0.148E-03
RMM:  12    -0.413212055744E+03    0.45996E-05   -0.75325E-07  2404   0.158E-03    0.904E-04
RMM:  13    -0.413212052306E+03    0.34384E-05   -0.31261E-07  2160   0.101E-03    0.564E-04
RMM:  14    -0.413212046729E+03    0.55770E-05   -0.21609E-07  1872   0.837E-04    0.411E-04
RMM:  15    -0.413212042771E+03    0.39577E-05   -0.10640E-07  1080   0.622E-04    0.165E-04
RMM:  16    -0.413212041147E+03    0.16240E-05   -0.62868E-08   928   0.574E-04    0.910E-05
RMM:  17    -0.413212037696E+03    0.34515E-05   -0.71255E-08  1061   0.612E-04    0.914E-05
RMM:  18    -0.413212035783E+03    0.19130E-05   -0.40192E-08   907   0.576E-04    0.719E-05
RMM:  19    -0.413212035424E+03    0.35848E-06   -0.18060E-08   663   0.528E-04
   48 T=    70. E= -.41286684E+03 F= -.41321204E+03 E0= -.41319110E+03  EK= 0.34519E+00 SP= 0.00E+00 SK= 0.00E+00
       N       E                     dE             d eps       ncg     rms          rms(c)
RMM:   1    -0.413246698641E+03   -0.34663E-01   -0.11542E+01  4305   0.191E+00    0.952E-01
RMM:   2    -0.413209291703E+03    0.37407E-01   -0.18650E-01  4447   0.215E-01    0.684E-01
RMM:   3    -0.413233394775E+03   -0.24103E-01   -0.32756E-02  5153   0.159E-01    0.721E-01
RMM:   4    -0.413214977650E+03    0.18417E-01   -0.39086E-02  4956   0.179E-01    0.410E-01
RMM:   5    -0.413206853529E+03    0.81241E-02   -0.43674E-03  4587   0.882E-02    0.615E-02
RMM:   6    -0.413206682860E+03    0.17067E-03   -0.46437E-04  4684   0.287E-02    0.316E-02
RMM:   7    -0.413206688546E+03   -0.56868E-05   -0.24633E-04  5763   0.164E-02    0.229E-02
RMM:   8    -0.413206658347E+03    0.30200E-04   -0.86997E-05  5004   0.106E-02    0.874E-03
RMM:   9    -0.413206650275E+03    0.80723E-05   -0.15486E-05  4301   0.507E-03    0.446E-03
RMM:  10    -0.413206645817E+03    0.44573E-05   -0.21135E-06  2583   0.231E-03    0.248E-03
RMM:  11    -0.413206639390E+03    0.64271E-05   -0.11254E-06  2498   0.175E-03    0.165E-03
RMM:  12    -0.413206635771E+03    0.36190E-05   -0.38168E-07  2356   0.113E-03    0.837E-04
RMM:  13    -0.413206630601E+03    0.51703E-05   -0.28874E-07  1912   0.896E-04    0.404E-04
RMM:  14    -0.413206625650E+03    0.49512E-05   -0.20285E-07  1664   0.772E-04    0.357E-04
RMM:  15    -0.413206621303E+03    0.43464E-05   -0.12580E-07  1164   0.650E-04    0.144E-04
RMM:  16    -0.413206618971E+03    0.23325E-05   -0.77885E-08  1090   0.608E-04    0.987E-05
RMM:  17    -0.413206616073E+03    0.28973E-05   -0.67493E-08  1120   0.606E-04    0.815E-05
RMM:  18    -0.413206615001E+03    0.10719E-05   -0.38257E-08   927   0.555E-04    0.658E-05
RMM:  19    -0.413206613119E+03    0.18823E-05   -0.38161E-08   989   0.563E-04    0.314E-05
RMM:  20    -0.413206612567E+03    0.55184E-06   -0.21066E-08   784   0.514E-04
   49 T=    69. E= -.41286651E+03 F= -.41320661E+03 E0= -.41318569E+03  EK= 0.34011E+00 SP= 0.00E+00 SK= 0.00E+00
       N       E                     dE             d eps       ncg     rms          rms(c)
RMM:   1    -0.413224741582E+03   -0.18128E-01   -0.11152E+01  4304   0.194E+00    0.922E-01
RMM:   2    -0.413203040043E+03    0.21702E-01   -0.18404E-01  4454   0.222E-01    0.687E-01
RMM:   3    -0.413226795523E+03   -0.23755E-01   -0.32558E-02  5152   0.161E-01    0.725E-01
RMM:   4    -0.413208625152E+03    0.18170E-01   -0.40256E-02  4957   0.183E-01    0.418E-01
RMM:   5    -0.413199981354E+03    0.86438E-02   -0.47190E-03  4615   0.915E-02    0.641E-02
RMM:   6    -0.413199783256E+03    0.19810E-03   -0.47799E-04  4683   0.298E-02    0.320E-02
RMM:   7    -0.413199787042E+03   -0.37855E-05   -0.25154E-04  5773   0.166E-02    0.228E-02
RMM:   8    -0.413199757861E+03    0.29181E-04   -0.86032E-05  5045   0.104E-02    0.919E-03
RMM:   9    -0.413199751266E+03    0.65952E-05   -0.16843E-05  4434   0.525E-03    0.450E-03
RMM:  10    -0.413199747750E+03    0.35156E-05   -0.23663E-06  2625   0.238E-03    0.255E-03
RMM:  11    -0.413199743197E+03    0.45534E-05   -0.11199E-06  2487   0.176E-03    0.170E-03
RMM:  12    -0.413199740519E+03    0.26780E-05   -0.39266E-07  2374   0.115E-03    0.877E-04
RMM:  13    -0.413199736742E+03    0.37774E-05   -0.32509E-07  2032   0.926E-04    0.440E-04
RMM:  14    -0.413199733364E+03    0.33771E-05   -0.21330E-07  1571   0.769E-04    0.334E-04
RMM:  15    -0.413199730226E+03    0.31387E-05   -0.15075E-07  1206   0.674E-04    0.139E-04
RMM:  16    -0.413199728573E+03    0.16525E-05   -0.92331E-08  1145   0.621E-04    0.959E-05
[...]
RMM:  15    -0.413159436669E+03   -0.31914E-05   -0.47403E-07  1965   0.921E-04    0.126E-04
RMM:  16    -0.413159437906E+03   -0.12373E-05   -0.18008E-07  1231   0.643E-04    0.981E-05
RMM:  17    -0.413159438622E+03   -0.71556E-06   -0.10112E-07  1107   0.600E-04
  139 T=    60. E= -.41286686E+03 F= -.41315944E+03 E0= -.41313878E+03  EK= 0.29258E+00 SP= 0.00E+00 SK= 0.00E+00
       N       E                     dE             d eps       ncg     rms          rms(c)
RMM:   1    -0.413153445682E+03    0.59922E-02   -0.77444E+00  4265   0.869E-01    0.670E-01
RMM:   2    -0.413161148697E+03   -0.77030E-02   -0.87382E-02  4384   0.948E-02    0.488E-01
RMM:   3    -0.413161065269E+03    0.83428E-04   -0.47135E-03  5090   0.467E-02    0.164E-01
RMM:   4    -0.413186953628E+03   -0.25888E-01   -0.29884E-02  5133   0.144E-01    0.679E-01
RMM:   5    -0.413160279889E+03    0.26674E-01   -0.12909E-02  4802   0.114E-01    0.457E-02
RMM:   6    -0.413160257320E+03    0.22569E-04   -0.20407E-03  5689   0.444E-02    0.160E-02
RMM:   7    -0.413160294959E+03   -0.37639E-04   -0.27544E-04  5985   0.144E-02    0.128E-02
RMM:   8    -0.413160315812E+03   -0.20853E-04   -0.42563E-05  4836   0.618E-03    0.707E-03
RMM:   9    -0.413160340902E+03   -0.25090E-04   -0.97136E-06  3055   0.361E-03    0.325E-03
RMM:  10    -0.413160353502E+03   -0.12600E-04   -0.29108E-06  2622   0.219E-03    0.201E-03
RMM:  11    -0.413160369089E+03   -0.15588E-04   -0.25974E-06  2598   0.192E-03    0.128E-03
RMM:  12    -0.413160376569E+03   -0.74797E-05   -0.11899E-06  2351   0.129E-03    0.684E-04
RMM:  13    -0.413160382165E+03   -0.55965E-05   -0.83458E-07  2032   0.108E-03    0.391E-04
RMM:  14    -0.413160386222E+03   -0.40561E-05   -0.62467E-07  1930   0.964E-04    0.278E-04
RMM:  15    -0.413160390567E+03   -0.43451E-05   -0.89759E-07  1987   0.104E-03    0.178E-04
RMM:  16    -0.413160391691E+03   -0.11245E-05   -0.25806E-07  1310   0.683E-04    0.132E-04
RMM:  17    -0.413160392624E+03   -0.93287E-06   -0.18507E-07  1315   0.665E-04
  140 T=    60. E= -.41286663E+03 F= -.41316039E+03 E0= -.41313976E+03  EK= 0.29376E+00 SP= 0.00E+00 SK= 0.00E+00
       N       E                     dE             d eps       ncg     rms          rms(c)
RMM:   1    -0.413153067478E+03    0.73242E-02   -0.73705E+00  4264   0.870E-01    0.685E-01
RMM:   2    -0.413159062428E+03   -0.59949E-02   -0.84404E-02  4388   0.934E-02    0.486E-01
RMM:   3    -0.413158700229E+03    0.36220E-03   -0.56117E-03  5069   0.454E-02    0.148E-01
RMM:   4    -0.413183510400E+03   -0.24810E-01   -0.27707E-02  5139   0.139E-01    0.663E-01
RMM:   5    -0.413158136120E+03    0.25374E-01   -0.12408E-02  4809   0.111E-01    0.469E-02
RMM:   6    -0.413158118261E+03    0.17860E-04   -0.20132E-03  5698   0.439E-02    0.217E-02
RMM:   7    -0.413158148553E+03   -0.30292E-04   -0.28924E-04  5973   0.150E-02    0.156E-02
RMM:   8    -0.413158163506E+03   -0.14953E-04   -0.58210E-05  5115   0.776E-03    0.724E-03
RMM:   9    -0.413158173360E+03   -0.98540E-05   -0.10194E-05  3204   0.362E-03    0.348E-03
RMM:  10    -0.413158179072E+03   -0.57121E-05   -0.24648E-06  2603   0.210E-03    0.227E-03
RMM:  11    -0.413158188193E+03   -0.91204E-05   -0.28781E-06  2606   0.205E-03    0.142E-03
RMM:  12    -0.413158192103E+03   -0.39100E-05   -0.13058E-06  2435   0.141E-03    0.648E-04
RMM:  13    -0.413158194215E+03   -0.21121E-05   -0.69886E-07  2017   0.104E-03    0.409E-04
RMM:  14    -0.413158196100E+03   -0.18855E-05   -0.65803E-07  1861   0.969E-04    0.287E-04
RMM:  15    -0.413158197603E+03   -0.15023E-05   -0.12482E-06  2176   0.115E-03    0.210E-04
RMM:  16    -0.413158197895E+03   -0.29288E-06   -0.31783E-07  1344   0.695E-04
  141 T=    59. E= -.41286688E+03 F= -.41315820E+03 E0= -.41313758E+03  EK= 0.29132E+00 SP= 0.00E+00 SK= 0.00E+00
       N       E                     dE             d eps       ncg     rms          rms(c)
RMM:   1    -0.413152598492E+03    0.55991E-02   -0.68338E+00  4264   0.830E-01    0.667E-01
RMM:   2    -0.413158213613E+03   -0.56151E-02   -0.79705E-02  4375   0.917E-02    0.485E-01
RMM:   3    -0.413157161696E+03    0.10519E-02   -0.69508E-03  5057   0.461E-02    0.130E-01
RMM:   4    -0.413181002402E+03   -0.23841E-01   -0.26710E-02  5135   0.137E-01    0.649E-01
RMM:   5    -0.413156613332E+03    0.24389E-01   -0.11851E-02  4806   0.108E-01    0.469E-02
RMM:   6    -0.413156596808E+03    0.16524E-04   -0.19437E-03  5706   0.430E-02    0.239E-02
RMM:   7    -0.413156626540E+03   -0.29732E-04   -0.29336E-04  5933   0.152E-02    0.163E-02
RMM:   8    -0.413156639716E+03   -0.13177E-04   -0.64520E-05  5128   0.835E-03    0.748E-03
RMM:   9    -0.413156646404E+03   -0.66880E-05   -0.96068E-06  3209   0.358E-03    0.371E-03
RMM:  10    -0.413156651647E+03   -0.52431E-05   -0.21747E-06  2585   0.207E-03    0.246E-03
RMM:  11    -0.413156660212E+03   -0.85645E-05   -0.26584E-06  2584   0.200E-03    0.144E-03
RMM:  12    -0.413156664234E+03   -0.40219E-05   -0.12796E-06  2431   0.142E-03    0.636E-04
RMM:  13    -0.413156666537E+03   -0.23032E-05   -0.68733E-07  2035   0.105E-03    0.438E-04
RMM:  14    -0.413156668790E+03   -0.22534E-05   -0.66947E-07  1841   0.963E-04    0.312E-04
RMM:  15    -0.413156670764E+03   -0.19731E-05   -0.14245E-06  2253   0.118E-03    0.241E-04
RMM:  16    -0.413156671163E+03   -0.39981E-06   -0.36040E-07  1360   0.703E-04
  142 T=    59. E= -.41286671E+03 F= -.41315667E+03 E0= -.41313607E+03  EK= 0.28996E+00 SP= 0.00E+00 SK= 0.00E+00
       N       E                     dE             d eps       ncg     rms          rms(c)
RMM:   1    -0.413156423118E+03    0.24765E-03   -0.63807E+00  4264   0.813E-01    0.663E-01
RMM:   2    -0.413160976997E+03   -0.45539E-02   -0.75666E-02  4385   0.866E-02    0.497E-01
RMM:   3    -0.413159261951E+03    0.17150E-02   -0.10593E-02  5034   0.521E-02    0.128E-01
RMM:   4    -0.413181931263E+03   -0.22669E-01   -0.26436E-02  5129   0.136E-01    0.636E-01
RMM:   5    -0.413158476186E+03    0.23455E-01   -0.11168E-02  4804   0.106E-01    0.467E-02
RMM:   6    -0.413158460286E+03    0.15900E-04   -0.18384E-03  5681   0.421E-02    0.243E-02
RMM:   7    -0.413158492545E+03   -0.32259E-04   -0.29040E-04  5904   0.153E-02    0.162E-02
RMM:   8    -0.413158507485E+03   -0.14940E-04   -0.61265E-05  5116   0.833E-03    0.750E-03
RMM:   9    -0.413158516575E+03   -0.90894E-05   -0.88777E-06  3161   0.354E-03    0.381E-03
RMM:  10    -0.413158523722E+03   -0.71475E-05   -0.20774E-06  2574   0.205E-03    0.252E-03
RMM:  11    -0.413158534645E+03   -0.10923E-04   -0.24548E-06  2566   0.194E-03    0.141E-03
RMM:  12    -0.413158540640E+03   -0.59951E-05   -0.12861E-06  2437   0.142E-03    0.628E-04
RMM:  13    -0.413158544156E+03   -0.35156E-05   -0.66404E-07  2051   0.104E-03    0.453E-04
RMM:  14    -0.413158547478E+03   -0.33220E-05   -0.64667E-07  1899   0.961E-04    0.329E-04
RMM:  15    -0.413158551023E+03   -0.35453E-05   -0.14776E-06  2287   0.119E-03    0.270E-04
RMM:  16    -0.413158551638E+03   -0.61470E-06   -0.35766E-07  1345   0.705E-04
  143 T=    59. E= -.41286676E+03 F= -.41315855E+03 E0= -.41313796E+03  EK= 0.29179E+00 SP= 0.00E+00 SK= 0.00E+00
       N       E                     dE             d eps       ncg     rms          rms(c)
RMM:   1    -0.413157410191E+03    0.11408E-02   -0.58594E+00  4264   0.783E-01    0.681E-01
RMM:   2    -0.413160486504E+03   -0.30763E-02   -0.70083E-02  4390   0.835E-02    0.498E-01
RMM:   3    -0.413158446939E+03    0.20396E-02   -0.14026E-02  5060   0.536E-02    0.137E-01
RMM:   4    -0.413178944389E+03   -0.20497E-01   -0.24735E-02  5126   0.132E-01    0.609E-01
RMM:   5    -0.413157497894E+03    0.21446E-01   -0.10087E-02  4803   0.101E-01    0.460E-02
RMM:   6    -0.413157485416E+03    0.12478E-04   -0.17157E-03  5669   0.408E-02    0.257E-02
RMM:   7    -0.413157512671E+03   -0.27255E-04   -0.28353E-04  5854   0.154E-02    0.171E-02
RMM:   8    -0.413157522630E+03   -0.99597E-05   -0.56735E-05  5108   0.820E-03    0.791E-03
RMM:   9    -0.413157527408E+03   -0.47774E-05   -0.79718E-06  3122   0.341E-03    0.397E-03
RMM:  10    -0.413157532044E+03   -0.46363E-05   -0.20063E-06  2569   0.206E-03    0.257E-03
RMM:  11    -0.413157537766E+03   -0.57220E-05   -0.21960E-06  2541   0.188E-03    0.138E-03
RMM:  12    -0.413157541095E+03   -0.33290E-05   -0.13600E-06  2453   0.145E-03    0.615E-04
RMM:  13    -0.413157543165E+03   -0.20701E-05   -0.68127E-07  2117   0.107E-03    0.447E-04
RMM:  14    -0.413157544848E+03   -0.16825E-05   -0.61279E-07  1981   0.964E-04    0.323E-04
RMM:  15    -0.413157545841E+03   -0.99296E-06   -0.12963E-06  2288   0.118E-03
  144 T=    59. E= -.41286699E+03 F= -.41315755E+03 E0= -.41313697E+03  EK= 0.29056E+00 SP= 0.00E+00 SK= 0.00E+00
       N       E                     dE             d eps       ncg     rms          rms(c)
RMM:   1    -0.413156392639E+03    0.11522E-02   -0.53853E+00  4264   0.759E-01    0.683E-01
RMM:   2    -0.413157975989E+03   -0.15833E-02   -0.65086E-02  4413   0.793E-02    0.496E-01
RMM:   3    -0.413156189660E+03    0.17863E-02   -0.17884E-02  5085   0.585E-02    0.165E-01
RMM:   4    -0.413174054877E+03   -0.17865E-01   -0.23447E-02  5108   0.130E-01    0.578E-01
RMM:   5    -0.413154831428E+03    0.19223E-01   -0.88573E-03  4787   0.965E-02    0.446E-02
RMM:   6    -0.413154813591E+03    0.17838E-04   -0.15258E-03  5638   0.387E-02    0.248E-02
RMM:   7    -0.413154838276E+03   -0.24685E-04   -0.25484E-04  5846   0.148E-02    0.168E-02
RMM:   8    -0.413154845368E+03   -0.70919E-05   -0.50476E-05  5089   0.790E-03    0.764E-03
RMM:   9    -0.413154850119E+03   -0.47512E-05   -0.76090E-06  3087   0.341E-03    0.376E-03
RMM:  10    -0.413154854457E+03   -0.43386E-05   -0.19356E-06  2563   0.202E-03    0.245E-03
RMM:  11    -0.413154859943E+03   -0.54856E-05   -0.23662E-06  2551   0.191E-03    0.135E-03
RMM:  12    -0.413154862660E+03   -0.27172E-05   -0.12539E-06  2423   0.139E-03    0.603E-04
RMM:  13    -0.413154864316E+03   -0.16559E-05   -0.70873E-07  2118   0.107E-03    0.426E-04
RMM:  14    -0.413154865513E+03   -0.11975E-05   -0.61824E-07  2034   0.972E-04    0.306E-04
RMM:  15    -0.413154866037E+03   -0.52397E-06   -0.10627E-06  2244   0.114E-03
  145 T=    59. E= -.41286674E+03 F= -.41315487E+03 E0= -.41313429E+03  EK= 0.28813E+00 SP= 0.00E+00 SK= 0.00E+00
       N       E                     dE             d eps       ncg     rms          rms(c)
RMM:   1    -0.413159283038E+03   -0.44175E-02   -0.51074E+00  4265   0.747E-01    0.674E-01
RMM:   2    -0.413160408047E+03   -0.11250E-02   -0.61514E-02  4432   0.762E-02    0.499E-01
RMM:   3    -0.413158805863E+03    0.16022E-02   -0.23842E-02  5098   0.633E-02    0.213E-01
RMM:   4    -0.413173549591E+03   -0.14744E-01   -0.21682E-02  5094   0.126E-01    0.544E-01
RMM:   5    -0.413156763298E+03    0.16786E-01   -0.78497E-03  4763   0.917E-02    0.415E-02
RMM:   6    -0.413156752759E+03    0.10539E-04   -0.13023E-03  5603   0.357E-02    0.225E-02
RMM:   7    -0.413156789467E+03   -0.36708E-04   -0.21344E-04  5790   0.137E-02    0.152E-02
RMM:   8    -0.413156806450E+03   -0.16983E-04   -0.42732E-05  4989   0.741E-03    0.660E-03
RMM:   9    -0.413156818382E+03   -0.11932E-04   -0.71209E-06  3005   0.331E-03    0.351E-03
RMM:  10    -0.413156827930E+03   -0.95482E-05   -0.18698E-06  2564   0.196E-03    0.234E-03
RMM:  11    -0.413156841120E+03   -0.13189E-04   -0.26800E-06  2588   0.198E-03    0.123E-03
RMM:  12    -0.413156847565E+03   -0.64452E-05   -0.12214E-06  2387   0.135E-03    0.539E-04
RMM:  13    -0.413156851661E+03   -0.40962E-05   -0.70874E-07  2075   0.105E-03    0.375E-04
RMM:  14    -0.413156855184E+03   -0.35228E-05   -0.61444E-07  2002   0.981E-04    0.268E-04
RMM:  15    -0.413156858505E+03   -0.33218E-05   -0.71696E-07  2023   0.101E-03    0.213E-04
RMM:  16    -0.413156859733E+03   -0.12279E-05   -0.22508E-07  1291   0.654E-04    0.122E-04
RMM:  17    -0.413156860829E+03   -0.10954E-05   -0.17376E-07  1246   0.639E-04    0.732E-05
RMM:  18    -0.413156861265E+03   -0.43574E-06   -0.80747E-08   969   0.545E-04
  146 T=    59. E= -.41286699E+03 F= -.41315686E+03 E0= -.41313630E+03  EK= 0.28987E+00 SP= 0.00E+00 SK= 0.00E+00
       N       E                     dE             d eps       ncg     rms          rms(c)
RMM:   1    -0.413160410168E+03   -0.35493E-02   -0.49578E+00  4265   0.740E-01    0.685E-01
RMM:   2    -0.413160680165E+03   -0.27000E-03   -0.59086E-02  4431   0.755E-02    0.502E-01
RMM:   3    -0.413158644533E+03    0.20356E-02   -0.25080E-02  5090   0.600E-02    0.202E-01
RMM:   4    -0.413173422329E+03   -0.14778E-01   -0.20475E-02  5101   0.122E-01    0.539E-01
RMM:   5    -0.413156933201E+03    0.16489E-01   -0.78777E-03  4771   0.909E-02    0.398E-02
RMM:   6    -0.413156927263E+03    0.59382E-05   -0.12877E-03  5640   0.354E-02    0.221E-02
RMM:   7    -0.413156969902E+03   -0.42639E-04   -0.20448E-04  5774   0.134E-02    0.148E-02
RMM:   8    -0.413156992449E+03   -0.22547E-04   -0.39193E-05  4919   0.708E-03    0.646E-03
RMM:   9    -0.413157005688E+03   -0.13240E-04   -0.66283E-06  2982   0.321E-03    0.348E-03
RMM:  10    -0.413157016151E+03   -0.10463E-04   -0.19366E-06  2567   0.198E-03    0.233E-03
RMM:  11    -0.413157029212E+03   -0.13061E-04   -0.26411E-06  2594   0.195E-03    0.116E-03
RMM:  12    -0.413157036265E+03   -0.70533E-05   -0.14476E-06  2437   0.142E-03    0.505E-04
RMM:  13    -0.413157039611E+03   -0.33461E-05   -0.63033E-07  1981   0.101E-03    0.359E-04
RMM:  14    -0.413157042887E+03   -0.32753E-05   -0.56543E-07  2038   0.988E-04    0.235E-04
RMM:  15    -0.413157045693E+03   -0.28064E-05   -0.49016E-07  1779   0.903E-04    0.185E-04
RMM:  16    -0.413157047069E+03   -0.13759E-05   -0.17971E-07  1418   0.671E-04    0.104E-04
RMM:  17    -0.413157048370E+03   -0.13009E-05   -0.12594E-07  1207   0.606E-04    0.566E-05
RMM:  18    -0.413157048918E+03   -0.54836E-06   -0.60287E-08   914   0.520E-04
  147 T=    59. E= -.41286691E+03 F= -.41315705E+03 E0= -.41313649E+03  EK= 0.29014E+00 SP= 0.00E+00 SK= 0.00E+00
       N       E                     dE             d eps       ncg     rms          rms(c)
RMM:   1    -0.413157754375E+03   -0.70601E-03   -0.49346E+00  4266   0.739E-01    0.691E-01
RMM:   2    -0.413157327670E+03    0.42670E-03   -0.58107E-02  4443   0.745E-02    0.498E-01
RMM:   3    -0.413155170742E+03    0.21569E-02   -0.22645E-02  5086   0.544E-02    0.165E-01
RMM:   4    -0.413170810356E+03   -0.15640E-01   -0.19804E-02  5121   0.120E-01    0.542E-01
RMM:   5    -0.413153973107E+03    0.16837E-01   -0.80109E-03  4784   0.910E-02    0.400E-02
RMM:   6    -0.413153979121E+03   -0.60145E-05   -0.13490E-03  5674   0.361E-02    0.232E-02
RMM:   7    -0.413154022653E+03   -0.43532E-04   -0.21053E-04  5760   0.134E-02    0.152E-02
RMM:   8    -0.413154040211E+03   -0.17558E-04   -0.37249E-05  4911   0.681E-03    0.673E-03
RMM:   9    -0.413154050990E+03   -0.10780E-04   -0.64207E-06  2989   0.315E-03    0.353E-03
RMM:  10    -0.413154060419E+03   -0.94282E-05   -0.20077E-06  2563   0.203E-03    0.233E-03
RMM:  11    -0.413154070764E+03   -0.10345E-04   -0.23603E-06  2581   0.190E-03    0.117E-03
RMM:  12    -0.413154077133E+03   -0.63696E-05   -0.16841E-06  2518   0.154E-03    0.526E-04
RMM:  13    -0.413154079459E+03   -0.23256E-05   -0.58509E-07  1980   0.998E-04    0.381E-04
RMM:  14    -0.413154081951E+03   -0.24922E-05   -0.48816E-07  2002   0.960E-04    0.228E-04
RMM:  15    -0.413154084213E+03   -0.22618E-05   -0.40851E-07  1783   0.877E-04    0.195E-04
RMM:  16    -0.413154085670E+03   -0.14567E-05   -0.18518E-07  1422   0.689E-04    0.113E-04
RMM:  17    -0.413154086783E+03   -0.11132E-05   -0.10364E-07  1123   0.591E-04    0.494E-05
RMM:  18    -0.413154087662E+03   -0.87934E-06   -0.55364E-08   947   0.536E-04
  148 T=    59. E= -.41286674E+03 F= -.41315409E+03 E0= -.41313353E+03  EK= 0.28735E+00 SP= 0.00E+00 SK= 0.00E+00
       N       E                     dE             d eps       ncg     rms          rms(c)
RMM:   1    -0.413157554810E+03   -0.34680E-02   -0.50944E+00  4267   0.752E-01    0.670E-01
RMM:   2    -0.413157984509E+03   -0.42970E-03   -0.57656E-02  4412   0.764E-02    0.493E-01
RMM:   3    -0.413155776091E+03    0.22084E-02   -0.21920E-02  5076   0.525E-02    0.163E-01
RMM:   4    -0.413170637764E+03   -0.14862E-01   -0.18259E-02  5128   0.115E-01    0.527E-01
RMM:   5    -0.413154742221E+03    0.15896E-01   -0.76134E-03  4783   0.885E-02    0.397E-02
RMM:   6    -0.413154763875E+03   -0.21654E-04   -0.13219E-03  5681   0.356E-02    0.237E-02
RMM:   7    -0.413154812927E+03   -0.49052E-04   -0.21419E-04  5743   0.133E-02    0.147E-02
RMM:   8    -0.413154835208E+03   -0.22281E-04   -0.34242E-05  4836   0.644E-03    0.652E-03
RMM:   9    -0.413154849503E+03   -0.14295E-04   -0.55709E-06  2950   0.291E-03    0.366E-03
RMM:  10    -0.413154865261E+03   -0.15758E-04   -0.19809E-06  2560   0.203E-03    0.237E-03
RMM:  11    -0.413154882036E+03   -0.16774E-04   -0.21431E-06  2570   0.188E-03    0.117E-03
RMM:  12    -0.413154895525E+03   -0.13489E-04   -0.18839E-06  2554   0.162E-03    0.570E-04
RMM:  13    -0.413154900318E+03   -0.47931E-05   -0.58245E-07  1996   0.100E-03    0.420E-04
RMM:  14    -0.413154905455E+03   -0.51370E-05   -0.44533E-07  1926   0.934E-04    0.252E-04
RMM:  15    -0.413154911052E+03   -0.55970E-05   -0.46812E-07  1966   0.938E-04    0.244E-04
RMM:  16    -0.413154914187E+03   -0.31349E-05   -0.20143E-07  1460   0.699E-04    0.132E-04
RMM:  17    -0.413154915767E+03   -0.15797E-05   -0.89908E-08  1076   0.573E-04    0.576E-05
RMM:  18    -0.413154917183E+03   -0.14165E-05   -0.53679E-08   972   0.548E-04    0.413E-05
RMM:  19    -0.413154918177E+03   -0.99372E-06   -0.32601E-08   888   0.526E-04
  149 T=    59. E= -.41286694E+03 F= -.41315492E+03 E0= -.41313436E+03  EK= 0.28798E+00 SP= 0.00E+00 SK= 0.00E+00
       N       E                     dE             d eps       ncg     rms          rms(c)
RMM:   1    -0.413157827818E+03   -0.29106E-02   -0.54655E+00  4268   0.773E-01    0.674E-01
RMM:   2    -0.413159014876E+03   -0.11871E-02   -0.59299E-02  4398   0.789E-02    0.495E-01
RMM:   3    -0.413156662249E+03    0.23526E-02   -0.19112E-02  5035   0.509E-02    0.137E-01
RMM:   4    -0.413170703079E+03   -0.14041E-01   -0.16249E-02  5135   0.108E-01    0.508E-01
RMM:   5    -0.413155977179E+03    0.14726E-01   -0.71437E-03  4813   0.848E-02    0.400E-02
RMM:   6    -0.413156007163E+03   -0.29984E-04   -0.12677E-03  5691   0.348E-02    0.252E-02
RMM:   7    -0.413156062489E+03   -0.55326E-04   -0.22128E-04  5678   0.134E-02    0.145E-02
RMM:   8    -0.413156087413E+03   -0.24925E-04   -0.32261E-05  4776   0.627E-03    0.655E-03
RMM:   9    -0.413156103237E+03   -0.15824E-04   -0.50985E-06  2909   0.275E-03    0.384E-03
RMM:  10    -0.413156123766E+03   -0.20528E-04   -0.20306E-06  2564   0.204E-03    0.243E-03
RMM:  11    -0.413156144551E+03   -0.20785E-04   -0.19896E-06  2552   0.180E-03    0.121E-03
RMM:  12    -0.413156162516E+03   -0.17965E-04   -0.18929E-06  2556   0.166E-03    0.636E-04
RMM:  13    -0.413156169477E+03   -0.69607E-05   -0.62666E-07  2104   0.104E-03    0.468E-04
RMM:  14    -0.413156176245E+03   -0.67678E-05   -0.45309E-07  1945   0.936E-04    0.305E-04
RMM:  15    -0.413156184681E+03   -0.84364E-05   -0.58236E-07  2107   0.996E-04    0.289E-04
RMM:  16    -0.413156189054E+03   -0.43727E-05   -0.23272E-07  1394   0.694E-04    0.157E-04
RMM:  17    -0.413156190557E+03   -0.15031E-05   -0.86458E-08  1015   0.564E-04    0.792E-05
RMM:  18    -0.413156192255E+03   -0.16980E-05   -0.62155E-08  1011   0.568E-04    0.564E-05
RMM:  19    -0.413156193305E+03   -0.10503E-05   -0.37528E-08   923   0.548E-04    0.622E-05
RMM:  20    -0.413156193422E+03   -0.11722E-06   -0.18051E-08   724   0.505E-04
  150 T=    59. E= -.41286663E+03 F= -.41315619E+03 E0= -.41313563E+03  EK= 0.28956E+00 SP= 0.00E+00 SK= 0.00E+00
