       N       E                     dE             d eps       ncg     rms          rms(c)
RMM:   1     0.220098308014E+04    0.22010E+04   -0.52445E+04  2132   0.654E+02
RMM:   2     0.705644598967E+03   -0.14953E+04   -0.16261E+04  2132   0.177E+02
RMM:   3     0.137841315497E+03   -0.56780E+03   -0.65651E+03  2132   0.117E+02
RMM:   4    -0.159517423248E+03   -0.29736E+03   -0.27865E+03  2132   0.936E+01
RMM:   5    -0.287448258377E+03   -0.12793E+03   -0.11438E+03  2132   0.595E+01
RMM:   6    -0.349932561426E+03   -0.62484E+02   -0.55134E+02  2132   0.423E+01
RMM:   7    -0.382761833884E+03   -0.32829E+02   -0.30372E+02  2132   0.293E+01
RMM:   8    -0.404226104960E+03   -0.21464E+02   -0.18429E+02  2132   0.233E+01
RMM:   9    -0.436012295897E+03   -0.31786E+02   -0.30608E+02  6107   0.173E+01
RMM:  10    -0.441363633450E+03   -0.53513E+01   -0.63146E+01  6403   0.539E+00
RMM:  11    -0.442539764349E+03   -0.11761E+01   -0.10963E+01  6207   0.172E+00
RMM:  12    -0.442897336341E+03   -0.35757E+00   -0.26375E+00  6368   0.594E-01    0.134E+02
RMM:  13    -0.425531937057E+03    0.17365E+02   -0.80533E+01  4674   0.119E+01    0.712E+01
RMM:  14    -0.498109895935E+03   -0.72578E+02   -0.53341E+02  5414   0.231E+01    0.305E+01
RMM:  15    -0.414470988604E+03    0.83639E+02   -0.19470E+02  5071   0.162E+01    0.616E+00
RMM:  16    -0.414095225161E+03    0.37576E+00   -0.39176E+01  6076   0.601E+00    0.432E+00
RMM:  17    -0.413228722560E+03    0.86650E+00   -0.22799E+00  5330   0.181E+00    0.248E+00
RMM:  18    -0.413163404229E+03    0.65318E-01   -0.91753E-01  5953   0.989E-01    0.158E+00
RMM:  19    -0.413168509505E+03   -0.51053E-02   -0.27304E-01  5742   0.553E-01    0.859E-01
RMM:  20    -0.413184641585E+03   -0.16132E-01   -0.21536E-01  5379   0.507E-01    0.556E-01
RMM:  21    -0.413167914639E+03    0.16727E-01   -0.32065E-02  4998   0.226E-01    0.264E-01
RMM:  22    -0.413165839833E+03    0.20748E-02   -0.15429E-02  6061   0.109E-01    0.144E-01
RMM:  23    -0.413164416199E+03    0.14236E-02   -0.55575E-03  5925   0.686E-02    0.818E-02
RMM:  24    -0.413163093727E+03    0.13225E-02   -0.15942E-03  5444   0.399E-02    0.386E-02
RMM:  25    -0.413162798184E+03    0.29554E-03   -0.78136E-04  5627   0.245E-02    0.297E-02
RMM:  26    -0.413163020955E+03   -0.22277E-03   -0.70774E-04  5829   0.275E-02    0.329E-02
RMM:  27    -0.413163450182E+03   -0.42923E-03   -0.18070E-04  4535   0.192E-02    0.183E-02
RMM:  28    -0.413163935861E+03   -0.48568E-03   -0.20496E-04  5253   0.200E-02    0.857E-03
RMM:  29    -0.413164302012E+03   -0.36615E-03   -0.10113E-04  4374   0.145E-02    0.458E-03
RMM:  30    -0.413164519684E+03   -0.21767E-03   -0.75685E-05  4049   0.997E-03    0.294E-03
RMM:  31    -0.413164620663E+03   -0.10098E-03   -0.45555E-05  3120   0.594E-03    0.251E-03
RMM:  32    -0.413164645432E+03   -0.24769E-04   -0.18394E-05  2925   0.295E-03    0.134E-03
RMM:  33    -0.413164653357E+03   -0.79254E-05   -0.78792E-06  2772   0.204E-03    0.472E-04
RMM:  34    -0.413164655054E+03   -0.16961E-05   -0.41931E-06  2635   0.159E-03    0.763E-04
RMM:  35    -0.413164654435E+03    0.61811E-06   -0.22017E-06  2147   0.110E-03
    1 T=    61. E= -.41286688E+03 F= -.41316465E+03 E0= -.41314216E+03  EK= 0.29777E+00 SP= 0.00E+00 SK= 0.00E+00
       N       E                     dE             d eps       ncg     rms          rms(c)
RMM:   1    -0.413160432657E+03    0.42224E-02   -0.97010E+00  3989   0.643E-01    0.885E-01
RMM:   2    -0.413167651400E+03   -0.72187E-02   -0.11884E-01  3949   0.911E-02    0.648E-01
RMM:   3    -0.413164609571E+03    0.30418E-02   -0.12307E-02  4801   0.435E-02    0.104E-01
RMM:   4    -0.413187069903E+03   -0.22460E-01   -0.23855E-02  5210   0.128E-01    0.626E-01
RMM:   5    -0.413164200815E+03    0.22869E-01   -0.11295E-02  4845   0.105E-01    0.445E-02
RMM:   6    -0.413164364788E+03   -0.16397E-03   -0.19956E-03  5781   0.433E-02    0.304E-02
RMM:   7    -0.413164370225E+03   -0.54370E-05   -0.36648E-04  5701   0.174E-02    0.185E-02
RMM:   8    -0.413164369944E+03    0.28146E-06   -0.46113E-05  4947   0.733E-03    0.801E-03
RMM:   9    -0.413164373105E+03   -0.31614E-05   -0.98510E-06  3457   0.335E-03    0.620E-03
RMM:  10    -0.413164378246E+03   -0.51410E-05   -0.18358E-06  2570   0.203E-03    0.382E-03
RMM:  11    -0.413164383782E+03   -0.55357E-05   -0.13673E-06  2537   0.171E-03    0.191E-03
RMM:  12    -0.413164390978E+03   -0.71964E-05   -0.14602E-06  2539   0.170E-03    0.810E-04
RMM:  13    -0.413164392489E+03   -0.15112E-05   -0.53553E-07  2254   0.112E-03    0.500E-04
RMM:  14    -0.413164392722E+03   -0.23296E-06   -0.30436E-07  1711   0.787E-04
    2 T=    61. E= -.41286670E+03 F= -.41316439E+03 E0= -.41314189E+03  EK= 0.29770E+00 SP= 0.00E+00 SK= 0.00E+00
       N       E                     dE             d eps       ncg     rms          rms(c)
RMM:   1    -0.413161465774E+03    0.29267E-02   -0.97126E+00  4187   0.648E-01    0.906E-01
RMM:   2    -0.413167720330E+03   -0.62546E-02   -0.11720E-01  3998   0.905E-02    0.642E-01
RMM:   3    -0.413165203559E+03    0.25168E-02   -0.11983E-02  4832   0.429E-02    0.120E-01
RMM:   4    -0.413190245770E+03   -0.25042E-01   -0.25987E-02  5175   0.134E-01    0.661E-01
RMM:   5    -0.413164759554E+03    0.25486E-01   -0.12336E-02  4823   0.110E-01    0.464E-02
RMM:   6    -0.413164936067E+03   -0.17651E-03   -0.22292E-03  5773   0.456E-02    0.318E-02
RMM:   7    -0.413164931548E+03    0.45195E-05   -0.38605E-04  5686   0.182E-02    0.196E-02
RMM:   8    -0.413164924102E+03    0.74458E-05   -0.53901E-05  5019   0.802E-03    0.905E-03
RMM:   9    -0.413164922758E+03    0.13436E-05   -0.10972E-05  3676   0.369E-03    0.691E-03
RMM:  10    -0.413164923166E+03   -0.40721E-06   -0.17400E-06  2555   0.214E-03
    3 T=    61. E= -.41286700E+03 F= -.41316492E+03 E0= -.41314243E+03  EK= 0.29792E+00 SP= 0.00E+00 SK= 0.00E+00
       N       E                     dE             d eps       ncg     rms          rms(c)
RMM:   1    -0.413160973944E+03    0.39488E-02   -0.96400E+00  4222   0.649E-01    0.890E-01
RMM:   2    -0.413167484468E+03   -0.65105E-02   -0.11669E-01  4185   0.912E-02    0.637E-01
RMM:   3    -0.413168924177E+03   -0.14397E-02   -0.14853E-02  5150   0.733E-02    0.292E-01
RMM:   4    -0.413192925768E+03   -0.24002E-01   -0.40922E-02  5124   0.172E-01    0.694E-01
RMM:   5    -0.413164642337E+03    0.28283E-01   -0.11435E-02  4722   0.114E-01    0.600E-02
RMM:   6    -0.413164688371E+03   -0.46034E-04   -0.21276E-03  5510   0.462E-02    0.299E-02
RMM:   7    -0.413164710288E+03   -0.21916E-04   -0.37617E-04  6027   0.171E-02    0.185E-02
RMM:   8    -0.413164707732E+03    0.25552E-05   -0.67942E-05  5223   0.914E-03    0.790E-03
RMM:   9    -0.413164705914E+03    0.18182E-05   -0.92217E-06  3505   0.372E-03    0.396E-03
RMM:  10    -0.413164707237E+03   -0.13231E-05   -0.19999E-06  2579   0.217E-03    0.261E-03
RMM:  11    -0.413164709171E+03   -0.19340E-05   -0.14562E-06  2541   0.187E-03    0.155E-03
RMM:  12    -0.413164710139E+03   -0.96815E-06   -0.76453E-07  2491   0.142E-03
    4 T=    61. E= -.41286679E+03 F= -.41316471E+03 E0= -.41314222E+03  EK= 0.29792E+00 SP= 0.00E+00 SK= 0.00E+00
       N       E                     dE             d eps       ncg     rms          rms(c)
RMM:   1    -0.413160916881E+03    0.37923E-02   -0.96971E+00  4236   0.656E-01    0.883E-01
RMM:   2    -0.413168046226E+03   -0.71293E-02   -0.11894E-01  4031   0.907E-02    0.646E-01
RMM:   3    -0.413165281397E+03    0.27648E-02   -0.12333E-02  4927   0.450E-02    0.118E-01
RMM:   4    -0.413195167750E+03   -0.29886E-01   -0.31355E-02  5150   0.147E-01    0.721E-01
RMM:   5    -0.413164680140E+03    0.30488E-01   -0.14712E-02  4816   0.120E-01    0.470E-02
RMM:   6    -0.413164873461E+03   -0.19332E-03   -0.24570E-03  5769   0.487E-02    0.306E-02
RMM:   7    -0.413164880646E+03   -0.71848E-05   -0.40187E-04  5769   0.182E-02    0.195E-02
RMM:   8    -0.413164879468E+03    0.11773E-05   -0.61742E-05  5054   0.832E-03    0.908E-03
RMM:   9    -0.413164880800E+03   -0.13316E-05   -0.12160E-05  3819   0.393E-03    0.672E-03
RMM:  10    -0.413164885100E+03   -0.42999E-05   -0.18115E-06  2569   0.211E-03    0.426E-03
RMM:  11    -0.413164889655E+03   -0.45554E-05   -0.13455E-06  2541   0.180E-03    0.216E-03
RMM:  12    -0.413164895600E+03   -0.59447E-05   -0.17261E-06  2582   0.187E-03    0.953E-04
RMM:  13    -0.413164896726E+03   -0.11258E-05   -0.47866E-07  2313   0.119E-03    0.605E-04
RMM:  14    -0.413164896724E+03    0.17462E-08   -0.21179E-07  1732   0.806E-04
    5 T=    61. E= -.41286683E+03 F= -.41316490E+03 E0= -.41314242E+03  EK= 0.29806E+00 SP= 0.00E+00 SK= 0.00E+00
       N       E                     dE             d eps       ncg     rms          rms(c)
RMM:   1    -0.413161796477E+03    0.31002E-02   -0.97230E+00  4247   0.662E-01    0.902E-01
RMM:   2    -0.413168026830E+03   -0.62304E-02   -0.11763E-01  4062   0.915E-02    0.644E-01
RMM:   3    -0.413165560306E+03    0.24665E-02   -0.12026E-02  4791   0.427E-02    0.113E-01
RMM:   4    -0.413187930043E+03   -0.22370E-01   -0.22969E-02  5155   0.126E-01    0.626E-01
RMM:   5    -0.413165178140E+03    0.22752E-01   -0.11118E-02  4819   0.104E-01    0.446E-02
RMM:   6    -0.413165334051E+03   -0.15591E-03   -0.19432E-03  5768   0.427E-02    0.306E-02
RMM:   7    -0.413165329364E+03    0.46870E-05   -0.35219E-04  5642   0.176E-02    0.188E-02
RMM:   8    -0.413165321821E+03    0.75424E-05   -0.48306E-05  4936   0.774E-03    0.866E-03
RMM:   9    -0.413165320764E+03    0.10577E-05   -0.96339E-06  3537   0.351E-03    0.666E-03
RMM:  10    -0.413165321324E+03   -0.56041E-06   -0.15944E-06  2545   0.210E-03
    6 T=    61. E= -.41286699E+03 F= -.41316532E+03 E0= -.41314286E+03  EK= 0.29833E+00 SP= 0.00E+00 SK= 0.00E+00
       N       E                     dE             d eps       ncg     rms          rms(c)
RMM:   1    -0.413161427520E+03    0.38932E-02   -0.96729E+00  4255   0.664E-01    0.897E-01
RMM:   2    -0.413167750193E+03   -0.63227E-02   -0.11700E-01  4204   0.908E-02    0.638E-01
RMM:   3    -0.413168284975E+03   -0.53478E-03   -0.14054E-02  5106   0.669E-02    0.258E-01
RMM:   4    -0.413197404276E+03   -0.29119E-01   -0.42853E-02  5118   0.174E-01    0.742E-01
RMM:   5    -0.413165006917E+03    0.32397E-01   -0.13720E-02  4751   0.122E-01    0.595E-02
RMM:   6    -0.413165097303E+03   -0.90386E-04   -0.24608E-03  5571   0.494E-02    0.306E-02
RMM:   7    -0.413165114235E+03   -0.16931E-04   -0.40362E-04  6017   0.174E-02    0.188E-02
RMM:   8    -0.413165110213E+03    0.40211E-05   -0.68965E-05  5221   0.909E-03    0.810E-03
RMM:   9    -0.413165106726E+03    0.34874E-05   -0.97712E-06  3492   0.372E-03    0.418E-03
RMM:  10    -0.413165106777E+03   -0.50844E-07   -0.23631E-06  2605   0.225E-03
    7 T=    61. E= -.41286672E+03 F= -.41316511E+03 E0= -.41314266E+03  EK= 0.29839E+00 SP= 0.00E+00 SK= 0.00E+00
       N       E                     dE             d eps       ncg     rms          rms(c)
RMM:   1    -0.413161646092E+03    0.34606E-02   -0.96884E+00  4264   0.669E-01    0.881E-01
RMM:   2    -0.413168824030E+03   -0.71779E-02   -0.11851E-01  4148   0.916E-02    0.644E-01
RMM:   3    -0.413166446683E+03    0.23773E-02   -0.12447E-02  4974   0.504E-02    0.144E-01
RMM:   4    -0.413204242352E+03   -0.37796E-01   -0.41163E-02  5141   0.169E-01    0.810E-01
RMM:   5    -0.413165445826E+03    0.38797E-01   -0.18453E-02  4805   0.135E-01    0.516E-02
RMM:   6    -0.413165659951E+03   -0.21413E-03   -0.30495E-03  5758   0.546E-02    0.318E-02
RMM:   7    -0.413165669793E+03   -0.98413E-05   -0.47113E-04  5861   0.191E-02    0.206E-02
RMM:   8    -0.413165668435E+03    0.13576E-05   -0.71728E-05  5213   0.883E-03    0.951E-03
RMM:   9    -0.413165668229E+03    0.20576E-06   -0.13844E-05  3958   0.416E-03    0.642E-03
RMM:  10    -0.413165671452E+03   -0.32232E-05   -0.22549E-06  2596   0.219E-03    0.415E-03
RMM:  11    -0.413165674391E+03   -0.29386E-05   -0.12112E-06  2531   0.172E-03    0.220E-03
RMM:  12    -0.413165678466E+03   -0.40748E-05   -0.16929E-06  2576   0.187E-03    0.882E-04
RMM:  13    -0.413165679646E+03   -0.11798E-05   -0.59002E-07  2346   0.125E-03    0.675E-04
RMM:  14    -0.413165679438E+03    0.20722E-06   -0.23717E-07  1842   0.842E-04
    8 T=    61. E= -.41286696E+03 F= -.41316568E+03 E0= -.41314325E+03  EK= 0.29872E+00 SP= 0.00E+00 SK= 0.00E+00
       N       E                     dE             d eps       ncg     rms          rms(c)
RMM:   1    -0.413162085174E+03    0.35945E-02   -0.97381E+00  4282   0.677E-01    0.897E-01
RMM:   2    -0.413168922821E+03   -0.68376E-02   -0.11830E-01  4173   0.927E-02    0.647E-01
RMM:   3    -0.413166120070E+03    0.28028E-02   -0.12072E-02  4797   0.432E-02    0.112E-01
RMM:   4    -0.413190010540E+03   -0.23890E-01   -0.24659E-02  5145   0.131E-01    0.646E-01
RMM:   5    -0.413165697077E+03    0.24313E-01   -0.11853E-02  4809   0.107E-01    0.447E-02
RMM:   6    -0.413165862487E+03   -0.16541E-03   -0.20743E-03  5775   0.437E-02    0.297E-02
RMM:   7    -0.413165863140E+03   -0.65345E-06   -0.34799E-04  5647   0.176E-02    0.189E-02
RMM:   8    -0.413165855660E+03    0.74798E-05   -0.55001E-05  4967   0.808E-03    0.901E-03
RMM:   9    -0.413165854264E+03    0.13967E-05   -0.10927E-05  3725   0.376E-03    0.694E-03
RMM:  10    -0.413165854982E+03   -0.71806E-06   -0.16178E-06  2546   0.212E-03
    9 T=    61. E= -.41286687E+03 F= -.41316585E+03 E0= -.41314345E+03  EK= 0.29898E+00 SP= 0.00E+00 SK= 0.00E+00
       N       E                     dE             d eps       ncg     rms          rms(c)
RMM:   1    -0.413162451444E+03    0.34028E-02   -0.97172E+00  4295   0.679E-01    0.904E-01
RMM:   2    -0.413168674816E+03   -0.62234E-02   -0.11714E-01  4286   0.935E-02    0.639E-01
RMM:   3    -0.413169786824E+03   -0.11120E-02   -0.14653E-02  5097   0.719E-02    0.282E-01
RMM:   4    -0.413195197527E+03   -0.25411E-01   -0.41140E-02  5098   0.171E-01    0.707E-01
RMM:   5    -0.413165854628E+03    0.29343E-01   -0.12080E-02  4727   0.116E-01    0.590E-02
RMM:   6    -0.413165921327E+03   -0.66699E-04   -0.22224E-03  5544   0.468E-02    0.307E-02
RMM:   7    -0.413165935479E+03   -0.14152E-04   -0.37395E-04  5996   0.171E-02    0.187E-02
RMM:   8    -0.413165929978E+03    0.55011E-05   -0.66449E-05  5191   0.904E-03    0.795E-03
RMM:   9    -0.413165925192E+03    0.47858E-05   -0.91397E-06  3447   0.367E-03    0.406E-03
RMM:  10    -0.413165924136E+03    0.10559E-05   -0.21186E-06  2582   0.219E-03    0.270E-03
RMM:  11    -0.413165922343E+03    0.17931E-05   -0.13312E-06  2522   0.182E-03    0.149E-03
RMM:  12    -0.413165920548E+03    0.17948E-05   -0.75657E-07  2479   0.141E-03    0.537E-04
RMM:  13    -0.413165919559E+03    0.98964E-06   -0.36769E-07  2071   0.994E-04
   10 T=    61. E= -.41286671E+03 F= -.41316592E+03 E0= -.41314353E+03  EK= 0.29921E+00 SP= 0.00E+00 SK= 0.00E+00
       N       E                     dE             d eps       ncg     rms          rms(c)
RMM:   1    -0.413162740498E+03    0.31800E-02   -0.96860E+00  4292   0.685E-01    0.882E-01
RMM:   2    -0.413169673008E+03   -0.69325E-02   -0.11832E-01  4208   0.921E-02    0.642E-01
RMM:   3    -0.413167159049E+03    0.25140E-02   -0.12071E-02  4904   0.469E-02    0.127E-01
RMM:   4    -0.413199560815E+03   -0.32402E-01   -0.34311E-02  5134   0.154E-01    0.750E-01
RMM:   5    -0.413166459598E+03    0.33101E-01   -0.15916E-02  4795   0.125E-01    0.487E-02
RMM:   6    -0.413166668877E+03   -0.20928E-03   -0.27716E-03  5753   0.507E-02    0.317E-02
RMM:   7    -0.413166671956E+03   -0.30787E-05   -0.43230E-04  5741   0.187E-02    0.203E-02
RMM:   8    -0.413166666508E+03    0.54479E-05   -0.64348E-05  5091   0.853E-03    0.951E-03
RMM:   9    -0.413166664997E+03    0.15106E-05   -0.13175E-05  3940   0.407E-03    0.701E-03
RMM:  10    -0.413166666190E+03   -0.11929E-05   -0.18927E-06  2574   0.214E-03    0.445E-03
RMM:  11    -0.413166667500E+03   -0.13096E-05   -0.13134E-06  2527   0.178E-03    0.235E-03
RMM:  12    -0.413166669163E+03   -0.16635E-05   -0.17090E-06  2565   0.192E-03    0.937E-04
RMM:  13    -0.413166669415E+03   -0.25144E-06   -0.50868E-07  2340   0.124E-03
   11 T=    61. E= -.41286700E+03 F= -.41316667E+03 E0= -.41314431E+03  EK= 0.29967E+00 SP= 0.00E+00 SK= 0.00E+00
       N       E                     dE             d eps       ncg     rms          rms(c)
RMM:   1    -0.413162803376E+03    0.38658E-02   -0.97594E+00  4294   0.688E-01    0.893E-01
RMM:   2    -0.413169692753E+03   -0.68894E-02   -0.11918E-01  4230   0.929E-02    0.649E-01
RMM:   3    -0.413166942349E+03    0.27504E-02   -0.12179E-02  4822   0.441E-02    0.113E-01
RMM:   4    -0.413192792705E+03   -0.25850E-01   -0.26873E-02  5139   0.136E-01    0.672E-01
RMM:   5    -0.413166464096E+03    0.26329E-01   -0.12804E-02  4802   0.111E-01    0.453E-02
RMM:   6    -0.413166639744E+03   -0.17565E-03   -0.22430E-03  5791   0.451E-02    0.294E-02
RMM:   7    -0.413166644544E+03   -0.48009E-05   -0.35148E-04  5702   0.175E-02    0.189E-02
RMM:   8    -0.413166637877E+03    0.66678E-05   -0.61164E-05  4981   0.832E-03    0.932E-03
RMM:   9    -0.413166636204E+03    0.16724E-05   -0.12106E-05  3907   0.397E-03    0.712E-03
RMM:  10    -0.413166637098E+03   -0.89377E-06   -0.16720E-06  2553   0.211E-03
   12 T=    61. E= -.41286667E+03 F= -.41316664E+03 E0= -.41314431E+03  EK= 0.29996E+00 SP= 0.00E+00 SK= 0.00E+00
       N       E                     dE             d eps       ncg     rms          rms(c)
RMM:   1    -0.413163851504E+03    0.27847E-02   -0.97604E+00  4306   0.694E-01    0.909E-01
RMM:   2    -0.413169668167E+03   -0.58167E-02   -0.11773E-01  4301   0.914E-02    0.642E-01
RMM:   3    -0.413171783305E+03   -0.21151E-02   -0.15380E-02  5123   0.743E-02    0.304E-01
RMM:   4    -0.413194022313E+03   -0.22239E-01   -0.40206E-02  5092   0.170E-01    0.677E-01
RMM:   5    -0.413167142872E+03    0.26879E-01   -0.10756E-02  4696   0.111E-01    0.586E-02
RMM:   6    -0.413167191557E+03   -0.48685E-04   -0.20342E-03  5501   0.446E-02    0.306E-02
RMM:   7    -0.413167202052E+03   -0.10496E-04   -0.35397E-04  5989   0.168E-02    0.186E-02
RMM:   8    -0.413167194692E+03    0.73605E-05   -0.65090E-05  5167   0.901E-03    0.788E-03
RMM:   9    -0.413167188878E+03    0.58142E-05   -0.86361E-06  3413   0.368E-03    0.396E-03
RMM:  10    -0.413167187174E+03    0.17033E-05   -0.19375E-06  2562   0.216E-03    0.259E-03
RMM:  11    -0.413167184271E+03    0.29031E-05   -0.13202E-06  2515   0.182E-03    0.149E-03
RMM:  12    -0.413167181724E+03    0.25473E-05   -0.71686E-07  2468   0.140E-03    0.548E-04
RMM:  13    -0.413167180202E+03    0.15222E-05   -0.36206E-07  2057   0.990E-04    0.312E-04
RMM:  14    -0.413167178758E+03    0.14442E-05   -0.22033E-07  1598   0.797E-04    0.216E-04
RMM:  15    -0.413167176514E+03    0.22439E-05   -0.20663E-07  1464   0.750E-04    0.124E-04
RMM:  16    -0.413167174455E+03    0.20589E-05   -0.16547E-07  1408   0.701E-04    0.123E-04
RMM:  17    -0.413167172140E+03    0.23146E-05   -0.15202E-07  1357   0.671E-04    0.675E-05
RMM:  18    -0.413167171043E+03    0.10970E-05   -0.74428E-08  1020   0.582E-04    0.376E-05
RMM:  19    -0.413167170295E+03    0.74864E-06   -0.43887E-08   868   0.548E-04
   13 T=    61. E= -.41286674E+03 F= -.41316717E+03 E0= -.41314487E+03  EK= 0.30043E+00 SP= 0.00E+00 SK= 0.00E+00
       N       E                     dE             d eps       ncg     rms          rms(c)
RMM:   1    -0.413163841835E+03    0.33292E-02   -0.96959E+00  4294   0.696E-01    0.886E-01
RMM:   2    -0.413170670673E+03   -0.68288E-02   -0.11824E-01  4252   0.941E-02    0.640E-01
RMM:   3    -0.413168424818E+03    0.22459E-02   -0.12021E-02  4929   0.466E-02    0.134E-01
RMM:   4    -0.413202673071E+03   -0.34248E-01   -0.36639E-02  5138   0.159E-01    0.771E-01
RMM:   5    -0.413167659211E+03    0.35014E-01   -0.16855E-02  4787   0.128E-01    0.499E-02
RMM:   6    -0.413167876705E+03   -0.21749E-03   -0.29344E-03  5745   0.520E-02    0.323E-02
RMM:   7    -0.413167878669E+03   -0.19638E-05   -0.44586E-04  5711   0.189E-02    0.207E-02
RMM:   8    -0.413167871685E+03    0.69835E-05   -0.67323E-05  5136   0.870E-03    0.976E-03
RMM:   9    -0.413167868582E+03    0.31031E-05   -0.13858E-05  4017   0.418E-03    0.704E-03
RMM:  10    -0.413167868346E+03    0.23653E-06   -0.19493E-06  2568   0.215E-03
   14 T=    61. E= -.41286694E+03 F= -.41316787E+03 E0= -.41314560E+03  EK= 0.30093E+00 SP= 0.00E+00 SK= 0.00E+00
       N       E                     dE             d eps       ncg     rms          rms(c)
RMM:   1    -0.413164174581E+03    0.36940E-02   -0.97875E+00  4305   0.706E-01    0.891E-01
RMM:   2    -0.413171147172E+03   -0.69726E-02   -0.11999E-01  4321   0.937E-02    0.651E-01
RMM:   3    -0.413173854396E+03   -0.27072E-02   -0.16710E-02  5124   0.817E-02    0.337E-01
RMM:   4    -0.413194189910E+03   -0.20336E-01   -0.42278E-02  5085   0.175E-01    0.669E-01
RMM:   5    -0.413167849834E+03    0.26340E-01   -0.10118E-02  4682   0.109E-01    0.580E-02
RMM:   6    -0.413167885890E+03   -0.36055E-04   -0.19369E-03  5460   0.434E-02    0.288E-02
RMM:   7    -0.413167906495E+03   -0.20606E-04   -0.33720E-04  5979   0.166E-02    0.179E-02
RMM:   8    -0.413167905611E+03    0.88400E-06   -0.64623E-05  5169   0.893E-03    0.759E-03
RMM:   9    -0.413167903669E+03    0.19423E-05   -0.87532E-06  3418   0.372E-03    0.376E-03
RMM:  10    -0.413167904760E+03   -0.10905E-05   -0.17236E-06  2542   0.209E-03    0.244E-03
RMM:  11    -0.413167906320E+03   -0.15609E-05   -0.14819E-06  2539   0.185E-03    0.155E-03
RMM:  12    -0.413167906740E+03   -0.41902E-06   -0.68480E-07  2460   0.138E-03
   15 T=    61. E= -.41286660E+03 F= -.41316791E+03 E0= -.41314567E+03  EK= 0.30130E+00 SP= 0.00E+00 SK= 0.00E+00
       N       E                     dE             d eps       ncg     rms          rms(c)
RMM:   1    -0.413165467397E+03    0.24389E-02   -0.98006E+00  4298   0.704E-01    0.911E-01
RMM:   2    -0.413171738327E+03   -0.62709E-02   -0.11847E-01  4264   0.935E-02    0.645E-01
RMM:   3    -0.413169539670E+03    0.21987E-02   -0.12216E-02  4938   0.473E-02    0.143E-01
RMM:   4    -0.413204995954E+03   -0.35456E-01   -0.38041E-02  5136   0.162E-01    0.784E-01
RMM:   5    -0.413168730642E+03    0.36265E-01   -0.17493E-02  4787   0.131E-01    0.510E-02
RMM:   6    -0.413168950772E+03   -0.22013E-03   -0.30363E-03  5750   0.533E-02    0.335E-02
RMM:   7    -0.413168947243E+03    0.35293E-05   -0.46492E-04  5747   0.197E-02    0.215E-02
RMM:   8    -0.413168936269E+03    0.10974E-04   -0.73146E-05  5151   0.909E-03    0.104E-02
RMM:   9    -0.413168929757E+03    0.65114E-05   -0.14521E-05  4085   0.430E-03    0.743E-03
RMM:  10    -0.413168925977E+03    0.37799E-05   -0.21150E-06  2586   0.223E-03    0.467E-03
RMM:  11    -0.413168923040E+03    0.29372E-05   -0.12708E-06  2518   0.178E-03    0.262E-03
RMM:  12    -0.413168917546E+03    0.54942E-05   -0.18633E-06  2581   0.205E-03    0.104E-03
RMM:  13    -0.413168915212E+03    0.23339E-05   -0.59177E-07  2391   0.134E-03    0.799E-04
RMM:  14    -0.413168915433E+03   -0.22115E-06   -0.24834E-07  1935   0.874E-04
   16 T=    61. E= -.41286686E+03 F= -.41316892E+03 E0= -.41314672E+03  EK= 0.30205E+00 SP= 0.00E+00 SK= 0.00E+00
       N       E                     dE             d eps       ncg     rms          rms(c)
RMM:   1    -0.413165547846E+03    0.33674E-02   -0.97342E+00  4298   0.708E-01    0.892E-01
RMM:   2    -0.413172340426E+03   -0.67926E-02   -0.11848E-01  4261   0.932E-02    0.640E-01
RMM:   3    -0.413169750227E+03    0.25902E-02   -0.11771E-02  4852   0.447E-02    0.124E-01
RMM:   4    -0.413198079272E+03   -0.28329E-01   -0.29681E-02  5133   0.143E-01    0.702E-01
RMM:   5    -0.413169194695E+03    0.28885E-01   -0.14066E-02  4794   0.117E-01    0.470E-02
RMM:   6    -0.413169376836E+03   -0.18214E-03   -0.24896E-03  5788   0.475E-02    0.308E-02
RMM:   7    -0.413169378491E+03   -0.16548E-05   -0.37865E-04  5692   0.182E-02    0.195E-02
RMM:   8    -0.413169368400E+03    0.10091E-04   -0.66430E-05  5026   0.862E-03    0.981E-03
RMM:   9    -0.413169363541E+03    0.48586E-05   -0.13170E-05  4015   0.413E-03    0.739E-03
RMM:  10    -0.413169361228E+03    0.23131E-05   -0.17835E-06  2555   0.215E-03    0.464E-03
RMM:  11    -0.413169359063E+03    0.21647E-05   -0.12876E-06  2514   0.182E-03    0.250E-03
RMM:  12    -0.413169355622E+03    0.34419E-05   -0.16051E-06  2548   0.193E-03    0.938E-04
RMM:  13    -0.413169354329E+03    0.12929E-05   -0.49081E-07  2315   0.124E-03    0.610E-04
RMM:  14    -0.413169354234E+03    0.94886E-07   -0.22400E-07  1837   0.833E-04
   17 T=    62. E= -.41286671E+03 F= -.41316935E+03 E0= -.41314720E+03  EK= 0.30264E+00 SP= 0.00E+00 SK= 0.00E+00
       N       E                     dE             d eps       ncg     rms          rms(c)
RMM:   1    -0.413166084525E+03    0.32698E-02   -0.98167E+00  4298   0.717E-01    0.889E-01
RMM:   2    -0.413173090527E+03   -0.70060E-02   -0.12084E-01  4270   0.943E-02    0.652E-01
RMM:   3    -0.413170234291E+03    0.28562E-02   -0.12383E-02  4858   0.458E-02    0.116E-01
RMM:   4    -0.413199093541E+03   -0.28859E-01   -0.30284E-02  5131   0.144E-01    0.709E-01
RMM:   5    -0.413169669965E+03    0.29424E-01   -0.14349E-02  4794   0.118E-01    0.468E-02
RMM:   6    -0.413169850914E+03   -0.18095E-03   -0.24741E-03  5769   0.480E-02    0.304E-02
RMM:   7    -0.413169854199E+03   -0.32851E-05   -0.39140E-04  5681   0.181E-02    0.195E-02
RMM:   8    -0.413169848019E+03    0.61802E-05   -0.63541E-05  5054   0.848E-03    0.940E-03
RMM:   9    -0.413169845556E+03    0.24627E-05   -0.12733E-05  3911   0.405E-03    0.702E-03
RMM:  10    -0.413169845846E+03   -0.29004E-06   -0.17430E-06  2551   0.211E-03
   18 T=    62. E= -.41286658E+03 F= -.41316985E+03 E0= -.41314773E+03  EK= 0.30326E+00 SP= 0.00E+00 SK= 0.00E+00
       N       E                     dE             d eps       ncg     rms          rms(c)
RMM:   1    -0.413167545859E+03    0.22997E-02   -0.98448E+00  4305   0.718E-01    0.910E-01
RMM:   2    -0.413173834465E+03   -0.62886E-02   -0.11964E-01  4327   0.934E-02    0.649E-01
RMM:   3    -0.413175951121E+03   -0.21167E-02   -0.15661E-02  5111   0.769E-02    0.311E-01
RMM:   4    -0.413198553390E+03   -0.22602E-01   -0.41499E-02  5082   0.172E-01    0.684E-01
RMM:   5    -0.413171039190E+03    0.27514E-01   -0.10930E-02  4695   0.112E-01    0.582E-02
RMM:   6    -0.413171084040E+03   -0.44850E-04   -0.20674E-03  5487   0.450E-02    0.304E-02
RMM:   7    -0.413171091404E+03   -0.73641E-05   -0.35759E-04  5981   0.169E-02    0.188E-02
RMM:   8    -0.413171083698E+03    0.77055E-05   -0.66796E-05  5168   0.908E-03    0.798E-03
RMM:   9    -0.413171076849E+03    0.68494E-05   -0.89839E-06  3448   0.375E-03    0.395E-03
RMM:  10    -0.413171074567E+03    0.22822E-05   -0.19540E-06  2562   0.216E-03    0.259E-03
RMM:  11    -0.413171070695E+03    0.38714E-05   -0.12845E-06  2511   0.181E-03    0.148E-03
RMM:  12    -0.413171067309E+03    0.33860E-05   -0.67272E-07  2457   0.138E-03    0.526E-04
RMM:  13    -0.413171065319E+03    0.19900E-05   -0.33396E-07  2044   0.973E-04    0.301E-04
RMM:  14    -0.413171063508E+03    0.18115E-05   -0.19420E-07  1537   0.779E-04    0.207E-04
RMM:  15    -0.413171060683E+03    0.28252E-05   -0.16736E-07  1396   0.727E-04    0.116E-04
RMM:  16    -0.413171058098E+03    0.25850E-05   -0.13266E-07  1342   0.681E-04    0.117E-04
RMM:  17    -0.413171055132E+03    0.29658E-05   -0.12103E-07  1323   0.663E-04    0.667E-05
RMM:  18    -0.413171053677E+03    0.14544E-05   -0.64068E-08  1002   0.581E-04    0.380E-05
RMM:  19    -0.413171052803E+03    0.87489E-06   -0.34990E-08   833   0.549E-04
   19 T=    62. E= -.41286688E+03 F= -.41317105E+03 E0= -.41314898E+03  EK= 0.30417E+00 SP= 0.00E+00 SK= 0.00E+00
       N       E                     dE             d eps       ncg     rms          rms(c)
RMM:   1    -0.413167764877E+03    0.32888E-02   -0.97935E+00  4298   0.718E-01    0.900E-01
RMM:   2    -0.413174015651E+03   -0.62508E-02   -0.11916E-01  4271   0.934E-02    0.642E-01
RMM:   3    -0.413172083500E+03    0.19322E-02   -0.12094E-02  4932   0.478E-02    0.144E-01
RMM:   4    -0.413208219679E+03   -0.36136E-01   -0.39010E-02  5135   0.164E-01    0.791E-01
RMM:   5    -0.413171239498E+03    0.36980E-01   -0.17898E-02  4785   0.132E-01    0.513E-02
RMM:   6    -0.413171445563E+03   -0.20607E-03   -0.30631E-03  5749   0.539E-02    0.335E-02
RMM:   7    -0.413171441581E+03    0.39820E-05   -0.47386E-04  5714   0.196E-02    0.215E-02
RMM:   8    -0.413171430242E+03    0.11339E-04   -0.74195E-05  5171   0.914E-03    0.103E-02
RMM:   9    -0.413171423742E+03    0.64996E-05   -0.14980E-05  4121   0.436E-03    0.731E-03
RMM:  10    -0.413171420051E+03    0.36913E-05   -0.21290E-06  2584   0.222E-03    0.465E-03
RMM:  11    -0.413171417226E+03    0.28252E-05   -0.11931E-06  2509   0.175E-03    0.262E-03
RMM:  12    -0.413171412174E+03    0.50515E-05   -0.17017E-06  2554   0.201E-03    0.101E-03
RMM:  13    -0.413171409947E+03    0.22275E-05   -0.56669E-07  2375   0.133E-03    0.800E-04
RMM:  14    -0.413171410205E+03   -0.25819E-06   -0.24728E-07  1932   0.873E-04
   20 T=    62. E= -.41286660E+03 F= -.41317141E+03 E0= -.41314938E+03  EK= 0.30481E+00 SP= 0.00E+00 SK= 0.00E+00
       N       E                     dE             d eps       ncg     rms          rms(c)
RMM:   1    -0.413168561041E+03    0.28489E-02   -0.98445E+00  4297   0.728E-01    0.889E-01
RMM:   2    -0.413175758720E+03   -0.71977E-02   -0.12163E-01  4281   0.943E-02    0.652E-01
RMM:   3    -0.413172926277E+03    0.28324E-02   -0.12340E-02  4835   0.460E-02    0.115E-01
RMM:   4    -0.413200646101E+03   -0.27720E-01   -0.29005E-02  5132   0.141E-01    0.695E-01
RMM:   5    -0.413172401514E+03    0.28245E-01   -0.13835E-02  4799   0.115E-01    0.460E-02
RMM:   6    -0.413172570672E+03   -0.16916E-03   -0.23825E-03  5804   0.466E-02    0.292E-02
RMM:   7    -0.413172575904E+03   -0.52311E-05   -0.34917E-04  5696   0.175E-02    0.183E-02
RMM:   8    -0.413172568455E+03    0.74486E-05   -0.68066E-05  5018   0.862E-03    0.979E-03
RMM:   9    -0.413172564351E+03    0.41038E-05   -0.13377E-05  4080   0.420E-03    0.730E-03
RMM:  10    -0.413172563558E+03    0.79316E-06   -0.17284E-06  2551   0.214E-03
   21 T=    62. E= -.41286687E+03 F= -.41317256E+03 E0= -.41315058E+03  EK= 0.30569E+00 SP= 0.00E+00 SK= 0.00E+00
       N       E                     dE             d eps       ncg     rms          rms(c)
RMM:   1    -0.413171210650E+03    0.13537E-02   -0.99068E+00  4296   0.755E-01    0.908E-01
RMM:   2    -0.413176655776E+03   -0.54451E-02   -0.12191E-01  4320   0.978E-02    0.653E-01
RMM:   3    -0.413178396339E+03   -0.17406E-02   -0.15601E-02  5108   0.769E-02    0.307E-01
RMM:   4    -0.413202987698E+03   -0.24591E-01   -0.43425E-02  5093   0.176E-01    0.706E-01
RMM:   5    -0.413173583925E+03    0.29404E-01   -0.11826E-02  4697   0.116E-01    0.578E-02
RMM:   6    -0.413173646724E+03   -0.62799E-04   -0.22135E-03  5544   0.466E-02    0.304E-02
RMM:   7    -0.413173656914E+03   -0.10190E-04   -0.36815E-04  5970   0.172E-02    0.190E-02
RMM:   8    -0.413173650729E+03    0.61849E-05   -0.69162E-05  5169   0.921E-03    0.813E-03
RMM:   9    -0.413173644102E+03    0.66272E-05   -0.99318E-06  3551   0.387E-03    0.403E-03
RMM:  10    -0.413173641853E+03    0.22492E-05   -0.20965E-06  2582   0.218E-03    0.270E-03
RMM:  11    -0.413173638145E+03    0.37083E-05   -0.12094E-06  2505   0.177E-03    0.149E-03
RMM:  12    -0.413173634559E+03    0.35859E-05   -0.68055E-07  2454   0.138E-03    0.497E-04
RMM:  13    -0.413173632568E+03    0.19905E-05   -0.33048E-07  2032   0.970E-04    0.292E-04
RMM:  14    -0.413173630822E+03    0.17462E-05   -0.18936E-07  1546   0.772E-04    0.203E-04
RMM:  15    -0.413173628040E+03    0.27820E-05   -0.14998E-07  1344   0.710E-04    0.110E-04
RMM:  16    -0.413173625339E+03    0.27012E-05   -0.12364E-07  1316   0.679E-04    0.121E-04
RMM:  17    -0.413173622498E+03    0.28408E-05   -0.10471E-07  1285   0.652E-04    0.689E-05
RMM:  18    -0.413173620511E+03    0.19871E-05   -0.64476E-08  1030   0.590E-04    0.272E-05
RMM:  19    -0.413173619651E+03    0.85969E-06   -0.33833E-08   853   0.551E-04
   22 T=    62. E= -.41286695E+03 F= -.41317362E+03 E0= -.41315168E+03  EK= 0.30667E+00 SP= 0.00E+00 SK= 0.00E+00
       N       E                     dE             d eps       ncg     rms          rms(c)
RMM:   1    -0.413172909147E+03    0.71136E-03   -0.98958E+00  4296   0.750E-01    0.910E-01
RMM:   2    -0.413177278345E+03   -0.43692E-02   -0.12019E-01  4282   0.959E-02    0.646E-01
RMM:   3    -0.413174900555E+03    0.23778E-02   -0.12192E-02  4892   0.486E-02    0.141E-01
RMM:   4    -0.413209704451E+03   -0.34804E-01   -0.37181E-02  5138   0.160E-01    0.776E-01
RMM:   5    -0.413174147122E+03    0.35557E-01   -0.17312E-02  4791   0.130E-01    0.507E-02
RMM:   6    -0.413174349812E+03   -0.20269E-03   -0.30141E-03  5772   0.527E-02    0.335E-02
RMM:   7    -0.413174347917E+03    0.18956E-05   -0.45077E-04  5693   0.197E-02    0.212E-02
RMM:   8    -0.413174336084E+03    0.11833E-04   -0.76716E-05  5147   0.926E-03    0.107E-02
RMM:   9    -0.413174328421E+03    0.76625E-05   -0.15313E-05  4163   0.443E-03    0.768E-03
RMM:  10    -0.413174323516E+03    0.49059E-05   -0.20976E-06  2578   0.225E-03    0.489E-03
RMM:  11    -0.413174319600E+03    0.39154E-05   -0.12928E-06  2523   0.180E-03    0.275E-03
RMM:  12    -0.413174312771E+03    0.68294E-05   -0.17501E-06  2556   0.207E-03    0.104E-03
RMM:  13    -0.413174310020E+03    0.27504E-05   -0.58443E-07  2371   0.136E-03    0.793E-04
RMM:  14    -0.413174310185E+03   -0.16478E-06   -0.25580E-07  1963   0.890E-04
   23 T=    63. E= -.41286665E+03 F= -.41317431E+03 E0= -.41315241E+03  EK= 0.30766E+00 SP= 0.00E+00 SK= 0.00E+00
       N       E                     dE             d eps       ncg     rms          rms(c)
RMM:   1    -0.413172147166E+03    0.21629E-02   -0.98917E+00  4297   0.752E-01    0.892E-01
RMM:   2    -0.413179336043E+03   -0.71889E-02   -0.12262E-01  4282   0.994E-02    0.652E-01
RMM:   3    -0.413176132284E+03    0.32038E-02   -0.12125E-02  4746   0.464E-02    0.109E-01
RMM:   4    -0.413198063082E+03   -0.21931E-01   -0.22599E-02  5139   0.125E-01    0.620E-01
RMM:   5    -0.413175763920E+03    0.22299E-01   -0.11055E-02  4803   0.103E-01    0.437E-02
RMM:   6    -0.413175887012E+03   -0.12309E-03   -0.19161E-03  5818   0.411E-02    0.267E-02
RMM:   7    -0.413175889807E+03   -0.27957E-05   -0.23149E-04  5641   0.151E-02    0.136E-02
RMM:   8    -0.413175886527E+03    0.32800E-05   -0.48505E-05  4966   0.713E-03    0.930E-03
RMM:   9    -0.413175882269E+03    0.42582E-05   -0.10694E-05  3828   0.371E-03    0.706E-03
RMM:  10    -0.413175880705E+03    0.15638E-05   -0.15630E-06  2541   0.212E-03    0.446E-03
RMM:  11    -0.413175878562E+03    0.21430E-05   -0.17180E-06  2548   0.206E-03    0.220E-03
RMM:  12    -0.413175875615E+03    0.29475E-05   -0.12671E-06  2499   0.179E-03    0.844E-04
RMM:  13    -0.413175874966E+03    0.64844E-06   -0.39881E-07  2206   0.112E-03
   24 T=    63. E= -.41286689E+03 F= -.41317587E+03 E0= -.41315403E+03  EK= 0.30899E+00 SP= 0.00E+00 SK= 0.00E+00
       N       E                     dE             d eps       ncg     rms          rms(c)
RMM:   1    -0.413173460353E+03    0.24153E-02   -0.99755E+00  4297   0.763E-01    0.907E-01
RMM:   2    -0.413180204424E+03   -0.67441E-02   -0.12337E-01  4279   0.101E-01    0.657E-01
RMM:   3    -0.413177006033E+03    0.31984E-02   -0.12263E-02  4663   0.461E-02    0.106E-01
RMM:   4    -0.413194130250E+03   -0.17124E-01   -0.17545E-02  5143   0.110E-01    0.549E-01
RMM:   5    -0.413176747364E+03    0.17383E-01   -0.86432E-03  4818   0.909E-02    0.420E-02
RMM:   6    -0.413176831477E+03   -0.84113E-04   -0.15204E-03  5820   0.361E-02    0.247E-02
RMM:   7    -0.413176829280E+03    0.21964E-05   -0.16781E-04  5538   0.130E-02    0.113E-02
RMM:   8    -0.413176823929E+03    0.53510E-05   -0.27050E-05  4565   0.539E-03    0.778E-03
RMM:   9    -0.413176820665E+03    0.32642E-05   -0.35422E-06  2753   0.239E-03    0.484E-03
RMM:  10    -0.413176819618E+03    0.10473E-05   -0.10071E-06  2485   0.158E-03    0.364E-03
RMM:  11    -0.413176814772E+03    0.48458E-05   -0.18966E-06  2559   0.225E-03    0.195E-03
RMM:  12    -0.413176812471E+03    0.23013E-05   -0.78753E-07  2430   0.153E-03    0.107E-03
RMM:  13    -0.413176812039E+03    0.43133E-06   -0.27299E-07  2086   0.941E-04
   25 T=    63. E= -.41286666E+03 F= -.41317681E+03 E0= -.41315501E+03  EK= 0.31015E+00 SP= 0.00E+00 SK= 0.00E+00
       N       E                     dE             d eps       ncg     rms          rms(c)
RMM:   1    -0.413174752395E+03    0.20601E-02   -0.99821E+00  4295   0.750E-01    0.919E-01
RMM:   2    -0.413181025159E+03   -0.62728E-02   -0.12189E-01  4279   0.994E-02    0.651E-01
RMM:   3    -0.413178399716E+03    0.26254E-02   -0.12124E-02  4636   0.463E-02    0.116E-01
RMM:   4    -0.413195641657E+03   -0.17242E-01   -0.17674E-02  5145   0.111E-01    0.551E-01
RMM:   5    -0.413178148168E+03    0.17493E-01   -0.88208E-03  4823   0.912E-02    0.431E-02
RMM:   6    -0.413178221200E+03   -0.73031E-04   -0.14763E-03  5814   0.361E-02    0.255E-02
RMM:   7    -0.413178212510E+03    0.86900E-05   -0.17419E-04  5538   0.136E-02    0.117E-02
RMM:   8    -0.413178205836E+03    0.66737E-05   -0.29979E-05  4689   0.572E-03    0.811E-03
RMM:   9    -0.413178200745E+03    0.50906E-05   -0.65464E-06  3242   0.298E-03    0.608E-03
RMM:  10    -0.413178197058E+03    0.36875E-05   -0.13494E-06  2529   0.198E-03    0.388E-03
RMM:  11    -0.413178189222E+03    0.78361E-05   -0.18018E-06  2553   0.214E-03    0.186E-03
RMM:  12    -0.413178182318E+03    0.69038E-05   -0.95588E-07  2459   0.162E-03    0.994E-04
RMM:  13    -0.413178181482E+03    0.83552E-06   -0.30679E-07  2169   0.101E-03
   26 T=    63. E= -.41286666E+03 F= -.41317818E+03 E0= -.41315643E+03  EK= 0.31152E+00 SP= 0.00E+00 SK= 0.00E+00
       N       E                     dE             d eps       ncg     rms          rms(c)
RMM:   1    -0.413184546765E+03   -0.63644E-02   -0.10044E+01  4291   0.826E-01    0.897E-01
RMM:   2    -0.413182997763E+03    0.15490E-02   -0.13197E-01  4275   0.107E-01    0.654E-01
RMM:   3    -0.413180041442E+03    0.29563E-02   -0.11647E-02  4494   0.463E-02    0.111E-01
RMM:   4    -0.413189836353E+03   -0.97949E-02   -0.10207E-02  5148   0.842E-02    0.417E-01
RMM:   5    -0.413179937934E+03    0.98984E-02   -0.50422E-03  4838   0.687E-02    0.393E-02
RMM:   6    -0.413179967978E+03   -0.30044E-04   -0.90179E-04  5845   0.275E-02    0.215E-02
RMM:   7    -0.413179969354E+03   -0.13768E-05   -0.15439E-04  5480   0.127E-02    0.138E-02
RMM:   8    -0.413179956420E+03    0.12934E-04   -0.26332E-05  4573   0.582E-03    0.691E-03
RMM:   9    -0.413179954727E+03    0.16937E-05   -0.50829E-06  3008   0.284E-03    0.525E-03
RMM:  10    -0.413179951808E+03    0.29188E-05   -0.12529E-06  2492   0.193E-03    0.291E-03
RMM:  11    -0.413179948269E+03    0.35392E-05   -0.94039E-07  2478   0.161E-03    0.151E-03
RMM:  12    -0.413179944631E+03    0.36375E-05   -0.56315E-07  2345   0.123E-03    0.708E-04
RMM:  13    -0.413179943410E+03    0.12214E-05   -0.24568E-07  1880   0.860E-04    0.352E-04
RMM:  14    -0.413179941918E+03    0.14917E-05   -0.13811E-07  1380   0.707E-04    0.240E-04
RMM:  15    -0.413179938101E+03    0.38165E-05   -0.14970E-07  1544   0.730E-04    0.168E-04
RMM:  16    -0.413179937051E+03    0.10508E-05   -0.55339E-08   932   0.598E-04    0.129E-04
RMM:  17    -0.413179934396E+03    0.26548E-05   -0.61782E-08  1025   0.611E-04    0.887E-05
RMM:  18    -0.413179932239E+03    0.21564E-05   -0.49362E-08  1028   0.587E-04    0.356E-05
RMM:  19    -0.413179931366E+03    0.87315E-06   -0.21261E-08   771   0.540E-04
   27 T=    64. E= -.41286685E+03 F= -.41317993E+03 E0= -.41315823E+03  EK= 0.31308E+00 SP= 0.00E+00 SK= 0.00E+00
       N       E                     dE             d eps       ncg     rms          rms(c)
RMM:   1    -0.413177605279E+03    0.23270E-02   -0.10074E+01  4290   0.781E-01    0.907E-01
RMM:   2    -0.413184271056E+03   -0.66658E-02   -0.12569E-01  4275   0.105E-01    0.663E-01
RMM:   3    -0.413181372552E+03    0.28985E-02   -0.12674E-02  4699   0.517E-02    0.111E-01
RMM:   4    -0.413204350464E+03   -0.22978E-01   -0.23578E-02  5141   0.128E-01    0.633E-01
RMM:   5    -0.413181016458E+03    0.23334E-01   -0.11648E-02  4807   0.105E-01    0.444E-02
RMM:   6    -0.413181132892E+03   -0.11643E-03   -0.19248E-03  5833   0.415E-02    0.275E-02
RMM:   7    -0.413181134227E+03   -0.13348E-05   -0.25668E-04  5649   0.158E-02    0.147E-02
RMM:   8    -0.413181130350E+03    0.38767E-05   -0.55321E-05  4982   0.771E-03    0.939E-03
RMM:   9    -0.413181125434E+03    0.49165E-05   -0.11712E-05  3955   0.395E-03    0.688E-03
RMM:  10    -0.413181123791E+03    0.16431E-05   -0.16270E-06  2551   0.212E-03    0.427E-03
RMM:  11    -0.413181121837E+03    0.19535E-05   -0.14500E-06  2524   0.193E-03    0.214E-03
RMM:  12    -0.413181119067E+03    0.27704E-05   -0.12383E-06  2494   0.176E-03    0.836E-04
RMM:  13    -0.413181118281E+03    0.78621E-06   -0.40532E-07  2218   0.112E-03
   28 T=    64. E= -.41286666E+03 F= -.41318112E+03 E0= -.41315947E+03  EK= 0.31446E+00 SP= 0.00E+00 SK= 0.00E+00
       N       E                     dE             d eps       ncg     rms          rms(c)
RMM:   1    -0.413179731411E+03    0.13877E-02   -0.10099E+01  4292   0.777E-01    0.927E-01
RMM:   2    -0.413185990691E+03   -0.62593E-02   -0.12414E-01  4274   0.106E-01    0.658E-01
RMM:   3    -0.413183139714E+03    0.28510E-02   -0.12434E-02  4375   0.484E-02    0.107E-01
RMM:   4    -0.413187298680E+03   -0.41590E-02   -0.46395E-03  5149   0.569E-02    0.273E-01
RMM:   5    -0.413183133594E+03    0.41651E-02   -0.21705E-03  4830   0.453E-02    0.390E-02
RMM:   6    -0.413183149658E+03   -0.16065E-04   -0.56478E-04  5681   0.229E-02    0.269E-02
RMM:   7    -0.413183120812E+03    0.28846E-04   -0.22023E-04  5168   0.152E-02    0.152E-02
RMM:   8    -0.413183111248E+03    0.95640E-05   -0.15770E-05  3903   0.506E-03    0.601E-03
RMM:   9    -0.413183108196E+03    0.30523E-05   -0.21435E-06  2568   0.216E-03    0.389E-03
RMM:  10    -0.413183102102E+03    0.60935E-05   -0.11367E-06  2485   0.174E-03    0.203E-03
RMM:  11    -0.413183096845E+03    0.52576E-05   -0.63635E-07  2359   0.128E-03    0.954E-04
RMM:  12    -0.413183091660E+03    0.51849E-05   -0.38412E-07  2098   0.102E-03    0.346E-04
RMM:  13    -0.413183088184E+03    0.34762E-05   -0.21188E-07  1659   0.794E-04    0.247E-04
RMM:  14    -0.413183084285E+03    0.38981E-05   -0.12613E-07  1259   0.689E-04    0.158E-04
RMM:  15    -0.413183078921E+03    0.53646E-05   -0.11934E-07  1348   0.685E-04    0.875E-05
RMM:  16    -0.413183076722E+03    0.21990E-05   -0.62519E-08  1036   0.602E-04    0.651E-05
RMM:  17    -0.413183072549E+03    0.41732E-05   -0.81136E-08  1272   0.628E-04    0.354E-05
RMM:  18    -0.413183071944E+03    0.60498E-06   -0.28465E-08   787   0.527E-04
   29 T=    64. E= -.41286685E+03 F= -.41318307E+03 E0= -.41316147E+03  EK= 0.31623E+00 SP= 0.00E+00 SK= 0.00E+00
       N       E                     dE             d eps       ncg     rms          rms(c)
RMM:   1    -0.413181577508E+03    0.14950E-02   -0.10069E+01  4287   0.801E-01    0.907E-01
RMM:   2    -0.413188291585E+03   -0.67141E-02   -0.12536E-01  4274   0.113E-01    0.656E-01
RMM:   3    -0.413185078685E+03    0.32129E-02   -0.12375E-02  4512   0.520E-02    0.106E-01
RMM:   4    -0.413195833460E+03   -0.10755E-01   -0.11053E-02  5147   0.882E-02    0.437E-01
RMM:   5    -0.413184972534E+03    0.10861E-01   -0.55375E-03  4829   0.718E-02    0.403E-02
RMM:   6    -0.413185007766E+03   -0.35232E-04   -0.99289E-04  5841   0.293E-02    0.247E-02
RMM:   7    -0.413185008538E+03   -0.77214E-06   -0.22633E-04  5435   0.151E-02    0.163E-02
RMM:   8    -0.413184991784E+03    0.16754E-04   -0.29392E-05  4658   0.650E-03    0.737E-03
RMM:   9    -0.413184989684E+03    0.21001E-05   -0.54673E-06  3037   0.293E-03    0.537E-03
RMM:  10    -0.413184986111E+03    0.35722E-05   -0.14531E-06  2499   0.202E-03    0.298E-03
RMM:  11    -0.413184982546E+03    0.35653E-05   -0.92380E-07  2473   0.162E-03    0.151E-03
RMM:  12    -0.413184978940E+03    0.36056E-05   -0.61422E-07  2379   0.130E-03    0.787E-04
RMM:  13    -0.413184977334E+03    0.16068E-05   -0.27013E-07  1975   0.907E-04    0.335E-04
RMM:  14    -0.413184975726E+03    0.16078E-05   -0.14460E-07  1404   0.714E-04    0.209E-04
RMM:  15    -0.413184973162E+03    0.25639E-05   -0.10014E-07  1262   0.668E-04    0.958E-05
RMM:  16    -0.413184971074E+03    0.20878E-05   -0.62713E-08  1012   0.623E-04    0.771E-05
RMM:  17    -0.413184969595E+03    0.14795E-05   -0.41832E-08   915   0.596E-04    0.543E-05
RMM:  18    -0.413184966534E+03    0.30609E-05   -0.59553E-08  1124   0.619E-04    0.328E-05
RMM:  19    -0.413184965934E+03    0.59999E-06   -0.21133E-08   755   0.548E-04
   30 T=    65. E= -.41286681E+03 F= -.41318497E+03 E0= -.41316342E+03  EK= 0.31816E+00 SP= 0.00E+00 SK= 0.00E+00
       N       E                     dE             d eps       ncg     rms          rms(c)
RMM:   1    -0.413185349980E+03   -0.38345E-03   -0.10216E+01  4292   0.825E-01    0.910E-01
RMM:   2    -0.413190568163E+03   -0.52182E-02   -0.13044E-01  4277   0.118E-01    0.668E-01
RMM:   3    -0.413186739234E+03    0.38289E-02   -0.12928E-02  4491   0.584E-02    0.101E-01
RMM:   4    -0.413198046543E+03   -0.11307E-01   -0.11534E-02  5146   0.901E-02    0.448E-01
RMM:   5    -0.413186634539E+03    0.11412E-01   -0.57954E-03  4827   0.735E-02    0.400E-02
RMM:   6    -0.413186673667E+03   -0.39128E-04   -0.10197E-03  5838   0.298E-02    0.246E-02
RMM:   7    -0.413186679921E+03   -0.62538E-05   -0.22738E-04  5455   0.150E-02    0.162E-02
RMM:   8    -0.413186664300E+03    0.15621E-04   -0.30976E-05  4688   0.658E-03    0.735E-03
RMM:   9    -0.413186663229E+03    0.10705E-05   -0.57476E-06  3073   0.299E-03    0.537E-03
RMM:  10    -0.413186661426E+03    0.18035E-05   -0.14516E-06  2500   0.202E-03    0.298E-03
RMM:  11    -0.413186659562E+03    0.18636E-05   -0.92603E-07  2480   0.160E-03    0.152E-03
RMM:  12    -0.413186657472E+03    0.20899E-05   -0.64934E-07  2400   0.131E-03    0.803E-04
RMM:  13    -0.413186656430E+03    0.10421E-05   -0.26993E-07  1973   0.907E-04    0.349E-04
RMM:  14    -0.413186655348E+03    0.10817E-05   -0.14165E-07  1378   0.708E-04    0.222E-04
RMM:  15    -0.413186653402E+03    0.19466E-05   -0.10444E-07  1258   0.668E-04    0.101E-04
RMM:  16    -0.413186651833E+03    0.15688E-05   -0.61245E-08   964   0.618E-04    0.793E-05
RMM:  17    -0.413186650444E+03    0.13889E-05   -0.43641E-08   905   0.596E-04    0.544E-05
RMM:  18    -0.413186648091E+03    0.23533E-05   -0.50837E-08  1022   0.607E-04    0.312E-05
RMM:  19    -0.413186647487E+03    0.60335E-06   -0.19185E-08   734   0.553E-04
   31 T=    65. E= -.41286656E+03 F= -.41318665E+03 E0= -.41316515E+03  EK= 0.32009E+00 SP= 0.00E+00 SK= 0.00E+00
       N       E                     dE             d eps       ncg     rms          rms(c)
RMM:   1    -0.413185924620E+03    0.72347E-03   -0.10247E+01  4291   0.811E-01    0.933E-01
RMM:   2    -0.413192594719E+03   -0.66701E-02   -0.12802E-01  4283   0.122E-01    0.665E-01
RMM:   3    -0.413189252236E+03    0.33425E-02   -0.12780E-02  4383   0.560E-02    0.108E-01
RMM:   4    -0.413194285081E+03   -0.50328E-02   -0.55127E-03  5163   0.626E-02    0.300E-01
RMM:   5    -0.413189255078E+03    0.50300E-02   -0.25833E-03  4828   0.495E-02    0.395E-02
RMM:   6    -0.413189277017E+03   -0.21939E-04   -0.63347E-04  5718   0.241E-02    0.277E-02
RMM:   7    -0.413189255163E+03    0.21854E-04   -0.23743E-04  5197   0.155E-02    0.160E-02
RMM:   8    -0.413189243854E+03    0.11309E-04   -0.19060E-05  4290   0.555E-03    0.673E-03
RMM:   9    -0.413189241265E+03    0.25893E-05   -0.25956E-06  2639   0.224E-03    0.429E-03
RMM:  10    -0.413189235783E+03    0.54814E-05   -0.11780E-06  2490   0.176E-03    0.226E-03
RMM:  11    -0.413189230997E+03    0.47859E-05   -0.71877E-07  2415   0.136E-03    0.106E-03
RMM:  12    -0.413189226540E+03    0.44569E-05   -0.39930E-07  2143   0.105E-03    0.451E-04
RMM:  13    -0.413189223717E+03    0.28232E-05   -0.21231E-07  1711   0.806E-04    0.244E-04
RMM:  14    -0.413189220718E+03    0.29993E-05   -0.11235E-07  1206   0.677E-04    0.160E-04
RMM:  15    -0.413189216275E+03    0.44434E-05   -0.88059E-08  1169   0.657E-04    0.774E-05
RMM:  16    -0.413189214145E+03    0.21297E-05   -0.53411E-08   984   0.604E-04    0.652E-05
RMM:  17    -0.413189210777E+03    0.33676E-05   -0.58898E-08  1137   0.611E-04    0.410E-05
RMM:  18    -0.413189208712E+03    0.20647E-05   -0.37951E-08   971   0.567E-04    0.270E-05
RMM:  19    -0.413189208219E+03    0.49309E-06   -0.16568E-08   693   0.521E-04
   32 T=    66. E= -.41286692E+03 F= -.41318921E+03 E0= -.41316776E+03  EK= 0.32229E+00 SP= 0.00E+00 SK= 0.00E+00
       N       E                     dE             d eps       ncg     rms          rms(c)
RMM:   1    -0.413187656349E+03    0.15524E-02   -0.10221E+01  4291   0.824E-01    0.921E-01
RMM:   2    -0.413194436425E+03   -0.67801E-02   -0.12896E-01  4283   0.124E-01    0.661E-01
RMM:   3    -0.413191142328E+03    0.32941E-02   -0.12562E-02  4239   0.568E-02    0.105E-01
RMM:   4    -0.413191301105E+03   -0.15878E-03   -0.86918E-04  4883   0.201E-02    0.521E-02
RMM:   5    -0.413191260006E+03    0.41099E-04   -0.15562E-04  4877   0.122E-02    0.475E-02
RMM:   6    -0.413191229993E+03    0.30013E-04   -0.30614E-04  5244   0.171E-02    0.281E-02
RMM:   7    -0.413191189684E+03    0.40309E-04   -0.17742E-04  4847   0.135E-02    0.141E-02
RMM:   8    -0.413191186493E+03    0.31915E-05   -0.19545E-05  4187   0.477E-03    0.501E-03
RMM:   9    -0.413191185201E+03    0.12918E-05   -0.28057E-06  2430   0.204E-03    0.189E-03
RMM:  10    -0.413191177884E+03    0.73166E-05   -0.85185E-07  2354   0.140E-03    0.787E-04
RMM:  11    -0.413191174026E+03    0.38585E-05   -0.20269E-07  1591   0.779E-04    0.423E-04
RMM:  12    -0.413191170630E+03    0.33953E-05   -0.12638E-07  1288   0.688E-04    0.235E-04
RMM:  13    -0.413191166820E+03    0.38102E-05   -0.11514E-07  1326   0.672E-04    0.151E-04
RMM:  14    -0.413191161914E+03    0.49060E-05   -0.89598E-08  1083   0.636E-04    0.134E-04
RMM:  15    -0.413191159519E+03    0.23954E-05   -0.33641E-08   678   0.561E-04    0.741E-05
RMM:  16    -0.413191156181E+03    0.33379E-05   -0.41413E-08   837   0.583E-04    0.431E-05
RMM:  17    -0.413191155232E+03    0.94912E-06   -0.15656E-08   583   0.529E-04
   33 T=    66. E= -.41286677E+03 F= -.41319116E+03 E0= -.41316975E+03  EK= 0.32438E+00 SP= 0.00E+00 SK= 0.00E+00
       N       E                     dE             d eps       ncg     rms          rms(c)
RMM:   1    -0.413192542846E+03   -0.13867E-02   -0.10355E+01  4300   0.878E-01    0.915E-01
RMM:   2    -0.413197038578E+03   -0.44957E-02   -0.13651E-01  4280   0.131E-01    0.674E-01
RMM:   3    -0.413193541070E+03    0.34975E-02   -0.12889E-02  4236   0.614E-02    0.975E-02
RMM:   4    -0.413193848878E+03   -0.30781E-03   -0.99724E-04  5038   0.226E-02    0.740E-02
RMM:   5    -0.413193610065E+03    0.23881E-03   -0.19407E-04  4754   0.139E-02    0.398E-02
RMM:   6    -0.413193618712E+03   -0.86473E-05   -0.30298E-04  5307   0.169E-02    0.268E-02
RMM:   7    -0.413193587311E+03    0.31401E-04   -0.17740E-04  4822   0.133E-02    0.169E-02
RMM:   8    -0.413193582657E+03    0.46541E-05   -0.20942E-05  4020   0.469E-03    0.538E-03
RMM:   9    -0.413193582254E+03    0.40301E-06   -0.26650E-06  2436   0.206E-03
   34 T=    67. E= -.41286678E+03 F= -.41319358E+03 E0= -.41317223E+03  EK= 0.32680E+00 SP= 0.00E+00 SK= 0.00E+00
       N       E                     dE             d eps       ncg     rms          rms(c)
RMM:   1    -0.413198793265E+03   -0.52106E-02   -0.10470E+01  4304   0.929E-01    0.938E-01
RMM:   2    -0.413199355306E+03   -0.56204E-03   -0.13460E-01  4274   0.131E-01    0.674E-01
RMM:   3    -0.413196342935E+03    0.30124E-02   -0.13010E-02  4521   0.624E-02    0.114E-01
RMM:   4    -0.413208221751E+03   -0.11879E-01   -0.12171E-02  5168   0.934E-02    0.460E-01
RMM:   5    -0.413196300078E+03    0.11922E-01   -0.60805E-03  4821   0.763E-02    0.433E-02
RMM:   6    -0.413196297821E+03    0.22565E-05   -0.11321E-03  5763   0.330E-02    0.314E-02
RMM:   7    -0.413196289614E+03    0.82074E-05   -0.30607E-04  5416   0.168E-02    0.170E-02
RMM:   8    -0.413196275764E+03    0.13850E-04   -0.32101E-05  4770   0.662E-03    0.740E-03
RMM:   9    -0.413196272669E+03    0.30953E-05   -0.53100E-06  3002   0.282E-03    0.459E-03
RMM:  10    -0.413196266717E+03    0.59521E-05   -0.12699E-06  2505   0.193E-03    0.243E-03
RMM:  11    -0.413196260259E+03    0.64580E-05   -0.91737E-07  2485   0.155E-03    0.122E-03
RMM:  12    -0.413196254137E+03    0.61221E-05   -0.53733E-07  2303   0.121E-03    0.578E-04
RMM:  13    -0.413196251430E+03    0.27063E-05   -0.25354E-07  1883   0.868E-04    0.317E-04
RMM:  14    -0.413196248382E+03    0.30484E-05   -0.13347E-07  1305   0.699E-04    0.188E-04
RMM:  15    -0.413196242736E+03    0.56465E-05   -0.10586E-07  1227   0.676E-04    0.998E-05
RMM:  16    -0.413196239580E+03    0.31557E-05   -0.68850E-08  1076   0.625E-04    0.881E-05
RMM:  17    -0.413196235840E+03    0.37395E-05   -0.60111E-08  1144   0.620E-04    0.649E-05
RMM:  18    -0.413196232596E+03    0.32447E-05   -0.49263E-08  1100   0.594E-04    0.314E-05
RMM:  19    -0.413196231757E+03    0.83821E-06   -0.21912E-08   764   0.527E-04
   35 T=    67. E= -.41286688E+03 F= -.41319623E+03 E0= -.41317492E+03  EK= 0.32935E+00 SP= 0.00E+00 SK= 0.00E+00
       N       E                     dE             d eps       ncg     rms          rms(c)
RMM:   1    -0.413196631668E+03   -0.39907E-03   -0.10429E+01  4302   0.898E-01    0.937E-01
RMM:   2    -0.413201224723E+03   -0.45931E-02   -0.13394E-01  4261   0.132E-01    0.669E-01
RMM:   3    -0.413198422700E+03    0.28020E-02   -0.12882E-02  4503   0.624E-02    0.120E-01
RMM:   4    -0.413210173059E+03   -0.11750E-01   -0.12017E-02  5171   0.924E-02    0.457E-01
RMM:   5    -0.413198369679E+03    0.11803E-01   -0.60037E-03  4820   0.758E-02    0.429E-02
RMM:   6    -0.413198377587E+03   -0.79081E-05   -0.11450E-03  5800   0.327E-02    0.294E-02
RMM:   7    -0.413198374801E+03    0.27863E-05   -0.30210E-04  5400   0.170E-02    0.182E-02
RMM:   8    -0.413198357388E+03    0.17413E-04   -0.35106E-05  4861   0.708E-03    0.817E-03
RMM:   9    -0.413198354469E+03    0.29185E-05   -0.59469E-06  3076   0.305E-03    0.530E-03
RMM:  10    -0.413198348861E+03    0.56079E-05   -0.14581E-06  2515   0.208E-03    0.283E-03
RMM:  11    -0.413198343037E+03    0.58244E-05   -0.10278E-06  2490   0.167E-03    0.143E-03
RMM:  12    -0.413198337075E+03    0.59617E-05   -0.63733E-07  2393   0.133E-03    0.725E-04
RMM:  13    -0.413198334305E+03    0.27703E-05   -0.29029E-07  2011   0.934E-04    0.364E-04
RMM:  14    -0.413198331906E+03    0.23991E-05   -0.14611E-07  1428   0.720E-04    0.223E-04
RMM:  15    -0.413198327687E+03    0.42186E-05   -0.93991E-08  1203   0.666E-04    0.987E-05
RMM:  16    -0.413198324474E+03    0.32133E-05   -0.62872E-08  1046   0.630E-04    0.752E-05
RMM:  17    -0.413198321928E+03    0.25456E-05   -0.48035E-08  1029   0.606E-04    0.604E-05
RMM:  18    -0.413198317877E+03    0.40510E-05   -0.53029E-08  1192   0.614E-04    0.352E-05
RMM:  19    -0.413198316705E+03    0.11720E-05   -0.23862E-08   823   0.540E-04    0.256E-05
RMM:  20    -0.413198316372E+03    0.33359E-06   -0.12088E-08   676   0.516E-04
   36 T=    68. E= -.41286662E+03 F= -.41319832E+03 E0= -.41317705E+03  EK= 0.33169E+00 SP= 0.00E+00 SK= 0.00E+00
       N       E                     dE             d eps       ncg     rms          rms(c)
RMM:   1    -0.413209002838E+03   -0.10686E-01   -0.10597E+01  4303   0.998E-01    0.921E-01
RMM:   2    -0.413205071220E+03    0.39316E-02   -0.15557E-01  4262   0.140E-01    0.680E-01
RMM:   3    -0.413201472500E+03    0.35987E-02   -0.11958E-02  4631   0.590E-02    0.143E-01
RMM:   4    -0.413224608185E+03   -0.23136E-01   -0.23533E-02  5156   0.129E-01    0.636E-01
RMM:   5    -0.413201268940E+03    0.23339E-01   -0.11825E-02  4808   0.106E-01    0.463E-02
RMM:   6    -0.413201295275E+03   -0.26335E-04   -0.19599E-03  5852   0.420E-02    0.293E-02
RMM:   7    -0.413201307981E+03   -0.12706E-04   -0.30152E-04  5602   0.166E-02    0.166E-02
RMM:   8    -0.413201296420E+03    0.11560E-04   -0.57720E-05  4996   0.810E-03    0.918E-03
RMM:   9    -0.413201295132E+03    0.12886E-05   -0.13799E-05  4161   0.440E-03    0.650E-03
RMM:  10    -0.413201291718E+03    0.34132E-05   -0.18905E-06  2591   0.228E-03    0.375E-03
RMM:  11    -0.413201289448E+03    0.22707E-05   -0.99515E-07  2491   0.163E-03    0.225E-03
RMM:  12    -0.413201284391E+03    0.50563E-05   -0.14288E-06  2511   0.189E-03    0.113E-03
RMM:  13    -0.413201282001E+03    0.23907E-05   -0.50670E-07  2299   0.124E-03    0.654E-04
RMM:  14    -0.413201281642E+03    0.35872E-06   -0.21563E-07  1791   0.824E-04
   37 T=    68. E= -.41286695E+03 F= -.41320128E+03 E0= -.41318006E+03  EK= 0.33433E+00 SP= 0.00E+00 SK= 0.00E+00
       N       E                     dE             d eps       ncg     rms          rms(c)
RMM:   1    -0.413223496630E+03   -0.22215E-01   -0.10822E+01  4307   0.111E+00    0.941E-01
RMM:   2    -0.413207701496E+03    0.15795E-01   -0.15809E-01  4261   0.136E-01    0.686E-01
RMM:   3    -0.413204026739E+03    0.36748E-02   -0.12215E-02  4727   0.555E-02    0.153E-01
RMM:   4    -0.413233844003E+03   -0.29817E-01   -0.30496E-02  5153   0.146E-01    0.720E-01
RMM:   5    -0.413203666035E+03    0.30178E-01   -0.15305E-02  4804   0.120E-01    0.491E-02
RMM:   6    -0.413203714222E+03   -0.48187E-04   -0.24577E-03  5847   0.471E-02    0.312E-02
RMM:   7    -0.413203725032E+03   -0.10810E-04   -0.34135E-04  5674   0.175E-02    0.168E-02
RMM:   8    -0.413203714806E+03    0.10226E-04   -0.60809E-05  5017   0.815E-03    0.983E-03
RMM:   9    -0.413203712549E+03    0.22573E-05   -0.18164E-05  4452   0.477E-03    0.706E-03
RMM:  10    -0.413203706967E+03    0.55823E-05   -0.23013E-06  2626   0.246E-03    0.407E-03
RMM:  11    -0.413203703614E+03    0.33526E-05   -0.11890E-06  2503   0.176E-03    0.248E-03
RMM:  12    -0.413203695483E+03    0.81309E-05   -0.16380E-06  2525   0.206E-03    0.123E-03
RMM:  13    -0.413203691827E+03    0.36563E-05   -0.59117E-07  2360   0.136E-03    0.788E-04
RMM:  14    -0.413203691513E+03    0.31350E-06   -0.23810E-07  1945   0.875E-04
   38 T=    69. E= -.41286683E+03 F= -.41320369E+03 E0= -.41318251E+03  EK= 0.33687E+00 SP= 0.00E+00 SK= 0.00E+00
       N       E                     dE             d eps       ncg     rms          rms(c)
RMM:   1    -0.413205766389E+03   -0.20746E-02   -0.10646E+01  4307   0.100E+00    0.953E-01
RMM:   2    -0.413209935034E+03   -0.41686E-02   -0.13930E-01  4262   0.124E-01    0.679E-01
RMM:   3    -0.413206854504E+03    0.30805E-02   -0.13300E-02  4899   0.558E-02    0.160E-01
RMM:   4    -0.413247502857E+03   -0.40648E-01   -0.43052E-02  5137   0.173E-01    0.838E-01
RMM:   5    -0.413206143110E+03    0.41360E-01   -0.20628E-02  4794   0.140E-01    0.544E-02
RMM:   6    -0.413206241762E+03   -0.98652E-04   -0.33546E-03  5829   0.545E-02    0.338E-02
RMM:   7    -0.413206249363E+03   -0.76008E-05   -0.41226E-04  5690   0.187E-02    0.175E-02
RMM:   8    -0.413206238978E+03    0.10385E-04   -0.52788E-05  4861   0.737E-03    0.925E-03
RMM:   9    -0.413206236865E+03    0.21128E-05   -0.20893E-05  4471   0.465E-03    0.778E-03
RMM:  10    -0.413206229225E+03    0.76398E-05   -0.38842E-06  2855   0.281E-03    0.437E-03
RMM:  11    -0.413206223862E+03    0.53630E-05   -0.17353E-06  2532   0.209E-03    0.261E-03
RMM:  12    -0.413206211989E+03    0.11873E-04   -0.18931E-06  2535   0.225E-03    0.121E-03
RMM:  13    -0.413206208168E+03    0.38207E-05   -0.57157E-07  2414   0.141E-03    0.768E-04
RMM:  14    -0.413206208119E+03    0.49098E-07   -0.24278E-07  1992   0.889E-04
   39 T=    69. E= -.41286675E+03 F= -.41320621E+03 E0= -.41318507E+03  EK= 0.33946E+00 SP= 0.00E+00 SK= 0.00E+00
       N       E                     dE             d eps       ncg     rms          rms(c)
RMM:   1    -0.413231616143E+03   -0.25408E-01   -0.10897E+01  4311   0.118E+00    0.931E-01
RMM:   2    -0.413213415890E+03    0.18200E-01   -0.16627E-01  4264   0.136E-01    0.686E-01
RMM:   3    -0.413210205257E+03    0.32106E-02   -0.12178E-02  4979   0.591E-02    0.204E-01
RMM:   4    -0.413263408112E+03   -0.53203E-01   -0.58366E-02  5133   0.201E-01    0.955E-01
RMM:   5    -0.413208943410E+03    0.54465E-01   -0.26832E-02  4788   0.161E-01    0.596E-02
RMM:   6    -0.413209105180E+03   -0.16177E-03   -0.43626E-03  5820   0.620E-02    0.357E-02
RMM:   7    -0.413209117283E+03   -0.12104E-04   -0.52635E-04  5797   0.206E-02    0.207E-02
RMM:   8    -0.413209118907E+03   -0.16240E-05   -0.11436E-04  5239   0.105E-02    0.134E-02
RMM:   9    -0.413209106469E+03    0.12438E-04   -0.28903E-05  4750   0.605E-03    0.716E-03
RMM:  10    -0.413209102137E+03    0.43322E-05   -0.48284E-06  2865   0.299E-03    0.442E-03
RMM:  11    -0.413209098583E+03    0.35538E-05   -0.16408E-06  2507   0.210E-03    0.265E-03
RMM:  12    -0.413209091151E+03    0.74323E-05   -0.15334E-06  2513   0.206E-03    0.945E-04
RMM:  13    -0.413209086886E+03    0.42648E-05   -0.66861E-07  2421   0.142E-03    0.697E-04
RMM:  14    -0.413209086333E+03    0.55319E-06   -0.28754E-07  2057   0.947E-04
   40 T=    70. E= -.41286695E+03 F= -.41320909E+03 E0= -.41318798E+03  EK= 0.34214E+00 SP= 0.00E+00 SK= 0.00E+00
       N       E                     dE             d eps       ncg     rms          rms(c)
RMM:   1    -0.413224702302E+03   -0.15615E-01   -0.10937E+01  4312   0.116E+00    0.945E-01
RMM:   2    -0.413215530488E+03    0.91718E-02   -0.16475E-01  4266   0.141E-01    0.695E-01
RMM:   3    -0.413212828382E+03    0.27021E-02   -0.13281E-02  5014   0.641E-02    0.226E-01
RMM:   4    -0.413267413701E+03   -0.54585E-01   -0.63055E-02  5126   0.209E-01    0.971E-01
RMM:   5    -0.413210979464E+03    0.56434E-01   -0.27161E-02  4775   0.163E-01    0.616E-02
RMM:   6    -0.413211148612E+03   -0.16915E-03   -0.45227E-03  5805   0.631E-02    0.360E-02
RMM:   7    -0.413211165257E+03   -0.16645E-04   -0.55973E-04  5808   0.211E-02    0.222E-02
RMM:   8    -0.413211165528E+03   -0.27119E-06   -0.12872E-04  5260   0.111E-02    0.142E-02
RMM:   9    -0.413211151433E+03    0.14095E-04   -0.27617E-05  4698   0.615E-03    0.680E-03
RMM:  10    -0.413211147416E+03    0.40167E-05   -0.55690E-06  2994   0.306E-03    0.421E-03
RMM:  11    -0.413211144147E+03    0.32697E-05   -0.15655E-06  2503   0.208E-03    0.250E-03
RMM:  12    -0.413211137576E+03    0.65706E-05   -0.13674E-06  2498   0.195E-03    0.879E-04
RMM:  13    -0.413211133599E+03    0.39767E-05   -0.63065E-07  2409   0.137E-03    0.600E-04
RMM:  14    -0.413211132842E+03    0.75787E-06   -0.28527E-07  2039   0.936E-04
   41 T=    70. E= -.41286666E+03 F= -.41321113E+03 E0= -.41319006E+03  EK= 0.34447E+00 SP= 0.00E+00 SK= 0.00E+00
       N       E                     dE             d eps       ncg     rms          rms(c)
RMM:   1    -0.413216132570E+03   -0.49990E-02   -0.10851E+01  4312   0.116E+00    0.967E-01
RMM:   2    -0.413217312488E+03   -0.11799E-02   -0.14729E-01  4297   0.135E-01    0.688E-01
RMM:   3    -0.413216796228E+03    0.51626E-03   -0.15558E-02  5066   0.742E-02    0.272E-01
RMM:   4    -0.413257008150E+03   -0.40212E-01   -0.54611E-02  5093   0.196E-01    0.857E-01
RMM:   5    -0.413213550385E+03    0.43458E-01   -0.19571E-02  4750   0.143E-01    0.605E-02
RMM:   6    -0.413213639216E+03   -0.88831E-04   -0.34465E-03  5779   0.554E-02    0.355E-02
RMM:   7    -0.413213643925E+03   -0.47097E-05   -0.47005E-04  5756   0.199E-02    0.221E-02
RMM:   8    -0.413213640689E+03    0.32366E-05   -0.12895E-04  5213   0.115E-02    0.133E-02
RMM:   9    -0.413213624959E+03    0.15730E-04   -0.22085E-05  4517   0.583E-03    0.568E-03
RMM:  10    -0.413213619041E+03    0.59174E-05   -0.48987E-06  2938   0.282E-03    0.357E-03
RMM:  11    -0.413213613605E+03    0.54363E-05   -0.12548E-06  2494   0.192E-03    0.199E-03
RMM:  12    -0.413213604248E+03    0.93570E-05   -0.91454E-07  2466   0.165E-03    0.755E-04
RMM:  13    -0.413213598760E+03    0.54878E-05   -0.43479E-07  2298   0.116E-03    0.406E-04
RMM:  14    -0.413213596892E+03    0.18681E-05   -0.22035E-07  1836   0.834E-04    0.280E-04
RMM:  15    -0.413213592152E+03    0.47396E-05   -0.13037E-07  1401   0.711E-04    0.137E-04
RMM:  16    -0.413213587212E+03    0.49409E-05   -0.91083E-08  1229   0.666E-04    0.143E-04
RMM:  17    -0.413213583707E+03    0.35050E-05   -0.63613E-08  1131   0.629E-04    0.974E-05
RMM:  18    -0.413213580249E+03    0.34575E-05   -0.58222E-08  1235   0.620E-04    0.649E-05
RMM:  19    -0.413213577377E+03    0.28723E-05   -0.39039E-08  1076   0.585E-04    0.402E-05
RMM:  20    -0.413213576861E+03    0.51622E-06   -0.19216E-08   782   0.535E-04
   42 T=    71. E= -.41286682E+03 F= -.41321358E+03 E0= -.41319254E+03  EK= 0.34676E+00 SP= 0.00E+00 SK= 0.00E+00
       N       E                     dE             d eps       ncg     rms          rms(c)
RMM:   1    -0.413240061809E+03   -0.26484E-01   -0.11035E+01  4312   0.133E+00    0.944E-01
RMM:   2    -0.413219453002E+03    0.20609E-01   -0.16978E-01  4300   0.148E-01    0.690E-01
RMM:   3    -0.413220181317E+03   -0.72832E-03   -0.15358E-02  5077   0.818E-02    0.328E-01
RMM:   4    -0.413256455417E+03   -0.36274E-01   -0.55495E-02  5088   0.199E-01    0.834E-01
RMM:   5    -0.413215533446E+03    0.40922E-01   -0.17920E-02  4729   0.139E-01    0.618E-02
RMM:   6    -0.413215589517E+03   -0.56071E-04   -0.31580E-03  5739   0.536E-02    0.351E-02
RMM:   7    -0.413215593385E+03   -0.38678E-05   -0.46741E-04  5771   0.197E-02    0.232E-02
RMM:   8    -0.413215590148E+03    0.32369E-05   -0.12522E-04  5188   0.115E-02    0.122E-02
RMM:   9    -0.413215577785E+03    0.12363E-04   -0.21020E-05  4489   0.574E-03    0.479E-03
RMM:  10    -0.413215574488E+03    0.32968E-05   -0.43804E-06  2844   0.263E-03    0.303E-03
RMM:  11    -0.413215570506E+03    0.39819E-05   -0.12836E-06  2496   0.187E-03    0.164E-03
RMM:  12    -0.413215565207E+03    0.52992E-05   -0.73784E-07  2447   0.147E-03    0.629E-04
RMM:  13    -0.413215562081E+03    0.31259E-05   -0.36777E-07  2108   0.103E-03    0.295E-04
RMM:  14    -0.413215559875E+03    0.22063E-05   -0.20083E-07  1619   0.797E-04    0.190E-04
RMM:  15    -0.413215555838E+03    0.40368E-05   -0.13949E-07  1323   0.717E-04    0.110E-04
RMM:  16    -0.413215553603E+03    0.22349E-05   -0.87238E-08  1150   0.659E-04    0.815E-05
RMM:  17    -0.413215550849E+03    0.27534E-05   -0.73906E-08  1193   0.646E-04    0.486E-05
RMM:  18    -0.413215548387E+03    0.24621E-05   -0.54100E-08  1106   0.615E-04    0.360E-05
RMM:  19    -0.413215546688E+03    0.16991E-05   -0.38435E-08   994   0.580E-04    0.234E-05
RMM:  20    -0.413215546253E+03    0.43475E-06   -0.18784E-08   761   0.543E-04
   43 T=    71. E= -.41286690E+03 F= -.41321555E+03 E0= -.41319453E+03  EK= 0.34865E+00 SP= 0.00E+00 SK= 0.00E+00
       N       E                     dE             d eps       ncg     rms          rms(c)
RMM:   1    -0.413230767875E+03   -0.15221E-01   -0.11037E+01  4312   0.134E+00    0.948E-01
RMM:   2    -0.413220873551E+03    0.98943E-02   -0.16191E-01  4300   0.159E-01    0.701E-01
RMM:   3    -0.413222524402E+03   -0.16509E-02   -0.17646E-02  5075   0.913E-02    0.350E-01
RMM:   4    -0.413254818821E+03   -0.32294E-01   -0.54765E-02  5065   0.199E-01    0.803E-01
RMM:   5    -0.413216688098E+03    0.38131E-01   -0.15953E-02  4712   0.133E-01    0.606E-02
RMM:   6    -0.413216726431E+03   -0.38333E-04   -0.29055E-03  5720   0.512E-02    0.341E-02
RMM:   7    -0.413216727915E+03   -0.14838E-05   -0.42649E-04  5753   0.191E-02    0.225E-02
RMM:   8    -0.413216724406E+03    0.35087E-05   -0.11677E-04  5161   0.112E-02    0.115E-02
RMM:   9    -0.413216714243E+03    0.10163E-04   -0.19226E-05  4397   0.558E-03    0.457E-03
RMM:  10    -0.413216711908E+03    0.23343E-05   -0.39074E-06  2793   0.253E-03    0.286E-03
RMM:  11    -0.413216708835E+03    0.30732E-05   -0.12739E-06  2497   0.184E-03    0.154E-03
RMM:  12    -0.413216704814E+03    0.40211E-05   -0.74214E-07  2432   0.144E-03    0.615E-04
RMM:  13    -0.413216702375E+03    0.24389E-05   -0.36874E-07  2052   0.101E-03    0.285E-04
RMM:  14    -0.413216700445E+03    0.19305E-05   -0.20627E-07  1561   0.788E-04    0.177E-04
RMM:  15    -0.413216696863E+03    0.35820E-05   -0.15535E-07  1326   0.723E-04    0.110E-04
RMM:  16    -0.413216695108E+03    0.17543E-05   -0.93014E-08  1124   0.658E-04    0.795E-05
RMM:  17    -0.413216692506E+03    0.26021E-05   -0.80489E-08  1201   0.655E-04    0.469E-05
RMM:  18    -0.413216690522E+03    0.19846E-05   -0.58325E-08  1104   0.614E-04    0.365E-05
RMM:  19    -0.413216689143E+03    0.13786E-05   -0.35426E-08   903   0.573E-04    0.205E-05
RMM:  20    -0.413216688587E+03    0.55553E-06   -0.21031E-08   769   0.549E-04
   44 T=    71. E= -.41286673E+03 F= -.41321669E+03 E0= -.41319570E+03  EK= 0.34996E+00 SP= 0.00E+00 SK= 0.00E+00
       N       E                     dE             d eps       ncg     rms          rms(c)
RMM:   1    -0.413247854453E+03   -0.31165E-01   -0.11183E+01  4311   0.148E+00    0.972E-01
RMM:   2    -0.413221530281E+03    0.26324E-01   -0.16910E-01  4314   0.168E-01    0.698E-01
RMM:   3    -0.413227364115E+03   -0.58338E-02   -0.20336E-02  5123   0.106E-01    0.440E-01
RMM:   4    -0.413243132949E+03   -0.15769E-01   -0.45953E-02  5046   0.185E-01    0.661E-01
RMM:   5    -0.413218013871E+03    0.25119E-01   -0.96067E-03  4650   0.111E-01    0.587E-02
RMM:   6    -0.413217989246E+03    0.24624E-04   -0.19366E-03  5590   0.426E-02    0.336E-02
RMM:   7    -0.413217984834E+03    0.44128E-05   -0.33295E-04  5637   0.177E-02    0.223E-02
RMM:   8    -0.413217976917E+03    0.79166E-05   -0.11823E-04  5080   0.114E-02    0.105E-02
RMM:   9    -0.413217963809E+03    0.13108E-04   -0.15905E-05  4302   0.545E-03    0.426E-03
RMM:  10    -0.413217960015E+03    0.37935E-05   -0.29316E-06  2719   0.231E-03    0.249E-03
RMM:  11    -0.413217954027E+03    0.59886E-05   -0.11698E-06  2481   0.179E-03    0.136E-03
RMM:  12    -0.413217948016E+03    0.60114E-05   -0.60394E-07  2412   0.134E-03    0.639E-04
RMM:  13    -0.413217944314E+03    0.37016E-05   -0.28902E-07  1886   0.925E-04    0.299E-04
RMM:  14    -0.413217940810E+03    0.35044E-05   -0.16384E-07  1417   0.734E-04    0.164E-04
RMM:  15    -0.413217935828E+03    0.49820E-05   -0.12518E-07  1280   0.697E-04    0.121E-04
RMM:  16    -0.413217932945E+03    0.28830E-05   -0.81327E-08  1129   0.645E-04    0.955E-05
RMM:  17    -0.413217928083E+03    0.48619E-05   -0.88648E-08  1433   0.665E-04    0.699E-05
RMM:  18    -0.413217926184E+03    0.18982E-05   -0.42548E-08   960   0.563E-04    0.433E-05
RMM:  19    -0.413217924740E+03    0.14447E-05   -0.30870E-08   875   0.547E-04    0.231E-05
RMM:  20    -0.413217924252E+03    0.48819E-06   -0.18117E-08   741   0.524E-04
   45 T=    71. E= -.41286713E+03 F= -.41321792E+03 E0= -.41319696E+03  EK= 0.35080E+00 SP= 0.00E+00 SK= 0.00E+00
       N       E                     dE             d eps       ncg     rms          rms(c)
RMM:   1    -0.413262462845E+03   -0.44538E-01   -0.11220E+01  4311   0.161E+00    0.954E-01
RMM:   2    -0.413221306612E+03    0.41156E-01   -0.17797E-01  4338   0.181E-01    0.693E-01
RMM:   3    -0.413229711581E+03   -0.84050E-02   -0.21770E-02  5119   0.116E-01    0.497E-01
RMM:   4    -0.413238266247E+03   -0.85547E-02   -0.43756E-02  5029   0.182E-01    0.604E-01
RMM:   5    -0.413217724918E+03    0.20541E-01   -0.76298E-03  4610   0.103E-01    0.578E-02
RMM:   6    -0.413217676402E+03    0.48516E-04   -0.15327E-03  5440   0.386E-02    0.323E-02
RMM:   7    -0.413217672989E+03    0.34130E-05   -0.28045E-04  5608   0.164E-02    0.218E-02
RMM:   8    -0.413217664518E+03    0.84713E-05   -0.12474E-04  5074   0.116E-02    0.102E-02
RMM:   9    -0.413217651300E+03    0.13218E-04   -0.15774E-05  4299   0.554E-03    0.413E-03
RMM:  10    -0.413217648194E+03    0.31057E-05   -0.27790E-06  2697   0.223E-03    0.237E-03
RMM:  11    -0.413217642473E+03    0.57204E-05   -0.12372E-06  2488   0.180E-03    0.130E-03
RMM:  12    -0.413217637725E+03    0.47482E-05   -0.57585E-07  2417   0.132E-03    0.671E-04
RMM:  13    -0.413217634206E+03    0.35193E-05   -0.27705E-07  1819   0.911E-04    0.321E-04
RMM:  14    -0.413217630708E+03    0.34982E-05   -0.15736E-07  1377   0.724E-04    0.170E-04
RMM:  15    -0.413217626669E+03    0.40389E-05   -0.11538E-07  1234   0.678E-04    0.118E-04
RMM:  16    -0.413217623914E+03    0.27545E-05   -0.78170E-08  1120   0.635E-04    0.989E-05
RMM:  17    -0.413217619627E+03    0.42876E-05   -0.81013E-08  1334   0.651E-04    0.658E-05
RMM:  18    -0.413217617585E+03    0.20412E-05   -0.42321E-08   974   0.565E-04    0.464E-05
RMM:  19    -0.413217616593E+03    0.99219E-06   -0.26115E-08   834   0.532E-04
   46 T=    71. E= -.41286710E+03 F= -.41321762E+03 E0= -.41319667E+03  EK= 0.35051E+00 SP= 0.00E+00 SK= 0.00E+00
       N       E                     dE             d eps       ncg     rms          rms(c)
RMM:   1    -0.413243485701E+03   -0.25868E-01   -0.11048E+01  4311   0.161E+00    0.940E-01
RMM:   2    -0.413220625203E+03    0.22860E-01   -0.18735E-01  4354   0.192E-01    0.705E-01
RMM:   3    -0.413230002016E+03   -0.93768E-02   -0.22471E-02  5116   0.123E-01    0.527E-01
RMM:   4    -0.413237766484E+03   -0.77645E-02   -0.46432E-02  5023   0.188E-01    0.613E-01
RMM:   5    -0.413216525860E+03    0.21241E-01   -0.79434E-03  4604   0.106E-01    0.597E-02
RMM:   6    -0.413216459376E+03    0.66484E-04   -0.15397E-03  5420   0.390E-02    0.321E-02
RMM:   7    -0.413216455282E+03    0.40940E-05   -0.27451E-04  5634   0.163E-02    0.224E-02
RMM:   8    -0.413216445424E+03    0.98580E-05   -0.12949E-04  5100   0.118E-02    0.104E-02
RMM:   9    -0.413216432887E+03    0.12537E-04   -0.17808E-05  4385   0.578E-03    0.417E-03
RMM:  10    -0.413216430783E+03    0.21036E-05   -0.30135E-06  2730   0.228E-03    0.240E-03
RMM:  11    -0.413216426845E+03    0.39377E-05   -0.14053E-06  2506   0.188E-03    0.135E-03
RMM:  12    -0.413216423775E+03    0.30701E-05   -0.61333E-07  2433   0.136E-03    0.725E-04
RMM:  13    -0.413216421009E+03    0.27664E-05   -0.31144E-07  1859   0.941E-04    0.348E-04
RMM:  14    -0.413216418346E+03    0.26633E-05   -0.17811E-07  1401   0.745E-04    0.176E-04
RMM:  15    -0.413216415619E+03    0.27272E-05   -0.12878E-07  1231   0.686E-04    0.110E-04
RMM:  16    -0.413216413394E+03    0.22244E-05   -0.92674E-08  1190   0.646E-04    0.965E-05
RMM:  17    -0.413216410627E+03    0.27667E-05   -0.81068E-08  1225   0.634E-04    0.532E-05
RMM:  18    -0.413216408588E+03    0.20398E-05   -0.52800E-08  1018   0.582E-04    0.437E-05
RMM:  19    -0.413216407886E+03    0.70180E-06   -0.27290E-08   800   0.536E-04
   47 T=    71. E= -.41286717E+03 F= -.41321641E+03 E0= -.41319547E+03  EK= 0.34923E+00 SP= 0.00E+00 SK= 0.00E+00
       N       E                     dE             d eps       ncg     rms          rms(c)
RMM:   1    -0.413242358727E+03   -0.25950E-01   -0.10960E+01  4306   0.172E+00    0.962E-01
RMM:   2    -0.413217809672E+03    0.24549E-01   -0.17462E-01  4410   0.201E-01    0.699E-01
RMM:   3    -0.413235681156E+03   -0.17871E-01   -0.30354E-02  5142   0.147E-01    0.644E-01
RMM:   4    -0.413226343761E+03    0.93374E-02   -0.41908E-02  4981   0.183E-01    0.473E-01
RMM:   5    -0.413214225156E+03    0.12119E-01   -0.45551E-03  4538   0.897E-02    0.583E-02
RMM:   6    -0.413214103900E+03    0.12126E-03   -0.65968E-04  4852   0.297E-02    0.305E-02
RMM:   7    -0.413214089873E+03    0.14027E-04   -0.18218E-04  5889   0.133E-02    0.129E-02
RMM:   8    -0.413214081743E+03    0.81306E-05   -0.50072E-05  5172   0.856E-03    0.867E-03
RMM:   9    -0.413214077625E+03    0.41176E-05   -0.11970E-05  3992   0.419E-03    0.380E-03
RMM:  10    -0.413214074095E+03    0.35305E-05   -0.19803E-06  2566   0.226E-03    0.237E-03
RMM:  11    -0.413214068478E+03    0.56163E-05   -0.14308E-06  2471   0.198E-03    0.152E-03
RMM:  12    -0.413214064784E+03    0.36948E-05   -0.53141E-07  2388   0.135E-03    0.881E-04
RMM:  13    -0.413214060777E+03    0.40070E-05   -0.25465E-07  1938   0.907E-04    0.454E-04
RMM:  14    -0.413214054942E+03    0.58343E-05   -0.21069E-07  1748   0.813E-04    0.429E-04
RMM:  15    -0.413214051230E+03    0.37123E-05   -0.93975E-08  1013   0.604E-04    0.175E-04
RMM:  16    -0.413214049011E+03    0.22187E-05   -0.62846E-08   963   0.584E-04    0.923E-05
RMM:  17    -0.413214044908E+03    0.41037E-05   -0.73540E-08  1188   0.622E-04    0.121E-04
RMM:  18    -0.413214043958E+03    0.94945E-06   -0.27912E-08   762   0.526E-04
   48 T=    71. E= -.41286739E+03 F= -.41321404E+03 E0= -.41319312E+03  EK= 0.34666E+00 SP= 0.00E+00 SK= 0.00E+00
       N       E                     dE             d eps       ncg     rms          rms(c)
RMM:   1    -0.413242479600E+03   -0.28435E-01   -0.10783E+01  4306   0.184E+00    0.951E-01
RMM:   2    -0.413212872417E+03    0.29607E-01   -0.17392E-01  4470   0.211E-01    0.688E-01
RMM:   3    -0.413238329671E+03   -0.25457E-01   -0.36395E-02  5154   0.164E-01    0.739E-01
RMM:   4    -0.413217496700E+03    0.20833E-01   -0.41017E-02  4951   0.184E-01    0.396E-01
RMM:   5    -0.413209521452E+03    0.79752E-02   -0.42036E-03  4640   0.884E-02    0.653E-02
RMM:   6    -0.413209326551E+03    0.19490E-03   -0.45654E-04  4655   0.293E-02    0.332E-02
RMM:   7    -0.413209332679E+03   -0.61284E-05   -0.29932E-04  5751   0.182E-02    0.249E-02
RMM:   8    -0.413209295942E+03    0.36738E-04   -0.99479E-05  4993   0.114E-02    0.965E-03
RMM:   9    -0.413209289292E+03    0.66497E-05   -0.21574E-05  5051   0.581E-03    0.479E-03
RMM:  10    -0.413209285054E+03    0.42379E-05   -0.25878E-06  2663   0.247E-03    0.267E-03
RMM:  11    -0.413209278909E+03    0.61449E-05   -0.14178E-06  2500   0.197E-03    0.188E-03
RMM:  12    -0.413209274960E+03    0.39492E-05   -0.43700E-07  2404   0.124E-03    0.980E-04
RMM:  13    -0.413209270465E+03    0.44948E-05   -0.26580E-07  2008   0.883E-04    0.457E-04
RMM:  14    -0.413209265034E+03    0.54306E-05   -0.21609E-07  1766   0.793E-04    0.364E-04
RMM:  15    -0.413209259889E+03    0.51459E-05   -0.12287E-07  1174   0.651E-04    0.146E-04
RMM:  16    -0.413209257078E+03    0.28103E-05   -0.73793E-08  1068   0.603E-04    0.898E-05
RMM:  17    -0.413209253281E+03    0.37973E-05   -0.73707E-08  1220   0.620E-04    0.718E-05
RMM:  18    -0.413209251626E+03    0.16550E-05   -0.39552E-08   973   0.549E-04    0.600E-05
RMM:  19    -0.413209249709E+03    0.19171E-05   -0.32781E-08   935   0.539E-04    0.335E-05
RMM:  20    -0.413209248850E+03    0.85923E-06   -0.21928E-08   833   0.508E-04
   49 T=    70. E= -.41286708E+03 F= -.41320925E+03 E0= -.41318833E+03  EK= 0.34217E+00 SP= 0.00E+00 SK= 0.00E+00
       N       E                     dE             d eps       ncg     rms          rms(c)
RMM:   1    -0.413229100889E+03   -0.19851E-01   -0.10525E+01  4304   0.189E+00    0.923E-01
RMM:   2    -0.413207359378E+03    0.21742E-01   -0.17456E-01  4494   0.219E-01    0.690E-01
[...]
RMM:  10    -0.413165025878E+03   -0.36342E-05   -0.27622E-06  2652   0.226E-03    0.260E-03
RMM:  11    -0.413165032785E+03   -0.69068E-05   -0.15025E-06  2534   0.194E-03    0.160E-03
RMM:  12    -0.413165036576E+03   -0.37907E-05   -0.59815E-07  2459   0.132E-03    0.699E-04
RMM:  13    -0.413165039275E+03   -0.26994E-05   -0.30568E-07  1857   0.917E-04    0.340E-04
RMM:  14    -0.413165042112E+03   -0.28370E-05   -0.21315E-07  1565   0.800E-04    0.185E-04
RMM:  15    -0.413165045276E+03   -0.31644E-05   -0.16727E-07  1392   0.738E-04    0.122E-04
RMM:  16    -0.413165047107E+03   -0.18302E-05   -0.11393E-07  1285   0.674E-04    0.784E-05
RMM:  17    -0.413165049512E+03   -0.24054E-05   -0.10650E-07  1362   0.657E-04    0.571E-05
RMM:  18    -0.413165050929E+03   -0.14174E-05   -0.60616E-08  1019   0.584E-04    0.332E-05
RMM:  19    -0.413165051286E+03   -0.35665E-06   -0.33763E-08   857   0.551E-04
  139 T=    61. E= -.41286730E+03 F= -.41316505E+03 E0= -.41314431E+03  EK= 0.29775E+00 SP= 0.00E+00 SK= 0.00E+00
       N       E                     dE             d eps       ncg     rms          rms(c)
RMM:   1    -0.413159716532E+03    0.53344E-02   -0.96079E+00  4264   0.972E-01    0.866E-01
RMM:   2    -0.413166395017E+03   -0.66785E-02   -0.11257E-01  4418   0.108E-01    0.610E-01
RMM:   3    -0.413165870007E+03    0.52501E-03   -0.92592E-03  5105   0.576E-02    0.198E-01
RMM:   4    -0.413201037672E+03   -0.35168E-01   -0.42094E-02  5136   0.172E-01    0.790E-01
RMM:   5    -0.413164431998E+03    0.36606E-01   -0.17358E-02  4791   0.134E-01    0.593E-02
RMM:   6    -0.413164413970E+03    0.18027E-04   -0.29256E-03  5669   0.533E-02    0.260E-02
RMM:   7    -0.413164439607E+03   -0.25636E-04   -0.43454E-04  6005   0.185E-02    0.190E-02
RMM:   8    -0.413164441394E+03   -0.17871E-05   -0.86092E-05  5228   0.925E-03    0.868E-03
RMM:   9    -0.413164441218E+03    0.17545E-06   -0.14392E-05  3830   0.431E-03    0.410E-03
RMM:  10    -0.413164442304E+03   -0.10851E-05   -0.23978E-06  2611   0.221E-03    0.262E-03
RMM:  11    -0.413164444797E+03   -0.24939E-05   -0.14086E-06  2528   0.189E-03    0.158E-03
RMM:  12    -0.413164446250E+03   -0.14529E-05   -0.57250E-07  2436   0.131E-03    0.650E-04
RMM:  13    -0.413164447277E+03   -0.10264E-05   -0.28903E-07  1865   0.912E-04    0.304E-04
RMM:  14    -0.413164448373E+03   -0.10962E-05   -0.18819E-07  1504   0.780E-04    0.163E-04
RMM:  15    -0.413164449663E+03   -0.12897E-05   -0.14105E-07  1332   0.720E-04    0.106E-04
RMM:  16    -0.413164450525E+03   -0.86230E-06   -0.98735E-08  1236   0.669E-04
  140 T=    60. E= -.41286758E+03 F= -.41316445E+03 E0= -.41314373E+03  EK= 0.29688E+00 SP= 0.00E+00 SK= 0.00E+00
       N       E                     dE             d eps       ncg     rms          rms(c)
RMM:   1    -0.413157937456E+03    0.65122E-02   -0.94556E+00  4264   0.961E-01    0.851E-01
RMM:   2    -0.413165115777E+03   -0.71783E-02   -0.11094E-01  4428   0.104E-01    0.604E-01
RMM:   3    -0.413164321836E+03    0.79394E-03   -0.91200E-03  5113   0.557E-02    0.188E-01
RMM:   4    -0.413199757503E+03   -0.35436E-01   -0.41679E-02  5137   0.171E-01    0.791E-01
RMM:   5    -0.413163035701E+03    0.36722E-01   -0.17474E-02  4793   0.134E-01    0.584E-02
RMM:   6    -0.413163026265E+03    0.94353E-05   -0.29520E-03  5682   0.533E-02    0.261E-02
RMM:   7    -0.413163052262E+03   -0.25997E-04   -0.43762E-04  6005   0.184E-02    0.190E-02
RMM:   8    -0.413163054286E+03   -0.20240E-05   -0.86683E-05  5226   0.929E-03    0.866E-03
RMM:   9    -0.413163054448E+03   -0.16152E-06   -0.13911E-05  3769   0.421E-03    0.410E-03
RMM:  10    -0.413163056042E+03   -0.15937E-05   -0.23229E-06  2605   0.219E-03    0.263E-03
RMM:  11    -0.413163059352E+03   -0.33104E-05   -0.14049E-06  2529   0.188E-03    0.158E-03
RMM:  12    -0.413163061307E+03   -0.19550E-05   -0.58775E-07  2437   0.131E-03    0.625E-04
RMM:  13    -0.413163062650E+03   -0.13425E-05   -0.30030E-07  1912   0.925E-04    0.299E-04
RMM:  14    -0.413163064005E+03   -0.13559E-05   -0.18968E-07  1491   0.779E-04    0.166E-04
RMM:  15    -0.413163065747E+03   -0.17418E-05   -0.14936E-07  1352   0.729E-04    0.104E-04
RMM:  16    -0.413163066790E+03   -0.10430E-05   -0.10304E-07  1258   0.673E-04    0.657E-05
RMM:  17    -0.413163068346E+03   -0.15556E-05   -0.10080E-07  1391   0.670E-04    0.544E-05
RMM:  18    -0.413163069416E+03   -0.10704E-05   -0.60158E-08  1044   0.594E-04    0.285E-05
RMM:  19    -0.413163069905E+03   -0.48825E-06   -0.34100E-08   853   0.558E-04
  141 T=    60. E= -.41286727E+03 F= -.41316307E+03 E0= -.41314237E+03  EK= 0.29580E+00 SP= 0.00E+00 SK= 0.00E+00
       N       E                     dE             d eps       ncg     rms          rms(c)
RMM:   1    -0.413157133004E+03    0.59364E-02   -0.94112E+00  4264   0.958E-01    0.841E-01
RMM:   2    -0.413164803654E+03   -0.76706E-02   -0.11206E-01  4429   0.104E-01    0.613E-01
RMM:   3    -0.413163480043E+03    0.13236E-02   -0.93811E-03  5094   0.566E-02    0.176E-01
RMM:   4    -0.413200885183E+03   -0.37405E-01   -0.43379E-02  5141   0.174E-01    0.810E-01
RMM:   5    -0.413162226356E+03    0.38659E-01   -0.18425E-02  4797   0.137E-01    0.573E-02
RMM:   6    -0.413162232046E+03   -0.56904E-05   -0.30979E-03  5699   0.542E-02    0.252E-02
RMM:   7    -0.413162260872E+03   -0.28827E-04   -0.44607E-04  6028   0.182E-02    0.183E-02
RMM:   8    -0.413162267455E+03   -0.65823E-05   -0.85741E-05  5227   0.919E-03    0.867E-03
RMM:   9    -0.413162271381E+03   -0.39259E-05   -0.13688E-05  3713   0.414E-03    0.404E-03
RMM:  10    -0.413162275318E+03   -0.39370E-05   -0.24777E-06  2628   0.219E-03    0.262E-03
RMM:  11    -0.413162282505E+03   -0.71872E-05   -0.14596E-06  2537   0.188E-03    0.155E-03
RMM:  12    -0.413162286803E+03   -0.42977E-05   -0.64992E-07  2453   0.132E-03    0.607E-04
RMM:  13    -0.413162289585E+03   -0.27829E-05   -0.33544E-07  1916   0.944E-04    0.302E-04
RMM:  14    -0.413162292179E+03   -0.25937E-05   -0.22047E-07  1550   0.800E-04    0.180E-04
RMM:  15    -0.413162295845E+03   -0.36655E-05   -0.19607E-07  1466   0.762E-04    0.117E-04
RMM:  16    -0.413162297454E+03   -0.16094E-05   -0.12162E-07  1318   0.675E-04    0.764E-05
RMM:  17    -0.413162299758E+03   -0.23045E-05   -0.10780E-07  1328   0.656E-04    0.455E-05
RMM:  18    -0.413162301294E+03   -0.15351E-05   -0.68116E-08  1065   0.590E-04    0.289E-05
RMM:  19    -0.413162301541E+03   -0.24743E-06   -0.34390E-08   839   0.545E-04
  142 T=    60. E= -.41286739E+03 F= -.41316230E+03 E0= -.41314162E+03  EK= 0.29491E+00 SP= 0.00E+00 SK= 0.00E+00
       N       E                     dE             d eps       ncg     rms          rms(c)
RMM:   1    -0.413159067074E+03    0.32342E-02   -0.93773E+00  4264   0.989E-01    0.857E-01
RMM:   2    -0.413163732144E+03   -0.46651E-02   -0.11469E-01  4428   0.107E-01    0.611E-01
RMM:   3    -0.413162470259E+03    0.12619E-02   -0.92722E-03  5103   0.537E-02    0.169E-01
RMM:   4    -0.413199334729E+03   -0.36864E-01   -0.41446E-02  5146   0.170E-01    0.802E-01
RMM:   5    -0.413161501573E+03    0.37833E-01   -0.18272E-02  4805   0.135E-01    0.569E-02
RMM:   6    -0.413161512452E+03   -0.10879E-04   -0.30568E-03  5712   0.538E-02    0.267E-02
RMM:   7    -0.413161536501E+03   -0.24048E-04   -0.44801E-04  6014   0.183E-02    0.189E-02
RMM:   8    -0.413161538502E+03   -0.20019E-05   -0.87128E-05  5215   0.942E-03    0.885E-03
RMM:   9    -0.413161538367E+03    0.13493E-06   -0.13081E-05  3671   0.410E-03    0.415E-03
RMM:  10    -0.413161540241E+03   -0.18732E-05   -0.23784E-06  2616   0.218E-03    0.271E-03
RMM:  11    -0.413161543651E+03   -0.34103E-05   -0.13457E-06  2519   0.183E-03    0.153E-03
RMM:  12    -0.413161545930E+03   -0.22790E-05   -0.63054E-07  2434   0.132E-03    0.569E-04
RMM:  13    -0.413161547411E+03   -0.14811E-05   -0.33297E-07  1977   0.958E-04    0.284E-04
RMM:  14    -0.413161548706E+03   -0.12946E-05   -0.20169E-07  1525   0.791E-04    0.176E-04
RMM:  15    -0.413161550738E+03   -0.20327E-05   -0.16480E-07  1392   0.747E-04    0.104E-04
RMM:  16    -0.413161551718E+03   -0.97947E-06   -0.10862E-07  1283   0.676E-04
  143 T=    60. E= -.41286742E+03 F= -.41316155E+03 E0= -.41314088E+03  EK= 0.29413E+00 SP= 0.00E+00 SK= 0.00E+00
       N       E                     dE             d eps       ncg     rms          rms(c)
RMM:   1    -0.413155895682E+03    0.56551E-02   -0.92298E+00  4264   0.942E-01    0.854E-01
RMM:   2    -0.413162344709E+03   -0.64490E-02   -0.10786E-01  4439   0.100E-01    0.604E-01
RMM:   3    -0.413161170401E+03    0.11743E-02   -0.95038E-03  5115   0.513E-02    0.159E-01
RMM:   4    -0.413195713500E+03   -0.34543E-01   -0.38544E-02  5145   0.164E-01    0.777E-01
RMM:   5    -0.413160332284E+03    0.35381E-01   -0.17129E-02  4807   0.131E-01    0.557E-02
RMM:   6    -0.413160338649E+03   -0.63643E-05   -0.28632E-03  5715   0.521E-02    0.275E-02
RMM:   7    -0.413160360312E+03   -0.21663E-04   -0.42997E-04  5986   0.181E-02    0.189E-02
RMM:   8    -0.413160361349E+03   -0.10369E-05   -0.86052E-05  5216   0.945E-03    0.876E-03
RMM:   9    -0.413160360297E+03    0.10515E-05   -0.12103E-05  3598   0.400E-03    0.422E-03
RMM:  10    -0.413160361616E+03   -0.13188E-05   -0.22359E-06  2608   0.214E-03    0.274E-03
RMM:  11    -0.413160363951E+03   -0.23348E-05   -0.13016E-06  2522   0.179E-03    0.152E-03
RMM:  12    -0.413160365575E+03   -0.16248E-05   -0.63214E-07  2428   0.132E-03    0.537E-04
RMM:  13    -0.413160366636E+03   -0.10604E-05   -0.33396E-07  1988   0.961E-04    0.278E-04
RMM:  14    -0.413160367541E+03   -0.90479E-06   -0.20007E-07  1548   0.789E-04
  144 T=    60. E= -.41286725E+03 F= -.41316037E+03 E0= -.41313971E+03  EK= 0.29312E+00 SP= 0.00E+00 SK= 0.00E+00
       N       E                     dE             d eps       ncg     rms          rms(c)
RMM:   1    -0.413156240297E+03    0.41263E-02   -0.91529E+00  4264   0.951E-01    0.836E-01
RMM:   2    -0.413162375033E+03   -0.61347E-02   -0.10929E-01  4429   0.101E-01    0.609E-01
RMM:   3    -0.413160529052E+03    0.18460E-02   -0.95849E-03  5089   0.504E-02    0.139E-01
RMM:   4    -0.413194120399E+03   -0.33591E-01   -0.36752E-02  5150   0.160E-01    0.765E-01
RMM:   5    -0.413159838439E+03    0.34282E-01   -0.16714E-02  4808   0.128E-01    0.534E-02
RMM:   6    -0.413159848639E+03   -0.10200E-04   -0.27763E-03  5732   0.511E-02    0.264E-02
RMM:   7    -0.413159873764E+03   -0.25125E-04   -0.40561E-04  5994   0.174E-02    0.179E-02
RMM:   8    -0.413159880109E+03   -0.63444E-05   -0.80372E-05  5215   0.913E-03    0.841E-03
RMM:   9    -0.413159882946E+03   -0.28375E-05   -0.11449E-05  3502   0.386E-03    0.407E-03
RMM:  10    -0.413159887193E+03   -0.42471E-05   -0.22075E-06  2610   0.211E-03    0.266E-03
RMM:  11    -0.413159894119E+03   -0.69257E-05   -0.13129E-06  2525   0.176E-03    0.145E-03
RMM:  12    -0.413159899091E+03   -0.49721E-05   -0.69612E-07  2417   0.132E-03    0.497E-04
RMM:  13    -0.413159901876E+03   -0.27847E-05   -0.37287E-07  1987   0.970E-04    0.279E-04
RMM:  14    -0.413159904035E+03   -0.21594E-05   -0.22316E-07  1529   0.797E-04    0.191E-04
RMM:  15    -0.413159908106E+03   -0.40710E-05   -0.22052E-07  1508   0.780E-04    0.115E-04
RMM:  16    -0.413159909553E+03   -0.14473E-05   -0.12387E-07  1295   0.675E-04    0.792E-05
RMM:  17    -0.413159911728E+03   -0.21749E-05   -0.10713E-07  1318   0.657E-04    0.534E-05
RMM:  18    -0.413159913284E+03   -0.15553E-05   -0.74610E-08  1127   0.596E-04    0.292E-05
RMM:  19    -0.413159913935E+03   -0.65139E-06   -0.42261E-08   906   0.548E-04
  145 T=    60. E= -.41286746E+03 F= -.41315991E+03 E0= -.41313927E+03  EK= 0.29245E+00 SP= 0.00E+00 SK= 0.00E+00
       N       E                     dE             d eps       ncg     rms          rms(c)
RMM:   1    -0.413154770979E+03    0.51423E-02   -0.91067E+00  4264   0.935E-01    0.849E-01
RMM:   2    -0.413161372487E+03   -0.66015E-02   -0.10732E-01  4429   0.100E-01    0.611E-01
RMM:   3    -0.413159536671E+03    0.18358E-02   -0.98977E-03  5092   0.484E-02    0.133E-01
RMM:   4    -0.413191127064E+03   -0.31590E-01   -0.34208E-02  5148   0.155E-01    0.742E-01
RMM:   5    -0.413158941668E+03    0.32185E-01   -0.15738E-02  4812   0.124E-01    0.523E-02
RMM:   6    -0.413158950582E+03   -0.89141E-05   -0.26282E-03  5741   0.496E-02    0.272E-02
RMM:   7    -0.413158969888E+03   -0.19306E-04   -0.38766E-04  5947   0.172E-02    0.178E-02
RMM:   8    -0.413158973343E+03   -0.34556E-05   -0.77762E-05  5206   0.906E-03    0.839E-03
RMM:   9    -0.413158974118E+03   -0.77452E-06   -0.10733E-05  3460   0.377E-03    0.415E-03
RMM:  10    -0.413158977117E+03   -0.29989E-05   -0.20761E-06  2603   0.208E-03    0.270E-03
RMM:  11    -0.413158981723E+03   -0.46057E-05   -0.12043E-06  2515   0.170E-03    0.143E-03
RMM:  12    -0.413158985379E+03   -0.36562E-05   -0.68546E-07  2410   0.131E-03    0.459E-04
RMM:  13    -0.413158987326E+03   -0.19470E-05   -0.36418E-07  2006   0.972E-04    0.271E-04
RMM:  14    -0.413158988733E+03   -0.14076E-05   -0.21601E-07  1550   0.789E-04    0.195E-04
RMM:  15    -0.413158991536E+03   -0.28024E-05   -0.18353E-07  1347   0.747E-04    0.996E-05
RMM:  16    -0.413158992626E+03   -0.10900E-05   -0.11441E-07  1236   0.675E-04    0.700E-05
RMM:  17    -0.413158994026E+03   -0.14003E-05   -0.90793E-08  1223   0.654E-04    0.552E-05
RMM:  18    -0.413158995175E+03   -0.11493E-05   -0.66527E-08  1087   0.610E-04    0.346E-05
RMM:  19    -0.413158996279E+03   -0.11036E-05   -0.49822E-08   982   0.581E-04    0.196E-05
RMM:  20    -0.413158996484E+03   -0.20523E-06   -0.24909E-08   787   0.549E-04
  146 T=    59. E= -.41286733E+03 F= -.41315900E+03 E0= -.41313836E+03  EK= 0.29166E+00 SP= 0.00E+00 SK= 0.00E+00
       N       E                     dE             d eps       ncg     rms          rms(c)
RMM:   1    -0.413154360644E+03    0.46356E-02   -0.90003E+00  4264   0.927E-01    0.856E-01
RMM:   2    -0.413160111823E+03   -0.57512E-02   -0.10523E-01  4431   0.987E-02    0.604E-01
RMM:   3    -0.413158485250E+03    0.16266E-02   -0.99682E-03  5103   0.455E-02    0.124E-01
RMM:   4    -0.413184959896E+03   -0.26475E-01   -0.28118E-02  5151   0.140E-01    0.680E-01
RMM:   5    -0.413158093781E+03    0.26866E-01   -0.13290E-02  4814   0.114E-01    0.502E-02
RMM:   6    -0.413158096699E+03   -0.29179E-05   -0.22322E-03  5743   0.459E-02    0.286E-02
RMM:   7    -0.413158107497E+03   -0.10799E-04   -0.35591E-04  5889   0.168E-02    0.177E-02
RMM:   8    -0.413158106222E+03    0.12758E-05   -0.71490E-05  5175   0.892E-03    0.821E-03
RMM:   9    -0.413158104724E+03    0.14978E-05   -0.91800E-06  3299   0.354E-03    0.427E-03
RMM:  10    -0.413158105663E+03   -0.93965E-06   -0.17681E-06  2569   0.201E-03
  147 T=    59. E= -.41286722E+03 F= -.41315811E+03 E0= -.41313748E+03  EK= 0.29088E+00 SP= 0.00E+00 SK= 0.00E+00
       N       E                     dE             d eps       ncg     rms          rms(c)
RMM:   1    -0.413153866370E+03    0.42384E-02   -0.88775E+00  4264   0.924E-01    0.834E-01
RMM:   2    -0.413160387400E+03   -0.65210E-02   -0.10498E-01  4439   0.993E-02    0.605E-01
RMM:   3    -0.413158721713E+03    0.16657E-02   -0.10605E-02  5106   0.520E-02    0.149E-01
RMM:   4    -0.413192835748E+03   -0.34114E-01   -0.38594E-02  5136   0.164E-01    0.772E-01
RMM:   5    -0.413157793165E+03    0.35043E-01   -0.16735E-02  4800   0.129E-01    0.547E-02
RMM:   6    -0.413157804063E+03   -0.10898E-04   -0.28417E-03  5737   0.514E-02    0.277E-02
RMM:   7    -0.413157828848E+03   -0.24785E-04   -0.41772E-04  5986   0.177E-02    0.181E-02
RMM:   8    -0.413157834140E+03   -0.52926E-05   -0.78350E-05  5232   0.914E-03    0.864E-03
RMM:   9    -0.413157836242E+03   -0.21014E-05   -0.11477E-05  3543   0.391E-03    0.423E-03
RMM:  10    -0.413157840250E+03   -0.40086E-05   -0.22467E-06  2613   0.214E-03    0.276E-03
RMM:  11    -0.413157846553E+03   -0.63030E-05   -0.13473E-06  2522   0.178E-03    0.149E-03
RMM:  12    -0.413157851600E+03   -0.50465E-05   -0.77714E-07  2443   0.137E-03    0.479E-04
RMM:  13    -0.413157854356E+03   -0.27564E-05   -0.41761E-07  2058   0.101E-03    0.291E-04
RMM:  14    -0.413157856309E+03   -0.19523E-05   -0.24244E-07  1593   0.816E-04    0.210E-04
RMM:  15    -0.413157860272E+03   -0.39639E-05   -0.22601E-07  1464   0.781E-04    0.116E-04
RMM:  16    -0.413157861795E+03   -0.15229E-05   -0.13389E-07  1315   0.687E-04    0.872E-05
RMM:  17    -0.413157863956E+03   -0.21609E-05   -0.11550E-07  1330   0.663E-04    0.623E-05
RMM:  18    -0.413157865390E+03   -0.14336E-05   -0.77809E-08  1113   0.598E-04    0.355E-05
RMM:  19    -0.413157866442E+03   -0.10520E-05   -0.52779E-08   980   0.564E-04    0.206E-05
RMM:  20    -0.413157866776E+03   -0.33436E-06   -0.29884E-08   827   0.535E-04
  148 T=    59. E= -.41286745E+03 F= -.41315787E+03 E0= -.41313725E+03  EK= 0.29041E+00 SP= 0.00E+00 SK= 0.00E+00
       N       E                     dE             d eps       ncg     rms          rms(c)
RMM:   1    -0.413154444789E+03    0.34217E-02   -0.88693E+00  4264   0.940E-01    0.842E-01
RMM:   2    -0.413159536702E+03   -0.50919E-02   -0.10554E-01  4424   0.998E-02    0.612E-01
RMM:   3    -0.413157182036E+03    0.23547E-02   -0.10675E-02  5080   0.448E-02    0.101E-01
RMM:   4    -0.413179007563E+03   -0.21826E-01   -0.22940E-02  5147   0.127E-01    0.618E-01
RMM:   5    -0.413156904495E+03    0.22103E-01   -0.10964E-02  4815   0.103E-01    0.464E-02
RMM:   6    -0.413156904497E+03   -0.13824E-08   -0.18443E-03  5736   0.418E-02    0.275E-02
RMM:   7    -0.413156916677E+03   -0.12180E-04   -0.30409E-04  5855   0.155E-02    0.160E-02
RMM:   8    -0.413156921060E+03   -0.43835E-05   -0.58677E-05  5143   0.817E-03    0.762E-03
RMM:   9    -0.413156922747E+03   -0.16867E-05   -0.75869E-06  3178   0.326E-03    0.406E-03
RMM:  10    -0.413156926916E+03   -0.41687E-05   -0.15516E-06  2551   0.192E-03    0.258E-03
RMM:  11    -0.413156932642E+03   -0.57259E-05   -0.10402E-06  2509   0.158E-03    0.132E-03
RMM:  12    -0.413156937624E+03   -0.49818E-05   -0.70539E-07  2385   0.127E-03    0.463E-04
RMM:  13    -0.413156940026E+03   -0.24024E-05   -0.35976E-07  1994   0.952E-04    0.287E-04
RMM:  14    -0.413156941895E+03   -0.18694E-05   -0.20775E-07  1494   0.772E-04    0.196E-04
RMM:  15    -0.413156944777E+03   -0.28819E-05   -0.16855E-07  1346   0.726E-04    0.985E-05
RMM:  16    -0.413156946675E+03   -0.18977E-05   -0.11895E-07  1267   0.674E-04    0.806E-05
RMM:  17    -0.413156948169E+03   -0.14936E-05   -0.84877E-08  1141   0.628E-04    0.588E-05
RMM:  18    -0.413156949654E+03   -0.14853E-05   -0.66752E-08  1087   0.600E-04    0.257E-05
RMM:  19    -0.413156950625E+03   -0.97114E-06   -0.41590E-08   924   0.567E-04
  149 T=    59. E= -.41286719E+03 F= -.41315695E+03 E0= -.41313633E+03  EK= 0.28977E+00 SP= 0.00E+00 SK= 0.00E+00
       N       E                     dE             d eps       ncg     rms          rms(c)
RMM:   1    -0.413154254577E+03    0.26951E-02   -0.87812E+00  4264   0.934E-01    0.856E-01
RMM:   2    -0.413158885170E+03   -0.46306E-02   -0.10270E-01  4423   0.983E-02    0.605E-01
RMM:   3    -0.413156696224E+03    0.21889E-02   -0.10795E-02  5059   0.425E-02    0.976E-02
RMM:   4    -0.413171197307E+03   -0.14501E-01   -0.15134E-02  5161   0.103E-01    0.506E-01
RMM:   5    -0.413156557919E+03    0.14639E-01   -0.74043E-03  4827   0.846E-02    0.442E-02
RMM:   6    -0.413156552817E+03    0.51016E-05   -0.13026E-03  5729   0.357E-02    0.290E-02
RMM:   7    -0.413156546471E+03    0.63460E-05   -0.26394E-04  5691   0.149E-02    0.156E-02
RMM:   8    -0.413156543369E+03    0.31021E-05   -0.48679E-05  5101   0.778E-03    0.748E-03
RMM:   9    -0.413156542623E+03    0.74548E-06   -0.55545E-06  3018   0.286E-03
  150 T=    59. E= -.41286718E+03 F= -.41315654E+03 E0= -.41313593E+03  EK= 0.28936E+00 SP= 0.00E+00 SK= 0.00E+00
