       N       E                     dE             d eps       ncg     rms          rms(c)
RMM:   1     0.220123565210E+04    0.22012E+04   -0.52443E+04  2132   0.654E+02
RMM:   2     0.705825219277E+03   -0.14954E+04   -0.16260E+04  2132   0.177E+02
RMM:   3     0.138026932738E+03   -0.56780E+03   -0.65682E+03  2132   0.117E+02
RMM:   4    -0.159484610858E+03   -0.29751E+03   -0.27876E+03  2132   0.936E+01
RMM:   5    -0.287440219457E+03   -0.12796E+03   -0.11431E+03  2132   0.595E+01
RMM:   6    -0.349974455235E+03   -0.62534E+02   -0.55147E+02  2132   0.423E+01
RMM:   7    -0.382838547726E+03   -0.32864E+02   -0.30383E+02  2132   0.293E+01
RMM:   8    -0.404288299370E+03   -0.21450E+02   -0.18410E+02  2132   0.233E+01
RMM:   9    -0.436048468242E+03   -0.31760E+02   -0.30628E+02  6106   0.173E+01
RMM:  10    -0.441330665480E+03   -0.52822E+01   -0.62814E+01  6393   0.538E+00
RMM:  11    -0.442526447625E+03   -0.11958E+01   -0.11040E+01  6215   0.172E+00
RMM:  12    -0.442894444416E+03   -0.36800E+00   -0.26866E+00  6365   0.597E-01    0.134E+02
RMM:  13    -0.425548744848E+03    0.17346E+02   -0.80568E+01  4672   0.119E+01    0.712E+01
RMM:  14    -0.497944481207E+03   -0.72396E+02   -0.53470E+02  5411   0.231E+01    0.304E+01
RMM:  15    -0.412633697034E+03    0.85311E+02   -0.18910E+02  5041   0.161E+01    0.489E+00
RMM:  16    -0.414221006997E+03   -0.15873E+01   -0.38458E+01  6079   0.592E+00    0.442E+00
RMM:  17    -0.413298096488E+03    0.92291E+00   -0.19935E+00  5304   0.169E+00    0.266E+00
RMM:  18    -0.413150322225E+03    0.14777E+00   -0.12752E+00  5827   0.119E+00    0.153E+00
RMM:  19    -0.413169486070E+03   -0.19164E-01   -0.28048E-01  5857   0.542E-01    0.903E-01
RMM:  20    -0.413194566686E+03   -0.25081E-01   -0.22397E-01  5191   0.545E-01    0.698E-01
RMM:  21    -0.413169790897E+03    0.24776E-01   -0.38699E-02  4922   0.252E-01    0.350E-01
RMM:  22    -0.413166503285E+03    0.32876E-02   -0.20686E-02  6054   0.133E-01    0.194E-01
RMM:  23    -0.413164219655E+03    0.22836E-02   -0.94124E-03  5989   0.912E-02    0.850E-02
RMM:  24    -0.413162964275E+03    0.12554E-02   -0.24727E-03  5871   0.495E-02    0.403E-02
RMM:  25    -0.413162704682E+03    0.25959E-03   -0.76276E-04  5737   0.252E-02    0.253E-02
RMM:  26    -0.413162868520E+03   -0.16384E-03   -0.48079E-04  5846   0.234E-02    0.244E-02
RMM:  27    -0.413163341028E+03   -0.47251E-03   -0.19454E-04  4710   0.188E-02    0.197E-02
RMM:  28    -0.413163752314E+03   -0.41129E-03   -0.13632E-04  4881   0.164E-02    0.105E-02
RMM:  29    -0.413164210374E+03   -0.45806E-03   -0.13681E-04  4464   0.179E-02    0.307E-03
RMM:  30    -0.413164416928E+03   -0.20655E-03   -0.91523E-05  4381   0.101E-02    0.335E-03
RMM:  31    -0.413164493986E+03   -0.77058E-04   -0.37435E-05  3056   0.506E-03    0.187E-03
RMM:  32    -0.413164514542E+03   -0.20556E-04   -0.14576E-05  2903   0.257E-03    0.906E-04
RMM:  33    -0.413164524884E+03   -0.10342E-04   -0.71120E-06  2760   0.206E-03    0.863E-04
RMM:  34    -0.413164527624E+03   -0.27396E-05   -0.38931E-06  2497   0.141E-03    0.743E-04
RMM:  35    -0.413164527721E+03   -0.97225E-07   -0.20645E-06  1558   0.896E-04
    1 T=    61. E= -.41286670E+03 F= -.41316453E+03 E0= -.41314203E+03  EK= 0.29783E+00 SP= 0.00E+00 SK= 0.00E+00
       N       E                     dE             d eps       ncg     rms          rms(c)
RMM:   1    -0.413159038955E+03    0.54887E-02   -0.10047E+01  3999   0.656E-01    0.885E-01
RMM:   2    -0.413167218052E+03   -0.81791E-02   -0.12298E-01  3992   0.931E-02    0.646E-01
RMM:   3    -0.413164682189E+03    0.25359E-02   -0.10706E-02  4902   0.449E-02    0.128E-01
RMM:   4    -0.413195883919E+03   -0.31202E-01   -0.33643E-02  5202   0.152E-01    0.735E-01
RMM:   5    -0.413164050490E+03    0.31833E-01   -0.15563E-02  4840   0.124E-01    0.458E-02
RMM:   6    -0.413164257608E+03   -0.20712E-03   -0.26712E-03  5822   0.499E-02    0.289E-02
RMM:   7    -0.413164274148E+03   -0.16539E-04   -0.39041E-04  5825   0.178E-02    0.189E-02
RMM:   8    -0.413164275556E+03   -0.14087E-05   -0.73460E-05  5137   0.861E-03    0.977E-03
RMM:   9    -0.413164276676E+03   -0.11198E-05   -0.14509E-05  4100   0.424E-03    0.699E-03
RMM:  10    -0.413164281722E+03   -0.50463E-05   -0.24200E-06  2635   0.214E-03    0.455E-03
RMM:  11    -0.413164287097E+03   -0.53749E-05   -0.15705E-06  2538   0.183E-03    0.243E-03
RMM:  12    -0.413164294814E+03   -0.77171E-05   -0.19321E-06  2588   0.194E-03    0.921E-04
RMM:  13    -0.413164296820E+03   -0.20056E-05   -0.62397E-07  2328   0.124E-03    0.616E-04
RMM:  14    -0.413164296737E+03    0.82688E-07   -0.34348E-07  1829   0.843E-04
    2 T=    61. E= -.41286652E+03 F= -.41316430E+03 E0= -.41314180E+03  EK= 0.29778E+00 SP= 0.00E+00 SK= 0.00E+00
       N       E                     dE             d eps       ncg     rms          rms(c)
RMM:   1    -0.413160096256E+03    0.42006E-02   -0.10060E+01  4193   0.661E-01    0.907E-01
RMM:   2    -0.413167250815E+03   -0.71546E-02   -0.12097E-01  3962   0.915E-02    0.640E-01
RMM:   3    -0.413164976791E+03    0.22740E-02   -0.10416E-02  4748   0.401E-02    0.124E-01
RMM:   4    -0.413184616697E+03   -0.19640E-01   -0.20077E-02  5177   0.118E-01    0.587E-01
RMM:   5    -0.413164691007E+03    0.19926E-01   -0.97932E-03  4841   0.978E-02    0.419E-02
RMM:   6    -0.413164824408E+03   -0.13340E-03   -0.16800E-03  5798   0.399E-02    0.282E-02
RMM:   7    -0.413164822016E+03    0.23924E-05   -0.30575E-04  5651   0.165E-02    0.173E-02
RMM:   8    -0.413164815578E+03    0.64377E-05   -0.44109E-05  4887   0.732E-03    0.790E-03
RMM:   9    -0.413164814937E+03    0.64170E-06   -0.89811E-06  3465   0.338E-03
    3 T=    61. E= -.41286685E+03 F= -.41316481E+03 E0= -.41314232E+03  EK= 0.29796E+00 SP= 0.00E+00 SK= 0.00E+00
       N       E                     dE             d eps       ncg     rms          rms(c)
RMM:   1    -0.413159536755E+03    0.52788E-02   -0.99805E+00  4223   0.662E-01    0.891E-01
RMM:   2    -0.413167021226E+03   -0.74845E-02   -0.12032E-01  4311   0.935E-02    0.635E-01
RMM:   3    -0.413172322105E+03   -0.53009E-02   -0.16355E-02  5186   0.890E-02    0.389E-01
RMM:   4    -0.413183136217E+03   -0.10814E-01   -0.35460E-02  5093   0.163E-01    0.566E-01
RMM:   5    -0.413164640455E+03    0.18496E-01   -0.66229E-03  4663   0.943E-02    0.591E-02
RMM:   6    -0.413164570373E+03    0.70082E-04   -0.12945E-03  5319   0.369E-02    0.283E-02
RMM:   7    -0.413164592831E+03   -0.22458E-04   -0.30064E-04  5987   0.168E-02    0.178E-02
RMM:   8    -0.413164589137E+03    0.36945E-05   -0.58082E-05  5202   0.878E-03    0.727E-03
RMM:   9    -0.413164587758E+03    0.13791E-05   -0.11188E-05  4019   0.415E-03    0.376E-03
RMM:  10    -0.413164588808E+03   -0.10502E-05   -0.13275E-06  2531   0.199E-03    0.237E-03
RMM:  11    -0.413164590852E+03   -0.20439E-05   -0.12574E-06  2533   0.179E-03    0.145E-03
RMM:  12    -0.413164592014E+03   -0.11624E-05   -0.62224E-07  2459   0.128E-03    0.525E-04
RMM:  13    -0.413164592736E+03   -0.72147E-06   -0.30290E-07  1720   0.847E-04
    4 T=    61. E= -.41286664E+03 F= -.41316459E+03 E0= -.41314211E+03  EK= 0.29796E+00 SP= 0.00E+00 SK= 0.00E+00
       N       E                     dE             d eps       ncg     rms          rms(c)
RMM:   1    -0.413159510049E+03    0.50820E-02   -0.10033E+01  4236   0.669E-01    0.883E-01
RMM:   2    -0.413167561431E+03   -0.80514E-02   -0.12294E-01  4030   0.923E-02    0.645E-01
RMM:   3    -0.413165119908E+03    0.24415E-02   -0.10592E-02  4898   0.428E-02    0.125E-01
RMM:   4    -0.413194843400E+03   -0.29723E-01   -0.30938E-02  5154   0.146E-01    0.719E-01
RMM:   5    -0.413164560749E+03    0.30283E-01   -0.14578E-02  4813   0.120E-01    0.457E-02
RMM:   6    -0.413164756365E+03   -0.19562E-03   -0.25114E-03  5762   0.483E-02    0.291E-02
RMM:   7    -0.413164768013E+03   -0.11648E-04   -0.38344E-04  5769   0.173E-02    0.186E-02
RMM:   8    -0.413164768912E+03   -0.89865E-06   -0.57442E-05  5017   0.791E-03    0.854E-03
RMM:   9    -0.413164770890E+03   -0.19785E-05   -0.11839E-05  3775   0.387E-03    0.638E-03
RMM:  10    -0.413164775118E+03   -0.42282E-05   -0.17388E-06  2569   0.205E-03    0.414E-03
RMM:  11    -0.413164780044E+03   -0.49260E-05   -0.13804E-06  2540   0.182E-03    0.201E-03
RMM:  12    -0.413164785796E+03   -0.57517E-05   -0.15344E-06  2561   0.178E-03    0.841E-04
RMM:  13    -0.413164786558E+03   -0.76191E-06   -0.41964E-07  2249   0.112E-03
    5 T=    61. E= -.41286669E+03 F= -.41316479E+03 E0= -.41314231E+03  EK= 0.29809E+00 SP= 0.00E+00 SK= 0.00E+00
       N       E                     dE             d eps       ncg     rms          rms(c)
RMM:   1    -0.413160407286E+03    0.43785E-02   -0.10062E+01  4248   0.675E-01    0.903E-01
RMM:   2    -0.413167630722E+03   -0.72234E-02   -0.12130E-01  4071   0.934E-02    0.642E-01
RMM:   3    -0.413165409255E+03    0.22215E-02   -0.10457E-02  4762   0.408E-02    0.122E-01
RMM:   4    -0.413186059054E+03   -0.20650E-01   -0.21068E-02  5155   0.121E-01    0.602E-01
RMM:   5    -0.413165090195E+03    0.20969E-01   -0.10316E-02  4826   0.999E-02    0.418E-02
RMM:   6    -0.413165225089E+03   -0.13489E-03   -0.17542E-03  5785   0.403E-02    0.272E-02
RMM:   7    -0.413165227193E+03   -0.21047E-05   -0.29288E-04  5667   0.162E-02    0.172E-02
RMM:   8    -0.413165220751E+03    0.64423E-05   -0.49434E-05  4907   0.761E-03    0.822E-03
RMM:   9    -0.413165219718E+03    0.10329E-05   -0.98076E-06  3609   0.358E-03    0.644E-03
RMM:  10    -0.413165220278E+03   -0.56028E-06   -0.14687E-06  2539   0.204E-03
    6 T=    61. E= -.41286688E+03 F= -.41316522E+03 E0= -.41314276E+03  EK= 0.29834E+00 SP= 0.00E+00 SK= 0.00E+00
       N       E                     dE             d eps       ncg     rms          rms(c)
RMM:   1    -0.413160107761E+03    0.51120E-02   -0.10008E+01  4256   0.679E-01    0.898E-01
RMM:   2    -0.413167330705E+03   -0.72229E-02   -0.12051E-01  4169   0.910E-02    0.635E-01
RMM:   3    -0.413167815753E+03   -0.48505E-03   -0.12343E-02  5105   0.635E-02    0.251E-01
RMM:   4    -0.413198932062E+03   -0.31116E-01   -0.43606E-02  5124   0.176E-01    0.761E-01
RMM:   5    -0.413164895678E+03    0.34036E-01   -0.14715E-02  4760   0.126E-01    0.583E-02
RMM:   6    -0.413164995046E+03   -0.99368E-04   -0.25491E-03  5596   0.503E-02    0.291E-02
RMM:   7    -0.413165015071E+03   -0.20025E-04   -0.39637E-04  6023   0.170E-02    0.180E-02
RMM:   8    -0.413165012827E+03    0.22438E-05   -0.68298E-05  5250   0.884E-03    0.798E-03
RMM:   9    -0.413165009326E+03    0.35019E-05   -0.10330E-05  3524   0.373E-03    0.403E-03
RMM:  10    -0.413165009366E+03   -0.40800E-07   -0.24447E-06  2614   0.223E-03
    7 T=    61. E= -.41286655E+03 F= -.41316501E+03 E0= -.41314256E+03  EK= 0.29846E+00 SP= 0.00E+00 SK= 0.00E+00
       N       E                     dE             d eps       ncg     rms          rms(c)
RMM:   1    -0.413160288471E+03    0.47209E-02   -0.10020E+01  4265   0.682E-01    0.882E-01
RMM:   2    -0.413168347085E+03   -0.80586E-02   -0.12247E-01  4113   0.918E-02    0.642E-01
RMM:   3    -0.413166395272E+03    0.19518E-02   -0.10888E-02  5008   0.493E-02    0.158E-01
RMM:   4    -0.413206772618E+03   -0.40377E-01   -0.44336E-02  5144   0.175E-01    0.837E-01
RMM:   5    -0.413165292038E+03    0.41481E-01   -0.19555E-02  4803   0.140E-01    0.521E-02
RMM:   6    -0.413165520489E+03   -0.22845E-03   -0.33258E-03  5757   0.561E-02    0.302E-02
RMM:   7    -0.413165536804E+03   -0.16315E-04   -0.47058E-04  5926   0.187E-02    0.201E-02
RMM:   8    -0.413165537417E+03   -0.61313E-06   -0.73759E-05  5220   0.876E-03    0.952E-03
RMM:   9    -0.413165537171E+03    0.24607E-06   -0.14478E-05  4006   0.421E-03    0.616E-03
RMM:  10    -0.413165540440E+03   -0.32697E-05   -0.24587E-06  2614   0.219E-03    0.407E-03
RMM:  11    -0.413165543592E+03   -0.31513E-05   -0.12830E-06  2532   0.175E-03    0.211E-03
RMM:  12    -0.413165547548E+03   -0.39565E-05   -0.15379E-06  2558   0.180E-03    0.740E-04
RMM:  13    -0.413165548644E+03   -0.10957E-05   -0.55901E-07  2310   0.121E-03    0.585E-04
RMM:  14    -0.413165548477E+03    0.16647E-06   -0.23136E-07  1785   0.829E-04
    8 T=    61. E= -.41286672E+03 F= -.41316555E+03 E0= -.41314312E+03  EK= 0.29883E+00 SP= 0.00E+00 SK= 0.00E+00
       N       E                     dE             d eps       ncg     rms          rms(c)
RMM:   1    -0.413162372918E+03    0.31757E-02   -0.10086E+01  4282   0.707E-01    0.898E-01
RMM:   2    -0.413168461745E+03   -0.60888E-02   -0.12329E-01  4153   0.945E-02    0.645E-01
RMM:   3    -0.413165994310E+03    0.24674E-02   -0.10502E-02  4798   0.415E-02    0.123E-01
RMM:   4    -0.413189453757E+03   -0.23459E-01   -0.24118E-02  5146   0.129E-01    0.641E-01
RMM:   5    -0.413165585690E+03    0.23868E-01   -0.11714E-02  4815   0.106E-01    0.430E-02
RMM:   6    -0.413165742680E+03   -0.15699E-03   -0.20032E-03  5783   0.429E-02    0.284E-02
RMM:   7    -0.413165745538E+03   -0.28579E-05   -0.32556E-04  5669   0.168E-02    0.179E-02
RMM:   8    -0.413165740148E+03    0.53894E-05   -0.51359E-05  4942   0.771E-03    0.841E-03
RMM:   9    -0.413165739011E+03    0.11367E-05   -0.10286E-05  3644   0.365E-03    0.650E-03
RMM:  10    -0.413165739829E+03   -0.81722E-06   -0.14823E-06  2541   0.202E-03
    9 T=    61. E= -.41286670E+03 F= -.41316574E+03 E0= -.41314333E+03  EK= 0.29904E+00 SP= 0.00E+00 SK= 0.00E+00
       N       E                     dE             d eps       ncg     rms          rms(c)
RMM:   1    -0.413161103655E+03    0.46354E-02   -0.10044E+01  4298   0.691E-01    0.905E-01
RMM:   2    -0.413168204789E+03   -0.71011E-02   -0.12063E-01  4251   0.931E-02    0.637E-01
RMM:   3    -0.413168795555E+03   -0.59077E-03   -0.12600E-02  5087   0.664E-02    0.258E-01
RMM:   4    -0.413198730525E+03   -0.29935E-01   -0.43003E-02  5113   0.174E-01    0.750E-01
RMM:   5    -0.413165709072E+03    0.33021E-01   -0.14194E-02  4749   0.124E-01    0.580E-02
RMM:   6    -0.413165807065E+03   -0.97993E-04   -0.24785E-03  5586   0.494E-02    0.294E-02
RMM:   7    -0.413165822377E+03   -0.15312E-04   -0.38751E-04  6005   0.169E-02    0.182E-02
RMM:   8    -0.413165818324E+03    0.40532E-05   -0.67354E-05  5235   0.880E-03    0.797E-03
RMM:   9    -0.413165813530E+03    0.47937E-05   -0.10116E-05  3504   0.372E-03    0.401E-03
RMM:  10    -0.413165812380E+03    0.11499E-05   -0.23626E-06  2599   0.223E-03    0.274E-03
RMM:  11    -0.413165810607E+03    0.17735E-05   -0.12722E-06  2519   0.179E-03    0.145E-03
RMM:  12    -0.413165808794E+03    0.18132E-05   -0.76089E-07  2480   0.140E-03    0.491E-04
RMM:  13    -0.413165807865E+03    0.92815E-06   -0.36896E-07  2054   0.988E-04
   10 T=    61. E= -.41286658E+03 F= -.41316581E+03 E0= -.41314342E+03  EK= 0.29922E+00 SP= 0.00E+00 SK= 0.00E+00
       N       E                     dE             d eps       ncg     rms          rms(c)
RMM:   1    -0.413161448296E+03    0.43605E-02   -0.10005E+01  4290   0.701E-01    0.882E-01
RMM:   2    -0.413169233888E+03   -0.77856E-02   -0.12212E-01  4225   0.939E-02    0.640E-01
RMM:   3    -0.413166965965E+03    0.22679E-02   -0.10447E-02  4879   0.447E-02    0.131E-01
RMM:   4    -0.413197709117E+03   -0.30743E-01   -0.32140E-02  5139   0.149E-01    0.731E-01
RMM:   5    -0.413166369279E+03    0.31340E-01   -0.15234E-02  4799   0.122E-01    0.461E-02
RMM:   6    -0.413166564509E+03   -0.19523E-03   -0.25572E-03  5765   0.488E-02    0.296E-02
RMM:   7    -0.413166570796E+03   -0.62873E-05   -0.38685E-04  5745   0.177E-02    0.189E-02
RMM:   8    -0.413166567340E+03    0.34555E-05   -0.61233E-05  5032   0.819E-03    0.897E-03
RMM:   9    -0.413166565948E+03    0.13923E-05   -0.12559E-05  3861   0.399E-03    0.662E-03
RMM:  10    -0.413166567139E+03   -0.11905E-05   -0.17595E-06  2569   0.207E-03    0.426E-03
RMM:  11    -0.413166568709E+03   -0.15703E-05   -0.14574E-06  2536   0.187E-03    0.205E-03
RMM:  12    -0.413166570306E+03   -0.15975E-05   -0.14854E-06  2548   0.179E-03    0.836E-04
RMM:  13    -0.413166570437E+03   -0.13027E-06   -0.41776E-07  2254   0.113E-03
   11 T=    61. E= -.41286689E+03 F= -.41316657E+03 E0= -.41314421E+03  EK= 0.29968E+00 SP= 0.00E+00 SK= 0.00E+00
       N       E                     dE             d eps       ncg     rms          rms(c)
RMM:   1    -0.413161479813E+03    0.50905E-02   -0.10079E+01  4297   0.701E-01    0.893E-01
RMM:   2    -0.413169264317E+03   -0.77845E-02   -0.12291E-01  4226   0.944E-02    0.647E-01
RMM:   3    -0.413166802487E+03    0.24618E-02   -0.10594E-02  4804   0.428E-02    0.122E-01
RMM:   4    -0.413192168819E+03   -0.25366E-01   -0.26202E-02  5135   0.134E-01    0.665E-01
RMM:   5    -0.413166366689E+03    0.25802E-01   -0.12591E-02  4807   0.110E-01    0.434E-02
RMM:   6    -0.413166534129E+03   -0.16744E-03   -0.21438E-03  5792   0.442E-02    0.278E-02
RMM:   7    -0.413166540723E+03   -0.65935E-05   -0.32566E-04  5714   0.167E-02    0.178E-02
RMM:   8    -0.413166535943E+03    0.47801E-05   -0.57847E-05  4968   0.803E-03    0.874E-03
RMM:   9    -0.413166534571E+03    0.13716E-05   -0.11651E-05  3839   0.390E-03    0.670E-03
RMM:  10    -0.413166535560E+03   -0.98897E-06   -0.15583E-06  2547   0.203E-03
   12 T=    61. E= -.41286660E+03 F= -.41316654E+03 E0= -.41314420E+03  EK= 0.29993E+00 SP= 0.00E+00 SK= 0.00E+00
       N       E                     dE             d eps       ncg     rms          rms(c)
RMM:   1    -0.413162470933E+03    0.40636E-02   -0.10078E+01  4306   0.704E-01    0.910E-01
RMM:   2    -0.413169253275E+03   -0.67823E-02   -0.12106E-01  4280   0.927E-02    0.640E-01
RMM:   3    -0.413170490608E+03   -0.12373E-02   -0.13121E-02  5122   0.676E-02    0.273E-01
RMM:   4    -0.413198156807E+03   -0.27666E-01   -0.42393E-02  5106   0.173E-01    0.729E-01
RMM:   5    -0.413166965802E+03    0.31191E-01   -0.13106E-02  4725   0.120E-01    0.577E-02
RMM:   6    -0.413167053122E+03   -0.87320E-04   -0.23633E-03  5560   0.481E-02    0.295E-02
RMM:   7    -0.413167065557E+03   -0.12435E-04   -0.37551E-04  5999   0.168E-02    0.182E-02
RMM:   8    -0.413167060379E+03    0.51774E-05   -0.66210E-05  5218   0.879E-03    0.795E-03
RMM:   9    -0.413167054517E+03    0.58628E-05   -0.97645E-06  3477   0.371E-03    0.397E-03
RMM:  10    -0.413167052583E+03    0.19338E-05   -0.22143E-06  2584   0.219E-03    0.268E-03
RMM:  11    -0.413167049592E+03    0.29910E-05   -0.12569E-06  2516   0.178E-03    0.145E-03
RMM:  12    -0.413167046802E+03    0.27904E-05   -0.72657E-07  2465   0.139E-03    0.492E-04
RMM:  13    -0.413167045360E+03    0.14411E-05   -0.35764E-07  2059   0.984E-04    0.303E-04
RMM:  14    -0.413167044044E+03    0.13160E-05   -0.21552E-07  1588   0.793E-04    0.209E-04
RMM:  15    -0.413167042064E+03    0.19803E-05   -0.19071E-07  1430   0.740E-04    0.108E-04
RMM:  16    -0.413167040089E+03    0.19753E-05   -0.15935E-07  1409   0.705E-04    0.116E-04
RMM:  17    -0.413167038001E+03    0.20881E-05   -0.14499E-07  1315   0.663E-04    0.622E-05
RMM:  18    -0.413167036781E+03    0.12200E-05   -0.79856E-08  1038   0.589E-04    0.301E-05
RMM:  19    -0.413167036146E+03    0.63435E-06   -0.43018E-08   857   0.552E-04
   13 T=    61. E= -.41286666E+03 F= -.41316704E+03 E0= -.41314473E+03  EK= 0.30037E+00 SP= 0.00E+00 SK= 0.00E+00
       N       E                     dE             d eps       ncg     rms          rms(c)
RMM:   1    -0.413162550128E+03    0.44867E-02   -0.10007E+01  4293   0.711E-01    0.886E-01
RMM:   2    -0.413170263350E+03   -0.77132E-02   -0.12180E-01  4226   0.927E-02    0.639E-01
RMM:   3    -0.413168231191E+03    0.20322E-02   -0.10514E-02  4910   0.445E-02    0.140E-01
RMM:   4    -0.413202256385E+03   -0.34025E-01   -0.36051E-02  5137   0.157E-01    0.768E-01
RMM:   5    -0.413167524226E+03    0.34732E-01   -0.16817E-02  4795   0.128E-01    0.483E-02
RMM:   6    -0.413167733690E+03   -0.20946E-03   -0.28789E-03  5758   0.514E-02    0.307E-02
RMM:   7    -0.413167738706E+03   -0.50164E-05   -0.42039E-04  5738   0.182E-02    0.197E-02
RMM:   8    -0.413167733983E+03    0.47233E-05   -0.65501E-05  5112   0.843E-03    0.938E-03
RMM:   9    -0.413167731124E+03    0.28583E-05   -0.13652E-05  3978   0.413E-03    0.675E-03
RMM:  10    -0.413167731032E+03    0.92095E-07   -0.19171E-06  2564   0.211E-03
   14 T=    61. E= -.41286678E+03 F= -.41316773E+03 E0= -.41314546E+03  EK= 0.30095E+00 SP= 0.00E+00 SK= 0.00E+00
       N       E                     dE             d eps       ncg     rms          rms(c)
RMM:   1    -0.413162687315E+03    0.50438E-02   -0.10097E+01  4306   0.713E-01    0.891E-01
RMM:   2    -0.413170718967E+03   -0.80317E-02   -0.12363E-01  4300   0.949E-02    0.649E-01
RMM:   3    -0.413172764140E+03   -0.20452E-02   -0.14443E-02  5127   0.763E-02    0.315E-01
RMM:   4    -0.413196898317E+03   -0.24134E-01   -0.43651E-02  5091   0.177E-01    0.704E-01
RMM:   5    -0.413167698064E+03    0.29200E-01   -0.11622E-02  4699   0.115E-01    0.574E-02
RMM:   6    -0.413167752741E+03   -0.54677E-04   -0.21425E-03  5513   0.456E-02    0.275E-02
RMM:   7    -0.413167773769E+03   -0.21029E-04   -0.34602E-04  5999   0.165E-02    0.174E-02
RMM:   8    -0.413167774413E+03   -0.64418E-06   -0.66035E-05  5213   0.880E-03    0.765E-03
RMM:   9    -0.413167772602E+03    0.18112E-05   -0.94653E-06  3443   0.375E-03    0.370E-03
RMM:  10    -0.413167773818E+03   -0.12159E-05   -0.19608E-06  2560   0.211E-03    0.242E-03
RMM:  11    -0.413167775451E+03   -0.16330E-05   -0.14585E-06  2534   0.185E-03    0.150E-03
RMM:  12    -0.413167775966E+03   -0.51498E-06   -0.69376E-07  2459   0.138E-03
   15 T=    61. E= -.41286641E+03 F= -.41316778E+03 E0= -.41314554E+03  EK= 0.30136E+00 SP= 0.00E+00 SK= 0.00E+00
       N       E                     dE             d eps       ncg     rms          rms(c)
RMM:   1    -0.413164192589E+03    0.35829E-02   -0.10112E+01  4301   0.717E-01    0.911E-01
RMM:   2    -0.413171305328E+03   -0.71127E-02   -0.12185E-01  4246   0.949E-02    0.643E-01
RMM:   3    -0.413169416917E+03    0.18884E-02   -0.10889E-02  4931   0.462E-02    0.150E-01
RMM:   4    -0.413205330872E+03   -0.35914E-01   -0.38254E-02  5134   0.162E-01    0.789E-01
RMM:   5    -0.413168625130E+03    0.36706E-01   -0.17796E-02  4794   0.132E-01    0.497E-02
RMM:   6    -0.413168838018E+03   -0.21289E-03   -0.29971E-03  5760   0.530E-02    0.319E-02
RMM:   7    -0.413168837405E+03    0.61285E-06   -0.44124E-04  5777   0.190E-02    0.206E-02
RMM:   8    -0.413168828012E+03    0.93928E-05   -0.71664E-05  5139   0.883E-03    0.101E-02
RMM:   9    -0.413168821685E+03    0.63269E-05   -0.14210E-05  4050   0.426E-03    0.710E-03
RMM:  10    -0.413168817995E+03    0.36903E-05   -0.20861E-06  2582   0.218E-03    0.453E-03
RMM:  11    -0.413168814617E+03    0.33778E-05   -0.13553E-06  2523   0.183E-03    0.237E-03
RMM:  12    -0.413168809352E+03    0.52653E-05   -0.16765E-06  2565   0.194E-03    0.920E-04
RMM:  13    -0.413168807695E+03    0.16564E-05   -0.49738E-07  2347   0.125E-03    0.646E-04
RMM:  14    -0.413168807756E+03   -0.60143E-07   -0.22446E-07  1847   0.833E-04
   16 T=    61. E= -.41286678E+03 F= -.41316881E+03 E0= -.41314661E+03  EK= 0.30203E+00 SP= 0.00E+00 SK= 0.00E+00
       N       E                     dE             d eps       ncg     rms          rms(c)
RMM:   1    -0.413164282613E+03    0.45251E-02   -0.10035E+01  4299   0.716E-01    0.892E-01
RMM:   2    -0.413171882117E+03   -0.75995E-02   -0.12184E-01  4252   0.936E-02    0.638E-01
RMM:   3    -0.413169611751E+03    0.22704E-02   -0.10392E-02  4855   0.430E-02    0.133E-01
RMM:   4    -0.413198334283E+03   -0.28723E-01   -0.29970E-02  5135   0.144E-01    0.707E-01
RMM:   5    -0.413169071532E+03    0.29263E-01   -0.14311E-02  4797   0.118E-01    0.459E-02
RMM:   6    -0.413169255834E+03   -0.18430E-03   -0.24600E-03  5785   0.474E-02    0.297E-02
RMM:   7    -0.413169258674E+03   -0.28398E-05   -0.37056E-04  5712   0.176E-02    0.190E-02
RMM:   8    -0.413169250173E+03    0.85007E-05   -0.62848E-05  5027   0.831E-03    0.928E-03
RMM:   9    -0.413169245666E+03    0.45074E-05   -0.12633E-05  3910   0.404E-03    0.695E-03
RMM:  10    -0.413169243451E+03    0.22154E-05   -0.16828E-06  2550   0.208E-03    0.443E-03
RMM:  11    -0.413169241065E+03    0.23856E-05   -0.14094E-06  2527   0.187E-03    0.220E-03
RMM:  12    -0.413169237745E+03    0.33197E-05   -0.14202E-06  2531   0.182E-03    0.829E-04
RMM:  13    -0.413169236970E+03    0.77489E-06   -0.42282E-07  2250   0.115E-03
   17 T=    62. E= -.41286672E+03 F= -.41316924E+03 E0= -.41314708E+03  EK= 0.30252E+00 SP= 0.00E+00 SK= 0.00E+00
       N       E                     dE             d eps       ncg     rms          rms(c)
RMM:   1    -0.413164633530E+03    0.46042E-02   -0.10109E+01  4298   0.725E-01    0.889E-01
RMM:   2    -0.413172643957E+03   -0.80104E-02   -0.12421E-01  4257   0.947E-02    0.650E-01
RMM:   3    -0.413170072379E+03    0.25716E-02   -0.10859E-02  4856   0.445E-02    0.125E-01
RMM:   4    -0.413199449345E+03   -0.29377E-01   -0.30679E-02  5131   0.145E-01    0.715E-01
RMM:   5    -0.413169520902E+03    0.29928E-01   -0.14651E-02  4798   0.119E-01    0.451E-02
RMM:   6    -0.413169706016E+03   -0.18511E-03   -0.24500E-03  5796   0.474E-02    0.285E-02
RMM:   7    -0.413169713878E+03   -0.78617E-05   -0.35862E-04  5732   0.174E-02    0.184E-02
RMM:   8    -0.413169709156E+03    0.47218E-05   -0.65179E-05  5022   0.836E-03    0.924E-03
RMM:   9    -0.413169706458E+03    0.26973E-05   -0.13256E-05  4010   0.413E-03    0.685E-03
RMM:  10    -0.413169706650E+03   -0.19165E-06   -0.17288E-06  2558   0.207E-03
   18 T=    62. E= -.41286659E+03 F= -.41316971E+03 E0= -.41314759E+03  EK= 0.30312E+00 SP= 0.00E+00 SK= 0.00E+00
       N       E                     dE             d eps       ncg     rms          rms(c)
RMM:   1    -0.413166242237E+03    0.34642E-02   -0.10141E+01  4305   0.727E-01    0.910E-01
RMM:   2    -0.413173413778E+03   -0.71715E-02   -0.12286E-01  4302   0.965E-02    0.646E-01
RMM:   3    -0.413174979216E+03   -0.15654E-02   -0.13698E-02  5110   0.725E-02    0.292E-01
RMM:   4    -0.413201136095E+03   -0.26157E-01   -0.42811E-02  5089   0.174E-01    0.718E-01
RMM:   5    -0.413170859898E+03    0.30276E-01   -0.12527E-02  4710   0.118E-01    0.570E-02
RMM:   6    -0.413170938657E+03   -0.78758E-04   -0.22775E-03  5552   0.469E-02    0.293E-02
RMM:   7    -0.413170947797E+03   -0.91407E-05   -0.35928E-04  5988   0.166E-02    0.182E-02
RMM:   8    -0.413170941929E+03    0.58679E-05   -0.65294E-05  5195   0.875E-03    0.789E-03
RMM:   9    -0.413170935296E+03    0.66329E-05   -0.96657E-06  3481   0.374E-03    0.388E-03
RMM:  10    -0.413170932871E+03    0.24256E-05   -0.21398E-06  2575   0.218E-03    0.262E-03
RMM:  11    -0.413170928974E+03    0.38966E-05   -0.12227E-06  2512   0.178E-03    0.145E-03
RMM:  12    -0.413170925501E+03    0.34732E-05   -0.66572E-07  2450   0.136E-03    0.478E-04
RMM:  13    -0.413170923590E+03    0.19110E-05   -0.32639E-07  2018   0.961E-04    0.294E-04
RMM:  14    -0.413170921878E+03    0.17123E-05   -0.19163E-07  1535   0.775E-04    0.202E-04
RMM:  15    -0.413170919227E+03    0.26504E-05   -0.15726E-07  1343   0.721E-04    0.101E-04
RMM:  16    -0.413170916758E+03    0.24693E-05   -0.13217E-07  1369   0.689E-04    0.109E-04
RMM:  17    -0.413170914050E+03    0.27078E-05   -0.12082E-07  1393   0.663E-04    0.618E-05
RMM:  18    -0.413170912342E+03    0.17085E-05   -0.69508E-08  1021   0.577E-04    0.310E-05
RMM:  19    -0.413170911666E+03    0.67557E-06   -0.35457E-08   843   0.545E-04
   19 T=    62. E= -.41286689E+03 F= -.41317091E+03 E0= -.41314883E+03  EK= 0.30402E+00 SP= 0.00E+00 SK= 0.00E+00
       N       E                     dE             d eps       ncg     rms          rms(c)
RMM:   1    -0.413167048657E+03    0.38637E-02   -0.10090E+01  4296   0.738E-01    0.901E-01
RMM:   2    -0.413173650148E+03   -0.66015E-02   -0.12225E-01  4263   0.957E-02    0.640E-01
RMM:   3    -0.413171926973E+03    0.17232E-02   -0.10771E-02  4934   0.468E-02    0.151E-01
RMM:   4    -0.413208726443E+03   -0.36799E-01   -0.39506E-02  5134   0.165E-01    0.798E-01
RMM:   5    -0.413171085879E+03    0.37641E-01   -0.18207E-02  4790   0.133E-01    0.505E-02
RMM:   6    -0.413171307762E+03   -0.22188E-03   -0.31583E-03  5754   0.537E-02    0.322E-02
RMM:   7    -0.413171310219E+03   -0.24575E-05   -0.45665E-04  5742   0.190E-02    0.208E-02
RMM:   8    -0.413171301598E+03    0.86207E-05   -0.72462E-05  5155   0.889E-03    0.101E-02
RMM:   9    -0.413171295181E+03    0.64169E-05   -0.15258E-05  4147   0.435E-03    0.712E-03
RMM:  10    -0.413171291587E+03    0.35945E-05   -0.21491E-06  2585   0.219E-03    0.460E-03
RMM:  11    -0.413171288526E+03    0.30609E-05   -0.12407E-06  2508   0.178E-03    0.252E-03
RMM:  12    -0.413171283495E+03    0.50310E-05   -0.16012E-06  2545   0.196E-03    0.904E-04
RMM:  13    -0.413171281597E+03    0.18976E-05   -0.52234E-07  2344   0.128E-03    0.703E-04
RMM:  14    -0.413171281804E+03   -0.20675E-06   -0.23597E-07  1894   0.855E-04
   20 T=    62. E= -.41286662E+03 F= -.41317128E+03 E0= -.41314925E+03  EK= 0.30466E+00 SP= 0.00E+00 SK= 0.00E+00
       N       E                     dE             d eps       ncg     rms          rms(c)
RMM:   1    -0.413168172343E+03    0.31093E-02   -0.10139E+01  4294   0.753E-01    0.889E-01
RMM:   2    -0.413175404506E+03   -0.72322E-02   -0.12734E-01  4277   0.979E-02    0.650E-01
RMM:   3    -0.413172731219E+03    0.26733E-02   -0.10697E-02  4828   0.439E-02    0.124E-01
RMM:   4    -0.413199080886E+03   -0.26350E-01   -0.27392E-02  5133   0.137E-01    0.677E-01
RMM:   5    -0.413172265807E+03    0.26815E-01   -0.13189E-02  4801   0.113E-01    0.440E-02
RMM:   6    -0.413172427787E+03   -0.16198E-03   -0.22494E-03  5811   0.449E-02    0.277E-02
RMM:   7    -0.413172434029E+03   -0.62413E-05   -0.31792E-04  5702   0.166E-02    0.172E-02
RMM:   8    -0.413172428615E+03    0.54142E-05   -0.64370E-05  4995   0.829E-03    0.928E-03
RMM:   9    -0.413172424696E+03    0.39181E-05   -0.12777E-05  4021   0.412E-03    0.694E-03
RMM:  10    -0.413172424045E+03    0.65173E-06   -0.16325E-06  2549   0.205E-03
   21 T=    62. E= -.41286677E+03 F= -.41317242E+03 E0= -.41315044E+03  EK= 0.30566E+00 SP= 0.00E+00 SK= 0.00E+00
       N       E                     dE             d eps       ncg     rms          rms(c)
RMM:   1    -0.413168790907E+03    0.36338E-02   -0.10187E+01  4291   0.746E-01    0.909E-01
RMM:   2    -0.413176207173E+03   -0.74163E-02   -0.12425E-01  4297   0.969E-02    0.651E-01
RMM:   3    -0.413177000349E+03   -0.79318E-03   -0.13385E-02  5099   0.692E-02    0.274E-01
RMM:   4    -0.413207247153E+03   -0.30247E-01   -0.45723E-02  5101   0.180E-01    0.758E-01
RMM:   5    -0.413173363487E+03    0.33884E-01   -0.14404E-02  4724   0.125E-01    0.569E-02
RMM:   6    -0.413173465004E+03   -0.10152E-03   -0.25209E-03  5609   0.499E-02    0.295E-02
RMM:   7    -0.413173474391E+03   -0.93873E-05   -0.38657E-04  5967   0.173E-02    0.187E-02
RMM:   8    -0.413173469002E+03    0.53891E-05   -0.70204E-05  5188   0.902E-03    0.828E-03
RMM:   9    -0.413173462301E+03    0.67010E-05   -0.11135E-05  3631   0.394E-03    0.411E-03
RMM:  10    -0.413173459810E+03    0.24914E-05   -0.24061E-06  2609   0.222E-03    0.283E-03
RMM:  11    -0.413173456213E+03    0.35971E-05   -0.11441E-06  2505   0.173E-03    0.148E-03
RMM:  12    -0.413173452411E+03    0.38018E-05   -0.70087E-07  2457   0.138E-03    0.453E-04
RMM:  13    -0.413173450480E+03    0.19309E-05   -0.34177E-07  2058   0.980E-04    0.288E-04
RMM:  14    -0.413173449014E+03    0.14664E-05   -0.19174E-07  1551   0.773E-04    0.200E-04
RMM:  15    -0.413173446362E+03    0.26515E-05   -0.15022E-07  1331   0.713E-04    0.991E-05
RMM:  16    -0.413173443806E+03    0.25559E-05   -0.12218E-07  1317   0.683E-04    0.118E-04
RMM:  17    -0.413173441431E+03    0.23754E-05   -0.96635E-08  1266   0.644E-04    0.692E-05
RMM:  18    -0.413173439153E+03    0.22781E-05   -0.74980E-08  1136   0.605E-04    0.277E-05
RMM:  19    -0.413173438315E+03    0.83779E-06   -0.35939E-08   870   0.549E-04
   22 T=    62. E= -.41286676E+03 F= -.41317344E+03 E0= -.41315150E+03  EK= 0.30668E+00 SP= 0.00E+00 SK= 0.00E+00
       N       E                     dE             d eps       ncg     rms          rms(c)
RMM:   1    -0.413169418956E+03    0.40202E-02   -0.10161E+01  4296   0.744E-01    0.910E-01
RMM:   2    -0.413176801503E+03   -0.73825E-02   -0.12341E-01  4273   0.984E-02    0.644E-01
RMM:   3    -0.413174636030E+03    0.21655E-02   -0.10898E-02  4872   0.471E-02    0.145E-01
RMM:   4    -0.413208092226E+03   -0.33456E-01   -0.35283E-02  5137   0.156E-01    0.761E-01
RMM:   5    -0.413173956942E+03    0.34135E-01   -0.16682E-02  4787   0.127E-01    0.489E-02
RMM:   6    -0.413174156916E+03   -0.19997E-03   -0.29068E-03  5792   0.512E-02    0.317E-02
RMM:   7    -0.413174158087E+03   -0.11709E-05   -0.41291E-04  5711   0.188E-02    0.200E-02
RMM:   8    -0.413174147665E+03    0.10422E-04   -0.74433E-05  5112   0.897E-03    0.105E-02
RMM:   9    -0.413174139989E+03    0.76759E-05   -0.14841E-05  4144   0.440E-03    0.751E-03
RMM:  10    -0.413174135215E+03    0.47747E-05   -0.20225E-06  2576   0.221E-03    0.481E-03
RMM:  11    -0.413174130821E+03    0.43941E-05   -0.14260E-06  2520   0.189E-03    0.255E-03
RMM:  12    -0.413174124173E+03    0.66472E-05   -0.16272E-06  2540   0.199E-03    0.928E-04
RMM:  13    -0.413174122210E+03    0.19637E-05   -0.51679E-07  2343   0.128E-03    0.647E-04
RMM:  14    -0.413174122133E+03    0.76703E-07   -0.23915E-07  1893   0.859E-04
   23 T=    63. E= -.41286658E+03 F= -.41317412E+03 E0= -.41315223E+03  EK= 0.30755E+00 SP= 0.00E+00 SK= 0.00E+00
       N       E                     dE             d eps       ncg     rms          rms(c)
RMM:   1    -0.413170955723E+03    0.31665E-02   -0.10167E+01  4298   0.768E-01    0.892E-01
RMM:   2    -0.413178841163E+03   -0.78854E-02   -0.12561E-01  4278   0.100E-01    0.650E-01
RMM:   3    -0.413175954678E+03    0.28865E-02   -0.10747E-02  4742   0.445E-02    0.119E-01
RMM:   4    -0.413198046721E+03   -0.22092E-01   -0.22739E-02  5135   0.126E-01    0.622E-01
RMM:   5    -0.413175582785E+03    0.22464E-01   -0.11159E-02  4806   0.103E-01    0.424E-02
RMM:   6    -0.413175710137E+03   -0.12735E-03   -0.18981E-03  5814   0.409E-02    0.262E-02
RMM:   7    -0.413175713529E+03   -0.33918E-05   -0.25150E-04  5689   0.154E-02    0.147E-02
RMM:   8    -0.413175709534E+03    0.39952E-05   -0.56100E-05  4982   0.769E-03    0.912E-03
RMM:   9    -0.413175704817E+03    0.47167E-05   -0.11148E-05  3872   0.391E-03    0.680E-03
RMM:  10    -0.413175703307E+03    0.15103E-05   -0.15277E-06  2545   0.206E-03    0.432E-03
RMM:  11    -0.413175701090E+03    0.22170E-05   -0.16036E-06  2531   0.203E-03    0.205E-03
RMM:  12    -0.413175698459E+03    0.26307E-05   -0.10943E-06  2473   0.167E-03    0.695E-04
RMM:  13    -0.413175697853E+03    0.60593E-06   -0.37615E-07  2150   0.106E-03
   24 T=    63. E= -.41286692E+03 F= -.41317570E+03 E0= -.41315385E+03  EK= 0.30878E+00 SP= 0.00E+00 SK= 0.00E+00
       N       E                     dE             d eps       ncg     rms          rms(c)
RMM:   1    -0.413173608297E+03    0.20902E-02   -0.10264E+01  4297   0.794E-01    0.907E-01
RMM:   2    -0.413179770334E+03   -0.61620E-02   -0.12648E-01  4276   0.103E-01    0.656E-01
RMM:   3    -0.413176844449E+03    0.29259E-02   -0.10917E-02  4656   0.450E-02    0.116E-01
RMM:   4    -0.413193639297E+03   -0.16795E-01   -0.17195E-02  5141   0.109E-01    0.544E-01
RMM:   5    -0.413176609041E+03    0.17030E-01   -0.85317E-03  4818   0.898E-02    0.403E-02
RMM:   6    -0.413176684703E+03   -0.75662E-04   -0.14032E-03  5821   0.352E-02    0.236E-02
RMM:   7    -0.413176686168E+03   -0.14648E-05   -0.17228E-04  5592   0.129E-02    0.114E-02
RMM:   8    -0.413176678979E+03    0.71889E-05   -0.30638E-05  4726   0.575E-03    0.747E-03
RMM:   9    -0.413176678220E+03    0.75894E-06   -0.79566E-06  3486   0.324E-03
   25 T=    63. E= -.41286672E+03 F= -.41317668E+03 E0= -.41315488E+03  EK= 0.30995E+00 SP= 0.00E+00 SK= 0.00E+00
       N       E                     dE             d eps       ncg     rms          rms(c)
RMM:   1    -0.413173558314E+03    0.31207E-02   -0.10256E+01  4294   0.762E-01    0.920E-01
RMM:   2    -0.413180566935E+03   -0.70086E-02   -0.12476E-01  4341   0.102E-01    0.649E-01
RMM:   3    -0.413185169852E+03   -0.46029E-02   -0.16518E-02  5122   0.896E-02    0.376E-01
RMM:   4    -0.413199102597E+03   -0.13933E-01   -0.37626E-02  5058   0.166E-01    0.602E-01
RMM:   5    -0.413178056453E+03    0.21046E-01   -0.76323E-03  4653   0.988E-02    0.547E-02
RMM:   6    -0.413178052862E+03    0.35913E-05   -0.15662E-03  5512   0.385E-02    0.299E-02
RMM:   7    -0.413178048689E+03    0.41727E-05   -0.28094E-04  5877   0.159E-02    0.182E-02
RMM:   8    -0.413178038679E+03    0.10010E-04   -0.60192E-05  5074   0.873E-03    0.747E-03
RMM:   9    -0.413178029159E+03    0.95196E-05   -0.83885E-06  3481   0.377E-03    0.370E-03
RMM:  10    -0.413178025265E+03    0.38939E-05   -0.14485E-06  2524   0.201E-03    0.233E-03
RMM:  11    -0.413178017608E+03    0.76578E-05   -0.11177E-06  2499   0.171E-03    0.139E-03
RMM:  12    -0.413178012205E+03    0.54030E-05   -0.54538E-07  2419   0.127E-03    0.493E-04
RMM:  13    -0.413178008294E+03    0.39100E-05   -0.27714E-07  1917   0.900E-04    0.273E-04
RMM:  14    -0.413178005230E+03    0.30648E-05   -0.15499E-07  1393   0.727E-04    0.179E-04
RMM:  15    -0.413177999722E+03    0.55081E-05   -0.14473E-07  1343   0.711E-04    0.123E-04
RMM:  16    -0.413177996015E+03    0.37063E-05   -0.10758E-07  1305   0.659E-04    0.119E-04
RMM:  17    -0.413177991517E+03    0.44978E-05   -0.10976E-07  1327   0.652E-04    0.616E-05
RMM:  18    -0.413177989976E+03    0.15414E-05   -0.49804E-08   933   0.560E-04    0.412E-05
RMM:  19    -0.413177989221E+03    0.75529E-06   -0.29729E-08   820   0.532E-04
   26 T=    63. E= -.41286670E+03 F= -.41317799E+03 E0= -.41315624E+03  EK= 0.31129E+00 SP= 0.00E+00 SK= 0.00E+00
       N       E                     dE             d eps       ncg     rms          rms(c)
RMM:   1    -0.413179021152E+03   -0.10312E-02   -0.10266E+01  4291   0.809E-01    0.897E-01
RMM:   2    -0.413182504788E+03   -0.34836E-02   -0.12650E-01  4276   0.103E-01    0.651E-01
RMM:   3    -0.413180071627E+03    0.24332E-02   -0.11002E-02  4790   0.484E-02    0.129E-01
RMM:   4    -0.413208071057E+03   -0.27999E-01   -0.28915E-02  5142   0.141E-01    0.697E-01
RMM:   5    -0.413179611985E+03    0.28459E-01   -0.14190E-02  4799   0.116E-01    0.451E-02
RMM:   6    -0.413179756625E+03   -0.14464E-03   -0.23151E-03  5815   0.461E-02    0.287E-02
RMM:   7    -0.413179760057E+03   -0.34316E-05   -0.31632E-04  5712   0.169E-02    0.168E-02
RMM:   8    -0.413179754757E+03    0.52998E-05   -0.67425E-05  5031   0.839E-03    0.982E-03
RMM:   9    -0.413179748719E+03    0.60379E-05   -0.13470E-05  4108   0.426E-03    0.703E-03
RMM:  10    -0.413179746325E+03    0.23938E-05   -0.18036E-06  2564   0.213E-03    0.446E-03
RMM:  11    -0.413179743659E+03    0.26660E-05   -0.14641E-06  2514   0.194E-03    0.223E-03
RMM:  12    -0.413179740108E+03    0.35513E-05   -0.13404E-06  2505   0.182E-03    0.812E-04
RMM:  13    -0.413179739098E+03    0.10100E-05   -0.43633E-07  2258   0.116E-03    0.544E-04
RMM:  14    -0.413179738805E+03    0.29233E-06   -0.20752E-07  1762   0.808E-04
   27 T=    64. E= -.41286690E+03 F= -.41317974E+03 E0= -.41315804E+03  EK= 0.31284E+00 SP= 0.00E+00 SK= 0.00E+00
       N       E                     dE             d eps       ncg     rms          rms(c)
RMM:   1    -0.413183159526E+03   -0.34204E-02   -0.10407E+01  4294   0.826E-01    0.904E-01
RMM:   2    -0.413183891161E+03   -0.73163E-03   -0.14280E-01  4274   0.108E-01    0.663E-01
RMM:   3    -0.413181036560E+03    0.28546E-02   -0.10417E-02  4518   0.448E-02    0.129E-01
RMM:   4    -0.413192051559E+03   -0.11015E-01   -0.11543E-02  5155   0.906E-02    0.442E-01
RMM:   5    -0.413180895272E+03    0.11156E-01   -0.56386E-03  4827   0.727E-02    0.381E-02
RMM:   6    -0.413180928919E+03   -0.33647E-04   -0.95189E-04  5862   0.287E-02    0.214E-02
RMM:   7    -0.413180929203E+03   -0.28395E-06   -0.13516E-04  5533   0.119E-02    0.112E-02
RMM:   8    -0.413180921401E+03    0.78019E-05   -0.25180E-05  4610   0.542E-03    0.678E-03
RMM:   9    -0.413180920607E+03    0.79355E-06   -0.53276E-06  3080   0.290E-03
   28 T=    64. E= -.41286658E+03 F= -.41318092E+03 E0= -.41315927E+03  EK= 0.31435E+00 SP= 0.00E+00 SK= 0.00E+00
       N       E                     dE             d eps       ncg     rms          rms(c)
RMM:   1    -0.413178812008E+03    0.21094E-02   -0.10372E+01  4293   0.796E-01    0.928E-01
RMM:   2    -0.413185567508E+03   -0.67555E-02   -0.12703E-01  4308   0.105E-01    0.656E-01
RMM:   3    -0.413186264147E+03   -0.69664E-03   -0.13732E-02  5074   0.740E-02    0.271E-01
RMM:   4    -0.413217694540E+03   -0.31430E-01   -0.45337E-02  5091   0.180E-01    0.768E-01
RMM:   5    -0.413182833770E+03    0.34861E-01   -0.14916E-02  4746   0.127E-01    0.566E-02
RMM:   6    -0.413182946692E+03   -0.11292E-03   -0.27393E-03  5714   0.507E-02    0.318E-02
RMM:   7    -0.413182949259E+03   -0.25674E-05   -0.41687E-04  5904   0.182E-02    0.209E-02
RMM:   8    -0.413182940421E+03    0.88378E-05   -0.79462E-05  5157   0.961E-03    0.948E-03
RMM:   9    -0.413182930135E+03    0.10287E-04   -0.12287E-05  3825   0.425E-03    0.469E-03
RMM:  10    -0.413182924716E+03    0.54185E-05   -0.25839E-06  2635   0.231E-03    0.314E-03
RMM:  11    -0.413182918209E+03    0.65072E-05   -0.11669E-06  2501   0.177E-03    0.160E-03
RMM:  12    -0.413182910544E+03    0.76652E-05   -0.78375E-07  2459   0.146E-03    0.488E-04
RMM:  13    -0.413182907128E+03    0.34164E-05   -0.39090E-07  2185   0.105E-03    0.326E-04
RMM:  14    -0.413182905150E+03    0.19772E-05   -0.21361E-07  1693   0.807E-04    0.247E-04
RMM:  15    -0.413182899273E+03    0.58773E-05   -0.16928E-07  1453   0.753E-04    0.170E-04
RMM:  16    -0.413182896339E+03    0.29342E-05   -0.10272E-07  1226   0.663E-04    0.149E-04
RMM:  17    -0.413182892307E+03    0.40317E-05   -0.98393E-08  1310   0.659E-04    0.952E-05
RMM:  18    -0.413182890067E+03    0.22399E-05   -0.63317E-08  1083   0.599E-04    0.417E-05
RMM:  19    -0.413182888143E+03    0.19241E-05   -0.46608E-08   996   0.576E-04    0.347E-05
RMM:  20    -0.413182887909E+03    0.23458E-06   -0.21965E-08   768   0.535E-04
   29 T=    64. E= -.41286673E+03 F= -.41318289E+03 E0= -.41316129E+03  EK= 0.31616E+00 SP= 0.00E+00 SK= 0.00E+00
       N       E                     dE             d eps       ncg     rms          rms(c)
RMM:   1    -0.413180162650E+03    0.27255E-02   -0.10327E+01  4287   0.799E-01    0.907E-01
RMM:   2    -0.413187796139E+03   -0.76335E-02   -0.12837E-01  4270   0.113E-01    0.654E-01
RMM:   3    -0.413184900141E+03    0.28960E-02   -0.11170E-02  4490   0.515E-02    0.116E-01
RMM:   4    -0.413194761101E+03   -0.98610E-02   -0.10227E-02  5153   0.851E-02    0.419E-01
RMM:   5    -0.413184797631E+03    0.99635E-02   -0.50686E-03  4826   0.689E-02    0.387E-02
RMM:   6    -0.413184830204E+03   -0.32573E-04   -0.92194E-04  5829   0.283E-02    0.244E-02
RMM:   7    -0.413184830462E+03   -0.25801E-06   -0.22957E-04  5412   0.149E-02    0.161E-02
RMM:   8    -0.413184814150E+03    0.16312E-04   -0.26607E-05  4580   0.631E-03    0.700E-03
RMM:   9    -0.413184811980E+03    0.21698E-05   -0.49872E-06  2995   0.280E-03    0.508E-03
RMM:  10    -0.413184808482E+03    0.34983E-05   -0.13849E-06  2496   0.197E-03    0.282E-03
RMM:  11    -0.413184804821E+03    0.36607E-05   -0.91420E-07  2473   0.161E-03    0.140E-03
RMM:  12    -0.413184801407E+03    0.34145E-05   -0.54080E-07  2342   0.123E-03    0.688E-04
RMM:  13    -0.413184799897E+03    0.15100E-05   -0.24327E-07  1887   0.866E-04    0.297E-04
RMM:  14    -0.413184798036E+03    0.18613E-05   -0.13399E-07  1376   0.706E-04    0.185E-04
RMM:  15    -0.413184795334E+03    0.27018E-05   -0.91880E-08  1194   0.659E-04    0.814E-05
RMM:  16    -0.413184793665E+03    0.16686E-05   -0.53020E-08   968   0.614E-04    0.659E-05
RMM:  17    -0.413184791776E+03    0.18888E-05   -0.46115E-08   972   0.603E-04    0.423E-05
RMM:  18    -0.413184789194E+03    0.25822E-05   -0.52642E-08  1114   0.610E-04    0.324E-05
RMM:  19    -0.413184788680E+03    0.51395E-06   -0.17961E-08   737   0.541E-04
   30 T=    65. E= -.41286684E+03 F= -.41318479E+03 E0= -.41316324E+03  EK= 0.31795E+00 SP= 0.00E+00 SK= 0.00E+00
       N       E                     dE             d eps       ncg     rms          rms(c)
RMM:   1    -0.413182959913E+03    0.18293E-02   -0.10460E+01  4292   0.834E-01    0.909E-01
RMM:   2    -0.413189985503E+03   -0.70256E-02   -0.13436E-01  4280   0.120E-01    0.667E-01
RMM:   3    -0.413186411162E+03    0.35743E-02   -0.11542E-02  4415   0.552E-02    0.109E-01
RMM:   4    -0.413193374771E+03   -0.69636E-02   -0.73574E-03  5155   0.722E-02    0.352E-01
RMM:   5    -0.413186384719E+03    0.69901E-02   -0.35474E-03  4824   0.579E-02    0.371E-02
RMM:   6    -0.413186413047E+03   -0.28328E-04   -0.71209E-04  5790   0.249E-02    0.242E-02
RMM:   7    -0.413186411554E+03    0.14931E-05   -0.21926E-04  5330   0.146E-02    0.156E-02
RMM:   8    -0.413186398553E+03    0.13001E-04   -0.19782E-05  4318   0.571E-03    0.674E-03
RMM:   9    -0.413186397293E+03    0.12596E-05   -0.33891E-06  2770   0.244E-03    0.454E-03
RMM:  10    -0.413186395426E+03    0.18678E-05   -0.13680E-06  2495   0.188E-03    0.243E-03
RMM:  11    -0.413186393569E+03    0.18571E-05   -0.83816E-07  2454   0.152E-03    0.116E-03
RMM:  12    -0.413186391827E+03    0.17412E-05   -0.44964E-07  2217   0.112E-03    0.555E-04
RMM:  13    -0.413186390736E+03    0.10920E-05   -0.22341E-07  1740   0.822E-04    0.268E-04
RMM:  14    -0.413186389292E+03    0.14434E-05   -0.12588E-07  1284   0.697E-04    0.163E-04
RMM:  15    -0.413186387144E+03    0.21481E-05   -0.94199E-08  1143   0.659E-04    0.796E-05
RMM:  16    -0.413186386046E+03    0.10977E-05   -0.50351E-08   921   0.605E-04    0.592E-05
RMM:  17    -0.413186384107E+03    0.19390E-05   -0.52493E-08  1003   0.608E-04    0.363E-05
RMM:  18    -0.413186382578E+03    0.15295E-05   -0.39558E-08   943   0.582E-04    0.276E-05
RMM:  19    -0.413186382044E+03    0.53415E-06   -0.16074E-08   717   0.541E-04
   31 T=    65. E= -.41286661E+03 F= -.41318638E+03 E0= -.41316488E+03  EK= 0.31978E+00 SP= 0.00E+00 SK= 0.00E+00
       N       E                     dE             d eps       ncg     rms          rms(c)
RMM:   1    -0.413184651096E+03    0.17315E-02   -0.10501E+01  4288   0.821E-01    0.933E-01
RMM:   2    -0.413192027560E+03   -0.73765E-02   -0.13096E-01  4282   0.123E-01    0.663E-01
RMM:   3    -0.413188986856E+03    0.30407E-02   -0.11622E-02  4287   0.546E-02    0.117E-01
RMM:   4    -0.413190491333E+03   -0.15045E-02   -0.22088E-03  5123   0.389E-02    0.164E-01
RMM:   5    -0.413189025075E+03    0.14663E-02   -0.78902E-04  4812   0.279E-02    0.377E-02
RMM:   6    -0.413189038525E+03   -0.13450E-04   -0.35593E-04  5487   0.188E-02    0.275E-02
RMM:   7    -0.413189006156E+03    0.32369E-04   -0.18798E-04  4961   0.137E-02    0.149E-02
RMM:   8    -0.413189000782E+03    0.53733E-05   -0.17882E-05  4113   0.486E-03    0.552E-03
RMM:   9    -0.413188998982E+03    0.18003E-05   -0.22653E-06  2524   0.209E-03    0.306E-03
RMM:  10    -0.413188992656E+03    0.63261E-05   -0.86274E-07  2445   0.152E-03    0.150E-03
RMM:  11    -0.413188987948E+03    0.47080E-05   -0.45664E-07  2158   0.105E-03    0.548E-04
RMM:  12    -0.413188983515E+03    0.44332E-05   -0.25250E-07  1859   0.854E-04    0.238E-04
RMM:  13    -0.413188980390E+03    0.31244E-05   -0.12509E-07  1304   0.692E-04    0.175E-04
RMM:  14    -0.413188976494E+03    0.38961E-05   -0.82723E-08  1095   0.643E-04    0.104E-04
RMM:  15    -0.413188971680E+03    0.48141E-05   -0.84790E-08  1226   0.650E-04    0.864E-05
RMM:  16    -0.413188969038E+03    0.26419E-05   -0.48111E-08   987   0.586E-04    0.695E-05
RMM:  17    -0.413188966762E+03    0.22762E-05   -0.36700E-08   900   0.563E-04    0.334E-05
RMM:  18    -0.413188965967E+03    0.79475E-06   -0.19775E-08   712   0.525E-04
   32 T=    66. E= -.41286697E+03 F= -.41318897E+03 E0= -.41316752E+03  EK= 0.32200E+00 SP= 0.00E+00 SK= 0.00E+00
       N       E                     dE             d eps       ncg     rms          rms(c)
RMM:   1    -0.413186368931E+03    0.25978E-02   -0.10468E+01  4287   0.833E-01    0.920E-01
RMM:   2    -0.413193995606E+03   -0.76267E-02   -0.13180E-01  4283   0.126E-01    0.659E-01
RMM:   3    -0.413190886270E+03    0.31093E-02   -0.11367E-02  4246   0.531E-02    0.117E-01
RMM:   4    -0.413191501507E+03   -0.61524E-03   -0.13483E-03  5066   0.296E-02    0.103E-01
RMM:   5    -0.413190976992E+03    0.52451E-03   -0.32207E-04  4766   0.183E-02    0.377E-02
RMM:   6    -0.413190983504E+03   -0.65115E-05   -0.28155E-04  5359   0.168E-02    0.270E-02
RMM:   7    -0.413190953628E+03    0.29876E-04   -0.17780E-04  4866   0.129E-02    0.155E-02
RMM:   8    -0.413190948451E+03    0.51770E-05   -0.16940E-05  4080   0.470E-03    0.564E-03
RMM:   9    -0.413190947133E+03    0.13178E-05   -0.28050E-06  2408   0.206E-03    0.242E-03
RMM:  10    -0.413190940834E+03    0.62988E-05   -0.87441E-07  2314   0.145E-03    0.105E-03
RMM:  11    -0.413190937059E+03    0.37753E-05   -0.32589E-07  1885   0.932E-04    0.456E-04
RMM:  12    -0.413190932922E+03    0.41369E-05   -0.19330E-07  1501   0.782E-04    0.203E-04
RMM:  13    -0.413190929556E+03    0.33658E-05   -0.10691E-07  1117   0.670E-04    0.154E-04
RMM:  14    -0.413190925337E+03    0.42195E-05   -0.76169E-08   989   0.631E-04    0.103E-04
RMM:  15    -0.413190920680E+03    0.46569E-05   -0.72303E-08  1036   0.625E-04    0.594E-05
RMM:  16    -0.413190918257E+03    0.24231E-05   -0.39354E-08   781   0.561E-04    0.527E-05
RMM:  17    -0.413190916942E+03    0.13152E-05   -0.20438E-08   612   0.530E-04    0.226E-05
RMM:  18    -0.413190916398E+03    0.54353E-06   -0.13743E-08   527   0.514E-04
   33 T=    66. E= -.41286679E+03 F= -.41319092E+03 E0= -.41316951E+03  EK= 0.32412E+00 SP= 0.00E+00 SK= 0.00E+00
       N       E                     dE             d eps       ncg     rms          rms(c)
RMM:   1    -0.413195618560E+03   -0.47016E-02   -0.10645E+01  4298   0.908E-01    0.912E-01
RMM:   2    -0.413196666618E+03   -0.10481E-02   -0.14951E-01  4283   0.134E-01    0.674E-01
RMM:   3    -0.413193330827E+03    0.33358E-02   -0.10983E-02  4214   0.560E-02    0.127E-01
RMM:   4    -0.413193695025E+03   -0.36420E-03   -0.13228E-03  4972   0.273E-02    0.795E-02
RMM:   5    -0.413193406365E+03    0.28866E-03   -0.20942E-04  4727   0.147E-02    0.374E-02
RMM:   6    -0.413193411313E+03   -0.49480E-05   -0.25491E-04  5328   0.158E-02    0.254E-02
RMM:   7    -0.413193386385E+03    0.24929E-04   -0.16879E-04  4818   0.127E-02    0.156E-02
RMM:   8    -0.413193381858E+03    0.45263E-05   -0.16518E-05  3727   0.438E-03    0.485E-03
RMM:   9    -0.413193381342E+03    0.51615E-06   -0.23589E-06  2402   0.202E-03
   34 T=    66. E= -.41286679E+03 F= -.41319338E+03 E0= -.41317203E+03  EK= 0.32660E+00 SP= 0.00E+00 SK= 0.00E+00
       N       E                     dE             d eps       ncg     rms          rms(c)
RMM:   1    -0.413194598202E+03   -0.12163E-02   -0.10690E+01  4304   0.894E-01    0.938E-01
RMM:   2    -0.413199038498E+03   -0.44403E-02   -0.13768E-01  4270   0.129E-01    0.673E-01
RMM:   3    -0.413196055066E+03    0.29834E-02   -0.11617E-02  4307   0.563E-02    0.119E-01
RMM:   4    -0.413196544560E+03   -0.48949E-03   -0.13696E-03  5106   0.285E-02    0.913E-02
RMM:   5    -0.413196146554E+03    0.39801E-03   -0.28968E-04  4802   0.174E-02    0.414E-02
RMM:   6    -0.413196128984E+03    0.17570E-04   -0.25179E-04  5304   0.162E-02    0.295E-02
RMM:   7    -0.413196104398E+03    0.24586E-04   -0.19539E-04  4734   0.123E-02    0.165E-02
RMM:   8    -0.413196098114E+03    0.62845E-05   -0.15076E-05  3916   0.450E-03    0.627E-03
RMM:   9    -0.413196096596E+03    0.15177E-05   -0.37175E-06  2395   0.200E-03    0.226E-03
RMM:  10    -0.413196086015E+03    0.10581E-04   -0.12403E-06  2312   0.158E-03    0.635E-04
RMM:  11    -0.413196081555E+03    0.44596E-05   -0.34018E-07  1895   0.961E-04    0.335E-04
RMM:  12    -0.413196078351E+03    0.32036E-05   -0.16900E-07  1450   0.756E-04    0.247E-04
RMM:  13    -0.413196072448E+03    0.59035E-05   -0.11009E-07  1081   0.665E-04    0.116E-04
RMM:  14    -0.413196066154E+03    0.62941E-05   -0.88562E-08  1069   0.648E-04    0.139E-04
RMM:  15    -0.413196061916E+03    0.42378E-05   -0.64483E-08  1011   0.605E-04    0.105E-04
RMM:  16    -0.413196058502E+03    0.34138E-05   -0.44717E-08   842   0.565E-04    0.390E-05
RMM:  17    -0.413196057454E+03    0.10483E-05   -0.15304E-08   566   0.513E-04    0.322E-05
RMM:  18    -0.413196056583E+03    0.87058E-06   -0.13002E-08   549   0.512E-04
   35 T=    67. E= -.41286683E+03 F= -.41319606E+03 E0= -.41317475E+03  EK= 0.32923E+00 SP= 0.00E+00 SK= 0.00E+00
       N       E                     dE             d eps       ncg     rms          rms(c)
RMM:   1    -0.413197972567E+03   -0.19151E-02   -0.10702E+01  4302   0.928E-01    0.937E-01
RMM:   2    -0.413200791548E+03   -0.28190E-02   -0.13632E-01  4259   0.132E-01    0.667E-01
RMM:   3    -0.413198164758E+03    0.26268E-02   -0.11788E-02  4504   0.584E-02    0.129E-01
RMM:   4    -0.413210657708E+03   -0.12493E-01   -0.12815E-02  5178   0.955E-02    0.471E-01
RMM:   5    -0.413198097593E+03    0.12560E-01   -0.63717E-03  4814   0.781E-02    0.422E-02
RMM:   6    -0.413198106914E+03   -0.93210E-05   -0.11997E-03  5809   0.332E-02    0.286E-02
RMM:   7    -0.413198108657E+03   -0.17427E-05   -0.29355E-04  5432   0.166E-02    0.177E-02
RMM:   8    -0.413198091248E+03    0.17409E-04   -0.36652E-05  4849   0.710E-03    0.797E-03
RMM:   9    -0.413198088294E+03    0.29534E-05   -0.63136E-06  3137   0.314E-03    0.535E-03
RMM:  10    -0.413198082645E+03    0.56494E-05   -0.13851E-06  2512   0.206E-03    0.292E-03
RMM:  11    -0.413198076730E+03    0.59153E-05   -0.10107E-06  2490   0.166E-03    0.148E-03
RMM:  12    -0.413198070277E+03    0.64523E-05   -0.68536E-07  2412   0.137E-03    0.738E-04
RMM:  13    -0.413198067532E+03    0.27456E-05   -0.29559E-07  2030   0.945E-04    0.376E-04
RMM:  14    -0.413198065347E+03    0.21848E-05   -0.14554E-07  1412   0.718E-04    0.242E-04
RMM:  15    -0.413198061106E+03    0.42413E-05   -0.95583E-08  1217   0.667E-04    0.974E-05
RMM:  16    -0.413198058095E+03    0.30112E-05   -0.60106E-08   995   0.624E-04    0.713E-05
RMM:  17    -0.413198055367E+03    0.27276E-05   -0.48776E-08  1022   0.611E-04    0.642E-05
RMM:  18    -0.413198051499E+03    0.38680E-05   -0.53098E-08  1176   0.615E-04    0.420E-05
RMM:  19    -0.413198050300E+03    0.11986E-05   -0.24405E-08   837   0.543E-04    0.324E-05
RMM:  20    -0.413198049923E+03    0.37710E-06   -0.12463E-08   670   0.518E-04
   36 T=    68. E= -.41286645E+03 F= -.41319805E+03 E0= -.41317679E+03  EK= 0.33160E+00 SP= 0.00E+00 SK= 0.00E+00
       N       E                     dE             d eps       ncg     rms          rms(c)
RMM:   1    -0.413213150032E+03   -0.15100E-01   -0.10894E+01  4303   0.104E+00    0.921E-01
RMM:   2    -0.413204597934E+03    0.85521E-02   -0.16134E-01  4261   0.143E-01    0.679E-01
RMM:   3    -0.413201238137E+03    0.33598E-02   -0.10844E-02  4625   0.573E-02    0.156E-01
RMM:   4    -0.413224298061E+03   -0.23060E-01   -0.23516E-02  5163   0.129E-01    0.635E-01
RMM:   5    -0.413201023000E+03    0.23275E-01   -0.11777E-02  4803   0.106E-01    0.454E-02
RMM:   6    -0.413201052042E+03   -0.29042E-04   -0.19702E-03  5855   0.419E-02    0.287E-02
RMM:   7    -0.413201064370E+03   -0.12328E-04   -0.29710E-04  5617   0.163E-02    0.164E-02
RMM:   8    -0.413201052988E+03    0.11382E-04   -0.57553E-05  4988   0.808E-03    0.900E-03
RMM:   9    -0.413201051710E+03    0.12782E-05   -0.13965E-05  4162   0.440E-03    0.641E-03
RMM:  10    -0.413201048309E+03    0.34014E-05   -0.18047E-06  2581   0.224E-03    0.375E-03
RMM:  11    -0.413201046081E+03    0.22275E-05   -0.99460E-07  2495   0.162E-03    0.227E-03
RMM:  12    -0.413201040876E+03    0.52052E-05   -0.13832E-06  2506   0.188E-03    0.108E-03
RMM:  13    -0.413201038428E+03    0.24483E-05   -0.50145E-07  2287   0.123E-03    0.619E-04
RMM:  14    -0.413201038056E+03    0.37230E-06   -0.21370E-07  1779   0.822E-04
   37 T=    68. E= -.41286680E+03 F= -.41320104E+03 E0= -.41317982E+03  EK= 0.33424E+00 SP= 0.00E+00 SK= 0.00E+00
       N       E                     dE             d eps       ncg     rms          rms(c)
RMM:   1    -0.413219708362E+03   -0.18670E-01   -0.11039E+01  4306   0.108E+00    0.941E-01
RMM:   2    -0.413207232414E+03    0.12476E-01   -0.16340E-01  4258   0.135E-01    0.685E-01
RMM:   3    -0.413203748989E+03    0.34834E-02   -0.11054E-02  4729   0.544E-02    0.168E-01
RMM:   4    -0.413234962004E+03   -0.31213E-01   -0.31892E-02  5156   0.149E-01    0.737E-01
RMM:   5    -0.413203374254E+03    0.31588E-01   -0.16059E-02  4802   0.123E-01    0.487E-02
RMM:   6    -0.413203428805E+03   -0.54551E-04   -0.25513E-03  5851   0.480E-02    0.308E-02
RMM:   7    -0.413203439134E+03   -0.10329E-04   -0.35052E-04  5708   0.175E-02    0.169E-02
RMM:   8    -0.413203428768E+03    0.10367E-04   -0.65679E-05  5038   0.843E-03    0.991E-03
RMM:   9    -0.413203426125E+03    0.26425E-05   -0.18719E-05  4492   0.490E-03    0.681E-03
RMM:  10    -0.413203420613E+03    0.55128E-05   -0.24234E-06  2642   0.244E-03    0.402E-03
RMM:  11    -0.413203417143E+03    0.34696E-05   -0.11715E-06  2496   0.175E-03    0.245E-03
RMM:  12    -0.413203408882E+03    0.82612E-05   -0.15583E-06  2517   0.203E-03    0.117E-03
RMM:  13    -0.413203405074E+03    0.38078E-05   -0.57369E-07  2353   0.134E-03    0.769E-04
RMM:  14    -0.413203404838E+03    0.23598E-06   -0.23448E-07  1920   0.866E-04
   38 T=    69. E= -.41286669E+03 F= -.41320340E+03 E0= -.41318222E+03  EK= 0.33671E+00 SP= 0.00E+00 SK= 0.00E+00
       N       E                     dE             d eps       ncg     rms          rms(c)
RMM:   1    -0.413204539566E+03   -0.11345E-02   -0.10884E+01  4305   0.102E+00    0.954E-01
RMM:   2    -0.413209424532E+03   -0.48850E-02   -0.14224E-01  4258   0.123E-01    0.677E-01
RMM:   3    -0.413206572469E+03    0.28521E-02   -0.12301E-02  4922   0.560E-02    0.170E-01
RMM:   4    -0.413248854145E+03   -0.42282E-01   -0.44746E-02  5136   0.176E-01    0.854E-01
RMM:   5    -0.413205840419E+03    0.43014E-01   -0.21452E-02  4798   0.143E-01    0.542E-02
RMM:   6    -0.413205946031E+03   -0.10561E-03   -0.34635E-03  5832   0.554E-02    0.333E-02
RMM:   7    -0.413205956075E+03   -0.10044E-04   -0.41218E-04  5697   0.186E-02    0.172E-02
RMM:   8    -0.413205945951E+03    0.10124E-04   -0.49835E-05  4776   0.707E-03    0.875E-03
RMM:   9    -0.413205941145E+03    0.48061E-05   -0.14460E-05  3912   0.393E-03    0.642E-03
RMM:  10    -0.413205935935E+03    0.52101E-05   -0.28694E-06  2693   0.240E-03    0.416E-03
RMM:  11    -0.413205929502E+03    0.64326E-05   -0.14494E-06  2499   0.198E-03    0.236E-03
RMM:  12    -0.413205917951E+03    0.11552E-04   -0.15667E-06  2514   0.205E-03    0.107E-03
RMM:  13    -0.413205915147E+03    0.28031E-05   -0.46883E-07  2373   0.128E-03    0.688E-04
RMM:  14    -0.413205914906E+03    0.24185E-06   -0.20494E-07  1870   0.828E-04
   39 T=    69. E= -.41286668E+03 F= -.41320591E+03 E0= -.41318477E+03  EK= 0.33924E+00 SP= 0.00E+00 SK= 0.00E+00
       N       E                     dE             d eps       ncg     rms          rms(c)
RMM:   1    -0.413228742632E+03   -0.22827E-01   -0.11112E+01  4311   0.117E+00    0.931E-01
RMM:   2    -0.413212846181E+03    0.15896E-01   -0.16797E-01  4260   0.134E-01    0.684E-01
RMM:   3    -0.413209864856E+03    0.29813E-02   -0.11306E-02  4980   0.577E-02    0.210E-01
RMM:   4    -0.413263586423E+03   -0.53722E-01   -0.58677E-02  5131   0.202E-01    0.960E-01
RMM:   5    -0.413208614648E+03    0.54972E-01   -0.27114E-02  4787   0.162E-01    0.592E-02
RMM:   6    -0.413208780140E+03   -0.16549E-03   -0.43865E-03  5821   0.623E-02    0.349E-02
RMM:   7    -0.413208795891E+03   -0.15751E-04   -0.52422E-04  5811   0.205E-02    0.206E-02
RMM:   8    -0.413208797214E+03   -0.13234E-05   -0.11596E-04  5253   0.104E-02    0.134E-02
RMM:   9    -0.413208784640E+03    0.12575E-04   -0.28490E-05  4729   0.602E-03    0.694E-03
RMM:  10    -0.413208780323E+03    0.43164E-05   -0.49267E-06  2878   0.297E-03    0.433E-03
RMM:  11    -0.413208776775E+03    0.35485E-05   -0.15921E-06  2504   0.208E-03    0.259E-03
RMM:  12    -0.413208769684E+03    0.70913E-05   -0.14420E-06  2507   0.200E-03    0.916E-04
RMM:  13    -0.413208765735E+03    0.39482E-05   -0.63398E-07  2416   0.139E-03    0.647E-04
RMM:  14    -0.413208765031E+03    0.70453E-06   -0.27728E-07  2031   0.930E-04
   40 T=    70. E= -.41286693E+03 F= -.41320877E+03 E0= -.41318766E+03  EK= 0.34183E+00 SP= 0.00E+00 SK= 0.00E+00
       N       E                     dE             d eps       ncg     rms          rms(c)
RMM:   1    -0.413226972578E+03   -0.18207E-01   -0.11202E+01  4311   0.119E+00    0.944E-01
RMM:   2    -0.413214867248E+03    0.12105E-01   -0.17322E-01  4265   0.141E-01    0.695E-01
RMM:   3    -0.413212474443E+03    0.23928E-02   -0.12073E-02  5034   0.629E-02    0.240E-01
RMM:   4    -0.413268595671E+03   -0.56121E-01   -0.64672E-02  5125   0.212E-01    0.985E-01
RMM:   5    -0.413210558791E+03    0.58037E-01   -0.28017E-02  4775   0.166E-01    0.618E-02
RMM:   6    -0.413210731566E+03   -0.17278E-03   -0.45939E-03  5810   0.638E-02    0.355E-02
RMM:   7    -0.413210747414E+03   -0.15848E-04   -0.56004E-04  5828   0.210E-02    0.224E-02
RMM:   8    -0.413210748687E+03   -0.12732E-05   -0.13015E-04  5273   0.112E-02    0.141E-02
RMM:   9    -0.413210734807E+03    0.13881E-04   -0.27690E-05  4684   0.616E-03    0.647E-03
RMM:  10    -0.413210730782E+03    0.40244E-05   -0.58595E-06  3025   0.305E-03    0.406E-03
RMM:  11    -0.413210727337E+03    0.34454E-05   -0.15181E-06  2506   0.205E-03    0.239E-03
RMM:  12    -0.413210720929E+03    0.64080E-05   -0.12182E-06  2492   0.185E-03    0.804E-04
RMM:  13    -0.413210717123E+03    0.38057E-05   -0.57269E-07  2394   0.131E-03    0.524E-04
RMM:  14    -0.413210716122E+03    0.10013E-05   -0.26676E-07  1989   0.909E-04    0.355E-04
RMM:  15    -0.413210713979E+03    0.21423E-05   -0.14204E-07  1445   0.720E-04    0.184E-04
RMM:  16    -0.413210709615E+03    0.43644E-05   -0.11231E-07  1288   0.691E-04    0.156E-04
RMM:  17    -0.413210708129E+03    0.14860E-05   -0.59026E-08  1001   0.615E-04    0.851E-05
RMM:  18    -0.413210704437E+03    0.36926E-05   -0.67929E-08  1224   0.645E-04    0.101E-04
RMM:  19    -0.413210702695E+03    0.17419E-05   -0.38090E-08   998   0.584E-04    0.515E-05
RMM:  20    -0.413210701666E+03    0.10284E-05   -0.24101E-08   841   0.555E-04    0.207E-05
RMM:  21    -0.413210701163E+03    0.50369E-06   -0.15844E-08   759   0.543E-04
   41 T=    70. E= -.41286667E+03 F= -.41321070E+03 E0= -.41318963E+03  EK= 0.34403E+00 SP= 0.00E+00 SK= 0.00E+00
       N       E                     dE             d eps       ncg     rms          rms(c)
RMM:   1    -0.413218046192E+03   -0.73445E-02   -0.11112E+01  4312   0.118E+00    0.967E-01
RMM:   2    -0.413216570180E+03    0.14760E-02   -0.14908E-01  4289   0.135E-01    0.686E-01
RMM:   3    -0.413216788203E+03   -0.21802E-03   -0.15090E-02  5075   0.761E-02    0.291E-01
RMM:   4    -0.413253513172E+03   -0.36725E-01   -0.52677E-02  5090   0.193E-01    0.828E-01
RMM:   5    -0.413213082432E+03    0.40431E-01   -0.17912E-02  4738   0.138E-01    0.595E-02
RMM:   6    -0.413213158190E+03   -0.75758E-04   -0.31819E-03  5767   0.532E-02    0.346E-02
RMM:   7    -0.413213164362E+03   -0.61724E-05   -0.44944E-04  5741   0.194E-02    0.220E-02
RMM:   8    -0.413213161185E+03    0.31769E-05   -0.12140E-04  5198   0.112E-02    0.125E-02
RMM:   9    -0.413213147286E+03    0.13900E-04   -0.19995E-05  4447   0.559E-03    0.524E-03
RMM:  10    -0.413213142179E+03    0.51064E-05   -0.43283E-06  2854   0.267E-03    0.332E-03
RMM:  11    -0.413213137059E+03    0.51205E-05   -0.12046E-06  2489   0.186E-03    0.181E-03
RMM:  12    -0.413213129089E+03    0.79700E-05   -0.80643E-07  2462   0.156E-03    0.686E-04
RMM:  13    -0.413213124503E+03    0.45854E-05   -0.39052E-07  2213   0.109E-03    0.337E-04
RMM:  14    -0.413213122427E+03    0.20768E-05   -0.20441E-07  1747   0.811E-04    0.230E-04
RMM:  15    -0.413213117604E+03    0.48226E-05   -0.12447E-07  1332   0.707E-04    0.122E-04
RMM:  16    -0.413213114375E+03    0.32287E-05   -0.81651E-08  1155   0.652E-04    0.101E-04
RMM:  17    -0.413213111133E+03    0.32425E-05   -0.64404E-08  1152   0.636E-04    0.743E-05
RMM:  18    -0.413213108240E+03    0.28929E-05   -0.51516E-08  1127   0.613E-04    0.475E-05
RMM:  19    -0.413213105708E+03    0.25323E-05   -0.41367E-08  1088   0.592E-04    0.352E-05
RMM:  20    -0.413213105278E+03    0.42913E-06   -0.18349E-08   761   0.538E-04
   42 T=    70. E= -.41286691E+03 F= -.41321311E+03 E0= -.41319206E+03  EK= 0.34620E+00 SP= 0.00E+00 SK= 0.00E+00
       N       E                     dE             d eps       ncg     rms          rms(c)
RMM:   1    -0.413235463035E+03   -0.22357E-01   -0.11219E+01  4312   0.133E+00    0.943E-01
RMM:   2    -0.413218648383E+03    0.16815E-01   -0.16759E-01  4294   0.149E-01    0.688E-01
RMM:   3    -0.413219641833E+03   -0.99345E-03   -0.14791E-02  5083   0.816E-02    0.328E-01
RMM:   4    -0.413255158094E+03   -0.35516E-01   -0.54538E-02  5088   0.197E-01    0.826E-01
RMM:   5    -0.413215016565E+03    0.40142E-01   -0.17579E-02  4727   0.138E-01    0.607E-02
RMM:   6    -0.413215077476E+03   -0.60912E-04   -0.30837E-03  5742   0.527E-02    0.341E-02
RMM:   7    -0.413215083523E+03   -0.60467E-05   -0.44728E-04  5780   0.192E-02    0.226E-02
RMM:   8    -0.413215080107E+03    0.34159E-05   -0.12043E-04  5186   0.112E-02    0.119E-02
RMM:   9    -0.413215068149E+03    0.11958E-04   -0.20514E-05  4464   0.566E-03    0.466E-03
RMM:  10    -0.413215064844E+03    0.33048E-05   -0.42297E-06  2818   0.260E-03    0.296E-03
RMM:  11    -0.413215060727E+03    0.41171E-05   -0.12559E-06  2492   0.186E-03    0.160E-03
RMM:  12    -0.413215055416E+03    0.53106E-05   -0.71861E-07  2436   0.145E-03    0.615E-04
RMM:  13    -0.413215052275E+03    0.31414E-05   -0.35864E-07  2086   0.102E-03    0.283E-04
RMM:  14    -0.413215050055E+03    0.22193E-05   -0.19663E-07  1582   0.787E-04    0.180E-04
RMM:  15    -0.413215045935E+03    0.41204E-05   -0.13698E-07  1290   0.713E-04    0.107E-04
RMM:  16    -0.413215043876E+03    0.20588E-05   -0.87375E-08  1137   0.659E-04    0.777E-05
RMM:  17    -0.413215041003E+03    0.28730E-05   -0.73793E-08  1187   0.649E-04    0.494E-05
RMM:  18    -0.413215038712E+03    0.22914E-05   -0.55898E-08  1112   0.617E-04    0.365E-05
RMM:  19    -0.413215037186E+03    0.15263E-05   -0.37820E-08   973   0.577E-04    0.206E-05
RMM:  20    -0.413215036662E+03    0.52349E-06   -0.19951E-08   761   0.545E-04
   43 T=    71. E= -.41286703E+03 F= -.41321504E+03 E0= -.41319402E+03  EK= 0.34801E+00 SP= 0.00E+00 SK= 0.00E+00
       N       E                     dE             d eps       ncg     rms          rms(c)
RMM:   1    -0.413232272070E+03   -0.17235E-01   -0.11283E+01  4312   0.136E+00    0.947E-01
RMM:   2    -0.413219945009E+03    0.12327E-01   -0.16668E-01  4291   0.161E-01    0.700E-01
RMM:   3    -0.413221823986E+03   -0.18790E-02   -0.16522E-02  5076   0.906E-02    0.355E-01
RMM:   4    -0.413254259305E+03   -0.32435E-01   -0.54728E-02  5065   0.199E-01    0.806E-01
RMM:   5    -0.413216046930E+03    0.38212E-01   -0.16122E-02  4713   0.134E-01    0.602E-02
RMM:   6    -0.413216092762E+03   -0.45832E-04   -0.28864E-03  5719   0.510E-02    0.335E-02
RMM:   7    -0.413216097000E+03   -0.42383E-05   -0.41927E-04  5769   0.188E-02    0.222E-02
RMM:   8    -0.413216094279E+03    0.27208E-05   -0.11368E-04  5171   0.110E-02    0.113E-02
RMM:   9    -0.413216084022E+03    0.10257E-04   -0.19654E-05  4420   0.555E-03    0.444E-03
RMM:  10    -0.413216081687E+03    0.23347E-05   -0.38346E-06  2784   0.251E-03    0.277E-03
RMM:  11    -0.413216078570E+03    0.31174E-05   -0.12739E-06  2497   0.184E-03    0.150E-03
RMM:  12    -0.413216074664E+03    0.39061E-05   -0.70514E-07  2433   0.141E-03    0.601E-04
RMM:  13    -0.413216072259E+03    0.24053E-05   -0.35051E-07  1999   0.987E-04    0.274E-04
RMM:  14    -0.413216070269E+03    0.19892E-05   -0.19823E-07  1510   0.778E-04    0.166E-04
RMM:  15    -0.413216066789E+03    0.34800E-05   -0.14975E-07  1308   0.721E-04    0.103E-04
RMM:  16    -0.413216065137E+03    0.16528E-05   -0.91412E-08  1132   0.659E-04    0.747E-05
RMM:  17    -0.413216062420E+03    0.27161E-05   -0.82185E-08  1241   0.656E-04    0.480E-05
RMM:  18    -0.413216060680E+03    0.17399E-05   -0.55717E-08  1098   0.607E-04    0.384E-05
RMM:  19    -0.413216059453E+03    0.12271E-05   -0.34737E-08   905   0.565E-04    0.194E-05
RMM:  20    -0.413216058933E+03    0.52032E-06   -0.21289E-08   771   0.541E-04
   44 T=    71. E= -.41286680E+03 F= -.41321606E+03 E0= -.41319507E+03  EK= 0.34926E+00 SP= 0.00E+00 SK= 0.00E+00
       N       E                     dE             d eps       ncg     rms          rms(c)
RMM:   1    -0.413249642874E+03   -0.33583E-01   -0.11433E+01  4311   0.152E+00    0.973E-01
RMM:   2    -0.413220499267E+03    0.29144E-01   -0.16797E-01  4315   0.168E-01    0.695E-01
RMM:   3    -0.413226866959E+03   -0.63677E-02   -0.20069E-02  5119   0.107E-01    0.446E-01
RMM:   4    -0.413241078380E+03   -0.14211E-01   -0.44688E-02  5043   0.182E-01    0.645E-01
RMM:   5    -0.413217252802E+03    0.23826E-01   -0.90308E-03  4640   0.109E-01    0.572E-02
RMM:   6    -0.413217233565E+03    0.19237E-04   -0.18397E-03  5589   0.412E-02    0.326E-02
RMM:   7    -0.413217231072E+03    0.24935E-05   -0.31100E-04  5608   0.170E-02    0.215E-02
RMM:   8    -0.413217222907E+03    0.81646E-05   -0.11423E-04  5081   0.111E-02    0.102E-02
RMM:   9    -0.413217210088E+03    0.12819E-04   -0.15550E-05  4274   0.537E-03    0.417E-03
RMM:  10    -0.413217206244E+03    0.38445E-05   -0.27355E-06  2694   0.228E-03    0.245E-03
RMM:  11    -0.413217200089E+03    0.61550E-05   -0.11546E-06  2482   0.177E-03    0.133E-03
RMM:  12    -0.413217193867E+03    0.62222E-05   -0.58939E-07  2410   0.133E-03    0.619E-04
RMM:  13    -0.413217190243E+03    0.36239E-05   -0.27705E-07  1867   0.908E-04    0.294E-04
RMM:  14    -0.413217186787E+03    0.34555E-05   -0.15529E-07  1372   0.723E-04    0.160E-04
RMM:  15    -0.413217181567E+03    0.52200E-05   -0.12171E-07  1272   0.696E-04    0.122E-04
RMM:  16    -0.413217178897E+03    0.26700E-05   -0.78074E-08  1112   0.639E-04    0.966E-05
RMM:  17    -0.413217174085E+03    0.48125E-05   -0.80303E-08  1336   0.652E-04    0.680E-05
RMM:  18    -0.413217171926E+03    0.21588E-05   -0.45788E-08  1020   0.572E-04    0.415E-05
RMM:  19    -0.413217170746E+03    0.11799E-05   -0.30365E-08   864   0.538E-04    0.240E-05
RMM:  20    -0.413217170222E+03    0.52427E-06   -0.19173E-08   745   0.518E-04
   45 T=    71. E= -.41286708E+03 F= -.41321717E+03 E0= -.41319620E+03  EK= 0.35009E+00 SP= 0.00E+00 SK= 0.00E+00
       N       E                     dE             d eps       ncg     rms          rms(c)
RMM:   1    -0.413255095741E+03   -0.37925E-01   -0.11375E+01  4311   0.161E+00    0.953E-01
RMM:   2    -0.413220147389E+03    0.34948E-01   -0.17959E-01  4333   0.184E-01    0.691E-01
RMM:   3    -0.413228755112E+03   -0.86077E-02   -0.21054E-02  5120   0.115E-01    0.500E-01
RMM:   4    -0.413236984541E+03   -0.82294E-02   -0.43194E-02  5027   0.181E-01    0.600E-01
RMM:   5    -0.413216824095E+03    0.20160E-01   -0.75807E-03  4604   0.103E-01    0.569E-02
RMM:   6    -0.413216781880E+03    0.42214E-04   -0.15152E-03  5451   0.380E-02    0.315E-02
RMM:   7    -0.413216778868E+03    0.30125E-05   -0.26181E-04  5609   0.159E-02    0.212E-02
RMM:   8    -0.413216770572E+03    0.82958E-05   -0.12198E-04  5087   0.114E-02    0.102E-02
RMM:   9    -0.413216757216E+03    0.13356E-04   -0.16375E-05  4335   0.557E-03    0.412E-03
RMM:  10    -0.413216754150E+03    0.30665E-05   -0.28574E-06  2720   0.224E-03    0.237E-03
RMM:  11    -0.413216748350E+03    0.57996E-05   -0.12364E-06  2483   0.181E-03    0.130E-03
RMM:  12    -0.413216743640E+03    0.47104E-05   -0.56309E-07  2426   0.132E-03    0.679E-04
RMM:  13    -0.413216740144E+03    0.34954E-05   -0.26395E-07  1797   0.892E-04    0.325E-04
RMM:  14    -0.413216736646E+03    0.34982E-05   -0.14436E-07  1330   0.708E-04    0.170E-04
RMM:  15    -0.413216732584E+03    0.40620E-05   -0.10998E-07  1242   0.673E-04    0.121E-04
RMM:  16    -0.413216730024E+03    0.25598E-05   -0.71031E-08  1088   0.624E-04    0.104E-04
RMM:  17    -0.413216726078E+03    0.39468E-05   -0.70793E-08  1244   0.635E-04    0.638E-05
RMM:  18    -0.413216723643E+03    0.24346E-05   -0.46715E-08  1061   0.577E-04    0.486E-05
RMM:  19    -0.413216722813E+03    0.83030E-06   -0.24511E-08   805   0.525E-04
   46 T=    71. E= -.41286691E+03 F= -.41321672E+03 E0= -.41319577E+03  EK= 0.34982E+00 SP= 0.00E+00 SK= 0.00E+00
       N       E                     dE             d eps       ncg     rms          rms(c)
RMM:   1    -0.413240920302E+03   -0.24197E-01   -0.11251E+01  4311   0.163E+00    0.940E-01
RMM:   2    -0.413219428396E+03    0.21492E-01   -0.18833E-01  4338   0.194E-01    0.704E-01
RMM:   3    -0.413228789329E+03   -0.93609E-02   -0.21732E-02  5120   0.122E-01    0.525E-01
RMM:   4    -0.413236728860E+03   -0.79395E-02   -0.45959E-02  5022   0.187E-01    0.613E-01
RMM:   5    -0.413215558929E+03    0.21170E-01   -0.79806E-03  4598   0.106E-01    0.587E-02
RMM:   6    -0.413215503778E+03    0.55151E-04   -0.15453E-03  5435   0.387E-02    0.316E-02
RMM:   7    -0.413215500071E+03    0.37067E-05   -0.26347E-04  5649   0.159E-02    0.220E-02
RMM:   8    -0.413215491068E+03    0.90032E-05   -0.12521E-04  5109   0.115E-02    0.103E-02
RMM:   9    -0.413215478736E+03    0.12332E-04   -0.17939E-05  4385   0.575E-03    0.414E-03
RMM:  10    -0.413215476661E+03    0.20752E-05   -0.30124E-06  2732   0.228E-03    0.239E-03
RMM:  11    -0.413215472654E+03    0.40063E-05   -0.14149E-06  2506   0.189E-03    0.135E-03
RMM:  12    -0.413215469615E+03    0.30400E-05   -0.60333E-07  2438   0.136E-03    0.715E-04
RMM:  13    -0.413215466926E+03    0.26884E-05   -0.30208E-07  1831   0.936E-04    0.342E-04
RMM:  14    -0.413215464359E+03    0.25671E-05   -0.16817E-07  1380   0.738E-04    0.175E-04
RMM:  15    -0.413215461603E+03    0.27562E-05   -0.12576E-07  1254   0.688E-04    0.112E-04
RMM:  16    -0.413215459594E+03    0.20088E-05   -0.85477E-08  1163   0.639E-04    0.982E-05
RMM:  17    -0.413215457006E+03    0.25881E-05   -0.76754E-08  1216   0.629E-04    0.540E-05
RMM:  18    -0.413215454947E+03    0.20590E-05   -0.50926E-08  1012   0.581E-04    0.424E-05
RMM:  19    -0.413215454376E+03    0.57104E-06   -0.26355E-08   793   0.533E-04
   47 T=    71. E= -.41286689E+03 F= -.41321545E+03 E0= -.41319451E+03  EK= 0.34856E+00 SP= 0.00E+00 SK= 0.00E+00
       N       E                     dE             d eps       ncg     rms          rms(c)
RMM:   1    -0.413243369103E+03   -0.27914E-01   -0.11202E+01  4306   0.175E+00    0.963E-01
RMM:   2    -0.413216642448E+03    0.26727E-01   -0.17852E-01  4386   0.202E-01    0.697E-01
RMM:   3    -0.413234099317E+03   -0.17457E-01   -0.29139E-02  5142   0.145E-01    0.638E-01
RMM:   4    -0.413225491666E+03    0.86077E-02   -0.41323E-02  4981   0.181E-01    0.477E-01
RMM:   5    -0.413213285459E+03    0.12206E-01   -0.46391E-03  4529   0.899E-02    0.571E-02
RMM:   6    -0.413213174585E+03    0.11087E-03   -0.67286E-04  4884   0.296E-02    0.301E-02
RMM:   7    -0.413213161821E+03    0.12764E-04   -0.17331E-04  5897   0.129E-02    0.126E-02
RMM:   8    -0.413213153599E+03    0.82217E-05   -0.51290E-05  5167   0.859E-03    0.899E-03
RMM:   9    -0.413213149231E+03    0.43681E-05   -0.12902E-05  4052   0.433E-03    0.389E-03
RMM:  10    -0.413213145728E+03    0.35030E-05   -0.20105E-06  2554   0.228E-03    0.235E-03
RMM:  11    -0.413213139965E+03    0.57630E-05   -0.14884E-06  2467   0.201E-03    0.148E-03
RMM:  12    -0.413213136097E+03    0.38679E-05   -0.55932E-07  2394   0.138E-03    0.866E-04
RMM:  13    -0.413213132176E+03    0.39216E-05   -0.25322E-07  1903   0.908E-04    0.460E-04
RMM:  14    -0.413213126396E+03    0.57793E-05   -0.21485E-07  1789   0.825E-04    0.450E-04
RMM:  15    -0.413213122526E+03    0.38704E-05   -0.96373E-08  1013   0.612E-04    0.178E-04
RMM:  16    -0.413213120584E+03    0.19421E-05   -0.63184E-08   961   0.586E-04    0.924E-05
RMM:  17    -0.413213116998E+03    0.35863E-05   -0.68028E-08  1140   0.614E-04    0.116E-04
RMM:  18    -0.413213115815E+03    0.11831E-05   -0.30606E-08   781   0.535E-04    0.831E-05
RMM:  19    -0.413213114958E+03    0.85615E-06   -0.21098E-08   718   0.517E-04
   48 T=    70. E= -.41286716E+03 F= -.41321311E+03 E0= -.41319218E+03  EK= 0.34595E+00 SP= 0.00E+00 SK= 0.00E+00
       N       E                     dE             d eps       ncg     rms          rms(c)
RMM:   1    -0.413242794711E+03   -0.29679E-01   -0.11014E+01  4305   0.187E+00    0.952E-01
RMM:   2    -0.413211499275E+03    0.31295E-01   -0.17791E-01  4435   0.213E-01    0.686E-01
RMM:   3    -0.413236015004E+03   -0.24516E-01   -0.34798E-02  5150   0.162E-01    0.728E-01
RMM:   4    -0.413216542898E+03    0.19472E-01   -0.40250E-02  4950   0.182E-01    0.403E-01
RMM:   5    -0.413208358536E+03    0.81844E-02   -0.41686E-03  4605   0.876E-02    0.630E-02
RMM:   6    -0.413208179285E+03    0.17925E-03   -0.45412E-04  4679   0.288E-02    0.327E-02
RMM:   7    -0.413208189561E+03   -0.10276E-04   -0.28326E-04  5749   0.176E-02    0.242E-02
RMM:   8    -0.413208155631E+03    0.33931E-04   -0.96692E-05  4991   0.113E-02    0.906E-03
RMM:   9    -0.413208148988E+03    0.66421E-05   -0.18613E-05  4711   0.547E-03    0.466E-03
RMM:  10    -0.413208144732E+03    0.42560E-05   -0.22640E-06  2627   0.238E-03    0.257E-03
RMM:  11    -0.413208138495E+03    0.62376E-05   -0.12766E-06  2496   0.186E-03    0.176E-03
RMM:  12    -0.413208134723E+03    0.37714E-05   -0.40641E-07  2378   0.119E-03    0.906E-04
RMM:  13    -0.413208129933E+03    0.47906E-05   -0.27495E-07  1981   0.891E-04    0.433E-04
RMM:  14    -0.413208124693E+03    0.52396E-05   -0.20755E-07  1761   0.781E-04    0.366E-04
RMM:  15    -0.413208119979E+03    0.47139E-05   -0.11782E-07  1154   0.638E-04    0.143E-04
RMM:  16    -0.413208117433E+03    0.25467E-05   -0.71578E-08  1071   0.598E-04    0.912E-05
RMM:  17    -0.413208113989E+03    0.34439E-05   -0.70617E-08  1176   0.611E-04    0.774E-05
RMM:  18    -0.413208112808E+03    0.11802E-05   -0.35874E-08   908   0.547E-04    0.625E-05
RMM:  19    -0.413208110700E+03    0.21082E-05   -0.36999E-08   995   0.559E-04    0.348E-05
RMM:  20    -0.413208110052E+03    0.64838E-06   -0.19793E-08   784   0.506E-04
   49 T=    69. E= -.41286687E+03 F= -.41320811E+03 E0= -.41318718E+03  EK= 0.34124E+00 SP= 0.00E+00 SK= 0.00E+00
       N       E                     dE             d eps       ncg     rms          rms(c)
RMM:   1    -0.413228317175E+03   -0.20206E-01   -0.10738E+01  4305   0.192E+00    0.923E-01
RMM:   2    -0.413205613327E+03    0.22704E-01   -0.17819E-01  4462   0.220E-01    0.689E-01
[...]
RMM:  18    -0.413278218644E+03   -0.94947E-06   -0.18471E-07  1153   0.649E-04
  140 T=    85. E= -.41286171E+03 F= -.41327822E+03 E0= -.41325846E+03  EK= 0.41651E+00 SP= 0.00E+00 SK= 0.00E+00
       N       E                     dE             d eps       ncg     rms          rms(c)
RMM:   1    -0.413582500014E+03   -0.30428E+00   -0.11948E+01  4295   0.669E+00    0.908E-01
RMM:   2    -0.413548245780E+03    0.34254E-01   -0.28181E-01  5270   0.653E-01    0.764E-01
RMM:   3    -0.413568100772E+03   -0.19855E-01   -0.56921E-02  5509   0.261E-01    0.779E-01
RMM:   4    -0.413551852817E+03    0.16248E-01   -0.33777E-02  5132   0.194E-01    0.507E-01
RMM:   5    -0.413546103501E+03    0.57493E-02   -0.23074E-02  4529   0.203E-01    0.172E-01
RMM:   6    -0.413544560987E+03    0.15425E-02   -0.46127E-03  4873   0.901E-02    0.925E-02
RMM:   7    -0.413544215069E+03    0.34592E-03   -0.88881E-04  4890   0.416E-02    0.596E-02
RMM:   8    -0.413544115546E+03    0.99523E-04   -0.46653E-04  4634   0.268E-02    0.280E-02
RMM:   9    -0.413544113592E+03    0.19543E-05   -0.24797E-04  5446   0.172E-02    0.138E-02
RMM:  10    -0.413544116836E+03   -0.32441E-05   -0.39271E-05  5251   0.731E-03    0.861E-03
RMM:  11    -0.413544124165E+03   -0.73286E-05   -0.13294E-05  4044   0.503E-03    0.416E-03
RMM:  12    -0.413544136411E+03   -0.12247E-04   -0.40384E-06  2900   0.317E-03    0.245E-03
RMM:  13    -0.413544146634E+03   -0.10223E-04   -0.15840E-06  2610   0.195E-03    0.138E-03
RMM:  14    -0.413544159782E+03   -0.13148E-04   -0.15831E-06  2635   0.183E-03    0.763E-04
RMM:  15    -0.413544170285E+03   -0.10503E-04   -0.12968E-06  2475   0.146E-03    0.589E-04
RMM:  16    -0.413544183712E+03   -0.13427E-04   -0.21437E-06  2703   0.170E-03    0.400E-04
RMM:  17    -0.413544191012E+03   -0.73003E-05   -0.11635E-06  2003   0.118E-03    0.254E-04
RMM:  18    -0.413544196635E+03   -0.56223E-05   -0.69752E-07  1954   0.101E-03    0.211E-04
RMM:  19    -0.413544201197E+03   -0.45622E-05   -0.43727E-07  1745   0.846E-04    0.136E-04
RMM:  20    -0.413544204192E+03   -0.29946E-05   -0.23497E-07  1388   0.692E-04    0.785E-05
RMM:  21    -0.413544206119E+03   -0.19277E-05   -0.12201E-07  1174   0.618E-04    0.637E-05
RMM:  22    -0.413544207626E+03   -0.15069E-05   -0.76645E-08  1116   0.595E-04    0.333E-05
RMM:  23    -0.413544208399E+03   -0.77312E-06   -0.46000E-08  1030   0.567E-04
  141 T=   136. E= -.41287468E+03 F= -.41354421E+03 E0= -.41352485E+03  EK= 0.66953E+00 SP= 0.00E+00 SK= 0.00E+00
       N       E                     dE             d eps       ncg     rms          rms(c)
RMM:   1    -0.413861784568E+03   -0.31758E+00   -0.19592E+01  4298   0.850E+00    0.128E+00
RMM:   2    -0.413750144114E+03    0.11164E+00   -0.45538E-01  5247   0.899E-01    0.118E+00
RMM:   3    -0.413786402382E+03   -0.36258E-01   -0.10015E-01  5643   0.341E-01    0.121E+00
RMM:   4    -0.413747309123E+03    0.39093E-01   -0.49888E-02  4988   0.249E-01    0.700E-01
RMM:   5    -0.413745032174E+03    0.22769E-02   -0.48545E-02  4625   0.291E-01    0.272E-01
RMM:   6    -0.413740749740E+03    0.42824E-02   -0.11966E-02  4846   0.142E-01    0.136E-01
RMM:   7    -0.413740061225E+03    0.68851E-03   -0.18493E-03  5062   0.608E-02    0.842E-02
RMM:   8    -0.413739830571E+03    0.23065E-03   -0.76569E-04  4503   0.359E-02    0.379E-02
RMM:   9    -0.413739807782E+03    0.22789E-04   -0.54459E-04  5211   0.266E-02    0.182E-02
RMM:  10    -0.413739813186E+03   -0.54043E-05   -0.85329E-05  5684   0.103E-02    0.118E-02
RMM:  11    -0.413739822166E+03   -0.89800E-05   -0.27223E-05  4538   0.697E-03    0.627E-03
RMM:  12    -0.413739839975E+03   -0.17809E-04   -0.64106E-06  3190   0.402E-03    0.352E-03
RMM:  13    -0.413739856042E+03   -0.16067E-04   -0.30953E-06  2814   0.262E-03    0.177E-03
RMM:  14    -0.413739872948E+03   -0.16907E-04   -0.19694E-06  2675   0.212E-03    0.108E-03
RMM:  15    -0.413739890040E+03   -0.17092E-04   -0.19882E-06  2698   0.190E-03    0.732E-04
RMM:  16    -0.413739909032E+03   -0.18992E-04   -0.27215E-06  2783   0.199E-03    0.466E-04
RMM:  17    -0.413739922271E+03   -0.13239E-04   -0.21125E-06  2500   0.156E-03    0.344E-04
RMM:  18    -0.413739932536E+03   -0.10265E-04   -0.16094E-06  2325   0.136E-03    0.253E-04
RMM:  19    -0.413739937742E+03   -0.52065E-05   -0.64615E-07  1789   0.930E-04    0.137E-04
RMM:  20    -0.413739942177E+03   -0.44347E-05   -0.33341E-07  1585   0.777E-04    0.107E-04
RMM:  21    -0.413739944557E+03   -0.23800E-05   -0.16309E-07  1289   0.657E-04    0.718E-05
RMM:  22    -0.413739946230E+03   -0.16730E-05   -0.10630E-07  1273   0.623E-04    0.441E-05
RMM:  23    -0.413739947340E+03   -0.11100E-05   -0.69813E-08  1179   0.583E-04    0.403E-05
RMM:  24    -0.413739947644E+03   -0.30374E-06   -0.31112E-08   927   0.525E-04
  142 T=   171. E= -.41289897E+03 F= -.41373995E+03 E0= -.41372070E+03  EK= 0.84098E+00 SP= 0.00E+00 SK= 0.00E+00
       N       E                     dE             d eps       ncg     rms          rms(c)
RMM:   1    -0.413715242771E+03    0.24705E-01   -0.22045E+01  4297   0.885E+00    0.189E+00
RMM:   2    -0.413574992998E+03    0.14025E+00   -0.55305E-01  5250   0.104E+00    0.184E+00
RMM:   3    -0.413612261432E+03   -0.37268E-01   -0.14396E-01  5656   0.411E-01    0.181E+00
RMM:   4    -0.413555530662E+03    0.56731E-01   -0.73146E-02  4925   0.324E-01    0.972E-01
RMM:   5    -0.413558690472E+03   -0.31598E-02   -0.79729E-02  4816   0.367E-01    0.420E-01
RMM:   6    -0.413549596215E+03    0.90943E-02   -0.20576E-02  4780   0.186E-01    0.174E-01
RMM:   7    -0.413548765929E+03    0.83029E-03   -0.31983E-03  5367   0.783E-02    0.934E-02
RMM:   8    -0.413548515586E+03    0.25034E-03   -0.10244E-03  4626   0.424E-02    0.444E-02
RMM:   9    -0.413548486011E+03    0.29575E-04   -0.53889E-04  4998   0.284E-02    0.196E-02
RMM:  10    -0.413548494124E+03   -0.81132E-05   -0.12478E-04  5908   0.123E-02    0.125E-02
RMM:  11    -0.413548506537E+03   -0.12413E-04   -0.35215E-05  4937   0.760E-03    0.628E-03
RMM:  12    -0.413548521554E+03   -0.15017E-04   -0.71771E-06  3313   0.414E-03    0.378E-03
RMM:  13    -0.413548536666E+03   -0.15112E-04   -0.37062E-06  2876   0.298E-03    0.209E-03
RMM:  14    -0.413548552169E+03   -0.15503E-04   -0.19549E-06  2662   0.221E-03    0.115E-03
RMM:  15    -0.413548564710E+03   -0.12540E-04   -0.13667E-06  2598   0.163E-03    0.786E-04
RMM:  16    -0.413548581914E+03   -0.17204E-04   -0.20866E-06  2684   0.185E-03    0.444E-04
RMM:  17    -0.413548593597E+03   -0.11683E-04   -0.16233E-06  2434   0.146E-03    0.324E-04
RMM:  18    -0.413548603911E+03   -0.10314E-04   -0.14855E-06  2352   0.133E-03    0.261E-04
RMM:  19    -0.413548609186E+03   -0.52745E-05   -0.64576E-07  1780   0.921E-04    0.150E-04
RMM:  20    -0.413548612556E+03   -0.33705E-05   -0.29883E-07  1536   0.749E-04    0.956E-05
RMM:  21    -0.413548615419E+03   -0.28633E-05   -0.18039E-07  1338   0.671E-04    0.872E-05
RMM:  22    -0.413548616733E+03   -0.13137E-05   -0.10186E-07  1181   0.606E-04    0.484E-05
RMM:  23    -0.413548617642E+03   -0.90844E-06   -0.67771E-08  1120   0.580E-04
  143 T=   132. E= -.41290242E+03 F= -.41354862E+03 E0= -.41352936E+03  EK= 0.64619E+00 SP= 0.00E+00 SK= 0.00E+00
       N       E                     dE             d eps       ncg     rms          rms(c)
RMM:   1    -0.413166461744E+03    0.38215E+00   -0.11013E+01  4288   0.633E+00    0.100E+00
RMM:   2    -0.413147149133E+03    0.19313E-01   -0.27947E-01  5324   0.693E-01    0.103E+00
RMM:   3    -0.413154070703E+03   -0.69216E-02   -0.65541E-02  5702   0.279E-01    0.102E+00
RMM:   4    -0.413133113936E+03    0.20957E-01   -0.18969E-02  4896   0.173E-01    0.607E-01
RMM:   5    -0.413135936561E+03   -0.28226E-02   -0.33625E-02  4817   0.247E-01    0.263E-01
RMM:   6    -0.413132248108E+03    0.36885E-02   -0.10720E-02  4874   0.129E-01    0.117E-01
RMM:   7    -0.413131831679E+03    0.41643E-03   -0.17201E-03  5407   0.571E-02    0.600E-02
RMM:   8    -0.413131740654E+03    0.91025E-04   -0.41595E-04  4632   0.284E-02    0.328E-02
RMM:   9    -0.413131742491E+03   -0.18369E-05   -0.18056E-04  5181   0.173E-02    0.163E-02
RMM:  10    -0.413131742704E+03   -0.21287E-06   -0.46900E-05  5374   0.813E-03    0.909E-03
RMM:  11    -0.413131748576E+03   -0.58723E-05   -0.23046E-05  4954   0.569E-03    0.428E-03
RMM:  12    -0.413131753616E+03   -0.50393E-05   -0.29664E-06  2771   0.276E-03    0.247E-03
RMM:  13    -0.413131757793E+03   -0.41776E-05   -0.15074E-06  2554   0.199E-03    0.139E-03
RMM:  14    -0.413131763112E+03   -0.53192E-05   -0.88003E-07  2494   0.154E-03    0.707E-04
RMM:  15    -0.413131766783E+03   -0.36709E-05   -0.50872E-07  2170   0.107E-03    0.413E-04
RMM:  16    -0.413131771092E+03   -0.43083E-05   -0.48109E-07  2102   0.100E-03    0.241E-04
RMM:  17    -0.413131774993E+03   -0.39016E-05   -0.39630E-07  1883   0.878E-04    0.148E-04
RMM:  18    -0.413131778979E+03   -0.39853E-05   -0.38549E-07  1795   0.847E-04    0.129E-04
RMM:  19    -0.413131781591E+03   -0.26122E-05   -0.22180E-07  1365   0.698E-04    0.910E-05
RMM:  20    -0.413131782718E+03   -0.11269E-05   -0.10765E-07  1086   0.606E-04    0.550E-05
RMM:  21    -0.413131784301E+03   -0.15834E-05   -0.85978E-08  1105   0.593E-04    0.411E-05
RMM:  22    -0.413131784866E+03   -0.56446E-06   -0.43138E-08   929   0.554E-04
  144 T=    63. E= -.41282476E+03 F= -.41313178E+03 E0= -.41311261E+03  EK= 0.30703E+00 SP= 0.00E+00 SK= 0.00E+00
       N       E                     dE             d eps       ncg     rms          rms(c)
RMM:   1    -0.413396531880E+03   -0.26475E+00   -0.75849E+00  4304   0.531E+00    0.879E-01
RMM:   2    -0.413391045943E+03    0.54859E-02   -0.17378E-01  5330   0.521E-01    0.832E-01
RMM:   3    -0.413390140692E+03    0.90525E-03   -0.59852E-02  5593   0.263E-01    0.807E-01
RMM:   4    -0.413373438431E+03    0.16702E-01   -0.29396E-02  5082   0.201E-01    0.365E-01
RMM:   5    -0.413373606115E+03   -0.16768E-03   -0.24987E-02  5020   0.195E-01    0.209E-01
RMM:   6    -0.413371257216E+03    0.23489E-02   -0.74500E-03  4968   0.110E-01    0.109E-01
RMM:   7    -0.413371121657E+03    0.13556E-03   -0.60237E-04  5130   0.360E-02    0.670E-02
RMM:   8    -0.413371103319E+03    0.18338E-04   -0.36857E-04  4955   0.252E-02    0.281E-02
RMM:   9    -0.413371108273E+03   -0.49548E-05   -0.17365E-04  5546   0.157E-02    0.141E-02
RMM:  10    -0.413371107602E+03    0.67148E-06   -0.38713E-05  5369   0.735E-03    0.678E-03
RMM:  11    -0.413371112691E+03   -0.50887E-05   -0.16923E-05  4530   0.500E-03    0.513E-03
RMM:  12    -0.413371116909E+03   -0.42180E-05   -0.36810E-06  2848   0.305E-03    0.302E-03
RMM:  13    -0.413371118438E+03   -0.15297E-05   -0.15653E-06  2580   0.205E-03    0.113E-03
RMM:  14    -0.413371119122E+03   -0.68355E-06   -0.80409E-07  2391   0.142E-03
  145 T=    98. E= -.41288962E+03 F= -.41337112E+03 E0= -.41335220E+03  EK= 0.48150E+00 SP= 0.00E+00 SK= 0.00E+00
       N       E                     dE             d eps       ncg     rms          rms(c)
RMM:   1    -0.413724295139E+03   -0.35318E+00   -0.16264E+01  4306   0.773E+00    0.208E+00
RMM:   2    -0.413693733653E+03    0.30561E-01   -0.57687E-01  5274   0.912E-01    0.188E+00
RMM:   3    -0.413715018935E+03   -0.21285E-01   -0.28440E-01  5391   0.556E-01    0.193E+00
RMM:   4    -0.413604530253E+03    0.11049E+00   -0.16133E-01  5110   0.459E-01    0.814E-01
RMM:   5    -0.413603053384E+03    0.14769E-02   -0.12196E-01  5103   0.413E-01    0.498E-01
RMM:   6    -0.413592585993E+03    0.10467E-01   -0.45116E-02  5078   0.259E-01    0.245E-01
RMM:   7    -0.413591096596E+03    0.14894E-02   -0.35453E-03  4661   0.927E-02    0.113E-01
RMM:   8    -0.413591029536E+03    0.67060E-04   -0.17089E-03  5573   0.486E-02    0.612E-02
RMM:   9    -0.413591056450E+03   -0.26914E-04   -0.65017E-04  5144   0.312E-02    0.240E-02
RMM:  10    -0.413591068780E+03   -0.12330E-04   -0.11864E-04  5585   0.132E-02    0.139E-02
RMM:  11    -0.413591083165E+03   -0.14384E-04   -0.44039E-05  5130   0.812E-03    0.821E-03
RMM:  12    -0.413591107521E+03   -0.24356E-04   -0.18284E-05  4039   0.600E-03    0.504E-03
RMM:  13    -0.413591118966E+03   -0.11446E-04   -0.69362E-06  3189   0.379E-03    0.210E-03
RMM:  14    -0.413591123967E+03   -0.50008E-05   -0.42370E-06  2911   0.264E-03    0.155E-03
RMM:  15    -0.413591125510E+03   -0.15425E-05   -0.38144E-06  2874   0.251E-03    0.856E-04
RMM:  16    -0.413591123296E+03    0.22139E-05   -0.33041E-06  2744   0.215E-03    0.722E-04
RMM:  17    -0.413591117345E+03    0.59508E-05   -0.23852E-06  2485   0.173E-03    0.408E-04
RMM:  18    -0.413591110833E+03    0.65119E-05   -0.14589E-06  2291   0.133E-03    0.240E-04
RMM:  19    -0.413591104914E+03    0.59187E-05   -0.70061E-07  1947   0.993E-04    0.162E-04
RMM:  20    -0.413591100761E+03    0.41530E-05   -0.32133E-07  1521   0.765E-04    0.106E-04
RMM:  21    -0.413591096877E+03    0.38845E-05   -0.21759E-07  1471   0.711E-04    0.673E-05
RMM:  22    -0.413591094902E+03    0.19748E-05   -0.12276E-07  1254   0.629E-04    0.434E-05
RMM:  23    -0.413591093971E+03    0.93135E-06   -0.69497E-08  1074   0.579E-04
  146 T=   141. E= -.41289643E+03 F= -.41359109E+03 E0= -.41357252E+03  EK= 0.69466E+00 SP= 0.00E+00 SK= 0.00E+00
       N       E                     dE             d eps       ncg     rms          rms(c)
RMM:   1    -0.413570184919E+03    0.20910E-01   -0.15271E+01  4305   0.741E+00    0.140E+00
RMM:   2    -0.413566458209E+03    0.37267E-02   -0.54242E-01  5256   0.828E-01    0.137E+00
RMM:   3    -0.413562159495E+03    0.42987E-02   -0.17224E-01  5439   0.435E-01    0.136E+00
RMM:   4    -0.413501844095E+03    0.60315E-01   -0.57802E-02  5032   0.287E-01    0.664E-01
RMM:   5    -0.413504950380E+03   -0.31063E-02   -0.67738E-02  5214   0.296E-01    0.488E-01
RMM:   6    -0.413498593288E+03    0.63571E-02   -0.42274E-02  5192   0.234E-01    0.249E-01
RMM:   7    -0.413497264527E+03    0.13288E-02   -0.54560E-03  5348   0.993E-02    0.153E-01
RMM:   8    -0.413496848375E+03    0.41615E-03   -0.18504E-03  5500   0.506E-02    0.775E-02
RMM:   9    -0.413496849015E+03   -0.64001E-06   -0.13242E-03  5084   0.389E-02    0.190E-02
RMM:  10    -0.413496887412E+03   -0.38397E-04   -0.14367E-04  5682   0.146E-02    0.131E-02
RMM:  11    -0.413496903032E+03   -0.15620E-04   -0.31658E-05  4521   0.737E-03    0.799E-03
RMM:  12    -0.413496933278E+03   -0.30246E-04   -0.20889E-05  3905   0.616E-03    0.513E-03
RMM:  13    -0.413496950535E+03   -0.17257E-04   -0.10164E-05  3384   0.446E-03    0.232E-03
RMM:  14    -0.413496955979E+03   -0.54436E-05   -0.56617E-06  3061   0.288E-03    0.186E-03
RMM:  15    -0.413496957084E+03   -0.11048E-05   -0.50786E-06  3015   0.273E-03    0.996E-04
RMM:  16    -0.413496953661E+03    0.34231E-05   -0.49714E-06  2930   0.253E-03    0.776E-04
RMM:  17    -0.413496944978E+03    0.86825E-05   -0.34767E-06  2636   0.203E-03    0.472E-04
RMM:  18    -0.413496937601E+03    0.73772E-05   -0.15717E-06  2200   0.133E-03    0.302E-04
RMM:  19    -0.413496929165E+03    0.84358E-05   -0.84584E-07  2063   0.109E-03    0.182E-04
RMM:  20    -0.413496923713E+03    0.54516E-05   -0.38074E-07  1677   0.810E-04    0.129E-04
RMM:  21    -0.413496919832E+03    0.38814E-05   -0.20578E-07  1424   0.695E-04    0.734E-05
RMM:  22    -0.413496917274E+03    0.25581E-05   -0.13054E-07  1314   0.639E-04    0.672E-05
RMM:  23    -0.413496916013E+03    0.12614E-05   -0.76316E-08  1135   0.582E-04    0.505E-05
RMM:  24    -0.413496915593E+03    0.41956E-06   -0.43933E-08   984   0.535E-04
  147 T=   127. E= -.41287229E+03 F= -.41349692E+03 E0= -.41347868E+03  EK= 0.62462E+00 SP= 0.00E+00 SK= 0.00E+00
       N       E                     dE             d eps       ncg     rms          rms(c)
RMM:   1    -0.413385592429E+03    0.11132E+00   -0.11713E+01  4301   0.670E+00    0.741E-01
RMM:   2    -0.413388010421E+03   -0.24180E-02   -0.33393E-01  5275   0.645E-01    0.744E-01
RMM:   3    -0.413391957530E+03   -0.39471E-02   -0.66577E-02  5469   0.274E-01    0.797E-01
RMM:   4    -0.413369636072E+03    0.22321E-01   -0.15051E-02  4886   0.153E-01    0.424E-01
RMM:   5    -0.413370566134E+03   -0.93006E-03   -0.22961E-02  5374   0.168E-01    0.292E-01
RMM:   6    -0.413368853927E+03    0.17122E-02   -0.20846E-02  5185   0.159E-01    0.169E-01
RMM:   7    -0.413368339101E+03    0.51483E-03   -0.25483E-03  5527   0.644E-02    0.124E-01
RMM:   8    -0.413367966268E+03    0.37283E-03   -0.10780E-03  4616   0.376E-02    0.510E-02
RMM:   9    -0.413368012149E+03   -0.45880E-04   -0.82219E-04  5446   0.284E-02    0.147E-02
RMM:  10    -0.413368030933E+03   -0.18784E-04   -0.64425E-05  5356   0.986E-03    0.938E-03
RMM:  11    -0.413368044954E+03   -0.14022E-04   -0.19447E-05  4120   0.585E-03    0.533E-03
RMM:  12    -0.413368059049E+03   -0.14095E-04   -0.80616E-06  3257   0.405E-03    0.300E-03
RMM:  13    -0.413368065957E+03   -0.69083E-05   -0.55177E-06  3041   0.309E-03    0.236E-03
RMM:  14    -0.413368066111E+03   -0.15373E-06   -0.32797E-06  2827   0.216E-03
  148 T=   102. E= -.41286730E+03 F= -.41336807E+03 E0= -.41335011E+03  EK= 0.50077E+00 SP= 0.00E+00 SK= 0.00E+00
       N       E                     dE             d eps       ncg     rms          rms(c)
RMM:   1    -0.413300026405E+03    0.68040E-01   -0.95999E+00  4293   0.602E+00    0.739E-01
RMM:   2    -0.413296406604E+03    0.36198E-02   -0.23687E-01  5142   0.552E-01    0.585E-01
RMM:   3    -0.413322989971E+03   -0.26583E-01   -0.53454E-02  5464   0.243E-01    0.822E-01
RMM:   4    -0.413294729858E+03    0.28260E-01   -0.19371E-02  4935   0.164E-01    0.336E-01
RMM:   5    -0.413296633025E+03   -0.19032E-02   -0.22449E-02  5371   0.174E-01    0.203E-01
RMM:   6    -0.413294491246E+03    0.21418E-02   -0.74016E-03  5120   0.104E-01    0.928E-02
RMM:   7    -0.413294307297E+03    0.18395E-03   -0.12364E-03  5640   0.440E-02    0.536E-02
RMM:   8    -0.413294263733E+03    0.43564E-04   -0.38629E-04  5640   0.224E-02    0.225E-02
RMM:   9    -0.413294271292E+03   -0.75585E-05   -0.12960E-04  5409   0.129E-02    0.114E-02
RMM:  10    -0.413294272644E+03   -0.13519E-05   -0.23529E-05  4567   0.608E-03    0.693E-03
RMM:  11    -0.413294273921E+03   -0.12774E-05   -0.88158E-06  3603   0.412E-03    0.369E-03
RMM:  12    -0.413294274243E+03   -0.32224E-06   -0.29886E-06  2805   0.260E-03
  149 T=    87. E= -.41286887E+03 F= -.41329427E+03 E0= -.41327655E+03  EK= 0.42540E+00 SP= 0.00E+00 SK= 0.00E+00
       N       E                     dE             d eps       ncg     rms          rms(c)
RMM:   1    -0.413268339337E+03    0.25935E-01   -0.85391E+00  4285   0.563E+00    0.916E-01
RMM:   2    -0.413267054022E+03    0.12853E-02   -0.22163E-01  4910   0.520E-01    0.677E-01
RMM:   3    -0.413307460927E+03   -0.40407E-01   -0.61883E-02  5413   0.268E-01    0.855E-01
RMM:   4    -0.413272992180E+03    0.34469E-01   -0.38449E-02  5069   0.209E-01    0.353E-01
RMM:   5    -0.413269104460E+03    0.38877E-02   -0.19329E-02  5354   0.169E-01    0.147E-01
RMM:   6    -0.413268115180E+03    0.98928E-03   -0.20914E-03  4636   0.662E-02    0.582E-02
RMM:   7    -0.413268055354E+03    0.59826E-04   -0.62841E-04  5508   0.306E-02    0.281E-02
RMM:   8    -0.413268036688E+03    0.18666E-04   -0.33133E-04  5834   0.205E-02    0.216E-02
RMM:   9    -0.413268023519E+03    0.13169E-04   -0.57432E-05  5494   0.930E-03    0.146E-02
RMM:  10    -0.413268012323E+03    0.11196E-04   -0.38210E-05  5461   0.742E-03    0.539E-03
RMM:  11    -0.413268009445E+03    0.28777E-05   -0.86137E-06  3542   0.352E-03    0.415E-03
RMM:  12    -0.413268006573E+03    0.28718E-05   -0.20060E-06  2601   0.252E-03    0.197E-03
RMM:  13    -0.413268005733E+03    0.84016E-06   -0.85998E-07  2472   0.156E-03
  150 T=    82. E= -.41286638E+03 F= -.41326801E+03 E0= -.41325044E+03  EK= 0.40163E+00 SP= 0.00E+00 SK= 0.00E+00
