       N       E                     dE             d eps       ncg     rms          rms(c)
RMM:   1     0.220136494894E+04    0.22014E+04   -0.52442E+04  2132   0.654E+02
RMM:   2     0.705502061265E+03   -0.14959E+04   -0.16261E+04  2132   0.177E+02
RMM:   3     0.137613321927E+03   -0.56789E+03   -0.65708E+03  2132   0.117E+02
RMM:   4    -0.159350192411E+03   -0.29696E+03   -0.27836E+03  2132   0.936E+01
RMM:   5    -0.287438471822E+03   -0.12809E+03   -0.11447E+03  2132   0.595E+01
RMM:   6    -0.349780632451E+03   -0.62342E+02   -0.55169E+02  2132   0.423E+01
RMM:   7    -0.382651843376E+03   -0.32871E+02   -0.30410E+02  2132   0.293E+01
RMM:   8    -0.404117853040E+03   -0.21466E+02   -0.18468E+02  2132   0.233E+01
RMM:   9    -0.435970139382E+03   -0.31852E+02   -0.30816E+02  6102   0.173E+01
RMM:  10    -0.441282916279E+03   -0.53128E+01   -0.63018E+01  6396   0.539E+00
RMM:  11    -0.442503677910E+03   -0.12208E+01   -0.11254E+01  6217   0.174E+00
RMM:  12    -0.442881347061E+03   -0.37767E+00   -0.26997E+00  6369   0.604E-01    0.134E+02
RMM:  13    -0.425667325310E+03    0.17214E+02   -0.81687E+01  4681   0.120E+01    0.712E+01
RMM:  14    -0.500456690204E+03   -0.74789E+02   -0.54806E+02  5422   0.234E+01    0.308E+01
RMM:  15    -0.416516842868E+03    0.83940E+02   -0.20188E+02  5095   0.164E+01    0.744E+00
RMM:  16    -0.413986867352E+03    0.25300E+01   -0.40094E+01  6099   0.617E+00    0.426E+00
RMM:  17    -0.413201311264E+03    0.78556E+00   -0.26264E+00  5433   0.191E+00    0.241E+00
RMM:  18    -0.413180741366E+03    0.20570E-01   -0.73429E-01  6004   0.872E-01    0.171E+00
RMM:  19    -0.413171008948E+03    0.97324E-02   -0.27725E-01  5660   0.572E-01    0.884E-01
RMM:  20    -0.413191366389E+03   -0.20357E-01   -0.29398E-01  5606   0.557E-01    0.639E-01
RMM:  21    -0.413169137412E+03    0.22229E-01   -0.37832E-02  4972   0.248E-01    0.285E-01
RMM:  22    -0.413166056456E+03    0.30810E-02   -0.22901E-02  5943   0.141E-01    0.134E-01
RMM:  23    -0.413165008923E+03    0.10475E-02   -0.55349E-03  6022   0.648E-02    0.848E-02
RMM:  24    -0.413163653350E+03    0.13556E-02   -0.17162E-03  5292   0.411E-02    0.543E-02
RMM:  25    -0.413162933680E+03    0.71967E-03   -0.93900E-04  5139   0.303E-02    0.385E-02
RMM:  26    -0.413163042040E+03   -0.10836E-03   -0.11187E-03  5860   0.336E-02    0.366E-02
RMM:  27    -0.413163458430E+03   -0.41639E-03   -0.21033E-04  4559   0.208E-02    0.211E-02
RMM:  28    -0.413163902355E+03   -0.44393E-03   -0.18391E-04  5224   0.189E-02    0.909E-03
RMM:  29    -0.413164295655E+03   -0.39330E-03   -0.11544E-04  4602   0.160E-02    0.465E-03
RMM:  30    -0.413164527050E+03   -0.23139E-03   -0.81599E-05  4347   0.108E-02    0.445E-03
RMM:  31    -0.413164652698E+03   -0.12565E-03   -0.56249E-05  3238   0.729E-03    0.369E-03
RMM:  32    -0.413164674137E+03   -0.21439E-04   -0.21699E-05  2996   0.320E-03    0.209E-03
RMM:  33    -0.413164682179E+03   -0.80417E-05   -0.87779E-06  2812   0.233E-03    0.661E-04
RMM:  34    -0.413164682217E+03   -0.38006E-07   -0.45225E-06  2615   0.160E-03
    1 T=    61. E= -.41286687E+03 F= -.41316468E+03 E0= -.41314218E+03  EK= 0.29781E+00 SP= 0.00E+00 SK= 0.00E+00
       N       E                     dE             d eps       ncg     rms          rms(c)
RMM:   1    -0.413170631949E+03   -0.59498E-02   -0.70788E+00  3993   0.531E-01    0.897E-01
RMM:   2    -0.413170689650E+03   -0.57701E-04   -0.89425E-02  3899   0.783E-02    0.660E-01
RMM:   3    -0.413165870031E+03    0.48196E-02   -0.37653E-02  4939   0.653E-02    0.212E-01
RMM:   4    -0.413187946063E+03   -0.22076E-01   -0.27010E-02  5185   0.138E-01    0.638E-01
RMM:   5    -0.413164197525E+03    0.23749E-01   -0.11416E-02  4826   0.108E-01    0.484E-02
RMM:   6    -0.413164367501E+03   -0.16998E-03   -0.21420E-03  5723   0.453E-02    0.339E-02
RMM:   7    -0.413164367530E+03   -0.28867E-07   -0.40027E-04  5714   0.181E-02    0.210E-02
RMM:   8    -0.413164366356E+03    0.11743E-05   -0.45027E-05  5071   0.757E-03    0.825E-03
RMM:   9    -0.413164369351E+03   -0.29954E-05   -0.99819E-06  3405   0.329E-03    0.589E-03
RMM:  10    -0.413164374805E+03   -0.54544E-05   -0.20654E-06  2581   0.215E-03    0.342E-03
RMM:  11    -0.413164378946E+03   -0.41409E-05   -0.11870E-06  2512   0.159E-03    0.177E-03
RMM:  12    -0.413164384952E+03   -0.60059E-05   -0.12894E-06  2520   0.158E-03    0.805E-04
RMM:  13    -0.413164387828E+03   -0.28755E-05   -0.61093E-07  2291   0.114E-03    0.570E-04
RMM:  14    -0.413164387879E+03   -0.51412E-07   -0.32733E-07  1748   0.799E-04
    2 T=    61. E= -.41286663E+03 F= -.41316439E+03 E0= -.41314189E+03  EK= 0.29776E+00 SP= 0.00E+00 SK= 0.00E+00
       N       E                     dE             d eps       ncg     rms          rms(c)
RMM:   1    -0.413171697858E+03   -0.73100E-02   -0.70398E+00  4193   0.531E-01    0.913E-01
RMM:   2    -0.413170904794E+03    0.79306E-03   -0.89487E-02  3931   0.775E-02    0.659E-01
RMM:   3    -0.413166866751E+03    0.40380E-02   -0.34944E-02  5035   0.655E-02    0.209E-01
RMM:   4    -0.413193743188E+03   -0.26876E-01   -0.33549E-02  5149   0.155E-01    0.704E-01
RMM:   5    -0.413164790578E+03    0.28953E-01   -0.13353E-02  4790   0.118E-01    0.503E-02
RMM:   6    -0.413164988143E+03   -0.19756E-03   -0.24593E-03  5710   0.491E-02    0.360E-02
RMM:   7    -0.413164971058E+03    0.17084E-04   -0.44020E-04  5646   0.198E-02    0.231E-02
RMM:   8    -0.413164962348E+03    0.87103E-05   -0.57763E-05  5237   0.883E-03    0.101E-02
RMM:   9    -0.413164960425E+03    0.19236E-05   -0.11681E-05  3726   0.382E-03    0.676E-03
RMM:  10    -0.413164960603E+03   -0.17848E-06   -0.21435E-06  2582   0.234E-03
    3 T=    61. E= -.41286700E+03 F= -.41316496E+03 E0= -.41314247E+03  EK= 0.29796E+00 SP= 0.00E+00 SK= 0.00E+00
       N       E                     dE             d eps       ncg     rms          rms(c)
RMM:   1    -0.413171122010E+03   -0.61616E-02   -0.69889E+00  4219   0.536E-01    0.898E-01
RMM:   2    -0.413170552003E+03    0.57001E-03   -0.88939E-02  4220   0.763E-02    0.653E-01
RMM:   3    -0.413173880862E+03   -0.33289E-02   -0.39860E-02  5174   0.102E-01    0.413E-01
RMM:   4    -0.413180901793E+03   -0.70209E-02   -0.33337E-02  5079   0.159E-01    0.535E-01
RMM:   5    -0.413164733412E+03    0.16168E-01   -0.63313E-03  4601   0.894E-02    0.525E-02
RMM:   6    -0.413164740134E+03   -0.67219E-05   -0.12463E-03  5350   0.354E-02    0.313E-02
RMM:   7    -0.413164747786E+03   -0.76519E-05   -0.25277E-04  5721   0.152E-02    0.183E-02
RMM:   8    -0.413164744220E+03    0.35656E-05   -0.39742E-05  4987   0.761E-03    0.690E-03
RMM:   9    -0.413164743693E+03    0.52676E-06   -0.46863E-06  2883   0.286E-03
    4 T=    61. E= -.41286684E+03 F= -.41316474E+03 E0= -.41314226E+03  EK= 0.29790E+00 SP= 0.00E+00 SK= 0.00E+00
       N       E                     dE             d eps       ncg     rms          rms(c)
RMM:   1    -0.413171109642E+03   -0.63654E-02   -0.70675E+00  4237   0.543E-01    0.895E-01
RMM:   2    -0.413170964539E+03    0.14510E-03   -0.89571E-02  4096   0.751E-02    0.659E-01
RMM:   3    -0.413170606429E+03    0.35811E-03   -0.40195E-02  5115   0.878E-02    0.343E-01
RMM:   4    -0.413187422534E+03   -0.16816E-01   -0.35198E-02  5097   0.161E-01    0.630E-01
RMM:   5    -0.413164794881E+03    0.22628E-01   -0.97866E-03  4690   0.105E-01    0.519E-02
RMM:   6    -0.413164892975E+03   -0.98094E-04   -0.17871E-03  5585   0.421E-02    0.315E-02
RMM:   7    -0.413164902971E+03   -0.99966E-05   -0.33018E-04  5784   0.164E-02    0.197E-02
RMM:   8    -0.413164902715E+03    0.25610E-06   -0.44387E-05  5037   0.783E-03    0.751E-03
RMM:   9    -0.413164904800E+03   -0.20850E-05   -0.66856E-06  3134   0.312E-03    0.439E-03
RMM:  10    -0.413164909535E+03   -0.47348E-05   -0.16399E-06  2543   0.204E-03    0.269E-03
RMM:  11    -0.413164913248E+03   -0.37130E-05   -0.92725E-07  2500   0.152E-03    0.135E-03
RMM:  12    -0.413164917849E+03   -0.46005E-05   -0.96665E-07  2503   0.140E-03    0.644E-04
RMM:  13    -0.413164920207E+03   -0.23584E-05   -0.51615E-07  2126   0.105E-03    0.378E-04
RMM:  14    -0.413164920752E+03   -0.54545E-06   -0.23494E-07  1613   0.791E-04
    5 T=    61. E= -.41286688E+03 F= -.41316492E+03 E0= -.41314244E+03  EK= 0.29804E+00 SP= 0.00E+00 SK= 0.00E+00
       N       E                     dE             d eps       ncg     rms          rms(c)
RMM:   1    -0.413172019094E+03   -0.70989E-02   -0.70473E+00  4245   0.544E-01    0.910E-01
RMM:   2    -0.413171233274E+03    0.78582E-03   -0.89422E-02  4034   0.748E-02    0.660E-01
RMM:   3    -0.413167811759E+03    0.34215E-02   -0.35861E-02  5049   0.680E-02    0.232E-01
RMM:   4    -0.413194249780E+03   -0.26438E-01   -0.35070E-02  5125   0.158E-01    0.705E-01
RMM:   5    -0.413165217232E+03    0.29033E-01   -0.13237E-02  4760   0.118E-01    0.513E-02
RMM:   6    -0.413165396284E+03   -0.17905E-03   -0.24033E-03  5670   0.487E-02    0.351E-02
RMM:   7    -0.413165387091E+03    0.91928E-05   -0.42831E-04  5668   0.191E-02    0.227E-02
RMM:   8    -0.413165380969E+03    0.61219E-05   -0.56729E-05  5233   0.859E-03    0.960E-03
RMM:   9    -0.413165379180E+03    0.17894E-05   -0.10464E-05  3623   0.371E-03    0.618E-03
RMM:  10    -0.413165379660E+03   -0.48032E-06   -0.20094E-06  2563   0.227E-03
    6 T=    61. E= -.41286706E+03 F= -.41316538E+03 E0= -.41314292E+03  EK= 0.29832E+00 SP= 0.00E+00 SK= 0.00E+00
       N       E                     dE             d eps       ncg     rms          rms(c)
RMM:   1    -0.413171620208E+03   -0.62410E-02   -0.70018E+00  4258   0.549E-01    0.904E-01
RMM:   2    -0.413170952558E+03    0.66765E-03   -0.89079E-02  4217   0.760E-02    0.654E-01
RMM:   3    -0.413172570104E+03   -0.16175E-02   -0.38315E-02  5138   0.943E-02    0.374E-01
RMM:   4    -0.413183699646E+03   -0.11130E-01   -0.33991E-02  5080   0.159E-01    0.570E-01
RMM:   5    -0.413165092446E+03    0.18607E-01   -0.74526E-03  4646   0.950E-02    0.526E-02
RMM:   6    -0.413165129179E+03   -0.36733E-04   -0.14338E-03  5427   0.380E-02    0.321E-02
RMM:   7    -0.413165138506E+03   -0.93273E-05   -0.28059E-04  5756   0.158E-02    0.192E-02
RMM:   8    -0.413165131246E+03    0.72609E-05   -0.43898E-05  5014   0.800E-03    0.733E-03
RMM:   9    -0.413165128934E+03    0.23112E-05   -0.56811E-06  2985   0.305E-03    0.389E-03
RMM:  10    -0.413165128455E+03    0.47923E-06   -0.14927E-06  2527   0.197E-03
    7 T=    61. E= -.41286674E+03 F= -.41316513E+03 E0= -.41314268E+03  EK= 0.29838E+00 SP= 0.00E+00 SK= 0.00E+00
       N       E                     dE             d eps       ncg     rms          rms(c)
RMM:   1    -0.413171836878E+03   -0.67079E-02   -0.70519E+00  4268   0.556E-01    0.893E-01
RMM:   2    -0.413171955609E+03   -0.11873E-03   -0.89206E-02  4118   0.775E-02    0.657E-01
RMM:   3    -0.413168957616E+03    0.29980E-02   -0.38322E-02  5037   0.767E-02    0.272E-01
RMM:   4    -0.413193263559E+03   -0.24306E-01   -0.35338E-02  5108   0.159E-01    0.691E-01
RMM:   5    -0.413165553043E+03    0.27711E-01   -0.12560E-02  4740   0.116E-01    0.506E-02
RMM:   6    -0.413165729810E+03   -0.17677E-03   -0.22918E-03  5663   0.473E-02    0.337E-02
RMM:   7    -0.413165724669E+03    0.51408E-05   -0.40420E-04  5671   0.188E-02    0.219E-02
RMM:   8    -0.413165719822E+03    0.48472E-05   -0.55017E-05  5161   0.863E-03    0.908E-03
RMM:   9    -0.413165719241E+03    0.58068E-06   -0.10274E-05  3508   0.367E-03    0.580E-03
RMM:  10    -0.413165722121E+03   -0.28803E-05   -0.19676E-06  2567   0.224E-03    0.345E-03
RMM:  11    -0.413165724119E+03   -0.19972E-05   -0.97115E-07  2507   0.157E-03    0.187E-03
RMM:  12    -0.413165727167E+03   -0.30480E-05   -0.12868E-06  2525   0.167E-03    0.910E-04
RMM:  13    -0.413165728479E+03   -0.13128E-05   -0.65744E-07  2358   0.123E-03    0.691E-04
RMM:  14    -0.413165728278E+03    0.20140E-06   -0.24125E-07  1826   0.830E-04
    8 T=    61. E= -.41286695E+03 F= -.41316573E+03 E0= -.41314330E+03  EK= 0.29878E+00 SP= 0.00E+00 SK= 0.00E+00
       N       E                     dE             d eps       ncg     rms          rms(c)
RMM:   1    -0.413172427039E+03   -0.66986E-02   -0.70647E+00  4281   0.558E-01    0.907E-01
RMM:   2    -0.413172062774E+03    0.36427E-03   -0.89335E-02  4144   0.789E-02    0.661E-01
RMM:   3    -0.413168119192E+03    0.39436E-02   -0.36668E-02  4989   0.703E-02    0.230E-01
RMM:   4    -0.413194514380E+03   -0.26395E-01   -0.33910E-02  5115   0.155E-01    0.703E-01
RMM:   5    -0.413165721179E+03    0.28793E-01   -0.13357E-02  4775   0.117E-01    0.496E-02
RMM:   6    -0.413165911172E+03   -0.18999E-03   -0.23854E-03  5700   0.482E-02    0.352E-02
RMM:   7    -0.413165899048E+03    0.12124E-04   -0.42238E-04  5617   0.194E-02    0.225E-02
RMM:   8    -0.413165892537E+03    0.65108E-05   -0.55128E-05  5183   0.860E-03    0.966E-03
RMM:   9    -0.413165891130E+03    0.14076E-05   -0.11097E-05  3655   0.374E-03    0.646E-03
RMM:  10    -0.413165891987E+03   -0.85682E-06   -0.19523E-06  2557   0.227E-03
    9 T=    61. E= -.41286684E+03 F= -.41316589E+03 E0= -.41314348E+03  EK= 0.29905E+00 SP= 0.00E+00 SK= 0.00E+00
       N       E                     dE             d eps       ncg     rms          rms(c)
RMM:   1    -0.413172686558E+03   -0.67954E-02   -0.70245E+00  4290   0.562E-01    0.911E-01
RMM:   2    -0.413171925444E+03    0.76111E-03   -0.89547E-02  4308   0.793E-02    0.657E-01
RMM:   3    -0.413174329039E+03   -0.24036E-02   -0.39004E-02  5129   0.998E-02    0.394E-01
RMM:   4    -0.413183215178E+03   -0.88861E-02   -0.33638E-02  5064   0.159E-01    0.550E-01
RMM:   5    -0.413165969639E+03    0.17246E-01   -0.67249E-03  4630   0.913E-02    0.525E-02
RMM:   6    -0.413165987932E+03   -0.18293E-04   -0.13405E-03  5386   0.364E-02    0.321E-02
RMM:   7    -0.413165989358E+03   -0.14260E-05   -0.26539E-04  5709   0.156E-02    0.188E-02
RMM:   8    -0.413165982996E+03    0.63626E-05   -0.41522E-05  5001   0.767E-03    0.711E-03
RMM:   9    -0.413165979888E+03    0.31075E-05   -0.50287E-06  2924   0.291E-03    0.375E-03
RMM:  10    -0.413165978207E+03    0.16817E-05   -0.14350E-06  2520   0.193E-03    0.224E-03
RMM:  11    -0.413165976314E+03    0.18924E-05   -0.88483E-07  2460   0.148E-03    0.110E-03
RMM:  12    -0.413165973745E+03    0.25697E-05   -0.72701E-07  2446   0.126E-03    0.507E-04
RMM:  13    -0.413165972030E+03    0.17141E-05   -0.35352E-07  1937   0.937E-04    0.312E-04
RMM:  14    -0.413165970383E+03    0.16470E-05   -0.22155E-07  1506   0.768E-04    0.189E-04
RMM:  15    -0.413165967070E+03    0.33137E-05   -0.33108E-07  1862   0.829E-04    0.301E-04
RMM:  16    -0.413165963973E+03    0.30967E-05   -0.23936E-07  1343   0.691E-04    0.187E-04
RMM:  17    -0.413165962906E+03    0.10665E-05   -0.94540E-08  1019   0.584E-04    0.973E-05
RMM:  18    -0.413165961146E+03    0.17606E-05   -0.96058E-08  1130   0.604E-04    0.534E-05
RMM:  19    -0.413165960927E+03    0.21842E-06   -0.34256E-08   781   0.531E-04
   10 T=    61. E= -.41286674E+03 F= -.41316596E+03 E0= -.41314358E+03  EK= 0.29922E+00 SP= 0.00E+00 SK= 0.00E+00
       N       E                     dE             d eps       ncg     rms          rms(c)
RMM:   1    -0.413173024859E+03   -0.70637E-02   -0.70333E+00  4290   0.568E-01    0.893E-01
RMM:   2    -0.413172809326E+03    0.21553E-03   -0.89207E-02  4203   0.778E-02    0.656E-01
RMM:   3    -0.413169403990E+03    0.34053E-02   -0.37390E-02  5016   0.710E-02    0.249E-01
RMM:   4    -0.413195051254E+03   -0.25647E-01   -0.34808E-02  5105   0.158E-01    0.700E-01
RMM:   5    -0.413166579754E+03    0.28471E-01   -0.13175E-02  4751   0.117E-01    0.499E-02
RMM:   6    -0.413166754089E+03   -0.17433E-03   -0.23276E-03  5659   0.477E-02    0.346E-02
RMM:   7    -0.413166751094E+03    0.29943E-05   -0.41329E-04  5584   0.190E-02    0.222E-02
RMM:   8    -0.413166746655E+03    0.44399E-05   -0.55165E-05  5195   0.846E-03    0.937E-03
RMM:   9    -0.413166746144E+03    0.51067E-06   -0.10443E-05  3625   0.369E-03    0.613E-03
RMM:  10    -0.413166748224E+03   -0.20801E-05   -0.19013E-06  2551   0.222E-03    0.365E-03
RMM:  11    -0.413166749490E+03   -0.12657E-05   -0.88430E-07  2486   0.155E-03    0.203E-03
RMM:  12    -0.413166751434E+03   -0.19445E-05   -0.12438E-06  2506   0.168E-03    0.997E-04
RMM:  13    -0.413166752093E+03   -0.65903E-06   -0.57521E-07  2350   0.123E-03
   11 T=    61. E= -.41286711E+03 F= -.41316675E+03 E0= -.41314439E+03  EK= 0.29965E+00 SP= 0.00E+00 SK= 0.00E+00
       N       E                     dE             d eps       ncg     rms          rms(c)
RMM:   1    -0.413173248868E+03   -0.64974E-02   -0.70860E+00  4292   0.573E-01    0.904E-01
RMM:   2    -0.413172759236E+03    0.48963E-03   -0.89770E-02  4225   0.776E-02    0.662E-01
RMM:   3    -0.413169007362E+03    0.37519E-02   -0.37587E-02  5002   0.686E-02    0.237E-01
RMM:   4    -0.413195126676E+03   -0.26119E-01   -0.33927E-02  5111   0.155E-01    0.701E-01
RMM:   5    -0.413166520590E+03    0.28606E-01   -0.13301E-02  4762   0.117E-01    0.491E-02
RMM:   6    -0.413166709463E+03   -0.18887E-03   -0.24067E-03  5722   0.480E-02    0.347E-02
RMM:   7    -0.413166700109E+03    0.93538E-05   -0.41463E-04  5612   0.195E-02    0.225E-02
RMM:   8    -0.413166694318E+03    0.57908E-05   -0.56598E-05  5108   0.870E-03    0.994E-03
RMM:   9    -0.413166693171E+03    0.11475E-05   -0.11152E-05  3654   0.381E-03    0.670E-03
RMM:  10    -0.413166694615E+03   -0.14445E-05   -0.19474E-06  2559   0.226E-03    0.394E-03
RMM:  11    -0.413166695530E+03   -0.91490E-06   -0.99829E-07  2487   0.164E-03
   12 T=    61. E= -.41286681E+03 F= -.41316670E+03 E0= -.41314436E+03  EK= 0.29988E+00 SP= 0.00E+00 SK= 0.00E+00
       N       E                     dE             d eps       ncg     rms          rms(c)
RMM:   1    -0.413174156414E+03   -0.74618E-02   -0.70503E+00  4292   0.575E-01    0.915E-01
RMM:   2    -0.413173038499E+03    0.11179E-02   -0.89823E-02  4243   0.761E-02    0.659E-01
RMM:   3    -0.413168944705E+03    0.40938E-02   -0.34591E-02  4991   0.611E-02    0.194E-01
RMM:   4    -0.413195545875E+03   -0.26601E-01   -0.32095E-02  5122   0.151E-01    0.697E-01
RMM:   5    -0.413167148549E+03    0.28397E-01   -0.13255E-02  4779   0.116E-01    0.491E-02
RMM:   6    -0.413167337628E+03   -0.18908E-03   -0.24287E-03  5743   0.484E-02    0.358E-02
RMM:   7    -0.413167312638E+03    0.24990E-04   -0.42038E-04  5634   0.199E-02    0.231E-02
RMM:   8    -0.413167299053E+03    0.13586E-04   -0.55866E-05  5090   0.865E-03    0.104E-02
RMM:   9    -0.413167294464E+03    0.45884E-05   -0.11325E-05  3678   0.385E-03    0.724E-03
RMM:  10    -0.413167291114E+03    0.33508E-05   -0.21111E-06  2570   0.238E-03    0.418E-03
RMM:  11    -0.413167288696E+03    0.24173E-05   -0.11038E-06  2502   0.171E-03    0.236E-03
RMM:  12    -0.413167283911E+03    0.47850E-05   -0.16896E-06  2560   0.194E-03    0.114E-03
RMM:  13    -0.413167280431E+03    0.34806E-05   -0.64651E-07  2410   0.134E-03    0.909E-04
RMM:  14    -0.413167280495E+03   -0.63843E-07   -0.24112E-07  1906   0.859E-04
   13 T=    61. E= -.41286692E+03 F= -.41316728E+03 E0= -.41314498E+03  EK= 0.30036E+00 SP= 0.00E+00 SK= 0.00E+00
       N       E                     dE             d eps       ncg     rms          rms(c)
RMM:   1    -0.413174208704E+03   -0.69283E-02   -0.70275E+00  4300   0.581E-01    0.896E-01
RMM:   2    -0.413173894855E+03    0.31385E-03   -0.89182E-02  4241   0.764E-02    0.655E-01
RMM:   3    -0.413170222027E+03    0.36728E-02   -0.36438E-02  5012   0.672E-02    0.231E-01
RMM:   4    -0.413196541977E+03   -0.26320E-01   -0.34133E-02  5112   0.156E-01    0.702E-01
RMM:   5    -0.413167778696E+03    0.28763E-01   -0.13329E-02  4758   0.117E-01    0.494E-02
RMM:   6    -0.413167960940E+03   -0.18224E-03   -0.23990E-03  5696   0.481E-02    0.350E-02
RMM:   7    -0.413167950844E+03    0.10096E-04   -0.41877E-04  5585   0.196E-02    0.227E-02
RMM:   8    -0.413167942651E+03    0.81932E-05   -0.57305E-05  5144   0.873E-03    0.988E-03
RMM:   9    -0.413167939863E+03    0.27884E-05   -0.10973E-05  3657   0.380E-03    0.659E-03
RMM:  10    -0.413167939432E+03    0.43085E-06   -0.19557E-06  2551   0.228E-03
   14 T=    61. E= -.41286703E+03 F= -.41316794E+03 E0= -.41314567E+03  EK= 0.30091E+00 SP= 0.00E+00 SK= 0.00E+00
       N       E                     dE             d eps       ncg     rms          rms(c)
RMM:   1    -0.413174352018E+03   -0.64122E-02   -0.71141E+00  4303   0.585E-01    0.903E-01
RMM:   2    -0.413174279139E+03    0.72879E-04   -0.89978E-02  4324   0.781E-02    0.664E-01
RMM:   3    -0.413178129232E+03   -0.38501E-02   -0.43520E-02  5124   0.107E-01    0.440E-01
RMM:   4    -0.413184054037E+03   -0.59248E-02   -0.34311E-02  5053   0.161E-01    0.538E-01
RMM:   5    -0.413167983393E+03    0.16071E-01   -0.66843E-03  4585   0.910E-02    0.509E-02
RMM:   6    -0.413168003305E+03   -0.19912E-04   -0.12534E-03  5359   0.345E-02    0.306E-02
RMM:   7    -0.413167999414E+03    0.38906E-05   -0.24509E-04  5585   0.152E-02    0.176E-02
RMM:   8    -0.413167997416E+03    0.19984E-05   -0.37060E-05  4852   0.792E-03    0.636E-03
RMM:   9    -0.413167996817E+03    0.59921E-06   -0.51726E-06  2894   0.288E-03
   15 T=    61. E= -.41286666E+03 F= -.41316800E+03 E0= -.41314576E+03  EK= 0.30134E+00 SP= 0.00E+00 SK= 0.00E+00
       N       E                     dE             d eps       ncg     rms          rms(c)
RMM:   1    -0.413175978924E+03   -0.79815E-02   -0.70810E+00  4300   0.591E-01    0.918E-01
RMM:   2    -0.413175080265E+03    0.89866E-03   -0.90126E-02  4279   0.799E-02    0.662E-01
RMM:   3    -0.413174502952E+03    0.57731E-03   -0.37418E-02  5103   0.874E-02    0.324E-01
RMM:   4    -0.413191829679E+03   -0.17327E-01   -0.35671E-02  5078   0.161E-01    0.628E-01
RMM:   5    -0.413168963164E+03    0.22867E-01   -0.94541E-03  4679   0.104E-01    0.525E-02
RMM:   6    -0.413169051300E+03   -0.88136E-04   -0.18671E-03  5585   0.424E-02    0.335E-02
RMM:   7    -0.413169041205E+03    0.10095E-04   -0.33881E-04  5691   0.174E-02    0.208E-02
RMM:   8    -0.413169033805E+03    0.73995E-05   -0.47186E-05  5050   0.820E-03    0.808E-03
RMM:   9    -0.413169029661E+03    0.41450E-05   -0.74404E-06  3169   0.327E-03    0.466E-03
RMM:  10    -0.413169026403E+03    0.32577E-05   -0.17507E-06  2537   0.216E-03    0.280E-03
RMM:  11    -0.413169023514E+03    0.28888E-05   -0.91549E-07  2479   0.156E-03    0.143E-03
RMM:  12    -0.413169018621E+03    0.48936E-05   -0.92921E-07  2488   0.147E-03    0.696E-04
RMM:  13    -0.413169014809E+03    0.38119E-05   -0.47420E-07  2211   0.109E-03    0.434E-04
RMM:  14    -0.413169013650E+03    0.11587E-05   -0.21102E-07  1649   0.783E-04    0.289E-04
RMM:  15    -0.413169007284E+03    0.63663E-05   -0.34799E-07  2057   0.897E-04    0.530E-04
RMM:  16    -0.413169003634E+03    0.36492E-05   -0.15475E-07  1202   0.641E-04    0.368E-04
RMM:  17    -0.413169001927E+03    0.17078E-05   -0.82776E-08   977   0.574E-04    0.256E-04
RMM:  18    -0.413168999959E+03    0.19676E-05   -0.68950E-08  1013   0.585E-04    0.101E-04
RMM:  19    -0.413168998223E+03    0.17363E-05   -0.68743E-08  1194   0.611E-04    0.146E-04
RMM:  20    -0.413168998262E+03   -0.39192E-07   -0.18754E-08   709   0.531E-04
   16 T=    61. E= -.41286694E+03 F= -.41316900E+03 E0= -.41314680E+03  EK= 0.30206E+00 SP= 0.00E+00 SK= 0.00E+00
       N       E                     dE             d eps       ncg     rms          rms(c)
RMM:   1    -0.413175978786E+03   -0.69806E-02   -0.70411E+00  4296   0.590E-01    0.901E-01
RMM:   2    -0.413175608820E+03    0.36997E-03   -0.89734E-02  4255   0.798E-02    0.656E-01
RMM:   3    -0.413172118162E+03    0.34907E-02   -0.36235E-02  5005   0.727E-02    0.242E-01
RMM:   4    -0.413198393018E+03   -0.26275E-01   -0.35667E-02  5101   0.159E-01    0.705E-01
RMM:   5    -0.413169338039E+03    0.29055E-01   -0.13294E-02  4749   0.117E-01    0.504E-02
RMM:   6    -0.413169512135E+03   -0.17410E-03   -0.24137E-03  5678   0.482E-02    0.354E-02
RMM:   7    -0.413169491634E+03    0.20501E-04   -0.42280E-04  5572   0.195E-02    0.228E-02
RMM:   8    -0.413169481978E+03    0.96563E-05   -0.56946E-05  5175   0.875E-03    0.974E-03
RMM:   9    -0.413169478643E+03    0.33347E-05   -0.10874E-05  3662   0.381E-03    0.632E-03
RMM:  10    -0.413169477609E+03    0.10342E-05   -0.19648E-06  2549   0.228E-03    0.375E-03
RMM:  11    -0.413169476754E+03    0.85457E-06   -0.91116E-07  2489   0.158E-03
   17 T=    62. E= -.41286690E+03 F= -.41316948E+03 E0= -.41314732E+03  EK= 0.30258E+00 SP= 0.00E+00 SK= 0.00E+00
       N       E                     dE             d eps       ncg     rms          rms(c)
RMM:   1    -0.413176490645E+03   -0.70130E-02   -0.71371E+00  4297   0.597E-01    0.902E-01
RMM:   2    -0.413176323162E+03    0.16748E-03   -0.90619E-02  4259   0.804E-02    0.664E-01
RMM:   3    -0.413172160784E+03    0.41624E-02   -0.38670E-02  4955   0.689E-02    0.236E-01
RMM:   4    -0.413197832830E+03   -0.25672E-01   -0.32457E-02  5103   0.152E-01    0.694E-01
RMM:   5    -0.413169846566E+03    0.27986E-01   -0.13257E-02  4768   0.116E-01    0.482E-02
RMM:   6    -0.413170027273E+03   -0.18071E-03   -0.23849E-03  5727   0.474E-02    0.341E-02
RMM:   7    -0.413170015840E+03    0.11434E-04   -0.40603E-04  5622   0.194E-02    0.223E-02
RMM:   8    -0.413170007762E+03    0.80781E-05   -0.53896E-05  5029   0.857E-03    0.981E-03
RMM:   9    -0.413170006411E+03    0.13506E-05   -0.11085E-05  3622   0.382E-03    0.674E-03
RMM:  10    -0.413170007327E+03   -0.91546E-06   -0.19323E-06  2556   0.227E-03
   18 T=    62. E= -.41286684E+03 F= -.41317001E+03 E0= -.41314789E+03  EK= 0.30317E+00 SP= 0.00E+00 SK= 0.00E+00
       N       E                     dE             d eps       ncg     rms          rms(c)
RMM:   1    -0.413178122353E+03   -0.81159E-02   -0.71143E+00  4302   0.597E-01    0.918E-01
RMM:   2    -0.413177195683E+03    0.92667E-03   -0.90777E-02  4337   0.796E-02    0.664E-01
RMM:   3    -0.413180292654E+03   -0.30970E-02   -0.40577E-02  5136   0.101E-01    0.411E-01
RMM:   4    -0.413188204501E+03   -0.79118E-02   -0.34508E-02  5048   0.161E-01    0.546E-01
RMM:   5    -0.413171218340E+03    0.16986E-01   -0.66013E-03  4597   0.910E-02    0.520E-02
RMM:   6    -0.413171239069E+03   -0.20730E-04   -0.13538E-03  5379   0.356E-02    0.321E-02
RMM:   7    -0.413171231690E+03    0.73790E-05   -0.26009E-04  5623   0.155E-02    0.187E-02
RMM:   8    -0.413171224686E+03    0.70047E-05   -0.39333E-05  4937   0.768E-03    0.693E-03
RMM:   9    -0.413171220736E+03    0.39500E-05   -0.51302E-06  2897   0.294E-03    0.374E-03
RMM:  10    -0.413171217793E+03    0.29422E-05   -0.13944E-06  2514   0.193E-03    0.222E-03
RMM:  11    -0.413171214779E+03    0.30145E-05   -0.79857E-07  2451   0.144E-03    0.110E-03
RMM:  12    -0.413171210403E+03    0.43762E-05   -0.66272E-07  2420   0.124E-03    0.531E-04
RMM:  13    -0.413171207424E+03    0.29793E-05   -0.31846E-07  1889   0.917E-04    0.322E-04
RMM:  14    -0.413171205124E+03    0.22994E-05   -0.17826E-07  1410   0.730E-04    0.198E-04
RMM:  15    -0.413171199890E+03    0.52341E-05   -0.21755E-07  1605   0.763E-04    0.282E-04
RMM:  16    -0.413171195236E+03    0.46536E-05   -0.15187E-07  1228   0.658E-04    0.195E-04
RMM:  17    -0.413171193451E+03    0.17850E-05   -0.72041E-08   980   0.579E-04    0.109E-04
RMM:  18    -0.413171190902E+03    0.25497E-05   -0.63473E-08  1015   0.583E-04    0.384E-05
RMM:  19    -0.413171190041E+03    0.86088E-06   -0.31649E-08   816   0.547E-04
   19 T=    62. E= -.41286714E+03 F= -.41317119E+03 E0= -.41314911E+03  EK= 0.30405E+00 SP= 0.00E+00 SK= 0.00E+00
       N       E                     dE             d eps       ncg     rms          rms(c)
RMM:   1    -0.413178420092E+03   -0.72292E-02   -0.70782E+00  4296   0.611E-01    0.908E-01
RMM:   2    -0.413177468353E+03    0.95174E-03   -0.90381E-02  4255   0.794E-02    0.659E-01
RMM:   3    -0.413174238143E+03    0.32302E-02   -0.35806E-02  5049   0.695E-02    0.236E-01
RMM:   4    -0.413200953745E+03   -0.26716E-01   -0.36376E-02  5102   0.161E-01    0.710E-01
RMM:   5    -0.413171461563E+03    0.29492E-01   -0.13498E-02  4743   0.118E-01    0.510E-02
RMM:   6    -0.413171641056E+03   -0.17949E-03   -0.24698E-03  5689   0.488E-02    0.359E-02
RMM:   7    -0.413171617097E+03    0.23959E-04   -0.43047E-04  5570   0.197E-02    0.233E-02
RMM:   8    -0.413171608139E+03    0.89586E-05   -0.59864E-05  5164   0.915E-03    0.101E-02
RMM:   9    -0.413171603572E+03    0.45670E-05   -0.11879E-05  3740   0.397E-03    0.650E-03
RMM:  10    -0.413171600910E+03    0.26612E-05   -0.20467E-06  2556   0.234E-03    0.384E-03
RMM:  11    -0.413171599080E+03    0.18307E-05   -0.95856E-07  2500   0.160E-03    0.219E-03
RMM:  12    -0.413171595180E+03    0.38999E-05   -0.13873E-06  2527   0.180E-03    0.107E-03
RMM:  13    -0.413171592045E+03    0.31348E-05   -0.61855E-07  2381   0.130E-03    0.862E-04
RMM:  14    -0.413171591838E+03    0.20754E-06   -0.24928E-07  1913   0.872E-04
   20 T=    62. E= -.41286686E+03 F= -.41317159E+03 E0= -.41314956E+03  EK= 0.30473E+00 SP= 0.00E+00 SK= 0.00E+00
       N       E                     dE             d eps       ncg     rms          rms(c)
RMM:   1    -0.413179123663E+03   -0.75316E-02   -0.71581E+00  4294   0.609E-01    0.902E-01
RMM:   2    -0.413178909355E+03    0.21431E-03   -0.90819E-02  4259   0.795E-02    0.665E-01
RMM:   3    -0.413175157260E+03    0.37521E-02   -0.38673E-02  5007   0.687E-02    0.245E-01
RMM:   4    -0.413201380243E+03   -0.26223E-01   -0.34352E-02  5100   0.156E-01    0.704E-01
RMM:   5    -0.413172541372E+03    0.28839E-01   -0.13555E-02  4760   0.118E-01    0.490E-02
RMM:   6    -0.413172728942E+03   -0.18757E-03   -0.24211E-03  5715   0.481E-02    0.343E-02
RMM:   7    -0.413172724034E+03    0.49077E-05   -0.41066E-04  5582   0.195E-02    0.224E-02
RMM:   8    -0.413172717617E+03    0.64173E-05   -0.58392E-05  5090   0.900E-03    0.999E-03
RMM:   9    -0.413172715152E+03    0.24648E-05   -0.11647E-05  3689   0.396E-03    0.667E-03
RMM:  10    -0.413172715455E+03   -0.30312E-06   -0.19723E-06  2560   0.231E-03
   21 T=    62. E= -.41286701E+03 F= -.41317272E+03 E0= -.41315073E+03  EK= 0.30570E+00 SP= 0.00E+00 SK= 0.00E+00
       N       E                     dE             d eps       ncg     rms          rms(c)
RMM:   1    -0.413180616368E+03   -0.79012E-02   -0.71647E+00  4299   0.614E-01    0.918E-01
RMM:   2    -0.413180043789E+03    0.57258E-03   -0.91252E-02  4328   0.820E-02    0.668E-01
RMM:   3    -0.413182695870E+03   -0.26521E-02   -0.41235E-02  5122   0.102E-01    0.407E-01
RMM:   4    -0.413191693212E+03   -0.89973E-02   -0.35014E-02  5046   0.162E-01    0.560E-01
RMM:   5    -0.413173816870E+03    0.17876E-01   -0.70722E-03  4602   0.946E-02    0.516E-02
RMM:   6    -0.413173871511E+03   -0.54641E-04   -0.14360E-03  5407   0.368E-02    0.320E-02
RMM:   7    -0.413173881387E+03   -0.98752E-05   -0.27410E-04  5603   0.161E-02    0.191E-02
RMM:   8    -0.413173869778E+03    0.11608E-04   -0.42009E-05  4926   0.818E-03    0.714E-03
RMM:   9    -0.413173865542E+03    0.42358E-05   -0.59124E-06  2971   0.315E-03    0.389E-03
RMM:  10    -0.413173863097E+03    0.24455E-05   -0.13948E-06  2518   0.195E-03    0.234E-03
RMM:  11    -0.413173860494E+03    0.26034E-05   -0.80039E-07  2455   0.145E-03    0.117E-03
RMM:  12    -0.413173856519E+03    0.39742E-05   -0.67626E-07  2448   0.126E-03    0.542E-04
RMM:  13    -0.413173853946E+03    0.25729E-05   -0.31891E-07  1942   0.927E-04    0.338E-04
RMM:  14    -0.413173852013E+03    0.19333E-05   -0.17124E-07  1432   0.726E-04    0.217E-04
RMM:  15    -0.413173846967E+03    0.50464E-05   -0.20190E-07  1578   0.754E-04    0.288E-04
RMM:  16    -0.413173842474E+03    0.44931E-05   -0.12995E-07  1137   0.640E-04    0.195E-04
RMM:  17    -0.413173840505E+03    0.19689E-05   -0.68541E-08   962   0.582E-04    0.109E-04
RMM:  18    -0.413173837394E+03    0.31106E-05   -0.66200E-08  1044   0.597E-04    0.460E-05
RMM:  19    -0.413173836606E+03    0.78782E-06   -0.30556E-08   813   0.550E-04
   22 T=    62. E= -.41286704E+03 F= -.41317384E+03 E0= -.41315189E+03  EK= 0.30680E+00 SP= 0.00E+00 SK= 0.00E+00
       N       E                     dE             d eps       ncg     rms          rms(c)
RMM:   1    -0.413181547148E+03   -0.77098E-02   -0.71369E+00  4296   0.620E-01    0.917E-01
RMM:   2    -0.413180658060E+03    0.88909E-03   -0.91310E-02  4278   0.814E-02    0.663E-01
RMM:   3    -0.413176751374E+03    0.39067E-02   -0.35563E-02  4982   0.713E-02    0.219E-01
RMM:   4    -0.413204612364E+03   -0.27861E-01   -0.35753E-02  5101   0.159E-01    0.718E-01
RMM:   5    -0.413174393457E+03    0.30219E-01   -0.13987E-02  4761   0.120E-01    0.505E-02
RMM:   6    -0.413174575524E+03   -0.18207E-03   -0.25554E-03  5702   0.496E-02    0.363E-02
RMM:   7    -0.413174563785E+03    0.11739E-04   -0.43888E-04  5574   0.201E-02    0.236E-02
RMM:   8    -0.413174553038E+03    0.10747E-04   -0.61657E-05  5177   0.907E-03    0.106E-02
RMM:   9    -0.413174548078E+03    0.49600E-05   -0.11942E-05  3785   0.398E-03    0.696E-03
RMM:  10    -0.413174544387E+03    0.36911E-05   -0.21097E-06  2567   0.235E-03    0.412E-03
RMM:  11    -0.413174541754E+03    0.26329E-05   -0.10092E-06  2500   0.165E-03    0.235E-03
RMM:  12    -0.413174536464E+03    0.52894E-05   -0.15408E-06  2546   0.188E-03    0.112E-03
RMM:  13    -0.413174532590E+03    0.38741E-05   -0.63634E-07  2389   0.133E-03    0.910E-04
RMM:  14    -0.413174532401E+03    0.18933E-06   -0.25210E-07  1923   0.879E-04
   23 T=    63. E= -.41286670E+03 F= -.41317453E+03 E0= -.41315264E+03  EK= 0.30784E+00 SP= 0.00E+00 SK= 0.00E+00
       N       E                     dE             d eps       ncg     rms          rms(c)
RMM:   1    -0.413183958534E+03   -0.94259E-02   -0.71993E+00  4297   0.635E-01    0.904E-01
RMM:   2    -0.413182642285E+03    0.13162E-02   -0.92868E-02  4287   0.843E-02    0.666E-01
RMM:   3    -0.413178124913E+03    0.45174E-02   -0.37936E-02  4924   0.714E-02    0.222E-01
RMM:   4    -0.413204374059E+03   -0.26249E-01   -0.32227E-02  5111   0.151E-01    0.697E-01
RMM:   5    -0.413175989732E+03    0.28384E-01   -0.13495E-02  4773   0.117E-01    0.482E-02
RMM:   6    -0.413176172694E+03   -0.18296E-03   -0.24472E-03  5775   0.478E-02    0.336E-02
RMM:   7    -0.413176166997E+03    0.56973E-05   -0.39261E-04  5605   0.193E-02    0.222E-02
RMM:   8    -0.413176158459E+03    0.85374E-05   -0.61485E-05  5023   0.895E-03    0.106E-02
RMM:   9    -0.413176155173E+03    0.32865E-05   -0.12084E-05  3768   0.407E-03    0.726E-03
RMM:  10    -0.413176154311E+03    0.86144E-06   -0.20566E-06  2568   0.236E-03
   24 T=    63. E= -.41286699E+03 F= -.41317615E+03 E0= -.41315431E+03  EK= 0.30916E+00 SP= 0.00E+00 SK= 0.00E+00
       N       E                     dE             d eps       ncg     rms          rms(c)
RMM:   1    -0.413184647530E+03   -0.84924E-02   -0.72419E+00  4301   0.633E-01    0.918E-01
RMM:   2    -0.413183635873E+03    0.10117E-02   -0.92869E-02  4345   0.854E-02    0.672E-01
RMM:   3    -0.413187035557E+03   -0.33997E-02   -0.42965E-02  5103   0.109E-01    0.430E-01
RMM:   4    -0.413194403773E+03   -0.73682E-02   -0.35169E-02  5044   0.163E-01    0.552E-01
RMM:   5    -0.413177160175E+03    0.17244E-01   -0.67985E-03  4593   0.925E-02    0.507E-02
RMM:   6    -0.413177195914E+03   -0.35739E-04   -0.13856E-03  5448   0.358E-02    0.319E-02
RMM:   7    -0.413177187854E+03    0.80604E-05   -0.26346E-04  5513   0.158E-02    0.187E-02
RMM:   8    -0.413177182954E+03    0.48996E-05   -0.39613E-05  4929   0.773E-03    0.688E-03
RMM:   9    -0.413177180198E+03    0.27564E-05   -0.53235E-06  2928   0.297E-03    0.379E-03
RMM:  10    -0.413177178259E+03    0.19385E-05   -0.12935E-06  2502   0.190E-03    0.229E-03
RMM:  11    -0.413177176078E+03    0.21810E-05   -0.74367E-07  2439   0.140E-03    0.116E-03
RMM:  12    -0.413177172581E+03    0.34971E-05   -0.64842E-07  2404   0.123E-03    0.547E-04
RMM:  13    -0.413177170278E+03    0.23029E-05   -0.30436E-07  1897   0.911E-04    0.354E-04
RMM:  14    -0.413177168317E+03    0.19609E-05   -0.16199E-07  1397   0.720E-04    0.220E-04
RMM:  15    -0.413177163547E+03    0.47704E-05   -0.18150E-07  1509   0.736E-04    0.272E-04
RMM:  16    -0.413177158918E+03    0.46287E-05   -0.12589E-07  1131   0.641E-04    0.184E-04
RMM:  17    -0.413177156781E+03    0.21371E-05   -0.65432E-08   959   0.587E-04    0.104E-04
RMM:  18    -0.413177153809E+03    0.29721E-05   -0.57979E-08  1011   0.593E-04    0.419E-05
RMM:  19    -0.413177152972E+03    0.83730E-06   -0.24515E-08   773   0.549E-04
   25 T=    63. E= -.41286681E+03 F= -.41317715E+03 E0= -.41315536E+03  EK= 0.31035E+00 SP= 0.00E+00 SK= 0.00E+00
       N       E                     dE             d eps       ncg     rms          rms(c)
RMM:   1    -0.413186815579E+03   -0.96618E-02   -0.72241E+00  4289   0.648E-01    0.927E-01
RMM:   2    -0.413184739976E+03    0.20756E-02   -0.93766E-02  4290   0.864E-02    0.669E-01
RMM:   3    -0.413180591415E+03    0.41486E-02   -0.35478E-02  4954   0.709E-02    0.210E-01
RMM:   4    -0.413209305519E+03   -0.28714E-01   -0.35877E-02  5107   0.159E-01    0.725E-01
RMM:   5    -0.413178390166E+03    0.30915E-01   -0.14419E-02  4770   0.121E-01    0.506E-02
RMM:   6    -0.413178572280E+03   -0.18211E-03   -0.26217E-03  5753   0.497E-02    0.365E-02
RMM:   7    -0.413178565624E+03    0.66556E-05   -0.43658E-04  5582   0.204E-02    0.238E-02
RMM:   8    -0.413178556341E+03    0.92829E-05   -0.63712E-05  5137   0.937E-03    0.110E-02
RMM:   9    -0.413178550713E+03    0.56284E-05   -0.12629E-05  3818   0.415E-03    0.722E-03
RMM:  10    -0.413178546372E+03    0.43410E-05   -0.22533E-06  2587   0.243E-03    0.425E-03
RMM:  11    -0.413178543279E+03    0.30926E-05   -0.10979E-06  2504   0.170E-03    0.242E-03
RMM:  12    -0.413178537218E+03    0.60616E-05   -0.16672E-06  2560   0.196E-03    0.114E-03
RMM:  13    -0.413178533005E+03    0.42125E-05   -0.65250E-07  2392   0.135E-03    0.919E-04
RMM:  14    -0.413178532837E+03    0.16858E-06   -0.26149E-07  1955   0.889E-04
   26 T=    63. E= -.41286680E+03 F= -.41317853E+03 E0= -.41315678E+03  EK= 0.31173E+00 SP= 0.00E+00 SK= 0.00E+00
       N       E                     dE             d eps       ncg     rms          rms(c)
RMM:   1    -0.413187085088E+03   -0.85521E-02   -0.72291E+00  4297   0.640E-01    0.909E-01
RMM:   2    -0.413186665464E+03    0.41962E-03   -0.92836E-02  4284   0.872E-02    0.667E-01
RMM:   3    -0.413182157358E+03    0.45081E-02   -0.37524E-02  4936   0.681E-02    0.212E-01
RMM:   4    -0.413208196402E+03   -0.26039E-01   -0.31420E-02  5118   0.150E-01    0.692E-01
RMM:   5    -0.413180236995E+03    0.27959E-01   -0.13293E-02  4775   0.116E-01    0.481E-02
RMM:   6    -0.413180395143E+03   -0.15815E-03   -0.24072E-03  5802   0.469E-02    0.333E-02
RMM:   7    -0.413180393560E+03    0.15830E-05   -0.36796E-04  5616   0.191E-02    0.217E-02
RMM:   8    -0.413180385455E+03    0.81048E-05   -0.63183E-05  5001   0.905E-03    0.108E-02
RMM:   9    -0.413180381140E+03    0.43149E-05   -0.12214E-05  3831   0.415E-03    0.739E-03
RMM:  10    -0.413180379041E+03    0.20994E-05   -0.20878E-06  2570   0.239E-03    0.431E-03
RMM:  11    -0.413180377019E+03    0.20214E-05   -0.12700E-06  2510   0.181E-03    0.232E-03
RMM:  12    -0.413180373404E+03    0.36153E-05   -0.15948E-06  2535   0.192E-03    0.114E-03
RMM:  13    -0.413180371080E+03    0.23236E-05   -0.52148E-07  2346   0.127E-03    0.758E-04
RMM:  14    -0.413180370684E+03    0.39667E-06   -0.23077E-07  1843   0.838E-04
   27 T=    64. E= -.41286701E+03 F= -.41318037E+03 E0= -.41315867E+03  EK= 0.31336E+00 SP= 0.00E+00 SK= 0.00E+00
       N       E                     dE             d eps       ncg     rms          rms(c)
RMM:   1    -0.413188452319E+03   -0.80812E-02   -0.73258E+00  4291   0.645E-01    0.920E-01
RMM:   2    -0.413187886628E+03    0.56569E-03   -0.93992E-02  4285   0.882E-02    0.676E-01
RMM:   3    -0.413183203855E+03    0.46828E-02   -0.38926E-02  4940   0.673E-02    0.217E-01
RMM:   4    -0.413208524540E+03   -0.25321E-01   -0.30348E-02  5120   0.147E-01    0.683E-01
RMM:   5    -0.413181312017E+03    0.27213E-01   -0.12953E-02  4771   0.115E-01    0.478E-02
RMM:   6    -0.413181478995E+03   -0.16698E-03   -0.23610E-03  5812   0.464E-02    0.333E-02
RMM:   7    -0.413181482252E+03   -0.32572E-05   -0.36656E-04  5581   0.192E-02    0.217E-02
RMM:   8    -0.413181476231E+03    0.60204E-05   -0.61163E-05  4967   0.916E-03    0.107E-02
RMM:   9    -0.413181472915E+03    0.33161E-05   -0.12129E-05  3784   0.418E-03    0.732E-03
RMM:  10    -0.413181471598E+03    0.13169E-05   -0.22209E-06  2593   0.248E-03    0.425E-03
RMM:  11    -0.413181470115E+03    0.14831E-05   -0.13478E-06  2520   0.187E-03    0.221E-03
RMM:  12    -0.413181467458E+03    0.26570E-05   -0.15362E-06  2523   0.193E-03    0.110E-03
RMM:  13    -0.413181465721E+03    0.17374E-05   -0.50555E-07  2328   0.125E-03    0.714E-04
RMM:  14    -0.413181465191E+03    0.52968E-06   -0.22775E-07  1822   0.835E-04
   28 T=    64. E= -.41286661E+03 F= -.41318147E+03 E0= -.41315982E+03  EK= 0.31485E+00 SP= 0.00E+00 SK= 0.00E+00
       N       E                     dE             d eps       ncg     rms          rms(c)
RMM:   1    -0.413191208183E+03   -0.97425E-02   -0.73112E+00  4293   0.661E-01    0.935E-01
RMM:   2    -0.413189935744E+03    0.12724E-02   -0.94723E-02  4286   0.930E-02    0.675E-01
RMM:   3    -0.413184837916E+03    0.50978E-02   -0.35857E-02  4898   0.654E-02    0.177E-01
RMM:   4    -0.413209893466E+03   -0.25056E-01   -0.28511E-02  5122   0.143E-01    0.673E-01
RMM:   5    -0.413183402440E+03    0.26491E-01   -0.12648E-02  4779   0.112E-01    0.480E-02
RMM:   6    -0.413183558625E+03   -0.15619E-03   -0.23119E-03  5832   0.458E-02    0.342E-02
RMM:   7    -0.413183550018E+03    0.86074E-05   -0.34949E-04  5563   0.194E-02    0.216E-02
RMM:   8    -0.413183538218E+03    0.11800E-04   -0.62566E-05  4977   0.915E-03    0.111E-02
RMM:   9    -0.413183531818E+03    0.64001E-05   -0.12408E-05  3809   0.415E-03    0.763E-03
RMM:  10    -0.413183526668E+03    0.51495E-05   -0.22704E-06  2593   0.249E-03    0.436E-03
RMM:  11    -0.413183522002E+03    0.46668E-05   -0.14612E-06  2535   0.192E-03    0.228E-03
RMM:  12    -0.413183514927E+03    0.70751E-05   -0.16174E-06  2544   0.196E-03    0.116E-03
RMM:  13    -0.413183511840E+03    0.30869E-05   -0.54734E-07  2356   0.129E-03    0.755E-04
RMM:  14    -0.413183510845E+03    0.99458E-06   -0.24515E-07  1901   0.859E-04
   29 T=    64. E= -.41286680E+03 F= -.41318351E+03 E0= -.41316191E+03  EK= 0.31671E+00 SP= 0.00E+00 SK= 0.00E+00
       N       E                     dE             d eps       ncg     rms          rms(c)
RMM:   1    -0.413192231145E+03   -0.87193E-02   -0.72967E+00  4295   0.658E-01    0.918E-01
RMM:   2    -0.413192059369E+03    0.17178E-03   -0.94419E-02  4285   0.953E-02    0.671E-01
RMM:   3    -0.413186765804E+03    0.52936E-02   -0.37109E-02  4842   0.690E-02    0.188E-01
RMM:   4    -0.413209999079E+03   -0.23233E-01   -0.26479E-02  5122   0.138E-01    0.652E-01
RMM:   5    -0.413185231905E+03    0.24767E-01   -0.11942E-02  4784   0.108E-01    0.467E-02
RMM:   6    -0.413185383605E+03   -0.15170E-03   -0.21548E-03  5842   0.438E-02    0.327E-02
RMM:   7    -0.413185390078E+03   -0.64730E-05   -0.31600E-04  5592   0.181E-02    0.203E-02
RMM:   8    -0.413185383780E+03    0.62981E-05   -0.58028E-05  4955   0.856E-03    0.108E-02
RMM:   9    -0.413185378596E+03    0.51839E-05   -0.11182E-05  3721   0.401E-03    0.735E-03
RMM:  10    -0.413185375494E+03    0.31021E-05   -0.21002E-06  2571   0.241E-03    0.419E-03
RMM:  11    -0.413185372137E+03    0.33568E-05   -0.14977E-06  2534   0.194E-03    0.211E-03
RMM:  12    -0.413185367478E+03    0.46585E-05   -0.14313E-06  2517   0.186E-03    0.114E-03
RMM:  13    -0.413185365423E+03    0.20552E-05   -0.48127E-07  2325   0.122E-03    0.702E-04
RMM:  14    -0.413185364436E+03    0.98730E-06   -0.22021E-07  1809   0.825E-04
   30 T=    65. E= -.41286679E+03 F= -.41318536E+03 E0= -.41316382E+03  EK= 0.31858E+00 SP= 0.00E+00 SK= 0.00E+00
       N       E                     dE             d eps       ncg     rms          rms(c)
RMM:   1    -0.413194018436E+03   -0.86530E-02   -0.74205E+00  4296   0.670E-01    0.924E-01
RMM:   2    -0.413194106155E+03   -0.87719E-04   -0.96074E-02  4278   0.992E-02    0.681E-01
RMM:   3    -0.413188385218E+03    0.57209E-02   -0.39951E-02  4762   0.733E-02    0.204E-01
RMM:   4    -0.413208909956E+03   -0.20525E-01   -0.23488E-02  5133   0.131E-01    0.617E-01
RMM:   5    -0.413186841243E+03    0.22069E-01   -0.10751E-02  4791   0.102E-01    0.452E-02
RMM:   6    -0.413186974527E+03   -0.13328E-03   -0.19124E-03  5847   0.409E-02    0.306E-02
RMM:   7    -0.413186980550E+03   -0.60229E-05   -0.25246E-04  5585   0.166E-02    0.178E-02
RMM:   8    -0.413186977116E+03    0.34337E-05   -0.51245E-05  4933   0.786E-03    0.102E-02
RMM:   9    -0.413186973237E+03    0.38788E-05   -0.10252E-05  3678   0.384E-03    0.693E-03
RMM:  10    -0.413186972398E+03    0.83950E-06   -0.18765E-06  2543   0.232E-03
   31 T=    65. E= -.41286659E+03 F= -.41318697E+03 E0= -.41316547E+03  EK= 0.32038E+00 SP= 0.00E+00 SK= 0.00E+00
       N       E                     dE             d eps       ncg     rms          rms(c)
RMM:   1    -0.413197485357E+03   -0.10512E-01   -0.74122E+00  4298   0.687E-01    0.943E-01
RMM:   2    -0.413196442532E+03    0.10428E-02   -0.96738E-02  4306   0.103E-01    0.682E-01
RMM:   3    -0.413193737283E+03    0.27052E-02   -0.38752E-02  4995   0.938E-02    0.285E-01
RMM:   4    -0.413218551602E+03   -0.24814E-01   -0.38889E-02  5073   0.168E-01    0.705E-01
RMM:   5    -0.413189449633E+03    0.29102E-01   -0.12754E-02  4724   0.117E-01    0.525E-02
RMM:   6    -0.413189608561E+03   -0.15893E-03   -0.25168E-03  5741   0.473E-02    0.364E-02
RMM:   7    -0.413189607339E+03    0.12218E-05   -0.42373E-04  5556   0.197E-02    0.237E-02
RMM:   8    -0.413189601146E+03    0.61931E-05   -0.62169E-05  5154   0.936E-03    0.103E-02
RMM:   9    -0.413189595348E+03    0.57977E-05   -0.11301E-05  3638   0.407E-03    0.602E-03
RMM:  10    -0.413189590018E+03    0.53301E-05   -0.23008E-06  2606   0.245E-03    0.362E-03
RMM:  11    -0.413189585935E+03    0.40833E-05   -0.10193E-06  2501   0.166E-03    0.202E-03
RMM:  12    -0.413189577933E+03    0.80018E-05   -0.12664E-06  2514   0.174E-03    0.936E-04
RMM:  13    -0.413189573447E+03    0.44865E-05   -0.57203E-07  2365   0.125E-03    0.672E-04
RMM:  14    -0.413189571641E+03    0.18052E-05   -0.25911E-07  1898   0.871E-04    0.450E-04
RMM:  15    -0.413189568311E+03    0.33303E-05   -0.14457E-07  1467   0.718E-04    0.206E-04
RMM:  16    -0.413189561114E+03    0.71973E-05   -0.15942E-07  1680   0.737E-04    0.386E-04
RMM:  17    -0.413189557439E+03    0.36751E-05   -0.73260E-08  1060   0.591E-04    0.319E-04
RMM:  18    -0.413189552021E+03    0.54172E-05   -0.73624E-08  1088   0.594E-04    0.181E-04
RMM:  19    -0.413189550187E+03    0.18348E-05   -0.45276E-08   974   0.570E-04    0.516E-05
RMM:  20    -0.413189548910E+03    0.12767E-05   -0.28958E-08   892   0.558E-04    0.982E-05
RMM:  21    -0.413189548840E+03    0.69951E-07   -0.11902E-08   684   0.524E-04
   32 T=    66. E= -.41286705E+03 F= -.41318955E+03 E0= -.41316810E+03  EK= 0.32250E+00 SP= 0.00E+00 SK= 0.00E+00
       N       E                     dE             d eps       ncg     rms          rms(c)
RMM:   1    -0.413199958008E+03   -0.10409E-01   -0.74006E+00  4301   0.711E-01    0.931E-01
RMM:   2    -0.413198074051E+03    0.18840E-02   -0.97141E-02  4274   0.105E-01    0.677E-01
RMM:   3    -0.413192421300E+03    0.56528E-02   -0.37096E-02  4675   0.757E-02    0.165E-01
RMM:   4    -0.413209886938E+03   -0.17466E-01   -0.19106E-02  5128   0.118E-01    0.567E-01
RMM:   5    -0.413191325002E+03    0.18562E-01   -0.91710E-03  4805   0.935E-02    0.443E-02
RMM:   6    -0.413191434049E+03   -0.10905E-03   -0.16242E-03  5844   0.375E-02    0.298E-02
RMM:   7    -0.413191441542E+03   -0.74934E-05   -0.18968E-04  5475   0.150E-02    0.153E-02
RMM:   8    -0.413191433407E+03    0.81346E-05   -0.32143E-05  4651   0.607E-03    0.864E-03
RMM:   9    -0.413191432795E+03    0.61224E-06   -0.95409E-06  3679   0.351E-03
   33 T=    66. E= -.41286695E+03 F= -.41319143E+03 E0= -.41317003E+03  EK= 0.32448E+00 SP= 0.00E+00 SK= 0.00E+00
       N       E                     dE             d eps       ncg     rms          rms(c)
RMM:   1    -0.413201165712E+03   -0.97323E-02   -0.75100E+00  4305   0.709E-01    0.929E-01
RMM:   2    -0.413200618683E+03    0.54703E-03   -0.98914E-02  4312   0.109E-01    0.686E-01
RMM:   3    -0.413201387300E+03   -0.76862E-03   -0.44137E-02  5035   0.114E-01    0.383E-01
RMM:   4    -0.413216886346E+03   -0.15499E-01   -0.37843E-02  5041   0.168E-01    0.636E-01
RMM:   5    -0.413193726964E+03    0.23159E-01   -0.97991E-03  4663   0.105E-01    0.511E-02
RMM:   6    -0.413193823981E+03   -0.97017E-04   -0.19105E-03  5688   0.411E-02    0.335E-02
RMM:   7    -0.413193824657E+03   -0.67634E-06   -0.34268E-04  5486   0.179E-02    0.215E-02
RMM:   8    -0.413193822265E+03    0.23915E-05   -0.54565E-05  5056   0.889E-03    0.865E-03
RMM:   9    -0.413193818682E+03    0.35830E-05   -0.86577E-06  3301   0.367E-03    0.463E-03
RMM:  10    -0.413193816492E+03    0.21904E-05   -0.17187E-06  2541   0.218E-03    0.281E-03
RMM:  11    -0.413193814084E+03    0.24081E-05   -0.93154E-07  2484   0.157E-03    0.146E-03
RMM:  12    -0.413193809666E+03    0.44183E-05   -0.90350E-07  2471   0.145E-03    0.665E-04
RMM:  13    -0.413193807074E+03    0.25921E-05   -0.40127E-07  2164   0.105E-03    0.472E-04
RMM:  14    -0.413193805327E+03    0.17466E-05   -0.19676E-07  1628   0.775E-04    0.315E-04
RMM:  15    -0.413193799858E+03    0.54690E-05   -0.19282E-07  1685   0.770E-04    0.324E-04
RMM:  16    -0.413193794783E+03    0.50752E-05   -0.11797E-07  1157   0.638E-04    0.254E-04
RMM:  17    -0.413193790976E+03    0.38071E-05   -0.80094E-08  1054   0.605E-04    0.172E-04
RMM:  18    -0.413193788186E+03    0.27896E-05   -0.58371E-08  1046   0.592E-04    0.503E-05
RMM:  19    -0.413193786262E+03    0.19240E-05   -0.36938E-08   954   0.575E-04    0.626E-05
RMM:  20    -0.413193786005E+03    0.25692E-06   -0.15171E-08   692   0.532E-04
   34 T=    67. E= -.41286697E+03 F= -.41319379E+03 E0= -.41317243E+03  EK= 0.32682E+00 SP= 0.00E+00 SK= 0.00E+00
       N       E                     dE             d eps       ncg     rms          rms(c)
RMM:   1    -0.413204687723E+03   -0.10901E-01   -0.75323E+00  4304   0.733E-01    0.948E-01
RMM:   2    -0.413202868240E+03    0.18195E-02   -0.10095E-01  4264   0.119E-01    0.690E-01
RMM:   3    -0.413197189646E+03    0.56786E-02   -0.37893E-02  4464   0.832E-02    0.148E-01
RMM:   4    -0.413203173970E+03   -0.59843E-02   -0.69783E-03  5131   0.734E-02    0.345E-01
RMM:   5    -0.413196466277E+03    0.67077E-02   -0.33711E-03  4816   0.566E-02    0.406E-02
RMM:   6    -0.413196530569E+03   -0.64292E-04   -0.81622E-04  5707   0.271E-02    0.311E-02
RMM:   7    -0.413196519153E+03    0.11416E-04   -0.24225E-04  5230   0.165E-02    0.190E-02
RMM:   8    -0.413196507200E+03    0.11953E-04   -0.24633E-05  4501   0.615E-03    0.744E-03
RMM:   9    -0.413196505413E+03    0.17873E-05   -0.37278E-06  2748   0.252E-03    0.455E-03
RMM:  10    -0.413196502337E+03    0.30759E-05   -0.14284E-06  2508   0.196E-03    0.227E-03
RMM:  11    -0.413196499144E+03    0.31925E-05   -0.84742E-07  2451   0.151E-03    0.112E-03
RMM:  12    -0.413196495917E+03    0.32274E-05   -0.46756E-07  2254   0.114E-03    0.578E-04
RMM:  13    -0.413196493671E+03    0.22458E-05   -0.23238E-07  1786   0.826E-04    0.292E-04
RMM:  14    -0.413196490485E+03    0.31863E-05   -0.12805E-07  1252   0.686E-04    0.200E-04
RMM:  15    -0.413196486022E+03    0.44626E-05   -0.92997E-08  1123   0.651E-04    0.113E-04
RMM:  16    -0.413196482692E+03    0.33299E-05   -0.63084E-08  1029   0.617E-04    0.882E-05
RMM:  17    -0.413196478345E+03    0.43474E-05   -0.62881E-08  1185   0.623E-04    0.694E-05
RMM:  18    -0.413196475773E+03    0.25716E-05   -0.34468E-08   912   0.563E-04    0.368E-05
RMM:  19    -0.413196474744E+03    0.10287E-05   -0.18789E-08   747   0.535E-04    0.205E-05
RMM:  20    -0.413196474120E+03    0.62415E-06   -0.10795E-08   662   0.527E-04
   35 T=    67. E= -.41286706E+03 F= -.41319647E+03 E0= -.41317517E+03  EK= 0.32941E+00 SP= 0.00E+00 SK= 0.00E+00
       N       E                     dE             d eps       ncg     rms          rms(c)
RMM:   1    -0.413208860673E+03   -0.12386E-01   -0.75453E+00  4307   0.779E-01    0.946E-01
RMM:   2    -0.413204838586E+03    0.40221E-02   -0.10259E-01  4258   0.125E-01    0.686E-01
RMM:   3    -0.413199088665E+03    0.57499E-02   -0.36998E-02  4352   0.853E-02    0.131E-01
RMM:   4    -0.413199801547E+03   -0.71288E-03   -0.16865E-03  5077   0.376E-02    0.154E-01
RMM:   5    -0.413198553642E+03    0.12479E-02   -0.68089E-04  4776   0.258E-02    0.403E-02
RMM:   6    -0.413198607309E+03   -0.53668E-04   -0.50538E-04  5371   0.220E-02    0.338E-02
RMM:   7    -0.413198569087E+03    0.38223E-04   -0.19071E-04  4887   0.156E-02    0.189E-02
RMM:   8    -0.413198561986E+03    0.71011E-05   -0.34839E-05  4758   0.592E-03    0.588E-03
RMM:   9    -0.413198560583E+03    0.14030E-05   -0.42146E-06  2595   0.236E-03    0.261E-03
RMM:  10    -0.413198556207E+03    0.43763E-05   -0.94977E-07  2446   0.164E-03    0.117E-03
RMM:  11    -0.413198552142E+03    0.40649E-05   -0.40456E-07  2167   0.105E-03    0.630E-04
RMM:  12    -0.413198548446E+03    0.36960E-05   -0.19919E-07  1538   0.776E-04    0.330E-04
RMM:  13    -0.413198544274E+03    0.41719E-05   -0.13374E-07  1221   0.694E-04    0.182E-04
RMM:  14    -0.413198540209E+03    0.40651E-05   -0.77935E-08  1031   0.636E-04    0.113E-04
RMM:  15    -0.413198533956E+03    0.62522E-05   -0.78107E-08  1117   0.636E-04    0.972E-05
RMM:  16    -0.413198528407E+03    0.55491E-05   -0.63877E-08  1120   0.616E-04    0.795E-05
RMM:  17    -0.413198526696E+03    0.17117E-05   -0.24317E-08   770   0.542E-04    0.581E-05
RMM:  18    -0.413198525204E+03    0.14918E-05   -0.20508E-08   776   0.540E-04    0.277E-05
RMM:  19    -0.413198524666E+03    0.53820E-06   -0.90313E-09   623   0.517E-04
   36 T=    68. E= -.41286662E+03 F= -.41319852E+03 E0= -.41317726E+03  EK= 0.33190E+00 SP= 0.00E+00 SK= 0.00E+00
       N       E                     dE             d eps       ncg     rms          rms(c)
RMM:   1    -0.413211463437E+03   -0.12938E-01   -0.76422E+00  4311   0.782E-01    0.938E-01
RMM:   2    -0.413208356469E+03    0.31070E-02   -0.10320E-01  4255   0.123E-01    0.692E-01
RMM:   3    -0.413202315684E+03    0.60408E-02   -0.40361E-02  4376   0.875E-02    0.165E-01
RMM:   4    -0.413203465889E+03   -0.11502E-02   -0.27590E-03  5114   0.462E-02    0.188E-01
RMM:   5    -0.413201567166E+03    0.18987E-02   -0.97067E-04  4786   0.315E-02    0.398E-02
RMM:   6    -0.413201612028E+03   -0.44863E-04   -0.51618E-04  5431   0.225E-02    0.327E-02
RMM:   7    -0.413201597500E+03    0.14528E-04   -0.20556E-04  4971   0.158E-02    0.196E-02
RMM:   8    -0.413201589756E+03    0.77444E-05   -0.31050E-05  4812   0.601E-03    0.705E-03
RMM:   9    -0.413201589616E+03    0.14032E-06   -0.50794E-06  2618   0.242E-03
   37 T=    68. E= -.41286686E+03 F= -.41320159E+03 E0= -.41318037E+03  EK= 0.33473E+00 SP= 0.00E+00 SK= 0.00E+00
       N       E                     dE             d eps       ncg     rms          rms(c)
RMM:   1    -0.413213244578E+03   -0.11655E-01   -0.76911E+00  4311   0.798E-01    0.955E-01
RMM:   2    -0.413211287471E+03    0.19571E-02   -0.10483E-01  4261   0.119E-01    0.699E-01
RMM:   3    -0.413204982217E+03    0.63053E-02   -0.39441E-02  4555   0.819E-02    0.158E-01
RMM:   4    -0.413213375437E+03   -0.83932E-02   -0.97715E-03  5155   0.859E-02    0.405E-01
RMM:   5    -0.413204171236E+03    0.92042E-02   -0.46057E-03  4818   0.671E-02    0.430E-02
RMM:   6    -0.413204190850E+03   -0.19614E-04   -0.98834E-04  5655   0.315E-02    0.334E-02
RMM:   7    -0.413204191337E+03   -0.48769E-06   -0.29108E-04  5282   0.176E-02    0.201E-02
RMM:   8    -0.413204179600E+03    0.11737E-04   -0.40443E-05  5159   0.737E-03    0.901E-03
RMM:   9    -0.413204177512E+03    0.20879E-05   -0.63813E-06  2933   0.291E-03    0.446E-03
RMM:  10    -0.413204173900E+03    0.36124E-05   -0.16473E-06  2539   0.206E-03    0.229E-03
RMM:  11    -0.413204169339E+03    0.45609E-05   -0.89563E-07  2478   0.153E-03    0.113E-03
RMM:  12    -0.413204165163E+03    0.41761E-05   -0.50352E-07  2278   0.114E-03    0.600E-04
RMM:  13    -0.413204161492E+03    0.36705E-05   -0.26333E-07  1822   0.854E-04    0.328E-04
RMM:  14    -0.413204157512E+03    0.39800E-05   -0.15172E-07  1323   0.712E-04    0.220E-04
RMM:  15    -0.413204150360E+03    0.71520E-05   -0.13847E-07  1289   0.699E-04    0.157E-04
RMM:  16    -0.413204145349E+03    0.50110E-05   -0.92560E-08  1206   0.648E-04    0.128E-04
RMM:  17    -0.413204141470E+03    0.38797E-05   -0.61787E-08  1136   0.607E-04    0.757E-05
RMM:  18    -0.413204137400E+03    0.40694E-05   -0.52369E-08  1143   0.587E-04    0.372E-05
RMM:  19    -0.413204136770E+03    0.62985E-06   -0.20329E-08   730   0.512E-04
   38 T=    69. E= -.41286670E+03 F= -.41320414E+03 E0= -.41318296E+03  EK= 0.33743E+00 SP= 0.00E+00 SK= 0.00E+00
       N       E                     dE             d eps       ncg     rms          rms(c)
RMM:   1    -0.413220605727E+03   -0.16468E-01   -0.77290E+00  4309   0.876E-01    0.963E-01
RMM:   2    -0.413213889117E+03    0.67166E-02   -0.10907E-01  4252   0.120E-01    0.696E-01
RMM:   3    -0.413207803632E+03    0.60855E-02   -0.36902E-02  4735   0.771E-02    0.152E-01
RMM:   4    -0.413231444487E+03   -0.23641E-01   -0.25757E-02  5129   0.135E-01    0.654E-01
RMM:   5    -0.413206756043E+03    0.24688E-01   -0.12109E-02  4796   0.108E-01    0.486E-02
RMM:   6    -0.413206813749E+03   -0.57706E-04   -0.21409E-03  5805   0.441E-02    0.336E-02
RMM:   7    -0.413206831351E+03   -0.17602E-04   -0.33934E-04  5557   0.182E-02    0.210E-02
RMM:   8    -0.413206817956E+03    0.13395E-04   -0.59542E-05  5080   0.837E-03    0.111E-02
RMM:   9    -0.413206816078E+03    0.18772E-05   -0.13016E-05  3983   0.435E-03    0.701E-03
RMM:  10    -0.413206811616E+03    0.44629E-05   -0.24114E-06  2630   0.252E-03    0.376E-03
RMM:  11    -0.413206808455E+03    0.31603E-05   -0.10480E-06  2490   0.171E-03    0.219E-03
RMM:  12    -0.413206801767E+03    0.66879E-05   -0.14256E-06  2514   0.188E-03    0.126E-03
RMM:  13    -0.413206798036E+03    0.37313E-05   -0.51118E-07  2346   0.126E-03    0.747E-04
RMM:  14    -0.413206797057E+03    0.97908E-06   -0.22673E-07  1906   0.845E-04
   39 T=    69. E= -.41286660E+03 F= -.41320680E+03 E0= -.41318566E+03  EK= 0.34019E+00 SP= 0.00E+00 SK= 0.00E+00
       N       E                     dE             d eps       ncg     rms          rms(c)
RMM:   1    -0.413219598851E+03   -0.12801E-01   -0.77451E+00  4313   0.871E-01    0.948E-01
RMM:   2    -0.413217442220E+03    0.21566E-02   -0.10794E-01  4261   0.119E-01    0.698E-01
RMM:   3    -0.413211462944E+03    0.59793E-02   -0.39915E-02  4795   0.826E-02    0.190E-01
RMM:   4    -0.413238134896E+03   -0.26672E-01   -0.30254E-02  5124   0.147E-01    0.697E-01
RMM:   5    -0.413209926003E+03    0.28209E-01   -0.13621E-02  4789   0.116E-01    0.496E-02
RMM:   6    -0.413209993254E+03   -0.67251E-04   -0.24033E-03  5798   0.463E-02    0.329E-02
RMM:   7    -0.413210014200E+03   -0.20946E-04   -0.35766E-04  5611   0.182E-02    0.206E-02
RMM:   8    -0.413210002046E+03    0.12155E-04   -0.66208E-05  5119   0.862E-03    0.112E-02
RMM:   9    -0.413210000660E+03    0.13853E-05   -0.14400E-05  4107   0.456E-03    0.677E-03
RMM:  10    -0.413209997657E+03    0.30032E-05   -0.26138E-06  2654   0.255E-03    0.376E-03
RMM:  11    -0.413209995490E+03    0.21675E-05   -0.10851E-06  2492   0.172E-03    0.221E-03
RMM:  12    -0.413209990216E+03    0.52732E-05   -0.15223E-06  2530   0.189E-03    0.125E-03
RMM:  13    -0.413209986642E+03    0.35747E-05   -0.56269E-07  2367   0.129E-03    0.795E-04
RMM:  14    -0.413209985721E+03    0.92070E-06   -0.23656E-07  1900   0.859E-04
   40 T=    70. E= -.41286686E+03 F= -.41320999E+03 E0= -.41318888E+03  EK= 0.34312E+00 SP= 0.00E+00 SK= 0.00E+00
       N       E                     dE             d eps       ncg     rms          rms(c)
RMM:   1    -0.413222905589E+03   -0.12919E-01   -0.78547E+00  4314   0.903E-01    0.961E-01
RMM:   2    -0.413219893307E+03    0.30123E-02   -0.11096E-01  4263   0.122E-01    0.708E-01
RMM:   3    -0.413214070462E+03    0.58228E-02   -0.40751E-02  4856   0.839E-02    0.203E-01
RMM:   4    -0.413244925643E+03   -0.30855E-01   -0.36040E-02  5126   0.160E-01    0.749E-01
RMM:   5    -0.413212193843E+03    0.32732E-01   -0.15703E-02  4794   0.125E-01    0.517E-02
RMM:   6    -0.413212275458E+03   -0.81615E-04   -0.26918E-03  5806   0.489E-02    0.329E-02
RMM:   7    -0.413212299147E+03   -0.23689E-04   -0.36020E-04  5674   0.180E-02    0.197E-02
RMM:   8    -0.413212292650E+03    0.64967E-05   -0.65681E-05  5081   0.843E-03    0.110E-02
RMM:   9    -0.413212292001E+03    0.64920E-06   -0.18573E-05  4421   0.489E-03    0.693E-03
RMM:  10    -0.413212288555E+03    0.34459E-05   -0.27238E-06  2644   0.266E-03    0.390E-03
RMM:  11    -0.413212286501E+03    0.20546E-05   -0.11941E-06  2502   0.179E-03    0.235E-03
RMM:  12    -0.413212281024E+03    0.54766E-05   -0.16025E-06  2525   0.198E-03    0.130E-03
RMM:  13    -0.413212277330E+03    0.36940E-05   -0.62977E-07  2384   0.135E-03    0.867E-04
RMM:  14    -0.413212276328E+03    0.10019E-05   -0.25378E-07  1954   0.889E-04    0.489E-04
RMM:  15    -0.413212273570E+03    0.27578E-05   -0.13482E-07  1389   0.714E-04    0.267E-04
RMM:  16    -0.413212268354E+03    0.52166E-05   -0.14823E-07  1735   0.743E-04    0.461E-04
RMM:  17    -0.413212266407E+03    0.19467E-05   -0.58837E-08   998   0.579E-04    0.381E-04
RMM:  18    -0.413212260510E+03    0.58971E-05   -0.79590E-08  1288   0.627E-04    0.285E-04
RMM:  19    -0.413212258999E+03    0.15112E-05   -0.31665E-08   851   0.531E-04    0.110E-04
RMM:  20    -0.413212257131E+03    0.18676E-05   -0.31127E-08   951   0.560E-04    0.100E-04
RMM:  21    -0.413212256860E+03    0.27073E-06   -0.14851E-08   735   0.526E-04
   41 T=    70. E= -.41286664E+03 F= -.41321226E+03 E0= -.41319119E+03  EK= 0.34562E+00 SP= 0.00E+00 SK= 0.00E+00
       N       E                     dE             d eps       ncg     rms          rms(c)
RMM:   1    -0.413231137646E+03   -0.18881E-01   -0.78846E+00  4314   0.100E+00    0.978E-01
RMM:   2    -0.413222227633E+03    0.89100E-02   -0.11397E-01  4311   0.127E-01    0.706E-01
RMM:   3    -0.413217453575E+03    0.47741E-02   -0.38145E-02  4980   0.844E-02    0.219E-01
RMM:   4    -0.413252886921E+03   -0.35433E-01   -0.44832E-02  5113   0.179E-01    0.803E-01
RMM:   5    -0.413214837184E+03    0.38050E-01   -0.17518E-02  4771   0.133E-01    0.552E-02
RMM:   6    -0.413214947266E+03   -0.11008E-03   -0.31304E-03  5789   0.523E-02    0.348E-02
RMM:   7    -0.413214962437E+03   -0.15171E-04   -0.36686E-04  5686   0.184E-02    0.196E-02
RMM:   8    -0.413214962930E+03   -0.49332E-06   -0.62235E-05  5045   0.801E-03    0.111E-02
RMM:   9    -0.413214956757E+03    0.61731E-05   -0.19650E-05  4447   0.481E-03    0.707E-03
RMM:  10    -0.413214953173E+03    0.35842E-05   -0.37451E-06  2779   0.289E-03    0.403E-03
RMM:  11    -0.413214950218E+03    0.29551E-05   -0.13623E-06  2495   0.196E-03    0.245E-03
RMM:  12    -0.413214943059E+03    0.71583E-05   -0.13533E-06  2491   0.192E-03    0.110E-03
RMM:  13    -0.413214938186E+03    0.48736E-05   -0.58579E-07  2397   0.133E-03    0.728E-04
RMM:  14    -0.413214937215E+03    0.97073E-06   -0.25853E-07  2007   0.902E-04
   42 T=    71. E= -.41286690E+03 F= -.41321494E+03 E0= -.41319390E+03  EK= 0.34804E+00 SP= 0.00E+00 SK= 0.00E+00
       N       E                     dE             d eps       ncg     rms          rms(c)
RMM:   1    -0.413233037395E+03   -0.18099E-01   -0.78802E+00  4315   0.105E+00    0.956E-01
RMM:   2    -0.413224733668E+03    0.83037E-02   -0.12265E-01  4354   0.131E-01    0.705E-01
RMM:   3    -0.413219808902E+03    0.49248E-02   -0.37392E-02  4990   0.860E-02    0.226E-01
RMM:   4    -0.413258244830E+03   -0.38436E-01   -0.48729E-02  5113   0.186E-01    0.835E-01
RMM:   5    -0.413217006355E+03    0.41238E-01   -0.18940E-02  4772   0.139E-01    0.562E-02
RMM:   6    -0.413217126077E+03   -0.11972E-03   -0.33548E-03  5790   0.540E-02    0.344E-02
RMM:   7    -0.413217142472E+03   -0.16396E-04   -0.39128E-04  5728   0.187E-02    0.198E-02
RMM:   8    -0.413217145760E+03   -0.32875E-05   -0.75229E-05  5144   0.869E-03    0.119E-02
RMM:   9    -0.413217137953E+03    0.78064E-05   -0.21633E-05  4525   0.515E-03    0.695E-03
RMM:  10    -0.413217134600E+03    0.33532E-05   -0.37087E-06  2729   0.290E-03    0.404E-03
RMM:  11    -0.413217131794E+03    0.28065E-05   -0.14001E-06  2504   0.196E-03    0.243E-03
RMM:  12    -0.413217124972E+03    0.68218E-05   -0.13925E-06  2507   0.191E-03    0.112E-03
RMM:  13    -0.413217120088E+03    0.48837E-05   -0.62016E-07  2412   0.134E-03    0.716E-04
RMM:  14    -0.413217118826E+03    0.12620E-05   -0.26482E-07  1998   0.899E-04    0.436E-04
RMM:  15    -0.413217116235E+03    0.25913E-05   -0.13054E-07  1349   0.701E-04    0.250E-04
RMM:  16    -0.413217109697E+03    0.65376E-05   -0.13364E-07  1612   0.732E-04    0.341E-04
RMM:  17    -0.413217107451E+03    0.22463E-05   -0.56885E-08   998   0.590E-04    0.259E-04
RMM:  18    -0.413217101333E+03    0.61175E-05   -0.76770E-08  1362   0.641E-04    0.232E-04
RMM:  19    -0.413217099766E+03    0.15672E-05   -0.32390E-08   882   0.537E-04    0.805E-05
RMM:  20    -0.413217097989E+03    0.17768E-05   -0.30299E-08   949   0.557E-04    0.674E-05
RMM:  21    -0.413217097771E+03    0.21872E-06   -0.13505E-08   716   0.519E-04
   43 T=    71. E= -.41286704E+03 F= -.41321710E+03 E0= -.41319609E+03  EK= 0.35005E+00 SP= 0.00E+00 SK= 0.00E+00
       N       E                     dE             d eps       ncg     rms          rms(c)
RMM:   1    -0.413230763526E+03   -0.13666E-01   -0.79489E+00  4315   0.105E+00    0.963E-01
RMM:   2    -0.413226126823E+03    0.46367E-02   -0.11870E-01  4385   0.135E-01    0.714E-01
RMM:   3    -0.413222464862E+03    0.36620E-02   -0.41804E-02  5011   0.966E-02    0.286E-01
RMM:   4    -0.413255841771E+03   -0.33377E-01   -0.48592E-02  5097   0.188E-01    0.801E-01
RMM:   5    -0.413218105010E+03    0.37737E-01   -0.16676E-02  4747   0.133E-01    0.557E-02
RMM:   6    -0.413218196313E+03   -0.91302E-04   -0.30192E-03  5771   0.513E-02    0.330E-02
RMM:   7    -0.413218215194E+03   -0.18881E-04   -0.36609E-04  5713   0.184E-02    0.201E-02
RMM:   8    -0.413218221967E+03   -0.67739E-05   -0.94823E-05  5173   0.989E-03    0.126E-02
RMM:   9    -0.413218213422E+03    0.85453E-05   -0.19419E-05  4437   0.534E-03    0.599E-03
RMM:  10    -0.413218212249E+03    0.11731E-05   -0.36325E-06  2765   0.276E-03    0.358E-03
RMM:  11    -0.413218210923E+03    0.13264E-05   -0.12650E-06  2498   0.186E-03    0.205E-03
RMM:  12    -0.413218207376E+03    0.35463E-05   -0.12122E-06  2506   0.174E-03    0.994E-04
RMM:  13    -0.413218204322E+03    0.30543E-05   -0.53945E-07  2335   0.122E-03    0.557E-04
RMM:  14    -0.413218203170E+03    0.11525E-05   -0.23723E-07  1800   0.836E-04    0.328E-04
RMM:  15    -0.413218200164E+03    0.30060E-05   -0.14550E-07  1337   0.715E-04    0.154E-04
RMM:  16    -0.413218196689E+03    0.34742E-05   -0.10898E-07  1259   0.677E-04    0.174E-04
RMM:  17    -0.413218194107E+03    0.25826E-05   -0.72889E-08  1111   0.624E-04    0.121E-04
RMM:  18    -0.413218190982E+03    0.31251E-05   -0.61235E-08  1165   0.617E-04    0.944E-05
RMM:  19    -0.413218188423E+03    0.25582E-05   -0.42631E-08  1030   0.582E-04    0.384E-05
RMM:  20    -0.413218187676E+03    0.74754E-06   -0.23951E-08   824   0.537E-04
   44 T=    72. E= -.41286683E+03 F= -.41321819E+03 E0= -.41319720E+03  EK= 0.35135E+00 SP= 0.00E+00 SK= 0.00E+00
       N       E                     dE             d eps       ncg     rms          rms(c)
RMM:   1    -0.413242644896E+03   -0.24456E-01   -0.79900E+00  4313   0.120E+00    0.978E-01
RMM:   2    -0.413227171094E+03    0.15474E-01   -0.13287E-01  4391   0.147E-01    0.715E-01
RMM:   3    -0.413224904079E+03    0.22670E-02   -0.36761E-02  5046   0.101E-01    0.314E-01
RMM:   4    -0.413256284804E+03   -0.31381E-01   -0.51830E-02  5079   0.195E-01    0.790E-01
RMM:   5    -0.413219325319E+03    0.36959E-01   -0.15305E-02  4720   0.130E-01    0.586E-02
RMM:   6    -0.413219392534E+03   -0.67215E-04   -0.28999E-03  5732   0.508E-02    0.342E-02
RMM:   7    -0.413219405337E+03   -0.12803E-04   -0.40936E-04  5692   0.193E-02    0.229E-02
RMM:   8    -0.413219404618E+03    0.71945E-06   -0.11283E-04  5179   0.111E-02    0.130E-02
RMM:   9    -0.413219394606E+03    0.10012E-04   -0.17038E-05  4263   0.543E-03    0.541E-03
RMM:  10    -0.413219390787E+03    0.38192E-05   -0.38702E-06  2801   0.267E-03    0.331E-03
RMM:  11    -0.413219387339E+03    0.34478E-05   -0.11880E-06  2496   0.181E-03    0.179E-03
RMM:  12    -0.413219380922E+03    0.64175E-05   -0.91402E-07  2462   0.158E-03    0.865E-04
RMM:  13    -0.413219376399E+03    0.45225E-05   -0.42860E-07  2213   0.112E-03    0.412E-04
RMM:  14    -0.413219374255E+03    0.21442E-05   -0.21700E-07  1698   0.813E-04    0.245E-04
RMM:  15    -0.413219368147E+03    0.61081E-05   -0.15052E-07  1390   0.735E-04    0.187E-04
RMM:  16    -0.413219365241E+03    0.29060E-05   -0.89677E-08  1139   0.654E-04    0.141E-04
RMM:  17    -0.413219362094E+03    0.31473E-05   -0.71671E-08  1162   0.634E-04    0.942E-05
RMM:  18    -0.413219358281E+03    0.38124E-05   -0.62359E-08  1226   0.623E-04    0.482E-05
RMM:  19    -0.413219355649E+03    0.26326E-05   -0.43223E-08  1080   0.585E-04    0.403E-05
RMM:  20    -0.413219355123E+03    0.52556E-06   -0.21202E-08   786   0.535E-04
   45 T=    72. E= -.41286713E+03 F= -.41321936E+03 E0= -.41319839E+03  EK= 0.35222E+00 SP= 0.00E+00 SK= 0.00E+00
       N       E                     dE             d eps       ncg     rms          rms(c)
RMM:   1    -0.413237318594E+03   -0.17963E-01   -0.78664E+00  4313   0.124E+00    0.964E-01
RMM:   2    -0.413226456933E+03    0.10862E-01   -0.12449E-01  4422   0.153E-01    0.708E-01
RMM:   3    -0.413226551330E+03   -0.94397E-04   -0.40604E-02  5057   0.115E-01    0.371E-01
RMM:   4    -0.413248285806E+03   -0.21734E-01   -0.47098E-02  5068   0.188E-01    0.709E-01
RMM:   5    -0.413218771007E+03    0.29515E-01   -0.11574E-02  4699   0.117E-01    0.561E-02
RMM:   6    -0.413218789934E+03   -0.18927E-04   -0.22273E-03  5694   0.451E-02    0.318E-02
RMM:   7    -0.413218807884E+03   -0.17950E-04   -0.33209E-04  5648   0.179E-02    0.213E-02
RMM:   8    -0.413218807886E+03   -0.24520E-08   -0.10598E-04  5119   0.109E-02    0.117E-02
RMM:   9    -0.413218798503E+03    0.93827E-05   -0.13729E-05  4076   0.509E-03    0.478E-03
RMM:  10    -0.413218795052E+03    0.34511E-05   -0.31829E-06  2738   0.248E-03    0.286E-03
RMM:  11    -0.413218791590E+03    0.34621E-05   -0.11096E-06  2489   0.173E-03    0.149E-03
RMM:  12    -0.413218785725E+03    0.58650E-05   -0.77784E-07  2432   0.144E-03    0.736E-04
RMM:  13    -0.413218781819E+03    0.39058E-05   -0.35509E-07  2037   0.101E-03    0.331E-04
RMM:  14    -0.413218779182E+03    0.26377E-05   -0.18886E-07  1507   0.766E-04    0.184E-04
RMM:  15    -0.413218773112E+03    0.60693E-05   -0.14733E-07  1350   0.729E-04    0.155E-04
RMM:  16    -0.413218770471E+03    0.26418E-05   -0.91059E-08  1176   0.657E-04    0.101E-04
RMM:  17    -0.413218766430E+03    0.40405E-05   -0.79149E-08  1265   0.651E-04    0.611E-05
RMM:  18    -0.413218763052E+03    0.33778E-05   -0.57861E-08  1173   0.608E-04    0.364E-05
RMM:  19    -0.413218761320E+03    0.17323E-05   -0.36186E-08   962   0.559E-04    0.301E-05
RMM:  20    -0.413218761056E+03    0.26442E-06   -0.20955E-08   769   0.526E-04
   46 T=    72. E= -.41286689E+03 F= -.41321876E+03 E0= -.41319781E+03  EK= 0.35187E+00 SP= 0.00E+00 SK= 0.00E+00
       N       E                     dE             d eps       ncg     rms          rms(c)
RMM:   1    -0.413239250437E+03   -0.20489E-01   -0.79368E+00  4313   0.136E+00    0.957E-01
RMM:   2    -0.413225277663E+03    0.13973E-01   -0.12380E-01  4456   0.165E-01    0.713E-01
RMM:   3    -0.413228456864E+03   -0.31792E-02   -0.46139E-02  5066   0.131E-01    0.445E-01
RMM:   4    -0.413241823461E+03   -0.13367E-01   -0.45642E-02  5037   0.188E-01    0.650E-01
RMM:   5    -0.413217278735E+03    0.24545E-01   -0.91974E-03  4641   0.109E-01    0.546E-02
RMM:   6    -0.413217261456E+03    0.17279E-04   -0.18016E-03  5571   0.408E-02    0.291E-02
RMM:   7    -0.413217274835E+03   -0.13379E-04   -0.28181E-04  5625   0.166E-02    0.198E-02
RMM:   8    -0.413217275468E+03   -0.63262E-06   -0.10284E-04  5089   0.107E-02    0.104E-02
RMM:   9    -0.413217268307E+03    0.71604E-05   -0.11867E-05  3932   0.485E-03    0.436E-03
RMM:  10    -0.413217266262E+03    0.20459E-05   -0.26802E-06  2689   0.234E-03    0.258E-03
RMM:  11    -0.413217263755E+03    0.25064E-05   -0.11768E-06  2495   0.171E-03    0.129E-03
RMM:  12    -0.413217260010E+03    0.37455E-05   -0.73891E-07  2395   0.135E-03    0.663E-04
RMM:  13    -0.413217257130E+03    0.28797E-05   -0.34215E-07  1870   0.954E-04    0.293E-04
RMM:  14    -0.413217254446E+03    0.26841E-05   -0.20165E-07  1422   0.763E-04    0.159E-04
RMM:  15    -0.413217250149E+03    0.42971E-05   -0.16863E-07  1386   0.741E-04    0.120E-04
RMM:  16    -0.413217247482E+03    0.26663E-05   -0.11262E-07  1283   0.670E-04    0.870E-05
RMM:  17    -0.413217242824E+03    0.46585E-05   -0.11002E-07  1422   0.674E-04    0.528E-05
RMM:  18    -0.413217240793E+03    0.20313E-05   -0.58130E-08  1049   0.570E-04    0.310E-05
RMM:  19    -0.413217239716E+03    0.10769E-05   -0.36299E-08   889   0.537E-04    0.185E-05
RMM:  20    -0.413217239181E+03    0.53485E-06   -0.21900E-08   752   0.518E-04
   47 T=    71. E= -.41286685E+03 F= -.41321724E+03 E0= -.41319630E+03  EK= 0.35039E+00 SP= 0.00E+00 SK= 0.00E+00
       N       E                     dE             d eps       ncg     rms          rms(c)
RMM:   1    -0.413235066147E+03   -0.17826E-01   -0.77933E+00  4311   0.139E+00    0.970E-01
RMM:   2    -0.413222293594E+03    0.12773E-01   -0.12554E-01  4499   0.172E-01    0.711E-01
RMM:   3    -0.413230753488E+03   -0.84599E-02   -0.46158E-02  5095   0.144E-01    0.530E-01
RMM:   4    -0.413232486951E+03   -0.17335E-02   -0.43705E-02  5006   0.186E-01    0.554E-01
RMM:   5    -0.413214634377E+03    0.17853E-01   -0.59757E-03  4587   0.957E-02    0.546E-02
RMM:   6    -0.413214576710E+03    0.57667E-04   -0.11658E-03  5259   0.346E-02    0.283E-02
RMM:   7    -0.413214596146E+03   -0.19436E-04   -0.19800E-04  5545   0.144E-02    0.172E-02
RMM:   8    -0.413214598492E+03   -0.23466E-05   -0.10042E-04  5167   0.105E-02    0.107E-02
RMM:   9    -0.413214587156E+03    0.11336E-04   -0.12046E-05  3977   0.496E-03    0.415E-03
RMM:  10    -0.413214584123E+03    0.30337E-05   -0.27792E-06  2712   0.236E-03    0.236E-03
RMM:  11    -0.413214579372E+03    0.47504E-05   -0.11915E-06  2480   0.179E-03    0.122E-03
RMM:  12    -0.413214575068E+03    0.43048E-05   -0.56802E-07  2308   0.127E-03    0.678E-04
RMM:  13    -0.413214570980E+03    0.40880E-05   -0.27922E-07  1778   0.911E-04    0.314E-04
RMM:  14    -0.413214566556E+03    0.44234E-05   -0.16431E-07  1396   0.740E-04    0.163E-04
RMM:  15    -0.413214562162E+03    0.43942E-05   -0.11605E-07  1262   0.687E-04    0.116E-04
RMM:  16    -0.413214558734E+03    0.34284E-05   -0.81438E-08  1170   0.640E-04    0.834E-05
RMM:  17    -0.413214552565E+03    0.61685E-05   -0.90530E-08  1416   0.662E-04    0.675E-05
RMM:  18    -0.413214551414E+03    0.11508E-05   -0.34241E-08   843   0.530E-04    0.489E-05
RMM:  19    -0.413214549705E+03    0.17093E-05   -0.27279E-08   831   0.532E-04    0.218E-05
RMM:  20    -0.413214549073E+03    0.63173E-06   -0.15863E-08   697   0.507E-04
   48 T=    71. E= -.41286704E+03 F= -.41321455E+03 E0= -.41319362E+03  EK= 0.34751E+00 SP= 0.00E+00 SK= 0.00E+00
       N       E                     dE             d eps       ncg     rms          rms(c)
RMM:   1    -0.413231293879E+03   -0.16744E-01   -0.76219E+00  4310   0.149E+00    0.957E-01
RMM:   2    -0.413216994267E+03    0.14300E-01   -0.12460E-01  4564   0.184E-01    0.700E-01
RMM:   3    -0.413233374042E+03   -0.16380E-01   -0.50259E-02  5122   0.164E-01    0.644E-01
RMM:   4    -0.413221236404E+03    0.12138E-01   -0.42839E-02  4970   0.188E-01    0.452E-01
RMM:   5    -0.413209441550E+03    0.11795E-01   -0.40775E-03  4575   0.862E-02    0.556E-02
RMM:   6    -0.413209331668E+03    0.10988E-03   -0.59566E-04  4807   0.286E-02    0.283E-02
RMM:   7    -0.413209346985E+03   -0.15317E-04   -0.17261E-04  5777   0.143E-02    0.136E-02
RMM:   8    -0.413209341731E+03    0.52536E-05   -0.56829E-05  5225   0.857E-03    0.948E-03
RMM:   9    -0.413209336969E+03    0.47622E-05   -0.13542E-05  4178   0.448E-03    0.397E-03
RMM:  10    -0.413209333498E+03    0.34712E-05   -0.19284E-06  2579   0.229E-03    0.240E-03
RMM:  11    -0.413209327947E+03    0.55510E-05   -0.12056E-06  2472   0.184E-03    0.149E-03
RMM:  12    -0.413209324359E+03    0.35880E-05   -0.49370E-07  2404   0.124E-03    0.805E-04
RMM:  13    -0.413209319791E+03    0.45681E-05   -0.29620E-07  2011   0.933E-04    0.434E-04
RMM:  14    -0.413209313972E+03    0.58188E-05   -0.19566E-07  1649   0.774E-04    0.377E-04
RMM:  15    -0.413209309480E+03    0.44924E-05   -0.10575E-07  1115   0.625E-04    0.151E-04
RMM:  16    -0.413209306571E+03    0.29091E-05   -0.73786E-08  1086   0.603E-04    0.955E-05
RMM:  17    -0.413209301911E+03    0.46599E-05   -0.72250E-08  1231   0.620E-04    0.117E-04
RMM:  18    -0.413209300573E+03    0.13379E-05   -0.35455E-08   866   0.536E-04    0.859E-05
RMM:  19    -0.413209297566E+03    0.30069E-05   -0.37978E-08   987   0.560E-04    0.394E-05
RMM:  20    -0.413209295928E+03    0.16376E-05   -0.23724E-08   815   0.521E-04    0.255E-05
RMM:  21    -0.413209295710E+03    0.21861E-06   -0.10624E-08   617   0.490E-04
   49 T=    70. E= -.41286667E+03 F= -.41320930E+03 E0= -.41318837E+03  EK= 0.34262E+00 SP= 0.00E+00 SK= 0.00E+00
       N       E                     dE             d eps       ncg     rms          rms(c)
RMM:   1    -0.413233506336E+03   -0.24210E-01   -0.75992E+00  4310   0.167E+00    0.931E-01
RMM:   2    -0.413210845487E+03    0.22661E-01   -0.13022E-01  4664   0.197E-01    0.698E-01
RMM:   3    -0.413236278161E+03   -0.25433E-01   -0.57010E-02  5136   0.187E-01    0.755E-01
RMM:   4    -0.413212329363E+03    0.23949E-01   -0.46477E-02  4943   0.199E-01    0.403E-01
RMM:   5    -0.413203150833E+03    0.91785E-02   -0.42282E-03  4674   0.894E-02    0.608E-02
RMM:   6    -0.413202987985E+03    0.16285E-03   -0.47442E-04  4681   0.286E-02    0.291E-02
RMM:   7    -0.413203027649E+03   -0.39664E-04   -0.28238E-04  5688   0.184E-02    0.225E-02
RMM:   8    -0.413203002124E+03    0.25525E-04   -0.73765E-05  5009   0.100E-02    0.101E-02
RMM:   9    -0.413203000155E+03    0.19687E-05   -0.23585E-05  5269   0.591E-03    0.462E-03
RMM:  10    -0.413202997409E+03    0.27465E-05   -0.29046E-06  2738   0.255E-03    0.271E-03
[...]
RMM:   1    -0.413965378091E+03   -0.77277E-01   -0.23459E+01  4287   0.878E+00    0.103E+00
RMM:   2    -0.413816316908E+03    0.14906E+00   -0.60752E-01  5453   0.947E-01    0.968E-01
RMM:   3    -0.413840661364E+03   -0.24344E-01   -0.98971E-02  5819   0.338E-01    0.102E+00
RMM:   4    -0.413815850400E+03    0.24811E-01   -0.35713E-02  5245   0.205E-01    0.659E-01
RMM:   5    -0.413810614987E+03    0.52354E-02   -0.37344E-02  4371   0.260E-01    0.225E-01
RMM:   6    -0.413809622058E+03    0.99293E-03   -0.86722E-03  5005   0.124E-01    0.124E-01
RMM:   7    -0.413809216626E+03    0.40543E-03   -0.21156E-03  5485   0.580E-02    0.941E-02
RMM:   8    -0.413808969526E+03    0.24710E-03   -0.61182E-04  4549   0.334E-02    0.535E-02
RMM:   9    -0.413808945825E+03    0.23701E-04   -0.62671E-04  4548   0.316E-02    0.203E-02
RMM:  10    -0.413808957708E+03   -0.11883E-04   -0.11073E-04  5803   0.125E-02    0.135E-02
RMM:  11    -0.413808958173E+03   -0.46522E-06   -0.27832E-05  4609   0.711E-03    0.522E-03
RMM:  12    -0.413808961505E+03   -0.33311E-05   -0.57832E-06  3114   0.324E-03    0.317E-03
RMM:  13    -0.413808963969E+03   -0.24645E-05   -0.15313E-06  2569   0.203E-03    0.228E-03
RMM:  14    -0.413808965587E+03   -0.16180E-05   -0.11729E-06  2509   0.169E-03    0.898E-04
RMM:  15    -0.413808966718E+03   -0.11309E-05   -0.63230E-07  2181   0.121E-03    0.478E-04
RMM:  16    -0.413808967634E+03   -0.91642E-06   -0.43498E-07  2044   0.102E-03
  138 T=   191. E= -.41287085E+03 F= -.41380897E+03 E0= -.41378776E+03  EK= 0.93812E+00 SP= 0.00E+00 SK= 0.00E+00
       N       E                     dE             d eps       ncg     rms          rms(c)
RMM:   1    -0.413849896866E+03   -0.40930E-01   -0.21615E+01  4284   0.852E+00    0.112E+00
RMM:   2    -0.413723335814E+03    0.12656E+00   -0.53126E-01  5423   0.910E-01    0.104E+00
RMM:   3    -0.413730175755E+03   -0.68399E-02   -0.75005E-02  5708   0.303E-01    0.811E-01
RMM:   4    -0.413762901984E+03   -0.32726E-01   -0.67526E-02  5281   0.250E-01    0.100E+00
RMM:   5    -0.413720772091E+03    0.42130E-01   -0.51623E-02  4512   0.298E-01    0.216E-01
RMM:   6    -0.413719277670E+03    0.14944E-02   -0.76180E-03  5229   0.114E-01    0.104E-01
RMM:   7    -0.413719093062E+03    0.18461E-03   -0.16392E-03  5589   0.467E-02    0.711E-02
RMM:   8    -0.413719039533E+03    0.53530E-04   -0.76644E-04  4878   0.337E-02    0.344E-02
RMM:   9    -0.413719038190E+03    0.13425E-05   -0.35078E-04  5468   0.225E-02    0.216E-02
RMM:  10    -0.413719042431E+03   -0.42404E-05   -0.87819E-05  5720   0.107E-02    0.145E-02
RMM:  11    -0.413719039441E+03    0.29896E-05   -0.27862E-05  4682   0.669E-03    0.696E-03
RMM:  12    -0.413719042772E+03   -0.33306E-05   -0.68969E-06  3333   0.367E-03    0.369E-03
RMM:  13    -0.413719045721E+03   -0.29496E-05   -0.14478E-06  2554   0.216E-03    0.189E-03
RMM:  14    -0.413719048437E+03   -0.27158E-05   -0.95820E-07  2492   0.161E-03    0.840E-04
RMM:  15    -0.413719050860E+03   -0.24228E-05   -0.69454E-07  2378   0.128E-03    0.411E-04
RMM:  16    -0.413719052290E+03   -0.14306E-05   -0.38431E-07  1960   0.958E-04    0.242E-04
RMM:  17    -0.413719053681E+03   -0.13904E-05   -0.26969E-07  1568   0.821E-04    0.118E-04
RMM:  18    -0.413719054706E+03   -0.10250E-05   -0.19020E-07  1430   0.732E-04    0.683E-05
RMM:  19    -0.413719055643E+03   -0.93715E-06   -0.15507E-07  1412   0.692E-04
  139 T=   172. E= -.41287430E+03 F= -.41371906E+03 E0= -.41369819E+03  EK= 0.84476E+00 SP= 0.00E+00 SK= 0.00E+00
       N       E                     dE             d eps       ncg     rms          rms(c)
RMM:   1    -0.413680687713E+03    0.38367E-01   -0.18712E+01  4282   0.805E+00    0.121E+00
RMM:   2    -0.413587186156E+03    0.93502E-01   -0.43821E-01  5397   0.844E-01    0.111E+00
RMM:   3    -0.413623132434E+03   -0.35946E-01   -0.99941E-02  5750   0.330E-01    0.115E+00
RMM:   4    -0.413588175549E+03    0.34957E-01   -0.52315E-02  5099   0.251E-01    0.626E-01
RMM:   5    -0.413583279369E+03    0.48962E-02   -0.31226E-02  4372   0.248E-01    0.193E-01
RMM:   6    -0.413581873157E+03    0.14062E-02   -0.36242E-03  4692   0.893E-02    0.911E-02
RMM:   7    -0.413581725660E+03    0.14750E-03   -0.12636E-03  5414   0.439E-02    0.660E-02
RMM:   8    -0.413581624557E+03    0.10110E-03   -0.56258E-04  4742   0.296E-02    0.350E-02
RMM:   9    -0.413581622129E+03    0.24283E-05   -0.24224E-04  4991   0.203E-02    0.172E-02
RMM:  10    -0.413581625331E+03   -0.32020E-05   -0.61590E-05  5600   0.924E-03    0.999E-03
RMM:  11    -0.413581627557E+03   -0.22256E-05   -0.15498E-05  4249   0.501E-03    0.520E-03
RMM:  12    -0.413581630646E+03   -0.30894E-05   -0.41256E-06  2939   0.293E-03    0.294E-03
RMM:  13    -0.413581633704E+03   -0.30582E-05   -0.13733E-06  2559   0.199E-03    0.166E-03
RMM:  14    -0.413581635996E+03   -0.22915E-05   -0.76615E-07  2458   0.142E-03    0.833E-04
RMM:  15    -0.413581637782E+03   -0.17865E-05   -0.53757E-07  2222   0.112E-03    0.309E-04
RMM:  16    -0.413581638818E+03   -0.10353E-05   -0.32208E-07  1720   0.878E-04    0.201E-04
RMM:  17    -0.413581640449E+03   -0.16315E-05   -0.31829E-07  1743   0.864E-04    0.109E-04
RMM:  18    -0.413581641063E+03   -0.61433E-06   -0.17750E-07  1343   0.708E-04
  140 T=   145. E= -.41287180E+03 F= -.41358164E+03 E0= -.41356097E+03  EK= 0.70984E+00 SP= 0.00E+00 SK= 0.00E+00
       N       E                     dE             d eps       ncg     rms          rms(c)
RMM:   1    -0.413506536130E+03    0.75104E-01   -0.14450E+01  4281   0.720E+00    0.927E-01
RMM:   2    -0.413447296760E+03    0.59239E-01   -0.30397E-01  5339   0.702E-01    0.819E-01
RMM:   3    -0.413475410839E+03   -0.28114E-01   -0.69209E-02  5721   0.277E-01    0.918E-01
RMM:   4    -0.413448070829E+03    0.27340E-01   -0.33759E-02  5100   0.203E-01    0.453E-01
RMM:   5    -0.413445923927E+03    0.21469E-02   -0.16356E-02  4445   0.184E-01    0.127E-01
RMM:   6    -0.413445400320E+03    0.52361E-03   -0.24635E-03  4941   0.690E-02    0.656E-02
RMM:   7    -0.413445323601E+03    0.76719E-04   -0.91624E-04  5429   0.357E-02    0.475E-02
RMM:   8    -0.413445276416E+03    0.47185E-04   -0.28652E-04  4759   0.215E-02    0.259E-02
RMM:   9    -0.413445278534E+03   -0.21184E-05   -0.11167E-04  4929   0.141E-02    0.122E-02
RMM:  10    -0.413445281203E+03   -0.26691E-05   -0.32762E-05  5178   0.672E-03    0.648E-03
RMM:  11    -0.413445283139E+03   -0.19356E-05   -0.71802E-06  3359   0.356E-03    0.352E-03
RMM:  12    -0.413445285152E+03   -0.20131E-05   -0.17316E-06  2586   0.226E-03    0.185E-03
RMM:  13    -0.413445286786E+03   -0.16342E-05   -0.96536E-07  2498   0.161E-03    0.118E-03
RMM:  14    -0.413445287905E+03   -0.11187E-05   -0.57052E-07  2319   0.123E-03    0.712E-04
RMM:  15    -0.413445288627E+03   -0.72228E-06   -0.37139E-07  2014   0.972E-04
  141 T=   118. E= -.41286387E+03 F= -.41344529E+03 E0= -.41342481E+03  EK= 0.58142E+00 SP= 0.00E+00 SK= 0.00E+00
       N       E                     dE             d eps       ncg     rms          rms(c)
RMM:   1    -0.413450847093E+03   -0.55592E-02   -0.11750E+01  4285   0.657E+00    0.628E-01
RMM:   2    -0.413413268089E+03    0.37579E-01   -0.21747E-01  5238   0.583E-01    0.497E-01
RMM:   3    -0.413434803275E+03   -0.21535E-01   -0.47944E-02  5752   0.230E-01    0.723E-01
RMM:   4    -0.413414008070E+03    0.20795E-01   -0.17715E-02  5045   0.157E-01    0.278E-01
RMM:   5    -0.413414609569E+03   -0.60150E-03   -0.12803E-02  5138   0.144E-01    0.148E-01
RMM:   6    -0.413413891777E+03    0.71779E-03   -0.40464E-03  5085   0.798E-02    0.661E-02
RMM:   7    -0.413413733018E+03    0.15876E-03   -0.84466E-04  5396   0.367E-02    0.373E-02
RMM:   8    -0.413413714867E+03    0.18152E-04   -0.18556E-04  5371   0.165E-02    0.204E-02
RMM:   9    -0.413413719024E+03   -0.41568E-05   -0.77960E-05  4924   0.112E-02    0.107E-02
RMM:  10    -0.413413721308E+03   -0.22841E-05   -0.20417E-05  4614   0.542E-03    0.616E-03
RMM:  11    -0.413413724153E+03   -0.28450E-05   -0.48241E-06  3046   0.329E-03    0.317E-03
RMM:  12    -0.413413726155E+03   -0.20021E-05   -0.14335E-06  2554   0.214E-03    0.135E-03
RMM:  13    -0.413413726809E+03   -0.65406E-06   -0.74587E-07  2444   0.141E-03
  142 T=   111. E= -.41286698E+03 F= -.41341373E+03 E0= -.41339356E+03  EK= 0.54675E+00 SP= 0.00E+00 SK= 0.00E+00
       N       E                     dE             d eps       ncg     rms          rms(c)
RMM:   1    -0.413481133537E+03   -0.67407E-01   -0.11933E+01  4291   0.669E+00    0.920E-01
RMM:   2    -0.413465326422E+03    0.15807E-01   -0.24532E-01  5289   0.626E-01    0.860E-01
RMM:   3    -0.413464296852E+03    0.10296E-02   -0.60230E-02  5526   0.270E-01    0.829E-01
RMM:   4    -0.413450382963E+03    0.13914E-01   -0.32386E-02  5251   0.212E-01    0.374E-01
RMM:   5    -0.413450101741E+03    0.28122E-03   -0.27809E-02  5071   0.203E-01    0.213E-01
RMM:   6    -0.413448178916E+03    0.19228E-02   -0.82687E-03  5071   0.115E-01    0.103E-01
RMM:   7    -0.413447819707E+03    0.35921E-03   -0.90980E-04  4733   0.451E-02    0.411E-02
RMM:   8    -0.413447819829E+03   -0.12201E-06   -0.41838E-04  5722   0.231E-02    0.244E-02
RMM:   9    -0.413447827677E+03   -0.78483E-05   -0.11068E-04  5176   0.130E-02    0.132E-02
RMM:  10    -0.413447830114E+03   -0.24374E-05   -0.29101E-05  5042   0.670E-03    0.654E-03
RMM:  11    -0.413447833361E+03   -0.32462E-05   -0.10770E-05  3988   0.408E-03    0.430E-03
RMM:  12    -0.413447836566E+03   -0.32052E-05   -0.28371E-06  2740   0.278E-03    0.254E-03
RMM:  13    -0.413447837470E+03   -0.90449E-06   -0.12526E-06  2552   0.178E-03
  143 T=   117. E= -.41287325E+03 F= -.41344784E+03 E0= -.41342787E+03  EK= 0.57459E+00 SP= 0.00E+00 SK= 0.00E+00
       N       E                     dE             d eps       ncg     rms          rms(c)
RMM:   1    -0.413492964629E+03   -0.45128E-01   -0.12279E+01  4289   0.686E+00    0.964E-01
RMM:   2    -0.413490673843E+03    0.22908E-02   -0.29539E-01  5339   0.678E-01    0.996E-01
RMM:   3    -0.413475635131E+03    0.15039E-01   -0.69858E-02  5448   0.294E-01    0.859E-01
RMM:   4    -0.413461871510E+03    0.13764E-01   -0.34975E-02  5288   0.221E-01    0.428E-01
RMM:   5    -0.413462524902E+03   -0.65339E-03   -0.28214E-02  5056   0.206E-01    0.252E-01
RMM:   6    -0.413460187808E+03    0.23371E-02   -0.11589E-02  5031   0.133E-01    0.121E-01
RMM:   7    -0.413459694842E+03    0.49297E-03   -0.12442E-03  4691   0.533E-02    0.468E-02
RMM:   8    -0.413459690971E+03    0.38707E-05   -0.44834E-04  5702   0.246E-02    0.298E-02
RMM:   9    -0.413459696966E+03   -0.59948E-05   -0.13539E-04  4889   0.148E-02    0.133E-02
RMM:  10    -0.413459699559E+03   -0.25934E-05   -0.34912E-05  5189   0.720E-03    0.738E-03
RMM:  11    -0.413459701402E+03   -0.18428E-05   -0.11114E-05  3983   0.419E-03    0.423E-03
RMM:  12    -0.413459704592E+03   -0.31900E-05   -0.42199E-06  2933   0.320E-03    0.288E-03
RMM:  13    -0.413459705444E+03   -0.85199E-06   -0.15130E-06  2585   0.198E-03
  144 T=   120. E= -.41287162E+03 F= -.41345971E+03 E0= -.41343972E+03  EK= 0.58809E+00 SP= 0.00E+00 SK= 0.00E+00
       N       E                     dE             d eps       ncg     rms          rms(c)
RMM:   1    -0.413491881335E+03   -0.32177E-01   -0.11940E+01  4283   0.675E+00    0.805E-01
RMM:   2    -0.413489420080E+03    0.24613E-02   -0.30740E-01  5343   0.672E-01    0.873E-01
RMM:   3    -0.413475604949E+03    0.13815E-01   -0.61550E-02  5474   0.277E-01    0.733E-01
RMM:   4    -0.413464424155E+03    0.11181E-01   -0.23978E-02  5291   0.188E-01    0.380E-01
RMM:   5    -0.413465348632E+03   -0.92448E-03   -0.17739E-02  5022   0.168E-01    0.224E-01
RMM:   6    -0.413464002442E+03    0.13462E-02   -0.96648E-03  5000   0.119E-01    0.116E-01
RMM:   7    -0.413463507182E+03    0.49526E-03   -0.12828E-03  4718   0.528E-02    0.457E-02
RMM:   8    -0.413463508770E+03   -0.15874E-05   -0.43114E-04  5777   0.243E-02    0.307E-02
RMM:   9    -0.413463506774E+03    0.19954E-05   -0.12612E-04  4748   0.146E-02    0.122E-02
RMM:  10    -0.413463506554E+03    0.22036E-06   -0.33409E-05  5169   0.690E-03    0.681E-03
RMM:  11    -0.413463506224E+03    0.33004E-06   -0.88613E-06  3690   0.384E-03
  145 T=   121. E= -.41286833E+03 F= -.41346351E+03 E0= -.41344326E+03  EK= 0.59518E+00 SP= 0.00E+00 SK= 0.00E+00
       N       E                     dE             d eps       ncg     rms          rms(c)
RMM:   1    -0.413535607443E+03   -0.72101E-01   -0.12163E+01  4264   0.669E+00    0.751E-01
RMM:   2    -0.413524681658E+03    0.10926E-01   -0.33904E-01  5325   0.680E-01    0.766E-01
RMM:   3    -0.413520355327E+03    0.43263E-02   -0.59465E-02  5500   0.271E-01    0.702E-01
RMM:   4    -0.413508366130E+03    0.11989E-01   -0.21484E-02  5248   0.183E-01    0.351E-01
RMM:   5    -0.413508700838E+03   -0.33471E-03   -0.12652E-02  4869   0.149E-01    0.181E-01
RMM:   6    -0.413508124334E+03    0.57650E-03   -0.73579E-03  5003   0.103E-01    0.104E-01
RMM:   7    -0.413507629820E+03    0.49451E-03   -0.12848E-03  4783   0.503E-02    0.409E-02
RMM:   8    -0.413507633194E+03   -0.33738E-05   -0.39503E-04  5807   0.234E-02    0.283E-02
RMM:   9    -0.413507626784E+03    0.64097E-05   -0.10605E-04  4853   0.135E-02    0.120E-02
RMM:  10    -0.413507623284E+03    0.35004E-05   -0.29133E-05  4986   0.643E-03    0.606E-03
RMM:  11    -0.413507621513E+03    0.17707E-05   -0.88269E-06  3722   0.378E-03    0.390E-03
RMM:  12    -0.413507619784E+03    0.17292E-05   -0.22939E-06  2653   0.256E-03    0.228E-03
RMM:  13    -0.413507618885E+03    0.89878E-06   -0.89501E-07  2494   0.159E-03
  146 T=   130. E= -.41286760E+03 F= -.41350762E+03 E0= -.41348695E+03  EK= 0.64002E+00 SP= 0.00E+00 SK= 0.00E+00
       N       E                     dE             d eps       ncg     rms          rms(c)
RMM:   1    -0.413644719349E+03   -0.13710E+00   -0.13847E+01  4264   0.700E+00    0.795E-01
RMM:   2    -0.413618452044E+03    0.26267E-01   -0.41736E-01  5305   0.732E-01    0.754E-01
RMM:   3    -0.413623224445E+03   -0.47724E-02   -0.67813E-02  5498   0.288E-01    0.771E-01
RMM:   4    -0.413606904286E+03    0.16320E-01   -0.24061E-02  5163   0.196E-01    0.371E-01
RMM:   5    -0.413606646836E+03    0.25745E-03   -0.11626E-02  4704   0.151E-01    0.164E-01
RMM:   6    -0.413606405422E+03    0.24141E-03   -0.59194E-03  5038   0.940E-02    0.952E-02
RMM:   7    -0.413605967285E+03    0.43814E-03   -0.15194E-03  4961   0.505E-02    0.409E-02
RMM:   8    -0.413605948012E+03    0.19272E-04   -0.37915E-04  5735   0.238E-02    0.287E-02
RMM:   9    -0.413605936104E+03    0.11908E-04   -0.11075E-04  4843   0.139E-02    0.130E-02
RMM:  10    -0.413605931495E+03    0.46095E-05   -0.34033E-05  5191   0.696E-03    0.611E-03
RMM:  11    -0.413605930129E+03    0.13657E-05   -0.96240E-06  3749   0.383E-03    0.410E-03
RMM:  12    -0.413605929085E+03    0.10439E-05   -0.25773E-06  2711   0.270E-03    0.216E-03
RMM:  13    -0.413605929522E+03   -0.43707E-06   -0.10030E-06  2519   0.165E-03
  147 T=   150. E= -.41287019E+03 F= -.41360593E+03 E0= -.41358470E+03  EK= 0.73574E+00 SP= 0.00E+00 SK= 0.00E+00
       N       E                     dE             d eps       ncg     rms          rms(c)
RMM:   1    -0.413778267275E+03   -0.17234E+00   -0.16661E+01  4264   0.757E+00    0.953E-01
RMM:   2    -0.413735607355E+03    0.42660E-01   -0.54964E-01  5298   0.831E-01    0.861E-01
RMM:   3    -0.413751655050E+03   -0.16048E-01   -0.89187E-02  5493   0.331E-01    0.952E-01
RMM:   4    -0.413724888452E+03    0.26767E-01   -0.34125E-02  5094   0.234E-01    0.439E-01
RMM:   5    -0.413723962588E+03    0.92586E-03   -0.15012E-02  4610   0.175E-01    0.165E-01
RMM:   6    -0.413723605908E+03    0.35668E-03   -0.47469E-03  5085   0.890E-02    0.818E-02
RMM:   7    -0.413723411242E+03    0.19467E-03   -0.15978E-03  5256   0.482E-02    0.449E-02
RMM:   8    -0.413723345452E+03    0.65791E-04   -0.39091E-04  5474   0.246E-02    0.297E-02
RMM:   9    -0.413723330389E+03    0.15063E-04   -0.12576E-04  4780   0.148E-02    0.146E-02
RMM:  10    -0.413723326520E+03    0.38684E-05   -0.42360E-05  5351   0.775E-03    0.732E-03
RMM:  11    -0.413723326512E+03    0.83273E-08   -0.13617E-05  4189   0.445E-03    0.474E-03
RMM:  12    -0.413723327643E+03   -0.11307E-05   -0.33916E-06  2827   0.305E-03    0.238E-03
RMM:  13    -0.413723330084E+03   -0.24413E-05   -0.15039E-06  2598   0.197E-03    0.133E-03
RMM:  14    -0.413723332743E+03   -0.26587E-05   -0.79723E-07  2486   0.141E-03    0.723E-04
RMM:  15    -0.413723336154E+03   -0.34109E-05   -0.92084E-07  2486   0.135E-03    0.567E-04
RMM:  16    -0.413723339293E+03   -0.31395E-05   -0.82851E-07  2163   0.114E-03    0.292E-04
RMM:  17    -0.413723341352E+03   -0.20586E-05   -0.55085E-07  1904   0.934E-04    0.201E-04
RMM:  18    -0.413723344021E+03   -0.26688E-05   -0.76692E-07  2138   0.105E-03    0.187E-04
RMM:  19    -0.413723345429E+03   -0.14083E-05   -0.33861E-07  1377   0.744E-04    0.102E-04
RMM:  20    -0.413723346499E+03   -0.10698E-05   -0.19770E-07  1289   0.674E-04    0.701E-05
RMM:  21    -0.413723347406E+03   -0.90771E-06   -0.12830E-07  1164   0.618E-04
  148 T=   173. E= -.41287590E+03 F= -.41372335E+03 E0= -.41370150E+03  EK= 0.84745E+00 SP= 0.00E+00 SK= 0.00E+00
       N       E                     dE             d eps       ncg     rms          rms(c)
RMM:   1    -0.413865935926E+03   -0.14259E+00   -0.19238E+01  4264   0.806E+00    0.129E+00
RMM:   2    -0.413797576804E+03    0.68359E-01   -0.65913E-01  5285   0.908E-01    0.108E+00
RMM:   3    -0.413859393410E+03   -0.61817E-01   -0.14152E-01  5435   0.408E-01    0.138E+00
RMM:   4    -0.413791482790E+03    0.67911E-01   -0.69334E-02  5075   0.317E-01    0.544E-01
RMM:   5    -0.413788657082E+03    0.28257E-02   -0.27658E-02  4811   0.230E-01    0.172E-01
RMM:   6    -0.413787989476E+03    0.66761E-03   -0.46982E-03  5222   0.917E-02    0.717E-02
RMM:   7    -0.413787902349E+03    0.87127E-04   -0.11390E-03  5430   0.400E-02    0.405E-02
RMM:   8    -0.413787909731E+03   -0.73816E-05   -0.48518E-04  5662   0.251E-02    0.318E-02
RMM:   9    -0.413787874137E+03    0.35594E-04   -0.16278E-04  5326   0.152E-02    0.199E-02
RMM:  10    -0.413787867316E+03    0.68215E-05   -0.59181E-05  5507   0.947E-03    0.908E-03
RMM:  11    -0.413787865102E+03    0.22134E-05   -0.26324E-05  5113   0.579E-03    0.611E-03
RMM:  12    -0.413787865011E+03    0.91270E-07   -0.47440E-06  3009   0.354E-03
  149 T=   185. E= -.41288076E+03 F= -.41378787E+03 E0= -.41376553E+03  EK= 0.90711E+00 SP= 0.00E+00 SK= 0.00E+00
       N       E                     dE             d eps       ncg     rms          rms(c)
RMM:   1    -0.413874853351E+03   -0.86988E-01   -0.19769E+01  4264   0.790E+00    0.147E+00
RMM:   2    -0.413762158524E+03    0.11269E+00   -0.65833E-01  5283   0.914E-01    0.115E+00
RMM:   3    -0.413881115957E+03   -0.11896E+00   -0.18735E-01  5372   0.469E-01    0.162E+00
RMM:   4    -0.413768272266E+03    0.11284E+00   -0.10931E-01  5116   0.367E-01    0.647E-01
RMM:   5    -0.413760332437E+03    0.79398E-02   -0.45354E-02  5150   0.276E-01    0.201E-01
RMM:   6    -0.413759501970E+03    0.83047E-03   -0.90355E-03  5337   0.122E-01    0.111E-01
RMM:   7    -0.413758921871E+03    0.58010E-03   -0.22281E-03  5033   0.593E-02    0.553E-02
RMM:   8    -0.413758867431E+03    0.54440E-04   -0.68601E-04  5576   0.324E-02    0.368E-02
RMM:   9    -0.413758857537E+03    0.98939E-05   -0.24752E-04  5702   0.188E-02    0.281E-02
RMM:  10    -0.413758839227E+03    0.18309E-04   -0.76407E-05  5258   0.112E-02    0.113E-02
RMM:  11    -0.413758838624E+03    0.60361E-06   -0.48994E-05  5648   0.752E-03    0.696E-03
RMM:  12    -0.413758838104E+03    0.51994E-06   -0.56891E-06  3078   0.353E-03
  150 T=   180. E= -.41287563E+03 F= -.41375884E+03 E0= -.41373625E+03  EK= 0.88321E+00 SP= 0.00E+00 SK= 0.00E+00
