       N       E                     dE             d eps       ncg     rms          rms(c)
RMM:   1     0.220135895689E+04    0.22014E+04   -0.52442E+04  2132   0.654E+02
RMM:   2     0.705758449023E+03   -0.14956E+04   -0.16262E+04  2132   0.177E+02
RMM:   3     0.137652235777E+03   -0.56811E+03   -0.65736E+03  2132   0.117E+02
RMM:   4    -0.159458951696E+03   -0.29711E+03   -0.27846E+03  2132   0.936E+01
RMM:   5    -0.287490948910E+03   -0.12803E+03   -0.11447E+03  2132   0.595E+01
RMM:   6    -0.349905951928E+03   -0.62415E+02   -0.55155E+02  2132   0.423E+01
RMM:   7    -0.382710005300E+03   -0.32804E+02   -0.30388E+02  2132   0.293E+01
RMM:   8    -0.404187565256E+03   -0.21478E+02   -0.18423E+02  2132   0.233E+01
RMM:   9    -0.436005920504E+03   -0.31818E+02   -0.30674E+02  6104   0.173E+01
RMM:  10    -0.441283427570E+03   -0.52775E+01   -0.62687E+01  6397   0.539E+00
RMM:  11    -0.442492019364E+03   -0.12086E+01   -0.11282E+01  6202   0.173E+00
RMM:  12    -0.442869587529E+03   -0.37757E+00   -0.25723E+00  6371   0.597E-01    0.134E+02
RMM:  13    -0.425585194407E+03    0.17284E+02   -0.81018E+01  4670   0.119E+01    0.712E+01
RMM:  14    -0.499236044190E+03   -0.73651E+02   -0.53979E+02  5427   0.232E+01    0.306E+01
RMM:  15    -0.414541850737E+03    0.84694E+02   -0.19583E+02  5073   0.163E+01    0.622E+00
RMM:  16    -0.414051815254E+03    0.49004E+00   -0.38880E+01  6077   0.602E+00    0.428E+00
RMM:  17    -0.413221708094E+03    0.83011E+00   -0.23403E+00  5336   0.182E+00    0.246E+00
RMM:  18    -0.413167082694E+03    0.54625E-01   -0.88755E-01  5963   0.972E-01    0.159E+00
RMM:  19    -0.413168565620E+03   -0.14829E-02   -0.29626E-01  5741   0.575E-01    0.859E-01
RMM:  20    -0.413181883696E+03   -0.13318E-01   -0.18526E-01  5380   0.476E-01    0.501E-01
RMM:  21    -0.413168712776E+03    0.13171E-01   -0.29999E-02  5021   0.211E-01    0.247E-01
RMM:  22    -0.413166838224E+03    0.18746E-02   -0.13314E-02  6119   0.977E-02    0.148E-01
RMM:  23    -0.413165159251E+03    0.16790E-02   -0.51052E-03  5845   0.658E-02    0.841E-02
RMM:  24    -0.413163400453E+03    0.17588E-02   -0.18489E-03  5630   0.435E-02    0.377E-02
RMM:  25    -0.413163034564E+03    0.36589E-03   -0.80136E-04  5597   0.243E-02    0.294E-02
RMM:  26    -0.413163193757E+03   -0.15919E-03   -0.69474E-04  5844   0.274E-02    0.353E-02
RMM:  27    -0.413163544334E+03   -0.35058E-03   -0.19620E-04  4599   0.199E-02    0.170E-02
RMM:  28    -0.413164015571E+03   -0.47124E-03   -0.20767E-04  5334   0.208E-02    0.955E-03
RMM:  29    -0.413164347420E+03   -0.33185E-03   -0.93475E-05  4389   0.141E-02    0.533E-03
RMM:  30    -0.413164576121E+03   -0.22870E-03   -0.77593E-05  4049   0.107E-02    0.252E-03
RMM:  31    -0.413164673143E+03   -0.97023E-04   -0.48459E-05  3177   0.616E-03    0.252E-03
RMM:  32    -0.413164695250E+03   -0.22107E-04   -0.19268E-05  2917   0.306E-03    0.139E-03
RMM:  33    -0.413164699978E+03   -0.47282E-05   -0.81116E-06  2752   0.197E-03    0.462E-04
RMM:  34    -0.413164699539E+03    0.43935E-06   -0.40119E-06  2640   0.160E-03
    1 T=    61. E= -.41286693E+03 F= -.41316470E+03 E0= -.41314220E+03  EK= 0.29777E+00 SP= 0.00E+00 SK= 0.00E+00
       N       E                     dE             d eps       ncg     rms          rms(c)
RMM:   1    -0.413173440920E+03   -0.87409E-02   -0.63901E+00  3991   0.498E-01    0.907E-01
RMM:   2    -0.413171427504E+03    0.20134E-02   -0.82408E-02  3943   0.743E-02    0.663E-01
RMM:   3    -0.413167694584E+03    0.37329E-02   -0.49169E-02  5073   0.779E-02    0.304E-01
RMM:   4    -0.413187640791E+03   -0.19946E-01   -0.30555E-02  5166   0.148E-01    0.640E-01
RMM:   5    -0.413164249029E+03    0.23392E-01   -0.11631E-02  4765   0.109E-01    0.484E-02
RMM:   6    -0.413164394084E+03   -0.14506E-03   -0.19897E-03  5668   0.438E-02    0.304E-02
RMM:   7    -0.413164410830E+03   -0.16746E-04   -0.34993E-04  5790   0.166E-02    0.200E-02
RMM:   8    -0.413164412189E+03   -0.13590E-05   -0.43743E-05  4976   0.738E-03    0.716E-03
RMM:   9    -0.413164415227E+03   -0.30380E-05   -0.88419E-06  3255   0.315E-03    0.466E-03
RMM:  10    -0.413164420846E+03   -0.56194E-05   -0.19296E-06  2567   0.201E-03    0.285E-03
RMM:  11    -0.413164424896E+03   -0.40498E-05   -0.10776E-06  2500   0.146E-03    0.142E-03
RMM:  12    -0.413164430597E+03   -0.57013E-05   -0.10701E-06  2506   0.139E-03    0.706E-04
RMM:  13    -0.413164433386E+03   -0.27885E-05   -0.55580E-07  2107   0.102E-03    0.441E-04
RMM:  14    -0.413164433928E+03   -0.54230E-06   -0.31152E-07  1597   0.768E-04
    2 T=    61. E= -.41286676E+03 F= -.41316443E+03 E0= -.41314193E+03  EK= 0.29768E+00 SP= 0.00E+00 SK= 0.00E+00
       N       E                     dE             d eps       ncg     rms          rms(c)
RMM:   1    -0.413174532055E+03   -0.10099E-01   -0.63406E+00  4190   0.496E-01    0.922E-01
RMM:   2    -0.413171622571E+03    0.29095E-02   -0.82663E-02  3975   0.731E-02    0.662E-01
RMM:   3    -0.413168482242E+03    0.31403E-02   -0.45658E-02  5098   0.766E-02    0.286E-01
RMM:   4    -0.413188698280E+03   -0.20216E-01   -0.31409E-02  5140   0.151E-01    0.645E-01
RMM:   5    -0.413164849409E+03    0.23849E-01   -0.11151E-02  4742   0.108E-01    0.476E-02
RMM:   6    -0.413164993043E+03   -0.14363E-03   -0.19747E-03  5652   0.439E-02    0.327E-02
RMM:   7    -0.413164988251E+03    0.47916E-05   -0.35346E-04  5663   0.177E-02    0.218E-02
RMM:   8    -0.413164982189E+03    0.60616E-05   -0.48149E-05  5112   0.810E-03    0.859E-03
RMM:   9    -0.413164980971E+03    0.12186E-05   -0.91836E-06  3383   0.347E-03    0.523E-03
RMM:  10    -0.413164981119E+03   -0.14791E-06   -0.17169E-06  2543   0.212E-03
    3 T=    61. E= -.41286707E+03 F= -.41316498E+03 E0= -.41314249E+03  EK= 0.29791E+00 SP= 0.00E+00 SK= 0.00E+00
       N       E                     dE             d eps       ncg     rms          rms(c)
RMM:   1    -0.413173865725E+03   -0.88848E-02   -0.63001E+00  4215   0.502E-01    0.907E-01
RMM:   2    -0.413171304614E+03    0.25611E-02   -0.82079E-02  4143   0.722E-02    0.656E-01
RMM:   3    -0.413172796869E+03   -0.14923E-02   -0.48762E-02  5162   0.983E-02    0.403E-01
RMM:   4    -0.413180404037E+03   -0.76072E-02   -0.29987E-02  5080   0.151E-01    0.535E-01
RMM:   5    -0.413164707969E+03    0.15696E-01   -0.72340E-03  4618   0.890E-02    0.473E-02
RMM:   6    -0.413164752878E+03   -0.44908E-04   -0.12381E-03  5418   0.344E-02    0.299E-02
RMM:   7    -0.413164756932E+03   -0.40540E-05   -0.23554E-04  5604   0.147E-02    0.186E-02
RMM:   8    -0.413164754067E+03    0.28647E-05   -0.34636E-05  4874   0.705E-03    0.650E-03
RMM:   9    -0.413164754169E+03   -0.10181E-06   -0.47639E-06  2852   0.271E-03
    4 T=    61. E= -.41286681E+03 F= -.41316475E+03 E0= -.41314227E+03  EK= 0.29795E+00 SP= 0.00E+00 SK= 0.00E+00
       N       E                     dE             d eps       ncg     rms          rms(c)
RMM:   1    -0.413173793705E+03   -0.90396E-02   -0.63882E+00  4239   0.510E-01    0.904E-01
RMM:   2    -0.413171693282E+03    0.21004E-02   -0.82517E-02  4098   0.706E-02    0.662E-01
RMM:   3    -0.413172359651E+03   -0.66637E-03   -0.51595E-02  5146   0.957E-02    0.405E-01
RMM:   4    -0.413181726317E+03   -0.93667E-02   -0.30123E-02  5084   0.151E-01    0.559E-01
RMM:   5    -0.413164827349E+03    0.16899E-01   -0.83865E-03  4635   0.934E-02    0.467E-02
RMM:   6    -0.413164892719E+03   -0.65369E-04   -0.13148E-03  5504   0.357E-02    0.291E-02
RMM:   7    -0.413164904606E+03   -0.11888E-04   -0.24764E-04  5610   0.148E-02    0.182E-02
RMM:   8    -0.413164906196E+03   -0.15899E-05   -0.34532E-05  4853   0.701E-03    0.621E-03
RMM:   9    -0.413164908889E+03   -0.26931E-05   -0.49066E-06  2888   0.271E-03    0.366E-03
RMM:  10    -0.413164913728E+03   -0.48391E-05   -0.13268E-06  2531   0.181E-03    0.222E-03
RMM:  11    -0.413164917214E+03   -0.34859E-05   -0.76921E-07  2398   0.132E-03    0.108E-03
RMM:  12    -0.413164921492E+03   -0.42778E-05   -0.81890E-07  2452   0.123E-03    0.556E-04
RMM:  13    -0.413164923780E+03   -0.22880E-05   -0.46380E-07  1904   0.939E-04    0.333E-04
RMM:  14    -0.413164924423E+03   -0.64298E-06   -0.22757E-07  1429   0.747E-04
    5 T=    61. E= -.41286680E+03 F= -.41316492E+03 E0= -.41314245E+03  EK= 0.29812E+00 SP= 0.00E+00 SK= 0.00E+00
       N       E                     dE             d eps       ncg     rms          rms(c)
RMM:   1    -0.413174838850E+03   -0.99151E-02   -0.63565E+00  4246   0.509E-01    0.919E-01
RMM:   2    -0.413172044701E+03    0.27941E-02   -0.82483E-02  4046   0.705E-02    0.663E-01
RMM:   3    -0.413169350744E+03    0.26940E-02   -0.46620E-02  5091   0.774E-02    0.305E-01
RMM:   4    -0.413188208905E+03   -0.18858E-01   -0.31282E-02  5111   0.151E-01    0.635E-01
RMM:   5    -0.413165257998E+03    0.22951E-01   -0.10760E-02  4706   0.106E-01    0.475E-02
RMM:   6    -0.413165396209E+03   -0.13821E-03   -0.18727E-03  5627   0.426E-02    0.320E-02
RMM:   7    -0.413165389282E+03    0.69269E-05   -0.33152E-04  5645   0.172E-02    0.212E-02
RMM:   8    -0.413165385027E+03    0.42549E-05   -0.45908E-05  5059   0.794E-03    0.819E-03
RMM:   9    -0.413165384485E+03    0.54241E-06   -0.83022E-06  3265   0.335E-03
    6 T=    61. E= -.41286698E+03 F= -.41316538E+03 E0= -.41314292E+03  EK= 0.29840E+00 SP= 0.00E+00 SK= 0.00E+00
       N       E                     dE             d eps       ncg     rms          rms(c)
RMM:   1    -0.413174380000E+03   -0.89950E-02   -0.63120E+00  4270   0.514E-01    0.914E-01
RMM:   2    -0.413171731101E+03    0.26489E-02   -0.82254E-02  4272   0.720E-02    0.658E-01
RMM:   3    -0.413175663010E+03   -0.39319E-02   -0.49750E-02  5165   0.108E-01    0.450E-01
RMM:   4    -0.413178115475E+03   -0.24525E-02   -0.29840E-02  5055   0.152E-01    0.489E-01
RMM:   5    -0.413165142080E+03    0.12973E-01   -0.59381E-03  4566   0.822E-02    0.472E-02
RMM:   6    -0.413165153211E+03   -0.11131E-04   -0.98741E-04  5327   0.309E-02    0.298E-02
RMM:   7    -0.413165165040E+03   -0.11829E-04   -0.20046E-04  5483   0.139E-02    0.175E-02
RMM:   8    -0.413165158985E+03    0.60549E-05   -0.30976E-05  4771   0.684E-03    0.585E-03
RMM:   9    -0.413165157818E+03    0.11678E-05   -0.40115E-06  2758   0.251E-03    0.311E-03
RMM:  10    -0.413165157343E+03    0.47455E-06   -0.11316E-06  2500   0.167E-03
    7 T=    61. E= -.41286672E+03 F= -.41316516E+03 E0= -.41314271E+03  EK= 0.29843E+00 SP= 0.00E+00 SK= 0.00E+00
       N       E                     dE             d eps       ncg     rms          rms(c)
RMM:   1    -0.413174642252E+03   -0.94844E-02   -0.63727E+00  4274   0.522E-01    0.903E-01
RMM:   2    -0.413172665560E+03    0.19767E-02   -0.82275E-02  4117   0.732E-02    0.661E-01
RMM:   3    -0.413170183221E+03    0.24823E-02   -0.49402E-02  5065   0.830E-02    0.333E-01
RMM:   4    -0.413187581875E+03   -0.17399E-01   -0.30577E-02  5095   0.150E-01    0.626E-01
RMM:   5    -0.413165612578E+03    0.21969E-01   -0.10688E-02  4706   0.105E-01    0.460E-02
RMM:   6    -0.413165749733E+03   -0.13716E-03   -0.18079E-03  5636   0.416E-02    0.311E-02
RMM:   7    -0.413165744383E+03    0.53501E-05   -0.32023E-04  5597   0.172E-02    0.206E-02
RMM:   8    -0.413165739292E+03    0.50916E-05   -0.43794E-05  4965   0.800E-03    0.785E-03
RMM:   9    -0.413165740375E+03   -0.10833E-05   -0.82210E-06  3216   0.333E-03    0.486E-03
RMM:  10    -0.413165743740E+03   -0.33648E-05   -0.15528E-06  2536   0.203E-03    0.290E-03
RMM:  11    -0.413165745872E+03   -0.21321E-05   -0.86639E-07  2493   0.145E-03    0.150E-03
RMM:  12    -0.413165748797E+03   -0.29253E-05   -0.10762E-06  2508   0.147E-03    0.772E-04
RMM:  13    -0.413165749772E+03   -0.97532E-06   -0.51064E-07  2191   0.108E-03
    8 T=    61. E= -.41286704E+03 F= -.41316575E+03 E0= -.41314332E+03  EK= 0.29871E+00 SP= 0.00E+00 SK= 0.00E+00
       N       E                     dE             d eps       ncg     rms          rms(c)
RMM:   1    -0.413175202792E+03   -0.94540E-02   -0.63739E+00  4285   0.524E-01    0.916E-01
RMM:   2    -0.413172791164E+03    0.24116E-02   -0.82421E-02  4156   0.749E-02    0.664E-01
RMM:   3    -0.413169517698E+03    0.32735E-02   -0.47520E-02  5028   0.791E-02    0.300E-01
RMM:   4    -0.413189361579E+03   -0.19844E-01   -0.30670E-02  5098   0.149E-01    0.643E-01
RMM:   5    -0.413165802329E+03    0.23559E-01   -0.11306E-02  4728   0.107E-01    0.459E-02
RMM:   6    -0.413165952474E+03   -0.15014E-03   -0.19461E-03  5675   0.432E-02    0.324E-02
RMM:   7    -0.413165944410E+03    0.80637E-05   -0.34302E-04  5583   0.177E-02    0.215E-02
RMM:   8    -0.413165939565E+03    0.48449E-05   -0.45931E-05  5018   0.804E-03    0.857E-03
RMM:   9    -0.413165939083E+03    0.48221E-06   -0.89679E-06  3345   0.350E-03
    9 T=    61. E= -.41286701E+03 F= -.41316594E+03 E0= -.41314353E+03  EK= 0.29893E+00 SP= 0.00E+00 SK= 0.00E+00
       N       E                     dE             d eps       ncg     rms          rms(c)
RMM:   1    -0.413175416066E+03   -0.94765E-02   -0.63299E+00  4299   0.527E-01    0.920E-01
RMM:   2    -0.413172578923E+03    0.28371E-02   -0.82754E-02  4335   0.749E-02    0.660E-01
RMM:   3    -0.413178460745E+03   -0.58818E-02   -0.51041E-02  5154   0.116E-01    0.485E-01
RMM:   4    -0.413177410554E+03    0.10502E-02   -0.29924E-02  5028   0.153E-01    0.460E-01
RMM:   5    -0.413166019756E+03    0.11391E-01   -0.52141E-03  4521   0.780E-02    0.467E-02
RMM:   6    -0.413166007118E+03    0.12638E-04   -0.83807E-04  5262   0.287E-02    0.299E-02
RMM:   7    -0.413165997082E+03    0.10036E-04   -0.18343E-04  5345   0.138E-02    0.170E-02
RMM:   8    -0.413165993119E+03    0.39630E-05   -0.28795E-05  4685   0.670E-03    0.547E-03
RMM:   9    -0.413165991066E+03    0.20527E-05   -0.35597E-06  2697   0.242E-03    0.287E-03
RMM:  10    -0.413165989235E+03    0.18310E-05   -0.10526E-06  2476   0.160E-03    0.166E-03
RMM:  11    -0.413165987129E+03    0.21059E-05   -0.67577E-07  2243   0.120E-03    0.788E-04
RMM:  12    -0.413165984177E+03    0.29523E-05   -0.59682E-07  2236   0.107E-03    0.424E-04
RMM:  13    -0.413165981811E+03    0.23655E-05   -0.30416E-07  1606   0.819E-04    0.279E-04
RMM:  14    -0.413165979125E+03    0.26864E-05   -0.24750E-07  1463   0.758E-04    0.176E-04
RMM:  15    -0.413165975349E+03    0.37756E-05   -0.32822E-07  1750   0.800E-04    0.296E-04
RMM:  16    -0.413165971204E+03    0.41459E-05   -0.29153E-07  1430   0.720E-04    0.135E-04
RMM:  17    -0.413165970569E+03    0.63465E-06   -0.76015E-08   875   0.536E-04
   10 T=    61. E= -.41286680E+03 F= -.41316597E+03 E0= -.41314359E+03  EK= 0.29917E+00 SP= 0.00E+00 SK= 0.00E+00
       N       E                     dE             d eps       ncg     rms          rms(c)
RMM:   1    -0.413175746036E+03   -0.97748E-02   -0.63558E+00  4290   0.534E-01    0.902E-01
RMM:   2    -0.413173574424E+03    0.21716E-02   -0.82265E-02  4214   0.736E-02    0.659E-01
RMM:   3    -0.413170807564E+03    0.27669E-02   -0.48509E-02  5054   0.803E-02    0.320E-01
RMM:   4    -0.413189295877E+03   -0.18488E-01   -0.30749E-02  5087   0.150E-01    0.633E-01
RMM:   5    -0.413166620444E+03    0.22675E-01   -0.10989E-02  4701   0.105E-01    0.461E-02
RMM:   6    -0.413166762245E+03   -0.14180E-03   -0.18662E-03  5623   0.420E-02    0.316E-02
RMM:   7    -0.413166758075E+03    0.41697E-05   -0.32697E-04  5547   0.171E-02    0.209E-02
RMM:   8    -0.413166756954E+03    0.11209E-05   -0.44115E-05  5026   0.772E-03    0.805E-03
RMM:   9    -0.413166757675E+03   -0.72031E-06   -0.81685E-06  3265   0.334E-03
   11 T=    61. E= -.41286705E+03 F= -.41316676E+03 E0= -.41314440E+03  EK= 0.29971E+00 SP= 0.00E+00 SK= 0.00E+00
       N       E                     dE             d eps       ncg     rms          rms(c)
RMM:   1    -0.413175877768E+03   -0.91208E-02   -0.64049E+00  4299   0.538E-01    0.914E-01
RMM:   2    -0.413173505806E+03    0.23720E-02   -0.82850E-02  4318   0.738E-02    0.666E-01
RMM:   3    -0.413179176948E+03   -0.56711E-02   -0.54071E-02  5149   0.115E-01    0.495E-01
RMM:   4    -0.413178541576E+03    0.63537E-03   -0.30203E-02  5032   0.153E-01    0.477E-01
RMM:   5    -0.413166697691E+03    0.11844E-01   -0.60785E-03  4518   0.802E-02    0.457E-02
RMM:   6    -0.413166705038E+03   -0.73475E-05   -0.88654E-04  5252   0.290E-02    0.288E-02
RMM:   7    -0.413166710685E+03   -0.56463E-05   -0.18463E-04  5339   0.135E-02    0.165E-02
RMM:   8    -0.413166712029E+03   -0.13443E-05   -0.27683E-05  4649   0.640E-03    0.518E-03
RMM:   9    -0.413166712769E+03   -0.73986E-06   -0.32750E-06  2679   0.234E-03
   12 T=    61. E= -.41286673E+03 F= -.41316671E+03 E0= -.41314438E+03  EK= 0.29998E+00 SP= 0.00E+00 SK= 0.00E+00
       N       E                     dE             d eps       ncg     rms          rms(c)
RMM:   1    -0.413176904393E+03   -0.10192E-01   -0.63616E+00  4294   0.539E-01    0.925E-01
RMM:   2    -0.413173829516E+03    0.30749E-02   -0.83053E-02  4266   0.723E-02    0.663E-01
RMM:   3    -0.413173519322E+03    0.31019E-03   -0.46956E-02  5127   0.892E-02    0.357E-01
RMM:   4    -0.413185885254E+03   -0.12366E-01   -0.31140E-02  5074   0.152E-01    0.575E-01
RMM:   5    -0.413167231611E+03    0.18654E-01   -0.83471E-03  4663   0.958E-02    0.475E-02
RMM:   6    -0.413167314066E+03   -0.82454E-04   -0.14829E-03  5553   0.376E-02    0.314E-02
RMM:   7    -0.413167305503E+03    0.85631E-05   -0.27581E-04  5599   0.159E-02    0.201E-02
RMM:   8    -0.413167299129E+03    0.63733E-05   -0.38659E-05  4903   0.755E-03    0.723E-03
RMM:   9    -0.413167295743E+03    0.33866E-05   -0.64000E-06  3015   0.304E-03    0.405E-03
RMM:  10    -0.413167292942E+03    0.28010E-05   -0.14584E-06  2520   0.195E-03    0.244E-03
RMM:  11    -0.413167290360E+03    0.25816E-05   -0.78208E-07  2451   0.140E-03    0.123E-03
RMM:  12    -0.413167285827E+03    0.45328E-05   -0.85962E-07  2482   0.133E-03    0.644E-04
RMM:  13    -0.413167282428E+03    0.33994E-05   -0.40998E-07  2017   0.988E-04    0.414E-04
RMM:  14    -0.413167280906E+03    0.15222E-05   -0.18750E-07  1467   0.747E-04    0.250E-04
RMM:  15    -0.413167275893E+03    0.50123E-05   -0.31028E-07  1955   0.851E-04    0.426E-04
RMM:  16    -0.413167270548E+03    0.53457E-05   -0.26385E-07  1397   0.720E-04    0.293E-04
RMM:  17    -0.413167269564E+03    0.98390E-06   -0.77353E-08   927   0.563E-04
   13 T=    61. E= -.41286681E+03 F= -.41316727E+03 E0= -.41314497E+03  EK= 0.30046E+00 SP= 0.00E+00 SK= 0.00E+00
       N       E                     dE             d eps       ncg     rms          rms(c)
RMM:   1    -0.413176960763E+03   -0.96902E-02   -0.63493E+00  4296   0.546E-01    0.905E-01
RMM:   2    -0.413174692395E+03    0.22684E-02   -0.82262E-02  4251   0.727E-02    0.659E-01
RMM:   3    -0.413172139121E+03    0.25533E-02   -0.47728E-02  5076   0.790E-02    0.317E-01
RMM:   4    -0.413190541740E+03   -0.18403E-01   -0.31294E-02  5091   0.151E-01    0.632E-01
RMM:   5    -0.413167846294E+03    0.22695E-01   -0.10834E-02  4700   0.105E-01    0.464E-02
RMM:   6    -0.413167990186E+03   -0.14389E-03   -0.18638E-03  5622   0.420E-02    0.319E-02
RMM:   7    -0.413167998013E+03   -0.78267E-05   -0.32663E-04  5522   0.173E-02    0.211E-02
RMM:   8    -0.413167990653E+03    0.73591E-05   -0.45107E-05  5032   0.789E-03    0.814E-03
RMM:   9    -0.413167989349E+03    0.13045E-05   -0.83803E-06  3260   0.340E-03    0.497E-03
RMM:  10    -0.413167990172E+03   -0.82303E-06   -0.15478E-06  2519   0.205E-03
   14 T=    61. E= -.41286703E+03 F= -.41316799E+03 E0= -.41314572E+03  EK= 0.30096E+00 SP= 0.00E+00 SK= 0.00E+00
       N       E                     dE             d eps       ncg     rms          rms(c)
RMM:   1    -0.413177296203E+03   -0.93069E-02   -0.64363E+00  4301   0.560E-01    0.911E-01
RMM:   2    -0.413175009153E+03    0.22871E-02   -0.84129E-02  4300   0.750E-02    0.667E-01
RMM:   3    -0.413176734206E+03   -0.17251E-02   -0.52460E-02  5122   0.103E-01    0.429E-01
RMM:   4    -0.413183716386E+03   -0.69822E-02   -0.30719E-02  5055   0.152E-01    0.542E-01
RMM:   5    -0.413167958341E+03    0.15758E-01   -0.77798E-03  4592   0.903E-02    0.463E-02
RMM:   6    -0.413168014691E+03   -0.56349E-04   -0.12496E-03  5413   0.339E-02    0.293E-02
RMM:   7    -0.413168013597E+03    0.10933E-05   -0.23269E-04  5480   0.149E-02    0.181E-02
RMM:   8    -0.413168013775E+03   -0.17753E-06   -0.33485E-05  4765   0.730E-03    0.610E-03
RMM:   9    -0.413168014179E+03   -0.40440E-06   -0.54776E-06  2889   0.275E-03
   15 T=    61. E= -.41286675E+03 F= -.41316801E+03 E0= -.41314578E+03  EK= 0.30126E+00 SP= 0.00E+00 SK= 0.00E+00
       N       E                     dE             d eps       ncg     rms          rms(c)
RMM:   1    -0.413178677070E+03   -0.10663E-01   -0.63860E+00  4299   0.550E-01    0.927E-01
RMM:   2    -0.413175819944E+03    0.28571E-02   -0.83379E-02  4283   0.756E-02    0.665E-01
RMM:   3    -0.413176532655E+03   -0.71271E-03   -0.48178E-02  5115   0.975E-02    0.387E-01
RMM:   4    -0.413185890657E+03   -0.93580E-02   -0.30796E-02  5058   0.152E-01    0.550E-01
RMM:   5    -0.413169043793E+03    0.16847E-01   -0.75406E-03  4627   0.915E-02    0.472E-02
RMM:   6    -0.413169100939E+03   -0.57146E-04   -0.13479E-03  5494   0.353E-02    0.310E-02
RMM:   7    -0.413169095293E+03    0.56466E-05   -0.24970E-04  5506   0.156E-02    0.193E-02
RMM:   8    -0.413169088617E+03    0.66759E-05   -0.36311E-05  4865   0.733E-03    0.673E-03
RMM:   9    -0.413169085549E+03    0.30677E-05   -0.56230E-06  2932   0.288E-03    0.374E-03
RMM:  10    -0.413169082500E+03    0.30490E-05   -0.13944E-06  2523   0.189E-03    0.226E-03
RMM:  11    -0.413169079694E+03    0.28061E-05   -0.72947E-07  2420   0.135E-03    0.114E-03
RMM:  12    -0.413169074715E+03    0.49788E-05   -0.75203E-07  2462   0.126E-03    0.600E-04
RMM:  13    -0.413169070535E+03    0.41801E-05   -0.37748E-07  1927   0.941E-04    0.375E-04
RMM:  14    -0.413169068604E+03    0.19309E-05   -0.17052E-07  1387   0.720E-04    0.219E-04
RMM:  15    -0.413169061723E+03    0.68814E-05   -0.31762E-07  1920   0.848E-04    0.440E-04
RMM:  16    -0.413169056760E+03    0.49626E-05   -0.17617E-07  1208   0.643E-04    0.275E-04
RMM:  17    -0.413169055643E+03    0.11168E-05   -0.66972E-08   899   0.549E-04    0.198E-04
RMM:  18    -0.413169053666E+03    0.19772E-05   -0.57472E-08   943   0.568E-04    0.704E-05
RMM:  19    -0.413169052382E+03    0.12841E-05   -0.45970E-08   966   0.574E-04    0.783E-05
RMM:  20    -0.413169052397E+03   -0.14745E-07   -0.13717E-08   656   0.526E-04
   16 T=    61. E= -.41286709E+03 F= -.41316905E+03 E0= -.41314685E+03  EK= 0.30196E+00 SP= 0.00E+00 SK= 0.00E+00
       N       E                     dE             d eps       ncg     rms          rms(c)
RMM:   1    -0.413178749353E+03   -0.96970E-02   -0.63560E+00  4296   0.559E-01    0.910E-01
RMM:   2    -0.413176359184E+03    0.23902E-02   -0.82883E-02  4262   0.774E-02    0.660E-01
RMM:   3    -0.413173695951E+03    0.26632E-02   -0.47104E-02  5044   0.823E-02    0.312E-01
RMM:   4    -0.413192364529E+03   -0.18669E-01   -0.31513E-02  5078   0.151E-01    0.635E-01
RMM:   5    -0.413169406091E+03    0.22958E-01   -0.10834E-02  4702   0.106E-01    0.464E-02
RMM:   6    -0.413169543868E+03   -0.13778E-03   -0.18919E-03  5646   0.420E-02    0.324E-02
RMM:   7    -0.413169529969E+03    0.13899E-04   -0.32999E-04  5518   0.176E-02    0.214E-02
RMM:   8    -0.413169528105E+03    0.18637E-05   -0.46139E-05  5025   0.811E-03    0.832E-03
RMM:   9    -0.413169526119E+03    0.19858E-05   -0.89472E-06  3299   0.348E-03    0.506E-03
RMM:  10    -0.413169525691E+03    0.42798E-06   -0.15963E-06  2524   0.209E-03
   17 T=    62. E= -.41286697E+03 F= -.41316953E+03 E0= -.41314737E+03  EK= 0.30256E+00 SP= 0.00E+00 SK= 0.00E+00
       N       E                     dE             d eps       ncg     rms          rms(c)
RMM:   1    -0.413179160165E+03   -0.96340E-02   -0.64613E+00  4302   0.566E-01    0.911E-01
RMM:   2    -0.413177105994E+03    0.20542E-02   -0.83688E-02  4289   0.779E-02    0.667E-01
RMM:   3    -0.413179031543E+03   -0.19255E-02   -0.53245E-02  5110   0.105E-01    0.436E-01
RMM:   4    -0.413185363446E+03   -0.63319E-02   -0.30476E-02  5046   0.152E-01    0.537E-01
RMM:   5    -0.413169960220E+03    0.15403E-01   -0.77238E-03  4586   0.891E-02    0.458E-02
RMM:   6    -0.413170015419E+03   -0.55199E-04   -0.12405E-03  5437   0.332E-02    0.293E-02
RMM:   7    -0.413170013298E+03    0.21211E-05   -0.22990E-04  5416   0.148E-02    0.181E-02
RMM:   8    -0.413170012839E+03    0.45903E-06   -0.32351E-05  4726   0.712E-03    0.603E-03
RMM:   9    -0.413170013085E+03   -0.24584E-06   -0.49923E-06  2864   0.274E-03
   18 T=    62. E= -.41286682E+03 F= -.41317001E+03 E0= -.41314790E+03  EK= 0.30319E+00 SP= 0.00E+00 SK= 0.00E+00
       N       E                     dE             d eps       ncg     rms          rms(c)
RMM:   1    -0.413180934987E+03   -0.10922E-01   -0.64249E+00  4296   0.567E-01    0.928E-01
RMM:   2    -0.413177996642E+03    0.29383E-02   -0.83892E-02  4291   0.763E-02    0.668E-01
RMM:   3    -0.413178831917E+03   -0.83528E-03   -0.48939E-02  5122   0.966E-02    0.391E-01
RMM:   4    -0.413188234998E+03   -0.94031E-02   -0.31074E-02  5057   0.152E-01    0.553E-01
RMM:   5    -0.413171228625E+03    0.17006E-01   -0.76749E-03  4621   0.920E-02    0.471E-02
RMM:   6    -0.413171293918E+03   -0.65293E-04   -0.13501E-03  5496   0.353E-02    0.308E-02
RMM:   7    -0.413171282721E+03    0.11196E-04   -0.25135E-04  5518   0.155E-02    0.194E-02
RMM:   8    -0.413171276617E+03    0.61042E-05   -0.36351E-05  4846   0.749E-03    0.676E-03
RMM:   9    -0.413171273292E+03    0.33253E-05   -0.56806E-06  2932   0.291E-03    0.375E-03
RMM:  10    -0.413171270250E+03    0.30411E-05   -0.13538E-06  2515   0.188E-03    0.226E-03
RMM:  11    -0.413171267382E+03    0.28683E-05   -0.72761E-07  2419   0.135E-03    0.114E-03
RMM:  12    -0.413171262299E+03    0.50830E-05   -0.75380E-07  2463   0.126E-03    0.600E-04
RMM:  13    -0.413171258221E+03    0.40782E-05   -0.35514E-07  1903   0.930E-04    0.377E-04
RMM:  14    -0.413171256213E+03    0.20082E-05   -0.16406E-07  1372   0.712E-04    0.219E-04
RMM:  15    -0.413171249284E+03    0.69287E-05   -0.26932E-07  1788   0.811E-04    0.403E-04
RMM:  16    -0.413171243571E+03    0.57127E-05   -0.16536E-07  1233   0.653E-04    0.270E-04
RMM:  17    -0.413171242394E+03    0.11779E-05   -0.62800E-08   890   0.549E-04    0.191E-04
RMM:  18    -0.413171240008E+03    0.23855E-05   -0.55157E-08   962   0.569E-04    0.707E-05
RMM:  19    -0.413171238656E+03    0.13524E-05   -0.39836E-08   943   0.565E-04    0.626E-05
RMM:  20    -0.413171238578E+03    0.78111E-07   -0.12919E-08   652   0.520E-04
   19 T=    62. E= -.41286714E+03 F= -.41317124E+03 E0= -.41314916E+03  EK= 0.30410E+00 SP= 0.00E+00 SK= 0.00E+00
       N       E                     dE             d eps       ncg     rms          rms(c)
RMM:   1    -0.413181026603E+03   -0.97879E-02   -0.63901E+00  4295   0.567E-01    0.917E-01
RMM:   2    -0.413178326975E+03    0.26996E-02   -0.83418E-02  4269   0.761E-02    0.662E-01
RMM:   3    -0.413175687254E+03    0.26397E-02   -0.46471E-02  5068   0.784E-02    0.304E-01
RMM:   4    -0.413194941905E+03   -0.19255E-01   -0.32152E-02  5083   0.152E-01    0.640E-01
RMM:   5    -0.413171498123E+03    0.23444E-01   -0.10982E-02  4710   0.107E-01    0.469E-02
RMM:   6    -0.413171637301E+03   -0.13918E-03   -0.19313E-03  5650   0.427E-02    0.328E-02
RMM:   7    -0.413171627588E+03    0.97127E-05   -0.33743E-04  5525   0.178E-02    0.219E-02
RMM:   8    -0.413171623521E+03    0.40665E-05   -0.48377E-05  5038   0.837E-03    0.869E-03
RMM:   9    -0.413171620452E+03    0.30691E-05   -0.93616E-06  3356   0.359E-03    0.521E-03
RMM:  10    -0.413171618684E+03    0.17684E-05   -0.16717E-06  2535   0.213E-03    0.310E-03
RMM:  11    -0.413171617015E+03    0.16692E-05   -0.85208E-07  2495   0.148E-03    0.166E-03
RMM:  12    -0.413171613551E+03    0.34640E-05   -0.10678E-06  2494   0.155E-03    0.867E-04
RMM:  13    -0.413171610612E+03    0.29387E-05   -0.46007E-07  2202   0.110E-03    0.619E-04
RMM:  14    -0.413171610259E+03    0.35319E-06   -0.19494E-07  1623   0.770E-04
   20 T=    62. E= -.41286682E+03 F= -.41317161E+03 E0= -.41314958E+03  EK= 0.30479E+00 SP= 0.00E+00 SK= 0.00E+00
       N       E                     dE             d eps       ncg     rms          rms(c)
RMM:   1    -0.413181907133E+03   -0.10297E-01   -0.64812E+00  4291   0.576E-01    0.911E-01
RMM:   2    -0.413179728979E+03    0.21782E-02   -0.83870E-02  4269   0.769E-02    0.668E-01
RMM:   3    -0.413176710166E+03    0.30188E-02   -0.49989E-02  5058   0.778E-02    0.321E-01
RMM:   4    -0.413196229971E+03   -0.19520E-01   -0.31444E-02  5090   0.151E-01    0.645E-01
RMM:   5    -0.413172620970E+03    0.23609E-01   -0.11579E-02  4714   0.108E-01    0.459E-02
RMM:   6    -0.413172771080E+03   -0.15011E-03   -0.19715E-03  5688   0.429E-02    0.317E-02
RMM:   7    -0.413172770319E+03    0.76096E-06   -0.33748E-04  5552   0.177E-02    0.213E-02
RMM:   8    -0.413172766574E+03    0.37457E-05   -0.47261E-05  4992   0.824E-03    0.854E-03
RMM:   9    -0.413172765908E+03    0.66596E-06   -0.92014E-06  3367   0.365E-03
   21 T=    62. E= -.41286702E+03 F= -.41317277E+03 E0= -.41315078E+03  EK= 0.30574E+00 SP= 0.00E+00 SK= 0.00E+00
       N       E                     dE             d eps       ncg     rms          rms(c)
RMM:   1    -0.413183776615E+03   -0.11010E-01   -0.64768E+00  4302   0.582E-01    0.927E-01
RMM:   2    -0.413180742822E+03    0.30338E-02   -0.84572E-02  4344   0.780E-02    0.671E-01
RMM:   3    -0.413187039858E+03   -0.62970E-02   -0.53574E-02  5144   0.118E-01    0.499E-01
RMM:   4    -0.413185747716E+03    0.12921E-02   -0.31076E-02  5025   0.155E-01    0.471E-01
RMM:   5    -0.413173906930E+03    0.11841E-01   -0.56375E-03  4508   0.808E-02    0.458E-02
RMM:   6    -0.413173924308E+03   -0.17379E-04   -0.89352E-04  5306   0.291E-02    0.297E-02
RMM:   7    -0.413173925788E+03   -0.14800E-05   -0.19009E-04  5272   0.142E-02    0.174E-02
RMM:   8    -0.413173920939E+03    0.48499E-05   -0.29979E-05  4615   0.744E-03    0.544E-03
RMM:   9    -0.413173918515E+03    0.24234E-05   -0.38749E-06  2739   0.258E-03    0.294E-03
RMM:  10    -0.413173916365E+03    0.21498E-05   -0.10266E-06  2481   0.161E-03    0.170E-03
RMM:  11    -0.413173913888E+03    0.24770E-05   -0.61185E-07  2194   0.117E-03    0.823E-04
RMM:  12    -0.413173909653E+03    0.42356E-05   -0.57310E-07  2227   0.107E-03    0.452E-04
RMM:  13    -0.413173906300E+03    0.33527E-05   -0.25658E-07  1523   0.793E-04    0.283E-04
RMM:  14    -0.413173903008E+03    0.32916E-05   -0.16231E-07  1225   0.685E-04    0.161E-04
RMM:  15    -0.413173897301E+03    0.57071E-05   -0.18935E-07  1354   0.715E-04    0.253E-04
RMM:  16    -0.413173891274E+03    0.60268E-05   -0.15684E-07  1165   0.657E-04    0.132E-04
RMM:  17    -0.413173889976E+03    0.12986E-05   -0.57976E-08   855   0.563E-04    0.897E-05
RMM:  18    -0.413173887774E+03    0.22014E-05   -0.46441E-08   917   0.565E-04    0.388E-05
RMM:  19    -0.413173886930E+03    0.84436E-06   -0.24490E-08   742   0.529E-04
   22 T=    62. E= -.41286716E+03 F= -.41317389E+03 E0= -.41315194E+03  EK= 0.30673E+00 SP= 0.00E+00 SK= 0.00E+00
       N       E                     dE             d eps       ncg     rms          rms(c)
RMM:   1    -0.413184306894E+03   -0.10419E-01   -0.64422E+00  4288   0.580E-01    0.927E-01
RMM:   2    -0.413181413979E+03    0.28929E-02   -0.84294E-02  4285   0.779E-02    0.666E-01
RMM:   3    -0.413178280435E+03    0.31335E-02   -0.46170E-02  5026   0.800E-02    0.288E-01
RMM:   4    -0.413199134180E+03   -0.20854E-01   -0.32297E-02  5094   0.153E-01    0.654E-01
RMM:   5    -0.413174503087E+03    0.24631E-01   -0.11459E-02  4718   0.110E-01    0.469E-02
RMM:   6    -0.413174656638E+03   -0.15355E-03   -0.20537E-03  5688   0.440E-02    0.334E-02
RMM:   7    -0.413174645925E+03    0.10713E-04   -0.35219E-04  5535   0.183E-02    0.224E-02
RMM:   8    -0.413174637737E+03    0.81877E-05   -0.49663E-05  5034   0.857E-03    0.923E-03
RMM:   9    -0.413174633839E+03    0.38980E-05   -0.10585E-05  3462   0.372E-03    0.562E-03
RMM:  10    -0.413174631010E+03    0.28287E-05   -0.17269E-06  2539   0.217E-03    0.335E-03
RMM:  11    -0.413174628529E+03    0.24811E-05   -0.92547E-07  2500   0.153E-03    0.181E-03
RMM:  12    -0.413174623680E+03    0.48491E-05   -0.12100E-06  2516   0.165E-03    0.915E-04
RMM:  13    -0.413174620058E+03    0.36221E-05   -0.50000E-07  2256   0.114E-03    0.678E-04
RMM:  14    -0.413174619754E+03    0.30425E-06   -0.20577E-07  1672   0.786E-04
   23 T=    63. E= -.41286693E+03 F= -.41317462E+03 E0= -.41315272E+03  EK= 0.30769E+00 SP= 0.00E+00 SK= 0.00E+00
       N       E                     dE             d eps       ncg     rms          rms(c)
RMM:   1    -0.413185499461E+03   -0.10879E-01   -0.65032E+00  4295   0.588E-01    0.913E-01
RMM:   2    -0.413183358131E+03    0.21413E-02   -0.84577E-02  4289   0.805E-02    0.669E-01
RMM:   3    -0.413179706514E+03    0.36516E-02   -0.49466E-02  4983   0.811E-02    0.301E-01
RMM:   4    -0.413200767626E+03   -0.21061E-01   -0.30773E-02  5095   0.149E-01    0.656E-01
RMM:   5    -0.413176101363E+03    0.24666E-01   -0.12060E-02  4741   0.111E-01    0.456E-02
RMM:   6    -0.413176257992E+03   -0.15663E-03   -0.20850E-03  5740   0.439E-02    0.318E-02
RMM:   7    -0.413176256344E+03    0.16476E-05   -0.34768E-04  5552   0.182E-02    0.217E-02
RMM:   8    -0.413176252320E+03    0.40240E-05   -0.51891E-05  4950   0.867E-03    0.922E-03
RMM:   9    -0.413176250378E+03    0.19424E-05   -0.10735E-05  3501   0.385E-03    0.587E-03
RMM:  10    -0.413176250437E+03   -0.59546E-07   -0.17609E-06  2537   0.219E-03
   24 T=    63. E= -.41286722E+03 F= -.41317625E+03 E0= -.41315440E+03  EK= 0.30904E+00 SP= 0.00E+00 SK= 0.00E+00
       N       E                     dE             d eps       ncg     rms          rms(c)
RMM:   1    -0.413186865824E+03   -0.10615E-01   -0.65465E+00  4301   0.590E-01    0.927E-01
RMM:   2    -0.413184437260E+03    0.24286E-02   -0.85252E-02  4324   0.820E-02    0.675E-01
RMM:   3    -0.413186354518E+03   -0.19173E-02   -0.52348E-02  5091   0.108E-01    0.430E-01
RMM:   4    -0.413193101232E+03   -0.67467E-02   -0.30874E-02  5043   0.153E-01    0.540E-01
RMM:   5    -0.413177184650E+03    0.15917E-01   -0.74371E-03  4590   0.902E-02    0.460E-02
RMM:   6    -0.413177249574E+03   -0.64924E-04   -0.12931E-03  5506   0.340E-02    0.302E-02
RMM:   7    -0.413177244424E+03    0.51500E-05   -0.23967E-04  5399   0.153E-02    0.190E-02
RMM:   8    -0.413177241470E+03    0.29537E-05   -0.34220E-05  4779   0.728E-03    0.646E-03
RMM:   9    -0.413177239749E+03    0.17208E-05   -0.54340E-06  2898   0.284E-03    0.363E-03
RMM:  10    -0.413177238207E+03    0.15419E-05   -0.12020E-06  2507   0.180E-03    0.219E-03
RMM:  11    -0.413177236403E+03    0.18045E-05   -0.65686E-07  2369   0.128E-03    0.111E-03
RMM:  12    -0.413177232859E+03    0.35432E-05   -0.67467E-07  2410   0.120E-03    0.580E-04
RMM:  13    -0.413177230244E+03    0.26157E-05   -0.29411E-07  1803   0.875E-04    0.383E-04
RMM:  14    -0.413177228084E+03    0.21597E-05   -0.15317E-07  1310   0.699E-04    0.215E-04
RMM:  15    -0.413177223099E+03    0.49852E-05   -0.16941E-07  1409   0.717E-04    0.259E-04
RMM:  16    -0.413177217175E+03    0.59241E-05   -0.14901E-07  1173   0.657E-04    0.192E-04
RMM:  17    -0.413177215327E+03    0.18476E-05   -0.59122E-08   917   0.575E-04    0.129E-04
RMM:  18    -0.413177212563E+03    0.27638E-05   -0.48785E-08   964   0.581E-04    0.550E-05
RMM:  19    -0.413177211373E+03    0.11906E-05   -0.27910E-08   831   0.554E-04    0.238E-05
RMM:  20    -0.413177210973E+03    0.39976E-06   -0.14005E-08   690   0.531E-04
   25 T=    63. E= -.41286697E+03 F= -.41317721E+03 E0= -.41315541E+03  EK= 0.31024E+00 SP= 0.00E+00 SK= 0.00E+00
       N       E                     dE             d eps       ncg     rms          rms(c)
RMM:   1    -0.413188706001E+03   -0.11495E-01   -0.65178E+00  4291   0.595E-01    0.936E-01
RMM:   2    -0.413185530983E+03    0.31750E-02   -0.85812E-02  4292   0.807E-02    0.672E-01
RMM:   3    -0.413181959713E+03    0.35713E-02   -0.46167E-02  5005   0.810E-02    0.277E-01
RMM:   4    -0.413204253847E+03   -0.22294E-01   -0.32728E-02  5094   0.154E-01    0.667E-01
RMM:   5    -0.413178503942E+03    0.25750E-01   -0.12053E-02  4734   0.112E-01    0.472E-02
RMM:   6    -0.413178654447E+03   -0.15050E-03   -0.21614E-03  5740   0.447E-02    0.337E-02
RMM:   7    -0.413178646202E+03    0.82442E-05   -0.36069E-04  5538   0.186E-02    0.228E-02
RMM:   8    -0.413178637917E+03    0.82850E-05   -0.52901E-05  5024   0.885E-03    0.972E-03
RMM:   9    -0.413178633377E+03    0.45400E-05   -0.11006E-05  3554   0.391E-03    0.593E-03
RMM:  10    -0.413178629966E+03    0.34116E-05   -0.18752E-06  2554   0.225E-03    0.351E-03
RMM:  11    -0.413178627048E+03    0.29173E-05   -0.98270E-07  2499   0.158E-03    0.191E-03
RMM:  12    -0.413178621489E+03    0.55591E-05   -0.13563E-06  2527   0.172E-03    0.971E-04
RMM:  13    -0.413178617643E+03    0.38464E-05   -0.53362E-07  2297   0.118E-03    0.722E-04
RMM:  14    -0.413178617256E+03    0.38649E-06   -0.21717E-07  1710   0.802E-04
   26 T=    63. E= -.41286697E+03 F= -.41317862E+03 E0= -.41315687E+03  EK= 0.31164E+00 SP= 0.00E+00 SK= 0.00E+00
       N       E                     dE             d eps       ncg     rms          rms(c)
RMM:   1    -0.413190045886E+03   -0.11428E-01   -0.65445E+00  4296   0.606E-01    0.918E-01
RMM:   2    -0.413187610458E+03    0.24354E-02   -0.85623E-02  4286   0.817E-02    0.670E-01
RMM:   3    -0.413183574711E+03    0.40357E-02   -0.48568E-02  5006   0.777E-02    0.287E-01
RMM:   4    -0.413205704312E+03   -0.22130E-01   -0.31086E-02  5103   0.150E-01    0.664E-01
RMM:   5    -0.413180310999E+03    0.25393E-01   -0.12222E-02  4741   0.112E-01    0.459E-02
RMM:   6    -0.413180468814E+03   -0.15782E-03   -0.21457E-03  5782   0.441E-02    0.320E-02
RMM:   7    -0.413180465977E+03    0.28372E-05   -0.34026E-04  5552   0.183E-02    0.220E-02
RMM:   8    -0.413180462990E+03    0.29871E-05   -0.53935E-05  4946   0.877E-03    0.971E-03
RMM:   9    -0.413180460728E+03    0.22621E-05   -0.11036E-05  3582   0.397E-03    0.610E-03
RMM:  10    -0.413180459510E+03    0.12183E-05   -0.18504E-06  2551   0.225E-03    0.361E-03
RMM:  11    -0.413180457909E+03    0.16011E-05   -0.10682E-06  2501   0.166E-03    0.187E-03
RMM:  12    -0.413180454802E+03    0.31062E-05   -0.13226E-06  2513   0.172E-03    0.103E-03
RMM:  13    -0.413180452551E+03    0.22516E-05   -0.43866E-07  2259   0.114E-03    0.662E-04
RMM:  14    -0.413180452018E+03    0.53318E-06   -0.19398E-07  1640   0.776E-04
   27 T=    64. E= -.41286717E+03 F= -.41318045E+03 E0= -.41315875E+03  EK= 0.31328E+00 SP= 0.00E+00 SK= 0.00E+00
       N       E                     dE             d eps       ncg     rms          rms(c)
RMM:   1    -0.413191360793E+03   -0.10908E-01   -0.66373E+00  4293   0.611E-01    0.929E-01
RMM:   2    -0.413188792917E+03    0.25679E-02   -0.87577E-02  4281   0.851E-02    0.679E-01
RMM:   3    -0.413184449540E+03    0.43434E-02   -0.49786E-02  5003   0.751E-02    0.286E-01
RMM:   4    -0.413206960454E+03   -0.22511E-01   -0.30679E-02  5110   0.149E-01    0.666E-01
RMM:   5    -0.413181455817E+03    0.25505E-01   -0.12444E-02  4748   0.112E-01    0.457E-02
RMM:   6    -0.413181609328E+03   -0.15351E-03   -0.21818E-03  5801   0.443E-02    0.316E-02
RMM:   7    -0.413181612166E+03   -0.28378E-05   -0.34073E-04  5550   0.183E-02    0.218E-02
RMM:   8    -0.413181606033E+03    0.61328E-05   -0.54376E-05  4930   0.879E-03    0.982E-03
RMM:   9    -0.413181603431E+03    0.26023E-05   -0.10990E-05  3605   0.403E-03    0.623E-03
RMM:  10    -0.413181602842E+03    0.58833E-06   -0.19680E-06  2566   0.230E-03
   28 T=    64. E= -.41286688E+03 F= -.41318160E+03 E0= -.41315995E+03  EK= 0.31473E+00 SP= 0.00E+00 SK= 0.00E+00
       N       E                     dE             d eps       ncg     rms          rms(c)
RMM:   1    -0.413193867950E+03   -0.12265E-01   -0.66064E+00  4296   0.613E-01    0.945E-01
RMM:   2    -0.413190732473E+03    0.31355E-02   -0.87371E-02  4316   0.864E-02    0.679E-01
RMM:   3    -0.413191594818E+03   -0.86234E-03   -0.49670E-02  5109   0.101E-01    0.395E-01
RMM:   4    -0.413201324047E+03   -0.97292E-02   -0.32174E-02  5042   0.156E-01    0.562E-01
RMM:   5    -0.413183588198E+03    0.17736E-01   -0.77788E-03  4631   0.939E-02    0.471E-02
RMM:   6    -0.413183639687E+03   -0.51489E-04   -0.14400E-03  5603   0.362E-02    0.319E-02
RMM:   7    -0.413183635645E+03    0.40418E-05   -0.26641E-04  5412   0.166E-02    0.204E-02
RMM:   8    -0.413183632303E+03    0.33419E-05   -0.39628E-05  4856   0.815E-03    0.736E-03
RMM:   9    -0.413183628114E+03    0.41893E-05   -0.72029E-06  3052   0.325E-03    0.396E-03
RMM:  10    -0.413183623566E+03    0.45476E-05   -0.14807E-06  2532   0.198E-03    0.239E-03
RMM:  11    -0.413183619279E+03    0.42869E-05   -0.79635E-07  2443   0.140E-03    0.124E-03
RMM:  12    -0.413183612005E+03    0.72745E-05   -0.82524E-07  2466   0.132E-03    0.624E-04
RMM:  13    -0.413183607827E+03    0.41773E-05   -0.36776E-07  1960   0.952E-04    0.438E-04
RMM:  14    -0.413183604792E+03    0.30355E-05   -0.18612E-07  1455   0.737E-04    0.261E-04
RMM:  15    -0.413183597536E+03    0.72554E-05   -0.19041E-07  1517   0.744E-04    0.285E-04
RMM:  16    -0.413183589768E+03    0.77682E-05   -0.14786E-07  1237   0.670E-04    0.219E-04
RMM:  17    -0.413183586824E+03    0.29443E-05   -0.70619E-08   975   0.585E-04    0.146E-04
RMM:  18    -0.413183583150E+03    0.36735E-05   -0.60625E-08  1090   0.600E-04    0.470E-05
RMM:  19    -0.413183582255E+03    0.89510E-06   -0.30102E-08   845   0.550E-04
   29 T=    64. E= -.41286712E+03 F= -.41318358E+03 E0= -.41316198E+03  EK= 0.31647E+00 SP= 0.00E+00 SK= 0.00E+00
       N       E                     dE             d eps       ncg     rms          rms(c)
RMM:   1    -0.413195151251E+03   -0.11568E-01   -0.66023E+00  4293   0.623E-01    0.927E-01
RMM:   2    -0.413192843960E+03    0.23073E-02   -0.87126E-02  4284   0.913E-02    0.674E-01
RMM:   3    -0.413188242713E+03    0.46012E-02   -0.48028E-02  4969   0.777E-02    0.270E-01
RMM:   4    -0.413211414666E+03   -0.23172E-01   -0.31060E-02  5111   0.150E-01    0.672E-01
RMM:   5    -0.413185310684E+03    0.26104E-01   -0.12659E-02  4753   0.113E-01    0.459E-02
RMM:   6    -0.413185472287E+03   -0.16160E-03   -0.22496E-03  5827   0.449E-02    0.321E-02
RMM:   7    -0.413185486533E+03   -0.14246E-04   -0.33528E-04  5565   0.184E-02    0.219E-02
RMM:   8    -0.413185485076E+03    0.14564E-05   -0.58466E-05  4917   0.916E-03    0.104E-02
RMM:   9    -0.413185482324E+03    0.27523E-05   -0.12455E-05  3693   0.425E-03    0.653E-03
RMM:  10    -0.413185481093E+03    0.12311E-05   -0.21901E-06  2587   0.243E-03    0.381E-03
RMM:  11    -0.413185479429E+03    0.16640E-05   -0.11863E-06  2507   0.175E-03    0.199E-03
RMM:  12    -0.413185476358E+03    0.30712E-05   -0.14553E-06  2527   0.182E-03    0.110E-03
RMM:  13    -0.413185474540E+03    0.18180E-05   -0.46919E-07  2297   0.119E-03    0.708E-04
RMM:  14    -0.413185473810E+03    0.72962E-06   -0.20873E-07  1706   0.800E-04
   30 T=    65. E= -.41286724E+03 F= -.41318547E+03 E0= -.41316393E+03  EK= 0.31823E+00 SP= 0.00E+00 SK= 0.00E+00
       N       E                     dE             d eps       ncg     rms          rms(c)
RMM:   1    -0.413197653763E+03   -0.12179E-01   -0.67340E+00  4297   0.641E-01    0.931E-01
RMM:   2    -0.413194957356E+03    0.26964E-02   -0.92376E-02  4274   0.968E-02    0.685E-01
RMM:   3    -0.413189375684E+03    0.55817E-02   -0.50058E-02  4857   0.796E-02    0.266E-01
RMM:   4    -0.413210940651E+03   -0.21565E-01   -0.26935E-02  5123   0.140E-01    0.645E-01
RMM:   5    -0.413186903769E+03    0.24037E-01   -0.11877E-02  4778   0.108E-01    0.439E-02
RMM:   6    -0.413187049691E+03   -0.14592E-03   -0.20135E-03  5851   0.426E-02    0.300E-02
RMM:   7    -0.413187063437E+03   -0.13745E-04   -0.27829E-04  5592   0.169E-02    0.193E-02
RMM:   8    -0.413187062380E+03    0.10570E-05   -0.56442E-05  4953   0.834E-03    0.993E-03
RMM:   9    -0.413187059696E+03    0.26840E-05   -0.11042E-05  3721   0.406E-03    0.640E-03
RMM:  10    -0.413187059645E+03    0.50393E-07   -0.20080E-06  2567   0.231E-03
   31 T=    65. E= -.41286702E+03 F= -.41318706E+03 E0= -.41316556E+03  EK= 0.32004E+00 SP= 0.00E+00 SK= 0.00E+00
       N       E                     dE             d eps       ncg     rms          rms(c)
RMM:   1    -0.413200433994E+03   -0.13374E-01   -0.67069E+00  4304   0.650E-01    0.951E-01
RMM:   2    -0.413197231251E+03    0.32027E-02   -0.90477E-02  4295   0.101E-01    0.685E-01
RMM:   3    -0.413195953125E+03    0.12781E-02   -0.49509E-02  5040   0.104E-01    0.357E-01
RMM:   4    -0.413211271106E+03   -0.15318E-01   -0.33662E-02  5057   0.158E-01    0.617E-01
RMM:   5    -0.413189570016E+03    0.21701E-01   -0.96975E-03  4675   0.102E-01    0.476E-02
RMM:   6    -0.413189686138E+03   -0.11612E-03   -0.18385E-03  5695   0.404E-02    0.330E-02
RMM:   7    -0.413189692482E+03   -0.63439E-05   -0.31724E-04  5463   0.176E-02    0.220E-02
RMM:   8    -0.413189689097E+03    0.33846E-05   -0.45810E-05  4976   0.835E-03    0.857E-03
RMM:   9    -0.413189684613E+03    0.44836E-05   -0.91724E-06  3209   0.357E-03    0.472E-03
RMM:  10    -0.413189680049E+03    0.45643E-05   -0.16804E-06  2541   0.214E-03    0.286E-03
RMM:  11    -0.413189675828E+03    0.42209E-05   -0.87260E-07  2487   0.149E-03    0.152E-03
RMM:  12    -0.413189668266E+03    0.75620E-05   -0.95368E-07  2481   0.146E-03    0.735E-04
RMM:  13    -0.413189664334E+03    0.39323E-05   -0.41345E-07  2144   0.104E-03    0.540E-04
RMM:  14    -0.413189661921E+03    0.24131E-05   -0.19729E-07  1597   0.770E-04    0.333E-04
RMM:  15    -0.413189655402E+03    0.65193E-05   -0.16789E-07  1543   0.743E-04    0.267E-04
RMM:  16    -0.413189648026E+03    0.73756E-05   -0.12583E-07  1280   0.661E-04    0.268E-04
RMM:  17    -0.413189643311E+03    0.47146E-05   -0.76253E-08  1042   0.594E-04    0.192E-04
RMM:  18    -0.413189639365E+03    0.39468E-05   -0.62852E-08  1101   0.596E-04    0.508E-05
RMM:  19    -0.413189638084E+03    0.12803E-05   -0.32867E-08   901   0.556E-04    0.453E-05
RMM:  20    -0.413189637579E+03    0.50572E-06   -0.18736E-08   771   0.530E-04
   32 T=    66. E= -.41286736E+03 F= -.41318964E+03 E0= -.41316819E+03  EK= 0.32227E+00 SP= 0.00E+00 SK= 0.00E+00
       N       E                     dE             d eps       ncg     rms          rms(c)
RMM:   1    -0.413201734245E+03   -0.12096E-01   -0.66938E+00  4299   0.659E-01    0.939E-01
RMM:   2    -0.413198934477E+03    0.27998E-02   -0.90193E-02  4274   0.101E-01    0.680E-01
RMM:   3    -0.413193619887E+03    0.53146E-02   -0.47643E-02  4836   0.849E-02    0.242E-01
RMM:   4    -0.413216507308E+03   -0.22887E-01   -0.27983E-02  5120   0.143E-01    0.659E-01
RMM:   5    -0.413191273442E+03    0.25234E-01   -0.12332E-02  4772   0.111E-01    0.451E-02
RMM:   6    -0.413191440962E+03   -0.16752E-03   -0.21797E-03  5823   0.439E-02    0.315E-02
RMM:   7    -0.413191462756E+03   -0.21794E-04   -0.28032E-04  5573   0.175E-02    0.196E-02
RMM:   8    -0.413191462630E+03    0.12620E-06   -0.60907E-05  4973   0.864E-03    0.108E-02
RMM:   9    -0.413191457901E+03    0.47288E-05   -0.12552E-05  3883   0.428E-03    0.687E-03
RMM:  10    -0.413191455737E+03    0.21640E-05   -0.22556E-06  2602   0.250E-03    0.398E-03
RMM:  11    -0.413191453185E+03    0.25519E-05   -0.13765E-06  2522   0.186E-03    0.210E-03
RMM:  12    -0.413191448732E+03    0.44527E-05   -0.15322E-06  2525   0.191E-03    0.119E-03
RMM:  13    -0.413191446475E+03    0.22571E-05   -0.47322E-07  2311   0.121E-03    0.734E-04
RMM:  14    -0.413191445628E+03    0.84690E-06   -0.21169E-07  1748   0.809E-04
   33 T=    66. E= -.41286709E+03 F= -.41319145E+03 E0= -.41317004E+03  EK= 0.32435E+00 SP= 0.00E+00 SK= 0.00E+00
       N       E                     dE             d eps       ncg     rms          rms(c)
RMM:   1    -0.413205055973E+03   -0.13609E-01   -0.68344E+00  4304   0.676E-01    0.935E-01
RMM:   2    -0.413201476430E+03    0.35795E-02   -0.96087E-02  4267   0.105E-01    0.690E-01
RMM:   3    -0.413195493791E+03    0.59826E-02   -0.49911E-02  4658   0.831E-02    0.241E-01
RMM:   4    -0.413209119129E+03   -0.13625E-01   -0.16855E-02  5126   0.112E-01    0.519E-01
RMM:   5    -0.413193692528E+03    0.15427E-01   -0.76265E-03  4791   0.863E-02    0.402E-02
RMM:   6    -0.413193789243E+03   -0.96716E-04   -0.13546E-03  5824   0.344E-02    0.272E-02
RMM:   7    -0.413193806065E+03   -0.16822E-04   -0.16612E-04  5433   0.143E-02    0.149E-02
RMM:   8    -0.413193800400E+03    0.56652E-05   -0.32281E-05  4700   0.618E-03    0.798E-03
RMM:   9    -0.413193801395E+03   -0.99433E-06   -0.85864E-06  3529   0.348E-03
   34 T=    67. E= -.41286713E+03 F= -.41319380E+03 E0= -.41317245E+03  EK= 0.32667E+00 SP= 0.00E+00 SK= 0.00E+00
       N       E                     dE             d eps       ncg     rms          rms(c)
RMM:   1    -0.413207493932E+03   -0.13694E-01   -0.68274E+00  4304   0.685E-01    0.958E-01
RMM:   2    -0.413203671891E+03    0.38220E-02   -0.92490E-02  4287   0.115E-01    0.692E-01
RMM:   3    -0.413202889057E+03    0.78283E-03   -0.50748E-02  5003   0.115E-01    0.361E-01
RMM:   4    -0.413218678163E+03   -0.15789E-01   -0.33928E-02  5040   0.159E-01    0.625E-01
RMM:   5    -0.413196418962E+03    0.22259E-01   -0.10045E-02  4679   0.104E-01    0.475E-02
RMM:   6    -0.413196537459E+03   -0.11850E-03   -0.18892E-03  5720   0.405E-02    0.330E-02
RMM:   7    -0.413196543088E+03   -0.56283E-05   -0.32228E-04  5446   0.177E-02    0.224E-02
RMM:   8    -0.413196542215E+03    0.87238E-06   -0.51404E-05  4973   0.902E-03    0.909E-03
RMM:   9    -0.413196537788E+03    0.44270E-05   -0.99921E-06  3291   0.389E-03    0.478E-03
RMM:  10    -0.413196533685E+03    0.41028E-05   -0.18519E-06  2566   0.226E-03    0.289E-03
RMM:  11    -0.413196529600E+03    0.40855E-05   -0.92996E-07  2493   0.156E-03    0.152E-03
RMM:  12    -0.413196522002E+03    0.75978E-05   -0.99847E-07  2478   0.154E-03    0.763E-04
RMM:  13    -0.413196517993E+03    0.40095E-05   -0.40655E-07  2174   0.106E-03    0.569E-04
RMM:  14    -0.413196515782E+03    0.22109E-05   -0.19006E-07  1588   0.770E-04    0.352E-04
RMM:  15    -0.413196507857E+03    0.79251E-05   -0.19689E-07  1781   0.782E-04    0.392E-04
RMM:  16    -0.413196500228E+03    0.76286E-05   -0.12226E-07  1241   0.643E-04    0.338E-04
RMM:  17    -0.413196494332E+03    0.58962E-05   -0.83328E-08  1076   0.605E-04    0.245E-04
RMM:  18    -0.413196491676E+03    0.26554E-05   -0.56083E-08  1054   0.592E-04    0.729E-05
RMM:  19    -0.413196489575E+03    0.21013E-05   -0.40626E-08  1039   0.580E-04    0.105E-04
RMM:  20    -0.413196489560E+03    0.14876E-07   -0.15458E-08   698   0.516E-04
   35 T=    67. E= -.41286734E+03 F= -.41319649E+03 E0= -.41317518E+03  EK= 0.32915E+00 SP= 0.00E+00 SK= 0.00E+00
       N       E                     dE             d eps       ncg     rms          rms(c)
RMM:   1    -0.413209308644E+03   -0.12819E-01   -0.68152E+00  4305   0.708E-01    0.955E-01
RMM:   2    -0.413205642948E+03    0.36657E-02   -0.93166E-02  4263   0.119E-01    0.689E-01
RMM:   3    -0.413199570655E+03    0.60723E-02   -0.47711E-02  4438   0.907E-02    0.194E-01
RMM:   4    -0.413203038325E+03   -0.34677E-02   -0.56329E-03  5115   0.656E-02    0.286E-01
RMM:   5    -0.413198483547E+03    0.45548E-02   -0.22828E-03  4797   0.473E-02    0.380E-02
RMM:   6    -0.413198541348E+03   -0.57801E-04   -0.64141E-04  5625   0.245E-02    0.315E-02
RMM:   7    -0.413198537255E+03    0.40936E-05   -0.21170E-04  5099   0.161E-02    0.193E-02
RMM:   8    -0.413198528578E+03    0.86769E-05   -0.26895E-05  4436   0.597E-03    0.655E-03
RMM:   9    -0.413198527053E+03    0.15245E-05   -0.38490E-06  2694   0.244E-03    0.360E-03
RMM:  10    -0.413198523835E+03    0.32184E-05   -0.11834E-06  2494   0.181E-03    0.175E-03
RMM:  11    -0.413198520395E+03    0.34394E-05   -0.63993E-07  2391   0.129E-03    0.845E-04
RMM:  12    -0.413198516920E+03    0.34754E-05   -0.36005E-07  2012   0.972E-04    0.417E-04
RMM:  13    -0.413198514122E+03    0.27980E-05   -0.17733E-07  1457   0.750E-04    0.241E-04
RMM:  14    -0.413198509980E+03    0.41421E-05   -0.11446E-07  1123   0.674E-04    0.195E-04
RMM:  15    -0.413198503302E+03    0.66784E-05   -0.11272E-07  1178   0.670E-04    0.114E-04
RMM:  16    -0.413198500466E+03    0.28352E-05   -0.56711E-08   984   0.608E-04    0.106E-04
RMM:  17    -0.413198495122E+03    0.53447E-05   -0.63477E-08  1191   0.622E-04    0.602E-05
RMM:  18    -0.413198493271E+03    0.18508E-05   -0.27808E-08   835   0.550E-04    0.309E-05
RMM:  19    -0.413198492497E+03    0.77393E-06   -0.17003E-08   730   0.534E-04
   36 T=    67. E= -.41286699E+03 F= -.41319849E+03 E0= -.41317723E+03  EK= 0.33150E+00 SP= 0.00E+00 SK= 0.00E+00
       N       E                     dE             d eps       ncg     rms          rms(c)
RMM:   1    -0.413212140428E+03   -0.13647E-01   -0.69239E+00  4309   0.727E-01    0.946E-01
RMM:   2    -0.413209106383E+03    0.30340E-02   -0.96263E-02  4263   0.121E-01    0.694E-01
RMM:   3    -0.413202835320E+03    0.62711E-02   -0.51268E-02  4341   0.953E-02    0.226E-01
RMM:   4    -0.413201800777E+03    0.10345E-02   -0.23909E-03  4820   0.325E-02    0.713E-02
RMM:   5    -0.413201623767E+03    0.17701E-03   -0.22402E-04  4722   0.143E-02    0.401E-02
RMM:   6    -0.413201653685E+03   -0.29917E-04   -0.34301E-04  5191   0.177E-02    0.308E-02
RMM:   7    -0.413201655551E+03   -0.18663E-05   -0.15794E-04  4750   0.141E-02    0.206E-02
RMM:   8    -0.413201647122E+03    0.84293E-05   -0.29563E-05  4374   0.535E-03    0.563E-03
RMM:   9    -0.413201647949E+03   -0.82740E-06   -0.76206E-06  2432   0.230E-03
   37 T=    68. E= -.41286736E+03 F= -.41320165E+03 E0= -.41318043E+03  EK= 0.33429E+00 SP= 0.00E+00 SK= 0.00E+00
       N       E                     dE             d eps       ncg     rms          rms(c)
RMM:   1    -0.413215774062E+03   -0.14127E-01   -0.69793E+00  4310   0.752E-01    0.964E-01
RMM:   2    -0.413212006785E+03    0.37673E-02   -0.96711E-02  4262   0.115E-01    0.701E-01
RMM:   3    -0.413205391314E+03    0.66155E-02   -0.50008E-02  4420   0.868E-02    0.210E-01
RMM:   4    -0.413206068951E+03   -0.67764E-03   -0.35792E-03  5092   0.494E-02    0.185E-01
RMM:   5    -0.413204238495E+03    0.18305E-02   -0.95736E-04  4777   0.317E-02    0.388E-02
RMM:   6    -0.413204256036E+03   -0.17541E-04   -0.42723E-04  5403   0.208E-02    0.313E-02
RMM:   7    -0.413204260842E+03   -0.48060E-05   -0.18322E-04  4953   0.147E-02    0.201E-02
RMM:   8    -0.413204252335E+03    0.85072E-05   -0.28269E-05  4736   0.606E-03    0.739E-03
RMM:   9    -0.413204251521E+03    0.81407E-06   -0.73457E-06  2600   0.243E-03
   38 T=    69. E= -.41286728E+03 F= -.41320425E+03 E0= -.41318307E+03  EK= 0.33697E+00 SP= 0.00E+00 SK= 0.00E+00
       N       E                     dE             d eps       ncg     rms          rms(c)
RMM:   1    -0.413219008969E+03   -0.14757E-01   -0.69708E+00  4308   0.792E-01    0.972E-01
RMM:   2    -0.413214567729E+03    0.44412E-02   -0.97675E-02  4267   0.114E-01    0.699E-01
RMM:   3    -0.413208000433E+03    0.65673E-02   -0.47646E-02  4547   0.817E-02    0.186E-01
RMM:   4    -0.413214252802E+03   -0.62524E-02   -0.84216E-03  5137   0.790E-02    0.362E-01
RMM:   5    -0.413206934213E+03    0.73186E-02   -0.36566E-03  4805   0.603E-02    0.409E-02
RMM:   6    -0.413206947510E+03   -0.13297E-04   -0.81858E-04  5629   0.286E-02    0.322E-02
RMM:   7    -0.413206952325E+03   -0.48150E-05   -0.24638E-04  5258   0.164E-02    0.202E-02
RMM:   8    -0.413206940692E+03    0.11633E-04   -0.38353E-05  5087   0.719E-03    0.890E-03
RMM:   9    -0.413206937560E+03    0.31325E-05   -0.67554E-06  2845   0.284E-03    0.380E-03
RMM:  10    -0.413206931457E+03    0.61023E-05   -0.15124E-06  2509   0.193E-03    0.200E-03
RMM:  11    -0.413206924008E+03    0.74495E-05   -0.79286E-07  2459   0.141E-03    0.962E-04
RMM:  12    -0.413206918054E+03    0.59535E-05   -0.41546E-07  2159   0.104E-03    0.513E-04
RMM:  13    -0.413206912453E+03    0.56016E-05   -0.22034E-07  1626   0.799E-04    0.304E-04
RMM:  14    -0.413206905570E+03    0.68832E-05   -0.14795E-07  1304   0.712E-04    0.226E-04
RMM:  15    -0.413206893415E+03    0.12154E-04   -0.16706E-07  1533   0.736E-04    0.183E-04
RMM:  16    -0.413206888302E+03    0.51139E-05   -0.80118E-08  1165   0.616E-04    0.148E-04
RMM:  17    -0.413206883084E+03    0.52173E-05   -0.62337E-08  1154   0.605E-04    0.635E-05
RMM:  18    -0.413206880485E+03    0.25995E-05   -0.42043E-08  1012   0.564E-04    0.480E-05
RMM:  19    -0.413206880011E+03    0.47399E-06   -0.21476E-08   760   0.517E-04
   39 T=    69. E= -.41286714E+03 F= -.41320688E+03 E0= -.41318574E+03  EK= 0.33974E+00 SP= 0.00E+00 SK= 0.00E+00
       N       E                     dE             d eps       ncg     rms          rms(c)
RMM:   1    -0.413222177436E+03   -0.15297E-01   -0.70407E+00  4313   0.817E-01    0.957E-01
RMM:   2    -0.413218179692E+03    0.39977E-02   -0.99700E-02  4259   0.115E-01    0.700E-01
RMM:   3    -0.413212102633E+03    0.60771E-02   -0.50981E-02  4761   0.890E-02    0.240E-01
RMM:   4    -0.413233335828E+03   -0.21233E-01   -0.25592E-02  5117   0.137E-01    0.636E-01
RMM:   5    -0.413210106388E+03    0.23229E-01   -0.11377E-02  4792   0.106E-01    0.454E-02
RMM:   6    -0.413210149513E+03   -0.43125E-04   -0.19353E-03  5779   0.419E-02    0.305E-02
RMM:   7    -0.413210179384E+03   -0.29871E-04   -0.31487E-04  5594   0.170E-02    0.204E-02
RMM:   8    -0.413210171305E+03    0.80791E-05   -0.59307E-05  5063   0.830E-03    0.102E-02
RMM:   9    -0.413210172353E+03   -0.10481E-05   -0.12128E-05  3814   0.425E-03    0.573E-03
RMM:  10    -0.413210171822E+03    0.53053E-06   -0.21715E-06  2603   0.233E-03
   40 T=    70. E= -.41286748E+03 F= -.41321017E+03 E0= -.41318907E+03  EK= 0.34270E+00 SP= 0.00E+00 SK= 0.00E+00
       N       E                     dE             d eps       ncg     rms          rms(c)
RMM:   1    -0.413225151806E+03   -0.14979E-01   -0.71427E+00  4315   0.845E-01    0.968E-01
RMM:   2    -0.413220677682E+03    0.44741E-02   -0.10482E-01  4282   0.117E-01    0.710E-01
RMM:   3    -0.413217614528E+03    0.30632E-02   -0.52713E-02  4998   0.104E-01    0.331E-01
RMM:   4    -0.413242072252E+03   -0.24458E-01   -0.40291E-02  5072   0.172E-01    0.718E-01
RMM:   5    -0.413212402503E+03    0.29670E-01   -0.13500E-02  4727   0.120E-01    0.503E-02
RMM:   6    -0.413212471292E+03   -0.68789E-04   -0.24103E-03  5760   0.459E-02    0.316E-02
RMM:   7    -0.413212491486E+03   -0.20193E-04   -0.32000E-04  5613   0.174E-02    0.210E-02
RMM:   8    -0.413212494239E+03   -0.27539E-05   -0.80479E-05  5104   0.940E-03    0.116E-02
RMM:   9    -0.413212488088E+03    0.61519E-05   -0.14205E-05  4029   0.476E-03    0.553E-03
RMM:  10    -0.413212485633E+03    0.24545E-05   -0.27171E-06  2677   0.248E-03    0.321E-03
RMM:  11    -0.413212483121E+03    0.25125E-05   -0.11362E-06  2505   0.170E-03    0.179E-03
RMM:  12    -0.413212477250E+03    0.58708E-05   -0.12609E-06  2509   0.167E-03    0.949E-04
RMM:  13    -0.413212472938E+03    0.43117E-05   -0.47928E-07  2270   0.115E-03    0.594E-04
RMM:  14    -0.413212471483E+03    0.14550E-05   -0.21149E-07  1670   0.794E-04    0.337E-04
RMM:  15    -0.413212464705E+03    0.67779E-05   -0.18799E-07  1577   0.772E-04    0.315E-04
RMM:  16    -0.413212459367E+03    0.53385E-05   -0.11715E-07  1283   0.671E-04    0.312E-04
RMM:  17    -0.413212455614E+03    0.37530E-05   -0.71750E-08  1090   0.606E-04    0.209E-04
RMM:  18    -0.413212451000E+03    0.46137E-05   -0.65686E-08  1228   0.617E-04    0.106E-04
RMM:  19    -0.413212449256E+03    0.17439E-05   -0.37212E-08   966   0.559E-04    0.468E-05
RMM:  20    -0.413212448279E+03    0.97742E-06   -0.24225E-08   842   0.535E-04
   41 T=    70. E= -.41286720E+03 F= -.41321245E+03 E0= -.41319138E+03  EK= 0.34524E+00 SP= 0.00E+00 SK= 0.00E+00
       N       E                     dE             d eps       ncg     rms          rms(c)
RMM:   1    -0.413229830935E+03   -0.17382E-01   -0.71300E+00  4316   0.916E-01    0.986E-01
RMM:   2    -0.413223057468E+03    0.67735E-02   -0.10554E-01  4308   0.123E-01    0.709E-01
RMM:   3    -0.413217573763E+03    0.54837E-02   -0.47718E-02  4926   0.874E-02    0.231E-01
RMM:   4    -0.413247631845E+03   -0.30058E-01   -0.37433E-02  5111   0.164E-01    0.747E-01
RMM:   5    -0.413215081640E+03    0.32550E-01   -0.15408E-02  4778   0.125E-01    0.505E-02
RMM:   6    -0.413215163271E+03   -0.81631E-04   -0.26305E-03  5786   0.480E-02    0.318E-02
RMM:   7    -0.413215192921E+03   -0.29650E-04   -0.32416E-04  5696   0.170E-02    0.191E-02
RMM:   8    -0.413215190536E+03    0.23849E-05   -0.56063E-05  5034   0.779E-03    0.102E-02
RMM:   9    -0.413215190167E+03    0.36869E-06   -0.19377E-05  4456   0.483E-03    0.664E-03
RMM:  10    -0.413215185604E+03    0.45627E-05   -0.28090E-06  2647   0.269E-03    0.371E-03
RMM:  11    -0.413215183024E+03    0.25805E-05   -0.11997E-06  2497   0.180E-03    0.221E-03
RMM:  12    -0.413215176369E+03    0.66550E-05   -0.13828E-06  2502   0.187E-03    0.122E-03
RMM:  13    -0.413215172303E+03    0.40661E-05   -0.52532E-07  2358   0.127E-03    0.802E-04
RMM:  14    -0.413215171072E+03    0.12311E-05   -0.21762E-07  1848   0.841E-04    0.450E-04
RMM:  15    -0.413215167254E+03    0.38178E-05   -0.12180E-07  1364   0.706E-04    0.187E-04
RMM:  16    -0.413215162050E+03    0.52040E-05   -0.10595E-07  1470   0.692E-04    0.350E-04
RMM:  17    -0.413215159339E+03    0.27110E-05   -0.50364E-08   971   0.577E-04    0.288E-04
RMM:  18    -0.413215153162E+03    0.61772E-05   -0.60641E-08  1188   0.609E-04    0.201E-04
RMM:  19    -0.413215151071E+03    0.20910E-05   -0.32582E-08   923   0.549E-04    0.656E-05
RMM:  20    -0.413215149770E+03    0.13005E-05   -0.23134E-08   857   0.540E-04    0.538E-05
RMM:  21    -0.413215149457E+03    0.31336E-06   -0.13940E-08   722   0.518E-04
   42 T=    71. E= -.41286733E+03 F= -.41321515E+03 E0= -.41319411E+03  EK= 0.34782E+00 SP= 0.00E+00 SK= 0.00E+00
       N       E                     dE             d eps       ncg     rms          rms(c)
RMM:   1    -0.413232005669E+03   -0.16856E-01   -0.71457E+00  4316   0.954E-01    0.968E-01
RMM:   2    -0.413225543049E+03    0.64626E-02   -0.10497E-01  4364   0.121E-01    0.706E-01
RMM:   3    -0.413220364466E+03    0.51786E-02   -0.50231E-02  4947   0.921E-02    0.264E-01
RMM:   4    -0.413249808766E+03   -0.29444E-01   -0.38685E-02  5104   0.167E-01    0.748E-01
RMM:   5    -0.413217253407E+03    0.32555E-01   -0.15347E-02  4776   0.125E-01    0.505E-02
RMM:   6    -0.413217328571E+03   -0.75164E-04   -0.26194E-03  5772   0.478E-02    0.309E-02
RMM:   7    -0.413217358704E+03   -0.30134E-04   -0.30863E-04  5708   0.166E-02    0.181E-02
RMM:   8    -0.413217357019E+03    0.16854E-05   -0.48288E-05  4924   0.725E-03    0.907E-03
RMM:   9    -0.413217359057E+03   -0.20375E-05   -0.18401E-05  4354   0.461E-03    0.650E-03
RMM:  10    -0.413217355638E+03    0.34182E-05   -0.29793E-06  2669   0.270E-03    0.360E-03
RMM:  11    -0.413217353999E+03    0.16388E-05   -0.12788E-06  2502   0.183E-03    0.211E-03
RMM:  12    -0.413217349411E+03    0.45882E-05   -0.14143E-06  2507   0.185E-03    0.116E-03
RMM:  13    -0.413217346443E+03    0.29685E-05   -0.52714E-07  2360   0.125E-03    0.744E-04
RMM:  14    -0.413217345316E+03    0.11266E-05   -0.21539E-07  1774   0.826E-04    0.411E-04
RMM:  15    -0.413217341445E+03    0.38707E-05   -0.13466E-07  1441   0.727E-04    0.200E-04
RMM:  16    -0.413217337551E+03    0.38949E-05   -0.90012E-08  1280   0.660E-04    0.265E-04
RMM:  17    -0.413217334695E+03    0.28551E-05   -0.53602E-08  1006   0.592E-04    0.227E-04
RMM:  18    -0.413217329753E+03    0.49422E-05   -0.60903E-08  1199   0.616E-04    0.116E-04
RMM:  19    -0.413217327434E+03    0.23192E-05   -0.32788E-08   965   0.562E-04    0.411E-05
RMM:  20    -0.413217326670E+03    0.76357E-06   -0.17539E-08   779   0.527E-04
   43 T=    71. E= -.41286735E+03 F= -.41321733E+03 E0= -.41319631E+03  EK= 0.34997E+00 SP= 0.00E+00 SK= 0.00E+00
       N       E                     dE             d eps       ncg     rms          rms(c)
RMM:   1    -0.413235003844E+03   -0.17676E-01   -0.72749E+00  4316   0.103E+00    0.971E-01
RMM:   2    -0.413226969495E+03    0.80343E-02   -0.11250E-01  4390   0.134E-01    0.717E-01
RMM:   3    -0.413222202066E+03    0.47674E-02   -0.50918E-02  4961   0.975E-02    0.289E-01
RMM:   4    -0.413253367699E+03   -0.31166E-01   -0.43342E-02  5095   0.177E-01    0.776E-01
RMM:   5    -0.413218282712E+03    0.35085E-01   -0.16195E-02  4765   0.130E-01    0.518E-02
RMM:   6    -0.413218361662E+03   -0.78951E-04   -0.27794E-03  5777   0.491E-02    0.303E-02
RMM:   7    -0.413218392934E+03   -0.31272E-04   -0.31212E-04  5711   0.164E-02    0.177E-02
RMM:   8    -0.413218397965E+03   -0.50308E-05   -0.49090E-05  4949   0.714E-03    0.872E-03
RMM:   9    -0.413218396220E+03    0.17447E-05   -0.16672E-05  4269   0.442E-03    0.596E-03
RMM:  10    -0.413218395753E+03    0.46684E-06   -0.38047E-06  2816   0.275E-03
   44 T=    72. E= -.41286713E+03 F= -.41321840E+03 E0= -.41319741E+03  EK= 0.35126E+00 SP= 0.00E+00 SK= 0.00E+00
       N       E                     dE             d eps       ncg     rms          rms(c)
RMM:   1    -0.413237429649E+03   -0.19033E-01   -0.72143E+00  4315   0.108E+00    0.991E-01
RMM:   2    -0.413228014209E+03    0.94154E-02   -0.11079E-01  4429   0.137E-01    0.716E-01
RMM:   3    -0.413230403163E+03   -0.23890E-02   -0.53498E-02  5085   0.126E-01    0.441E-01
RMM:   4    -0.413240335217E+03   -0.99321E-02   -0.39845E-02  5039   0.175E-01    0.602E-01
RMM:   5    -0.413219649123E+03    0.20686E-01   -0.80469E-03  4626   0.101E-01    0.499E-02
RMM:   6    -0.413219649865E+03   -0.74193E-06   -0.15911E-03  5609   0.380E-02    0.302E-02
RMM:   7    -0.413219658340E+03   -0.84757E-05   -0.26808E-04  5486   0.165E-02    0.214E-02
RMM:   8    -0.413219655947E+03    0.23935E-05   -0.77668E-05  5032   0.978E-03    0.997E-03
RMM:   9    -0.413219648864E+03    0.70830E-05   -0.94367E-06  3491   0.431E-03    0.427E-03
RMM:  10    -0.413219643886E+03    0.49774E-05   -0.18889E-06  2587   0.215E-03    0.240E-03
RMM:  11    -0.413219638422E+03    0.54645E-05   -0.99888E-07  2484   0.156E-03    0.124E-03
RMM:  12    -0.413219629853E+03    0.85694E-05   -0.73612E-07  2375   0.130E-03    0.610E-04
RMM:  13    -0.413219625346E+03    0.45061E-05   -0.30298E-07  1924   0.918E-04    0.365E-04
RMM:  14    -0.413219621537E+03    0.38096E-05   -0.16127E-07  1296   0.716E-04    0.188E-04
RMM:  15    -0.413219610215E+03    0.11322E-04   -0.18577E-07  1602   0.774E-04    0.243E-04
RMM:  16    -0.413219606239E+03    0.39763E-05   -0.92322E-08  1227   0.636E-04    0.137E-04
RMM:  17    -0.413219600747E+03    0.54914E-05   -0.79524E-08  1294   0.633E-04    0.655E-05
RMM:  18    -0.413219596744E+03    0.40034E-05   -0.53781E-08  1170   0.587E-04    0.622E-05
RMM:  19    -0.413219596271E+03    0.47266E-06   -0.27210E-08   809   0.516E-04
   45 T=    72. E= -.41286759E+03 F= -.41321960E+03 E0= -.41319863E+03  EK= 0.35200E+00 SP= 0.00E+00 SK= 0.00E+00
       N       E                     dE             d eps       ncg     rms          rms(c)
RMM:   1    -0.413236965758E+03   -0.17369E-01   -0.71506E+00  4315   0.115E+00    0.973E-01
RMM:   2    -0.413227310373E+03    0.96554E-02   -0.11146E-01  4421   0.144E-01    0.709E-01
RMM:   3    -0.413225331066E+03    0.19793E-02   -0.49694E-02  5018   0.113E-01    0.345E-01
RMM:   4    -0.413248430204E+03   -0.23099E-01   -0.42744E-02  5069   0.179E-01    0.712E-01
RMM:   5    -0.413218981354E+03    0.29449E-01   -0.12595E-02  4714   0.119E-01    0.520E-02
RMM:   6    -0.413219013252E+03   -0.31898E-04   -0.22092E-03  5711   0.446E-02    0.294E-02
RMM:   7    -0.413219038510E+03   -0.25258E-04   -0.27174E-04  5716   0.160E-02    0.181E-02
RMM:   8    -0.413219047138E+03   -0.86278E-05   -0.83208E-05  5154   0.934E-03    0.115E-02
RMM:   9    -0.413219038333E+03    0.88042E-05   -0.17739E-05  4348   0.517E-03    0.496E-03
RMM:  10    -0.413219035724E+03    0.26094E-05   -0.32624E-06  2725   0.264E-03    0.305E-03
RMM:  11    -0.413219033023E+03    0.27011E-05   -0.12048E-06  2494   0.180E-03    0.162E-03
RMM:  12    -0.413219027586E+03    0.54369E-05   -0.84036E-07  2466   0.148E-03    0.824E-04
RMM:  13    -0.413219023076E+03    0.45099E-05   -0.37061E-07  2117   0.101E-03    0.392E-04
RMM:  14    -0.413219020703E+03    0.23735E-05   -0.17872E-07  1455   0.743E-04    0.199E-04
RMM:  15    -0.413219014629E+03    0.60736E-05   -0.13705E-07  1264   0.706E-04    0.164E-04
RMM:  16    -0.413219011255E+03    0.33741E-05   -0.89410E-08  1178   0.656E-04    0.123E-04
RMM:  17    -0.413219007561E+03    0.36935E-05   -0.74334E-08  1247   0.639E-04    0.747E-05
RMM:  18    -0.413219003731E+03    0.38304E-05   -0.57738E-08  1205   0.606E-04    0.436E-05
RMM:  19    -0.413219001711E+03    0.20201E-05   -0.33686E-08   933   0.548E-04    0.346E-05
RMM:  20    -0.413219001326E+03    0.38491E-06   -0.18021E-08   751   0.520E-04
   46 T=    72. E= -.41286755E+03 F= -.41321900E+03 E0= -.41319805E+03  EK= 0.35145E+00 SP= 0.00E+00 SK= 0.00E+00
       N       E                     dE             d eps       ncg     rms          rms(c)
RMM:   1    -0.413238768886E+03   -0.19767E-01   -0.72346E+00  4315   0.128E+00    0.963E-01
RMM:   2    -0.413226321058E+03    0.12448E-01   -0.11641E-01  4449   0.159E-01    0.715E-01
RMM:   3    -0.413227223631E+03   -0.90257E-03   -0.54028E-02  5041   0.129E-01    0.425E-01
RMM:   4    -0.413243091616E+03   -0.15868E-01   -0.43486E-02  5047   0.183E-01    0.669E-01
RMM:   5    -0.413217487459E+03    0.25604E-01   -0.10658E-02  4671   0.113E-01    0.515E-02
RMM:   6    -0.413217480345E+03    0.71135E-05   -0.18516E-03  5630   0.413E-02    0.272E-02
RMM:   7    -0.413217501803E+03   -0.21458E-04   -0.25270E-04  5690   0.157E-02    0.182E-02
RMM:   8    -0.413217508879E+03   -0.70755E-05   -0.89611E-05  5115   0.992E-03    0.105E-02
RMM:   9    -0.413217503919E+03    0.49601E-05   -0.12951E-05  3967   0.488E-03    0.437E-03
RMM:  10    -0.413217502472E+03    0.14469E-05   -0.30057E-06  2726   0.243E-03    0.268E-03
RMM:  11    -0.413217500451E+03    0.20203E-05   -0.12707E-06  2503   0.174E-03    0.130E-03
RMM:  12    -0.413217496891E+03    0.35606E-05   -0.78614E-07  2407   0.137E-03    0.662E-04
RMM:  13    -0.413217493849E+03    0.30424E-05   -0.36131E-07  1858   0.956E-04    0.294E-04
RMM:  14    -0.413217491209E+03    0.26396E-05   -0.20111E-07  1420   0.762E-04    0.156E-04
RMM:  15    -0.413217486538E+03    0.46707E-05   -0.17699E-07  1428   0.749E-04    0.126E-04
RMM:  16    -0.413217483369E+03    0.31696E-05   -0.12155E-07  1350   0.674E-04    0.984E-05
RMM:  17    -0.413217478891E+03    0.44780E-05   -0.10559E-07  1383   0.660E-04    0.503E-05
RMM:  18    -0.413217476418E+03    0.24732E-05   -0.57930E-08  1048   0.574E-04    0.372E-05
RMM:  19    -0.413217475636E+03    0.78200E-06   -0.30827E-08   820   0.531E-04
   47 T=    71. E= -.41286765E+03 F= -.41321748E+03 E0= -.41319654E+03  EK= 0.34983E+00 SP= 0.00E+00 SK= 0.00E+00
       N       E                     dE             d eps       ncg     rms          rms(c)
RMM:   1    -0.413238802544E+03   -0.21326E-01   -0.71309E+00  4312   0.134E+00    0.977E-01
RMM:   2    -0.413223310576E+03    0.15492E-01   -0.11592E-01  4488   0.170E-01    0.713E-01
RMM:   3    -0.413228282540E+03   -0.49720E-02   -0.52773E-02  5078   0.141E-01    0.486E-01
RMM:   4    -0.413234218883E+03   -0.59363E-02   -0.41245E-02  5023   0.181E-01    0.581E-01
RMM:   5    -0.413214906250E+03    0.19313E-01   -0.73093E-03  4617   0.100E-01    0.514E-02
RMM:   6    -0.413214871043E+03    0.35207E-04   -0.13133E-03  5397   0.357E-02    0.267E-02
RMM:   7    -0.413214896454E+03   -0.25411E-04   -0.18987E-04  5635   0.139E-02    0.165E-02
RMM:   8    -0.413214902206E+03   -0.57524E-05   -0.86699E-05  5167   0.968E-03    0.106E-02
RMM:   9    -0.413214892277E+03    0.99290E-05   -0.12239E-05  3952   0.485E-03    0.408E-03
RMM:  10    -0.413214889374E+03    0.29030E-05   -0.28619E-06  2704   0.242E-03    0.242E-03
RMM:  11    -0.413214885135E+03    0.42397E-05   -0.12586E-06  2488   0.181E-03    0.121E-03
RMM:  12    -0.413214880534E+03    0.46012E-05   -0.59633E-07  2352   0.129E-03    0.663E-04
RMM:  13    -0.413214876537E+03    0.39969E-05   -0.27857E-07  1784   0.903E-04    0.305E-04
RMM:  14    -0.413214872240E+03    0.42965E-05   -0.16447E-07  1403   0.740E-04    0.159E-04
RMM:  15    -0.413214867356E+03    0.48838E-05   -0.11988E-07  1290   0.692E-04    0.116E-04
RMM:  16    -0.413214863610E+03    0.37467E-05   -0.85957E-08  1231   0.646E-04    0.828E-05
RMM:  17    -0.413214856719E+03    0.68907E-05   -0.94481E-08  1526   0.677E-04    0.675E-05
RMM:  18    -0.413214855434E+03    0.12848E-05   -0.35413E-08   881   0.527E-04    0.453E-05
RMM:  19    -0.413214853891E+03    0.15430E-05   -0.27169E-08   850   0.523E-04    0.188E-05
RMM:  20    -0.413214853330E+03    0.56137E-06   -0.15552E-08   701   0.500E-04
   48 T=    71. E= -.41286794E+03 F= -.41321485E+03 E0= -.41319392E+03  EK= 0.34691E+00 SP= 0.00E+00 SK= 0.00E+00
       N       E                     dE             d eps       ncg     rms          rms(c)
RMM:   1    -0.413234141814E+03   -0.19288E-01   -0.69705E+00  4309   0.143E+00    0.962E-01
RMM:   2    -0.413217954295E+03    0.16188E-01   -0.11612E-01  4543   0.176E-01    0.702E-01
RMM:   3    -0.413230075358E+03   -0.12121E-01   -0.55075E-02  5106   0.160E-01    0.595E-01
RMM:   4    -0.413222980543E+03    0.70948E-02   -0.40614E-02  4976   0.183E-01    0.484E-01
RMM:   5    -0.413209706152E+03    0.13274E-01   -0.49694E-03  4582   0.896E-02    0.517E-02
RMM:   6    -0.413209617786E+03    0.88366E-04   -0.71428E-04  4926   0.295E-02    0.264E-02
RMM:   7    -0.413209644398E+03   -0.26612E-04   -0.14115E-04  5672   0.129E-02    0.120E-02
RMM:   8    -0.413209644759E+03   -0.36070E-06   -0.27678E-05  4909   0.641E-03    0.590E-03
RMM:   9    -0.413209641124E+03    0.36345E-05   -0.52165E-06  2992   0.287E-03    0.318E-03
RMM:  10    -0.413209638299E+03    0.28250E-05   -0.17236E-06  2542   0.210E-03    0.221E-03
RMM:  11    -0.413209633228E+03    0.50712E-05   -0.91520E-07  2445   0.165E-03    0.129E-03
RMM:  12    -0.413209630148E+03    0.30798E-05   -0.36962E-07  2101   0.106E-03    0.694E-04
RMM:  13    -0.413209625474E+03    0.46740E-05   -0.26660E-07  1937   0.893E-04    0.388E-04
RMM:  14    -0.413209619695E+03    0.57797E-05   -0.16962E-07  1437   0.725E-04    0.261E-04
RMM:  15    -0.413209615862E+03    0.38325E-05   -0.93504E-08  1056   0.613E-04    0.121E-04
RMM:  16    -0.413209611820E+03    0.40417E-05   -0.74421E-08  1111   0.611E-04    0.973E-05
RMM:  17    -0.413209605550E+03    0.62704E-05   -0.78626E-08  1317   0.646E-04    0.110E-04
RMM:  18    -0.413209604954E+03    0.59652E-06   -0.27331E-08   758   0.524E-04
   49 T=    70. E= -.41286761E+03 F= -.41320960E+03 E0= -.41318868E+03  EK= 0.34199E+00 SP= 0.00E+00 SK= 0.00E+00
       N       E                     dE             d eps       ncg     rms          rms(c)
RMM:   1    -0.413228908430E+03   -0.19303E-01   -0.69065E+00  4310   0.156E+00    0.931E-01
RMM:   2    -0.413211908349E+03    0.17000E-01   -0.12494E-01  4668   0.189E-01    0.700E-01
RMM:   3    -0.413234348681E+03   -0.22440E-01   -0.61246E-02  5121   0.186E-01    0.728E-01
RMM:   4    -0.413213706866E+03    0.20642E-01   -0.45555E-02  4944   0.197E-01    0.430E-01
RMM:   5    -0.413203462869E+03    0.10244E-01   -0.48960E-03  4620   0.918E-02    0.562E-02
RMM:   6    -0.413203329533E+03    0.13334E-03   -0.51622E-04  4735   0.287E-02    0.268E-02
RMM:   7    -0.413203364079E+03   -0.34547E-04   -0.21957E-04  5691   0.166E-02    0.183E-02
RMM:   8    -0.413203350243E+03    0.13837E-04   -0.56339E-05  5060   0.862E-03    0.932E-03
RMM:   9    -0.413203348547E+03    0.16958E-05   -0.15244E-05  4484   0.503E-03    0.416E-03
RMM:  10    -0.413203345701E+03    0.28455E-05   -0.22230E-06  2657   0.235E-03    0.248E-03
RMM:  11    -0.413203341716E+03    0.39851E-05   -0.10607E-06  2492   0.174E-03    0.175E-03
RMM:  12    -0.413203338659E+03    0.30577E-05   -0.43837E-07  2265   0.110E-03    0.883E-04
RMM:  13    -0.413203335042E+03    0.36168E-05   -0.36237E-07  2146   0.949E-04    0.391E-04
RMM:  14    -0.413203331526E+03    0.35153E-05   -0.20840E-07  1533   0.752E-04    0.302E-04
RMM:  15    -0.413203326348E+03    0.51787E-05   -0.18512E-07  1368   0.712E-04    0.134E-04
RMM:  16    -0.413203323446E+03    0.29015E-05   -0.10110E-07  1162   0.621E-04    0.840E-05
RMM:  17    -0.413203318934E+03    0.45127E-05   -0.10594E-07  1332   0.642E-04    0.766E-05
RMM:  18    -0.413203316795E+03    0.21390E-05   -0.57904E-08  1056   0.563E-04    0.598E-05
RMM:  19    -0.413203315251E+03    0.15440E-05   -0.34192E-08   876   0.526E-04    0.381E-05
RMM:  20    -0.413203314201E+03    0.10496E-05   -0.27003E-08   843   0.512E-04    0.236E-05
RMM:  21    -0.413203314063E+03    0.13777E-06   -0.11007E-08   654   0.480E-04
   50 T=    68. E= -.41286792E+03 F= -.41320331E+03 E0= -.41318239E+03  EK= 0.33540E+00 SP= 0.00E+00 SK= 0.00E+00
       N       E                     dE             d eps       ncg     rms          rms(c)
RMM:   1    -0.413221661248E+03   -0.18347E-01   -0.67265E+00  4307   0.164E+00    0.933E-01
RMM:   2    -0.413202418503E+03    0.19243E-01   -0.12434E-01  4759   0.197E-01    0.694E-01
RMM:   3    -0.413235001616E+03   -0.32583E-01   -0.66181E-02  5142   0.205E-01    0.834E-01
RMM:   4    -0.413201142508E+03    0.33859E-01   -0.47282E-02  4921   0.204E-01    0.356E-01
RMM:   5    -0.413194255975E+03    0.68865E-02   -0.49978E-03  4907   0.935E-02    0.657E-02
RMM:   6    -0.413194046806E+03    0.20917E-03   -0.48900E-04  4593   0.302E-02    0.298E-02
RMM:   7    -0.413194076205E+03   -0.29399E-04   -0.27027E-04  5645   0.185E-02    0.230E-02
RMM:   8    -0.413194059278E+03    0.16927E-04   -0.71480E-05  5032   0.102E-02    0.111E-02
RMM:   9    -0.413194056293E+03    0.29849E-05   -0.21830E-05  4953   0.582E-03    0.431E-03
RMM:  10    -0.413194052794E+03    0.34986E-05   -0.34249E-06  2827   0.265E-03    0.277E-03
RMM:  11    -0.413194047869E+03    0.49247E-05   -0.10432E-06  2498   0.181E-03    0.175E-03
RMM:  12    -0.413194044072E+03    0.37977E-05   -0.44927E-07  2283   0.113E-03    0.801E-04
RMM:  13    -0.413194040222E+03    0.38495E-05   -0.37824E-07  2161   0.984E-04    0.427E-04
RMM:  14    -0.413194035956E+03    0.42666E-05   -0.24440E-07  1729   0.816E-04    0.343E-04
RMM:  15    -0.413194030788E+03    0.51675E-05   -0.16809E-07  1335   0.721E-04    0.164E-04
RMM:  16    -0.413194027492E+03    0.32956E-05   -0.10988E-07  1257   0.658E-04    0.874E-05
RMM:  17    -0.413194022219E+03    0.52735E-05   -0.11713E-07  1449   0.678E-04    0.113E-04
RMM:  18    -0.413194020914E+03    0.13053E-05   -0.53972E-08  1024   0.557E-04    0.892E-05
RMM:  19    -0.413194019460E+03    0.14532E-05   -0.41254E-08  1005   0.543E-04    0.345E-05
RMM:  20    -0.413194017951E+03    0.15091E-05   -0.32929E-08   935   0.529E-04    0.316E-05
RMM:  21    -0.413194017868E+03    0.83637E-07   -0.13952E-08   717   0.488E-04
[...]
RMM:   8    -0.413166997424E+03   -0.12686E-04   -0.73683E-05  5212   0.842E-03    0.868E-03
RMM:   9    -0.413167007118E+03   -0.96935E-05   -0.12148E-05  3436   0.395E-03    0.389E-03
RMM:  10    -0.413167013529E+03   -0.64115E-05   -0.27750E-06  2631   0.226E-03    0.250E-03
RMM:  11    -0.413167022426E+03   -0.88969E-05   -0.14781E-06  2532   0.183E-03    0.139E-03
RMM:  12    -0.413167027374E+03   -0.49478E-05   -0.70721E-07  2405   0.130E-03    0.573E-04
RMM:  13    -0.413167030466E+03   -0.30917E-05   -0.39567E-07  1983   0.977E-04    0.314E-04
RMM:  14    -0.413167032659E+03   -0.21929E-05   -0.24409E-07  1559   0.818E-04    0.202E-04
RMM:  15    -0.413167036296E+03   -0.36377E-05   -0.34339E-07  1787   0.858E-04    0.149E-04
RMM:  16    -0.413167037206E+03   -0.90979E-06   -0.13615E-07  1315   0.664E-04
  138 T=    61. E= -.41286742E+03 F= -.41316704E+03 E0= -.41314628E+03  EK= 0.29961E+00 SP= 0.00E+00 SK= 0.00E+00
       N       E                     dE             d eps       ncg     rms          rms(c)
RMM:   1    -0.413159551456E+03    0.74848E-02   -0.10017E+01  4265   0.963E-01    0.845E-01
RMM:   2    -0.413167658115E+03   -0.81067E-02   -0.11616E-01  4360   0.108E-01    0.598E-01
RMM:   3    -0.413166853507E+03    0.80461E-03   -0.70448E-03  5054   0.504E-02    0.172E-01
RMM:   4    -0.413203340932E+03   -0.36487E-01   -0.39635E-02  5152   0.166E-01    0.797E-01
RMM:   5    -0.413166113777E+03    0.37227E-01   -0.18236E-02  4798   0.135E-01    0.521E-02
RMM:   6    -0.413166144045E+03   -0.30268E-04   -0.29912E-03  5723   0.531E-02    0.206E-02
RMM:   7    -0.413166181894E+03   -0.37849E-04   -0.39488E-04  6024   0.170E-02    0.157E-02
RMM:   8    -0.413166192811E+03   -0.10917E-04   -0.62841E-05  5158   0.752E-03    0.857E-03
RMM:   9    -0.413166201558E+03   -0.87475E-05   -0.10195E-05  3239   0.361E-03    0.386E-03
RMM:  10    -0.413166207402E+03   -0.58437E-05   -0.25518E-06  2603   0.220E-03    0.239E-03
RMM:  11    -0.413166214386E+03   -0.69845E-05   -0.13323E-06  2521   0.172E-03    0.128E-03
RMM:  12    -0.413166218196E+03   -0.38100E-05   -0.66387E-07  2340   0.124E-03    0.506E-04
RMM:  13    -0.413166220487E+03   -0.22909E-05   -0.37692E-07  1929   0.951E-04    0.288E-04
RMM:  14    -0.413166222088E+03   -0.16009E-05   -0.23481E-07  1537   0.809E-04    0.185E-04
RMM:  15    -0.413166224642E+03   -0.25538E-05   -0.33887E-07  1772   0.854E-04    0.137E-04
RMM:  16    -0.413166225094E+03   -0.45196E-06   -0.12140E-07  1248   0.654E-04
  139 T=    61. E= -.41286727E+03 F= -.41316623E+03 E0= -.41314549E+03  EK= 0.29896E+00 SP= 0.00E+00 SK= 0.00E+00
       N       E                     dE             d eps       ncg     rms          rms(c)
RMM:   1    -0.413157463290E+03    0.87614E-02   -0.10094E+01  4264   0.932E-01    0.855E-01
RMM:   2    -0.413165963158E+03   -0.84999E-02   -0.11451E-01  4359   0.106E-01    0.588E-01
RMM:   3    -0.413165506806E+03    0.45635E-03   -0.67874E-03  5033   0.481E-02    0.170E-01
RMM:   4    -0.413199317157E+03   -0.33810E-01   -0.35943E-02  5150   0.158E-01    0.767E-01
RMM:   5    -0.413164987384E+03    0.34330E-01   -0.16966E-02  4810   0.129E-01    0.497E-02
RMM:   6    -0.413165010492E+03   -0.23108E-04   -0.27439E-03  5733   0.509E-02    0.198E-02
RMM:   7    -0.413165043311E+03   -0.32819E-04   -0.35907E-04  6013   0.162E-02    0.148E-02
RMM:   8    -0.413165050796E+03   -0.74845E-05   -0.52461E-05  4956   0.670E-03    0.856E-03
RMM:   9    -0.413165056415E+03   -0.56195E-05   -0.83660E-06  3086   0.338E-03    0.391E-03
RMM:  10    -0.413165060351E+03   -0.39359E-05   -0.24383E-06  2589   0.218E-03    0.229E-03
RMM:  11    -0.413165064112E+03   -0.37607E-05   -0.12718E-06  2521   0.167E-03    0.115E-03
RMM:  12    -0.413165065892E+03   -0.17802E-05   -0.65795E-07  2337   0.121E-03    0.440E-04
RMM:  13    -0.413165066769E+03   -0.87731E-06   -0.36865E-07  1924   0.942E-04
  140 T=    61. E= -.41286718E+03 F= -.41316507E+03 E0= -.41314435E+03  EK= 0.29789E+00 SP= 0.00E+00 SK= 0.00E+00
       N       E                     dE             d eps       ncg     rms          rms(c)
RMM:   1    -0.413156759801E+03    0.83061E-02   -0.10078E+01  4264   0.947E-01    0.828E-01
RMM:   2    -0.413166215620E+03   -0.94558E-02   -0.11732E-01  4352   0.107E-01    0.590E-01
RMM:   3    -0.413165252422E+03    0.96320E-03   -0.58778E-03  4971   0.461E-02    0.154E-01
RMM:   4    -0.413193160162E+03   -0.27908E-01   -0.28671E-02  5158   0.142E-01    0.696E-01
RMM:   5    -0.413164971571E+03    0.28189E-01   -0.14155E-02  4822   0.117E-01    0.423E-02
RMM:   6    -0.413164985709E+03   -0.14137E-04   -0.22402E-03  5749   0.462E-02    0.156E-02
RMM:   7    -0.413165014766E+03   -0.29057E-04   -0.28403E-04  5948   0.143E-02    0.125E-02
RMM:   8    -0.413165024205E+03   -0.94396E-05   -0.39089E-05  4589   0.569E-03    0.766E-03
RMM:   9    -0.413165033862E+03   -0.96571E-05   -0.59413E-06  2926   0.301E-03    0.366E-03
RMM:  10    -0.413165041857E+03   -0.79942E-05   -0.22041E-06  2563   0.213E-03    0.203E-03
RMM:  11    -0.413165048604E+03   -0.67472E-05   -0.11342E-06  2510   0.156E-03    0.980E-04
RMM:  12    -0.413165052689E+03   -0.40852E-05   -0.59218E-07  2260   0.114E-03    0.404E-04
RMM:  13    -0.413165055276E+03   -0.25874E-05   -0.33920E-07  1810   0.898E-04    0.267E-04
RMM:  14    -0.413165057629E+03   -0.23524E-05   -0.27398E-07  1613   0.825E-04    0.166E-04
RMM:  15    -0.413165059668E+03   -0.20389E-05   -0.26322E-07  1638   0.781E-04    0.109E-04
RMM:  16    -0.413165060399E+03   -0.73142E-06   -0.14233E-07  1323   0.663E-04
  141 T=    61. E= -.41286733E+03 F= -.41316506E+03 E0= -.41314436E+03  EK= 0.29773E+00 SP= 0.00E+00 SK= 0.00E+00
       N       E                     dE             d eps       ncg     rms          rms(c)
RMM:   1    -0.413158143396E+03    0.69163E-02   -0.10169E+01  4264   0.972E-01    0.834E-01
RMM:   2    -0.413165545440E+03   -0.74020E-02   -0.12168E-01  4358   0.109E-01    0.598E-01
RMM:   3    -0.413164584203E+03    0.96124E-03   -0.57678E-03  4996   0.444E-02    0.157E-01
RMM:   4    -0.413193283075E+03   -0.28699E-01   -0.29558E-02  5157   0.144E-01    0.706E-01
RMM:   5    -0.413164257445E+03    0.29026E-01   -0.14565E-02  4822   0.119E-01    0.417E-02
RMM:   6    -0.413164273655E+03   -0.16210E-04   -0.22837E-03  5753   0.467E-02    0.142E-02
RMM:   7    -0.413164303555E+03   -0.29901E-04   -0.28606E-04  5935   0.142E-02    0.118E-02
RMM:   8    -0.413164312523E+03   -0.89678E-05   -0.37492E-05  4410   0.538E-03    0.771E-03
RMM:   9    -0.413164321893E+03   -0.93697E-05   -0.51796E-06  2849   0.284E-03    0.380E-03
RMM:  10    -0.413164330834E+03   -0.89413E-05   -0.22614E-06  2558   0.218E-03    0.198E-03
RMM:  11    -0.413164337500E+03   -0.66663E-05   -0.11035E-06  2508   0.157E-03    0.877E-04
RMM:  12    -0.413164341460E+03   -0.39594E-05   -0.55654E-07  2257   0.113E-03    0.385E-04
RMM:  13    -0.413164344009E+03   -0.25493E-05   -0.31143E-07  1805   0.888E-04    0.273E-04
RMM:  14    -0.413164346479E+03   -0.24702E-05   -0.24904E-07  1566   0.804E-04    0.154E-04
RMM:  15    -0.413164348397E+03   -0.19175E-05   -0.20547E-07  1560   0.754E-04    0.105E-04
RMM:  16    -0.413164349285E+03   -0.88818E-06   -0.13213E-07  1320   0.663E-04
  142 T=    61. E= -.41286696E+03 F= -.41316435E+03 E0= -.41314366E+03  EK= 0.29739E+00 SP= 0.00E+00 SK= 0.00E+00
       N       E                     dE             d eps       ncg     rms          rms(c)
RMM:   1    -0.413155563541E+03    0.87849E-02   -0.10105E+01  4264   0.930E-01    0.853E-01
RMM:   2    -0.413164379430E+03   -0.88159E-02   -0.11678E-01  4361   0.104E-01    0.589E-01
RMM:   3    -0.413163806879E+03    0.57255E-03   -0.60866E-03  5010   0.415E-02    0.153E-01
RMM:   4    -0.413185844671E+03   -0.22038E-01   -0.22449E-02  5168   0.126E-01    0.620E-01
RMM:   5    -0.413163665451E+03    0.22179E-01   -0.11188E-02  4831   0.104E-01    0.395E-02
RMM:   6    -0.413163660732E+03    0.47197E-05   -0.17515E-03  5737   0.412E-02    0.164E-02
RMM:   7    -0.413163679654E+03   -0.18922E-04   -0.22299E-04  5872   0.129E-02    0.121E-02
RMM:   8    -0.413163684842E+03   -0.51875E-05   -0.30390E-05  4333   0.521E-03    0.723E-03
RMM:   9    -0.413163689223E+03   -0.43809E-05   -0.49415E-06  2822   0.291E-03    0.328E-03
RMM:  10    -0.413163692501E+03   -0.32784E-05   -0.18671E-06  2544   0.201E-03    0.178E-03
RMM:  11    -0.413163694973E+03   -0.24719E-05   -0.98042E-07  2488   0.147E-03    0.844E-04
RMM:  12    -0.413163696159E+03   -0.11857E-05   -0.50021E-07  2149   0.106E-03    0.354E-04
RMM:  13    -0.413163696732E+03   -0.57347E-06   -0.28914E-07  1658   0.859E-04
  143 T=    60. E= -.41286720E+03 F= -.41316370E+03 E0= -.41314302E+03  EK= 0.29650E+00 SP= 0.00E+00 SK= 0.00E+00
       N       E                     dE             d eps       ncg     rms          rms(c)
RMM:   1    -0.413155092932E+03    0.86032E-02   -0.99075E+00  4264   0.924E-01    0.827E-01
RMM:   2    -0.413164307126E+03   -0.92142E-02   -0.11665E-01  4375   0.102E-01    0.587E-01
RMM:   3    -0.413163375817E+03    0.93131E-03   -0.57019E-03  5005   0.379E-02    0.140E-01
RMM:   4    -0.413175433942E+03   -0.12058E-01   -0.12471E-02  5166   0.951E-02    0.461E-01
RMM:   5    -0.413163340427E+03    0.12094E-01   -0.61047E-03  4837   0.768E-02    0.328E-02
RMM:   6    -0.413163324637E+03    0.15790E-04   -0.10085E-03  5704   0.315E-02    0.148E-02
RMM:   7    -0.413163341468E+03   -0.16831E-04   -0.13735E-04  5701   0.104E-02    0.108E-02
RMM:   8    -0.413163350628E+03   -0.91600E-05   -0.22463E-05  4307   0.493E-03    0.517E-03
RMM:   9    -0.413163358151E+03   -0.75231E-05   -0.36894E-06  2716   0.252E-03    0.247E-03
RMM:  10    -0.413163362672E+03   -0.45206E-05   -0.10444E-06  2514   0.159E-03    0.150E-03
RMM:  11    -0.413163368287E+03   -0.56153E-05   -0.83171E-07  2452   0.130E-03    0.822E-04
RMM:  12    -0.413163371029E+03   -0.27422E-05   -0.39622E-07  1875   0.947E-04    0.365E-04
RMM:  13    -0.413163372904E+03   -0.18751E-05   -0.25949E-07  1595   0.825E-04    0.195E-04
RMM:  14    -0.413163374431E+03   -0.15269E-05   -0.20472E-07  1491   0.763E-04    0.142E-04
RMM:  15    -0.413163376225E+03   -0.17938E-05   -0.25811E-07  1681   0.787E-04    0.106E-04
RMM:  16    -0.413163376522E+03   -0.29742E-06   -0.94174E-08  1102   0.599E-04
  144 T=    60. E= -.41286740E+03 F= -.41316338E+03 E0= -.41314271E+03  EK= 0.29598E+00 SP= 0.00E+00 SK= 0.00E+00
       N       E                     dE             d eps       ncg     rms          rms(c)
RMM:   1    -0.413155000968E+03    0.83753E-02   -0.98215E+00  4264   0.924E-01    0.824E-01
RMM:   2    -0.413164350360E+03   -0.93494E-02   -0.11790E-01  4382   0.102E-01    0.598E-01
RMM:   3    -0.413162997670E+03    0.13527E-02   -0.60345E-03  4962   0.382E-02    0.128E-01
RMM:   4    -0.413172426106E+03   -0.94284E-02   -0.99694E-03  5174   0.845E-02    0.409E-01
RMM:   5    -0.413162948231E+03    0.94779E-02   -0.48290E-03  4838   0.683E-02    0.312E-02
RMM:   6    -0.413162932427E+03    0.15803E-04   -0.79998E-04  5701   0.282E-02    0.157E-02
RMM:   7    -0.413162950844E+03   -0.18417E-04   -0.11775E-04  5654   0.983E-03    0.106E-02
RMM:   8    -0.413162963858E+03   -0.13014E-04   -0.25277E-05  4523   0.536E-03    0.453E-03
RMM:   9    -0.413162970973E+03   -0.71145E-05   -0.34307E-06  2724   0.239E-03    0.244E-03
RMM:  10    -0.413162976370E+03   -0.53965E-05   -0.80954E-07  2498   0.144E-03    0.157E-03
RMM:  11    -0.413162985265E+03   -0.88952E-05   -0.90098E-07  2466   0.133E-03    0.867E-04
RMM:  12    -0.413162988926E+03   -0.36618E-05   -0.36047E-07  1833   0.928E-04    0.376E-04
RMM:  13    -0.413162991589E+03   -0.26629E-05   -0.23325E-07  1606   0.811E-04    0.196E-04
RMM:  14    -0.413162994127E+03   -0.25374E-05   -0.18875E-07  1489   0.748E-04    0.151E-04
RMM:  15    -0.413162996706E+03   -0.25793E-05   -0.18816E-07  1539   0.729E-04    0.112E-04
RMM:  16    -0.413162997368E+03   -0.66180E-06   -0.85735E-08  1109   0.586E-04
  145 T=    60. E= -.41286717E+03 F= -.41316300E+03 E0= -.41314234E+03  EK= 0.29583E+00 SP= 0.00E+00 SK= 0.00E+00
       N       E                     dE             d eps       ncg     rms          rms(c)
RMM:   1    -0.413155711378E+03    0.72853E-02   -0.96403E+00  4264   0.912E-01    0.844E-01
RMM:   2    -0.413163742964E+03   -0.80316E-02   -0.11399E-01  4385   0.994E-02    0.593E-01
RMM:   3    -0.413162689988E+03    0.10530E-02   -0.67254E-03  4927   0.378E-02    0.128E-01
RMM:   4    -0.413168160694E+03   -0.54707E-02   -0.61003E-03  5179   0.666E-02    0.313E-01
RMM:   5    -0.413162669807E+03    0.54909E-02   -0.28195E-03  4840   0.526E-02    0.327E-02
RMM:   6    -0.413162654328E+03    0.15479E-04   -0.52036E-04  5642   0.232E-02    0.201E-02
RMM:   7    -0.413162665562E+03   -0.11234E-04   -0.10584E-04  5598   0.980E-03    0.111E-02
RMM:   8    -0.413162670286E+03   -0.47244E-05   -0.29828E-05  4728   0.597E-03    0.460E-03
RMM:   9    -0.413162671686E+03   -0.14000E-05   -0.25459E-06  2706   0.220E-03    0.267E-03
RMM:  10    -0.413162673900E+03   -0.22136E-05   -0.69972E-07  2478   0.136E-03    0.165E-03
RMM:  11    -0.413162677908E+03   -0.40078E-05   -0.95680E-07  2453   0.135E-03    0.934E-04
RMM:  12    -0.413162678850E+03   -0.94231E-06   -0.30304E-07  1829   0.894E-04
  146 T=    60. E= -.41286737E+03 F= -.41316268E+03 E0= -.41314203E+03  EK= 0.29530E+00 SP= 0.00E+00 SK= 0.00E+00
       N       E                     dE             d eps       ncg     rms          rms(c)
RMM:   1    -0.413155401046E+03    0.72769E-02   -0.93286E+00  4264   0.903E-01    0.827E-01
RMM:   2    -0.413163095719E+03   -0.76947E-02   -0.11151E-01  4389   0.985E-02    0.589E-01
RMM:   3    -0.413161809211E+03    0.12865E-02   -0.71429E-03  4922   0.368E-02    0.116E-01
RMM:   4    -0.413164376415E+03   -0.25672E-02   -0.32813E-03  5189   0.484E-02    0.215E-01
RMM:   5    -0.413161818006E+03    0.25584E-02   -0.13549E-03  4860   0.368E-02    0.325E-02
RMM:   6    -0.413161806384E+03    0.11622E-04   -0.29914E-04  5531   0.181E-02    0.217E-02
RMM:   7    -0.413161819380E+03   -0.12997E-04   -0.10370E-04  5487   0.981E-03    0.113E-02
RMM:   8    -0.413161822875E+03   -0.34948E-05   -0.26816E-05  4655   0.602E-03    0.548E-03
RMM:   9    -0.413161824100E+03   -0.12252E-05   -0.25422E-06  2662   0.218E-03    0.283E-03
RMM:  10    -0.413161826737E+03   -0.26367E-05   -0.84992E-07  2490   0.145E-03    0.168E-03
RMM:  11    -0.413161832915E+03   -0.61781E-05   -0.10478E-06  2466   0.141E-03    0.862E-04
RMM:  12    -0.413161834739E+03   -0.18235E-05   -0.33868E-07  1965   0.915E-04    0.350E-04
RMM:  13    -0.413161836280E+03   -0.15417E-05   -0.21670E-07  1473   0.769E-04    0.216E-04
RMM:  14    -0.413161838046E+03   -0.17661E-05   -0.23319E-07  1618   0.775E-04    0.150E-04
RMM:  15    -0.413161839080E+03   -0.10336E-05   -0.13961E-07  1419   0.669E-04    0.148E-04
RMM:  16    -0.413161839691E+03   -0.61137E-06   -0.83966E-08  1121   0.575E-04
  147 T=    60. E= -.41286710E+03 F= -.41316184E+03 E0= -.41314120E+03  EK= 0.29474E+00 SP= 0.00E+00 SK= 0.00E+00
       N       E                     dE             d eps       ncg     rms          rms(c)
RMM:   1    -0.413156349803E+03    0.54893E-02   -0.91031E+00  4264   0.894E-01    0.817E-01
RMM:   2    -0.413164086179E+03   -0.77364E-02   -0.11091E-01  4397   0.977E-02    0.600E-01
RMM:   3    -0.413161943908E+03    0.21423E-02   -0.82390E-03  4869   0.373E-02    0.904E-02
RMM:   4    -0.413163078526E+03   -0.11346E-02   -0.17914E-03  5209   0.353E-02    0.143E-01
RMM:   5    -0.413161977051E+03    0.11015E-02   -0.62212E-04  4870   0.254E-02    0.332E-02
RMM:   6    -0.413161966610E+03    0.10441E-04   -0.19815E-04  5409   0.149E-02    0.224E-02
RMM:   7    -0.413161987943E+03   -0.21334E-04   -0.11492E-04  5377   0.965E-03    0.125E-02
RMM:   8    -0.413161991440E+03   -0.34963E-05   -0.20782E-05  4473   0.563E-03    0.666E-03
RMM:   9    -0.413161992711E+03   -0.12709E-05   -0.29925E-06  2643   0.226E-03    0.314E-03
RMM:  10    -0.413161996479E+03   -0.37688E-05   -0.11520E-06  2481   0.164E-03    0.182E-03
RMM:  11    -0.413162007639E+03   -0.11159E-04   -0.12126E-06  2484   0.150E-03    0.825E-04
RMM:  12    -0.413162012149E+03   -0.45107E-05   -0.46424E-07  2054   0.102E-03    0.378E-04
RMM:  13    -0.413162015105E+03   -0.29560E-05   -0.24861E-07  1744   0.814E-04    0.291E-04
RMM:  14    -0.413162019578E+03   -0.44728E-05   -0.28504E-07  1675   0.801E-04    0.188E-04
RMM:  15    -0.413162021528E+03   -0.19499E-05   -0.12051E-07  1248   0.633E-04    0.151E-04
RMM:  16    -0.413162022206E+03   -0.67837E-06   -0.61083E-08  1002   0.550E-04
  148 T=    60. E= -.41286711E+03 F= -.41316202E+03 E0= -.41314138E+03  EK= 0.29492E+00 SP= 0.00E+00 SK= 0.00E+00
       N       E                     dE             d eps       ncg     rms          rms(c)
RMM:   1    -0.413157760913E+03    0.42606E-02   -0.88128E+00  4264   0.894E-01    0.835E-01
RMM:   2    -0.413163883213E+03   -0.61223E-02   -0.10674E-01  4399   0.973E-02    0.600E-01
RMM:   3    -0.413161694030E+03    0.21892E-02   -0.94582E-03  4846   0.377E-02    0.877E-02
RMM:   4    -0.413161772887E+03   -0.78857E-04   -0.74106E-04  5262   0.205E-02    0.413E-02
RMM:   5    -0.413161825457E+03   -0.52570E-04   -0.18856E-04  5083   0.138E-02    0.504E-02
RMM:   6    -0.413161743960E+03    0.81497E-04   -0.15319E-04  5271   0.126E-02    0.265E-02
RMM:   7    -0.413161741321E+03    0.26393E-05   -0.13907E-04  5103   0.108E-02    0.132E-02
RMM:   8    -0.413161739528E+03    0.17929E-05   -0.14735E-05  4197   0.523E-03    0.642E-03
RMM:   9    -0.413161740804E+03   -0.12765E-05   -0.32384E-06  2600   0.232E-03    0.267E-03
RMM:  10    -0.413161743918E+03   -0.31137E-05   -0.14514E-06  2485   0.178E-03    0.133E-03
RMM:  11    -0.413161750473E+03   -0.65545E-05   -0.10950E-06  2457   0.141E-03    0.592E-04
RMM:  12    -0.413161752992E+03   -0.25190E-05   -0.42341E-07  1946   0.951E-04    0.352E-04
RMM:  13    -0.413161755060E+03   -0.20683E-05   -0.26687E-07  1735   0.817E-04    0.235E-04
RMM:  14    -0.413161757218E+03   -0.21583E-05   -0.24211E-07  1570   0.746E-04    0.119E-04
RMM:  15    -0.413161758029E+03   -0.81102E-06   -0.84628E-08  1079   0.578E-04
  149 T=    60. E= -.41286728E+03 F= -.41316176E+03 E0= -.41314112E+03  EK= 0.29448E+00 SP= 0.00E+00 SK= 0.00E+00
       N       E                     dE             d eps       ncg     rms          rms(c)
RMM:   1    -0.413157517098E+03    0.42401E-02   -0.84216E+00  4264   0.872E-01    0.830E-01
RMM:   2    -0.413162924386E+03   -0.54073E-02   -0.10240E-01  4399   0.946E-02    0.595E-01
RMM:   3    -0.413160595340E+03    0.23290E-02   -0.10836E-02  4897   0.384E-02    0.790E-02
RMM:   4    -0.413161824187E+03   -0.12288E-02   -0.17536E-03  5242   0.355E-02    0.149E-01
RMM:   5    -0.413160647058E+03    0.11771E-02   -0.68112E-04  4872   0.266E-02    0.386E-02
RMM:   6    -0.413160641533E+03    0.55250E-05   -0.29392E-04  5415   0.179E-02    0.276E-02
RMM:   7    -0.413160641938E+03   -0.40486E-06   -0.16479E-04  5203   0.113E-02    0.153E-02
RMM:   8    -0.413160638788E+03    0.31498E-05   -0.18125E-05  4438   0.544E-03    0.737E-03
RMM:   9    -0.413160640081E+03   -0.12931E-05   -0.49873E-06  2688   0.248E-03    0.286E-03
RMM:  10    -0.413160642908E+03   -0.28266E-05   -0.14525E-06  2494   0.185E-03    0.157E-03
RMM:  11    -0.413160647521E+03   -0.46132E-05   -0.11247E-06  2499   0.155E-03    0.855E-04
RMM:  12    -0.413160649246E+03   -0.17251E-05   -0.40523E-07  2082   0.102E-03    0.501E-04
RMM:  13    -0.413160651201E+03   -0.19550E-05   -0.31073E-07  1845   0.859E-04    0.278E-04
RMM:  14    -0.413160653324E+03   -0.21224E-05   -0.29321E-07  1681   0.795E-04    0.215E-04
RMM:  15    -0.413160654213E+03   -0.88956E-06   -0.11869E-07  1294   0.646E-04
  150 T=    60. E= -.41286704E+03 F= -.41316065E+03 E0= -.41314002E+03  EK= 0.29362E+00 SP= 0.00E+00 SK= 0.00E+00
