       N       E                     dE             d eps       ncg     rms          rms(c)
RMM:   1     0.220163010236E+04    0.22016E+04   -0.52442E+04  2132   0.654E+02
RMM:   2     0.705578115217E+03   -0.14961E+04   -0.16263E+04  2132   0.177E+02
RMM:   3     0.137757341579E+03   -0.56782E+03   -0.65697E+03  2132   0.117E+02
RMM:   4    -0.159696346988E+03   -0.29745E+03   -0.27837E+03  2132   0.936E+01
RMM:   5    -0.287547827312E+03   -0.12785E+03   -0.11436E+03  2132   0.595E+01
RMM:   6    -0.349855361352E+03   -0.62308E+02   -0.55063E+02  2132   0.423E+01
RMM:   7    -0.382727443346E+03   -0.32872E+02   -0.30405E+02  2132   0.293E+01
RMM:   8    -0.404266500981E+03   -0.21539E+02   -0.18458E+02  2132   0.233E+01
RMM:   9    -0.435997159914E+03   -0.31731E+02   -0.30605E+02  6103   0.173E+01
RMM:  10    -0.441330106149E+03   -0.53329E+01   -0.63237E+01  6395   0.539E+00
RMM:  11    -0.442527873954E+03   -0.11978E+01   -0.11107E+01  6202   0.173E+00
RMM:  12    -0.442885198136E+03   -0.35732E+00   -0.26032E+00  6365   0.597E-01    0.134E+02
RMM:  13    -0.425642492401E+03    0.17243E+02   -0.81579E+01  4677   0.120E+01    0.712E+01
RMM:  14    -0.499417970864E+03   -0.73775E+02   -0.54075E+02  5419   0.232E+01    0.307E+01
RMM:  15    -0.415326281828E+03    0.84092E+02   -0.19853E+02  5078   0.163E+01    0.661E+00
RMM:  16    -0.414043925251E+03    0.12824E+01   -0.39225E+01  6085   0.607E+00    0.426E+00
RMM:  17    -0.413224778061E+03    0.81915E+00   -0.24427E+00  5378   0.184E+00    0.247E+00
RMM:  18    -0.413166880727E+03    0.57897E-01   -0.83663E-01  5975   0.945E-01    0.163E+00
RMM:  19    -0.413169132510E+03   -0.22518E-02   -0.25933E-01  5724   0.547E-01    0.865E-01
RMM:  20    -0.413191631428E+03   -0.22499E-01   -0.27658E-01  5487   0.554E-01    0.646E-01
RMM:  21    -0.413169314659E+03    0.22317E-01   -0.36311E-02  4977   0.243E-01    0.304E-01
RMM:  22    -0.413165991453E+03    0.33232E-02   -0.21865E-02  5950   0.136E-01    0.143E-01
RMM:  23    -0.413164725408E+03    0.12660E-02   -0.67476E-03  6064   0.747E-02    0.863E-02
RMM:  24    -0.413163421334E+03    0.13041E-02   -0.16432E-03  5256   0.424E-02    0.502E-02
RMM:  25    -0.413162814984E+03    0.60635E-03   -0.80239E-04  5329   0.274E-02    0.375E-02
RMM:  26    -0.413162910412E+03   -0.95428E-04   -0.10485E-03  5736   0.341E-02    0.354E-02
RMM:  27    -0.413163297248E+03   -0.38684E-03   -0.19492E-04  4613   0.200E-02    0.217E-02
RMM:  28    -0.413163739490E+03   -0.44224E-03   -0.17851E-04  5164   0.192E-02    0.987E-03
RMM:  29    -0.413164126536E+03   -0.38705E-03   -0.11763E-04  4666   0.160E-02    0.437E-03
RMM:  30    -0.413164370730E+03   -0.24419E-03   -0.87284E-05  4286   0.111E-02    0.377E-03
RMM:  31    -0.413164477461E+03   -0.10673E-03   -0.51208E-05  3268   0.646E-03    0.356E-03
RMM:  32    -0.413164498039E+03   -0.20578E-04   -0.19576E-05  2952   0.298E-03    0.205E-03
RMM:  33    -0.413164505996E+03   -0.79573E-05   -0.82969E-06  2794   0.217E-03    0.715E-04
RMM:  34    -0.413164506384E+03   -0.38792E-06   -0.45151E-06  2646   0.165E-03
    1 T=    61. E= -.41286670E+03 F= -.41316451E+03 E0= -.41314201E+03  EK= 0.29781E+00 SP= 0.00E+00 SK= 0.00E+00
       N       E                     dE             d eps       ncg     rms          rms(c)
RMM:   1    -0.413167978197E+03   -0.34722E-02   -0.77215E+00  3997   0.560E-01    0.892E-01
RMM:   2    -0.413169924765E+03   -0.19466E-02   -0.96240E-02  3984   0.818E-02    0.657E-01
RMM:   3    -0.413165109874E+03    0.48149E-02   -0.29018E-02  4893   0.596E-02    0.156E-01
RMM:   4    -0.413187717738E+03   -0.22608E-01   -0.25892E-02  5185   0.135E-01    0.636E-01
RMM:   5    -0.413164017329E+03    0.23700E-01   -0.11382E-02  4838   0.107E-01    0.492E-02
RMM:   6    -0.413164193044E+03   -0.17571E-03   -0.21475E-03  5721   0.455E-02    0.346E-02
RMM:   7    -0.413164195659E+03   -0.26144E-05   -0.41679E-04  5691   0.185E-02    0.208E-02
RMM:   8    -0.413164193947E+03    0.17116E-05   -0.44367E-05  5050   0.750E-03    0.838E-03
RMM:   9    -0.413164197148E+03   -0.32015E-05   -0.96999E-06  3379   0.322E-03    0.613E-03
RMM:  10    -0.413164202553E+03   -0.54047E-05   -0.20883E-06  2584   0.216E-03    0.354E-03
RMM:  11    -0.413164206805E+03   -0.42514E-05   -0.11935E-06  2511   0.163E-03    0.183E-03
RMM:  12    -0.413164212839E+03   -0.60348E-05   -0.13057E-06  2523   0.161E-03    0.784E-04
RMM:  13    -0.413164215497E+03   -0.26579E-05   -0.60792E-07  2287   0.115E-03    0.561E-04
RMM:  14    -0.413164215656E+03   -0.15867E-06   -0.32848E-07  1788   0.813E-04
    2 T=    61. E= -.41286651E+03 F= -.41316422E+03 E0= -.41314172E+03  EK= 0.29770E+00 SP= 0.00E+00 SK= 0.00E+00
       N       E                     dE             d eps       ncg     rms          rms(c)
RMM:   1    -0.413168936202E+03   -0.47207E-02   -0.76931E+00  4184   0.563E-01    0.907E-01
RMM:   2    -0.413170203461E+03   -0.12673E-02   -0.95991E-02  4047   0.820E-02    0.655E-01
RMM:   3    -0.413165930990E+03    0.42725E-02   -0.26927E-02  4981   0.586E-02    0.156E-01
RMM:   4    -0.413194820662E+03   -0.28890E-01   -0.33132E-02  5149   0.153E-01    0.717E-01
RMM:   5    -0.413164605555E+03    0.30215E-01   -0.14082E-02  4806   0.120E-01    0.512E-02
RMM:   6    -0.413164815238E+03   -0.20968E-03   -0.26017E-03  5729   0.503E-02    0.368E-02
RMM:   7    -0.413164803044E+03    0.12194E-04   -0.47149E-04  5618   0.205E-02    0.232E-02
RMM:   8    -0.413164795060E+03    0.79835E-05   -0.61270E-05  5244   0.903E-03    0.105E-02
RMM:   9    -0.413164793577E+03    0.14838E-05   -0.12490E-05  3827   0.391E-03    0.741E-03
RMM:  10    -0.413164794126E+03   -0.54969E-06   -0.22872E-06  2600   0.241E-03
    3 T=    61. E= -.41286691E+03 F= -.41316479E+03 E0= -.41314230E+03  EK= 0.29788E+00 SP= 0.00E+00 SK= 0.00E+00
       N       E                     dE             d eps       ncg     rms          rms(c)
RMM:   1    -0.413168462246E+03   -0.36687E-02   -0.76394E+00  4222   0.572E-01    0.893E-01
RMM:   2    -0.413169727275E+03   -0.12650E-02   -0.95635E-02  4248   0.821E-02    0.649E-01
RMM:   3    -0.413173276741E+03   -0.35495E-02   -0.32150E-02  5175   0.985E-02    0.398E-01
RMM:   4    -0.413182268052E+03   -0.89913E-02   -0.35458E-02  5091   0.164E-01    0.553E-01
RMM:   5    -0.413164549384E+03    0.17719E-01   -0.63861E-03  4629   0.921E-02    0.561E-02
RMM:   6    -0.413164549756E+03   -0.37214E-06   -0.13545E-03  5346   0.371E-02    0.320E-02
RMM:   7    -0.413164564784E+03   -0.15027E-04   -0.28293E-04  5856   0.160E-02    0.186E-02
RMM:   8    -0.413164561440E+03    0.33431E-05   -0.47145E-05  5040   0.824E-03    0.733E-03
RMM:   9    -0.413164560532E+03    0.90825E-06   -0.54130E-06  3017   0.315E-03
    4 T=    61. E= -.41286667E+03 F= -.41316456E+03 E0= -.41314207E+03  EK= 0.29789E+00 SP= 0.00E+00 SK= 0.00E+00
       N       E                     dE             d eps       ncg     rms          rms(c)
RMM:   1    -0.413168358049E+03   -0.37966E-02   -0.77132E+00  4235   0.573E-01    0.889E-01
RMM:   2    -0.413170078890E+03   -0.17208E-02   -0.96475E-02  4137   0.802E-02    0.656E-01
RMM:   3    -0.413169560207E+03    0.51868E-03   -0.31480E-02  5126   0.818E-02    0.305E-01
RMM:   4    -0.413191240586E+03   -0.21680E-01   -0.39080E-02  5118   0.169E-01    0.677E-01
RMM:   5    -0.413164571600E+03    0.26669E-01   -0.11013E-02  4713   0.112E-01    0.555E-02
RMM:   6    -0.413164684492E+03   -0.11289E-03   -0.20895E-03  5612   0.458E-02    0.323E-02
RMM:   7    -0.413164707267E+03   -0.22775E-04   -0.37208E-04  5888   0.172E-02    0.200E-02
RMM:   8    -0.413164707446E+03   -0.17946E-06   -0.51985E-05  5112   0.838E-03    0.798E-03
RMM:   9    -0.413164708988E+03   -0.15414E-05   -0.77329E-06  3256   0.335E-03    0.463E-03
RMM:  10    -0.413164713657E+03   -0.46695E-05   -0.19283E-06  2558   0.217E-03    0.292E-03
RMM:  11    -0.413164717610E+03   -0.39527E-05   -0.10676E-06  2519   0.163E-03    0.147E-03
RMM:  12    -0.413164722385E+03   -0.47747E-05   -0.10476E-06  2512   0.148E-03    0.656E-04
RMM:  13    -0.413164724673E+03   -0.22880E-05   -0.53359E-07  2222   0.110E-03    0.383E-04
RMM:  14    -0.413164725335E+03   -0.66274E-06   -0.25557E-07  1687   0.822E-04
    5 T=    61. E= -.41286668E+03 F= -.41316473E+03 E0= -.41314225E+03  EK= 0.29804E+00 SP= 0.00E+00 SK= 0.00E+00
       N       E                     dE             d eps       ncg     rms          rms(c)
RMM:   1    -0.413169211059E+03   -0.44864E-02   -0.77036E+00  4247   0.576E-01    0.905E-01
RMM:   2    -0.413170345239E+03   -0.11342E-02   -0.96211E-02  4065   0.791E-02    0.656E-01
RMM:   3    -0.413166624786E+03    0.37205E-02   -0.27520E-02  5019   0.592E-02    0.173E-01
RMM:   4    -0.413196851682E+03   -0.30227E-01   -0.35590E-02  5133   0.159E-01    0.736E-01
RMM:   5    -0.413165006354E+03    0.31845E-01   -0.14635E-02  4790   0.123E-01    0.524E-02
RMM:   6    -0.413165218160E+03   -0.21181E-03   -0.26562E-03  5701   0.510E-02    0.364E-02
RMM:   7    -0.413165212352E+03    0.58078E-05   -0.47101E-04  5669   0.203E-02    0.230E-02
RMM:   8    -0.413165202912E+03    0.94396E-05   -0.62096E-05  5236   0.903E-03    0.102E-02
RMM:   9    -0.413165200936E+03    0.19765E-05   -0.12050E-05  3803   0.391E-03    0.702E-03
RMM:  10    -0.413165201544E+03   -0.60800E-06   -0.22013E-06  2589   0.239E-03
    6 T=    61. E= -.41286687E+03 F= -.41316520E+03 E0= -.41314274E+03  EK= 0.29833E+00 SP= 0.00E+00 SK= 0.00E+00
       N       E                     dE             d eps       ncg     rms          rms(c)
RMM:   1    -0.413168900499E+03   -0.36996E-02   -0.76585E+00  4258   0.580E-01    0.900E-01
RMM:   2    -0.413170117958E+03   -0.12175E-02   -0.95783E-02  4280   0.799E-02    0.650E-01
RMM:   3    -0.413172539038E+03   -0.24211E-02   -0.31140E-02  5150   0.939E-02    0.372E-01
RMM:   4    -0.413184275056E+03   -0.11736E-01   -0.35786E-02  5087   0.164E-01    0.577E-01
RMM:   5    -0.413164906170E+03    0.19369E-01   -0.71756E-03  4650   0.956E-02    0.560E-02
RMM:   6    -0.413164929948E+03   -0.23779E-04   -0.14621E-03  5398   0.387E-02    0.326E-02
RMM:   7    -0.413164942512E+03   -0.12563E-04   -0.29570E-04  5862   0.162E-02    0.191E-02
RMM:   8    -0.413164937809E+03    0.47027E-05   -0.48581E-05  5058   0.840E-03    0.750E-03
RMM:   9    -0.413164935687E+03    0.21219E-05   -0.59821E-06  3073   0.323E-03    0.390E-03
RMM:  10    -0.413164935570E+03    0.11666E-06   -0.14890E-06  2528   0.204E-03
    7 T=    61. E= -.41286649E+03 F= -.41316494E+03 E0= -.41314249E+03  EK= 0.29845E+00 SP= 0.00E+00 SK= 0.00E+00
       N       E                     dE             d eps       ncg     rms          rms(c)
RMM:   1    -0.413169126053E+03   -0.41904E-02   -0.77013E+00  4266   0.586E-01    0.888E-01
RMM:   2    -0.413171184823E+03   -0.20588E-02   -0.96123E-02  4153   0.812E-02    0.654E-01
RMM:   3    -0.413167330032E+03    0.38548E-02   -0.29120E-02  4995   0.654E-02    0.197E-01
RMM:   4    -0.413197374187E+03   -0.30044E-01   -0.36585E-02  5125   0.161E-01    0.739E-01
RMM:   5    -0.413165329744E+03    0.32044E-01   -0.14612E-02  4782   0.123E-01    0.520E-02
RMM:   6    -0.413165546069E+03   -0.21632E-03   -0.26743E-03  5705   0.510E-02    0.353E-02
RMM:   7    -0.413165549624E+03   -0.35549E-05   -0.46298E-04  5703   0.200E-02    0.227E-02
RMM:   8    -0.413165544637E+03    0.49870E-05   -0.61191E-05  5197   0.887E-03    0.100E-02
RMM:   9    -0.413165543808E+03    0.82871E-06   -0.11663E-05  3755   0.387E-03    0.685E-03
RMM:  10    -0.413165546530E+03   -0.27220E-05   -0.20969E-06  2573   0.231E-03    0.409E-03
RMM:  11    -0.413165548525E+03   -0.19947E-05   -0.10827E-06  2525   0.167E-03    0.231E-03
RMM:  12    -0.413165551952E+03   -0.34271E-05   -0.16657E-06  2558   0.189E-03    0.106E-03
RMM:  13    -0.413165553416E+03   -0.14643E-05   -0.76740E-07  2430   0.136E-03    0.885E-04
RMM:  14    -0.413165553164E+03    0.25162E-06   -0.26789E-07  1949   0.886E-04
    8 T=    61. E= -.41286674E+03 F= -.41316555E+03 E0= -.41314312E+03  EK= 0.29881E+00 SP= 0.00E+00 SK= 0.00E+00
       N       E                     dE             d eps       ncg     rms          rms(c)
RMM:   1    -0.413169707192E+03   -0.41538E-02   -0.77222E+00  4279   0.589E-01    0.902E-01
RMM:   2    -0.413171304830E+03   -0.15976E-02   -0.96106E-02  4177   0.821E-02    0.658E-01
RMM:   3    -0.413166903332E+03    0.44015E-02   -0.28021E-02  4938   0.606E-02    0.164E-01
RMM:   4    -0.413195251541E+03   -0.28348E-01   -0.32303E-02  5125   0.151E-01    0.712E-01
RMM:   5    -0.413165518575E+03    0.29733E-01   -0.13901E-02  4793   0.118E-01    0.499E-02
RMM:   6    -0.413165725483E+03   -0.20691E-03   -0.25044E-03  5738   0.492E-02    0.356E-02
RMM:   7    -0.413165719083E+03    0.63997E-05   -0.44021E-04  5621   0.201E-02    0.226E-02
RMM:   8    -0.413165710752E+03    0.83315E-05   -0.59796E-05  5139   0.886E-03    0.104E-02
RMM:   9    -0.413165709145E+03    0.16071E-05   -0.11768E-05  3742   0.389E-03    0.738E-03
RMM:  10    -0.413165709891E+03   -0.74619E-06   -0.20989E-06  2578   0.236E-03
    9 T=    61. E= -.41286672E+03 F= -.41316571E+03 E0= -.41314330E+03  EK= 0.29899E+00 SP= 0.00E+00 SK= 0.00E+00
       N       E                     dE             d eps       ncg     rms          rms(c)
RMM:   1    -0.413169887288E+03   -0.41781E-02   -0.76847E+00  4290   0.594E-01    0.906E-01
RMM:   2    -0.413171166951E+03   -0.12797E-02   -0.96127E-02  4315   0.833E-02    0.653E-01
RMM:   3    -0.413173961089E+03   -0.27941E-02   -0.31605E-02  5137   0.969E-02    0.385E-01
RMM:   4    -0.413184204253E+03   -0.10243E-01   -0.35500E-02  5064   0.163E-01    0.563E-01
RMM:   5    -0.413165779084E+03    0.18425E-01   -0.66399E-03  4631   0.929E-02    0.559E-02
RMM:   6    -0.413165788031E+03   -0.89466E-05   -0.14161E-03  5379   0.376E-02    0.328E-02
RMM:   7    -0.413165800747E+03   -0.12716E-04   -0.28555E-04  5802   0.160E-02    0.189E-02
RMM:   8    -0.413165795209E+03    0.55380E-05   -0.47370E-05  5051   0.823E-03    0.738E-03
RMM:   9    -0.413165791792E+03    0.34164E-05   -0.55580E-06  3011   0.313E-03    0.385E-03
RMM:  10    -0.413165790494E+03    0.12984E-05   -0.14701E-06  2521   0.202E-03    0.234E-03
RMM:  11    -0.413165788720E+03    0.17734E-05   -0.10381E-06  2492   0.161E-03    0.119E-03
RMM:  12    -0.413165786694E+03    0.20264E-05   -0.73155E-07  2451   0.132E-03    0.524E-04
RMM:  13    -0.413165785405E+03    0.12892E-05   -0.36414E-07  2012   0.969E-04    0.325E-04
RMM:  14    -0.413165783971E+03    0.14341E-05   -0.23143E-07  1567   0.787E-04    0.203E-04
RMM:  15    -0.413165781314E+03    0.26569E-05   -0.29429E-07  1732   0.798E-04    0.243E-04
RMM:  16    -0.413165778813E+03    0.25006E-05   -0.20570E-07  1364   0.694E-04    0.160E-04
RMM:  17    -0.413165777271E+03    0.15425E-05   -0.12062E-07  1154   0.620E-04    0.741E-05
RMM:  18    -0.413165775578E+03    0.16928E-05   -0.97822E-08  1086   0.600E-04    0.561E-05
RMM:  19    -0.413165775232E+03    0.34544E-06   -0.36857E-08   778   0.534E-04
   10 T=    61. E= -.41286661E+03 F= -.41316578E+03 E0= -.41314339E+03  EK= 0.29916E+00 SP= 0.00E+00 SK= 0.00E+00
       N       E                     dE             d eps       ncg     rms          rms(c)
RMM:   1    -0.413170203306E+03   -0.44277E-02   -0.76850E+00  4291   0.598E-01    0.888E-01
RMM:   2    -0.413171906923E+03   -0.17036E-02   -0.96094E-02  4225   0.822E-02    0.652E-01
RMM:   3    -0.413168232120E+03    0.36748E-02   -0.28572E-02  4993   0.628E-02    0.189E-01
RMM:   4    -0.413198361568E+03   -0.30129E-01   -0.36451E-02  5117   0.160E-01    0.738E-01
RMM:   5    -0.413166355224E+03    0.32006E-01   -0.14748E-02  4775   0.123E-01    0.518E-02
RMM:   6    -0.413166566378E+03   -0.21115E-03   -0.26418E-03  5696   0.507E-02    0.358E-02
RMM:   7    -0.413166564437E+03    0.19408E-05   -0.45783E-04  5619   0.200E-02    0.226E-02
RMM:   8    -0.413166557963E+03    0.64738E-05   -0.61766E-05  5213   0.893E-03    0.100E-02
RMM:   9    -0.413166556516E+03    0.14472E-05   -0.12019E-05  3815   0.391E-03    0.688E-03
RMM:  10    -0.413166558199E+03   -0.16832E-05   -0.20595E-06  2569   0.230E-03    0.412E-03
RMM:  11    -0.413166559393E+03   -0.11936E-05   -0.97161E-07  2497   0.161E-03    0.237E-03
RMM:  12    -0.413166561443E+03   -0.20500E-05   -0.14789E-06  2534   0.184E-03    0.109E-03
RMM:  13    -0.413166562171E+03   -0.72872E-06   -0.65847E-07  2408   0.133E-03
   11 T=    61. E= -.41286694E+03 F= -.41316656E+03 E0= -.41314420E+03  EK= 0.29962E+00 SP= 0.00E+00 SK= 0.00E+00
       N       E                     dE             d eps       ncg     rms          rms(c)
RMM:   1    -0.413170418512E+03   -0.38571E-02   -0.77429E+00  4290   0.603E-01    0.899E-01
RMM:   2    -0.413171866688E+03   -0.14482E-02   -0.96714E-02  4231   0.820E-02    0.659E-01
RMM:   3    -0.413167811840E+03    0.40548E-02   -0.28760E-02  4936   0.602E-02    0.172E-01
RMM:   4    -0.413196308404E+03   -0.28497E-01   -0.32951E-02  5118   0.152E-01    0.715E-01
RMM:   5    -0.413166303039E+03    0.30005E-01   -0.14029E-02  4788   0.119E-01    0.497E-02
RMM:   6    -0.413166511283E+03   -0.20824E-03   -0.25270E-03  5740   0.493E-02    0.350E-02
RMM:   7    -0.413166507301E+03    0.39824E-05   -0.43363E-04  5648   0.199E-02    0.224E-02
RMM:   8    -0.413166498785E+03    0.85161E-05   -0.60836E-05  5083   0.883E-03    0.104E-02
RMM:   9    -0.413166496969E+03    0.18156E-05   -0.11733E-05  3747   0.392E-03    0.739E-03
RMM:  10    -0.413166498017E+03   -0.10480E-05   -0.20657E-06  2570   0.232E-03    0.436E-03
RMM:  11    -0.413166498938E+03   -0.92113E-06   -0.11692E-06  2505   0.175E-03
   12 T=    61. E= -.41286667E+03 F= -.41316650E+03 E0= -.41314417E+03  EK= 0.29983E+00 SP= 0.00E+00 SK= 0.00E+00
       N       E                     dE             d eps       ncg     rms          rms(c)
RMM:   1    -0.413171379853E+03   -0.48818E-02   -0.77131E+00  4295   0.610E-01    0.910E-01
RMM:   2    -0.413172177937E+03   -0.79808E-03   -0.96681E-02  4238   0.810E-02    0.655E-01
RMM:   3    -0.413168015611E+03    0.41623E-02   -0.26500E-02  4943   0.532E-02    0.139E-01
RMM:   4    -0.413194724255E+03   -0.26709E-01   -0.29605E-02  5115   0.144E-01    0.689E-01
RMM:   5    -0.413166960108E+03    0.27764E-01   -0.13101E-02  4796   0.114E-01    0.493E-02
RMM:   6    -0.413167150378E+03   -0.19027E-03   -0.23708E-03  5763   0.476E-02    0.350E-02
RMM:   7    -0.413167139727E+03    0.10650E-04   -0.41683E-04  5643   0.200E-02    0.225E-02
RMM:   8    -0.413167124816E+03    0.14911E-04   -0.58037E-05  4997   0.877E-03    0.106E-02
RMM:   9    -0.413167119973E+03    0.48428E-05   -0.11796E-05  3749   0.392E-03    0.771E-03
RMM:  10    -0.413167116770E+03    0.32039E-05   -0.21741E-06  2574   0.242E-03    0.449E-03
RMM:  11    -0.413167114268E+03    0.25014E-05   -0.13311E-06  2521   0.185E-03    0.244E-03
RMM:  12    -0.413167109959E+03    0.43095E-05   -0.16767E-06  2563   0.197E-03    0.111E-03
RMM:  13    -0.413167107433E+03    0.25258E-05   -0.57994E-07  2374   0.132E-03    0.775E-04
RMM:  14    -0.413167107275E+03    0.15758E-06   -0.24054E-07  1893   0.854E-04
   13 T=    61. E= -.41286679E+03 F= -.41316711E+03 E0= -.41314481E+03  EK= 0.30032E+00 SP= 0.00E+00 SK= 0.00E+00
       N       E                     dE             d eps       ncg     rms          rms(c)
RMM:   1    -0.413171497535E+03   -0.43901E-02   -0.76821E+00  4298   0.609E-01    0.890E-01
RMM:   2    -0.413172991587E+03   -0.14941E-02   -0.96019E-02  4238   0.797E-02    0.652E-01
RMM:   3    -0.413169088594E+03    0.39030E-02   -0.27811E-02  4975   0.587E-02    0.171E-01
RMM:   4    -0.413198445754E+03   -0.29357E-01   -0.34364E-02  5115   0.155E-01    0.725E-01
RMM:   5    -0.413167534624E+03    0.30911E-01   -0.14418E-02  4783   0.121E-01    0.509E-02
RMM:   6    -0.413167737196E+03   -0.20257E-03   -0.25773E-03  5718   0.501E-02    0.358E-02
RMM:   7    -0.413167727084E+03    0.10112E-04   -0.45329E-04  5614   0.202E-02    0.228E-02
RMM:   8    -0.413167717340E+03    0.97446E-05   -0.61063E-05  5179   0.884E-03    0.103E-02
RMM:   9    -0.413167714657E+03    0.26830E-05   -0.11731E-05  3763   0.390E-03    0.717E-03
RMM:  10    -0.413167714317E+03    0.33978E-06   -0.20898E-06  2570   0.234E-03
   14 T=    61. E= -.41286682E+03 F= -.41316771E+03 E0= -.41314545E+03  EK= 0.30089E+00 SP= 0.00E+00 SK= 0.00E+00
       N       E                     dE             d eps       ncg     rms          rms(c)
RMM:   1    -0.413171560122E+03   -0.38455E-02   -0.77697E+00  4300   0.615E-01    0.897E-01
RMM:   2    -0.413173422671E+03   -0.18625E-02   -0.96959E-02  4327   0.809E-02    0.661E-01
RMM:   3    -0.413177141470E+03   -0.37188E-02   -0.34934E-02  5132   0.102E-01    0.414E-01
RMM:   4    -0.413186146526E+03   -0.90051E-02   -0.37127E-02  5055   0.167E-01    0.566E-01
RMM:   5    -0.413167755217E+03    0.18391E-01   -0.68343E-03  4602   0.945E-02    0.547E-02
RMM:   6    -0.413167774931E+03   -0.19714E-04   -0.14192E-03  5362   0.370E-02    0.314E-02
RMM:   7    -0.413167792390E+03   -0.17459E-04   -0.27668E-04  5800   0.156E-02    0.182E-02
RMM:   8    -0.413167788550E+03    0.38401E-05   -0.45135E-05  5014   0.805E-03    0.701E-03
RMM:   9    -0.413167787472E+03    0.10784E-05   -0.51655E-06  2940   0.305E-03    0.374E-03
RMM:  10    -0.413167788507E+03   -0.10351E-05   -0.13731E-06  2505   0.194E-03    0.229E-03
RMM:  11    -0.413167789421E+03   -0.91461E-06   -0.95071E-07  2464   0.154E-03
   15 T=    61. E= -.41286654E+03 F= -.41316779E+03 E0= -.41314555E+03  EK= 0.30125E+00 SP= 0.00E+00 SK= 0.00E+00
       N       E                     dE             d eps       ncg     rms          rms(c)
RMM:   1    -0.413173144459E+03   -0.53560E-02   -0.77462E+00  4296   0.618E-01    0.912E-01
RMM:   2    -0.413174326696E+03   -0.11822E-02   -0.96800E-02  4263   0.828E-02    0.658E-01
RMM:   3    -0.413170831329E+03    0.34954E-02   -0.27573E-02  5013   0.656E-02    0.197E-01
RMM:   4    -0.413202053179E+03   -0.31222E-01   -0.39370E-02  5116   0.167E-01    0.752E-01
RMM:   5    -0.413168661392E+03    0.33392E-01   -0.15114E-02  4768   0.125E-01    0.536E-02
RMM:   6    -0.413168865956E+03   -0.20456E-03   -0.27911E-03  5696   0.522E-02    0.372E-02
RMM:   7    -0.413168849830E+03    0.16126E-04   -0.48325E-04  5692   0.207E-02    0.239E-02
RMM:   8    -0.413168837051E+03    0.12780E-04   -0.66887E-05  5216   0.937E-03    0.107E-02
RMM:   9    -0.413168831973E+03    0.50776E-05   -0.12407E-05  3822   0.405E-03    0.710E-03
RMM:  10    -0.413168828302E+03    0.36713E-05   -0.22608E-06  2584   0.242E-03    0.419E-03
RMM:  11    -0.413168825907E+03    0.23949E-05   -0.10597E-06  2501   0.168E-03    0.242E-03
RMM:  12    -0.413168820855E+03    0.50520E-05   -0.16336E-06  2551   0.194E-03    0.112E-03
RMM:  13    -0.413168816984E+03    0.38704E-05   -0.74593E-07  2430   0.140E-03    0.944E-04
RMM:  14    -0.413168816946E+03    0.38704E-07   -0.27793E-07  2006   0.918E-04
   16 T=    61. E= -.41286690E+03 F= -.41316882E+03 E0= -.41314662E+03  EK= 0.30191E+00 SP= 0.00E+00 SK= 0.00E+00
       N       E                     dE             d eps       ncg     rms          rms(c)
RMM:   1    -0.413173143947E+03   -0.43270E-02   -0.76987E+00  4295   0.622E-01    0.895E-01
RMM:   2    -0.413174778614E+03   -0.16347E-02   -0.96491E-02  4264   0.839E-02    0.652E-01
RMM:   3    -0.413170671641E+03    0.41070E-02   -0.27490E-02  4952   0.619E-02    0.171E-01
RMM:   4    -0.413200825792E+03   -0.30154E-01   -0.35404E-02  5108   0.158E-01    0.735E-01
RMM:   5    -0.413169091994E+03    0.31734E-01   -0.14781E-02  4779   0.122E-01    0.512E-02
RMM:   6    -0.413169298747E+03   -0.20675E-03   -0.26774E-03  5726   0.507E-02    0.363E-02
RMM:   7    -0.413169284564E+03    0.14183E-04   -0.45892E-04  5616   0.204E-02    0.232E-02
RMM:   8    -0.413169272167E+03    0.12397E-04   -0.64526E-05  5151   0.916E-03    0.107E-02
RMM:   9    -0.413169268167E+03    0.39999E-05   -0.12466E-05  3820   0.402E-03    0.747E-03
RMM:  10    -0.413169265861E+03    0.23062E-05   -0.21812E-06  2573   0.237E-03    0.439E-03
RMM:  11    -0.413169264351E+03    0.15095E-05   -0.11300E-06  2508   0.171E-03    0.251E-03
RMM:  12    -0.413169261211E+03    0.31397E-05   -0.16431E-06  2545   0.196E-03    0.115E-03
RMM:  13    -0.413169258738E+03    0.24730E-05   -0.66271E-07  2410   0.137E-03    0.949E-04
RMM:  14    -0.413169258682E+03    0.56090E-07   -0.25900E-07  1977   0.895E-04
   17 T=    62. E= -.41286681E+03 F= -.41316926E+03 E0= -.41314710E+03  EK= 0.30245E+00 SP= 0.00E+00 SK= 0.00E+00
       N       E                     dE             d eps       ncg     rms          rms(c)
RMM:   1    -0.413173685669E+03   -0.44269E-02   -0.77909E+00  4293   0.629E-01    0.896E-01
RMM:   2    -0.413175411464E+03   -0.17258E-02   -0.97665E-02  4262   0.859E-02    0.661E-01
RMM:   3    -0.413171324020E+03    0.40874E-02   -0.29685E-02  4942   0.635E-02    0.185E-01
RMM:   4    -0.413200756992E+03   -0.29433E-01   -0.34825E-02  5109   0.156E-01    0.728E-01
RMM:   5    -0.413169613860E+03    0.31143E-01   -0.14651E-02  4774   0.121E-01    0.503E-02
RMM:   6    -0.413169816034E+03   -0.20217E-03   -0.26102E-03  5734   0.499E-02    0.350E-02
RMM:   7    -0.413169813495E+03    0.25387E-05   -0.43863E-04  5610   0.202E-02    0.225E-02
RMM:   8    -0.413169806646E+03    0.68490E-05   -0.63821E-05  5124   0.915E-03    0.105E-02
RMM:   9    -0.413169804150E+03    0.24962E-05   -0.12504E-05  3817   0.406E-03    0.730E-03
RMM:  10    -0.413169804556E+03   -0.40594E-06   -0.21263E-06  2577   0.236E-03
   18 T=    62. E= -.41286672E+03 F= -.41316980E+03 E0= -.41314769E+03  EK= 0.30308E+00 SP= 0.00E+00 SK= 0.00E+00
       N       E                     dE             d eps       ncg     rms          rms(c)
RMM:   1    -0.413175210495E+03   -0.54063E-02   -0.77813E+00  4304   0.632E-01    0.913E-01
RMM:   2    -0.413176287212E+03   -0.10767E-02   -0.97688E-02  4313   0.850E-02    0.661E-01
RMM:   3    -0.413179591440E+03   -0.33042E-02   -0.32757E-02  5130   0.979E-02    0.395E-01
RMM:   4    -0.413189664684E+03   -0.10073E-01   -0.36788E-02  5048   0.165E-01    0.567E-01
RMM:   5    -0.413170964808E+03    0.18700E-01   -0.67483E-03  4617   0.935E-02    0.552E-02
RMM:   6    -0.413170985407E+03   -0.20599E-04   -0.14645E-03  5378   0.374E-02    0.328E-02
RMM:   7    -0.413170986770E+03   -0.13630E-05   -0.28733E-04  5746   0.164E-02    0.190E-02
RMM:   8    -0.413170978495E+03    0.82756E-05   -0.47761E-05  5027   0.828E-03    0.742E-03
RMM:   9    -0.413170974179E+03    0.43159E-05   -0.56023E-06  3000   0.316E-03    0.392E-03
RMM:  10    -0.413170971644E+03    0.25349E-05   -0.14355E-06  2506   0.201E-03    0.237E-03
RMM:  11    -0.413170968438E+03    0.32055E-05   -0.93289E-07  2468   0.157E-03    0.121E-03
RMM:  12    -0.413170964723E+03    0.37150E-05   -0.65420E-07  2431   0.128E-03    0.516E-04
RMM:  13    -0.413170962476E+03    0.22472E-05   -0.32396E-07  1994   0.950E-04    0.329E-04
RMM:  14    -0.413170960364E+03    0.21125E-05   -0.18290E-07  1485   0.750E-04    0.213E-04
RMM:  15    -0.413170955667E+03    0.46963E-05   -0.20989E-07  1584   0.760E-04    0.246E-04
RMM:  16    -0.413170952372E+03    0.32949E-05   -0.12290E-07  1159   0.642E-04    0.157E-04
RMM:  17    -0.413170949713E+03    0.26590E-05   -0.89921E-08  1095   0.617E-04    0.746E-05
RMM:  18    -0.413170947140E+03    0.25737E-05   -0.71128E-08  1049   0.596E-04    0.574E-05
RMM:  19    -0.413170946409E+03    0.73113E-06   -0.29901E-08   785   0.547E-04
   19 T=    62. E= -.41286700E+03 F= -.41317095E+03 E0= -.41314887E+03  EK= 0.30395E+00 SP= 0.00E+00 SK= 0.00E+00
       N       E                     dE             d eps       ncg     rms          rms(c)
RMM:   1    -0.413175395753E+03   -0.44486E-02   -0.77389E+00  4294   0.637E-01    0.903E-01
RMM:   2    -0.413176504117E+03   -0.11084E-02   -0.97298E-02  4262   0.823E-02    0.655E-01
RMM:   3    -0.413173076378E+03    0.34277E-02   -0.27416E-02  5016   0.616E-02    0.184E-01
RMM:   4    -0.413204501998E+03   -0.31426E-01   -0.38422E-02  5120   0.164E-01    0.751E-01
RMM:   5    -0.413171197831E+03    0.33304E-01   -0.15416E-02  4772   0.125E-01    0.530E-02
RMM:   6    -0.413171407207E+03   -0.20938E-03   -0.28009E-03  5709   0.517E-02    0.371E-02
RMM:   7    -0.413171407026E+03    0.18182E-06   -0.47668E-04  5605   0.210E-02    0.236E-02
RMM:   8    -0.413171395468E+03    0.11558E-04   -0.69661E-05  5213   0.957E-03    0.107E-02
RMM:   9    -0.413171389820E+03    0.56480E-05   -0.13458E-05  3906   0.420E-03    0.721E-03
RMM:  10    -0.413171386666E+03    0.31533E-05   -0.22635E-06  2583   0.241E-03    0.429E-03
RMM:  11    -0.413171384781E+03    0.18852E-05   -0.10204E-06  2500   0.165E-03    0.253E-03
RMM:  12    -0.413171380817E+03    0.39638E-05   -0.15443E-06  2532   0.193E-03    0.116E-03
RMM:  13    -0.413171378101E+03    0.27164E-05   -0.69759E-07  2409   0.139E-03    0.922E-04
RMM:  14    -0.413171377777E+03    0.32421E-06   -0.27884E-07  2021   0.925E-04
   20 T=    62. E= -.41286673E+03 F= -.41317138E+03 E0= -.41314934E+03  EK= 0.30465E+00 SP= 0.00E+00 SK= 0.00E+00
       N       E                     dE             d eps       ncg     rms          rms(c)
RMM:   1    -0.413176297113E+03   -0.49190E-02   -0.78132E+00  4296   0.639E-01    0.896E-01
RMM:   2    -0.413177985534E+03   -0.16884E-02   -0.97997E-02  4266   0.825E-02    0.661E-01
RMM:   3    -0.413173826783E+03    0.41588E-02   -0.29497E-02  4946   0.602E-02    0.174E-01
RMM:   4    -0.413201955790E+03   -0.28129E-01   -0.32684E-02  5114   0.152E-01    0.711E-01
RMM:   5    -0.413172303318E+03    0.29652E-01   -0.14046E-02  4780   0.119E-01    0.495E-02
RMM:   6    -0.413172495196E+03   -0.19188E-03   -0.25307E-03  5757   0.487E-02    0.343E-02
RMM:   7    -0.413172493812E+03    0.13836E-05   -0.41499E-04  5601   0.199E-02    0.221E-02
RMM:   8    -0.413172485820E+03    0.79927E-05   -0.64614E-05  5076   0.912E-03    0.107E-02
RMM:   9    -0.413172482725E+03    0.30941E-05   -0.12406E-05  3831   0.408E-03    0.755E-03
RMM:  10    -0.413172482606E+03    0.11890E-06   -0.20704E-06  2567   0.234E-03
   21 T=    62. E= -.41286680E+03 F= -.41317248E+03 E0= -.41315049E+03  EK= 0.30568E+00 SP= 0.00E+00 SK= 0.00E+00
       N       E                     dE             d eps       ncg     rms          rms(c)
RMM:   1    -0.413177726178E+03   -0.52435E-02   -0.78330E+00  4298   0.642E-01    0.912E-01
RMM:   2    -0.413179217590E+03   -0.14914E-02   -0.98149E-02  4356   0.834E-02    0.664E-01
RMM:   3    -0.413182111578E+03   -0.28940E-02   -0.33350E-02  5128   0.985E-02    0.393E-01
RMM:   4    -0.413193139545E+03   -0.11028E-01   -0.37622E-02  5057   0.167E-01    0.580E-01
RMM:   5    -0.413173571862E+03    0.19568E-01   -0.72270E-03  4628   0.968E-02    0.547E-02
RMM:   6    -0.413173609059E+03   -0.37197E-04   -0.15456E-03  5415   0.382E-02    0.328E-02
RMM:   7    -0.413173614629E+03   -0.55695E-05   -0.29364E-04  5698   0.165E-02    0.191E-02
RMM:   8    -0.413173609037E+03    0.55923E-05   -0.47478E-05  5010   0.835E-03    0.737E-03
RMM:   9    -0.413173604761E+03    0.42760E-05   -0.60933E-06  3034   0.322E-03    0.398E-03
RMM:  10    -0.413173602330E+03    0.24303E-05   -0.14672E-06  2506   0.202E-03    0.244E-03
RMM:  11    -0.413173599457E+03    0.28734E-05   -0.88991E-07  2462   0.154E-03    0.123E-03
RMM:  12    -0.413173595742E+03    0.37144E-05   -0.66497E-07  2427   0.129E-03    0.517E-04
RMM:  13    -0.413173593457E+03    0.22853E-05   -0.32544E-07  1986   0.949E-04    0.323E-04
RMM:  14    -0.413173591486E+03    0.19715E-05   -0.18056E-07  1484   0.745E-04    0.208E-04
RMM:  15    -0.413173587206E+03    0.42799E-05   -0.17590E-07  1471   0.731E-04    0.217E-04
RMM:  16    -0.413173583758E+03    0.34481E-05   -0.11358E-07  1111   0.642E-04    0.172E-04
RMM:  17    -0.413173581266E+03    0.24916E-05   -0.76658E-08  1011   0.606E-04    0.832E-05
RMM:  18    -0.413173578587E+03    0.26787E-05   -0.66711E-08  1061   0.601E-04    0.359E-05
RMM:  19    -0.413173577407E+03    0.11808E-05   -0.33450E-08   843   0.557E-04    0.266E-05
RMM:  20    -0.413173576904E+03    0.50254E-06   -0.18288E-08   742   0.539E-04
   22 T=    62. E= -.41286686E+03 F= -.41317358E+03 E0= -.41315163E+03  EK= 0.30672E+00 SP= 0.00E+00 SK= 0.00E+00
       N       E                     dE             d eps       ncg     rms          rms(c)
RMM:   1    -0.413180077020E+03   -0.64996E-02   -0.78190E+00  4296   0.671E-01    0.911E-01
RMM:   2    -0.413179910558E+03    0.16646E-03   -0.10203E-01  4286   0.871E-02    0.660E-01
RMM:   3    -0.413175659128E+03    0.42514E-02   -0.26682E-02  4972   0.605E-02    0.165E-01
RMM:   4    -0.413208064673E+03   -0.32406E-01   -0.37947E-02  5114   0.163E-01    0.758E-01
RMM:   5    -0.413174131676E+03    0.33933E-01   -0.15926E-02  4776   0.126E-01    0.528E-02
RMM:   6    -0.413174335732E+03   -0.20406E-03   -0.28826E-03  5725   0.525E-02    0.375E-02
RMM:   7    -0.413174324849E+03    0.10883E-04   -0.48717E-04  5605   0.212E-02    0.240E-02
RMM:   8    -0.413174312089E+03    0.12760E-04   -0.71573E-05  5205   0.961E-03    0.113E-02
RMM:   9    -0.413174306065E+03    0.60233E-05   -0.13710E-05  3963   0.423E-03    0.773E-03
RMM:  10    -0.413174301904E+03    0.41610E-05   -0.22883E-06  2579   0.242E-03    0.461E-03
RMM:  11    -0.413174299264E+03    0.26407E-05   -0.11022E-06  2503   0.171E-03    0.272E-03
RMM:  12    -0.413174293870E+03    0.53935E-05   -0.17976E-06  2569   0.204E-03    0.123E-03
RMM:  13    -0.413174290108E+03    0.37617E-05   -0.73038E-07  2412   0.144E-03    0.102E-03
RMM:  14    -0.413174290058E+03    0.50706E-07   -0.28403E-07  2046   0.936E-04
   23 T=    63. E= -.41286666E+03 F= -.41317429E+03 E0= -.41315240E+03  EK= 0.30763E+00 SP= 0.00E+00 SK= 0.00E+00
       N       E                     dE             d eps       ncg     rms          rms(c)
RMM:   1    -0.413180101051E+03   -0.58109E-02   -0.78449E+00  4296   0.664E-01    0.898E-01
RMM:   2    -0.413181780305E+03   -0.16793E-02   -0.99602E-02  4286   0.878E-02    0.662E-01
RMM:   3    -0.413176993931E+03    0.47864E-02   -0.29035E-02  4883   0.623E-02    0.159E-01
RMM:   4    -0.413203537902E+03   -0.26544E-01   -0.29872E-02  5121   0.145E-01    0.689E-01
RMM:   5    -0.413175734748E+03    0.27803E-01   -0.13245E-02  4784   0.115E-01    0.487E-02
RMM:   6    -0.413175915768E+03   -0.18102E-03   -0.24445E-03  5807   0.470E-02    0.331E-02
RMM:   7    -0.413175920324E+03   -0.45561E-05   -0.36693E-04  5627   0.189E-02    0.210E-02
RMM:   8    -0.413175910912E+03    0.94123E-05   -0.65174E-05  4994   0.891E-03    0.109E-02
RMM:   9    -0.413175906587E+03    0.43251E-05   -0.12482E-05  3884   0.413E-03    0.782E-03
RMM:  10    -0.413175905156E+03    0.14306E-05   -0.20691E-06  2568   0.237E-03    0.458E-03
RMM:  11    -0.413175904005E+03    0.11513E-05   -0.14105E-06  2520   0.190E-03    0.243E-03
RMM:  12    -0.413175901990E+03    0.20150E-05   -0.16265E-06  2538   0.195E-03    0.114E-03
RMM:  13    -0.413175900635E+03    0.13551E-05   -0.52197E-07  2340   0.128E-03    0.733E-04
RMM:  14    -0.413175900266E+03    0.36901E-06   -0.23614E-07  1896   0.853E-04
   24 T=    63. E= -.41286699E+03 F= -.41317590E+03 E0= -.41315405E+03  EK= 0.30891E+00 SP= 0.00E+00 SK= 0.00E+00
       N       E                     dE             d eps       ncg     rms          rms(c)
RMM:   1    -0.413181604428E+03   -0.57038E-02   -0.79044E+00  4296   0.670E-01    0.911E-01
RMM:   2    -0.413182692309E+03   -0.10879E-02   -0.10072E-01  4292   0.889E-02    0.668E-01
RMM:   3    -0.413178124942E+03    0.45674E-02   -0.28927E-02  4925   0.635E-02    0.164E-01
RMM:   4    -0.413207296744E+03   -0.29172E-01   -0.33247E-02  5117   0.153E-01    0.721E-01
RMM:   5    -0.413176739603E+03    0.30557E-01   -0.14388E-02  4780   0.120E-01    0.505E-02
RMM:   6    -0.413176938062E+03   -0.19846E-03   -0.26846E-03  5778   0.496E-02    0.357E-02
RMM:   7    -0.413176930701E+03    0.73603E-05   -0.44106E-04  5592   0.204E-02    0.230E-02
RMM:   8    -0.413176918856E+03    0.11845E-04   -0.65559E-05  5087   0.933E-03    0.111E-02
RMM:   9    -0.413176914058E+03    0.47986E-05   -0.12870E-05  3864   0.415E-03    0.777E-03
RMM:  10    -0.413176911595E+03    0.24631E-05   -0.21733E-06  2575   0.240E-03    0.456E-03
RMM:  11    -0.413176909820E+03    0.17744E-05   -0.11974E-06  2498   0.179E-03    0.257E-03
RMM:  12    -0.413176906510E+03    0.33102E-05   -0.17704E-06  2553   0.202E-03    0.118E-03
RMM:  13    -0.413176904034E+03    0.24757E-05   -0.60919E-07  2383   0.136E-03    0.906E-04
RMM:  14    -0.413176903913E+03    0.12108E-06   -0.25851E-07  1963   0.887E-04
   25 T=    63. E= -.41286681E+03 F= -.41317690E+03 E0= -.41315511E+03  EK= 0.31010E+00 SP= 0.00E+00 SK= 0.00E+00
       N       E                     dE             d eps       ncg     rms          rms(c)
RMM:   1    -0.413183362055E+03   -0.64580E-02   -0.78908E+00  4296   0.682E-01    0.921E-01
RMM:   2    -0.413183802971E+03   -0.44092E-03   -0.10114E-01  4287   0.909E-02    0.665E-01
RMM:   3    -0.413179200997E+03    0.46020E-02   -0.27055E-02  4911   0.599E-02    0.141E-01
RMM:   4    -0.413207614978E+03   -0.28414E-01   -0.31634E-02  5123   0.149E-01    0.709E-01
RMM:   5    -0.413178101824E+03    0.29513E-01   -0.14125E-02  4783   0.118E-01    0.503E-02
RMM:   6    -0.413178277770E+03   -0.17595E-03   -0.26053E-03  5815   0.485E-02    0.353E-02
RMM:   7    -0.413178275827E+03    0.19430E-05   -0.40407E-04  5612   0.199E-02    0.223E-02
RMM:   8    -0.413178263240E+03    0.12587E-04   -0.68414E-05  5030   0.926E-03    0.116E-02
RMM:   9    -0.413178256336E+03    0.69040E-05   -0.13138E-05  3945   0.422E-03    0.821E-03
RMM:  10    -0.413178250987E+03    0.53491E-05   -0.22328E-06  2583   0.244E-03    0.479E-03
RMM:  11    -0.413178246744E+03    0.42423E-05   -0.13923E-06  2524   0.189E-03    0.267E-03
RMM:  12    -0.413178239422E+03    0.73225E-05   -0.18600E-06  2571   0.208E-03    0.121E-03
RMM:  13    -0.413178235159E+03    0.42625E-05   -0.60975E-07  2387   0.137E-03    0.857E-04
RMM:  14    -0.413178235049E+03    0.11005E-06   -0.26693E-07  1959   0.893E-04
   26 T=    63. E= -.41286676E+03 F= -.41317824E+03 E0= -.41315649E+03  EK= 0.31148E+00 SP= 0.00E+00 SK= 0.00E+00
       N       E                     dE             d eps       ncg     rms          rms(c)
RMM:   1    -0.413184120474E+03   -0.58853E-02   -0.78877E+00  4297   0.667E-01    0.903E-01
RMM:   2    -0.413185639326E+03   -0.15189E-02   -0.99774E-02  4289   0.912E-02    0.663E-01
RMM:   3    -0.413181139509E+03    0.44998E-02   -0.28651E-02  4911   0.610E-02    0.154E-01
RMM:   4    -0.413208125401E+03   -0.26986E-01   -0.30269E-02  5120   0.146E-01    0.693E-01
RMM:   5    -0.413179946809E+03    0.28179E-01   -0.13437E-02  4780   0.115E-01    0.491E-02
RMM:   6    -0.413180111180E+03   -0.16437E-03   -0.24713E-03  5812   0.473E-02    0.337E-02
RMM:   7    -0.413180108905E+03    0.22749E-05   -0.38067E-04  5614   0.194E-02    0.214E-02
RMM:   8    -0.413180098809E+03    0.10096E-04   -0.65351E-05  5012   0.911E-03    0.111E-02
RMM:   9    -0.413180093451E+03    0.53576E-05   -0.12639E-05  3892   0.416E-03    0.786E-03
RMM:  10    -0.413180090472E+03    0.29797E-05   -0.20889E-06  2572   0.239E-03    0.459E-03
RMM:  11    -0.413180088067E+03    0.24042E-05   -0.13778E-06  2520   0.188E-03    0.247E-03
RMM:  12    -0.413180084025E+03    0.40427E-05   -0.16756E-06  2547   0.198E-03    0.114E-03
RMM:  13    -0.413180081562E+03    0.24624E-05   -0.53235E-07  2344   0.129E-03    0.760E-04
RMM:  14    -0.413180081277E+03    0.28583E-06   -0.23991E-07  1894   0.857E-04
   27 T=    64. E= -.41286698E+03 F= -.41318008E+03 E0= -.41315838E+03  EK= 0.31310E+00 SP= 0.00E+00 SK= 0.00E+00
       N       E                     dE             d eps       ncg     rms          rms(c)
RMM:   1    -0.413185415942E+03   -0.53344E-02   -0.79875E+00  4297   0.675E-01    0.913E-01
RMM:   2    -0.413186863895E+03   -0.14480E-02   -0.10123E-01  4290   0.919E-02    0.673E-01
RMM:   3    -0.413182198055E+03    0.46658E-02   -0.30014E-02  4891   0.614E-02    0.158E-01
RMM:   4    -0.413208021128E+03   -0.25823E-01   -0.28761E-02  5123   0.143E-01    0.680E-01
RMM:   5    -0.413180973589E+03    0.27048E-01   -0.12910E-02  4777   0.113E-01    0.484E-02
RMM:   6    -0.413181142785E+03   -0.16920E-03   -0.23613E-03  5827   0.464E-02    0.332E-02
RMM:   7    -0.413181145742E+03   -0.29575E-05   -0.36178E-04  5606   0.191E-02    0.209E-02
RMM:   8    -0.413181137790E+03    0.79520E-05   -0.62668E-05  4984   0.899E-03    0.109E-02
RMM:   9    -0.413181133786E+03    0.40040E-05   -0.12224E-05  3850   0.413E-03    0.773E-03
RMM:  10    -0.413181132116E+03    0.16701E-05   -0.21250E-06  2578   0.246E-03    0.448E-03
RMM:  11    -0.413181130459E+03    0.16572E-05   -0.14176E-06  2526   0.191E-03    0.237E-03
RMM:  12    -0.413181127714E+03    0.27453E-05   -0.15820E-06  2525   0.197E-03    0.111E-03
RMM:  13    -0.413181125917E+03    0.17973E-05   -0.52166E-07  2336   0.128E-03    0.720E-04
RMM:  14    -0.413181125481E+03    0.43520E-06   -0.23602E-07  1880   0.853E-04
   28 T=    64. E= -.41286657E+03 F= -.41318113E+03 E0= -.41315948E+03  EK= 0.31456E+00 SP= 0.00E+00 SK= 0.00E+00
       N       E                     dE             d eps       ncg     rms          rms(c)
RMM:   1    -0.413189012975E+03   -0.78871E-02   -0.79925E+00  4294   0.710E-01    0.929E-01
RMM:   2    -0.413188936078E+03    0.76897E-04   -0.10440E-01  4287   0.970E-02    0.671E-01
RMM:   3    -0.413183783136E+03    0.51529E-02   -0.27261E-02  4771   0.584E-02    0.116E-01
RMM:   4    -0.413204452565E+03   -0.20669E-01   -0.21795E-02  5127   0.124E-01    0.606E-01
RMM:   5    -0.413183081926E+03    0.21371E-01   -0.10406E-02  4797   0.100E-01    0.470E-02
RMM:   6    -0.413183208395E+03   -0.12647E-03   -0.19122E-03  5838   0.414E-02    0.317E-02
RMM:   7    -0.413183205017E+03    0.33789E-05   -0.25212E-04  5582   0.169E-02    0.173E-02
RMM:   8    -0.413183198029E+03    0.69870E-05   -0.50239E-05  4943   0.770E-03    0.105E-02
RMM:   9    -0.413183192025E+03    0.60047E-05   -0.98066E-06  3642   0.373E-03    0.756E-03
RMM:  10    -0.413183187262E+03    0.47628E-05   -0.19556E-06  2561   0.239E-03    0.424E-03
RMM:  11    -0.413183182207E+03    0.50553E-05   -0.15968E-06  2538   0.200E-03    0.218E-03
RMM:  12    -0.413183175727E+03    0.64800E-05   -0.13298E-06  2507   0.184E-03    0.107E-03
RMM:  13    -0.413183173250E+03    0.24765E-05   -0.47917E-07  2294   0.121E-03    0.673E-04
RMM:  14    -0.413183172107E+03    0.11434E-05   -0.22401E-07  1800   0.828E-04    0.499E-04
RMM:  15    -0.413183167333E+03    0.47737E-05   -0.21127E-07  2060   0.831E-04    0.442E-04
RMM:  16    -0.413183162957E+03    0.43755E-05   -0.13112E-07  1535   0.687E-04    0.446E-04
RMM:  17    -0.413183161069E+03    0.18882E-05   -0.46463E-08   882   0.541E-04    0.349E-04
RMM:  18    -0.413183156750E+03    0.43189E-05   -0.74408E-08  1115   0.622E-04    0.869E-05
RMM:  19    -0.413183154710E+03    0.20403E-05   -0.33857E-08   848   0.570E-04    0.972E-05
RMM:  20    -0.413183154547E+03    0.16305E-06   -0.15704E-08   735   0.548E-04
   29 T=    64. E= -.41286678E+03 F= -.41318315E+03 E0= -.41316156E+03  EK= 0.31638E+00 SP= 0.00E+00 SK= 0.00E+00
       N       E                     dE             d eps       ncg     rms          rms(c)
RMM:   1    -0.413190345231E+03   -0.71905E-02   -0.79726E+00  4292   0.720E-01    0.912E-01
RMM:   2    -0.413191011057E+03   -0.66583E-03   -0.10177E-01  4276   0.990E-02    0.667E-01
RMM:   3    -0.413185670913E+03    0.53401E-02   -0.28506E-02  4740   0.631E-02    0.128E-01
RMM:   4    -0.413205938499E+03   -0.20268E-01   -0.21547E-02  5130   0.124E-01    0.603E-01
RMM:   5    -0.413184855633E+03    0.21083E-01   -0.10302E-02  4799   0.993E-02    0.462E-02
RMM:   6    -0.413184983079E+03   -0.12745E-03   -0.18368E-03  5849   0.404E-02    0.302E-02
RMM:   7    -0.413184983666E+03   -0.58742E-06   -0.21171E-04  5575   0.154E-02    0.150E-02
RMM:   8    -0.413184979910E+03    0.37562E-05   -0.35682E-05  4779   0.640E-03    0.949E-03
RMM:   9    -0.413184976278E+03    0.36321E-05   -0.87153E-06  3510   0.337E-03    0.700E-03
RMM:  10    -0.413184974187E+03    0.20913E-05   -0.17546E-06  2535   0.227E-03    0.408E-03
RMM:  11    -0.413184971622E+03    0.25651E-05   -0.15999E-06  2537   0.197E-03    0.212E-03
RMM:  12    -0.413184967933E+03    0.36890E-05   -0.13250E-06  2493   0.183E-03    0.117E-03
RMM:  13    -0.413184966571E+03    0.13616E-05   -0.43441E-07  2303   0.118E-03    0.708E-04
RMM:  14    -0.413184965942E+03    0.62939E-06   -0.19262E-07  1724   0.790E-04
   30 T=    65. E= -.41286678E+03 F= -.41318497E+03 E0= -.41316342E+03  EK= 0.31818E+00 SP= 0.00E+00 SK= 0.00E+00
       N       E                     dE             d eps       ncg     rms          rms(c)
RMM:   1    -0.413191426384E+03   -0.64598E-02   -0.80871E+00  4294   0.708E-01    0.917E-01
RMM:   2    -0.413193078556E+03   -0.16522E-02   -0.10369E-01  4273   0.103E-01    0.678E-01
RMM:   3    -0.413187266641E+03    0.58119E-02   -0.30722E-02  4621   0.660E-02    0.133E-01
RMM:   4    -0.413200382459E+03   -0.13116E-01   -0.13922E-02  5134   0.101E-01    0.491E-01
RMM:   5    -0.413186567513E+03    0.13815E-01   -0.68050E-03  4809   0.804E-02    0.431E-02
RMM:   6    -0.413186654616E+03   -0.87103E-04   -0.12666E-03  5842   0.334E-02    0.279E-02
RMM:   7    -0.413186663539E+03   -0.89228E-05   -0.18934E-04  5464   0.149E-02    0.159E-02
RMM:   8    -0.413186653063E+03    0.10476E-04   -0.31055E-05  4698   0.630E-03    0.845E-03
RMM:   9    -0.413186652631E+03    0.43208E-06   -0.63693E-06  3165   0.314E-03
   31 T=    65. E= -.41286667E+03 F= -.41318665E+03 E0= -.41316516E+03  EK= 0.31998E+00 SP= 0.00E+00 SK= 0.00E+00
       N       E                     dE             d eps       ncg     rms          rms(c)
RMM:   1    -0.413198301633E+03   -0.11649E-01   -0.81270E+00  4296   0.751E-01    0.936E-01
RMM:   2    -0.413195485456E+03    0.28162E-02   -0.10732E-01  4305   0.109E-01    0.678E-01
RMM:   3    -0.413193377915E+03    0.21075E-02   -0.30294E-02  5013   0.915E-02    0.275E-01
RMM:   4    -0.413221176966E+03   -0.27799E-01   -0.43131E-02  5077   0.176E-01    0.736E-01
RMM:   5    -0.413189099890E+03    0.32077E-01   -0.13573E-02  4727   0.121E-01    0.558E-02
RMM:   6    -0.413189262302E+03   -0.16241E-03   -0.27711E-03  5736   0.502E-02    0.372E-02
RMM:   7    -0.413189268383E+03   -0.60812E-05   -0.46194E-04  5618   0.204E-02    0.243E-02
RMM:   8    -0.413189261655E+03    0.67284E-05   -0.78243E-05  5182   0.103E-02    0.112E-02
RMM:   9    -0.413189253697E+03    0.79579E-05   -0.12015E-05  3782   0.433E-03    0.621E-03
RMM:  10    -0.413189248091E+03    0.56059E-05   -0.25333E-06  2630   0.252E-03    0.380E-03
RMM:  11    -0.413189243671E+03    0.44203E-05   -0.11505E-06  2502   0.178E-03    0.207E-03
RMM:  12    -0.413189235675E+03    0.79960E-05   -0.12741E-06  2496   0.178E-03    0.870E-04
RMM:  13    -0.413189231230E+03    0.44449E-05   -0.59699E-07  2370   0.129E-03    0.606E-04
RMM:  14    -0.413189229671E+03    0.15587E-05   -0.28367E-07  1970   0.906E-04    0.440E-04
RMM:  15    -0.413189226758E+03    0.29132E-05   -0.15240E-07  1475   0.729E-04    0.219E-04
RMM:  16    -0.413189219873E+03    0.68844E-05   -0.16920E-07  1736   0.755E-04    0.385E-04
RMM:  17    -0.413189216262E+03    0.36109E-05   -0.76660E-08  1049   0.597E-04    0.303E-04
RMM:  18    -0.413189210895E+03    0.53678E-05   -0.80328E-08  1120   0.610E-04    0.166E-04
RMM:  19    -0.413189209053E+03    0.18422E-05   -0.54319E-08  1050   0.588E-04    0.837E-05
RMM:  20    -0.413189207992E+03    0.10601E-05   -0.28778E-08   854   0.557E-04    0.990E-05
RMM:  21    -0.413189207838E+03    0.15429E-06   -0.14183E-08   704   0.526E-04
   32 T=    66. E= -.41286703E+03 F= -.41318921E+03 E0= -.41316776E+03  EK= 0.32218E+00 SP= 0.00E+00 SK= 0.00E+00
       N       E                     dE             d eps       ncg     rms          rms(c)
RMM:   1    -0.413198430728E+03   -0.92227E-02   -0.80920E+00  4297   0.760E-01    0.925E-01
RMM:   2    -0.413197067153E+03    0.13636E-02   -0.10705E-01  4281   0.112E-01    0.674E-01
RMM:   3    -0.413191552879E+03    0.55143E-02   -0.28172E-02  4542   0.706E-02    0.102E-01
RMM:   4    -0.413203118447E+03   -0.11566E-01   -0.11903E-02  5131   0.928E-02    0.459E-01
RMM:   5    -0.413191088534E+03    0.12030E-01   -0.60480E-03  4824   0.750E-02    0.436E-02
RMM:   6    -0.413191165795E+03   -0.77261E-04   -0.11748E-03  5829   0.319E-02    0.295E-02
RMM:   7    -0.413191169663E+03   -0.38685E-05   -0.24272E-04  5404   0.162E-02    0.187E-02
RMM:   8    -0.413191152799E+03    0.16864E-04   -0.30714E-05  4692   0.672E-03    0.852E-03
RMM:   9    -0.413191150619E+03    0.21807E-05   -0.57671E-06  3033   0.299E-03    0.596E-03
RMM:  10    -0.413191146827E+03    0.37919E-05   -0.17182E-06  2522   0.216E-03    0.317E-03
RMM:  11    -0.413191143211E+03    0.36157E-05   -0.11138E-06  2488   0.174E-03    0.162E-03
RMM:  12    -0.413191139356E+03    0.38547E-05   -0.70134E-07  2411   0.138E-03    0.865E-04
RMM:  13    -0.413191137328E+03    0.20278E-05   -0.31424E-07  2040   0.961E-04    0.395E-04
RMM:  14    -0.413191135301E+03    0.20274E-05   -0.17052E-07  1537   0.745E-04    0.243E-04
RMM:  15    -0.413191131515E+03    0.37864E-05   -0.11553E-07  1342   0.684E-04    0.132E-04
RMM:  16    -0.413191128357E+03    0.31580E-05   -0.67091E-08  1005   0.623E-04    0.101E-04
RMM:  17    -0.413191125470E+03    0.28869E-05   -0.49295E-08   969   0.603E-04    0.657E-05
RMM:  18    -0.413191121301E+03    0.41682E-05   -0.56368E-08  1107   0.619E-04    0.405E-05
RMM:  19    -0.413191120453E+03    0.84830E-06   -0.21398E-08   765   0.551E-04
   33 T=    66. E= -.41286683E+03 F= -.41319112E+03 E0= -.41316972E+03  EK= 0.32429E+00 SP= 0.00E+00 SK= 0.00E+00
       N       E                     dE             d eps       ncg     rms          rms(c)
RMM:   1    -0.413198469775E+03   -0.73485E-02   -0.81852E+00  4305   0.744E-01    0.923E-01
RMM:   2    -0.413199621918E+03   -0.11521E-02   -0.10678E-01  4276   0.114E-01    0.683E-01
RMM:   3    -0.413194083028E+03    0.55389E-02   -0.31198E-02  4505   0.760E-02    0.125E-01
RMM:   4    -0.413203167027E+03   -0.90840E-02   -0.97038E-03  5136   0.847E-02    0.413E-01
RMM:   5    -0.413193487377E+03    0.96796E-02   -0.48263E-03  4823   0.675E-02    0.422E-02
RMM:   6    -0.413193561912E+03   -0.74535E-04   -0.10666E-03  5790   0.297E-02    0.291E-02
RMM:   7    -0.413193565447E+03   -0.35349E-05   -0.24691E-04  5327   0.162E-02    0.191E-02
RMM:   8    -0.413193550105E+03    0.15342E-04   -0.26679E-05  4543   0.647E-03    0.836E-03
RMM:   9    -0.413193549307E+03    0.79798E-06   -0.48656E-06  2914   0.282E-03
   34 T=    67. E= -.41286685E+03 F= -.41319355E+03 E0= -.41317220E+03  EK= 0.32670E+00 SP= 0.00E+00 SK= 0.00E+00
       N       E                     dE             d eps       ncg     rms          rms(c)
RMM:   1    -0.413202285487E+03   -0.87354E-02   -0.82244E+00  4303   0.775E-01    0.943E-01
RMM:   2    -0.413201952736E+03    0.33275E-03   -0.10770E-01  4289   0.121E-01    0.686E-01
RMM:   3    -0.413199223204E+03    0.27295E-02   -0.31215E-02  4928   0.970E-02    0.236E-01
RMM:   4    -0.413232142390E+03   -0.32919E-01   -0.43843E-02  5087   0.177E-01    0.780E-01
RMM:   5    -0.413196084639E+03    0.36058E-01   -0.16192E-02  4763   0.129E-01    0.545E-02
RMM:   6    -0.413196278734E+03   -0.19410E-03   -0.30996E-03  5789   0.528E-02    0.370E-02
RMM:   7    -0.413196283735E+03   -0.50008E-05   -0.43904E-04  5623   0.203E-02    0.232E-02
RMM:   8    -0.413196276942E+03    0.67930E-05   -0.89345E-05  5178   0.103E-02    0.127E-02
RMM:   9    -0.413196267228E+03    0.97144E-05   -0.14536E-05  4067   0.471E-03    0.739E-03
RMM:  10    -0.413196261920E+03    0.53074E-05   -0.29351E-06  2686   0.268E-03    0.442E-03
RMM:  11    -0.413196258252E+03    0.36681E-05   -0.12049E-06  2503   0.184E-03    0.258E-03
RMM:  12    -0.413196250575E+03    0.76772E-05   -0.16712E-06  2529   0.204E-03    0.115E-03
RMM:  13    -0.413196245933E+03    0.46427E-05   -0.70730E-07  2396   0.143E-03    0.801E-04
RMM:  14    -0.413196244772E+03    0.11605E-05   -0.30373E-07  2078   0.960E-04    0.532E-04
RMM:  15    -0.413196242854E+03    0.19181E-05   -0.14962E-07  1484   0.728E-04    0.349E-04
RMM:  16    -0.413196235669E+03    0.71846E-05   -0.20777E-07  2082   0.820E-04    0.620E-04
RMM:  17    -0.413196233301E+03    0.23687E-05   -0.70116E-08  1073   0.581E-04    0.501E-04
RMM:  18    -0.413196227063E+03    0.62380E-05   -0.75577E-08  1034   0.596E-04    0.320E-04
RMM:  19    -0.413196225926E+03    0.11362E-05   -0.42323E-08   940   0.564E-04    0.998E-05
RMM:  20    -0.413196223644E+03    0.22824E-05   -0.48839E-08  1186   0.604E-04    0.229E-04
RMM:  21    -0.413196223416E+03    0.22833E-06   -0.17579E-08   749   0.528E-04
   35 T=    67. E= -.41286692E+03 F= -.41319622E+03 E0= -.41317492E+03  EK= 0.32930E+00 SP= 0.00E+00 SK= 0.00E+00
       N       E                     dE             d eps       ncg     rms          rms(c)
RMM:   1    -0.413209904426E+03   -0.13681E-01   -0.82720E+00  4302   0.844E-01    0.939E-01
RMM:   2    -0.413204028278E+03    0.58761E-02   -0.12067E-01  4268   0.132E-01    0.684E-01
RMM:   3    -0.413198505417E+03    0.55229E-02   -0.26746E-02  4294   0.775E-02    0.677E-02
RMM:   4    -0.413198519880E+03   -0.14463E-04   -0.37345E-04  5066   0.165E-02    0.632E-02
RMM:   5    -0.413198432465E+03    0.87415E-04   -0.19622E-04  4859   0.136E-02    0.504E-02
RMM:   6    -0.413198445768E+03   -0.13304E-04   -0.48110E-04  5245   0.213E-02    0.343E-02
RMM:   7    -0.413198395091E+03    0.50677E-04   -0.19262E-04  4778   0.157E-02    0.179E-02
RMM:   8    -0.413198389860E+03    0.52309E-05   -0.35369E-05  4724   0.578E-03    0.607E-03
RMM:   9    -0.413198388340E+03    0.15207E-05   -0.64344E-06  2535   0.233E-03    0.227E-03
RMM:  10    -0.413198382099E+03    0.62413E-05   -0.99922E-07  2379   0.158E-03    0.878E-04
RMM:  11    -0.413198378650E+03    0.34483E-05   -0.28870E-07  1846   0.886E-04    0.484E-04
RMM:  12    -0.413198373800E+03    0.48503E-05   -0.16322E-07  1387   0.738E-04    0.398E-04
RMM:  13    -0.413198369479E+03    0.43207E-05   -0.10898E-07  1158   0.663E-04    0.263E-04
RMM:  14    -0.413198363219E+03    0.62603E-05   -0.11663E-07  1136   0.661E-04    0.163E-04
RMM:  15    -0.413198359786E+03    0.34331E-05   -0.43810E-08   835   0.583E-04    0.142E-04
RMM:  16    -0.413198355161E+03    0.46252E-05   -0.45661E-08   986   0.598E-04    0.882E-05
RMM:  17    -0.413198353710E+03    0.14506E-05   -0.16793E-08   678   0.534E-04    0.579E-05
RMM:  18    -0.413198353043E+03    0.66763E-06   -0.98937E-09   585   0.522E-04
   36 T=    68. E= -.41286656E+03 F= -.41319835E+03 E0= -.41317709E+03  EK= 0.33179E+00 SP= 0.00E+00 SK= 0.00E+00
       N       E                     dE             d eps       ncg     rms          rms(c)
RMM:   1    -0.413207695190E+03   -0.93415E-02   -0.83097E+00  4309   0.830E-01    0.930E-01
RMM:   2    -0.413207520782E+03    0.17441E-03   -0.11396E-01  4264   0.129E-01    0.689E-01
RMM:   3    -0.413201690536E+03    0.58302E-02   -0.30639E-02  4414   0.817E-02    0.105E-01
RMM:   4    -0.413206027514E+03   -0.43370E-02   -0.48643E-03  5155   0.611E-02    0.292E-01
RMM:   5    -0.413201299000E+03    0.47285E-02   -0.23805E-03  4808   0.481E-02    0.417E-02
RMM:   6    -0.413201346923E+03   -0.47922E-04   -0.73898E-04  5587   0.266E-02    0.325E-02
RMM:   7    -0.413201337165E+03    0.97575E-05   -0.26070E-04  5140   0.171E-02    0.193E-02
RMM:   8    -0.413201328063E+03    0.91022E-05   -0.30312E-05  4842   0.636E-03    0.820E-03
RMM:   9    -0.413201327246E+03    0.81709E-06   -0.42059E-06  2751   0.254E-03
   37 T=    68. E= -.41286671E+03 F= -.41320133E+03 E0= -.41318011E+03  EK= 0.33462E+00 SP= 0.00E+00 SK= 0.00E+00
       N       E                     dE             d eps       ncg     rms          rms(c)
RMM:   1    -0.413210837129E+03   -0.95091E-02   -0.83852E+00  4309   0.851E-01    0.949E-01
RMM:   2    -0.413210398405E+03    0.43872E-03   -0.11565E-01  4268   0.124E-01    0.696E-01
RMM:   3    -0.413206202578E+03    0.41958E-02   -0.31615E-02  4932   0.875E-02    0.207E-01
RMM:   4    -0.413243439174E+03   -0.37237E-01   -0.45759E-02  5106   0.180E-01    0.819E-01
RMM:   5    -0.413203811172E+03    0.39628E-01   -0.18312E-02  4770   0.136E-01    0.558E-02
RMM:   6    -0.413203926687E+03   -0.11551E-03   -0.33494E-03  5808   0.544E-02    0.362E-02
RMM:   7    -0.413203943126E+03   -0.16439E-04   -0.42061E-04  5675   0.198E-02    0.211E-02
RMM:   8    -0.413203944076E+03   -0.94992E-06   -0.88795E-05  5154   0.966E-03    0.133E-02
RMM:   9    -0.413203934910E+03    0.91652E-05   -0.20021E-05  4447   0.518E-03    0.771E-03
RMM:  10    -0.413203930857E+03    0.40534E-05   -0.37395E-06  2788   0.294E-03    0.432E-03
RMM:  11    -0.413203927878E+03    0.29793E-05   -0.13931E-06  2502   0.198E-03    0.265E-03
RMM:  12    -0.413203920659E+03    0.72187E-05   -0.17704E-06  2539   0.212E-03    0.123E-03
RMM:  13    -0.413203915931E+03    0.47280E-05   -0.74459E-07  2435   0.147E-03    0.792E-04
RMM:  14    -0.413203914783E+03    0.11477E-05   -0.30479E-07  2120   0.965E-04    0.533E-04
RMM:  15    -0.413203912675E+03    0.21083E-05   -0.14628E-07  1506   0.725E-04    0.345E-04
RMM:  16    -0.413203905564E+03    0.71112E-05   -0.18857E-07  2011   0.798E-04    0.574E-04
RMM:  17    -0.413203903440E+03    0.21238E-05   -0.59068E-08   992   0.570E-04    0.466E-04
RMM:  18    -0.413203897208E+03    0.62318E-05   -0.64694E-08  1024   0.592E-04    0.272E-04
RMM:  19    -0.413203896034E+03    0.11743E-05   -0.40611E-08   975   0.571E-04    0.744E-05
RMM:  20    -0.413203893680E+03    0.23544E-05   -0.43854E-08  1134   0.598E-04    0.243E-04
RMM:  21    -0.413203893489E+03    0.19101E-06   -0.13278E-08   690   0.524E-04
   38 T=    69. E= -.41286657E+03 F= -.41320389E+03 E0= -.41318272E+03  EK= 0.33733E+00 SP= 0.00E+00 SK= 0.00E+00
       N       E                     dE             d eps       ncg     rms          rms(c)
RMM:   1    -0.413222585553E+03   -0.18692E-01   -0.84728E+00  4309   0.952E-01    0.956E-01
RMM:   2    -0.413213136027E+03    0.94495E-02   -0.12871E-01  4261   0.125E-01    0.694E-01
RMM:   3    -0.413207404492E+03    0.57315E-02   -0.26647E-02  4842   0.698E-02    0.132E-01
RMM:   4    -0.413242544711E+03   -0.35140E-01   -0.37856E-02  5127   0.163E-01    0.784E-01
RMM:   5    -0.413206455862E+03    0.36089E-01   -0.17636E-02  4798   0.130E-01    0.538E-02
RMM:   6    -0.413206556551E+03   -0.10069E-03   -0.30814E-03  5821   0.521E-02    0.360E-02
RMM:   7    -0.413206570301E+03   -0.13750E-04   -0.36984E-04  5601   0.188E-02    0.192E-02
RMM:   8    -0.413206563155E+03    0.71464E-05   -0.43080E-05  4692   0.689E-03    0.984E-03
RMM:   9    -0.413206561260E+03    0.18948E-05   -0.13398E-05  3943   0.400E-03    0.674E-03
RMM:  10    -0.413206557049E+03    0.42109E-05   -0.27665E-06  2676   0.243E-03    0.426E-03
RMM:  11    -0.413206553185E+03    0.38641E-05   -0.14826E-06  2500   0.199E-03    0.248E-03
RMM:  12    -0.413206545599E+03    0.75864E-05   -0.17922E-06  2532   0.211E-03    0.123E-03
RMM:  13    -0.413206543123E+03    0.24757E-05   -0.55001E-07  2400   0.135E-03    0.796E-04
RMM:  14    -0.413206542577E+03    0.54567E-06   -0.23471E-07  1982   0.871E-04
   39 T=    69. E= -.41286652E+03 F= -.41320654E+03 E0= -.41318540E+03  EK= 0.34002E+00 SP= 0.00E+00 SK= 0.00E+00
       N       E                     dE             d eps       ncg     rms          rms(c)
RMM:   1    -0.413216892472E+03   -0.10349E-01   -0.84290E+00  4310   0.919E-01    0.941E-01
RMM:   2    -0.413216584632E+03    0.30784E-03   -0.11726E-01  4261   0.123E-01    0.695E-01
RMM:   3    -0.413211020429E+03    0.55642E-02   -0.30815E-02  4865   0.764E-02    0.160E-01
RMM:   4    -0.413245149241E+03   -0.34129E-01   -0.38249E-02  5121   0.164E-01    0.778E-01
RMM:   5    -0.413209645305E+03    0.35504E-01   -0.17077E-02  4791   0.129E-01    0.535E-02
RMM:   6    -0.413209740579E+03   -0.95274E-04   -0.29593E-03  5813   0.513E-02    0.344E-02
RMM:   7    -0.413209760584E+03   -0.20005E-04   -0.36723E-04  5630   0.184E-02    0.185E-02
RMM:   8    -0.413209755709E+03    0.48751E-05   -0.42361E-05  4685   0.675E-03    0.915E-03
RMM:   9    -0.413209755812E+03   -0.10294E-06   -0.14882E-05  4091   0.409E-03    0.678E-03
RMM:  10    -0.413209751560E+03    0.42517E-05   -0.31111E-06  2734   0.254E-03    0.402E-03
RMM:  11    -0.413209748690E+03    0.28701E-05   -0.14201E-06  2502   0.194E-03    0.237E-03
RMM:  12    -0.413209742312E+03    0.63784E-05   -0.17077E-06  2529   0.204E-03    0.115E-03
RMM:  13    -0.413209739887E+03    0.24253E-05   -0.52366E-07  2383   0.131E-03    0.734E-04
RMM:  14    -0.413209739300E+03    0.58607E-06   -0.22394E-07  1902   0.850E-04
   40 T=    70. E= -.41286689E+03 F= -.41320974E+03 E0= -.41318864E+03  EK= 0.34285E+00 SP= 0.00E+00 SK= 0.00E+00
       N       E                     dE             d eps       ncg     rms          rms(c)
RMM:   1    -0.413220581751E+03   -0.10842E-01   -0.85463E+00  4305   0.953E-01    0.955E-01
RMM:   2    -0.413219103269E+03    0.14785E-02   -0.11928E-01  4261   0.126E-01    0.704E-01
RMM:   3    -0.413213825276E+03    0.52780E-02   -0.31964E-02  4932   0.792E-02    0.184E-01
RMM:   4    -0.413251808208E+03   -0.37983E-01   -0.44454E-02  5119   0.177E-01    0.822E-01
RMM:   5    -0.413211958671E+03    0.39850E-01   -0.18852E-02  4786   0.136E-01    0.559E-02
RMM:   6    -0.413212070872E+03   -0.11220E-03   -0.32727E-03  5807   0.537E-02    0.349E-02
RMM:   7    -0.413212090517E+03   -0.19645E-04   -0.39871E-04  5673   0.190E-02    0.191E-02
RMM:   8    -0.413212091100E+03   -0.58334E-06   -0.62796E-05  5009   0.802E-03    0.107E-02
RMM:   9    -0.413212086059E+03    0.50413E-05   -0.19720E-05  4431   0.473E-03    0.727E-03
RMM:  10    -0.413212083421E+03    0.26382E-05   -0.38717E-06  2805   0.289E-03    0.419E-03
RMM:  11    -0.413212081062E+03    0.23590E-05   -0.14408E-06  2498   0.199E-03    0.256E-03
RMM:  12    -0.413212075125E+03    0.59368E-05   -0.16469E-06  2530   0.203E-03    0.113E-03
RMM:  13    -0.413212071300E+03    0.38246E-05   -0.65695E-07  2417   0.139E-03    0.800E-04
RMM:  14    -0.413212070560E+03    0.74087E-06   -0.27080E-07  2030   0.921E-04
   41 T=    70. E= -.41286674E+03 F= -.41321207E+03 E0= -.41319100E+03  EK= 0.34533E+00 SP= 0.00E+00 SK= 0.00E+00
       N       E                     dE             d eps       ncg     rms          rms(c)
RMM:   1    -0.413233401426E+03   -0.21330E-01   -0.86323E+00  4312   0.108E+00    0.970E-01
RMM:   2    -0.413221584381E+03    0.11817E-01   -0.13135E-01  4294   0.132E-01    0.703E-01
RMM:   3    -0.413216723626E+03    0.48608E-02   -0.28164E-02  4986   0.760E-02    0.189E-01
RMM:   4    -0.413259774463E+03   -0.43051E-01   -0.51421E-02  5123   0.190E-01    0.871E-01
RMM:   5    -0.413214696004E+03    0.45078E-01   -0.21144E-02  4783   0.144E-01    0.589E-02
RMM:   6    -0.413214834838E+03   -0.13883E-03   -0.37047E-03  5802   0.570E-02    0.372E-02
RMM:   7    -0.413214852488E+03   -0.17650E-04   -0.45402E-04  5721   0.202E-02    0.214E-02
RMM:   8    -0.413214854046E+03   -0.15579E-05   -0.92764E-05  5188   0.973E-03    0.133E-02
RMM:   9    -0.413214843352E+03    0.10695E-04   -0.23444E-05  4586   0.547E-03    0.759E-03
RMM:  10    -0.413214837963E+03    0.53886E-05   -0.40010E-06  2786   0.297E-03    0.446E-03
RMM:  11    -0.413214834063E+03    0.39003E-05   -0.14260E-06  2506   0.201E-03    0.270E-03
RMM:  12    -0.413214825147E+03    0.89159E-05   -0.15338E-06  2511   0.203E-03    0.117E-03
RMM:  13    -0.413214819131E+03    0.60162E-05   -0.68996E-07  2435   0.143E-03    0.764E-04
RMM:  14    -0.413214817985E+03    0.11455E-05   -0.29918E-07  2103   0.964E-04    0.494E-04
RMM:  15    -0.413214815892E+03    0.20929E-05   -0.14603E-07  1494   0.727E-04    0.350E-04
RMM:  16    -0.413214807693E+03    0.81998E-05   -0.16308E-07  1911   0.782E-04    0.509E-04
RMM:  17    -0.413214805909E+03    0.17831E-05   -0.53666E-08   957   0.569E-04    0.384E-04
RMM:  18    -0.413214799312E+03    0.65978E-05   -0.62871E-08  1140   0.607E-04    0.264E-04
RMM:  19    -0.413214798104E+03    0.12078E-05   -0.32300E-08   874   0.555E-04    0.984E-05
RMM:  20    -0.413214795730E+03    0.23737E-05   -0.48325E-08  1193   0.608E-04    0.213E-04
RMM:  21    -0.413214795419E+03    0.31126E-06   -0.15872E-08   730   0.527E-04
   42 T=    71. E= -.41286698E+03 F= -.41321480E+03 E0= -.41319376E+03  EK= 0.34781E+00 SP= 0.00E+00 SK= 0.00E+00
       N       E                     dE             d eps       ncg     rms          rms(c)
RMM:   1    -0.413227999375E+03   -0.13204E-01   -0.85445E+00  4315   0.108E+00    0.953E-01
RMM:   2    -0.413223915426E+03    0.40839E-02   -0.12345E-01  4329   0.131E-01    0.701E-01
RMM:   3    -0.413220389085E+03    0.35263E-02   -0.31712E-02  5024   0.865E-02    0.246E-01
RMM:   4    -0.413258045895E+03   -0.37657E-01   -0.51241E-02  5107   0.191E-01    0.832E-01
RMM:   5    -0.413216963108E+03    0.41083E-01   -0.18313E-02  4760   0.137E-01    0.586E-02
RMM:   6    -0.413217070191E+03   -0.10708E-03   -0.33574E-03  5770   0.542E-02    0.359E-02
RMM:   7    -0.413217087836E+03   -0.17645E-04   -0.44049E-04  5695   0.200E-02    0.219E-02
RMM:   8    -0.413217089626E+03   -0.17899E-05   -0.10911E-04  5203   0.107E-02    0.135E-02
RMM:   9    -0.413217078856E+03    0.10769E-04   -0.19775E-05  4449   0.544E-03    0.660E-03
RMM:  10    -0.413217075918E+03    0.29379E-05   -0.40540E-06  2817   0.282E-03    0.395E-03
RMM:  11    -0.413217073637E+03    0.22818E-05   -0.12656E-06  2499   0.190E-03    0.231E-03
RMM:  12    -0.413217068352E+03    0.52840E-05   -0.12856E-06  2499   0.184E-03    0.106E-03
RMM:  13    -0.413217064473E+03    0.38798E-05   -0.59316E-07  2383   0.131E-03    0.608E-04
RMM:  14    -0.413217063460E+03    0.10124E-05   -0.26783E-07  1969   0.899E-04    0.393E-04
RMM:  15    -0.413217061343E+03    0.21169E-05   -0.13894E-07  1414   0.712E-04    0.216E-04
RMM:  16    -0.413217056555E+03    0.47886E-05   -0.11583E-07  1414   0.701E-04    0.223E-04
RMM:  17    -0.413217054437E+03    0.21179E-05   -0.57506E-08   967   0.604E-04    0.148E-04
RMM:  18    -0.413217050150E+03    0.42865E-05   -0.65695E-08  1217   0.635E-04    0.130E-04
RMM:  19    -0.413217048063E+03    0.20874E-05   -0.37319E-08   969   0.574E-04    0.421E-05
RMM:  20    -0.413217046880E+03    0.11833E-05   -0.24419E-08   851   0.551E-04    0.335E-05
RMM:  21    -0.413217046560E+03    0.31959E-06   -0.14424E-08   720   0.527E-04
   43 T=    71. E= -.41286712E+03 F= -.41321705E+03 E0= -.41319604E+03  EK= 0.34993E+00 SP= 0.00E+00 SK= 0.00E+00
       N       E                     dE             d eps       ncg     rms          rms(c)
RMM:   1    -0.413230736823E+03   -0.13690E-01   -0.86621E+00  4316   0.112E+00    0.957E-01
RMM:   2    -0.413225616494E+03    0.51203E-02   -0.12816E-01  4339   0.141E-01    0.712E-01
RMM:   3    -0.413222585859E+03    0.30306E-02   -0.33523E-02  5021   0.932E-02    0.276E-01
RMM:   4    -0.413259327549E+03   -0.36742E-01   -0.53180E-02  5105   0.196E-01    0.832E-01
RMM:   5    -0.413218272388E+03    0.41055E-01   -0.17875E-02  4749   0.137E-01    0.589E-02
RMM:   6    -0.413218370989E+03   -0.98601E-04   -0.33046E-03  5776   0.538E-02    0.350E-02
RMM:   7    -0.413218390190E+03   -0.19202E-04   -0.43428E-04  5707   0.199E-02    0.220E-02
RMM:   8    -0.413218394357E+03   -0.41669E-05   -0.11362E-04  5203   0.110E-02    0.132E-02
RMM:   9    -0.413218385076E+03    0.92810E-05   -0.18903E-05  4385   0.546E-03    0.606E-03
RMM:  10    -0.413218383302E+03    0.17742E-05   -0.40810E-06  2824   0.276E-03    0.370E-03
RMM:  11    -0.413218381624E+03    0.16786E-05   -0.12723E-06  2508   0.187E-03    0.211E-03
RMM:  12    -0.413218377758E+03    0.38661E-05   -0.11831E-06  2494   0.175E-03    0.949E-04
RMM:  13    -0.413218374751E+03    0.30067E-05   -0.55212E-07  2348   0.124E-03    0.522E-04
RMM:  14    -0.413218373650E+03    0.11013E-05   -0.25292E-07  1878   0.863E-04    0.333E-04
RMM:  15    -0.413218371111E+03    0.25381E-05   -0.14633E-07  1399   0.716E-04    0.154E-04
RMM:  16    -0.413218367581E+03    0.35308E-05   -0.11154E-07  1283   0.679E-04    0.158E-04
RMM:  17    -0.413218365306E+03    0.22745E-05   -0.66348E-08  1039   0.619E-04    0.110E-04
RMM:  18    -0.413218362445E+03    0.28617E-05   -0.59785E-08  1139   0.621E-04    0.823E-05
RMM:  19    -0.413218359846E+03    0.25982E-05   -0.43476E-08  1038   0.592E-04    0.347E-05
RMM:  20    -0.413218359101E+03    0.74503E-06   -0.22463E-08   800   0.545E-04
   44 T=    72. E= -.41286691E+03 F= -.41321836E+03 E0= -.41319738E+03  EK= 0.35145E+00 SP= 0.00E+00 SK= 0.00E+00
       N       E                     dE             d eps       ncg     rms          rms(c)
RMM:   1    -0.413236387746E+03   -0.18028E-01   -0.86532E+00  4312   0.123E+00    0.976E-01
RMM:   2    -0.413226825237E+03    0.95625E-02   -0.13108E-01  4341   0.150E-01    0.711E-01
RMM:   3    -0.413225832089E+03    0.99315E-03   -0.32771E-02  5059   0.102E-01    0.329E-01
RMM:   4    -0.413254161063E+03   -0.28329E-01   -0.50379E-02  5072   0.192E-01    0.762E-01
RMM:   5    -0.413219758083E+03    0.34403E-01   -0.13893E-02  4714   0.125E-01    0.594E-02
RMM:   6    -0.413219805800E+03   -0.47717E-04   -0.27066E-03  5709   0.494E-02    0.350E-02
RMM:   7    -0.413219815562E+03   -0.97622E-05   -0.41982E-04  5664   0.197E-02    0.229E-02
RMM:   8    -0.413219813301E+03    0.22611E-05   -0.11752E-04  5161   0.115E-02    0.125E-02
RMM:   9    -0.413219802279E+03    0.11022E-04   -0.15818E-05  4224   0.532E-03    0.534E-03
RMM:  10    -0.413219798111E+03    0.41672E-05   -0.36356E-06  2785   0.259E-03    0.325E-03
RMM:  11    -0.413219794355E+03    0.37568E-05   -0.11153E-06  2492   0.178E-03    0.176E-03
RMM:  12    -0.413219787650E+03    0.67051E-05   -0.86376E-07  2459   0.155E-03    0.816E-04
RMM:  13    -0.413219783360E+03    0.42892E-05   -0.40447E-07  2187   0.110E-03    0.370E-04
RMM:  14    -0.413219781204E+03    0.21568E-05   -0.20940E-07  1700   0.808E-04    0.238E-04
RMM:  15    -0.413219775540E+03    0.56638E-05   -0.14089E-07  1381   0.726E-04    0.163E-04
RMM:  16    -0.413219772629E+03    0.29107E-05   -0.85155E-08  1136   0.653E-04    0.120E-04
RMM:  17    -0.413219769536E+03    0.30927E-05   -0.67294E-08  1155   0.631E-04    0.851E-05
RMM:  18    -0.413219765874E+03    0.36629E-05   -0.58284E-08  1207   0.620E-04    0.463E-05
RMM:  19    -0.413219763191E+03    0.26828E-05   -0.41092E-08  1082   0.584E-04    0.373E-05
RMM:  20    -0.413219762694E+03    0.49623E-06   -0.19875E-08   769   0.530E-04
   45 T=    72. E= -.41286718E+03 F= -.41321976E+03 E0= -.41319880E+03  EK= 0.35258E+00 SP= 0.00E+00 SK= 0.00E+00
       N       E                     dE             d eps       ncg     rms          rms(c)
RMM:   1    -0.413239834851E+03   -0.20072E-01   -0.86092E+00  4312   0.134E+00    0.960E-01
RMM:   2    -0.413226602172E+03    0.13233E-01   -0.13699E-01  4358   0.161E-01    0.706E-01
RMM:   3    -0.413227826127E+03   -0.12240E-02   -0.32895E-02  5075   0.112E-01    0.384E-01
RMM:   4    -0.413249522069E+03   -0.21696E-01   -0.49454E-02  5062   0.192E-01    0.712E-01
RMM:   5    -0.413219570274E+03    0.29952E-01   -0.11325E-02  4683   0.117E-01    0.592E-02
RMM:   6    -0.413219581085E+03   -0.10811E-04   -0.22853E-03  5664   0.458E-02    0.336E-02
RMM:   7    -0.413219593215E+03   -0.12130E-04   -0.38268E-04  5626   0.191E-02    0.228E-02
RMM:   8    -0.413219589400E+03    0.38150E-05   -0.11647E-04  5110   0.116E-02    0.115E-02
RMM:   9    -0.413219579532E+03    0.98685E-05   -0.13875E-05  4109   0.519E-03    0.474E-03
RMM:  10    -0.413219575994E+03    0.35374E-05   -0.32322E-06  2763   0.243E-03    0.284E-03
RMM:  11    -0.413219572098E+03    0.38965E-05   -0.10908E-06  2487   0.172E-03    0.149E-03
RMM:  12    -0.413219566316E+03    0.57822E-05   -0.73055E-07  2426   0.141E-03    0.707E-04
RMM:  13    -0.413219562620E+03    0.36962E-05   -0.34698E-07  2019   0.100E-03    0.309E-04
RMM:  14    -0.413219559885E+03    0.27344E-05   -0.18832E-07  1533   0.772E-04    0.184E-04
RMM:  15    -0.413219554382E+03    0.55034E-05   -0.14248E-07  1381   0.731E-04    0.138E-04
RMM:  16    -0.413219551846E+03    0.25355E-05   -0.87449E-08  1165   0.654E-04    0.907E-05
RMM:  17    -0.413219547458E+03    0.43884E-05   -0.84632E-08  1388   0.662E-04    0.579E-05
RMM:  18    -0.413219544840E+03    0.26178E-05   -0.48312E-08  1035   0.581E-04    0.355E-05
RMM:  19    -0.413219543046E+03    0.17936E-05   -0.33115E-08   932   0.558E-04    0.268E-05
RMM:  20    -0.413219542737E+03    0.30967E-06   -0.19244E-08   747   0.528E-04
   46 T=    72. E= -.41286692E+03 F= -.41321954E+03 E0= -.41319860E+03  EK= 0.35262E+00 SP= 0.00E+00 SK= 0.00E+00
       N       E                     dE             d eps       ncg     rms          rms(c)
RMM:   1    -0.413235969971E+03   -0.16427E-01   -0.86152E+00  4314   0.137E+00    0.952E-01
RMM:   2    -0.413225835963E+03    0.10134E-01   -0.13643E-01  4377   0.170E-01    0.712E-01
RMM:   3    -0.413229665858E+03   -0.38299E-02   -0.36782E-02  5080   0.125E-01    0.442E-01
RMM:   4    -0.413244831279E+03   -0.15165E-01   -0.48994E-02  5048   0.193E-01    0.668E-01
RMM:   5    -0.413218564987E+03    0.26266E-01   -0.93743E-03  4661   0.111E-01    0.578E-02
RMM:   6    -0.413218548190E+03    0.16797E-04   -0.19427E-03  5593   0.425E-02    0.312E-02
RMM:   7    -0.413218564486E+03   -0.16295E-04   -0.33031E-04  5608   0.180E-02    0.216E-02
RMM:   8    -0.413218560317E+03    0.41683E-05   -0.11365E-04  5081   0.114E-02    0.105E-02
RMM:   9    -0.413218552706E+03    0.76110E-05   -0.12677E-05  4025   0.508E-03    0.442E-03
RMM:  10    -0.413218550494E+03    0.22126E-05   -0.28577E-06  2717   0.233E-03    0.260E-03
RMM:  11    -0.413218547654E+03    0.28400E-05   -0.11303E-06  2500   0.171E-03    0.131E-03
RMM:  12    -0.413218543953E+03    0.37011E-05   -0.69895E-07  2399   0.135E-03    0.674E-04
RMM:  13    -0.413218541141E+03    0.28116E-05   -0.34339E-07  1903   0.962E-04    0.301E-04
RMM:  14    -0.413218538602E+03    0.25395E-05   -0.19747E-07  1451   0.766E-04    0.165E-04
RMM:  15    -0.413218534643E+03    0.39582E-05   -0.16451E-07  1383   0.735E-04    0.121E-04
RMM:  16    -0.413218532285E+03    0.23579E-05   -0.10085E-07  1198   0.660E-04    0.834E-05
RMM:  17    -0.413218527707E+03    0.45781E-05   -0.11175E-07  1502   0.685E-04    0.584E-05
RMM:  18    -0.413218526092E+03    0.16148E-05   -0.50041E-08   982   0.561E-04    0.313E-05
RMM:  19    -0.413218524914E+03    0.11783E-05   -0.33176E-08   864   0.536E-04    0.181E-05
RMM:  20    -0.413218524412E+03    0.50191E-06   -0.21156E-08   749   0.518E-04
   47 T=    72. E= -.41286684E+03 F= -.41321852E+03 E0= -.41319760E+03  EK= 0.35168E+00 SP= 0.00E+00 SK= 0.00E+00
       N       E                     dE             d eps       ncg     rms          rms(c)
RMM:   1    -0.413235679847E+03   -0.17155E-01   -0.85253E+00  4312   0.145E+00    0.967E-01
RMM:   2    -0.413223591765E+03    0.12088E-01   -0.13520E-01  4415   0.179E-01    0.710E-01
RMM:   3    -0.413233159053E+03   -0.95673E-02   -0.39905E-02  5103   0.142E-01    0.541E-01
RMM:   4    -0.413234361317E+03   -0.12023E-02   -0.44973E-02  5012   0.189E-01    0.551E-01
RMM:   5    -0.413216533772E+03    0.17828E-01   -0.55917E-03  4580   0.943E-02    0.568E-02
RMM:   6    -0.413216472392E+03    0.61381E-04   -0.11715E-03  5258   0.347E-02    0.295E-02
RMM:   7    -0.413216490082E+03   -0.17691E-04   -0.21999E-04  5512   0.152E-02    0.184E-02
RMM:   8    -0.413216488790E+03    0.12927E-05   -0.11369E-04  5136   0.112E-02    0.106E-02
RMM:   9    -0.413216477290E+03    0.11500E-04   -0.12476E-05  4032   0.511E-03    0.426E-03
RMM:  10    -0.413216474247E+03    0.30425E-05   -0.28013E-06  2711   0.232E-03    0.237E-03
RMM:  11    -0.413216469336E+03    0.49115E-05   -0.11376E-06  2471   0.176E-03    0.122E-03
RMM:  12    -0.413216465113E+03    0.42230E-05   -0.55779E-07  2316   0.127E-03    0.689E-04
RMM:  13    -0.413216461045E+03    0.40678E-05   -0.28199E-07  1780   0.918E-04    0.317E-04
RMM:  14    -0.413216456836E+03    0.42084E-05   -0.16447E-07  1404   0.744E-04    0.169E-04
RMM:  15    -0.413216452618E+03    0.42188E-05   -0.11633E-07  1271   0.691E-04    0.120E-04
RMM:  16    -0.413216449535E+03    0.30825E-05   -0.80109E-08  1186   0.640E-04    0.888E-05
RMM:  17    -0.413216444239E+03    0.52959E-05   -0.84518E-08  1362   0.651E-04    0.650E-05
RMM:  18    -0.413216442860E+03    0.13796E-05   -0.35050E-08   873   0.537E-04    0.488E-05
RMM:  19    -0.413216441317E+03    0.15423E-05   -0.24870E-08   783   0.527E-04    0.225E-05
RMM:  20    -0.413216440462E+03    0.85555E-06   -0.17778E-08   717   0.517E-04
   48 T=    71. E= -.41286693E+03 F= -.41321644E+03 E0= -.41319552E+03  EK= 0.34951E+00 SP= 0.00E+00 SK= 0.00E+00
       N       E                     dE             d eps       ncg     rms          rms(c)
RMM:   1    -0.413234753823E+03   -0.18313E-01   -0.83824E+00  4304   0.157E+00    0.957E-01
RMM:   2    -0.413219198324E+03    0.15555E-01   -0.13693E-01  4466   0.192E-01    0.700E-01
RMM:   3    -0.413235957515E+03   -0.16759E-01   -0.43667E-02  5129   0.160E-01    0.646E-01
RMM:   4    -0.413224366585E+03    0.11591E-01   -0.43728E-02  4978   0.189E-01    0.456E-01
RMM:   5    -0.413212277593E+03    0.12089E-01   -0.38662E-03  4562   0.856E-02    0.581E-02
RMM:   6    -0.413212163105E+03    0.11449E-03   -0.61136E-04  4831   0.288E-02    0.294E-02
RMM:   7    -0.413212170868E+03   -0.77627E-05   -0.16605E-04  5780   0.138E-02    0.125E-02
RMM:   8    -0.413212165402E+03    0.54658E-05   -0.41729E-05  5258   0.782E-03    0.784E-03
RMM:   9    -0.413212162709E+03    0.26936E-05   -0.10753E-05  3877   0.389E-03    0.378E-03
RMM:  10    -0.413212158967E+03    0.37418E-05   -0.18832E-06  2568   0.222E-03    0.241E-03
RMM:  11    -0.413212153467E+03    0.55002E-05   -0.10825E-06  2464   0.179E-03    0.145E-03
RMM:  12    -0.413212149936E+03    0.35305E-05   -0.42882E-07  2391   0.119E-03    0.814E-04
RMM:  13    -0.413212145226E+03    0.47098E-05   -0.27574E-07  2006   0.901E-04    0.453E-04
RMM:  14    -0.413212139413E+03    0.58133E-05   -0.18393E-07  1559   0.747E-04    0.354E-04
RMM:  15    -0.413212135410E+03    0.40026E-05   -0.95397E-08  1051   0.610E-04    0.158E-04
RMM:  16    -0.413212132484E+03    0.29262E-05   -0.70480E-08  1104   0.600E-04    0.946E-05
RMM:  17    -0.413212127787E+03    0.46976E-05   -0.71778E-08  1239   0.614E-04    0.135E-04
RMM:  18    -0.413212126678E+03    0.11088E-05   -0.28102E-08   795   0.524E-04    0.954E-05
RMM:  19    -0.413212124090E+03    0.25877E-05   -0.34184E-08   935   0.546E-04    0.411E-05
RMM:  20    -0.413212122704E+03    0.13863E-05   -0.21036E-08   768   0.512E-04    0.246E-05
RMM:  21    -0.413212122493E+03    0.21113E-06   -0.97204E-09   584   0.484E-04
   49 T=    70. E= -.41286657E+03 F= -.41321212E+03 E0= -.41319121E+03  EK= 0.34555E+00 SP= 0.00E+00 SK= 0.00E+00
       N       E                     dE             d eps       ncg     rms          rms(c)
RMM:   1    -0.413231662666E+03   -0.19540E-01   -0.82999E+00  4307   0.171E+00    0.930E-01
RMM:   2    -0.413214088174E+03    0.17574E-01   -0.14321E-01  4548   0.206E-01    0.699E-01
RMM:   3    -0.413237146804E+03   -0.23059E-01   -0.47827E-02  5140   0.177E-01    0.727E-01
RMM:   4    -0.413217122092E+03    0.20025E-01   -0.46276E-02  4953   0.197E-01    0.418E-01
RMM:   5    -0.413207010431E+03    0.10112E-01   -0.38623E-03  4618   0.877E-02    0.622E-02
[...]
RMM:   8    -0.413464334757E+03    0.40085E-04   -0.44665E-04  5101   0.281E-02    0.325E-02
RMM:   9    -0.413464337464E+03   -0.27066E-05   -0.22046E-04  5376   0.180E-02    0.198E-02
RMM:  10    -0.413464331220E+03    0.62438E-05   -0.45174E-05  5339   0.831E-03    0.105E-02
RMM:  11    -0.413464330696E+03    0.52389E-06   -0.28552E-05  5209   0.603E-03    0.459E-03
RMM:  12    -0.413464331066E+03   -0.36942E-06   -0.42774E-06  2925   0.289E-03
  138 T=   119. E= -.41287803E+03 F= -.41346433E+03 E0= -.41344205E+03  EK= 0.58630E+00 SP= 0.00E+00 SK= 0.00E+00
       N       E                     dE             d eps       ncg     rms          rms(c)
RMM:   1    -0.413624450458E+03   -0.16012E+00   -0.14136E+01  4284   0.660E+00    0.129E+00
RMM:   2    -0.413611522456E+03    0.12928E-01   -0.56147E-01  5403   0.833E-01    0.153E+00
RMM:   3    -0.413556140661E+03    0.55382E-01   -0.12737E-01  5370   0.402E-01    0.115E+00
RMM:   4    -0.413537041689E+03    0.19099E-01   -0.84381E-02  5365   0.337E-01    0.642E-01
RMM:   5    -0.413533688609E+03    0.33531E-02   -0.42916E-02  4838   0.270E-01    0.276E-01
RMM:   6    -0.413530950897E+03    0.27377E-02   -0.21471E-02  5004   0.179E-01    0.154E-01
RMM:   7    -0.413529677423E+03    0.12735E-02   -0.19891E-03  4448   0.717E-02    0.607E-02
RMM:   8    -0.413529674995E+03    0.24277E-05   -0.74053E-04  5505   0.327E-02    0.347E-02
RMM:   9    -0.413529670428E+03    0.45679E-05   -0.23613E-04  5230   0.188E-02    0.197E-02
RMM:  10    -0.413529661651E+03    0.87765E-05   -0.48724E-05  5235   0.887E-03    0.892E-03
RMM:  11    -0.413529661877E+03   -0.22590E-06   -0.25261E-05  5031   0.568E-03    0.509E-03
RMM:  12    -0.413529661662E+03    0.21530E-06   -0.35115E-06  2856   0.275E-03
  139 T=   134. E= -.41287279E+03 F= -.41352966E+03 E0= -.41350738E+03  EK= 0.65688E+00 SP= 0.00E+00 SK= 0.00E+00
       N       E                     dE             d eps       ncg     rms          rms(c)
RMM:   1    -0.413657224221E+03   -0.12756E+00   -0.14844E+01  4277   0.668E+00    0.964E-01
RMM:   2    -0.413591529673E+03    0.65695E-01   -0.50666E-01  5401   0.776E-01    0.109E+00
RMM:   3    -0.413572686945E+03    0.18843E-01   -0.88881E-02  5543   0.330E-01    0.895E-01
RMM:   4    -0.413557942294E+03    0.14745E-01   -0.45336E-02  5343   0.254E-01    0.509E-01
RMM:   5    -0.413556065080E+03    0.18772E-02   -0.24250E-02  4667   0.209E-01    0.216E-01
RMM:   6    -0.413555259123E+03    0.80596E-03   -0.14260E-02  5037   0.144E-01    0.139E-01
RMM:   7    -0.413554096704E+03    0.11624E-02   -0.21582E-03  4668   0.677E-02    0.507E-02
RMM:   8    -0.413554124715E+03   -0.28011E-04   -0.77338E-04  5777   0.316E-02    0.355E-02
RMM:   9    -0.413554111648E+03    0.13067E-04   -0.20187E-04  5104   0.182E-02    0.193E-02
RMM:  10    -0.413554103359E+03    0.82888E-05   -0.54435E-05  5487   0.934E-03    0.851E-03
RMM:  11    -0.413554103979E+03   -0.61945E-06   -0.20795E-05  4778   0.526E-03    0.537E-03
RMM:  12    -0.413554103646E+03    0.33328E-06   -0.30367E-06  2792   0.270E-03
  140 T=   139. E= -.41286925E+03 F= -.41355410E+03 E0= -.41353175E+03  EK= 0.68485E+00 SP= 0.00E+00 SK= 0.00E+00
       N       E                     dE             d eps       ncg     rms          rms(c)
RMM:   1    -0.413681193283E+03   -0.12709E+00   -0.15338E+01  4267   0.683E+00    0.942E-01
RMM:   2    -0.413595280035E+03    0.85913E-01   -0.49417E-01  5416   0.771E-01    0.900E-01
RMM:   3    -0.413608828179E+03   -0.13548E-01   -0.85069E-02  5639   0.314E-01    0.964E-01
RMM:   4    -0.413584114217E+03    0.24714E-01   -0.41157E-02  5256   0.243E-01    0.485E-01
RMM:   5    -0.413581990643E+03    0.21236E-02   -0.20115E-02  4497   0.197E-01    0.163E-01
RMM:   6    -0.413581920068E+03    0.70575E-04   -0.10371E-02  5223   0.122E-01    0.129E-01
RMM:   7    -0.413580924754E+03    0.99531E-03   -0.21591E-03  4859   0.623E-02    0.503E-02
RMM:   8    -0.413580939518E+03   -0.14764E-04   -0.66531E-04  5725   0.296E-02    0.328E-02
RMM:   9    -0.413580933473E+03    0.60451E-05   -0.19739E-04  5128   0.182E-02    0.200E-02
RMM:  10    -0.413580925661E+03    0.78125E-05   -0.50127E-05  5467   0.906E-03    0.956E-03
RMM:  11    -0.413580927682E+03   -0.20215E-05   -0.23382E-05  4920   0.560E-03    0.605E-03
RMM:  12    -0.413580928823E+03   -0.11409E-05   -0.39559E-06  2888   0.303E-03    0.252E-03
RMM:  13    -0.413580930020E+03   -0.11973E-05   -0.17456E-06  2589   0.206E-03    0.122E-03
RMM:  14    -0.413580931490E+03   -0.14696E-05   -0.91681E-07  2459   0.157E-03    0.694E-04
RMM:  15    -0.413580932513E+03   -0.10235E-05   -0.45136E-07  2038   0.107E-03    0.348E-04
RMM:  16    -0.413580933537E+03   -0.10235E-05   -0.33893E-07  1797   0.897E-04    0.201E-04
RMM:  17    -0.413580934659E+03   -0.11219E-05   -0.33965E-07  1776   0.845E-04    0.127E-04
RMM:  18    -0.413580935379E+03   -0.71995E-06   -0.22086E-07  1415   0.714E-04
  141 T=   145. E= -.41287114E+03 F= -.41358094E+03 E0= -.41355836E+03  EK= 0.70980E+00 SP= 0.00E+00 SK= 0.00E+00
       N       E                     dE             d eps       ncg     rms          rms(c)
RMM:   1    -0.413682338720E+03   -0.10140E+00   -0.15863E+01  4265   0.706E+00    0.112E+00
RMM:   2    -0.413597443057E+03    0.84896E-01   -0.49687E-01  5422   0.799E-01    0.969E-01
RMM:   3    -0.413643338524E+03   -0.45895E-01   -0.10406E-01  5525   0.351E-01    0.117E+00
RMM:   4    -0.413600234460E+03    0.43104E-01   -0.59293E-02  5252   0.268E-01    0.609E-01
RMM:   5    -0.413592723701E+03    0.75108E-02   -0.25747E-02  4418   0.229E-01    0.131E-01
RMM:   6    -0.413592485002E+03    0.23870E-03   -0.41102E-03  5433   0.821E-02    0.849E-02
RMM:   7    -0.413592364450E+03    0.12055E-03   -0.13101E-03  5255   0.423E-02    0.576E-02
RMM:   8    -0.413592264268E+03    0.10018E-03   -0.44496E-04  5041   0.281E-02    0.306E-02
RMM:   9    -0.413592275487E+03   -0.11219E-04   -0.23460E-04  5544   0.192E-02    0.241E-02
RMM:  10    -0.413592264475E+03    0.11012E-04   -0.54506E-05  5091   0.993E-03    0.934E-03
RMM:  11    -0.413592268284E+03   -0.38087E-05   -0.33944E-05  5309   0.636E-03    0.680E-03
RMM:  12    -0.413592270100E+03   -0.18162E-05   -0.43473E-06  2935   0.321E-03    0.292E-03
RMM:  13    -0.413592272449E+03   -0.23487E-05   -0.20801E-06  2620   0.224E-03    0.136E-03
RMM:  14    -0.413592275518E+03   -0.30694E-05   -0.98745E-07  2473   0.162E-03    0.677E-04
RMM:  15    -0.413592278453E+03   -0.29349E-05   -0.79598E-07  2348   0.133E-03    0.424E-04
RMM:  16    -0.413592280833E+03   -0.23806E-05   -0.52243E-07  2106   0.106E-03    0.332E-04
RMM:  17    -0.413592283303E+03   -0.24695E-05   -0.46781E-07  1935   0.935E-04    0.254E-04
RMM:  18    -0.413592285847E+03   -0.25441E-05   -0.43490E-07  1764   0.867E-04    0.126E-04
RMM:  19    -0.413592287751E+03   -0.19042E-05   -0.31667E-07  1571   0.766E-04    0.103E-04
RMM:  20    -0.413592288785E+03   -0.10335E-05   -0.16332E-07  1220   0.632E-04    0.743E-05
RMM:  21    -0.413592289585E+03   -0.80040E-06   -0.10206E-07  1075   0.581E-04
  142 T=   147. E= -.41287224E+03 F= -.41359229E+03 E0= -.41356939E+03  EK= 0.72005E+00 SP= 0.00E+00 SK= 0.00E+00
       N       E                     dE             d eps       ncg     rms          rms(c)
RMM:   1    -0.413651617564E+03   -0.59329E-01   -0.15510E+01  4264   0.713E+00    0.110E+00
RMM:   2    -0.413590292017E+03    0.61326E-01   -0.47899E-01  5429   0.786E-01    0.933E-01
RMM:   3    -0.413613355289E+03   -0.23063E-01   -0.84223E-02  5495   0.336E-01    0.904E-01
RMM:   4    -0.413609652814E+03    0.37025E-02   -0.59679E-02  5397   0.250E-01    0.767E-01
RMM:   5    -0.413588528780E+03    0.21124E-01   -0.29751E-02  4576   0.240E-01    0.142E-01
RMM:   6    -0.413588310750E+03    0.21803E-03   -0.54224E-03  5585   0.919E-02    0.865E-02
RMM:   7    -0.413588138996E+03    0.17175E-03   -0.13273E-03  5274   0.433E-02    0.582E-02
RMM:   8    -0.413588076874E+03    0.62122E-04   -0.50540E-04  5344   0.282E-02    0.314E-02
RMM:   9    -0.413588071965E+03    0.49090E-05   -0.25974E-04  5523   0.201E-02    0.252E-02
RMM:  10    -0.413588061411E+03    0.10554E-04   -0.61323E-05  5302   0.105E-02    0.107E-02
RMM:  11    -0.413588062938E+03   -0.15264E-05   -0.34006E-05  5341   0.643E-03    0.644E-03
RMM:  12    -0.413588065368E+03   -0.24301E-05   -0.42851E-06  2924   0.316E-03    0.381E-03
RMM:  13    -0.413588068241E+03   -0.28730E-05   -0.23278E-06  2641   0.251E-03    0.177E-03
RMM:  14    -0.413588071791E+03   -0.35506E-05   -0.11114E-06  2520   0.175E-03    0.842E-04
RMM:  15    -0.413588074836E+03   -0.30449E-05   -0.76430E-07  2428   0.133E-03    0.478E-04
RMM:  16    -0.413588078024E+03   -0.31883E-05   -0.66356E-07  2200   0.114E-03    0.362E-04
RMM:  17    -0.413588080808E+03   -0.27841E-05   -0.50868E-07  1936   0.953E-04    0.238E-04
RMM:  18    -0.413588083178E+03   -0.23695E-05   -0.40916E-07  1741   0.841E-04    0.137E-04
RMM:  19    -0.413588085568E+03   -0.23897E-05   -0.40640E-07  1701   0.809E-04    0.114E-04
RMM:  20    -0.413588086400E+03   -0.83223E-06   -0.15390E-07  1155   0.610E-04
  143 T=   147. E= -.41286613E+03 F= -.41358809E+03 E0= -.41356486E+03  EK= 0.72196E+00 SP= 0.00E+00 SK= 0.00E+00
       N       E                     dE             d eps       ncg     rms          rms(c)
RMM:   1    -0.413701160900E+03   -0.11308E+00   -0.15587E+01  4264   0.723E+00    0.851E-01
RMM:   2    -0.413653321260E+03    0.47840E-01   -0.49148E-01  5405   0.761E-01    0.706E-01
RMM:   3    -0.413688886721E+03   -0.35565E-01   -0.83848E-02  5532   0.317E-01    0.982E-01
RMM:   4    -0.413653476496E+03    0.35410E-01   -0.40788E-02  5213   0.233E-01    0.462E-01
RMM:   5    -0.413650636983E+03    0.28395E-02   -0.12299E-02  4452   0.168E-01    0.115E-01
RMM:   6    -0.413650835044E+03   -0.19806E-03   -0.34141E-03  5639   0.699E-02    0.695E-02
RMM:   7    -0.413650806119E+03    0.28926E-04   -0.10443E-03  5494   0.374E-02    0.491E-02
RMM:   8    -0.413650742008E+03    0.64111E-04   -0.39928E-04  5380   0.245E-02    0.273E-02
RMM:   9    -0.413650744833E+03   -0.28248E-05   -0.18305E-04  5565   0.166E-02    0.222E-02
RMM:  10    -0.413650732205E+03    0.12627E-04   -0.46116E-05  5241   0.892E-03    0.945E-03
RMM:  11    -0.413650734306E+03   -0.21007E-05   -0.28445E-05  5173   0.585E-03    0.594E-03
RMM:  12    -0.413650735902E+03   -0.15955E-05   -0.34028E-06  2794   0.296E-03    0.288E-03
RMM:  13    -0.413650737809E+03   -0.19074E-05   -0.17547E-06  2591   0.212E-03    0.130E-03
RMM:  14    -0.413650740143E+03   -0.23336E-05   -0.91196E-07  2489   0.155E-03    0.689E-04
RMM:  15    -0.413650742376E+03   -0.22336E-05   -0.67032E-07  2256   0.121E-03    0.370E-04
RMM:  16    -0.413650744591E+03   -0.22150E-05   -0.60646E-07  2134   0.107E-03    0.284E-04
RMM:  17    -0.413650746456E+03   -0.18652E-05   -0.47789E-07  1868   0.921E-04    0.201E-04
RMM:  18    -0.413650747737E+03   -0.12808E-05   -0.29827E-07  1482   0.759E-04    0.111E-04
RMM:  19    -0.413650749072E+03   -0.13345E-05   -0.28037E-07  1509   0.745E-04    0.751E-05
RMM:  20    -0.413650749792E+03   -0.71993E-06   -0.14087E-07  1170   0.622E-04
  144 T=   160. E= -.41286518E+03 F= -.41365075E+03 E0= -.41362716E+03  EK= 0.78557E+00 SP= 0.00E+00 SK= 0.00E+00
       N       E                     dE             d eps       ncg     rms          rms(c)
RMM:   1    -0.413874892917E+03   -0.22414E+00   -0.18528E+01  4276   0.788E+00    0.106E+00
RMM:   2    -0.413805234784E+03    0.69658E-01   -0.61699E-01  5381   0.849E-01    0.949E-01
RMM:   3    -0.413826550446E+03   -0.21316E-01   -0.10259E-01  5477   0.355E-01    0.107E+00
RMM:   4    -0.413793715190E+03    0.32835E-01   -0.53785E-02  5199   0.282E-01    0.484E-01
RMM:   5    -0.413791302236E+03    0.24130E-02   -0.19202E-02  4709   0.198E-01    0.172E-01
RMM:   6    -0.413791411919E+03   -0.10968E-03   -0.84257E-03  5352   0.111E-01    0.122E-01
RMM:   7    -0.413790740287E+03    0.67163E-03   -0.24651E-03  5019   0.620E-02    0.565E-02
RMM:   8    -0.413790697026E+03    0.43261E-04   -0.54953E-04  5580   0.300E-02    0.349E-02
RMM:   9    -0.413790694907E+03    0.21185E-05   -0.22587E-04  5330   0.189E-02    0.207E-02
RMM:  10    -0.413790687659E+03    0.72482E-05   -0.53662E-05  5370   0.921E-03    0.989E-03
RMM:  11    -0.413790688822E+03   -0.11631E-05   -0.25972E-05  5108   0.575E-03    0.586E-03
RMM:  12    -0.413790691478E+03   -0.26564E-05   -0.44723E-06  2930   0.325E-03    0.314E-03
RMM:  13    -0.413790693220E+03   -0.17413E-05   -0.18459E-06  2607   0.219E-03    0.145E-03
RMM:  14    -0.413790694708E+03   -0.14880E-05   -0.78103E-07  2461   0.147E-03    0.708E-04
RMM:  15    -0.413790695929E+03   -0.12214E-05   -0.50265E-07  2095   0.108E-03    0.367E-04
RMM:  16    -0.413790697181E+03   -0.12519E-05   -0.49037E-07  2078   0.996E-04    0.266E-04
RMM:  17    -0.413790697914E+03   -0.73274E-06   -0.30989E-07  1594   0.810E-04
  145 T=   186. E= -.41287607E+03 F= -.41379070E+03 E0= -.41376653E+03  EK= 0.91463E+00 SP= 0.00E+00 SK= 0.00E+00
       N       E                     dE             d eps       ncg     rms          rms(c)
RMM:   1    -0.414004390228E+03   -0.21369E+00   -0.22187E+01  4278   0.855E+00    0.129E+00
RMM:   2    -0.413895828749E+03    0.10856E+00   -0.78980E-01  5375   0.975E-01    0.122E+00
RMM:   3    -0.413910959316E+03   -0.15131E-01   -0.12827E-01  5528   0.401E-01    0.125E+00
RMM:   4    -0.413874871472E+03    0.36088E-01   -0.56854E-02  5133   0.298E-01    0.578E-01
RMM:   5    -0.413874523924E+03    0.34755E-03   -0.34526E-02  4786   0.253E-01    0.261E-01
RMM:   6    -0.413872678585E+03    0.18453E-02   -0.15125E-02  4979   0.151E-01    0.143E-01
RMM:   7    -0.413871699673E+03    0.97891E-03   -0.27795E-03  4881   0.731E-02    0.609E-02
RMM:   8    -0.413871663303E+03    0.36370E-04   -0.63105E-04  5435   0.326E-02    0.398E-02
RMM:   9    -0.413871655586E+03    0.77179E-05   -0.21154E-04  4731   0.194E-02    0.152E-02
RMM:  10    -0.413871657815E+03   -0.22295E-05   -0.61964E-05  5547   0.903E-03    0.921E-03
RMM:  11    -0.413871659179E+03   -0.13640E-05   -0.17276E-05  4453   0.498E-03    0.577E-03
RMM:  12    -0.413871662032E+03   -0.28528E-05   -0.57773E-06  3220   0.357E-03    0.368E-03
RMM:  13    -0.413871663309E+03   -0.12770E-05   -0.17080E-06  2610   0.217E-03    0.157E-03
RMM:  14    -0.413871663905E+03   -0.59649E-06   -0.79902E-07  2465   0.144E-03
  146 T=   201. E= -.41288462E+03 F= -.41387166E+03 E0= -.41384686E+03  EK= 0.98705E+00 SP= 0.00E+00 SK= 0.00E+00
       N       E                     dE             d eps       ncg     rms          rms(c)
RMM:   1    -0.413919791849E+03   -0.48129E-01   -0.22486E+01  4273   0.853E+00    0.140E+00
RMM:   2    -0.413805275235E+03    0.11452E+00   -0.83397E-01  5364   0.982E-01    0.126E+00
RMM:   3    -0.413847866791E+03   -0.42592E-01   -0.14647E-01  5600   0.415E-01    0.142E+00
RMM:   4    -0.413793864102E+03    0.54003E-01   -0.60540E-02  5036   0.307E-01    0.595E-01
RMM:   5    -0.413793768076E+03    0.96026E-04   -0.40495E-02  4787   0.270E-01    0.262E-01
RMM:   6    -0.413791355400E+03    0.24127E-02   -0.14416E-02  5001   0.149E-01    0.131E-01
RMM:   7    -0.413790566605E+03    0.78880E-03   -0.27528E-03  5031   0.710E-02    0.600E-02
RMM:   8    -0.413790532712E+03    0.33893E-04   -0.67950E-04  5497   0.330E-02    0.403E-02
RMM:   9    -0.413790528193E+03    0.45187E-05   -0.20963E-04  4696   0.199E-02    0.153E-02
RMM:  10    -0.413790531671E+03   -0.34771E-05   -0.64506E-05  5621   0.891E-03    0.910E-03
RMM:  11    -0.413790533308E+03   -0.16370E-05   -0.16721E-05  4392   0.491E-03    0.560E-03
RMM:  12    -0.413790535463E+03   -0.21553E-05   -0.53484E-06  3115   0.342E-03    0.326E-03
RMM:  13    -0.413790536272E+03   -0.80894E-06   -0.15007E-06  2585   0.201E-03
  147 T=   185. E= -.41288306E+03 F= -.41379054E+03 E0= -.41376527E+03  EK= 0.90748E+00 SP= 0.00E+00 SK= 0.00E+00
       N       E                     dE             d eps       ncg     rms          rms(c)
RMM:   1    -0.413657650838E+03    0.13288E+00   -0.18346E+01  4267   0.769E+00    0.150E+00
RMM:   2    -0.413593724620E+03    0.63926E-01   -0.66167E-01  5349   0.865E-01    0.123E+00
RMM:   3    -0.413716686504E+03   -0.12296E+00   -0.19290E-01  5523   0.451E-01    0.173E+00
RMM:   4    -0.413594721738E+03    0.12196E+00   -0.10152E-01  5021   0.371E-01    0.493E-01
RMM:   5    -0.413591024794E+03    0.36969E-02   -0.40883E-02  5083   0.264E-01    0.204E-01
RMM:   6    -0.413589807347E+03    0.12174E-02   -0.78279E-03  5325   0.112E-01    0.977E-02
RMM:   7    -0.413589550472E+03    0.25687E-03   -0.21393E-03  5311   0.553E-02    0.548E-02
RMM:   8    -0.413589500295E+03    0.50177E-04   -0.64000E-04  5509   0.310E-02    0.378E-02
RMM:   9    -0.413589501645E+03   -0.13499E-05   -0.16965E-04  5088   0.173E-02    0.204E-02
RMM:  10    -0.413589497323E+03    0.43215E-05   -0.68282E-05  5533   0.968E-03    0.872E-03
RMM:  11    -0.413589498461E+03   -0.11376E-05   -0.23927E-05  4899   0.539E-03    0.553E-03
RMM:  12    -0.413589498377E+03    0.84070E-07   -0.46214E-06  2969   0.324E-03
  148 T=   145. E= -.41287491E+03 F= -.41358950E+03 E0= -.41356407E+03  EK= 0.71459E+00 SP= 0.00E+00 SK= 0.00E+00
       N       E                     dE             d eps       ncg     rms          rms(c)
RMM:   1    -0.413432524675E+03    0.15697E+00   -0.12719E+01  4265   0.649E+00    0.140E+00
RMM:   2    -0.413408472723E+03    0.24052E-01   -0.38583E-01  5360   0.708E-01    0.112E+00
RMM:   3    -0.413524571296E+03   -0.11610E+00   -0.16307E-01  5470   0.415E-01    0.155E+00
RMM:   4    -0.413420231439E+03    0.10434E+00   -0.11037E-01  5119   0.356E-01    0.572E-01
RMM:   5    -0.413408192136E+03    0.12039E-01   -0.41945E-02  5115   0.268E-01    0.175E-01
RMM:   6    -0.413407373083E+03    0.81905E-03   -0.44607E-03  5351   0.904E-02    0.839E-02
RMM:   7    -0.413407259422E+03    0.11366E-03   -0.12865E-03  5248   0.430E-02    0.517E-02
RMM:   8    -0.413407190368E+03    0.69054E-04   -0.63741E-04  5442   0.305E-02    0.340E-02
RMM:   9    -0.413407196576E+03   -0.62084E-05   -0.18508E-04  5720   0.168E-02    0.256E-02
RMM:  10    -0.413407181547E+03    0.15029E-04   -0.75416E-05  5254   0.110E-02    0.837E-03
RMM:  11    -0.413407182603E+03   -0.10560E-05   -0.35077E-05  5448   0.629E-03    0.612E-03
RMM:  12    -0.413407180734E+03    0.18683E-05   -0.37120E-06  2860   0.294E-03    0.315E-03
RMM:  13    -0.413407180079E+03    0.65568E-06   -0.16648E-06  2549   0.204E-03
  149 T=   111. E= -.41286355E+03 F= -.41340718E+03 E0= -.41338172E+03  EK= 0.54363E+00 SP= 0.00E+00 SK= 0.00E+00
       N       E                     dE             d eps       ncg     rms          rms(c)
RMM:   1    -0.413442040480E+03   -0.34860E-01   -0.96356E+00  4264   0.579E+00    0.833E-01
RMM:   2    -0.413434521841E+03    0.75186E-02   -0.30155E-01  5389   0.602E-01    0.679E-01
RMM:   3    -0.413470718715E+03   -0.36197E-01   -0.66032E-02  5585   0.272E-01    0.956E-01
RMM:   4    -0.413435298278E+03    0.35420E-01   -0.35084E-02  5164   0.216E-01    0.368E-01
RMM:   5    -0.413433246254E+03    0.20520E-02   -0.15357E-02  4856   0.171E-01    0.118E-01
RMM:   6    -0.413433046286E+03    0.19997E-03   -0.37433E-03  5439   0.752E-02    0.749E-02
RMM:   7    -0.413432814424E+03    0.23186E-03   -0.88084E-04  5020   0.369E-02    0.375E-02
RMM:   8    -0.413432784738E+03    0.29687E-04   -0.26629E-04  5588   0.202E-02    0.242E-02
RMM:   9    -0.413432787830E+03   -0.30920E-05   -0.12818E-04  5483   0.140E-02    0.180E-02
RMM:  10    -0.413432781489E+03    0.63408E-05   -0.32756E-05  5099   0.753E-03    0.818E-03
RMM:  11    -0.413432781354E+03    0.13524E-06   -0.19081E-05  4830   0.503E-03    0.462E-03
RMM:  12    -0.413432781262E+03    0.91994E-07   -0.21859E-06  2658   0.249E-03
  150 T=   117. E= -.41285856E+03 F= -.41343278E+03 E0= -.41340721E+03  EK= 0.57422E+00 SP= 0.00E+00 SK= 0.00E+00
