       N       E                     dE             d eps       ncg     rms          rms(c)
RMM:   1     0.220176490421E+04    0.22018E+04   -0.52437E+04  2132   0.654E+02
RMM:   2     0.705543766134E+03   -0.14962E+04   -0.16262E+04  2132   0.177E+02
RMM:   3     0.137210418179E+03   -0.56833E+03   -0.65746E+03  2132   0.117E+02
RMM:   4    -0.159374644890E+03   -0.29659E+03   -0.27866E+03  2132   0.936E+01
RMM:   5    -0.287595100411E+03   -0.12822E+03   -0.11440E+03  2132   0.595E+01
RMM:   6    -0.349836046465E+03   -0.62241E+02   -0.55079E+02  2132   0.423E+01
RMM:   7    -0.382716953591E+03   -0.32881E+02   -0.30393E+02  2132   0.293E+01
RMM:   8    -0.404184198038E+03   -0.21467E+02   -0.18423E+02  2132   0.233E+01
RMM:   9    -0.435999385669E+03   -0.31815E+02   -0.30727E+02  6103   0.173E+01
RMM:  10    -0.441291920562E+03   -0.52925E+01   -0.62930E+01  6400   0.538E+00
RMM:  11    -0.442513592417E+03   -0.12217E+01   -0.11055E+01  6213   0.172E+00
RMM:  12    -0.442895209451E+03   -0.38162E+00   -0.27754E+00  6368   0.602E-01    0.134E+02
RMM:  13    -0.425609665849E+03    0.17286E+02   -0.80682E+01  4676   0.119E+01    0.712E+01
RMM:  14    -0.499731997979E+03   -0.74122E+02   -0.54032E+02  5412   0.232E+01    0.308E+01
RMM:  15    -0.416237567857E+03    0.83494E+02   -0.20072E+02  5098   0.164E+01    0.726E+00
RMM:  16    -0.414033504914E+03    0.22041E+01   -0.39764E+01  6080   0.612E+00    0.430E+00
RMM:  17    -0.413213897306E+03    0.81961E+00   -0.25655E+00  5387   0.189E+00    0.245E+00
RMM:  18    -0.413172205213E+03    0.41692E-01   -0.79571E-01  5983   0.914E-01    0.167E+00
RMM:  19    -0.413171112712E+03    0.10925E-02   -0.24870E-01  5713   0.541E-01    0.890E-01
RMM:  20    -0.413192186924E+03   -0.21074E-01   -0.30419E-01  5549   0.572E-01    0.660E-01
RMM:  21    -0.413168237457E+03    0.23949E-01   -0.34931E-02  4977   0.247E-01    0.305E-01
RMM:  22    -0.413164735985E+03    0.35015E-02   -0.23897E-02  5882   0.147E-01    0.133E-01
RMM:  23    -0.413163997420E+03    0.73856E-03   -0.60573E-03  6098   0.692E-02    0.840E-02
RMM:  24    -0.413163028579E+03    0.96884E-03   -0.16363E-03  5217   0.410E-02    0.510E-02
RMM:  25    -0.413162594163E+03    0.43442E-03   -0.83339E-04  5065   0.282E-02    0.397E-02
RMM:  26    -0.413162787588E+03   -0.19342E-03   -0.10744E-03  5757   0.334E-02    0.346E-02
RMM:  27    -0.413163229909E+03   -0.44232E-03   -0.20865E-04  4585   0.200E-02    0.188E-02
RMM:  28    -0.413163709636E+03   -0.47973E-03   -0.16799E-04  5102   0.178E-02    0.970E-03
RMM:  29    -0.413164099403E+03   -0.38977E-03   -0.12064E-04  4682   0.152E-02    0.473E-03
RMM:  30    -0.413164340854E+03   -0.24145E-03   -0.80070E-05  4226   0.104E-02    0.375E-03
RMM:  31    -0.413164486861E+03   -0.14601E-03   -0.59964E-05  3336   0.746E-03    0.347E-03
RMM:  32    -0.413164514862E+03   -0.28001E-04   -0.22936E-05  2986   0.313E-03    0.199E-03
RMM:  33    -0.413164528681E+03   -0.13819E-04   -0.94900E-06  2802   0.226E-03    0.721E-04
RMM:  34    -0.413164531602E+03   -0.29209E-05   -0.52546E-06  2637   0.160E-03    0.571E-04
RMM:  35    -0.413164532168E+03   -0.56589E-06   -0.24508E-06  2352   0.128E-03
    1 T=    61. E= -.41286673E+03 F= -.41316453E+03 E0= -.41314203E+03  EK= 0.29780E+00 SP= 0.00E+00 SK= 0.00E+00
       N       E                     dE             d eps       ncg     rms          rms(c)
RMM:   1    -0.413154792654E+03    0.97389E-02   -0.11162E+01  3985   0.703E-01    0.886E-01
RMM:   2    -0.413165544975E+03   -0.10752E-01   -0.13763E-01  3948   0.100E-01    0.641E-01
RMM:   3    -0.413164119012E+03    0.14260E-02   -0.63308E-03  4614   0.344E-02    0.151E-01
RMM:   4    -0.413176170542E+03   -0.12052E-01   -0.12764E-02  5218   0.941E-02    0.461E-01
RMM:   5    -0.413163915484E+03    0.12255E-01   -0.61426E-03  4863   0.769E-02    0.248E-02
RMM:   6    -0.413163985131E+03   -0.69648E-04   -0.97570E-04  5834   0.301E-02    0.143E-02
RMM:   7    -0.413163997888E+03   -0.12756E-04   -0.12755E-04  5509   0.968E-03    0.998E-03
RMM:   8    -0.413164005651E+03   -0.77637E-05   -0.14849E-05  3528   0.385E-03    0.512E-03
RMM:   9    -0.413164013066E+03   -0.74151E-05   -0.33683E-06  2674   0.226E-03    0.323E-03
RMM:  10    -0.413164020196E+03   -0.71298E-05   -0.14221E-06  2527   0.166E-03    0.185E-03
RMM:  11    -0.413164027706E+03   -0.75101E-05   -0.11275E-06  2499   0.141E-03    0.657E-04
RMM:  12    -0.413164030832E+03   -0.31257E-05   -0.57560E-07  2127   0.102E-03    0.273E-04
RMM:  13    -0.413164032518E+03   -0.16861E-05   -0.36862E-07  1537   0.793E-04    0.180E-04
RMM:  14    -0.413164035107E+03   -0.25886E-05   -0.31744E-07  1406   0.757E-04    0.121E-04
RMM:  15    -0.413164036259E+03   -0.11520E-05   -0.23358E-07  1207   0.682E-04    0.594E-05
RMM:  16    -0.413164037111E+03   -0.85231E-06   -0.18594E-07  1219   0.654E-04
    2 T=    61. E= -.41286633E+03 F= -.41316404E+03 E0= -.41314154E+03  EK= 0.29770E+00 SP= 0.00E+00 SK= 0.00E+00
       N       E                     dE             d eps       ncg     rms          rms(c)
RMM:   1    -0.413155885668E+03    0.81506E-02   -0.11197E+01  4186   0.704E-01    0.911E-01
RMM:   2    -0.413165558383E+03   -0.96727E-02   -0.13480E-01  3973   0.967E-02    0.633E-01
RMM:   3    -0.413165001651E+03    0.55673E-03   -0.68895E-03  4877   0.389E-02    0.170E-01
RMM:   4    -0.413195577205E+03   -0.30576E-01   -0.31144E-02  5181   0.147E-01    0.728E-01
RMM:   5    -0.413164565380E+03    0.31012E-01   -0.15036E-02  4827   0.122E-01    0.380E-02
RMM:   6    -0.413164757000E+03   -0.19162E-03   -0.24414E-03  5794   0.479E-02    0.190E-02
RMM:   7    -0.413164770854E+03   -0.13854E-04   -0.29328E-04  5896   0.141E-02    0.140E-02
RMM:   8    -0.413164771755E+03   -0.90124E-06   -0.38586E-05  4477   0.542E-03    0.867E-03
RMM:   9    -0.413164770959E+03    0.79599E-06   -0.62688E-06  3015   0.279E-03
    3 T=    61. E= -.41286677E+03 F= -.41316477E+03 E0= -.41314228E+03  EK= 0.29800E+00 SP= 0.00E+00 SK= 0.00E+00
       N       E                     dE             d eps       ncg     rms          rms(c)
RMM:   1    -0.413155274251E+03    0.94975E-02   -0.11111E+01  4229   0.705E-01    0.894E-01
RMM:   2    -0.413165685780E+03   -0.10412E-01   -0.13380E-01  4185   0.987E-02    0.627E-01
RMM:   3    -0.413168327315E+03   -0.26415E-02   -0.94709E-03  5175   0.673E-02    0.304E-01
RMM:   4    -0.413192780747E+03   -0.24453E-01   -0.39815E-02  5133   0.169E-01    0.701E-01
RMM:   5    -0.413164413279E+03    0.28367E-01   -0.11810E-02  4732   0.117E-01    0.535E-02
RMM:   6    -0.413164454327E+03   -0.41049E-04   -0.20117E-03  5557   0.448E-02    0.168E-02
RMM:   7    -0.413164476251E+03   -0.21924E-04   -0.29263E-04  6040   0.149E-02    0.120E-02
RMM:   8    -0.413164479057E+03   -0.28059E-05   -0.37604E-05  4741   0.559E-03    0.727E-03
RMM:   9    -0.413164480812E+03   -0.17550E-05   -0.73096E-06  3153   0.367E-03    0.360E-03
RMM:  10    -0.413164482581E+03   -0.17686E-05   -0.18229E-06  2558   0.214E-03    0.218E-03
RMM:  11    -0.413164484704E+03   -0.21233E-05   -0.10297E-06  2536   0.158E-03    0.106E-03
RMM:  12    -0.413164485798E+03   -0.10940E-05   -0.49309E-07  2231   0.108E-03    0.463E-04
RMM:  13    -0.413164487037E+03   -0.12390E-05   -0.39318E-07  1750   0.889E-04    0.215E-04
RMM:  14    -0.413164487571E+03   -0.53406E-06   -0.21746E-07  1384   0.736E-04
    4 T=    61. E= -.41286647E+03 F= -.41316449E+03 E0= -.41314200E+03  EK= 0.29802E+00 SP= 0.00E+00 SK= 0.00E+00
       N       E                     dE             d eps       ncg     rms          rms(c)
RMM:   1    -0.413155092342E+03    0.93947E-02   -0.11152E+01  4235   0.710E-01    0.884E-01
RMM:   2    -0.413165943725E+03   -0.10851E-01   -0.13790E-01  3997   0.961E-02    0.639E-01
RMM:   3    -0.413164912841E+03    0.10309E-02   -0.64222E-03  4937   0.367E-02    0.164E-01
RMM:   4    -0.413195760477E+03   -0.30848E-01   -0.31559E-02  5164   0.148E-01    0.732E-01
RMM:   5    -0.413164361356E+03    0.31399E-01   -0.15188E-02  4813   0.122E-01    0.365E-02
RMM:   6    -0.413164556222E+03   -0.19487E-03   -0.24656E-03  5774   0.479E-02    0.170E-02
RMM:   7    -0.413164575265E+03   -0.19044E-04   -0.29148E-04  5868   0.139E-02    0.132E-02
RMM:   8    -0.413164580221E+03   -0.49551E-05   -0.36735E-05  4410   0.530E-03    0.821E-03
RMM:   9    -0.413164584530E+03   -0.43099E-05   -0.60589E-06  2968   0.280E-03    0.555E-03
RMM:  10    -0.413164591143E+03   -0.66126E-05   -0.21399E-06  2564   0.212E-03    0.283E-03
RMM:  11    -0.413164596990E+03   -0.58471E-05   -0.14592E-06  2543   0.177E-03    0.140E-03
RMM:  12    -0.413164600571E+03   -0.35807E-05   -0.74818E-07  2433   0.134E-03    0.491E-04
RMM:  13    -0.413164601817E+03   -0.12464E-05   -0.33170E-07  2003   0.935E-04    0.305E-04
RMM:  14    -0.413164603220E+03   -0.14027E-05   -0.21596E-07  1531   0.776E-04    0.177E-04
RMM:  15    -0.413164605035E+03   -0.18155E-05   -0.23533E-07  1536   0.757E-04    0.140E-04
RMM:  16    -0.413164605293E+03   -0.25781E-06   -0.93728E-08  1060   0.626E-04
    5 T=    61. E= -.41286646E+03 F= -.41316461E+03 E0= -.41314213E+03  EK= 0.29815E+00 SP= 0.00E+00 SK= 0.00E+00
       N       E                     dE             d eps       ncg     rms          rms(c)
RMM:   1    -0.413156049953E+03    0.85551E-02   -0.11204E+01  4248   0.716E-01    0.907E-01
RMM:   2    -0.413166231504E+03   -0.10182E-01   -0.13489E-01  4030   0.970E-02    0.635E-01
RMM:   3    -0.413165438931E+03    0.79257E-03   -0.66753E-03  4842   0.375E-02    0.167E-01
RMM:   4    -0.413193397188E+03   -0.27958E-01   -0.28301E-02  5157   0.140E-01    0.697E-01
RMM:   5    -0.413165020219E+03    0.28377E-01   -0.13855E-02  4821   0.116E-01    0.358E-02
RMM:   6    -0.413165194342E+03   -0.17412E-03   -0.21996E-03  5778   0.453E-02    0.183E-02
RMM:   7    -0.413165206056E+03   -0.11715E-04   -0.26180E-04  5853   0.134E-02    0.135E-02
RMM:   8    -0.413165206907E+03   -0.85044E-06   -0.33826E-05  4373   0.519E-03    0.829E-03
RMM:   9    -0.413165206485E+03    0.42191E-06   -0.57071E-06  2938   0.275E-03
    6 T=    61. E= -.41286674E+03 F= -.41316521E+03 E0= -.41314274E+03  EK= 0.29846E+00 SP= 0.00E+00 SK= 0.00E+00
       N       E                     dE             d eps       ncg     rms          rms(c)
RMM:   1    -0.413158202248E+03    0.70047E-02   -0.11171E+01  4266   0.739E-01    0.902E-01
RMM:   2    -0.413165536958E+03   -0.73347E-02   -0.13465E-01  4241   0.100E-01    0.628E-01
RMM:   3    -0.413168336697E+03   -0.27997E-02   -0.94911E-03  5144   0.661E-02    0.297E-01
RMM:   4    -0.413193759212E+03   -0.25423E-01   -0.39909E-02  5121   0.168E-01    0.709E-01
RMM:   5    -0.413164684924E+03    0.29074E-01   -0.12265E-02  4737   0.118E-01    0.531E-02
RMM:   6    -0.413164737502E+03   -0.52578E-04   -0.20599E-03  5585   0.453E-02    0.169E-02
RMM:   7    -0.413164759113E+03   -0.21611E-04   -0.29535E-04  6039   0.149E-02    0.121E-02
RMM:   8    -0.413164760028E+03   -0.91502E-06   -0.37864E-05  4714   0.559E-03    0.734E-03
RMM:   9    -0.413164758700E+03    0.13276E-05   -0.70166E-06  3061   0.358E-03    0.353E-03
RMM:  10    -0.413164758795E+03   -0.94609E-07   -0.18660E-06  2549   0.213E-03
    7 T=    61. E= -.41286627E+03 F= -.41316476E+03 E0= -.41314231E+03  EK= 0.29848E+00 SP= 0.00E+00 SK= 0.00E+00
       N       E                     dE             d eps       ncg     rms          rms(c)
RMM:   1    -0.413155837552E+03    0.89211E-02   -0.11144E+01  4275   0.726E-01    0.883E-01
RMM:   2    -0.413166783165E+03   -0.10946E-01   -0.13716E-01  4088   0.952E-02    0.637E-01
RMM:   3    -0.413165976044E+03    0.80712E-03   -0.65707E-03  4998   0.405E-02    0.177E-01
RMM:   4    -0.413205578940E+03   -0.39603E-01   -0.41272E-02  5151   0.169E-01    0.826E-01
RMM:   5    -0.413165262315E+03    0.40317E-01   -0.19519E-02  4808   0.138E-01    0.426E-02
RMM:   6    -0.413165476655E+03   -0.21434E-03   -0.30377E-03  5758   0.540E-02    0.171E-02
RMM:   7    -0.413165503377E+03   -0.26722E-04   -0.37209E-04  5927   0.156E-02    0.137E-02
RMM:   8    -0.413165508192E+03   -0.48148E-05   -0.43892E-05  4457   0.562E-03    0.836E-03
RMM:   9    -0.413165511776E+03   -0.35844E-05   -0.71264E-06  3017   0.286E-03    0.557E-03
RMM:  10    -0.413165517253E+03   -0.54772E-05   -0.24930E-06  2573   0.223E-03    0.275E-03
RMM:  11    -0.413165521674E+03   -0.44206E-05   -0.14676E-06  2538   0.177E-03    0.132E-03
RMM:  12    -0.413165524329E+03   -0.26550E-05   -0.80288E-07  2444   0.136E-03    0.429E-04
RMM:  13    -0.413165525577E+03   -0.12485E-05   -0.38714E-07  2024   0.964E-04    0.279E-04
RMM:  14    -0.413165526727E+03   -0.11500E-05   -0.29227E-07  1654   0.821E-04    0.191E-04
RMM:  15    -0.413165527506E+03   -0.77915E-06   -0.21896E-07  1421   0.739E-04
    8 T=    61. E= -.41286674E+03 F= -.41316553E+03 E0= -.41314310E+03  EK= 0.29879E+00 SP= 0.00E+00 SK= 0.00E+00
       N       E                     dE             d eps       ncg     rms          rms(c)
RMM:   1    -0.413156336047E+03    0.91907E-02   -0.11209E+01  4285   0.728E-01    0.901E-01
RMM:   2    -0.413166670866E+03   -0.10335E-01   -0.13626E-01  4176   0.101E-01    0.638E-01
RMM:   3    -0.413165854745E+03    0.81612E-03   -0.66207E-03  4841   0.384E-02    0.166E-01
RMM:   4    -0.413194967965E+03   -0.29113E-01   -0.29626E-02  5156   0.143E-01    0.712E-01
RMM:   5    -0.413165340788E+03    0.29627E-01   -0.14500E-02  4807   0.119E-01    0.356E-02
RMM:   6    -0.413165522526E+03   -0.18174E-03   -0.22916E-03  5792   0.463E-02    0.179E-02
RMM:   7    -0.413165535483E+03   -0.12957E-04   -0.27159E-04  5855   0.137E-02    0.134E-02
RMM:   8    -0.413165536789E+03   -0.13060E-05   -0.35046E-05  4414   0.529E-03    0.842E-03
RMM:   9    -0.413165536546E+03    0.24270E-06   -0.58616E-06  2960   0.281E-03
    9 T=    61. E= -.41286654E+03 F= -.41316554E+03 E0= -.41314313E+03  EK= 0.29900E+00 SP= 0.00E+00 SK= 0.00E+00
       N       E                     dE             d eps       ncg     rms          rms(c)
RMM:   1    -0.413156842973E+03    0.86938E-02   -0.11194E+01  4297   0.733E-01    0.909E-01
RMM:   2    -0.413166300169E+03   -0.94572E-02   -0.13433E-01  4288   0.977E-02    0.629E-01
RMM:   3    -0.413169606818E+03   -0.33066E-02   -0.99656E-03  5146   0.689E-02    0.310E-01
RMM:   4    -0.413192482088E+03   -0.22875E-01   -0.38334E-02  5104   0.165E-01    0.684E-01
RMM:   5    -0.413165659413E+03    0.26823E-01   -0.11118E-02  4726   0.113E-01    0.523E-02
RMM:   6    -0.413165697669E+03   -0.38256E-04   -0.18852E-03  5550   0.431E-02    0.175E-02
RMM:   7    -0.413165714593E+03   -0.16924E-04   -0.26919E-04  6026   0.145E-02    0.122E-02
RMM:   8    -0.413165714799E+03   -0.20630E-06   -0.35361E-05  4701   0.552E-03    0.731E-03
RMM:   9    -0.413165710880E+03    0.39188E-05   -0.71494E-06  3095   0.366E-03    0.357E-03
RMM:  10    -0.413165709720E+03    0.11603E-05   -0.17633E-06  2548   0.211E-03    0.210E-03
RMM:  11    -0.413165708378E+03    0.13426E-05   -0.10049E-06  2531   0.156E-03    0.102E-03
RMM:  12    -0.413165707413E+03    0.96464E-06   -0.47666E-07  2183   0.107E-03
   10 T=    61. E= -.41286643E+03 F= -.41316571E+03 E0= -.41314332E+03  EK= 0.29928E+00 SP= 0.00E+00 SK= 0.00E+00
       N       E                     dE             d eps       ncg     rms          rms(c)
RMM:   1    -0.413156912313E+03    0.87961E-02   -0.11147E+01  4291   0.736E-01    0.884E-01
RMM:   2    -0.413167801313E+03   -0.10889E-01   -0.13613E-01  4199   0.961E-02    0.634E-01
RMM:   3    -0.413166832778E+03    0.96854E-03   -0.63504E-03  4919   0.392E-02    0.169E-01
RMM:   4    -0.413199547576E+03   -0.32715E-01   -0.33534E-02  5150   0.152E-01    0.754E-01
RMM:   5    -0.413166206150E+03    0.33341E-01   -0.16290E-02  4805   0.126E-01    0.375E-02
RMM:   6    -0.413166409029E+03   -0.20288E-03   -0.26213E-03  5788   0.492E-02    0.179E-02
RMM:   7    -0.413166425103E+03   -0.16074E-04   -0.30839E-04  5894   0.144E-02    0.138E-02
RMM:   8    -0.413166427171E+03   -0.20679E-05   -0.39582E-05  4500   0.552E-03    0.887E-03
RMM:   9    -0.413166427665E+03   -0.49371E-06   -0.65852E-06  3019   0.288E-03
   11 T=    61. E= -.41286668E+03 F= -.41316643E+03 E0= -.41314407E+03  EK= 0.29975E+00 SP= 0.00E+00 SK= 0.00E+00
       N       E                     dE             d eps       ncg     rms          rms(c)
RMM:   1    -0.413156958091E+03    0.94691E-02   -0.11228E+01  4296   0.743E-01    0.896E-01
RMM:   2    -0.413167510067E+03   -0.10552E-01   -0.13778E-01  4303   0.990E-02    0.641E-01
RMM:   3    -0.413170813745E+03   -0.33037E-02   -0.10089E-02  5150   0.713E-02    0.324E-01
RMM:   4    -0.413194991460E+03   -0.24178E-01   -0.42016E-02  5098   0.173E-01    0.705E-01
RMM:   5    -0.413166211606E+03    0.28780E-01   -0.11783E-02  4710   0.117E-01    0.531E-02
RMM:   6    -0.413166253541E+03   -0.41936E-04   -0.20221E-03  5538   0.444E-02    0.158E-02
RMM:   7    -0.413166276171E+03   -0.22629E-04   -0.28486E-04  6021   0.148E-02    0.116E-02
RMM:   8    -0.413166279268E+03   -0.30970E-05   -0.36948E-05  4727   0.554E-03    0.708E-03
RMM:   9    -0.413166281681E+03   -0.24135E-05   -0.74800E-06  3221   0.376E-03    0.379E-03
RMM:  10    -0.413166283387E+03   -0.17059E-05   -0.18912E-06  2545   0.216E-03    0.229E-03
RMM:  11    -0.413166285041E+03   -0.16541E-05   -0.11870E-06  2542   0.166E-03    0.108E-03
RMM:  12    -0.413166285720E+03   -0.67858E-06   -0.52730E-07  2345   0.114E-03
   12 T=    61. E= -.41286629E+03 F= -.41316629E+03 E0= -.41314395E+03  EK= 0.30000E+00 SP= 0.00E+00 SK= 0.00E+00
       N       E                     dE             d eps       ncg     rms          rms(c)
RMM:   1    -0.413157966718E+03    0.83183E-02   -0.11250E+01  4297   0.747E-01    0.914E-01
RMM:   2    -0.413167706168E+03   -0.97394E-02   -0.13459E-01  4226   0.945E-02    0.632E-01
RMM:   3    -0.413167426687E+03    0.27948E-03   -0.69954E-03  5003   0.390E-02    0.181E-01
RMM:   4    -0.413204861684E+03   -0.37435E-01   -0.38800E-02  5147   0.163E-01    0.804E-01
RMM:   5    -0.413166782221E+03    0.38079E-01   -0.18543E-02  4799   0.135E-01    0.419E-02
RMM:   6    -0.413166990454E+03   -0.20823E-03   -0.29112E-03  5774   0.524E-02    0.201E-02
RMM:   7    -0.413167003345E+03   -0.12892E-04   -0.35086E-04  5915   0.153E-02    0.150E-02
RMM:   8    -0.413167001388E+03    0.19573E-05   -0.44524E-05  4643   0.582E-03    0.949E-03
RMM:   9    -0.413166996765E+03    0.46229E-05   -0.72616E-06  3052   0.293E-03    0.632E-03
RMM:  10    -0.413166992535E+03    0.42300E-05   -0.23251E-06  2560   0.220E-03    0.315E-03
RMM:  11    -0.413166989327E+03    0.32084E-05   -0.16233E-06  2545   0.190E-03    0.149E-03
RMM:  12    -0.413166986795E+03    0.25313E-05   -0.83291E-07  2452   0.144E-03    0.480E-04
RMM:  13    -0.413166985943E+03    0.85197E-06   -0.34829E-07  2115   0.984E-04
   13 T=    61. E= -.41286645E+03 F= -.41316699E+03 E0= -.41314468E+03  EK= 0.30054E+00 SP= 0.00E+00 SK= 0.00E+00
       N       E                     dE             d eps       ncg     rms          rms(c)
RMM:   1    -0.413158008062E+03    0.89787E-02   -0.11169E+01  4295   0.747E-01    0.889E-01
RMM:   2    -0.413168570330E+03   -0.10562E-01   -0.13662E-01  4247   0.963E-02    0.632E-01
RMM:   3    -0.413167788027E+03    0.78230E-03   -0.63988E-03  4873   0.366E-02    0.167E-01
RMM:   4    -0.413196565508E+03   -0.28777E-01   -0.29344E-02  5142   0.143E-01    0.708E-01
RMM:   5    -0.413167277211E+03    0.29288E-01   -0.14403E-02  4810   0.118E-01    0.348E-02
RMM:   6    -0.413167449298E+03   -0.17209E-03   -0.22199E-03  5803   0.456E-02    0.176E-02
RMM:   7    -0.413167459685E+03   -0.10387E-04   -0.26230E-04  5839   0.135E-02    0.132E-02
RMM:   8    -0.413167459849E+03   -0.16430E-06   -0.34787E-05  4431   0.528E-03    0.837E-03
RMM:   9    -0.413167457944E+03    0.19049E-05   -0.58275E-06  2944   0.280E-03    0.569E-03
RMM:  10    -0.413167457319E+03    0.62498E-06   -0.19810E-06  2550   0.208E-03
   14 T=    61. E= -.41286645E+03 F= -.41316746E+03 E0= -.41314519E+03  EK= 0.30101E+00 SP= 0.00E+00 SK= 0.00E+00
       N       E                     dE             d eps       ncg     rms          rms(c)
RMM:   1    -0.413158001385E+03    0.94566E-02   -0.11257E+01  4304   0.756E-01    0.892E-01
RMM:   2    -0.413169237124E+03   -0.11236E-01   -0.13900E-01  4302   0.997E-02    0.643E-01
RMM:   3    -0.413170926695E+03   -0.16896E-02   -0.89195E-03  5121   0.642E-02    0.286E-01
RMM:   4    -0.413203489765E+03   -0.32563E-01   -0.46681E-02  5104   0.181E-01    0.783E-01
RMM:   5    -0.413167564060E+03    0.35926E-01   -0.15478E-02  4736   0.129E-01    0.510E-02
RMM:   6    -0.413167669118E+03   -0.10506E-03   -0.25019E-03  5632   0.496E-02    0.147E-02
RMM:   7    -0.413167695506E+03   -0.26387E-04   -0.32638E-04  6014   0.151E-02    0.118E-02
RMM:   8    -0.413167698898E+03   -0.33922E-05   -0.40571E-05  4691   0.563E-03    0.704E-03
RMM:   9    -0.413167700622E+03   -0.17244E-05   -0.63775E-06  2905   0.320E-03    0.339E-03
RMM:  10    -0.413167702390E+03   -0.17681E-05   -0.22430E-06  2559   0.210E-03    0.198E-03
RMM:  11    -0.413167703670E+03   -0.12802E-05   -0.10284E-06  2528   0.148E-03    0.899E-04
RMM:  12    -0.413167704283E+03   -0.61241E-06   -0.51589E-07  1990   0.105E-03
   15 T=    61. E= -.41286639E+03 F= -.41316770E+03 E0= -.41314547E+03  EK= 0.30131E+00 SP= 0.00E+00 SK= 0.00E+00
       N       E                     dE             d eps       ncg     rms          rms(c)
RMM:   1    -0.413159727389E+03    0.79763E-02   -0.11298E+01  4302   0.766E-01    0.916E-01
RMM:   2    -0.413169470462E+03   -0.97431E-02   -0.13583E-01  4260   0.994E-02    0.635E-01
RMM:   3    -0.413169007053E+03    0.46341E-03   -0.69324E-03  4930   0.395E-02    0.176E-01
RMM:   4    -0.413203154114E+03   -0.34147E-01   -0.35034E-02  5145   0.156E-01    0.769E-01
RMM:   5    -0.413168393375E+03    0.34761E-01   -0.16984E-02  4806   0.128E-01    0.392E-02
RMM:   6    -0.413168587637E+03   -0.19426E-03   -0.26666E-03  5800   0.500E-02    0.198E-02
RMM:   7    -0.413168597305E+03   -0.96676E-05   -0.31411E-04  5892   0.148E-02    0.146E-02
RMM:   8    -0.413168594385E+03    0.29200E-05   -0.41119E-05  4585   0.571E-03    0.941E-03
RMM:   9    -0.413168588627E+03    0.57574E-05   -0.68408E-06  3042   0.297E-03    0.637E-03
RMM:  10    -0.413168583352E+03    0.52751E-05   -0.22109E-06  2552   0.222E-03    0.323E-03
RMM:  11    -0.413168579209E+03    0.41432E-05   -0.16653E-06  2539   0.193E-03    0.155E-03
RMM:  12    -0.413168576050E+03    0.31589E-05   -0.79869E-07  2452   0.145E-03    0.503E-04
RMM:  13    -0.413168574998E+03    0.10517E-05   -0.34402E-07  2126   0.981E-04    0.326E-04
RMM:  14    -0.413168573610E+03    0.13883E-05   -0.19917E-07  1608   0.778E-04    0.185E-04
RMM:  15    -0.413168570924E+03    0.26862E-05   -0.21094E-07  1581   0.765E-04    0.157E-04
RMM:  16    -0.413168570340E+03    0.58416E-06   -0.79503E-08  1054   0.615E-04
   16 T=    61. E= -.41286665E+03 F= -.41316857E+03 E0= -.41314637E+03  EK= 0.30192E+00 SP= 0.00E+00 SK= 0.00E+00
       N       E                     dE             d eps       ncg     rms          rms(c)
RMM:   1    -0.413159745649E+03    0.88253E-02   -0.11212E+01  4297   0.759E-01    0.895E-01
RMM:   2    -0.413170169454E+03   -0.10424E-01   -0.13670E-01  4266   0.991E-02    0.631E-01
RMM:   3    -0.413169375618E+03    0.79384E-03   -0.65536E-03  4899   0.417E-02    0.176E-01
RMM:   4    -0.413204782525E+03   -0.35407E-01   -0.36352E-02  5142   0.158E-01    0.782E-01
RMM:   5    -0.413168831372E+03    0.35951E-01   -0.17653E-02  4797   0.131E-01    0.391E-02
RMM:   6    -0.413169034403E+03   -0.20303E-03   -0.27579E-03  5773   0.511E-02    0.190E-02
RMM:   7    -0.413169046832E+03   -0.12428E-04   -0.32507E-04  5883   0.149E-02    0.143E-02
RMM:   8    -0.413169045520E+03    0.13117E-05   -0.41484E-05  4551   0.564E-03    0.914E-03
RMM:   9    -0.413169041705E+03    0.38146E-05   -0.69026E-06  3032   0.289E-03    0.623E-03
RMM:  10    -0.413169038636E+03    0.30696E-05   -0.21668E-06  2547   0.217E-03    0.313E-03
RMM:  11    -0.413169036370E+03    0.22660E-05   -0.15764E-06  2531   0.189E-03    0.153E-03
RMM:  12    -0.413169034569E+03    0.18005E-05   -0.76592E-07  2443   0.142E-03    0.509E-04
RMM:  13    -0.413169033943E+03    0.62656E-06   -0.33482E-07  2109   0.972E-04
   17 T=    62. E= -.41286654E+03 F= -.41316903E+03 E0= -.41314687E+03  EK= 0.30249E+00 SP= 0.00E+00 SK= 0.00E+00
       N       E                     dE             d eps       ncg     rms          rms(c)
RMM:   1    -0.413159880475E+03    0.91541E-02   -0.11294E+01  4299   0.767E-01    0.890E-01
RMM:   2    -0.413171228988E+03   -0.11349E-01   -0.13940E-01  4278   0.102E-01    0.644E-01
RMM:   3    -0.413169993669E+03    0.12353E-02   -0.63947E-03  4904   0.395E-02    0.171E-01
RMM:   4    -0.413204664909E+03   -0.34671E-01   -0.35754E-02  5145   0.157E-01    0.774E-01
RMM:   5    -0.413169350001E+03    0.35315E-01   -0.17328E-02  4796   0.130E-01    0.381E-02
RMM:   6    -0.413169552553E+03   -0.20255E-03   -0.27246E-03  5775   0.508E-02    0.180E-02
RMM:   7    -0.413169567831E+03   -0.15278E-04   -0.31689E-04  5889   0.147E-02    0.138E-02
RMM:   8    -0.413169568831E+03   -0.99927E-06   -0.41424E-05  4576   0.563E-03    0.892E-03
RMM:   9    -0.413169567783E+03    0.10480E-05   -0.68321E-06  3033   0.292E-03    0.608E-03
RMM:  10    -0.413169568413E+03   -0.62984E-06   -0.22796E-06  2562   0.220E-03
   18 T=    62. E= -.41286642E+03 F= -.41316957E+03 E0= -.41314745E+03  EK= 0.30315E+00 SP= 0.00E+00 SK= 0.00E+00
       N       E                     dE             d eps       ncg     rms          rms(c)
RMM:   1    -0.413161669519E+03    0.78983E-02   -0.11354E+01  4302   0.772E-01    0.915E-01
RMM:   2    -0.413171548689E+03   -0.98792E-02   -0.13781E-01  4313   0.999E-02    0.639E-01
RMM:   3    -0.413174679790E+03   -0.31311E-02   -0.98759E-03  5126   0.685E-02    0.313E-01
RMM:   4    -0.413199210975E+03   -0.24531E-01   -0.40747E-02  5088   0.170E-01    0.704E-01
RMM:   5    -0.413170550697E+03    0.28660E-01   -0.11871E-02  4710   0.117E-01    0.497E-02
RMM:   6    -0.413170608308E+03   -0.57611E-04   -0.20017E-03  5578   0.442E-02    0.166E-02
RMM:   7    -0.413170621834E+03   -0.13526E-04   -0.26365E-04  6006   0.140E-02    0.119E-02
RMM:   8    -0.413170619523E+03    0.23105E-05   -0.33515E-05  4587   0.537E-03    0.697E-03
RMM:   9    -0.413170611782E+03    0.77415E-05   -0.59610E-06  2854   0.329E-03    0.327E-03
RMM:  10    -0.413170608352E+03    0.34299E-05   -0.17936E-06  2537   0.200E-03    0.186E-03
RMM:  11    -0.413170604585E+03    0.37669E-05   -0.86696E-07  2513   0.145E-03    0.909E-04
RMM:  12    -0.413170602212E+03    0.23731E-05   -0.43660E-07  1983   0.103E-03    0.465E-04
RMM:  13    -0.413170599336E+03    0.28764E-05   -0.33456E-07  1860   0.904E-04    0.235E-04
RMM:  14    -0.413170597823E+03    0.15123E-05   -0.18141E-07  1404   0.722E-04    0.144E-04
RMM:  15    -0.413170594866E+03    0.29571E-05   -0.20373E-07  1601   0.749E-04    0.106E-04
RMM:  16    -0.413170593164E+03    0.17022E-05   -0.11865E-07  1263   0.642E-04    0.923E-05
RMM:  17    -0.413170591027E+03    0.21366E-05   -0.10491E-07  1236   0.627E-04    0.459E-05
RMM:  18    -0.413170589350E+03    0.16776E-05   -0.69082E-08  1047   0.575E-04    0.249E-05
RMM:  19    -0.413170588873E+03    0.47707E-06   -0.33997E-08   825   0.529E-04
   19 T=    62. E= -.41286655E+03 F= -.41317059E+03 E0= -.41314851E+03  EK= 0.30404E+00 SP= 0.00E+00 SK= 0.00E+00
       N       E                     dE             d eps       ncg     rms          rms(c)
RMM:   1    -0.413162023490E+03    0.85659E-02   -0.11304E+01  4298   0.785E-01    0.904E-01
RMM:   2    -0.413172206767E+03   -0.10183E-01   -0.13704E-01  4274   0.100E-01    0.632E-01
RMM:   3    -0.413171719094E+03    0.48767E-03   -0.67360E-03  4963   0.418E-02    0.186E-01
RMM:   4    -0.413211493487E+03   -0.39774E-01   -0.41646E-02  5142   0.169E-01    0.828E-01
RMM:   5    -0.413170986214E+03    0.40507E-01   -0.19778E-02  4791   0.139E-01    0.426E-02
RMM:   6    -0.413171196367E+03   -0.21015E-03   -0.31151E-03  5756   0.543E-02    0.198E-02
RMM:   7    -0.413171209994E+03   -0.13628E-04   -0.37103E-04  5869   0.158E-02    0.150E-02
RMM:   8    -0.413171207212E+03    0.27821E-05   -0.46956E-05  4702   0.595E-03    0.956E-03
RMM:   9    -0.413171201445E+03    0.57675E-05   -0.76157E-06  3084   0.298E-03    0.642E-03
RMM:  10    -0.413171196007E+03    0.54379E-05   -0.23371E-06  2548   0.224E-03    0.319E-03
RMM:  11    -0.413171192001E+03    0.40064E-05   -0.15463E-06  2524   0.190E-03    0.154E-03
RMM:  12    -0.413171189080E+03    0.29204E-05   -0.76849E-07  2449   0.144E-03    0.500E-04
RMM:  13    -0.413171188091E+03    0.98918E-06   -0.34312E-07  2129   0.995E-04
   20 T=    62. E= -.41286636E+03 F= -.41317119E+03 E0= -.41314915E+03  EK= 0.30482E+00 SP= 0.00E+00 SK= 0.00E+00
       N       E                     dE             d eps       ncg     rms          rms(c)
RMM:   1    -0.413162484667E+03    0.87044E-02   -0.11350E+01  4299   0.785E-01    0.891E-01
RMM:   2    -0.413173530968E+03   -0.11046E-01   -0.14105E-01  4285   0.102E-01    0.644E-01
RMM:   3    -0.413172482983E+03    0.10480E-02   -0.64483E-03  4919   0.396E-02    0.173E-01
RMM:   4    -0.413207285907E+03   -0.34803E-01   -0.35874E-02  5140   0.157E-01    0.776E-01
RMM:   5    -0.413171801855E+03    0.35484E-01   -0.17441E-02  4798   0.130E-01    0.378E-02
RMM:   6    -0.413171999276E+03   -0.19742E-03   -0.27531E-03  5794   0.510E-02    0.181E-02
RMM:   7    -0.413172014610E+03   -0.15334E-04   -0.31950E-04  5891   0.148E-02    0.139E-02
RMM:   8    -0.413172014659E+03   -0.49629E-07   -0.42122E-05  4590   0.568E-03    0.914E-03
RMM:   9    -0.413172012046E+03    0.26128E-05   -0.69293E-06  3041   0.295E-03    0.626E-03
RMM:  10    -0.413172010747E+03    0.12995E-05   -0.22995E-06  2565   0.224E-03    0.319E-03
RMM:  11    -0.413172009802E+03    0.94457E-06   -0.17329E-06  2552   0.195E-03
   21 T=    62. E= -.41286635E+03 F= -.41317201E+03 E0= -.41315002E+03  EK= 0.30566E+00 SP= 0.00E+00 SK= 0.00E+00
       N       E                     dE             d eps       ncg     rms          rms(c)
RMM:   1    -0.413168925751E+03    0.30850E-02   -0.11476E+01  4299   0.817E-01    0.913E-01
RMM:   2    -0.413174333143E+03   -0.54074E-02   -0.13859E-01  4294   0.990E-02    0.643E-01
RMM:   3    -0.413174419170E+03   -0.86028E-04   -0.73429E-03  5044   0.483E-02    0.211E-01
RMM:   4    -0.413219273213E+03   -0.44854E-01   -0.50247E-02  5130   0.186E-01    0.882E-01
RMM:   5    -0.413173076324E+03    0.46197E-01   -0.21860E-02  4779   0.148E-01    0.470E-02
RMM:   6    -0.413173292910E+03   -0.21659E-03   -0.34988E-03  5746   0.580E-02    0.191E-02
RMM:   7    -0.413173312862E+03   -0.19952E-04   -0.42258E-04  5956   0.168E-02    0.153E-02
RMM:   8    -0.413173310809E+03    0.20527E-05   -0.53100E-05  4837   0.624E-03    0.975E-03
RMM:   9    -0.413173304823E+03    0.59861E-05   -0.80203E-06  3091   0.306E-03    0.608E-03
RMM:  10    -0.413173299194E+03    0.56289E-05   -0.26224E-06  2567   0.234E-03    0.291E-03
RMM:  11    -0.413173294993E+03    0.42017E-05   -0.14386E-06  2517   0.183E-03    0.141E-03
RMM:  12    -0.413173291614E+03    0.33786E-05   -0.75087E-07  2456   0.140E-03    0.459E-04
RMM:  13    -0.413173289907E+03    0.17072E-05   -0.33776E-07  2095   0.977E-04    0.300E-04
RMM:  14    -0.413173287520E+03    0.23867E-05   -0.21630E-07  1647   0.797E-04    0.191E-04
RMM:  15    -0.413173285048E+03    0.24723E-05   -0.15610E-07  1435   0.719E-04    0.108E-04
RMM:  16    -0.413173284205E+03    0.84281E-06   -0.81632E-08  1134   0.629E-04
   22 T=    62. E= -.41286675E+03 F= -.41317328E+03 E0= -.41315134E+03  EK= 0.30654E+00 SP= 0.00E+00 SK= 0.00E+00
       N       E                     dE             d eps       ncg     rms          rms(c)
RMM:   1    -0.413164742226E+03    0.85428E-02   -0.11412E+01  4298   0.791E-01    0.914E-01
RMM:   2    -0.413174849329E+03   -0.10107E-01   -0.13829E-01  4289   0.106E-01    0.636E-01
RMM:   3    -0.413174388117E+03    0.46121E-03   -0.68569E-03  4897   0.432E-02    0.183E-01
RMM:   4    -0.413211543700E+03   -0.37156E-01   -0.38286E-02  5146   0.163E-01    0.801E-01
RMM:   5    -0.413173729314E+03    0.37814E-01   -0.18570E-02  4797   0.135E-01    0.404E-02
RMM:   6    -0.413173924672E+03   -0.19536E-03   -0.28979E-03  5787   0.526E-02    0.204E-02
RMM:   7    -0.413173933674E+03   -0.90022E-05   -0.33193E-04  5893   0.154E-02    0.149E-02
RMM:   8    -0.413173929562E+03    0.41126E-05   -0.44661E-05  4692   0.593E-03    0.977E-03
RMM:   9    -0.413173921862E+03    0.76999E-05   -0.74640E-06  3095   0.306E-03    0.656E-03
RMM:  10    -0.413173914235E+03    0.76264E-05   -0.22954E-06  2551   0.230E-03    0.331E-03
RMM:  11    -0.413173907813E+03    0.64226E-05   -0.16653E-06  2528   0.198E-03    0.161E-03
RMM:  12    -0.413173903299E+03    0.45142E-05   -0.77860E-07  2450   0.148E-03    0.530E-04
RMM:  13    -0.413173901779E+03    0.15193E-05   -0.34368E-07  2133   0.100E-03    0.344E-04
RMM:  14    -0.413173899933E+03    0.18467E-05   -0.18481E-07  1620   0.776E-04    0.192E-04
RMM:  15    -0.413173895981E+03    0.39512E-05   -0.17888E-07  1641   0.763E-04    0.173E-04
RMM:  16    -0.413173895285E+03    0.69647E-06   -0.71288E-08  1044   0.609E-04
   23 T=    63. E= -.41286657E+03 F= -.41317390E+03 E0= -.41315200E+03  EK= 0.30733E+00 SP= 0.00E+00 SK= 0.00E+00
       N       E                     dE             d eps       ncg     rms          rms(c)
RMM:   1    -0.413165646848E+03    0.82491E-02   -0.11407E+01  4292   0.794E-01    0.893E-01
RMM:   2    -0.413176978449E+03   -0.11332E-01   -0.14176E-01  4288   0.104E-01    0.643E-01
RMM:   3    -0.413175722024E+03    0.12564E-02   -0.63420E-03  4806   0.403E-02    0.170E-01
RMM:   4    -0.413203981220E+03   -0.28259E-01   -0.28694E-02  5151   0.141E-01    0.700E-01
RMM:   5    -0.413175303079E+03    0.28678E-01   -0.14196E-02  4804   0.117E-01    0.337E-02
RMM:   6    -0.413175458559E+03   -0.15548E-03   -0.22084E-03  5798   0.451E-02    0.175E-02
RMM:   7    -0.413175468986E+03   -0.10427E-04   -0.23871E-04  5781   0.132E-02    0.124E-02
RMM:   8    -0.413175468298E+03    0.68764E-06   -0.34746E-05  4521   0.530E-03    0.865E-03
RMM:   9    -0.413175464075E+03    0.42231E-05   -0.64518E-06  3080   0.296E-03    0.587E-03
RMM:  10    -0.413175461508E+03    0.25676E-05   -0.18747E-06  2543   0.211E-03    0.310E-03
RMM:  11    -0.413175459372E+03    0.21361E-05   -0.15498E-06  2532   0.189E-03    0.155E-03
RMM:  12    -0.413175457631E+03    0.17407E-05   -0.69623E-07  2431   0.138E-03    0.538E-04
RMM:  13    -0.413175457070E+03    0.56101E-06   -0.29362E-07  2037   0.928E-04
   24 T=    63. E= -.41286693E+03 F= -.41317546E+03 E0= -.41315361E+03  EK= 0.30853E+00 SP= 0.00E+00 SK= 0.00E+00
       N       E                     dE             d eps       ncg     rms          rms(c)
RMM:   1    -0.413166887208E+03    0.85704E-02   -0.11518E+01  4297   0.802E-01    0.910E-01
RMM:   2    -0.413177992198E+03   -0.11105E-01   -0.14148E-01  4286   0.107E-01    0.648E-01
RMM:   3    -0.413176763193E+03    0.12290E-02   -0.65040E-03  4800   0.422E-02    0.173E-01
RMM:   4    -0.413206128308E+03   -0.29365E-01   -0.29603E-02  5149   0.144E-01    0.712E-01
RMM:   5    -0.413176379569E+03    0.29749E-01   -0.14674E-02  4803   0.119E-01    0.345E-02
RMM:   6    -0.413176534904E+03   -0.15534E-03   -0.23002E-03  5815   0.458E-02    0.182E-02
RMM:   7    -0.413176543305E+03   -0.84014E-05   -0.24380E-04  5791   0.134E-02    0.127E-02
RMM:   8    -0.413176540980E+03    0.23259E-05   -0.35567E-05  4550   0.538E-03    0.894E-03
RMM:   9    -0.413176534970E+03    0.60097E-05   -0.67604E-06  3125   0.304E-03    0.601E-03
RMM:  10    -0.413176530456E+03    0.45142E-05   -0.19420E-06  2546   0.218E-03    0.316E-03
RMM:  11    -0.413176526351E+03    0.41044E-05   -0.15978E-06  2532   0.194E-03    0.157E-03
RMM:  12    -0.413176523372E+03    0.29793E-05   -0.69999E-07  2431   0.140E-03    0.533E-04
RMM:  13    -0.413176522375E+03    0.99666E-06   -0.29693E-07  2058   0.933E-04
   25 T=    63. E= -.41286681E+03 F= -.41317652E+03 E0= -.41315472E+03  EK= 0.30971E+00 SP= 0.00E+00 SK= 0.00E+00
       N       E                     dE             d eps       ncg     rms          rms(c)
RMM:   1    -0.413168323841E+03    0.81995E-02   -0.11548E+01  4294   0.810E-01    0.924E-01
RMM:   2    -0.413178440594E+03   -0.10117E-01   -0.14054E-01  4279   0.109E-01    0.640E-01
RMM:   3    -0.413177817589E+03    0.62301E-03   -0.67797E-03  4723   0.415E-02    0.173E-01
RMM:   4    -0.413201937075E+03   -0.24119E-01   -0.24202E-02  5151   0.130E-01    0.648E-01
RMM:   5    -0.413177503580E+03    0.24433E-01   -0.12149E-02  4808   0.108E-01    0.332E-02
RMM:   6    -0.413177626123E+03   -0.12254E-03   -0.19221E-03  5818   0.412E-02    0.182E-02
RMM:   7    -0.413177629165E+03   -0.30423E-05   -0.19219E-04  5623   0.120E-02    0.115E-02
RMM:   8    -0.413177623273E+03    0.58924E-05   -0.27025E-05  4199   0.477E-03    0.814E-03
RMM:   9    -0.413177615445E+03    0.78283E-05   -0.64042E-06  3101   0.297E-03    0.557E-03
RMM:  10    -0.413177608308E+03    0.71372E-05   -0.16450E-06  2528   0.210E-03    0.310E-03
RMM:  11    -0.413177599792E+03    0.85157E-05   -0.15524E-06  2533   0.193E-03    0.152E-03
RMM:  12    -0.413177594113E+03    0.56787E-05   -0.62961E-07  2417   0.137E-03    0.529E-04
RMM:  13    -0.413177592428E+03    0.16853E-05   -0.25827E-07  2005   0.903E-04    0.331E-04
RMM:  14    -0.413177589575E+03    0.28531E-05   -0.14580E-07  1528   0.739E-04    0.166E-04
RMM:  15    -0.413177584968E+03    0.46065E-05   -0.14342E-07  1649   0.734E-04    0.224E-04
RMM:  16    -0.413177584097E+03    0.87184E-06   -0.49216E-08   937   0.572E-04
   26 T=    63. E= -.41286655E+03 F= -.41317758E+03 E0= -.41315584E+03  EK= 0.31104E+00 SP= 0.00E+00 SK= 0.00E+00
       N       E                     dE             d eps       ncg     rms          rms(c)
RMM:   1    -0.413169641626E+03    0.79433E-02   -0.11523E+01  4293   0.814E-01    0.900E-01
RMM:   2    -0.413180722709E+03   -0.11081E-01   -0.14242E-01  4282   0.104E-01    0.644E-01
RMM:   3    -0.413179864195E+03    0.85851E-03   -0.64123E-03  4748   0.415E-02    0.172E-01
RMM:   4    -0.413205014292E+03   -0.25150E-01   -0.25265E-02  5154   0.133E-01    0.661E-01
RMM:   5    -0.413179515343E+03    0.25499E-01   -0.12659E-02  4802   0.110E-01    0.321E-02
RMM:   6    -0.413179646143E+03   -0.13080E-03   -0.19838E-03  5832   0.420E-02    0.174E-02
RMM:   7    -0.413179652897E+03   -0.67547E-05   -0.20146E-04  5703   0.123E-02    0.116E-02
RMM:   8    -0.413179650628E+03    0.22697E-05   -0.29989E-05  4375   0.501E-03    0.834E-03
RMM:   9    -0.413179644960E+03    0.56675E-05   -0.63565E-06  3104   0.300E-03    0.562E-03
RMM:  10    -0.413179640749E+03    0.42111E-05   -0.17313E-06  2538   0.212E-03    0.303E-03
RMM:  11    -0.413179636801E+03    0.39482E-05   -0.15016E-06  2524   0.189E-03    0.152E-03
RMM:  12    -0.413179633832E+03    0.29683E-05   -0.65144E-07  2424   0.136E-03    0.523E-04
RMM:  13    -0.413179632931E+03    0.90197E-06   -0.26506E-07  1993   0.901E-04
   27 T=    64. E= -.41286690E+03 F= -.41317963E+03 E0= -.41315793E+03  EK= 0.31273E+00 SP= 0.00E+00 SK= 0.00E+00
       N       E                     dE             d eps       ncg     rms          rms(c)
RMM:   1    -0.413172701689E+03    0.69321E-02   -0.11676E+01  4293   0.838E-01    0.909E-01
RMM:   2    -0.413181820585E+03   -0.91189E-02   -0.14625E-01  4277   0.108E-01    0.654E-01
RMM:   3    -0.413180757316E+03    0.10633E-02   -0.65088E-03  4649   0.422E-02    0.170E-01
RMM:   4    -0.413200687124E+03   -0.19930E-01   -0.20157E-02  5155   0.120E-01    0.592E-01
RMM:   5    -0.413180370375E+03    0.20317E-01   -0.10035E-02  4808   0.976E-02    0.288E-02
RMM:   6    -0.413180470666E+03   -0.10029E-03   -0.15878E-03  5851   0.371E-02    0.159E-02
RMM:   7    -0.413180476151E+03   -0.54854E-05   -0.14964E-04  5461   0.106E-02    0.988E-03
RMM:   8    -0.413180472051E+03    0.41006E-05   -0.18016E-05  3631   0.398E-03    0.651E-03
RMM:   9    -0.413180466914E+03    0.51369E-05   -0.35238E-06  2659   0.244E-03    0.363E-03
RMM:  10    -0.413180465393E+03    0.15209E-05   -0.13853E-06  2523   0.177E-03    0.260E-03
RMM:  11    -0.413180460862E+03    0.45312E-05   -0.10687E-06  2504   0.171E-03    0.124E-03
RMM:  12    -0.413180458420E+03    0.24421E-05   -0.49061E-07  2332   0.118E-03    0.473E-04
RMM:  13    -0.413180457476E+03    0.94383E-06   -0.21442E-07  1693   0.821E-04
   28 T=    64. E= -.41286630E+03 F= -.41318046E+03 E0= -.41315881E+03  EK= 0.31416E+00 SP= 0.00E+00 SK= 0.00E+00
       N       E                     dE             d eps       ncg     rms          rms(c)
RMM:   1    -0.413173333737E+03    0.71247E-02   -0.11731E+01  4292   0.840E-01    0.933E-01
RMM:   2    -0.413183490157E+03   -0.10156E-01   -0.14368E-01  4276   0.110E-01    0.646E-01
RMM:   3    -0.413182732699E+03    0.75746E-03   -0.68350E-03  4421   0.398E-02    0.170E-01
RMM:   4    -0.413188731949E+03   -0.59992E-02   -0.63422E-03  5171   0.674E-02    0.324E-01
RMM:   5    -0.413182778438E+03    0.59535E-02   -0.29301E-03  4829   0.528E-02    0.227E-02
RMM:   6    -0.413182789347E+03   -0.10909E-04   -0.48872E-04  5843   0.207E-02    0.155E-02
RMM:   7    -0.413182783169E+03    0.61782E-05   -0.70473E-05  5238   0.815E-03    0.869E-03
RMM:   8    -0.413182773486E+03    0.96832E-05   -0.81163E-06  3115   0.348E-03    0.398E-03
RMM:   9    -0.413182767423E+03    0.60630E-05   -0.16239E-06  2563   0.199E-03    0.263E-03
RMM:  10    -0.413182760330E+03    0.70928E-05   -0.74968E-07  2472   0.142E-03    0.146E-03
RMM:  11    -0.413182753717E+03    0.66131E-05   -0.50343E-07  2299   0.114E-03    0.559E-04
RMM:  12    -0.413182749158E+03    0.45591E-05   -0.25836E-07  1838   0.874E-04    0.235E-04
RMM:  13    -0.413182746344E+03    0.28132E-05   -0.13512E-07  1327   0.702E-04    0.139E-04
RMM:  14    -0.413182742344E+03    0.40002E-05   -0.10975E-07  1360   0.685E-04    0.939E-05
RMM:  15    -0.413182738355E+03    0.39889E-05   -0.91616E-08  1329   0.655E-04    0.995E-05
RMM:  16    -0.413182736204E+03    0.21517E-05   -0.56511E-08  1073   0.585E-04    0.540E-05
RMM:  17    -0.413182733173E+03    0.30307E-05   -0.59245E-08  1141   0.596E-04    0.297E-05
RMM:  18    -0.413182732811E+03    0.36238E-06   -0.22196E-08   749   0.515E-04
   29 T=    64. E= -.41286676E+03 F= -.41318273E+03 E0= -.41316114E+03  EK= 0.31597E+00 SP= 0.00E+00 SK= 0.00E+00
       N       E                     dE             d eps       ncg     rms          rms(c)
RMM:   1    -0.413174644020E+03    0.80892E-02   -0.11689E+01  4289   0.845E-01    0.910E-01
RMM:   2    -0.413185617698E+03   -0.10974E-01   -0.14612E-01  4273   0.108E-01    0.646E-01
RMM:   3    -0.413184564033E+03    0.10537E-02   -0.65276E-03  4417   0.443E-02    0.170E-01
RMM:   4    -0.413191681208E+03   -0.71172E-02   -0.76055E-03  5138   0.765E-02    0.357E-01
RMM:   5    -0.413184450025E+03    0.72312E-02   -0.35587E-03  4822   0.581E-02    0.214E-02
RMM:   6    -0.413184464469E+03   -0.14443E-04   -0.53989E-04  5832   0.222E-02    0.146E-02
RMM:   7    -0.413184461373E+03    0.30952E-05   -0.72163E-05  5265   0.832E-03    0.873E-03
RMM:   8    -0.413184453901E+03    0.74722E-05   -0.90344E-06  3224   0.366E-03    0.411E-03
RMM:   9    -0.413184449682E+03    0.42194E-05   -0.19976E-06  2599   0.213E-03    0.262E-03
RMM:  10    -0.413184445248E+03    0.44341E-05   -0.74290E-07  2462   0.141E-03    0.151E-03
RMM:  11    -0.413184440728E+03    0.45199E-05   -0.51105E-07  2327   0.115E-03    0.608E-04
RMM:  12    -0.413184437453E+03    0.32745E-05   -0.27424E-07  1868   0.884E-04    0.224E-04
RMM:  13    -0.413184435627E+03    0.18261E-05   -0.13834E-07  1285   0.702E-04    0.137E-04
RMM:  14    -0.413184432939E+03    0.26880E-05   -0.10773E-07  1267   0.678E-04    0.841E-05
RMM:  15    -0.413184430347E+03    0.25926E-05   -0.87029E-08  1268   0.649E-04    0.811E-05
RMM:  16    -0.413184429000E+03    0.13468E-05   -0.49520E-08   961   0.582E-04    0.480E-05
RMM:  17    -0.413184426401E+03    0.25988E-05   -0.58523E-08  1139   0.605E-04    0.266E-05
RMM:  18    -0.413184425965E+03    0.43580E-06   -0.22018E-08   743   0.527E-04
   30 T=    65. E= -.41286684E+03 F= -.41318443E+03 E0= -.41316288E+03  EK= 0.31759E+00 SP= 0.00E+00 SK= 0.00E+00
       N       E                     dE             d eps       ncg     rms          rms(c)
RMM:   1    -0.413183125009E+03    0.13014E-02   -0.11885E+01  4291   0.911E-01    0.911E-01
RMM:   2    -0.413188217426E+03   -0.50924E-02   -0.15032E-01  4273   0.121E-01    0.660E-01
RMM:   3    -0.413186214448E+03    0.20030E-02   -0.63953E-03  4254   0.415E-02    0.164E-01
RMM:   4    -0.413187815581E+03   -0.16011E-02   -0.24100E-03  5085   0.414E-02    0.168E-01
RMM:   5    -0.413186225216E+03    0.15904E-02   -0.76796E-04  4797   0.278E-02    0.174E-02
RMM:   6    -0.413186221086E+03    0.41301E-05   -0.14788E-04  5592   0.125E-02    0.130E-02
RMM:   7    -0.413186216790E+03    0.42963E-05   -0.30320E-05  4509   0.608E-03    0.491E-03
RMM:   8    -0.413186212760E+03    0.40299E-05   -0.46181E-06  2876   0.291E-03    0.264E-03
RMM:   9    -0.413186211570E+03    0.11899E-05   -0.71602E-07  2481   0.156E-03    0.163E-03
RMM:  10    -0.413186208701E+03    0.28692E-05   -0.52670E-07  2291   0.112E-03    0.856E-04
RMM:  11    -0.413186206518E+03    0.21822E-05   -0.29009E-07  1705   0.846E-04    0.345E-04
RMM:  12    -0.413186204517E+03    0.20015E-05   -0.19174E-07  1555   0.759E-04    0.187E-04
RMM:  13    -0.413186202557E+03    0.19597E-05   -0.12439E-07  1258   0.672E-04    0.986E-05
RMM:  14    -0.413186200925E+03    0.16319E-05   -0.84949E-08  1125   0.620E-04    0.658E-05
RMM:  15    -0.413186199188E+03    0.17377E-05   -0.61575E-08  1024   0.589E-04    0.342E-05
RMM:  16    -0.413186197733E+03    0.14545E-05   -0.43680E-08   911   0.569E-04    0.332E-05
RMM:  17    -0.413186197183E+03    0.54994E-06   -0.21257E-08   703   0.532E-04
   31 T=    65. E= -.41286694E+03 F= -.41318620E+03 E0= -.41316470E+03  EK= 0.31926E+00 SP= 0.00E+00 SK= 0.00E+00
       N       E                     dE             d eps       ncg     rms          rms(c)
RMM:   1    -0.413186069730E+03    0.12800E-03   -0.11989E+01  4286   0.923E-01    0.938E-01
RMM:   2    -0.413189853294E+03   -0.37836E-02   -0.15217E-01  4273   0.121E-01    0.654E-01
RMM:   3    -0.413188821837E+03    0.10315E-02   -0.69020E-03  4193   0.473E-02    0.176E-01
RMM:   4    -0.413189045958E+03   -0.22412E-03   -0.11311E-03  4802   0.290E-02    0.511E-02
RMM:   5    -0.413188920769E+03    0.12519E-03   -0.87213E-05  4692   0.103E-02    0.225E-02
RMM:   6    -0.413188904646E+03    0.16123E-04   -0.59875E-05  5153   0.833E-03    0.147E-02
RMM:   7    -0.413188888542E+03    0.16105E-04   -0.21571E-05  3738   0.553E-03    0.384E-03
RMM:   8    -0.413188882068E+03    0.64732E-05   -0.24447E-06  2542   0.249E-03    0.241E-03
RMM:   9    -0.413188879137E+03    0.29311E-05   -0.50583E-07  2244   0.135E-03    0.139E-03
RMM:  10    -0.413188872321E+03    0.68159E-05   -0.33454E-07  1777   0.933E-04    0.531E-04
RMM:  11    -0.413188866177E+03    0.61446E-05   -0.18288E-07  1540   0.749E-04    0.219E-04
RMM:  12    -0.413188863123E+03    0.30535E-05   -0.67966E-08  1096   0.600E-04    0.140E-04
RMM:  13    -0.413188856219E+03    0.69040E-05   -0.94396E-08  1257   0.653E-04    0.903E-05
RMM:  14    -0.413188852640E+03    0.35793E-05   -0.44747E-08   960   0.560E-04    0.684E-05
RMM:  15    -0.413188850434E+03    0.22059E-05   -0.28277E-08   819   0.513E-04    0.563E-05
RMM:  16    -0.413188848287E+03    0.21475E-05   -0.25902E-08   763   0.498E-04    0.304E-05
RMM:  17    -0.413188848057E+03    0.22941E-06   -0.59114E-09   500   0.446E-04
   32 T=    65. E= -.41286741E+03 F= -.41318885E+03 E0= -.41316740E+03  EK= 0.32144E+00 SP= 0.00E+00 SK= 0.00E+00
       N       E                     dE             d eps       ncg     rms          rms(c)
RMM:   1    -0.413185231646E+03    0.36166E-02   -0.11935E+01  4287   0.937E-01    0.923E-01
RMM:   2    -0.413192169172E+03   -0.69375E-02   -0.15371E-01  4282   0.131E-01    0.651E-01
RMM:   3    -0.413190801627E+03    0.13675E-02   -0.64175E-03  4190   0.393E-02    0.177E-01
RMM:   4    -0.413190993573E+03   -0.19195E-03   -0.12156E-03  4939   0.284E-02    0.656E-02
RMM:   5    -0.413190774466E+03    0.21911E-03   -0.12805E-04  4689   0.120E-02    0.201E-02
RMM:   6    -0.413190761263E+03    0.13202E-04   -0.64564E-05  5207   0.865E-03    0.140E-02
RMM:   7    -0.413190747693E+03    0.13570E-04   -0.20010E-05  3771   0.529E-03    0.411E-03
RMM:   8    -0.413190741466E+03    0.62265E-05   -0.27217E-06  2575   0.255E-03    0.239E-03
RMM:   9    -0.413190738857E+03    0.26096E-05   -0.51792E-07  2217   0.138E-03    0.140E-03
RMM:  10    -0.413190732759E+03    0.60981E-05   -0.35081E-07  1794   0.962E-04    0.592E-04
RMM:  11    -0.413190727245E+03    0.55132E-05   -0.20853E-07  1530   0.774E-04    0.233E-04
RMM:  12    -0.413190723763E+03    0.34823E-05   -0.96897E-08  1204   0.649E-04    0.159E-04
RMM:  13    -0.413190717969E+03    0.57943E-05   -0.92352E-08  1133   0.644E-04    0.805E-05
RMM:  14    -0.413190714977E+03    0.29924E-05   -0.43567E-08   849   0.559E-04    0.715E-05
RMM:  15    -0.413190712132E+03    0.28449E-05   -0.34537E-08   826   0.542E-04    0.640E-05
RMM:  16    -0.413190709722E+03    0.24096E-05   -0.27081E-08   775   0.534E-04    0.359E-05
RMM:  17    -0.413190709331E+03    0.39142E-06   -0.90705E-09   488   0.475E-04
   33 T=    66. E= -.41286714E+03 F= -.41319071E+03 E0= -.41316931E+03  EK= 0.32357E+00 SP= 0.00E+00 SK= 0.00E+00
       N       E                     dE             d eps       ncg     rms          rms(c)
RMM:   1    -0.413185754523E+03    0.49552E-02   -0.12050E+01  4293   0.924E-01    0.916E-01
RMM:   2    -0.413194820362E+03   -0.90658E-02   -0.15676E-01  4269   0.126E-01    0.665E-01
RMM:   3    -0.413193368582E+03    0.14518E-02   -0.63826E-03  4491   0.442E-02    0.177E-01
RMM:   4    -0.413202608257E+03   -0.92397E-02   -0.95727E-03  5150   0.856E-02    0.405E-01
RMM:   5    -0.413193343302E+03    0.92650E-02   -0.45282E-03  4804   0.663E-02    0.235E-02
RMM:   6    -0.413193331250E+03    0.12052E-04   -0.70840E-04  5803   0.265E-02    0.145E-02
RMM:   7    -0.413193333266E+03   -0.20160E-05   -0.91659E-05  5375   0.913E-03    0.928E-03
RMM:   8    -0.413193327820E+03    0.54459E-05   -0.12710E-05  3647   0.402E-03    0.472E-03
RMM:   9    -0.413193324936E+03    0.28838E-05   -0.25600E-06  2649   0.237E-03    0.276E-03
RMM:  10    -0.413193321728E+03    0.32075E-05   -0.85094E-07  2492   0.149E-03    0.155E-03
RMM:  11    -0.413193318291E+03    0.34374E-05   -0.58719E-07  2398   0.121E-03    0.735E-04
RMM:  12    -0.413193315214E+03    0.30769E-05   -0.35478E-07  2027   0.956E-04    0.273E-04
RMM:  13    -0.413193313956E+03    0.12580E-05   -0.15387E-07  1293   0.718E-04    0.166E-04
RMM:  14    -0.413193312140E+03    0.18163E-05   -0.10926E-07  1149   0.671E-04    0.961E-05
RMM:  15    -0.413193310095E+03    0.20444E-05   -0.87260E-08  1156   0.651E-04    0.593E-05
RMM:  16    -0.413193309525E+03    0.57056E-06   -0.47106E-08   893   0.594E-04
   34 T=    66. E= -.41286723E+03 F= -.41319331E+03 E0= -.41317196E+03  EK= 0.32607E+00 SP= 0.00E+00 SK= 0.00E+00
       N       E                     dE             d eps       ncg     rms          rms(c)
RMM:   1    -0.413187290735E+03    0.60194E-02   -0.12165E+01  4300   0.946E-01    0.942E-01
RMM:   2    -0.413197266306E+03   -0.99756E-02   -0.15824E-01  4263   0.135E-01    0.664E-01
RMM:   3    -0.413196142913E+03    0.11234E-02   -0.66601E-03  4465   0.441E-02    0.182E-01
RMM:   4    -0.413202380688E+03   -0.62378E-02   -0.68862E-03  5149   0.718E-02    0.338E-01
RMM:   5    -0.413195976484E+03    0.64042E-02   -0.32181E-03  4805   0.556E-02    0.234E-02
RMM:   6    -0.413195962503E+03    0.13981E-04   -0.52529E-04  5754   0.226E-02    0.153E-02
RMM:   7    -0.413195958079E+03    0.44234E-05   -0.74354E-05  5183   0.826E-03    0.819E-03
RMM:   8    -0.413195949561E+03    0.85180E-05   -0.10462E-05  3427   0.377E-03    0.397E-03
RMM:   9    -0.413195944247E+03    0.53146E-05   -0.18069E-06  2566   0.210E-03    0.227E-03
RMM:  10    -0.413195937914E+03    0.63325E-05   -0.71308E-07  2455   0.135E-03    0.129E-03
RMM:  11    -0.413195931131E+03    0.67828E-05   -0.46749E-07  2283   0.110E-03    0.540E-04
RMM:  12    -0.413195925823E+03    0.53082E-05   -0.26299E-07  1848   0.873E-04    0.208E-04
RMM:  13    -0.413195923149E+03    0.26739E-05   -0.13521E-07  1264   0.701E-04    0.139E-04
RMM:  14    -0.413195919461E+03    0.36877E-05   -0.98556E-08  1171   0.666E-04    0.809E-05
RMM:  15    -0.413195914333E+03    0.51281E-05   -0.96892E-08  1369   0.677E-04    0.816E-05
RMM:  16    -0.413195913290E+03    0.10428E-05   -0.45720E-08   918   0.579E-04    0.599E-05
RMM:  17    -0.413195909330E+03    0.39609E-05   -0.58680E-08  1237   0.618E-04    0.335E-05
RMM:  18    -0.413195908841E+03    0.48853E-06   -0.22468E-08   734   0.522E-04
   35 T=    67. E= -.41286722E+03 F= -.41319591E+03 E0= -.41317460E+03  EK= 0.32869E+00 SP= 0.00E+00 SK= 0.00E+00
       N       E                     dE             d eps       ncg     rms          rms(c)
RMM:   1    -0.413189424345E+03    0.64850E-02   -0.12196E+01  4299   0.964E-01    0.941E-01
RMM:   2    -0.413199255983E+03   -0.98316E-02   -0.15652E-01  4265   0.120E-01    0.657E-01
RMM:   3    -0.413198448196E+03    0.80779E-03   -0.69247E-03  4819   0.452E-02    0.195E-01
RMM:   4    -0.413230155042E+03   -0.31707E-01   -0.31892E-02  5153   0.149E-01    0.742E-01
RMM:   5    -0.413198089902E+03    0.32065E-01   -0.16113E-02  4798   0.124E-01    0.379E-02
RMM:   6    -0.413198145755E+03   -0.55853E-04   -0.25364E-03  5857   0.472E-02    0.193E-02
RMM:   7    -0.413198157460E+03   -0.11705E-04   -0.26025E-04  5763   0.137E-02    0.132E-02
RMM:   8    -0.413198150406E+03    0.70542E-05   -0.34241E-05  4511   0.539E-03    0.890E-03
RMM:   9    -0.413198144689E+03    0.57170E-05   -0.95424E-06  3504   0.355E-03    0.588E-03
RMM:  10    -0.413198135283E+03    0.94061E-05   -0.22450E-06  2550   0.248E-03    0.282E-03
RMM:  11    -0.413198128081E+03    0.72016E-05   -0.15309E-06  2519   0.193E-03    0.156E-03
RMM:  12    -0.413198120488E+03    0.75935E-05   -0.72936E-07  2450   0.151E-03    0.579E-04
RMM:  13    -0.413198117985E+03    0.25032E-05   -0.30175E-07  2157   0.985E-04    0.409E-04
RMM:  14    -0.413198116078E+03    0.19063E-05   -0.13569E-07  1470   0.726E-04    0.242E-04
RMM:  15    -0.413198109540E+03    0.65378E-05   -0.14140E-07  1812   0.759E-04    0.292E-04
RMM:  16    -0.413198108798E+03    0.74229E-06   -0.44917E-08   926   0.566E-04
   36 T=    67. E= -.41286701E+03 F= -.41319811E+03 E0= -.41317685E+03  EK= 0.33110E+00 SP= 0.00E+00 SK= 0.00E+00
       N       E                     dE             d eps       ncg     rms          rms(c)
RMM:   1    -0.413191167883E+03    0.69417E-02   -0.12266E+01  4302   0.989E-01    0.924E-01
RMM:   2    -0.413202774314E+03   -0.11606E-01   -0.16334E-01  4262   0.134E-01    0.670E-01
RMM:   3    -0.413201523793E+03    0.12505E-02   -0.67208E-03  4829   0.515E-02    0.203E-01
RMM:   4    -0.413243523810E+03   -0.42000E-01   -0.42803E-02  5154   0.173E-01    0.851E-01
RMM:   5    -0.413200836478E+03    0.42687E-01   -0.21326E-02  4792   0.143E-01    0.417E-02
RMM:   6    -0.413200948563E+03   -0.11208E-03   -0.33903E-03  5861   0.542E-02    0.197E-02
RMM:   7    -0.413200966379E+03   -0.17816E-04   -0.33398E-04  5724   0.152E-02    0.134E-02
RMM:   8    -0.413200962311E+03    0.40673E-05   -0.36603E-05  4017   0.509E-03    0.861E-03
RMM:   9    -0.413200955602E+03    0.67093E-05   -0.75694E-06  2993   0.329E-03    0.399E-03
RMM:  10    -0.413200952089E+03    0.35133E-05   -0.25625E-06  2601   0.228E-03    0.268E-03
RMM:  11    -0.413200947174E+03    0.49147E-05   -0.13388E-06  2497   0.193E-03    0.139E-03
RMM:  12    -0.413200943295E+03    0.38786E-05   -0.61613E-07  2426   0.135E-03    0.506E-04
RMM:  13    -0.413200941949E+03    0.13466E-05   -0.28205E-07  1990   0.923E-04    0.335E-04
RMM:  14    -0.413200939640E+03    0.23093E-05   -0.16137E-07  1536   0.759E-04    0.197E-04
RMM:  15    -0.413200935952E+03    0.36876E-05   -0.12901E-07  1490   0.718E-04    0.154E-04
RMM:  16    -0.413200934786E+03    0.11660E-05   -0.60134E-08  1025   0.611E-04    0.842E-05
RMM:  17    -0.413200931887E+03    0.28992E-05   -0.63510E-08  1170   0.629E-04    0.540E-05
RMM:  18    -0.413200930239E+03    0.16478E-05   -0.41053E-08  1008   0.590E-04    0.265E-05
RMM:  19    -0.413200929586E+03    0.65257E-06   -0.21333E-08   804   0.556E-04
   37 T=    68. E= -.41286709E+03 F= -.41320093E+03 E0= -.41317971E+03  EK= 0.33384E+00 SP= 0.00E+00 SK= 0.00E+00
       N       E                     dE             d eps       ncg     rms          rms(c)
RMM:   1    -0.413200183229E+03    0.74701E-03   -0.12489E+01  4307   0.106E+00    0.946E-01
RMM:   2    -0.413205623476E+03   -0.54402E-02   -0.16192E-01  4262   0.129E-01    0.673E-01
RMM:   3    -0.413204192940E+03    0.14305E-02   -0.69928E-03  4763   0.511E-02    0.199E-01
RMM:   4    -0.413240008112E+03   -0.35815E-01   -0.36089E-02  5153   0.159E-01    0.787E-01
RMM:   5    -0.413203705142E+03    0.36303E-01   -0.18278E-02  4799   0.132E-01    0.391E-02
RMM:   6    -0.413203784537E+03   -0.79394E-04   -0.28790E-03  5840   0.499E-02    0.195E-02
RMM:   7    -0.413203799400E+03   -0.14863E-04   -0.29117E-04  5746   0.144E-02    0.134E-02
RMM:   8    -0.413203793587E+03    0.58131E-05   -0.37279E-05  4513   0.546E-03    0.908E-03
RMM:   9    -0.413203789615E+03    0.39717E-05   -0.10867E-05  3668   0.360E-03    0.619E-03
RMM:  10    -0.413203781890E+03    0.77248E-05   -0.25133E-06  2571   0.253E-03    0.296E-03
RMM:  11    -0.413203776103E+03    0.57878E-05   -0.16316E-06  2514   0.200E-03    0.167E-03
RMM:  12    -0.413203770343E+03    0.57593E-05   -0.76670E-07  2460   0.154E-03    0.621E-04
RMM:  13    -0.413203768398E+03    0.19450E-05   -0.31862E-07  2201   0.101E-03    0.439E-04
RMM:  14    -0.413203766833E+03    0.15657E-05   -0.14189E-07  1523   0.739E-04    0.250E-04
RMM:  15    -0.413203760854E+03    0.59784E-05   -0.16834E-07  1950   0.790E-04    0.374E-04
RMM:  16    -0.413203760395E+03    0.45922E-06   -0.46582E-08   952   0.568E-04
   38 T=    68. E= -.41286743E+03 F= -.41320376E+03 E0= -.41318258E+03  EK= 0.33633E+00 SP= 0.00E+00 SK= 0.00E+00
       N       E                     dE             d eps       ncg     rms          rms(c)
RMM:   1    -0.413200723855E+03    0.30370E-02   -0.12520E+01  4305   0.108E+00    0.958E-01
RMM:   2    -0.413207051626E+03   -0.63278E-02   -0.16593E-01  4267   0.127E-01    0.667E-01
RMM:   3    -0.413206567552E+03    0.48407E-03   -0.75093E-03  4975   0.539E-02    0.229E-01
RMM:   4    -0.413257415946E+03   -0.50848E-01   -0.54141E-02  5134   0.193E-01    0.936E-01
RMM:   5    -0.413205450582E+03    0.51965E-01   -0.25758E-02  4787   0.158E-01    0.481E-02
RMM:   6    -0.413205595395E+03   -0.14481E-03   -0.40158E-03  5841   0.595E-02    0.223E-02
RMM:   7    -0.413205613970E+03   -0.18575E-04   -0.41220E-04  5815   0.170E-02    0.152E-02
RMM:   8    -0.413205611340E+03    0.26306E-05   -0.57709E-05  4824   0.639E-03    0.111E-02
RMM:   9    -0.413205601226E+03    0.10114E-04   -0.13028E-05  3823   0.390E-03    0.681E-03
RMM:  10    -0.413205590902E+03    0.10324E-04   -0.37082E-06  2664   0.290E-03    0.319E-03
RMM:  11    -0.413205583553E+03    0.73489E-05   -0.16275E-06  2502   0.208E-03    0.183E-03
RMM:  12    -0.413205575135E+03    0.84177E-05   -0.86144E-07  2468   0.163E-03    0.652E-04
RMM:  13    -0.413205571074E+03    0.40617E-05   -0.36468E-07  2286   0.109E-03    0.425E-04
RMM:  14    -0.413205567966E+03    0.31075E-05   -0.17726E-07  1742   0.795E-04    0.276E-04
RMM:  15    -0.413205559809E+03    0.81569E-05   -0.15379E-07  1783   0.770E-04    0.260E-04
RMM:  16    -0.413205559066E+03    0.74304E-06   -0.57556E-08  1009   0.583E-04
   39 T=    69. E= -.41286693E+03 F= -.41320556E+03 E0= -.41318442E+03  EK= 0.33862E+00 SP= 0.00E+00 SK= 0.00E+00
       N       E                     dE             d eps       ncg     rms          rms(c)
RMM:   1    -0.413205512500E+03    0.47309E-04   -0.12566E+01  4310   0.113E+00    0.935E-01
RMM:   2    -0.413210749569E+03   -0.52371E-02   -0.16767E-01  4266   0.132E-01    0.673E-01
RMM:   3    -0.413210084228E+03    0.66534E-03   -0.73068E-03  5001   0.546E-02    0.238E-01
RMM:   4    -0.413264356201E+03   -0.54272E-01   -0.59284E-02  5128   0.202E-01    0.967E-01
RMM:   5    -0.413208692428E+03    0.55664E-01   -0.27212E-02  4777   0.163E-01    0.504E-02
RMM:   6    -0.413208872655E+03   -0.18023E-03   -0.44630E-03  5818   0.617E-02    0.217E-02
RMM:   7    -0.413208896200E+03   -0.23545E-04   -0.45129E-04  5893   0.177E-02    0.156E-02
RMM:   8    -0.413208896264E+03   -0.63879E-07   -0.64936E-05  4980   0.677E-03    0.116E-02
RMM:   9    -0.413208887768E+03    0.84963E-05   -0.12659E-05  3753   0.390E-03    0.679E-03
RMM:  10    -0.413208880719E+03    0.70481E-05   -0.39080E-06  2670   0.290E-03    0.316E-03
RMM:  11    -0.413208875916E+03    0.48039E-05   -0.17108E-06  2512   0.210E-03    0.181E-03
RMM:  12    -0.413208870640E+03    0.52758E-05   -0.87559E-07  2464   0.161E-03    0.670E-04
RMM:  13    -0.413208868102E+03    0.25382E-05   -0.37433E-07  2257   0.109E-03    0.428E-04
RMM:  14    -0.413208865743E+03    0.23590E-05   -0.19110E-07  1775   0.804E-04    0.265E-04
RMM:  15    -0.413208860499E+03    0.52433E-05   -0.15142E-07  1632   0.749E-04    0.219E-04
RMM:  16    -0.413208859908E+03    0.59154E-06   -0.61391E-08  1027   0.596E-04
   40 T=    69. E= -.41286755E+03 F= -.41320886E+03 E0= -.41318775E+03  EK= 0.34131E+00 SP= 0.00E+00 SK= 0.00E+00
       N       E                     dE             d eps       ncg     rms          rms(c)
RMM:   1    -0.413205630744E+03    0.32298E-02   -0.12712E+01  4304   0.118E+00    0.948E-01
RMM:   2    -0.413212037247E+03   -0.64065E-02   -0.17369E-01  4269   0.139E-01    0.683E-01
RMM:   3    -0.413211878137E+03    0.15911E-03   -0.77114E-03  5043   0.569E-02    0.258E-01
RMM:   4    -0.413267372723E+03   -0.55495E-01   -0.62697E-02  5123   0.208E-01    0.981E-01
RMM:   5    -0.413210088359E+03    0.57284E-01   -0.27671E-02  4769   0.165E-01    0.527E-02
RMM:   6    -0.413210272919E+03   -0.18456E-03   -0.45419E-03  5809   0.624E-02    0.215E-02
RMM:   7    -0.413210298083E+03   -0.25163E-04   -0.47178E-04  5926   0.182E-02    0.161E-02
RMM:   8    -0.413210298233E+03   -0.15068E-06   -0.69451E-05  5084   0.708E-03    0.117E-02
RMM:   9    -0.413210289280E+03    0.89530E-05   -0.11822E-05  3648   0.393E-03    0.635E-03
RMM:  10    -0.413210282274E+03    0.70067E-05   -0.40860E-06  2684   0.294E-03    0.296E-03
RMM:  11    -0.413210277428E+03    0.48455E-05   -0.16409E-06  2519   0.205E-03    0.159E-03
RMM:  12    -0.413210272342E+03    0.50860E-05   -0.79412E-07  2459   0.154E-03    0.635E-04
RMM:  13    -0.413210269721E+03    0.26213E-05   -0.35015E-07  2216   0.105E-03    0.397E-04
RMM:  14    -0.413210266573E+03    0.31476E-05   -0.19193E-07  1690   0.801E-04    0.249E-04
RMM:  15    -0.413210262336E+03    0.42372E-05   -0.13335E-07  1436   0.713E-04    0.153E-04
RMM:  16    -0.413210261072E+03    0.12641E-05   -0.67857E-08  1051   0.617E-04    0.746E-05
RMM:  17    -0.413210258855E+03    0.22173E-05   -0.56174E-08  1059   0.615E-04    0.469E-05
RMM:  18    -0.413210255165E+03    0.36897E-05   -0.66738E-08  1267   0.638E-04    0.468E-05
RMM:  19    -0.413210254713E+03    0.45199E-06   -0.24341E-08   811   0.556E-04
   41 T=    70. E= -.41286700E+03 F= -.41321025E+03 E0= -.41318918E+03  EK= 0.34325E+00 SP= 0.00E+00 SK= 0.00E+00
       N       E                     dE             d eps       ncg     rms          rms(c)
RMM:   1    -0.413215023426E+03   -0.47683E-02   -0.12847E+01  4309   0.127E+00    0.972E-01
RMM:   2    -0.413213827469E+03    0.11960E-02   -0.17731E-01  4286   0.146E-01    0.676E-01
RMM:   3    -0.413216729407E+03   -0.29019E-02   -0.10191E-02  5125   0.733E-02    0.336E-01
RMM:   4    -0.413249857654E+03   -0.33128E-01   -0.49468E-02  5088   0.187E-01    0.804E-01
RMM:   5    -0.413212775750E+03    0.37082E-01   -0.16608E-02  4726   0.134E-01    0.500E-02
RMM:   6    -0.413212816367E+03   -0.40617E-04   -0.27157E-03  5748   0.495E-02    0.196E-02
RMM:   7    -0.413212828309E+03   -0.11943E-04   -0.32074E-04  5886   0.155E-02    0.149E-02
RMM:   8    -0.413212825401E+03    0.29081E-05   -0.52378E-05  4943   0.641E-03    0.954E-03
RMM:   9    -0.413212813039E+03    0.12362E-04   -0.92335E-06  3334   0.396E-03    0.430E-03
RMM:  10    -0.413212804663E+03    0.83760E-05   -0.27234E-06  2580   0.242E-03    0.221E-03
RMM:  11    -0.413212797439E+03    0.72245E-05   -0.10137E-06  2500   0.161E-03    0.101E-03
RMM:  12    -0.413212791843E+03    0.55953E-05   -0.42004E-07  2303   0.112E-03    0.498E-04
RMM:  13    -0.413212786673E+03    0.51707E-05   -0.24590E-07  1639   0.846E-04    0.242E-04
RMM:  14    -0.413212782965E+03    0.37076E-05   -0.15423E-07  1353   0.731E-04    0.149E-04
RMM:  15    -0.413212777208E+03    0.57573E-05   -0.12827E-07  1397   0.715E-04    0.827E-05
RMM:  16    -0.413212773311E+03    0.38969E-05   -0.95238E-08  1353   0.660E-04    0.553E-05
RMM:  17    -0.413212769535E+03    0.37755E-05   -0.73020E-08  1260   0.621E-04    0.445E-05
RMM:  18    -0.413212767693E+03    0.18424E-05   -0.46182E-08   995   0.560E-04    0.293E-05
RMM:  19    -0.413212767207E+03    0.48628E-06   -0.27260E-08   804   0.526E-04
   42 T=    70. E= -.41286744E+03 F= -.41321277E+03 E0= -.41319173E+03  EK= 0.34532E+00 SP= 0.00E+00 SK= 0.00E+00
       N       E                     dE             d eps       ncg     rms          rms(c)
RMM:   1    -0.413222555026E+03   -0.97873E-02   -0.12876E+01  4310   0.136E+00    0.947E-01
RMM:   2    -0.413215808344E+03    0.67467E-02   -0.17438E-01  4292   0.154E-01    0.676E-01
RMM:   3    -0.413219808005E+03   -0.39997E-02   -0.10996E-02  5110   0.818E-02    0.366E-01
RMM:   4    -0.413247926220E+03   -0.28118E-01   -0.47651E-02  5060   0.184E-01    0.762E-01
RMM:   5    -0.413214735291E+03    0.33191E-01   -0.14389E-02  4701   0.127E-01    0.487E-02
RMM:   6    -0.413214758868E+03   -0.23577E-04   -0.24366E-03  5730   0.467E-02    0.186E-02
RMM:   7    -0.413214768596E+03   -0.97285E-05   -0.28610E-04  5866   0.148E-02    0.144E-02
RMM:   8    -0.413214766039E+03    0.25569E-05   -0.46974E-05  4883   0.619E-03    0.893E-03
RMM:   9    -0.413214756049E+03    0.99899E-05   -0.89880E-06  3322   0.401E-03    0.410E-03
RMM:  10    -0.413214750023E+03    0.60261E-05   -0.24967E-06  2568   0.237E-03    0.222E-03
RMM:  11    -0.413214744883E+03    0.51406E-05   -0.10407E-06  2508   0.159E-03    0.103E-03
RMM:  12    -0.413214741044E+03    0.38384E-05   -0.43368E-07  2300   0.111E-03    0.506E-04
RMM:  13    -0.413214736992E+03    0.40520E-05   -0.28003E-07  1673   0.863E-04    0.253E-04
RMM:  14    -0.413214734542E+03    0.24504E-05   -0.16872E-07  1327   0.734E-04    0.147E-04
RMM:  15    -0.413214730588E+03    0.39536E-05   -0.13747E-07  1311   0.709E-04    0.754E-05
RMM:  16    -0.413214727457E+03    0.31311E-05   -0.10343E-07  1262   0.668E-04    0.510E-05
RMM:  17    -0.413214724552E+03    0.29048E-05   -0.80611E-08  1235   0.631E-04    0.435E-05
RMM:  18    -0.413214722546E+03    0.20065E-05   -0.55418E-08  1061   0.581E-04    0.338E-05
RMM:  19    -0.413214721864E+03    0.68218E-06   -0.32846E-08   832   0.532E-04
   43 T=    71. E= -.41286754E+03 F= -.41321472E+03 E0= -.41319371E+03  EK= 0.34718E+00 SP= 0.00E+00 SK= 0.00E+00
       N       E                     dE             d eps       ncg     rms          rms(c)
RMM:   1    -0.413241859132E+03   -0.27137E-01   -0.13190E+01  4311   0.151E+00    0.949E-01
RMM:   2    -0.413217012266E+03    0.24847E-01   -0.19990E-01  4293   0.175E-01    0.693E-01
RMM:   3    -0.413222471445E+03   -0.54592E-02   -0.12297E-02  5103   0.918E-02    0.420E-01
RMM:   4    -0.413246673261E+03   -0.24202E-01   -0.48324E-02  5053   0.187E-01    0.743E-01
RMM:   5    -0.413215677351E+03    0.30996E-01   -0.13363E-02  4682   0.126E-01    0.509E-02
RMM:   6    -0.413215678839E+03   -0.14876E-05   -0.22638E-03  5673   0.453E-02    0.190E-02
RMM:   7    -0.413215687264E+03   -0.84249E-05   -0.26872E-04  5908   0.149E-02    0.148E-02
RMM:   8    -0.413215684532E+03    0.27315E-05   -0.43357E-05  4847   0.612E-03    0.901E-03
RMM:   9    -0.413215675698E+03    0.88337E-05   -0.10255E-05  3449   0.439E-03    0.432E-03
RMM:  10    -0.413215670942E+03    0.47562E-05   -0.26349E-06  2589   0.247E-03    0.249E-03
RMM:  11    -0.413215666985E+03    0.39571E-05   -0.12786E-06  2528   0.174E-03    0.112E-03
RMM:  12    -0.413215664210E+03    0.27752E-05   -0.53072E-07  2424   0.123E-03    0.580E-04
RMM:  13    -0.413215660733E+03    0.34775E-05   -0.35999E-07  1783   0.954E-04    0.333E-04
RMM:  14    -0.413215658850E+03    0.18824E-05   -0.20343E-07  1381   0.781E-04    0.183E-04
RMM:  15    -0.413215656365E+03    0.24849E-05   -0.15316E-07  1284   0.727E-04    0.966E-05
RMM:  16    -0.413215653278E+03    0.30870E-05   -0.12945E-07  1335   0.699E-04    0.589E-05
RMM:  17    -0.413215651916E+03    0.13619E-05   -0.77641E-08  1069   0.621E-04    0.459E-05
RMM:  18    -0.413215649541E+03    0.23754E-05   -0.72725E-08  1162   0.615E-04    0.333E-05
RMM:  19    -0.413215648723E+03    0.81744E-06   -0.42267E-08   891   0.557E-04
   44 T=    71. E= -.41286719E+03 F= -.41321565E+03 E0= -.41319466E+03  EK= 0.34846E+00 SP= 0.00E+00 SK= 0.00E+00
       N       E                     dE             d eps       ncg     rms          rms(c)
RMM:   1    -0.413241375080E+03   -0.25726E-01   -0.13239E+01  4307   0.158E+00    0.979E-01
RMM:   2    -0.413217711260E+03    0.23664E-01   -0.18847E-01  4372   0.180E-01    0.684E-01
RMM:   3    -0.413231072094E+03   -0.13361E-01   -0.19353E-02  5142   0.119E-01    0.545E-01
RMM:   4    -0.413231987282E+03   -0.91519E-03   -0.37396E-02  5009   0.169E-01    0.532E-01
RMM:   5    -0.413217410896E+03    0.14576E-01   -0.56279E-03  4554   0.932E-02    0.434E-02
RMM:   6    -0.413217358439E+03    0.52457E-04   -0.95574E-04  5272   0.309E-02    0.174E-02
RMM:   7    -0.413217357081E+03    0.13577E-05   -0.10944E-04  5639   0.102E-02    0.127E-02
RMM:   8    -0.413217352461E+03    0.46201E-05   -0.32744E-05  4954   0.573E-03    0.800E-03
RMM:   9    -0.413217336793E+03    0.15668E-04   -0.97521E-06  3600   0.440E-03    0.393E-03
RMM:  10    -0.413217331603E+03    0.51899E-05   -0.14988E-06  2541   0.202E-03    0.187E-03
RMM:  11    -0.413217325358E+03    0.62456E-05   -0.96316E-07  2482   0.155E-03    0.986E-04
RMM:  12    -0.413217319954E+03    0.54041E-05   -0.40143E-07  2365   0.111E-03    0.509E-04
RMM:  13    -0.413217315280E+03    0.46734E-05   -0.20949E-07  1445   0.780E-04    0.236E-04
RMM:  14    -0.413217311926E+03    0.33548E-05   -0.12279E-07  1172   0.680E-04    0.148E-04
RMM:  15    -0.413217305582E+03    0.63432E-05   -0.12792E-07  1408   0.709E-04    0.104E-04
RMM:  16    -0.413217302997E+03    0.25851E-05   -0.69932E-08  1066   0.603E-04    0.910E-05
RMM:  17    -0.413217299606E+03    0.33917E-05   -0.56657E-08  1043   0.585E-04    0.498E-05
RMM:  18    -0.413217297402E+03    0.22037E-05   -0.43202E-08   941   0.555E-04    0.287E-05
RMM:  19    -0.413217296567E+03    0.83463E-06   -0.25156E-08   760   0.521E-04
   45 T=    71. E= -.41286752E+03 F= -.41321730E+03 E0= -.41319633E+03  EK= 0.34978E+00 SP= 0.00E+00 SK= 0.00E+00
       N       E                     dE             d eps       ncg     rms          rms(c)
RMM:   1    -0.413237674295E+03   -0.20377E-01   -0.13117E+01  4307   0.166E+00    0.959E-01
RMM:   2    -0.413217837663E+03    0.19837E-01   -0.18519E-01  4390   0.190E-01    0.681E-01
RMM:   3    -0.413233968613E+03   -0.16131E-01   -0.21752E-02  5136   0.129E-01    0.590E-01
RMM:   4    -0.413229801237E+03    0.41674E-02   -0.37053E-02  4986   0.169E-01    0.494E-01
RMM:   5    -0.413217438213E+03    0.12363E-01   -0.48954E-03  4541   0.901E-02    0.442E-02
RMM:   6    -0.413217362298E+03    0.75915E-04   -0.72376E-04  5002   0.283E-02    0.173E-02
RMM:   7    -0.413217361511E+03    0.78613E-06   -0.98115E-05  5731   0.944E-03    0.108E-02
RMM:   8    -0.413217353186E+03    0.83253E-05   -0.23154E-05  4704   0.553E-03    0.636E-03
RMM:   9    -0.413217343505E+03    0.96809E-05   -0.80164E-06  3417   0.358E-03    0.402E-03
RMM:  10    -0.413217340383E+03    0.31226E-05   -0.17581E-06  2508   0.218E-03    0.173E-03
RMM:  11    -0.413217335601E+03    0.47819E-05   -0.12265E-06  2439   0.176E-03    0.110E-03
RMM:  12    -0.413217330734E+03    0.48672E-05   -0.54779E-07  2349   0.130E-03    0.679E-04
RMM:  13    -0.413217326514E+03    0.42197E-05   -0.24343E-07  1796   0.881E-04    0.345E-04
RMM:  14    -0.413217323316E+03    0.31983E-05   -0.12582E-07  1236   0.682E-04    0.188E-04
RMM:  15    -0.413217317822E+03    0.54940E-05   -0.12905E-07  1393   0.695E-04    0.165E-04
RMM:  16    -0.413217314682E+03    0.31400E-05   -0.67357E-08   974   0.583E-04    0.138E-04
RMM:  17    -0.413217312171E+03    0.25107E-05   -0.48458E-08   866   0.550E-04    0.563E-05
RMM:  18    -0.413217309668E+03    0.25033E-05   -0.41534E-08   876   0.550E-04    0.448E-05
RMM:  19    -0.413217308492E+03    0.11757E-05   -0.21569E-08   706   0.519E-04    0.277E-05
RMM:  20    -0.413217308132E+03    0.35992E-06   -0.10901E-08   561   0.494E-04
   46 T=    71. E= -.41286726E+03 F= -.41321731E+03 E0= -.41319636E+03  EK= 0.35005E+00 SP= 0.00E+00 SK= 0.00E+00
       N       E                     dE             d eps       ncg     rms          rms(c)
RMM:   1    -0.413260768367E+03   -0.43460E-01   -0.13408E+01  4310   0.181E+00    0.946E-01
RMM:   2    -0.413217677453E+03    0.43091E-01   -0.22278E-01  4405   0.214E-01    0.698E-01
RMM:   3    -0.413233362411E+03   -0.15685E-01   -0.21469E-02  5138   0.130E-01    0.615E-01
RMM:   4    -0.413230354727E+03    0.30077E-02   -0.39009E-02  4994   0.174E-01    0.532E-01
RMM:   5    -0.413216643252E+03    0.13711E-01   -0.61385E-03  4542   0.985E-02    0.494E-02
RMM:   6    -0.413216550177E+03    0.93074E-04   -0.85266E-04  5050   0.312E-02    0.191E-02
RMM:   7    -0.413216549273E+03    0.90448E-06   -0.12343E-04  5841   0.105E-02    0.128E-02
RMM:   8    -0.413216547158E+03    0.21146E-05   -0.36986E-05  5080   0.595E-03    0.892E-03
RMM:   9    -0.413216534670E+03    0.12489E-04   -0.17032E-05  4278   0.519E-03    0.522E-03
RMM:  10    -0.413216530909E+03    0.37605E-05   -0.23799E-06  2554   0.242E-03    0.241E-03
RMM:  11    -0.413216527594E+03    0.33156E-05   -0.20363E-06  2550   0.213E-03    0.141E-03
RMM:  12    -0.413216524568E+03    0.30260E-05   -0.60081E-07  2393   0.145E-03    0.802E-04
RMM:  13    -0.413216521809E+03    0.27583E-05   -0.27738E-07  2026   0.931E-04    0.400E-04
RMM:  14    -0.413216519113E+03    0.26965E-05   -0.15844E-07  1267   0.698E-04    0.214E-04
RMM:  15    -0.413216516416E+03    0.26969E-05   -0.12011E-07  1141   0.658E-04    0.100E-04
RMM:  16    -0.413216514014E+03    0.24013E-05   -0.97834E-08  1201   0.646E-04    0.103E-04
RMM:  17    -0.413216512752E+03    0.12628E-05   -0.52767E-08   899   0.564E-04    0.777E-05
RMM:  18    -0.413216511157E+03    0.15945E-05   -0.45362E-08   887   0.553E-04    0.419E-05
RMM:  19    -0.413216510724E+03    0.43345E-06   -0.21299E-08   640   0.508E-04
   47 T=    71. E= -.41286718E+03 F= -.41321651E+03 E0= -.41319558E+03  EK= 0.34933E+00 SP= 0.00E+00 SK= 0.00E+00
       N       E                     dE             d eps       ncg     rms          rms(c)
RMM:   1    -0.413262677516E+03   -0.46166E-01   -0.13420E+01  4306   0.194E+00    0.974E-01
RMM:   2    -0.413215315607E+03    0.47362E-01   -0.20890E-01  4507   0.210E-01    0.690E-01
RMM:   3    -0.413242936870E+03   -0.27621E-01   -0.32394E-02  5160   0.161E-01    0.750E-01
RMM:   4    -0.413222159755E+03    0.20777E-01   -0.38101E-02  4943   0.177E-01    0.411E-01
RMM:   5    -0.413215059326E+03    0.71004E-02   -0.46756E-03  4669   0.913E-02    0.610E-02
RMM:   6    -0.413214838056E+03    0.22127E-03   -0.45494E-04  4663   0.295E-02    0.237E-02
RMM:   7    -0.413214837257E+03    0.79972E-06   -0.11654E-04  5794   0.112E-02    0.156E-02
RMM:   8    -0.413214827663E+03    0.95941E-05   -0.21960E-05  4458   0.513E-03    0.104E-02
RMM:   9    -0.413214812537E+03    0.15126E-04   -0.10569E-05  3418   0.436E-03    0.480E-03
RMM:  10    -0.413214805645E+03    0.68916E-05   -0.28867E-06  2653   0.271E-03    0.236E-03
RMM:  11    -0.413214799404E+03    0.62419E-05   -0.19285E-06  2546   0.218E-03    0.153E-03
RMM:  12    -0.413214794192E+03    0.52112E-05   -0.68246E-07  2442   0.148E-03    0.745E-04
RMM:  13    -0.413214790035E+03    0.41569E-05   -0.32166E-07  2132   0.966E-04    0.409E-04
RMM:  14    -0.413214785661E+03    0.43749E-05   -0.19099E-07  1571   0.752E-04    0.216E-04
RMM:  15    -0.413214780215E+03    0.54457E-05   -0.15509E-07  1425   0.711E-04    0.132E-04
RMM:  16    -0.413214777743E+03    0.24724E-05   -0.83365E-08  1101   0.615E-04    0.927E-05
RMM:  17    -0.413214774571E+03    0.31720E-05   -0.75500E-08  1161   0.612E-04    0.427E-05
RMM:  18    -0.413214772643E+03    0.19274E-05   -0.49731E-08  1017   0.576E-04    0.267E-05
RMM:  19    -0.413214771877E+03    0.76630E-06   -0.25245E-08   791   0.535E-04
   48 T=    71. E= -.41286727E+03 F= -.41321477E+03 E0= -.41319385E+03  EK= 0.34751E+00 SP= 0.00E+00 SK= 0.00E+00
       N       E                     dE             d eps       ncg     rms          rms(c)
RMM:   1    -0.413264368940E+03   -0.49596E-01   -0.13289E+01  4306   0.207E+00    0.962E-01
RMM:   2    -0.413211104527E+03    0.53264E-01   -0.20856E-01  4523   0.224E-01    0.680E-01
RMM:   3    -0.413244899955E+03   -0.33795E-01   -0.38097E-02  5167   0.175E-01    0.821E-01
RMM:   4    -0.413215806833E+03    0.29093E-01   -0.38471E-02  4922   0.180E-01    0.370E-01
RMM:   5    -0.413211063383E+03    0.47435E-02   -0.56027E-03  4980   0.961E-02    0.780E-02
RMM:   6    -0.413210688657E+03    0.37473E-03   -0.68749E-04  4697   0.357E-02    0.283E-02
RMM:   7    -0.413210684650E+03    0.40071E-05   -0.16365E-04  5728   0.136E-02    0.175E-02
RMM:   8    -0.413210673668E+03    0.10982E-04   -0.21612E-05  4352   0.519E-03    0.112E-02
RMM:   9    -0.413210658006E+03    0.15662E-04   -0.11938E-05  3626   0.451E-03    0.497E-03
RMM:  10    -0.413210649209E+03    0.87973E-05   -0.40892E-06  2839   0.308E-03    0.274E-03
RMM:  11    -0.413210641842E+03    0.73666E-05   -0.26801E-06  2696   0.248E-03    0.187E-03
RMM:  12    -0.413210637552E+03    0.42901E-05   -0.67452E-07  2450   0.155E-03    0.880E-04
RMM:  13    -0.413210633348E+03    0.42045E-05   -0.33373E-07  2251   0.100E-03    0.521E-04
RMM:  14    -0.413210628379E+03    0.49689E-05   -0.21490E-07  1681   0.794E-04    0.246E-04
RMM:  15    -0.413210623521E+03    0.48579E-05   -0.15999E-07  1459   0.726E-04    0.163E-04
RMM:  16    -0.413210621464E+03    0.20570E-05   -0.79501E-08  1098   0.623E-04    0.114E-04
RMM:  17    -0.413210618054E+03    0.34097E-05   -0.87747E-08  1314   0.643E-04    0.542E-05
RMM:  18    -0.413210616785E+03    0.12687E-05   -0.40771E-08   960   0.572E-04    0.385E-05
RMM:  19    -0.413210615923E+03    0.86192E-06   -0.23656E-08   819   0.546E-04
   49 T=    70. E= -.41286715E+03 F= -.41321062E+03 E0= -.41318970E+03  EK= 0.34347E+00 SP= 0.00E+00 SK= 0.00E+00
       N       E                     dE             d eps       ncg     rms          rms(c)
[...]
RMM:  11    -0.413869547524E+03   -0.46308E-05   -0.30621E-05  4702   0.717E-03    0.668E-03
RMM:  12    -0.413869553100E+03   -0.55763E-05   -0.66810E-06  3208   0.380E-03    0.300E-03
RMM:  13    -0.413869556118E+03   -0.30175E-05   -0.22607E-06  2670   0.226E-03    0.171E-03
RMM:  14    -0.413869558364E+03   -0.22463E-05   -0.13042E-06  2555   0.171E-03    0.956E-04
RMM:  15    -0.413869559787E+03   -0.14228E-05   -0.85351E-07  2327   0.131E-03    0.562E-04
RMM:  16    -0.413869560543E+03   -0.75580E-06   -0.53658E-07  1893   0.996E-04
  139 T=   203. E= -.41287031E+03 F= -.41386956E+03 E0= -.41384771E+03  EK= 0.99925E+00 SP= 0.00E+00 SK= 0.00E+00
       N       E                     dE             d eps       ncg     rms          rms(c)
RMM:   1    -0.414107932916E+03   -0.23837E+00   -0.23377E+01  4292   0.866E+00    0.942E-01
RMM:   2    -0.413887078028E+03    0.22085E+00   -0.55763E-01  5343   0.900E-01    0.809E-01
RMM:   3    -0.413918053305E+03   -0.30975E-01   -0.94795E-02  5796   0.332E-01    0.979E-01
RMM:   4    -0.413885516659E+03    0.32537E-01   -0.31004E-02  4981   0.207E-01    0.473E-01
RMM:   5    -0.413886852939E+03   -0.13363E-02   -0.36984E-02  4958   0.236E-01    0.287E-01
RMM:   6    -0.413883756693E+03    0.30962E-02   -0.12452E-02  4885   0.145E-01    0.116E-01
RMM:   7    -0.413883467737E+03    0.28896E-03   -0.26817E-03  5590   0.662E-02    0.821E-02
RMM:   8    -0.413883315707E+03    0.15203E-03   -0.66610E-04  4848   0.335E-02    0.405E-02
RMM:   9    -0.413883323859E+03   -0.81522E-05   -0.36895E-04  4717   0.244E-02    0.216E-02
RMM:  10    -0.413883326113E+03   -0.22545E-05   -0.67797E-05  5478   0.100E-02    0.105E-02
RMM:  11    -0.413883331270E+03   -0.51563E-05   -0.18173E-05  4508   0.537E-03    0.557E-03
RMM:  12    -0.413883334406E+03   -0.31366E-05   -0.45948E-06  3040   0.316E-03    0.253E-03
RMM:  13    -0.413883336727E+03   -0.23204E-05   -0.12868E-06  2559   0.185E-03    0.136E-03
RMM:  14    -0.413883339258E+03   -0.25313E-05   -0.11497E-06  2511   0.160E-03    0.668E-04
RMM:  15    -0.413883340633E+03   -0.13750E-05   -0.50146E-07  2046   0.110E-03    0.376E-04
RMM:  16    -0.413883341690E+03   -0.10568E-05   -0.33638E-07  1822   0.909E-04    0.242E-04
RMM:  17    -0.413883343101E+03   -0.14111E-05   -0.35106E-07  1754   0.867E-04    0.189E-04
RMM:  18    -0.413883343813E+03   -0.71182E-06   -0.20539E-07  1368   0.714E-04
  140 T=   206. E= -.41287071E+03 F= -.41388334E+03 E0= -.41386244E+03  EK= 0.10126E+01 SP= 0.00E+00 SK= 0.00E+00
       N       E                     dE             d eps       ncg     rms          rms(c)
RMM:   1    -0.414138273562E+03   -0.25493E+00   -0.23872E+01  4291   0.890E+00    0.903E-01
RMM:   2    -0.413912392723E+03    0.22588E+00   -0.52731E-01  5256   0.905E-01    0.795E-01
RMM:   3    -0.413935638501E+03   -0.23246E-01   -0.88846E-02  5784   0.325E-01    0.934E-01
RMM:   4    -0.413908996633E+03    0.26642E-01   -0.29193E-02  5079   0.200E-01    0.496E-01
RMM:   5    -0.413909370448E+03   -0.37382E-03   -0.28718E-02  4792   0.216E-01    0.275E-01
RMM:   6    -0.413907991662E+03    0.13788E-02   -0.12029E-02  4888   0.141E-01    0.136E-01
RMM:   7    -0.413907371053E+03    0.62061E-03   -0.22616E-03  5189   0.644E-02    0.798E-02
RMM:   8    -0.413907241217E+03    0.12984E-03   -0.83897E-04  5325   0.358E-02    0.390E-02
RMM:   9    -0.413907233495E+03    0.77221E-05   -0.37569E-04  4833   0.244E-02    0.217E-02
RMM:  10    -0.413907234668E+03   -0.11727E-05   -0.83925E-05  5626   0.114E-02    0.127E-02
RMM:  11    -0.413907237390E+03   -0.27219E-05   -0.22259E-05  4773   0.601E-03    0.733E-03
RMM:  12    -0.413907240528E+03   -0.31376E-05   -0.77467E-06  3632   0.387E-03    0.315E-03
RMM:  13    -0.413907241942E+03   -0.14144E-05   -0.16732E-06  2587   0.210E-03    0.163E-03
RMM:  14    -0.413907243921E+03   -0.19792E-05   -0.93297E-07  2472   0.159E-03    0.835E-04
RMM:  15    -0.413907245535E+03   -0.16140E-05   -0.47031E-07  2229   0.112E-03    0.459E-04
RMM:  16    -0.413907247185E+03   -0.16501E-05   -0.29635E-07  1701   0.872E-04    0.222E-04
RMM:  17    -0.413907248460E+03   -0.12744E-05   -0.19994E-07  1436   0.759E-04    0.127E-04
RMM:  18    -0.413907250006E+03   -0.15461E-05   -0.18617E-07  1436   0.730E-04    0.105E-04
RMM:  19    -0.413907250934E+03   -0.92807E-06   -0.12278E-07  1212   0.643E-04
  141 T=   211. E= -.41287196E+03 F= -.41390725E+03 E0= -.41388736E+03  EK= 0.10353E+01 SP= 0.00E+00 SK= 0.00E+00
       N       E                     dE             d eps       ncg     rms          rms(c)
RMM:   1    -0.414174502195E+03   -0.26725E+00   -0.24466E+01  4292   0.909E+00    0.895E-01
RMM:   2    -0.413940196868E+03    0.23431E+00   -0.52609E-01  5237   0.933E-01    0.871E-01
RMM:   3    -0.413949873680E+03   -0.96768E-02   -0.88125E-02  5724   0.331E-01    0.907E-01
RMM:   4    -0.413928895171E+03    0.20979E-01   -0.28632E-02  5163   0.200E-01    0.529E-01
RMM:   5    -0.413928891669E+03    0.35020E-05   -0.18953E-02  4618   0.185E-01    0.268E-01
RMM:   6    -0.413929081634E+03   -0.18996E-03   -0.14824E-02  4964   0.152E-01    0.154E-01
RMM:   7    -0.413927959084E+03    0.11225E-02   -0.28179E-03  4924   0.726E-02    0.811E-02
RMM:   8    -0.413927855198E+03    0.10389E-03   -0.92534E-04  5670   0.363E-02    0.443E-02
RMM:   9    -0.413927816168E+03    0.39030E-04   -0.40439E-04  4688   0.255E-02    0.196E-02
RMM:  10    -0.413927817233E+03   -0.10646E-05   -0.99988E-05  5719   0.123E-02    0.123E-02
RMM:  11    -0.413927819620E+03   -0.23867E-05   -0.25022E-05  4913   0.630E-03    0.777E-03
RMM:  12    -0.413927822259E+03   -0.26398E-05   -0.83260E-06  3711   0.397E-03    0.299E-03
RMM:  13    -0.413927823827E+03   -0.15680E-05   -0.21850E-06  2641   0.229E-03    0.178E-03
RMM:  14    -0.413927825536E+03   -0.17087E-05   -0.83038E-07  2457   0.159E-03    0.848E-04
RMM:  15    -0.413927826769E+03   -0.12328E-05   -0.41608E-07  2114   0.106E-03    0.507E-04
RMM:  16    -0.413927828336E+03   -0.15670E-05   -0.26970E-07  1668   0.860E-04    0.207E-04
RMM:  17    -0.413927829527E+03   -0.11915E-05   -0.19046E-07  1486   0.755E-04    0.102E-04
RMM:  18    -0.413927830623E+03   -0.10960E-05   -0.14684E-07  1327   0.695E-04    0.825E-05
RMM:  19    -0.413927831659E+03   -0.10360E-05   -0.12039E-07  1303   0.652E-04    0.560E-05
RMM:  20    -0.413927832327E+03   -0.66727E-06   -0.75339E-08  1073   0.592E-04
  142 T=   215. E= -.41287218E+03 F= -.41392783E+03 E0= -.41390908E+03  EK= 0.10556E+01 SP= 0.00E+00 SK= 0.00E+00
       N       E                     dE             d eps       ncg     rms          rms(c)
RMM:   1    -0.414200155032E+03   -0.27232E+00   -0.24759E+01  4292   0.921E+00    0.890E-01
RMM:   2    -0.413968942466E+03    0.23121E+00   -0.53837E-01  5244   0.952E-01    0.950E-01
RMM:   3    -0.413963696340E+03    0.52461E-02   -0.92281E-02  5672   0.345E-01    0.879E-01
RMM:   4    -0.413946012659E+03    0.17684E-01   -0.29725E-02  5241   0.206E-01    0.527E-01
RMM:   5    -0.413946287293E+03   -0.27463E-03   -0.14914E-02  4671   0.167E-01    0.287E-01
RMM:   6    -0.413947125114E+03   -0.83782E-03   -0.17335E-02  4961   0.162E-01    0.169E-01
RMM:   7    -0.413945584760E+03    0.15404E-02   -0.35269E-03  4849   0.812E-02    0.783E-02
RMM:   8    -0.413945525874E+03    0.58885E-04   -0.11600E-03  5863   0.386E-02    0.461E-02
RMM:   9    -0.413945469158E+03    0.56716E-04   -0.36061E-04  4647   0.242E-02    0.190E-02
RMM:  10    -0.413945468907E+03    0.25089E-06   -0.10481E-04  5767   0.125E-02    0.114E-02
RMM:  11    -0.413945470829E+03   -0.19218E-05   -0.24486E-05  4966   0.626E-03    0.773E-03
RMM:  12    -0.413945472403E+03   -0.15742E-05   -0.73503E-06  3472   0.380E-03    0.284E-03
RMM:  13    -0.413945473591E+03   -0.11881E-05   -0.21674E-06  2621   0.232E-03    0.155E-03
RMM:  14    -0.413945474897E+03   -0.13060E-05   -0.85213E-07  2454   0.162E-03    0.741E-04
RMM:  15    -0.413945475663E+03   -0.76548E-06   -0.39835E-07  2047   0.105E-03
  143 T=   219. E= -.41287190E+03 F= -.41394548E+03 E0= -.41392740E+03  EK= 0.10736E+01 SP= 0.00E+00 SK= 0.00E+00
       N       E                     dE             d eps       ncg     rms          rms(c)
RMM:   1    -0.414214813758E+03   -0.26934E+00   -0.24775E+01  4292   0.924E+00    0.906E-01
RMM:   2    -0.414001988472E+03    0.21283E+00   -0.56165E-01  5254   0.967E-01    0.102E+00
RMM:   3    -0.413983064830E+03    0.18924E-01   -0.10130E-01  5580   0.366E-01    0.857E-01
RMM:   4    -0.413966030101E+03    0.17035E-01   -0.35028E-02  5284   0.224E-01    0.509E-01
RMM:   5    -0.413966019171E+03    0.10930E-04   -0.13214E-02  4727   0.157E-01    0.297E-01
RMM:   6    -0.413967414268E+03   -0.13951E-02   -0.18403E-02  4979   0.167E-01    0.187E-01
RMM:   7    -0.413965542448E+03    0.18718E-02   -0.41258E-03  4802   0.879E-02    0.763E-02
RMM:   8    -0.413965537762E+03    0.46858E-05   -0.16195E-03  5937   0.441E-02    0.456E-02
RMM:   9    -0.413965477985E+03    0.59777E-04   -0.31273E-04  4786   0.224E-02    0.231E-02
RMM:  10    -0.413965470095E+03    0.78893E-05   -0.11345E-04  5737   0.130E-02    0.109E-02
RMM:  11    -0.413965472374E+03   -0.22789E-05   -0.31873E-05  5259   0.664E-03    0.811E-03
RMM:  12    -0.413965472546E+03   -0.17183E-06   -0.67674E-06  3445   0.380E-03
  144 T=   223. E= -.41287203E+03 F= -.41396547E+03 E0= -.41394748E+03  EK= 0.10934E+01 SP= 0.00E+00 SK= 0.00E+00
       N       E                     dE             d eps       ncg     rms          rms(c)
RMM:   1    -0.414224710285E+03   -0.25924E+00   -0.24783E+01  4291   0.923E+00    0.983E-01
RMM:   2    -0.414038476543E+03    0.18623E+00   -0.61737E-01  5310   0.994E-01    0.112E+00
RMM:   3    -0.414010011401E+03    0.28465E-01   -0.11968E-01  5539   0.397E-01    0.900E-01
RMM:   4    -0.413990023221E+03    0.19988E-01   -0.47430E-02  5323   0.259E-01    0.525E-01
RMM:   5    -0.413989002990E+03    0.10202E-02   -0.14121E-02  4710   0.165E-01    0.292E-01
RMM:   6    -0.413990691151E+03   -0.16882E-02   -0.19342E-02  5091   0.169E-01    0.202E-01
RMM:   7    -0.413988537423E+03    0.21537E-02   -0.47810E-03  4833   0.934E-02    0.754E-02
RMM:   8    -0.413988577407E+03   -0.39984E-04   -0.19456E-03  5946   0.482E-02    0.459E-02
RMM:   9    -0.413988533640E+03    0.43767E-04   -0.34035E-04  5074   0.228E-02    0.299E-02
RMM:  10    -0.413988512187E+03    0.21453E-04   -0.11637E-04  5577   0.136E-02    0.120E-02
RMM:  11    -0.413988514071E+03   -0.18835E-05   -0.47658E-05  5558   0.771E-03    0.828E-03
RMM:  12    -0.413988513302E+03    0.76848E-06   -0.62365E-06  3302   0.373E-03
  145 T=   227. E= -.41287226E+03 F= -.41398851E+03 E0= -.41397012E+03  EK= 0.11163E+01 SP= 0.00E+00 SK= 0.00E+00
       N       E                     dE             d eps       ncg     rms          rms(c)
RMM:   1    -0.414246475553E+03   -0.25796E+00   -0.25253E+01  4288   0.925E+00    0.108E+00
RMM:   2    -0.414065505466E+03    0.18097E+00   -0.69803E-01  5393   0.103E+00    0.119E+00
RMM:   3    -0.414039831231E+03    0.25674E-01   -0.13637E-01  5555   0.421E-01    0.100E+00
RMM:   4    -0.414015104154E+03    0.24727E-01   -0.56606E-02  5334   0.285E-01    0.575E-01
RMM:   5    -0.414013059741E+03    0.20444E-02   -0.17144E-02  4625   0.183E-01    0.286E-01
RMM:   6    -0.414014448622E+03   -0.13889E-02   -0.19971E-02  5102   0.170E-01    0.197E-01
RMM:   7    -0.414012206888E+03    0.22417E-02   -0.50915E-03  4871   0.951E-02    0.705E-02
RMM:   8    -0.414012258171E+03   -0.51282E-04   -0.16627E-03  5944   0.454E-02    0.476E-02
RMM:   9    -0.414012229244E+03    0.28926E-04   -0.36701E-04  4955   0.244E-02    0.296E-02
RMM:  10    -0.414012212435E+03    0.16809E-04   -0.10638E-04  5544   0.133E-02    0.131E-02
RMM:  11    -0.414012214299E+03   -0.18642E-05   -0.51838E-05  5557   0.819E-03    0.858E-03
RMM:  12    -0.414012214244E+03    0.55556E-07   -0.63717E-06  3273   0.377E-03
  146 T=   232. E= -.41287396E+03 F= -.41401221E+03 E0= -.41399304E+03  EK= 0.11383E+01 SP= 0.00E+00 SK= 0.00E+00
       N       E                     dE             d eps       ncg     rms          rms(c)
RMM:   1    -0.414264721239E+03   -0.25251E+00   -0.26339E+01  4282   0.928E+00    0.113E+00
RMM:   2    -0.414046188614E+03    0.21853E+00   -0.78166E-01  5425   0.107E+00    0.118E+00
RMM:   3    -0.414046809595E+03   -0.62098E-03   -0.14045E-01  5649   0.421E-01    0.114E+00
RMM:   4    -0.414014192062E+03    0.32618E-01   -0.51792E-02  5279   0.278E-01    0.649E-01
RMM:   5    -0.414011032493E+03    0.31596E-02   -0.22681E-02  4422   0.213E-01    0.276E-01
RMM:   6    -0.414011410567E+03   -0.37807E-03   -0.17344E-02  5021   0.162E-01    0.160E-01
RMM:   7    -0.414009889581E+03    0.15210E-02   -0.45798E-03  5025   0.874E-02    0.709E-02
RMM:   8    -0.414009843810E+03    0.45771E-04   -0.92435E-04  5719   0.371E-02    0.517E-02
RMM:   9    -0.414009804668E+03    0.39142E-04   -0.38696E-04  4529   0.264E-02    0.225E-02
RMM:  10    -0.414009808378E+03   -0.37100E-05   -0.11506E-04  5618   0.132E-02    0.136E-02
RMM:  11    -0.414009809493E+03   -0.11146E-05   -0.31729E-05  4983   0.715E-03    0.695E-03
RMM:  12    -0.414009812793E+03   -0.33001E-05   -0.67868E-06  3228   0.361E-03    0.348E-03
RMM:  13    -0.414009815899E+03   -0.31060E-05   -0.26749E-06  2748   0.244E-03    0.169E-03
RMM:  14    -0.414009818879E+03   -0.29801E-05   -0.13324E-06  2548   0.183E-03    0.969E-04
RMM:  15    -0.414009821447E+03   -0.25683E-05   -0.81499E-07  2410   0.137E-03    0.537E-04
RMM:  16    -0.414009823317E+03   -0.18694E-05   -0.50582E-07  1923   0.101E-03    0.301E-04
RMM:  17    -0.414009825241E+03   -0.19240E-05   -0.50065E-07  1942   0.965E-04    0.193E-04
RMM:  18    -0.414009826485E+03   -0.12443E-05   -0.34246E-07  1687   0.818E-04    0.129E-04
RMM:  19    -0.414009827669E+03   -0.11836E-05   -0.29910E-07  1616   0.768E-04    0.101E-04
RMM:  20    -0.414009828293E+03   -0.62485E-06   -0.16324E-07  1206   0.645E-04
  147 T=   229. E= -.41288306E+03 F= -.41400983E+03 E0= -.41398977E+03  EK= 0.11268E+01 SP= 0.00E+00 SK= 0.00E+00
       N       E                     dE             d eps       ncg     rms          rms(c)
RMM:   1    -0.414117646246E+03   -0.10782E+00   -0.26283E+01  4264   0.910E+00    0.156E+00
RMM:   2    -0.413877792025E+03    0.23985E+00   -0.84845E-01  5426   0.111E+00    0.144E+00
RMM:   3    -0.413925822950E+03   -0.48031E-01   -0.15577E-01  5649   0.442E-01    0.145E+00
RMM:   4    -0.413886357161E+03    0.39466E-01   -0.88714E-02  5250   0.325E-01    0.966E-01
RMM:   5    -0.413868889498E+03    0.17468E-01   -0.63933E-02  4416   0.343E-01    0.275E-01
RMM:   6    -0.413865970699E+03    0.29188E-02   -0.83395E-03  4652   0.136E-01    0.107E-01
RMM:   7    -0.413865740072E+03    0.23063E-03   -0.18016E-03  5533   0.548E-02    0.738E-02
RMM:   8    -0.413865672390E+03    0.67682E-04   -0.93463E-04  5141   0.362E-02    0.545E-02
RMM:   9    -0.413865612997E+03    0.59393E-04   -0.51460E-04  4717   0.295E-02    0.245E-02
RMM:  10    -0.413865612359E+03    0.63800E-06   -0.14668E-04  5671   0.152E-02    0.168E-02
RMM:  11    -0.413865609380E+03    0.29790E-05   -0.33976E-05  4969   0.742E-03    0.814E-03
RMM:  12    -0.413865611828E+03   -0.24486E-05   -0.95323E-06  3570   0.390E-03    0.431E-03
RMM:  13    -0.413865616568E+03   -0.47400E-05   -0.36928E-06  2835   0.314E-03    0.256E-03
RMM:  14    -0.413865619697E+03   -0.31282E-05   -0.14962E-06  2553   0.211E-03    0.128E-03
RMM:  15    -0.413865622591E+03   -0.28939E-05   -0.85267E-07  2494   0.149E-03    0.670E-04
RMM:  16    -0.413865625115E+03   -0.25249E-05   -0.57779E-07  2152   0.110E-03    0.433E-04
RMM:  17    -0.413865627722E+03   -0.26065E-05   -0.53669E-07  1997   0.990E-04    0.297E-04
RMM:  18    -0.413865629795E+03   -0.20729E-05   -0.42793E-07  1797   0.880E-04    0.169E-04
RMM:  19    -0.413865631072E+03   -0.12771E-05   -0.25962E-07  1510   0.730E-04    0.100E-04
RMM:  20    -0.413865632884E+03   -0.18125E-05   -0.30418E-07  1580   0.765E-04    0.898E-05
RMM:  21    -0.413865633504E+03   -0.61941E-06   -0.12379E-07  1090   0.612E-04
  148 T=   197. E= -.41289961E+03 F= -.41386563E+03 E0= -.41384495E+03  EK= 0.96603E+00 SP= 0.00E+00 SK= 0.00E+00
       N       E                     dE             d eps       ncg     rms          rms(c)
RMM:   1    -0.413570662323E+03    0.29497E+00   -0.19461E+01  4264   0.780E+00    0.201E+00
RMM:   2    -0.413464951792E+03    0.10571E+00   -0.66400E-01  5394   0.988E-01    0.182E+00
RMM:   3    -0.413562110160E+03   -0.97158E-01   -0.21187E-01  5604   0.478E-01    0.185E+00
RMM:   4    -0.413481327246E+03    0.80783E-01   -0.16017E-01  5097   0.434E-01    0.993E-01
RMM:   5    -0.413459149812E+03    0.22177E-01   -0.82840E-02  4682   0.380E-01    0.408E-01
RMM:   6    -0.413453686728E+03    0.54631E-02   -0.11145E-02  4622   0.159E-01    0.146E-01
RMM:   7    -0.413453178365E+03    0.50836E-03   -0.24268E-03  5044   0.672E-02    0.898E-02
RMM:   8    -0.413453027142E+03    0.15122E-03   -0.13087E-03  4983   0.453E-02    0.495E-02
RMM:   9    -0.413452992289E+03    0.34853E-04   -0.48448E-04  4979   0.287E-02    0.283E-02
RMM:  10    -0.413452992129E+03    0.16011E-06   -0.13696E-04  5789   0.138E-02    0.176E-02
RMM:  11    -0.413452988923E+03    0.32055E-05   -0.44838E-05  5232   0.814E-03    0.835E-03
RMM:  12    -0.413452991191E+03   -0.22673E-05   -0.12794E-05  4117   0.442E-03    0.454E-03
RMM:  13    -0.413452994154E+03   -0.29630E-05   -0.33561E-06  2782   0.299E-03    0.273E-03
RMM:  14    -0.413452996703E+03   -0.25490E-05   -0.11175E-06  2527   0.190E-03    0.128E-03
RMM:  15    -0.413452999096E+03   -0.23929E-05   -0.71144E-07  2475   0.134E-03    0.622E-04
RMM:  16    -0.413453001262E+03   -0.21659E-05   -0.46500E-07  1900   0.992E-04    0.349E-04
RMM:  17    -0.413453003644E+03   -0.23824E-05   -0.45111E-07  1981   0.941E-04    0.215E-04
RMM:  18    -0.413453005578E+03   -0.19344E-05   -0.32903E-07  1611   0.805E-04    0.156E-04
RMM:  19    -0.413453007271E+03   -0.16930E-05   -0.29104E-07  1577   0.767E-04    0.933E-05
RMM:  20    -0.413453008500E+03   -0.12281E-05   -0.20590E-07  1331   0.688E-04    0.733E-05
RMM:  21    -0.413453009432E+03   -0.93217E-06   -0.14747E-07  1215   0.646E-04
  149 T=   118. E= -.41287576E+03 F= -.41345301E+03 E0= -.41343218E+03  EK= 0.57725E+00 SP= 0.00E+00 SK= 0.00E+00
       N       E                     dE             d eps       ncg     rms          rms(c)
RMM:   1    -0.413225995593E+03    0.22701E+00   -0.75167E+00  4264   0.498E+00    0.845E-01
RMM:   2    -0.413217764715E+03    0.82309E-02   -0.20378E-01  5421   0.532E-01    0.760E-01
RMM:   3    -0.413239446377E+03   -0.21682E-01   -0.52130E-02  5640   0.237E-01    0.859E-01
RMM:   4    -0.413216588590E+03    0.22858E-01   -0.28070E-02  5110   0.193E-01    0.395E-01
RMM:   5    -0.413215177743E+03    0.14108E-02   -0.14140E-02  4560   0.168E-01    0.150E-01
RMM:   6    -0.413214413697E+03    0.76405E-03   -0.20400E-03  4737   0.665E-02    0.580E-02
RMM:   7    -0.413214349841E+03    0.63856E-04   -0.53794E-04  5292   0.296E-02    0.349E-02
RMM:   8    -0.413214354948E+03   -0.51065E-05   -0.28968E-04  5201   0.201E-02    0.222E-02
RMM:   9    -0.413214336904E+03    0.18044E-04   -0.94819E-05  5193   0.125E-02    0.123E-02
RMM:  10    -0.413214336950E+03   -0.46573E-07   -0.20106E-05  4675   0.579E-03    0.572E-03
RMM:  11    -0.413214338347E+03   -0.13964E-05   -0.52934E-06  3060   0.315E-03    0.290E-03
RMM:  12    -0.413214339533E+03   -0.11865E-05   -0.12842E-06  2519   0.204E-03    0.150E-03
RMM:  13    -0.413214340711E+03   -0.11772E-05   -0.73394E-07  2469   0.145E-03    0.909E-04
RMM:  14    -0.413214341866E+03   -0.11550E-05   -0.44701E-07  2128   0.107E-03    0.527E-04
RMM:  15    -0.413214342801E+03   -0.93574E-06   -0.29509E-07  1727   0.882E-04
  150 T=    76. E= -.41284187E+03 F= -.41321434E+03 E0= -.41319368E+03  EK= 0.37247E+00 SP= 0.00E+00 SK= 0.00E+00
