       N       E                     dE             d eps       ncg     rms          rms(c)
RMM:   1     0.220124830445E+04    0.22012E+04   -0.52440E+04  2132   0.654E+02
RMM:   2     0.705175745632E+03   -0.14961E+04   -0.16262E+04  2132   0.177E+02
RMM:   3     0.137585211235E+03   -0.56759E+03   -0.65713E+03  2132   0.117E+02
RMM:   4    -0.159316143143E+03   -0.29690E+03   -0.27852E+03  2132   0.936E+01
RMM:   5    -0.287470017441E+03   -0.12815E+03   -0.11440E+03  2132   0.595E+01
RMM:   6    -0.349750478809E+03   -0.62280E+02   -0.55094E+02  2132   0.423E+01
RMM:   7    -0.382670517454E+03   -0.32920E+02   -0.30420E+02  2132   0.293E+01
RMM:   8    -0.404155236763E+03   -0.21485E+02   -0.18476E+02  2132   0.233E+01
RMM:   9    -0.435970213146E+03   -0.31815E+02   -0.30739E+02  6110   0.173E+01
RMM:  10    -0.441331651103E+03   -0.53614E+01   -0.63643E+01  6395   0.539E+00
RMM:  11    -0.442501884134E+03   -0.11702E+01   -0.11028E+01  6209   0.173E+00
RMM:  12    -0.442868651538E+03   -0.36677E+00   -0.25356E+00  6365   0.596E-01    0.134E+02
RMM:  13    -0.425611875121E+03    0.17257E+02   -0.81499E+01  4680   0.119E+01    0.712E+01
RMM:  14    -0.499474410007E+03   -0.73863E+02   -0.54135E+02  5423   0.232E+01    0.307E+01
RMM:  15    -0.415611068985E+03    0.83863E+02   -0.19922E+02  5079   0.163E+01    0.680E+00
RMM:  16    -0.414004621678E+03    0.16064E+01   -0.39338E+01  6074   0.609E+00    0.426E+00
RMM:  17    -0.413209916359E+03    0.79471E+00   -0.25699E+00  5381   0.188E+00    0.244E+00
RMM:  18    -0.413174754169E+03    0.35162E-01   -0.78178E-01  5991   0.902E-01    0.167E+00
RMM:  19    -0.413170324611E+03    0.44296E-02   -0.27617E-01  5657   0.570E-01    0.879E-01
RMM:  20    -0.413191111906E+03   -0.20787E-01   -0.28821E-01  5531   0.566E-01    0.650E-01
RMM:  21    -0.413168008087E+03    0.23104E-01   -0.36470E-02  4942   0.252E-01    0.291E-01
RMM:  22    -0.413165282997E+03    0.27251E-02   -0.20428E-02  5966   0.133E-01    0.144E-01
RMM:  23    -0.413164258791E+03    0.10242E-02   -0.65106E-03  6051   0.732E-02    0.892E-02
RMM:  24    -0.413163195211E+03    0.10636E-02   -0.16159E-03  5240   0.422E-02    0.520E-02
RMM:  25    -0.413162719022E+03    0.47619E-03   -0.82521E-04  5252   0.281E-02    0.398E-02
RMM:  26    -0.413162854128E+03   -0.13511E-03   -0.10444E-03  5751   0.339E-02    0.334E-02
RMM:  27    -0.413163260941E+03   -0.40681E-03   -0.19382E-04  4645   0.193E-02    0.211E-02
RMM:  28    -0.413163718602E+03   -0.45766E-03   -0.16298E-04  5105   0.183E-02    0.108E-02
RMM:  29    -0.413164124955E+03   -0.40635E-03   -0.11907E-04  4692   0.161E-02    0.416E-03
RMM:  30    -0.413164350599E+03   -0.22564E-03   -0.74375E-05  4234   0.100E-02    0.345E-03
RMM:  31    -0.413164490487E+03   -0.13989E-03   -0.54469E-05  3406   0.723E-03    0.366E-03
RMM:  32    -0.413164520211E+03   -0.29724E-04   -0.20727E-05  2972   0.310E-03    0.191E-03
RMM:  33    -0.413164535311E+03   -0.15100E-04   -0.82758E-06  2783   0.219E-03    0.844E-04
RMM:  34    -0.413164539938E+03   -0.46270E-05   -0.48860E-06  2671   0.169E-03    0.686E-04
RMM:  35    -0.413164541371E+03   -0.14337E-05   -0.22778E-06  2368   0.127E-03    0.777E-04
RMM:  36    -0.413164541882E+03   -0.51104E-06   -0.13598E-06  1860   0.955E-04
    1 T=    61. E= -.41286674E+03 F= -.41316454E+03 E0= -.41314204E+03  EK= 0.29781E+00 SP= 0.00E+00 SK= 0.00E+00
       N       E                     dE             d eps       ncg     rms          rms(c)
RMM:   1    -0.413154507529E+03    0.10034E-01   -0.11179E+01  4004   0.700E-01    0.886E-01
RMM:   2    -0.413165547803E+03   -0.11040E-01   -0.13809E-01  3879   0.101E-01    0.641E-01
RMM:   3    -0.413164218674E+03    0.13291E-02   -0.64045E-03  4856   0.380E-02    0.162E-01
RMM:   4    -0.413192776061E+03   -0.28557E-01   -0.29823E-02  5217   0.143E-01    0.703E-01
RMM:   5    -0.413163749360E+03    0.29027E-01   -0.14266E-02  4848   0.119E-01    0.344E-02
RMM:   6    -0.413163938080E+03   -0.18872E-03   -0.23094E-03  5838   0.466E-02    0.166E-02
RMM:   7    -0.413163958069E+03   -0.19989E-04   -0.27859E-04  5895   0.136E-02    0.131E-02
RMM:   8    -0.413163963943E+03   -0.58741E-05   -0.36662E-05  4396   0.522E-03    0.845E-03
RMM:   9    -0.413163969387E+03   -0.54444E-05   -0.60624E-06  2961   0.274E-03    0.572E-03
RMM:  10    -0.413163977910E+03   -0.85232E-05   -0.23271E-06  2589   0.215E-03    0.288E-03
RMM:  11    -0.413163985323E+03   -0.74129E-05   -0.15722E-06  2541   0.180E-03    0.149E-03
RMM:  12    -0.413163990018E+03   -0.46945E-05   -0.85729E-07  2435   0.136E-03    0.518E-04
RMM:  13    -0.413163991888E+03   -0.18703E-05   -0.42925E-07  2046   0.960E-04    0.306E-04
RMM:  14    -0.413163993825E+03   -0.19371E-05   -0.29562E-07  1563   0.791E-04    0.181E-04
RMM:  15    -0.413163996472E+03   -0.26474E-05   -0.28035E-07  1521   0.759E-04    0.142E-04
RMM:  16    -0.413163996967E+03   -0.49463E-06   -0.15093E-07  1111   0.635E-04
    2 T=    61. E= -.41286628E+03 F= -.41316400E+03 E0= -.41314150E+03  EK= 0.29772E+00 SP= 0.00E+00 SK= 0.00E+00
       N       E                     dE             d eps       ncg     rms          rms(c)
RMM:   1    -0.413155765503E+03    0.82310E-02   -0.11217E+01  4198   0.705E-01    0.912E-01
RMM:   2    -0.413165579532E+03   -0.98140E-02   -0.13529E-01  3896   0.964E-02    0.633E-01
RMM:   3    -0.413165023436E+03    0.55610E-03   -0.67890E-03  4847   0.383E-02    0.168E-01
RMM:   4    -0.413193065907E+03   -0.28042E-01   -0.28458E-02  5187   0.141E-01    0.698E-01
RMM:   5    -0.413164622702E+03    0.28443E-01   -0.13851E-02  4831   0.117E-01    0.361E-02
RMM:   6    -0.413164799268E+03   -0.17657E-03   -0.22202E-03  5800   0.459E-02    0.183E-02
RMM:   7    -0.413164811138E+03   -0.11870E-04   -0.26568E-04  5879   0.136E-02    0.135E-02
RMM:   8    -0.413164811707E+03   -0.56851E-06   -0.34322E-05  4370   0.515E-03    0.843E-03
RMM:   9    -0.413164810899E+03    0.80805E-06   -0.54476E-06  2937   0.268E-03
    3 T=    61. E= -.41286679E+03 F= -.41316481E+03 E0= -.41314232E+03  EK= 0.29802E+00 SP= 0.00E+00 SK= 0.00E+00
       N       E                     dE             d eps       ncg     rms          rms(c)
RMM:   1    -0.413155204012E+03    0.96077E-02   -0.11130E+01  4227   0.705E-01    0.895E-01
RMM:   2    -0.413165754417E+03   -0.10550E-01   -0.13407E-01  4156   0.986E-02    0.627E-01
RMM:   3    -0.413167978162E+03   -0.22237E-02   -0.91071E-03  5179   0.653E-02    0.294E-01
RMM:   4    -0.413194485207E+03   -0.26507E-01   -0.40856E-02  5142   0.170E-01    0.721E-01
RMM:   5    -0.413164389247E+03    0.30096E-01   -0.12679E-02  4743   0.121E-01    0.535E-02
RMM:   6    -0.413164446845E+03   -0.57599E-04   -0.21558E-03  5575   0.463E-02    0.162E-02
RMM:   7    -0.413164470272E+03   -0.23427E-04   -0.30426E-04  6041   0.150E-02    0.119E-02
RMM:   8    -0.413164472960E+03   -0.26878E-05   -0.38523E-05  4710   0.554E-03    0.743E-03
RMM:   9    -0.413164474725E+03   -0.17652E-05   -0.69717E-06  3110   0.360E-03    0.359E-03
RMM:  10    -0.413164476627E+03   -0.19016E-05   -0.19149E-06  2555   0.218E-03    0.217E-03
RMM:  11    -0.413164478799E+03   -0.21720E-05   -0.10207E-06  2543   0.157E-03    0.102E-03
RMM:  12    -0.413164479933E+03   -0.11342E-05   -0.47887E-07  2169   0.107E-03    0.454E-04
RMM:  13    -0.413164481179E+03   -0.12464E-05   -0.38786E-07  1798   0.899E-04    0.220E-04
RMM:  14    -0.413164481747E+03   -0.56746E-06   -0.21556E-07  1358   0.730E-04
    4 T=    61. E= -.41286648E+03 F= -.41316448E+03 E0= -.41314199E+03  EK= 0.29800E+00 SP= 0.00E+00 SK= 0.00E+00
       N       E                     dE             d eps       ncg     rms          rms(c)
RMM:   1    -0.413154963255E+03    0.95179E-02   -0.11170E+01  4236   0.710E-01    0.884E-01
RMM:   2    -0.413166025724E+03   -0.11062E-01   -0.13825E-01  3970   0.963E-02    0.640E-01
RMM:   3    -0.413164932236E+03    0.10935E-02   -0.63734E-03  4958   0.364E-02    0.165E-01
RMM:   4    -0.413196607689E+03   -0.31675E-01   -0.32489E-02  5169   0.150E-01    0.741E-01
RMM:   5    -0.413164359889E+03    0.32248E-01   -0.15602E-02  4812   0.124E-01    0.368E-02
RMM:   6    -0.413164559684E+03   -0.19979E-03   -0.25166E-03  5777   0.487E-02    0.166E-02
RMM:   7    -0.413164579237E+03   -0.19553E-04   -0.29438E-04  5882   0.141E-02    0.131E-02
RMM:   8    -0.413164584134E+03   -0.48973E-05   -0.36961E-05  4388   0.526E-03    0.832E-03
RMM:   9    -0.413164588363E+03   -0.42286E-05   -0.57100E-06  2936   0.272E-03    0.568E-03
RMM:  10    -0.413164595150E+03   -0.67871E-05   -0.22004E-06  2568   0.217E-03    0.278E-03
RMM:  11    -0.413164600990E+03   -0.58404E-05   -0.14729E-06  2547   0.178E-03    0.138E-03
RMM:  12    -0.413164604423E+03   -0.34331E-05   -0.73102E-07  2434   0.133E-03    0.484E-04
RMM:  13    -0.413164605908E+03   -0.14848E-05   -0.33244E-07  1995   0.933E-04    0.294E-04
RMM:  14    -0.413164607606E+03   -0.16979E-05   -0.23936E-07  1566   0.793E-04    0.183E-04
RMM:  15    -0.413164609210E+03   -0.16034E-05   -0.20767E-07  1465   0.741E-04    0.131E-04
RMM:  16    -0.413164609562E+03   -0.35196E-06   -0.97622E-08  1089   0.633E-04
    5 T=    61. E= -.41286647E+03 F= -.41316461E+03 E0= -.41314213E+03  EK= 0.29814E+00 SP= 0.00E+00 SK= 0.00E+00
       N       E                     dE             d eps       ncg     rms          rms(c)
RMM:   1    -0.413156032924E+03    0.85763E-02   -0.11226E+01  4248   0.716E-01    0.907E-01
RMM:   2    -0.413166257409E+03   -0.10224E-01   -0.13515E-01  3921   0.955E-02    0.635E-01
RMM:   3    -0.413165440762E+03    0.81665E-03   -0.65915E-03  4851   0.364E-02    0.168E-01
RMM:   4    -0.413193616580E+03   -0.28176E-01   -0.28546E-02  5160   0.141E-01    0.699E-01
RMM:   5    -0.413165030492E+03    0.28586E-01   -0.13926E-02  4819   0.117E-01    0.355E-02
RMM:   6    -0.413165207238E+03   -0.17675E-03   -0.22132E-03  5785   0.456E-02    0.179E-02
RMM:   7    -0.413165219444E+03   -0.12207E-04   -0.26151E-04  5852   0.134E-02    0.133E-02
RMM:   8    -0.413165220618E+03   -0.11738E-05   -0.33170E-05  4334   0.512E-03    0.838E-03
RMM:   9    -0.413165220258E+03    0.36021E-06   -0.53837E-06  2904   0.271E-03
    6 T=    61. E= -.41286676E+03 F= -.41316522E+03 E0= -.41314276E+03  EK= 0.29846E+00 SP= 0.00E+00 SK= 0.00E+00
       N       E                     dE             d eps       ncg     rms          rms(c)
RMM:   1    -0.413155623867E+03    0.95968E-02   -0.11165E+01  4270   0.721E-01    0.902E-01
RMM:   2    -0.413165484877E+03   -0.98610E-02   -0.13467E-01  4232   0.100E-01    0.628E-01
RMM:   3    -0.413168012632E+03   -0.25278E-02   -0.91535E-03  5158   0.637E-02    0.288E-01
RMM:   4    -0.413195213028E+03   -0.27200E-01   -0.40833E-02  5125   0.170E-01    0.726E-01
RMM:   5    -0.413164651923E+03    0.30561E-01   -0.12970E-02  4741   0.121E-01    0.533E-02
RMM:   6    -0.413164717080E+03   -0.65157E-04   -0.21917E-03  5608   0.466E-02    0.164E-02
RMM:   7    -0.413164739170E+03   -0.22090E-04   -0.30237E-04  6035   0.149E-02    0.119E-02
RMM:   8    -0.413164741025E+03   -0.18551E-05   -0.38712E-05  4671   0.552E-03    0.743E-03
RMM:   9    -0.413164739484E+03    0.15411E-05   -0.66947E-06  3020   0.354E-03    0.354E-03
RMM:  10    -0.413164739476E+03    0.76907E-08   -0.19538E-06  2551   0.217E-03
    7 T=    61. E= -.41286625E+03 F= -.41316474E+03 E0= -.41314229E+03  EK= 0.29849E+00 SP= 0.00E+00 SK= 0.00E+00
       N       E                     dE             d eps       ncg     rms          rms(c)
RMM:   1    -0.413155810223E+03    0.89293E-02   -0.11165E+01  4280   0.725E-01    0.883E-01
RMM:   2    -0.413166787134E+03   -0.10977E-01   -0.13748E-01  4092   0.966E-02    0.637E-01
RMM:   3    -0.413166097717E+03    0.68942E-03   -0.65446E-03  5002   0.408E-02    0.179E-01
RMM:   4    -0.413206748198E+03   -0.40650E-01   -0.42544E-02  5152   0.171E-01    0.837E-01
RMM:   5    -0.413165303177E+03    0.41445E-01   -0.19909E-02  4809   0.140E-01    0.436E-02
RMM:   6    -0.413165527999E+03   -0.22482E-03   -0.32023E-03  5771   0.550E-02    0.167E-02
RMM:   7    -0.413165556464E+03   -0.28466E-04   -0.38672E-04  5943   0.157E-02    0.137E-02
RMM:   8    -0.413165560989E+03   -0.45244E-05   -0.44376E-05  4427   0.559E-03    0.858E-03
RMM:   9    -0.413165564315E+03   -0.33258E-05   -0.68991E-06  2984   0.280E-03    0.577E-03
RMM:  10    -0.413165569741E+03   -0.54269E-05   -0.25926E-06  2585   0.228E-03    0.276E-03
RMM:  11    -0.413165574064E+03   -0.43227E-05   -0.15002E-06  2541   0.179E-03    0.132E-03
RMM:  12    -0.413165576573E+03   -0.25084E-05   -0.82650E-07  2457   0.136E-03    0.434E-04
RMM:  13    -0.413165577880E+03   -0.13075E-05   -0.39205E-07  2028   0.968E-04    0.291E-04
RMM:  14    -0.413165579144E+03   -0.12638E-05   -0.31630E-07  1692   0.833E-04    0.205E-04
RMM:  15    -0.413165579812E+03   -0.66810E-06   -0.20274E-07  1391   0.732E-04
    8 T=    61. E= -.41286674E+03 F= -.41316558E+03 E0= -.41314315E+03  EK= 0.29884E+00 SP= 0.00E+00 SK= 0.00E+00
       N       E                     dE             d eps       ncg     rms          rms(c)
RMM:   1    -0.413156257551E+03    0.93216E-02   -0.11232E+01  4286   0.729E-01    0.901E-01
RMM:   2    -0.413166739865E+03   -0.10482E-01   -0.13664E-01  4135   0.101E-01    0.638E-01
RMM:   3    -0.413165864960E+03    0.87490E-03   -0.65536E-03  4825   0.397E-02    0.167E-01
RMM:   4    -0.413195047908E+03   -0.29183E-01   -0.29629E-02  5157   0.143E-01    0.713E-01
RMM:   5    -0.413165343678E+03    0.29704E-01   -0.14520E-02  4815   0.119E-01    0.353E-02
RMM:   6    -0.413165526880E+03   -0.18320E-03   -0.22879E-03  5793   0.464E-02    0.174E-02
RMM:   7    -0.413165538939E+03   -0.12058E-04   -0.26998E-04  5847   0.136E-02    0.132E-02
RMM:   8    -0.413165540012E+03   -0.10734E-05   -0.33937E-05  4338   0.517E-03    0.842E-03
RMM:   9    -0.413165539707E+03    0.30520E-06   -0.54471E-06  2907   0.273E-03
    9 T=    61. E= -.41286648E+03 F= -.41316554E+03 E0= -.41314313E+03  EK= 0.29906E+00 SP= 0.00E+00 SK= 0.00E+00
       N       E                     dE             d eps       ncg     rms          rms(c)
RMM:   1    -0.413156792506E+03    0.87475E-02   -0.11219E+01  4294   0.733E-01    0.910E-01
RMM:   2    -0.413166362204E+03   -0.95697E-02   -0.13469E-01  4270   0.977E-02    0.630E-01
RMM:   3    -0.413169299728E+03   -0.29375E-02   -0.95973E-03  5148   0.667E-02    0.300E-01
RMM:   4    -0.413193991506E+03   -0.24692E-01   -0.39250E-02  5109   0.167E-01    0.702E-01
RMM:   5    -0.413165683348E+03    0.28308E-01   -0.11867E-02  4737   0.116E-01    0.524E-02
RMM:   6    -0.413165734010E+03   -0.50662E-04   -0.19979E-03  5574   0.445E-02    0.170E-02
RMM:   7    -0.413165752108E+03   -0.18098E-04   -0.28179E-04  6030   0.146E-02    0.121E-02
RMM:   8    -0.413165752267E+03   -0.15927E-06   -0.36219E-05  4660   0.545E-03    0.744E-03
RMM:   9    -0.413165748265E+03    0.40021E-05   -0.68725E-06  3054   0.362E-03    0.358E-03
RMM:  10    -0.413165746977E+03    0.12877E-05   -0.18629E-06  2552   0.215E-03    0.211E-03
RMM:  11    -0.413165745597E+03    0.13805E-05   -0.98312E-07  2531   0.155E-03    0.983E-04
RMM:  12    -0.413165744713E+03    0.88386E-06   -0.46217E-07  2143   0.105E-03
   10 T=    61. E= -.41286638E+03 F= -.41316574E+03 E0= -.41314336E+03  EK= 0.29937E+00 SP= 0.00E+00 SK= 0.00E+00
       N       E                     dE             d eps       ncg     rms          rms(c)
RMM:   1    -0.413156921774E+03    0.88238E-02   -0.11171E+01  4294   0.738E-01    0.885E-01
RMM:   2    -0.413167854639E+03   -0.10933E-01   -0.13653E-01  4175   0.958E-02    0.634E-01
RMM:   3    -0.413166797307E+03    0.10573E-02   -0.62461E-03  4868   0.391E-02    0.167E-01
RMM:   4    -0.413196535072E+03   -0.29738E-01   -0.30248E-02  5149   0.145E-01    0.719E-01
RMM:   5    -0.413166243079E+03    0.30292E-01   -0.14884E-02  4816   0.120E-01    0.347E-02
RMM:   6    -0.413166426418E+03   -0.18334E-03   -0.22849E-03  5786   0.466E-02    0.172E-02
RMM:   7    -0.413166440888E+03   -0.14471E-04   -0.27158E-04  5851   0.137E-02    0.131E-02
RMM:   8    -0.413166443199E+03   -0.23110E-05   -0.35023E-05  4405   0.522E-03    0.856E-03
RMM:   9    -0.413166443791E+03   -0.59146E-06   -0.56526E-06  2922   0.277E-03
   11 T=    61. E= -.41286661E+03 F= -.41316644E+03 E0= -.41314408E+03  EK= 0.29983E+00 SP= 0.00E+00 SK= 0.00E+00
       N       E                     dE             d eps       ncg     rms          rms(c)
RMM:   1    -0.413156805867E+03    0.96373E-02   -0.11252E+01  4295   0.744E-01    0.896E-01
RMM:   2    -0.413167461639E+03   -0.10656E-01   -0.13849E-01  4280   0.999E-02    0.641E-01
RMM:   3    -0.413169945146E+03   -0.24835E-02   -0.92396E-03  5144   0.672E-02    0.299E-01
RMM:   4    -0.413199085452E+03   -0.29140E-01   -0.44317E-02  5109   0.177E-01    0.751E-01
RMM:   5    -0.413166168036E+03    0.32917E-01   -0.13888E-02  4731   0.125E-01    0.529E-02
RMM:   6    -0.413166246828E+03   -0.78792E-04   -0.23247E-03  5615   0.477E-02    0.147E-02
RMM:   7    -0.413166271797E+03   -0.24969E-04   -0.31118E-04  6033   0.151E-02    0.116E-02
RMM:   8    -0.413166275087E+03   -0.32906E-05   -0.39414E-05  4670   0.553E-03    0.726E-03
RMM:   9    -0.413166277491E+03   -0.24032E-05   -0.69159E-06  3043   0.359E-03    0.369E-03
RMM:  10    -0.413166279320E+03   -0.18292E-05   -0.21496E-06  2559   0.222E-03    0.218E-03
RMM:  11    -0.413166280959E+03   -0.16397E-05   -0.11419E-06  2540   0.160E-03    0.989E-04
RMM:  12    -0.413166281684E+03   -0.72435E-06   -0.51359E-07  2166   0.107E-03
   12 T=    61. E= -.41286616E+03 F= -.41316628E+03 E0= -.41314395E+03  EK= 0.30012E+00 SP= 0.00E+00 SK= 0.00E+00
       N       E                     dE             d eps       ncg     rms          rms(c)
RMM:   1    -0.413157921288E+03    0.83597E-02   -0.11280E+01  4298   0.747E-01    0.915E-01
RMM:   2    -0.413167709580E+03   -0.97883E-02   -0.13511E-01  4210   0.943E-02    0.632E-01
RMM:   3    -0.413167328889E+03    0.38069E-03   -0.68311E-03  4927   0.375E-02    0.174E-01
RMM:   4    -0.413198509916E+03   -0.31181E-01   -0.31681E-02  5151   0.148E-01    0.735E-01
RMM:   5    -0.413166837419E+03    0.31672E-01   -0.15458E-02  4811   0.123E-01    0.378E-02
RMM:   6    -0.413167029154E+03   -0.19173E-03   -0.25031E-03  5789   0.478E-02    0.193E-02
RMM:   7    -0.413167039155E+03   -0.10001E-04   -0.29370E-04  5870   0.141E-02    0.142E-02
RMM:   8    -0.413167036834E+03    0.23205E-05   -0.37288E-05  4470   0.538E-03    0.924E-03
RMM:   9    -0.413167032028E+03    0.48066E-05   -0.61173E-06  2976   0.279E-03    0.631E-03
RMM:  10    -0.413167027432E+03    0.45956E-05   -0.20990E-06  2556   0.215E-03    0.314E-03
RMM:  11    -0.413167024078E+03    0.33547E-05   -0.15767E-06  2539   0.188E-03    0.156E-03
RMM:  12    -0.413167021406E+03    0.26720E-05   -0.78150E-07  2441   0.142E-03    0.515E-04
RMM:  13    -0.413167020495E+03    0.91011E-06   -0.33678E-07  2076   0.961E-04
   13 T=    61. E= -.41286631E+03 F= -.41316702E+03 E0= -.41314472E+03  EK= 0.30071E+00 SP= 0.00E+00 SK= 0.00E+00
       N       E                     dE             d eps       ncg     rms          rms(c)
RMM:   1    -0.413157945013E+03    0.90764E-02   -0.11196E+01  4296   0.751E-01    0.889E-01
RMM:   2    -0.413168606338E+03   -0.10661E-01   -0.13701E-01  4219   0.960E-02    0.632E-01
RMM:   3    -0.413167811307E+03    0.79503E-03   -0.63264E-03  4838   0.374E-02    0.167E-01
RMM:   4    -0.413195376989E+03   -0.27566E-01   -0.28013E-02  5148   0.139E-01    0.693E-01
RMM:   5    -0.413167327022E+03    0.28050E-01   -0.13726E-02  4810   0.115E-01    0.341E-02
RMM:   6    -0.413167500161E+03   -0.17314E-03   -0.22053E-03  5792   0.447E-02    0.172E-02
RMM:   7    -0.413167511406E+03   -0.11245E-04   -0.25541E-04  5828   0.132E-02    0.129E-02
RMM:   8    -0.413167511390E+03    0.15902E-07   -0.32445E-05  4332   0.507E-03    0.840E-03
RMM:   9    -0.413167509634E+03    0.17554E-05   -0.52933E-06  2897   0.271E-03    0.578E-03
RMM:  10    -0.413167508945E+03    0.68941E-06   -0.19890E-06  2556   0.212E-03
   14 T=    61. E= -.41286631E+03 F= -.41316751E+03 E0= -.41314524E+03  EK= 0.30120E+00 SP= 0.00E+00 SK= 0.00E+00
       N       E                     dE             d eps       ncg     rms          rms(c)
RMM:   1    -0.413157925667E+03    0.95840E-02   -0.11287E+01  4304   0.757E-01    0.892E-01
RMM:   2    -0.413169363920E+03   -0.11438E-01   -0.13954E-01  4281   0.991E-02    0.644E-01
RMM:   3    -0.413171217373E+03   -0.18535E-02   -0.90165E-03  5123   0.656E-02    0.293E-01
RMM:   4    -0.413202669628E+03   -0.31452E-01   -0.46274E-02  5109   0.180E-01    0.774E-01
RMM:   5    -0.413167622565E+03    0.35047E-01   -0.14969E-02  4732   0.128E-01    0.511E-02
RMM:   6    -0.413167721956E+03   -0.99391E-04   -0.24615E-03  5616   0.490E-02    0.141E-02
RMM:   7    -0.413167747957E+03   -0.26001E-04   -0.31742E-04  6017   0.150E-02    0.113E-02
RMM:   8    -0.413167751288E+03   -0.33317E-05   -0.38790E-05  4582   0.546E-03    0.692E-03
RMM:   9    -0.413167753271E+03   -0.19821E-05   -0.59506E-06  2871   0.320E-03    0.340E-03
RMM:  10    -0.413167755110E+03   -0.18395E-05   -0.22626E-06  2565   0.215E-03    0.199E-03
RMM:  11    -0.413167756325E+03   -0.12145E-05   -0.10373E-06  2532   0.149E-03    0.867E-04
RMM:  12    -0.413167756906E+03   -0.58117E-06   -0.50276E-07  1949   0.104E-03
   15 T=    61. E= -.41286621E+03 F= -.41316776E+03 E0= -.41314552E+03  EK= 0.30155E+00 SP= 0.00E+00 SK= 0.00E+00
       N       E                     dE             d eps       ncg     rms          rms(c)
RMM:   1    -0.413160770660E+03    0.69857E-02   -0.11344E+01  4301   0.780E-01    0.917E-01
RMM:   2    -0.413169496910E+03   -0.87262E-02   -0.13601E-01  4240   0.102E-01    0.635E-01
RMM:   3    -0.413168933411E+03    0.56350E-03   -0.68433E-03  4911   0.393E-02    0.174E-01
RMM:   4    -0.413201501138E+03   -0.32568E-01   -0.33246E-02  5151   0.152E-01    0.751E-01
RMM:   5    -0.413168395452E+03    0.33106E-01   -0.16166E-02  4808   0.126E-01    0.381E-02
RMM:   6    -0.413168588057E+03   -0.19261E-03   -0.26029E-03  5797   0.489E-02    0.192E-02
RMM:   7    -0.413168596430E+03   -0.83728E-05   -0.30082E-04  5878   0.144E-02    0.142E-02
RMM:   8    -0.413168593541E+03    0.28896E-05   -0.38386E-05  4500   0.548E-03    0.940E-03
RMM:   9    -0.413168588091E+03    0.54493E-05   -0.61664E-06  2977   0.284E-03    0.644E-03
RMM:  10    -0.413168582666E+03    0.54257E-05   -0.21647E-06  2551   0.220E-03    0.320E-03
RMM:  11    -0.413168578546E+03    0.41196E-05   -0.16255E-06  2533   0.192E-03    0.158E-03
RMM:  12    -0.413168575389E+03    0.31571E-05   -0.78286E-07  2450   0.143E-03    0.518E-04
RMM:  13    -0.413168574284E+03    0.11051E-05   -0.34027E-07  2113   0.973E-04    0.323E-04
RMM:  14    -0.413168572722E+03    0.15616E-05   -0.21187E-07  1648   0.789E-04    0.186E-04
RMM:  15    -0.413168570175E+03    0.25469E-05   -0.20988E-07  1593   0.764E-04    0.153E-04
RMM:  16    -0.413168569582E+03    0.59311E-06   -0.81206E-08  1077   0.616E-04
   16 T=    62. E= -.41286643E+03 F= -.41316857E+03 E0= -.41314637E+03  EK= 0.30214E+00 SP= 0.00E+00 SK= 0.00E+00
       N       E                     dE             d eps       ncg     rms          rms(c)
RMM:   1    -0.413159555255E+03    0.90149E-02   -0.11242E+01  4295   0.762E-01    0.896E-01
RMM:   2    -0.413170133599E+03   -0.10578E-01   -0.13738E-01  4246   0.989E-02    0.632E-01
RMM:   3    -0.413169403862E+03    0.72974E-03   -0.64710E-03  4898   0.413E-02    0.176E-01
RMM:   4    -0.413204342234E+03   -0.34938E-01   -0.35821E-02  5141   0.157E-01    0.777E-01
RMM:   5    -0.413168843845E+03    0.35498E-01   -0.17290E-02  4797   0.130E-01    0.389E-02
RMM:   6    -0.413169049522E+03   -0.20568E-03   -0.28055E-03  5767   0.508E-02    0.185E-02
RMM:   7    -0.413169062321E+03   -0.12799E-04   -0.32342E-04  5878   0.148E-02    0.141E-02
RMM:   8    -0.413169060594E+03    0.17264E-05   -0.40033E-05  4482   0.550E-03    0.928E-03
RMM:   9    -0.413169056524E+03    0.40703E-05   -0.64603E-06  2988   0.282E-03    0.640E-03
RMM:  10    -0.413169052825E+03    0.36991E-05   -0.22407E-06  2561   0.223E-03    0.315E-03
RMM:  11    -0.413169050238E+03    0.25869E-05   -0.16043E-06  2535   0.191E-03    0.155E-03
RMM:  12    -0.413169048348E+03    0.18901E-05   -0.75837E-07  2446   0.141E-03    0.527E-04
RMM:  13    -0.413169047636E+03    0.71259E-06   -0.33615E-07  2110   0.969E-04
   17 T=    62. E= -.41286638E+03 F= -.41316905E+03 E0= -.41314689E+03  EK= 0.30267E+00 SP= 0.00E+00 SK= 0.00E+00
       N       E                     dE             d eps       ncg     rms          rms(c)
RMM:   1    -0.413159780783E+03    0.92676E-02   -0.11325E+01  4295   0.770E-01    0.890E-01
RMM:   2    -0.413171287627E+03   -0.11507E-01   -0.13999E-01  4255   0.101E-01    0.644E-01
RMM:   3    -0.413169956405E+03    0.13312E-02   -0.62872E-03  4876   0.387E-02    0.169E-01
RMM:   4    -0.413201407493E+03   -0.31451E-01   -0.32223E-02  5148   0.149E-01    0.738E-01
RMM:   5    -0.413169383728E+03    0.32024E-01   -0.15628E-02  4800   0.123E-01    0.360E-02
RMM:   6    -0.413169574416E+03   -0.19069E-03   -0.25301E-03  5785   0.482E-02    0.171E-02
RMM:   7    -0.413169588440E+03   -0.14024E-04   -0.28590E-04  5863   0.140E-02    0.133E-02
RMM:   8    -0.413169589347E+03   -0.90769E-06   -0.36537E-05  4446   0.531E-03    0.876E-03
RMM:   9    -0.413169588290E+03    0.10574E-05   -0.58629E-06  2946   0.280E-03    0.600E-03
RMM:  10    -0.413169588668E+03   -0.37769E-06   -0.22228E-06  2565   0.220E-03
   18 T=    62. E= -.41286626E+03 F= -.41316959E+03 E0= -.41314747E+03  EK= 0.30333E+00 SP= 0.00E+00 SK= 0.00E+00
       N       E                     dE             d eps       ncg     rms          rms(c)
RMM:   1    -0.413161508708E+03    0.80796E-02   -0.11386E+01  4305   0.775E-01    0.916E-01
RMM:   2    -0.413171664466E+03   -0.10156E-01   -0.13843E-01  4301   0.101E-01    0.639E-01
RMM:   3    -0.413174646531E+03   -0.29821E-02   -0.97121E-03  5128   0.681E-02    0.310E-01
RMM:   4    -0.413199890736E+03   -0.25244E-01   -0.41205E-02  5091   0.171E-01    0.711E-01
RMM:   5    -0.413170619717E+03    0.29271E-01   -0.12190E-02  4716   0.118E-01    0.493E-02
RMM:   6    -0.413170683047E+03   -0.63331E-04   -0.20432E-03  5596   0.445E-02    0.160E-02
RMM:   7    -0.413170697679E+03   -0.14631E-04   -0.26656E-04  5999   0.140E-02    0.116E-02
RMM:   8    -0.413170695714E+03    0.19649E-05   -0.33275E-05  4476   0.521E-03    0.702E-03
RMM:   9    -0.413170688205E+03    0.75090E-05   -0.56487E-06  2837   0.328E-03    0.329E-03
RMM:  10    -0.413170684344E+03    0.38612E-05   -0.18725E-06  2535   0.205E-03    0.188E-03
RMM:  11    -0.413170680552E+03    0.37913E-05   -0.86338E-07  2515   0.144E-03    0.857E-04
RMM:  12    -0.413170678227E+03    0.23255E-05   -0.43775E-07  1952   0.102E-03    0.423E-04
RMM:  13    -0.413170675441E+03    0.27856E-05   -0.34096E-07  1878   0.908E-04    0.238E-04
RMM:  14    -0.413170673878E+03    0.15630E-05   -0.18624E-07  1420   0.726E-04    0.137E-04
RMM:  15    -0.413170671007E+03    0.28715E-05   -0.20926E-07  1618   0.754E-04    0.101E-04
RMM:  16    -0.413170669394E+03    0.16129E-05   -0.11976E-07  1243   0.638E-04    0.810E-05
RMM:  17    -0.413170667142E+03    0.22521E-05   -0.11290E-07  1295   0.642E-04    0.439E-05
RMM:  18    -0.413170665564E+03    0.15780E-05   -0.67777E-08  1014   0.572E-04    0.230E-05
RMM:  19    -0.413170665159E+03    0.40439E-06   -0.33110E-08   812   0.527E-04
   19 T=    62. E= -.41286646E+03 F= -.41317067E+03 E0= -.41314859E+03  EK= 0.30420E+00 SP= 0.00E+00 SK= 0.00E+00
       N       E                     dE             d eps       ncg     rms          rms(c)
RMM:   1    -0.413163758950E+03    0.69066E-02   -0.11354E+01  4298   0.797E-01    0.905E-01
RMM:   2    -0.413172188889E+03   -0.84299E-02   -0.13614E-01  4243   0.990E-02    0.632E-01
RMM:   3    -0.413171745773E+03    0.44312E-03   -0.66584E-03  4957   0.407E-02    0.183E-01
RMM:   4    -0.413210586761E+03   -0.38841E-01   -0.40611E-02  5143   0.167E-01    0.818E-01
RMM:   5    -0.413171018943E+03    0.39568E-01   -0.19268E-02  4789   0.137E-01    0.421E-02
RMM:   6    -0.413171236566E+03   -0.21762E-03   -0.31452E-03  5753   0.539E-02    0.193E-02
RMM:   7    -0.413171250340E+03   -0.13774E-04   -0.36317E-04  5873   0.155E-02    0.148E-02
RMM:   8    -0.413171247681E+03    0.26589E-05   -0.45016E-05  4598   0.577E-03    0.971E-03
RMM:   9    -0.413171241974E+03    0.57071E-05   -0.70412E-06  3021   0.289E-03    0.663E-03
RMM:  10    -0.413171236044E+03    0.59305E-05   -0.23979E-06  2564   0.230E-03    0.319E-03
RMM:  11    -0.413171231850E+03    0.41943E-05   -0.15878E-06  2523   0.193E-03    0.158E-03
RMM:  12    -0.413171228849E+03    0.30006E-05   -0.77217E-07  2450   0.145E-03    0.524E-04
RMM:  13    -0.413171227780E+03    0.10693E-05   -0.34464E-07  2132   0.993E-04    0.330E-04
RMM:  14    -0.413171226476E+03    0.13039E-05   -0.19376E-07  1639   0.783E-04    0.188E-04
RMM:  15    -0.413171224098E+03    0.23780E-05   -0.17514E-07  1539   0.746E-04    0.137E-04
RMM:  16    -0.413171223564E+03    0.53390E-06   -0.72950E-08  1056   0.618E-04
   20 T=    62. E= -.41286630E+03 F= -.41317122E+03 E0= -.41314919E+03  EK= 0.30492E+00 SP= 0.00E+00 SK= 0.00E+00
       N       E                     dE             d eps       ncg     rms          rms(c)
RMM:   1    -0.413162412147E+03    0.88120E-02   -0.11377E+01  4298   0.786E-01    0.891E-01
RMM:   2    -0.413173521825E+03   -0.11110E-01   -0.14174E-01  4258   0.103E-01    0.644E-01
RMM:   3    -0.413172460681E+03    0.10611E-02   -0.63951E-03  4906   0.406E-02    0.176E-01
RMM:   4    -0.413209100314E+03   -0.36640E-01   -0.37926E-02  5142   0.161E-01    0.795E-01
RMM:   5    -0.413171748435E+03    0.37352E-01   -0.18326E-02  4796   0.133E-01    0.389E-02
RMM:   6    -0.413171962360E+03   -0.21393E-03   -0.29628E-03  5793   0.523E-02    0.178E-02
RMM:   7    -0.413171978507E+03   -0.16147E-04   -0.33765E-04  5883   0.151E-02    0.139E-02
RMM:   8    -0.413171978501E+03    0.67521E-08   -0.43311E-05  4559   0.566E-03    0.934E-03
RMM:   9    -0.413171975941E+03    0.25598E-05   -0.66967E-06  2999   0.288E-03    0.652E-03
RMM:  10    -0.413171974502E+03    0.14389E-05   -0.24125E-06  2572   0.233E-03    0.321E-03
RMM:  11    -0.413171973771E+03    0.73097E-06   -0.17446E-06  2545   0.197E-03
   21 T=    62. E= -.41286619E+03 F= -.41317197E+03 E0= -.41314999E+03  EK= 0.30578E+00 SP= 0.00E+00 SK= 0.00E+00
       N       E                     dE             d eps       ncg     rms          rms(c)
RMM:   1    -0.413163580936E+03    0.83936E-02   -0.11459E+01  4299   0.788E-01    0.913E-01
RMM:   2    -0.413174300109E+03   -0.10719E-01   -0.14048E-01  4281   0.101E-01    0.644E-01
RMM:   3    -0.413174464312E+03   -0.16420E-03   -0.72779E-03  5031   0.500E-02    0.216E-01
RMM:   4    -0.413219713718E+03   -0.45249E-01   -0.50985E-02  5127   0.187E-01    0.887E-01
RMM:   5    -0.413173040189E+03    0.46674E-01   -0.22011E-02  4775   0.149E-01    0.476E-02
RMM:   6    -0.413173264055E+03   -0.22387E-03   -0.36070E-03  5745   0.582E-02    0.184E-02
RMM:   7    -0.413173285289E+03   -0.21234E-04   -0.42696E-04  5958   0.168E-02    0.151E-02
RMM:   8    -0.413173283165E+03    0.21237E-05   -0.51349E-05  4745   0.609E-03    0.975E-03
RMM:   9    -0.413173277242E+03    0.59230E-05   -0.75154E-06  3037   0.297E-03    0.616E-03
RMM:  10    -0.413173271401E+03    0.58411E-05   -0.27022E-06  2581   0.240E-03    0.286E-03
RMM:  11    -0.413173267152E+03    0.42490E-05   -0.14186E-06  2515   0.184E-03    0.136E-03
RMM:  12    -0.413173263843E+03    0.33095E-05   -0.75768E-07  2450   0.138E-03    0.444E-04
RMM:  13    -0.413173262039E+03    0.18037E-05   -0.33989E-07  2097   0.973E-04    0.300E-04
RMM:  14    -0.413173259432E+03    0.26071E-05   -0.23097E-07  1674   0.808E-04    0.203E-04
RMM:  15    -0.413173257346E+03    0.20855E-05   -0.14767E-07  1417   0.710E-04    0.103E-04
RMM:  16    -0.413173256382E+03    0.96446E-06   -0.84118E-08  1158   0.629E-04
   22 T=    62. E= -.41286657E+03 F= -.41317326E+03 E0= -.41315131E+03  EK= 0.30669E+00 SP= 0.00E+00 SK= 0.00E+00
       N       E                     dE             d eps       ncg     rms          rms(c)
RMM:   1    -0.413164590173E+03    0.86672E-02   -0.11448E+01  4299   0.791E-01    0.916E-01
RMM:   2    -0.413174872276E+03   -0.10282E-01   -0.13878E-01  4272   0.106E-01    0.636E-01
RMM:   3    -0.413174408086E+03    0.46419E-03   -0.68190E-03  4883   0.444E-02    0.185E-01
RMM:   4    -0.413212425774E+03   -0.38018E-01   -0.39322E-02  5143   0.165E-01    0.810E-01
RMM:   5    -0.413173677588E+03    0.38748E-01   -0.18915E-02  4791   0.136E-01    0.412E-02
RMM:   6    -0.413173889989E+03   -0.21240E-03   -0.31222E-03  5783   0.534E-02    0.201E-02
RMM:   7    -0.413173902506E+03   -0.12516E-04   -0.35132E-04  5881   0.156E-02    0.150E-02
RMM:   8    -0.413173898691E+03    0.38148E-05   -0.45278E-05  4627   0.589E-03    0.101E-02
RMM:   9    -0.413173891288E+03    0.74033E-05   -0.72455E-06  3052   0.303E-03    0.694E-03
RMM:  10    -0.413173883068E+03    0.82195E-05   -0.24205E-06  2559   0.242E-03    0.345E-03
RMM:  11    -0.413173876504E+03    0.65643E-05   -0.17111E-06  2530   0.202E-03    0.173E-03
RMM:  12    -0.413173871833E+03    0.46705E-05   -0.84146E-07  2462   0.151E-03    0.558E-04
RMM:  13    -0.413173870182E+03    0.16511E-05   -0.36394E-07  2161   0.102E-03    0.355E-04
RMM:  14    -0.413173868174E+03    0.20080E-05   -0.20135E-07  1678   0.796E-04    0.203E-04
RMM:  15    -0.413173864278E+03    0.38962E-05   -0.18809E-07  1703   0.771E-04    0.175E-04
RMM:  16    -0.413173863599E+03    0.67936E-06   -0.74435E-08  1069   0.606E-04
   23 T=    63. E= -.41286629E+03 F= -.41317386E+03 E0= -.41315197E+03  EK= 0.30757E+00 SP= 0.00E+00 SK= 0.00E+00
       N       E                     dE             d eps       ncg     rms          rms(c)
RMM:   1    -0.413165552181E+03    0.83121E-02   -0.11445E+01  4293   0.795E-01    0.894E-01
RMM:   2    -0.413177066114E+03   -0.11514E-01   -0.14241E-01  4265   0.106E-01    0.643E-01
RMM:   3    -0.413175811314E+03    0.12548E-02   -0.62872E-03  4830   0.412E-02    0.173E-01
RMM:   4    -0.413206291303E+03   -0.30480E-01   -0.31051E-02  5155   0.146E-01    0.726E-01
RMM:   5    -0.413175329678E+03    0.30962E-01   -0.15323E-02  4802   0.122E-01    0.348E-02
RMM:   6    -0.413175497579E+03   -0.16790E-03   -0.24493E-03  5793   0.473E-02    0.174E-02
RMM:   7    -0.413175509502E+03   -0.11923E-04   -0.26536E-04  5822   0.137E-02    0.128E-02
RMM:   8    -0.413175508543E+03    0.95841E-06   -0.36494E-05  4496   0.533E-03    0.902E-03
RMM:   9    -0.413175504192E+03    0.43513E-05   -0.60166E-06  2990   0.286E-03    0.621E-03
RMM:  10    -0.413175501004E+03    0.31880E-05   -0.20592E-06  2561   0.220E-03    0.317E-03
RMM:  11    -0.413175498632E+03    0.23724E-05   -0.16061E-06  2540   0.192E-03    0.159E-03
RMM:  12    -0.413175496833E+03    0.17984E-05   -0.71298E-07  2429   0.139E-03    0.566E-04
RMM:  13    -0.413175496189E+03    0.64434E-06   -0.31057E-07  2083   0.947E-04
   24 T=    63. E= -.41286662E+03 F= -.41317550E+03 E0= -.41315365E+03  EK= 0.30888E+00 SP= 0.00E+00 SK= 0.00E+00
       N       E                     dE             d eps       ncg     rms          rms(c)
RMM:   1    -0.413167006344E+03    0.84905E-02   -0.11563E+01  4297   0.809E-01    0.910E-01
RMM:   2    -0.413177976394E+03   -0.10970E-01   -0.14213E-01  4273   0.106E-01    0.649E-01
RMM:   3    -0.413176760021E+03    0.12164E-02   -0.64399E-03  4804   0.427E-02    0.174E-01
RMM:   4    -0.413207272436E+03   -0.30512E-01   -0.30862E-02  5151   0.147E-01    0.726E-01
RMM:   5    -0.413176322625E+03    0.30950E-01   -0.15297E-02  4803   0.121E-01    0.347E-02
RMM:   6    -0.413176481151E+03   -0.15853E-03   -0.23871E-03  5802   0.472E-02    0.178E-02
RMM:   7    -0.413176490805E+03   -0.96538E-05   -0.25630E-04  5810   0.136E-02    0.128E-02
RMM:   8    -0.413176488661E+03    0.21438E-05   -0.35859E-05  4511   0.533E-03    0.913E-03
RMM:   9    -0.413176482811E+03    0.58498E-05   -0.61040E-06  3011   0.291E-03    0.624E-03
RMM:  10    -0.413176477694E+03    0.51168E-05   -0.20606E-06  2559   0.224E-03    0.315E-03
RMM:  11    -0.413176473591E+03    0.41032E-05   -0.16268E-06  2537   0.194E-03    0.157E-03
RMM:  12    -0.413176470672E+03    0.29193E-05   -0.70409E-07  2425   0.139E-03    0.544E-04
RMM:  13    -0.413176469599E+03    0.10729E-05   -0.30932E-07  2061   0.939E-04    0.333E-04
RMM:  14    -0.413176468107E+03    0.14912E-05   -0.17580E-07  1575   0.758E-04    0.190E-04
RMM:  15    -0.413176465362E+03    0.27457E-05   -0.16351E-07  1608   0.746E-04    0.187E-04
RMM:  16    -0.413176464766E+03    0.59620E-06   -0.63458E-08   993   0.595E-04
   25 T=    63. E= -.41286653E+03 F= -.41317646E+03 E0= -.41315467E+03  EK= 0.30994E+00 SP= 0.00E+00 SK= 0.00E+00
       N       E                     dE             d eps       ncg     rms          rms(c)
RMM:   1    -0.413168071076E+03    0.83943E-02   -0.11588E+01  4293   0.812E-01    0.925E-01
RMM:   2    -0.413178296747E+03   -0.10226E-01   -0.14143E-01  4269   0.110E-01    0.640E-01
RMM:   3    -0.413177758718E+03    0.53803E-03   -0.67226E-03  4747   0.410E-02    0.176E-01
RMM:   4    -0.413203610947E+03   -0.25852E-01   -0.26093E-02  5151   0.135E-01    0.671E-01
RMM:   5    -0.413177372239E+03    0.26239E-01   -0.13054E-02  4804   0.112E-01    0.337E-02
RMM:   6    -0.413177505337E+03   -0.13310E-03   -0.20604E-03  5806   0.433E-02    0.179E-02
RMM:   7    -0.413177510682E+03   -0.53452E-05   -0.21071E-04  5664   0.124E-02    0.119E-02
RMM:   8    -0.413177505937E+03    0.47454E-05   -0.29412E-05  4284   0.489E-03    0.869E-03
RMM:   9    -0.413177498022E+03    0.79144E-05   -0.59302E-06  3026   0.289E-03    0.596E-03
RMM:  10    -0.413177489869E+03    0.81529E-05   -0.17632E-06  2532   0.217E-03    0.313E-03
RMM:  11    -0.413177481763E+03    0.81061E-05   -0.15012E-06  2517   0.192E-03    0.157E-03
RMM:  12    -0.413177476434E+03    0.53297E-05   -0.65556E-07  2420   0.138E-03    0.553E-04
RMM:  13    -0.413177474693E+03    0.17404E-05   -0.28074E-07  2032   0.920E-04    0.343E-04
RMM:  14    -0.413177472545E+03    0.21482E-05   -0.14631E-07  1485   0.731E-04    0.192E-04
RMM:  15    -0.413177467580E+03    0.49647E-05   -0.16920E-07  1793   0.769E-04    0.260E-04
RMM:  16    -0.413177466778E+03    0.80195E-06   -0.54216E-08   960   0.574E-04
   26 T=    63. E= -.41286624E+03 F= -.41317747E+03 E0= -.41315572E+03  EK= 0.31123E+00 SP= 0.00E+00 SK= 0.00E+00
       N       E                     dE             d eps       ncg     rms          rms(c)
RMM:   1    -0.413169331670E+03    0.81359E-02   -0.11560E+01  4290   0.814E-01    0.900E-01
RMM:   2    -0.413180607988E+03   -0.11276E-01   -0.14305E-01  4266   0.105E-01    0.643E-01
RMM:   3    -0.413179647326E+03    0.96066E-03   -0.63084E-03  4644   0.407E-02    0.170E-01
RMM:   4    -0.413198562638E+03   -0.18915E-01   -0.19023E-02  5160   0.115E-01    0.575E-01
RMM:   5    -0.413179425938E+03    0.19137E-01   -0.95508E-03  4810   0.951E-02    0.278E-02
RMM:   6    -0.413179518773E+03   -0.92835E-04   -0.14778E-03  5833   0.365E-02    0.152E-02
RMM:   7    -0.413179523195E+03   -0.44215E-05   -0.14148E-04  5439   0.103E-02    0.959E-03
RMM:   8    -0.413179518815E+03    0.43801E-05   -0.17217E-05  3601   0.386E-03    0.655E-03
RMM:   9    -0.413179513181E+03    0.56333E-05   -0.36639E-06  2708   0.250E-03    0.386E-03
RMM:  10    -0.413179511190E+03    0.19916E-05   -0.13507E-06  2524   0.180E-03    0.252E-03
RMM:  11    -0.413179506550E+03    0.46393E-05   -0.10517E-06  2503   0.167E-03    0.124E-03
RMM:  12    -0.413179504251E+03    0.22998E-05   -0.46572E-07  2326   0.116E-03    0.512E-04
RMM:  13    -0.413179503135E+03    0.11159E-05   -0.20411E-07  1687   0.810E-04    0.269E-04
RMM:  14    -0.413179500779E+03    0.23556E-05   -0.16039E-07  1583   0.750E-04    0.168E-04
RMM:  15    -0.413179499074E+03    0.17054E-05   -0.91815E-08  1215   0.649E-04    0.108E-04
RMM:  16    -0.413179498117E+03    0.95626E-06   -0.51134E-08   989   0.593E-04
   27 T=    64. E= -.41286656E+03 F= -.41317950E+03 E0= -.41315780E+03  EK= 0.31294E+00 SP= 0.00E+00 SK= 0.00E+00
       N       E                     dE             d eps       ncg     rms          rms(c)
RMM:   1    -0.413172844129E+03    0.66549E-02   -0.11721E+01  4293   0.842E-01    0.909E-01
RMM:   2    -0.413181696852E+03   -0.88527E-02   -0.14714E-01  4265   0.109E-01    0.655E-01
RMM:   3    -0.413180641560E+03    0.10553E-02   -0.64485E-03  4611   0.421E-02    0.170E-01
RMM:   4    -0.413198087776E+03   -0.17446E-01   -0.17746E-02  5160   0.113E-01    0.555E-01
RMM:   5    -0.413180296984E+03    0.17791E-01   -0.87990E-03  4810   0.916E-02    0.266E-02
RMM:   6    -0.413180379460E+03   -0.82476E-04   -0.13680E-03  5844   0.350E-02    0.146E-02
RMM:   7    -0.413180384319E+03   -0.48594E-05   -0.12721E-04  5382   0.994E-03    0.934E-03
RMM:   8    -0.413180379797E+03    0.45225E-05   -0.15495E-05  3553   0.378E-03    0.633E-03
RMM:   9    -0.413180377194E+03    0.26024E-05   -0.45632E-06  2841   0.271E-03    0.438E-03
RMM:  10    -0.413180373904E+03    0.32900E-05   -0.12506E-06  2523   0.188E-03    0.249E-03
RMM:  11    -0.413180370032E+03    0.38725E-05   -0.11634E-06  2511   0.169E-03    0.124E-03
RMM:  12    -0.413180367882E+03    0.21496E-05   -0.46872E-07  2355   0.117E-03    0.478E-04
RMM:  13    -0.413180367075E+03    0.80746E-06   -0.19146E-07  1681   0.792E-04
   28 T=    64. E= -.41286602E+03 F= -.41318037E+03 E0= -.41315872E+03  EK= 0.31435E+00 SP= 0.00E+00 SK= 0.00E+00
       N       E                     dE             d eps       ncg     rms          rms(c)
RMM:   1    -0.413173197471E+03    0.71704E-02   -0.11775E+01  4288   0.842E-01    0.934E-01
RMM:   2    -0.413183500879E+03   -0.10303E-01   -0.14428E-01  4266   0.113E-01    0.647E-01
RMM:   3    -0.413182746857E+03    0.75402E-03   -0.67894E-03  4371   0.410E-02    0.171E-01
RMM:   4    -0.413187397062E+03   -0.46502E-02   -0.51177E-03  5167   0.612E-02    0.286E-01
RMM:   5    -0.413182759492E+03    0.46376E-02   -0.22694E-03  4819   0.468E-02    0.213E-02
RMM:   6    -0.413182763856E+03   -0.43646E-05   -0.38644E-04  5787   0.189E-02    0.148E-02
RMM:   7    -0.413182756151E+03    0.77049E-05   -0.57137E-05  5081   0.747E-03    0.770E-03
RMM:   8    -0.413182746550E+03    0.96011E-05   -0.64255E-06  2975   0.317E-03    0.354E-03
RMM:   9    -0.413182740367E+03    0.61832E-05   -0.13603E-06  2536   0.185E-03    0.226E-03
RMM:  10    -0.413182733090E+03    0.72767E-05   -0.70863E-07  2455   0.136E-03    0.124E-03
RMM:  11    -0.413182726962E+03    0.61287E-05   -0.43965E-07  2202   0.106E-03    0.469E-04
RMM:  12    -0.413182722496E+03    0.44657E-05   -0.23172E-07  1692   0.831E-04    0.197E-04
RMM:  13    -0.413182719075E+03    0.34211E-05   -0.13478E-07  1298   0.706E-04    0.114E-04
RMM:  14    -0.413182714657E+03    0.44179E-05   -0.11961E-07  1460   0.704E-04    0.955E-05
RMM:  15    -0.413182711148E+03    0.35093E-05   -0.90489E-08  1326   0.639E-04    0.934E-05
RMM:  16    -0.413182708687E+03    0.24608E-05   -0.60131E-08  1077   0.578E-04    0.383E-05
RMM:  17    -0.413182706988E+03    0.16991E-05   -0.43414E-08   954   0.550E-04    0.239E-05
RMM:  18    -0.413182706582E+03    0.40571E-06   -0.20951E-08   735   0.512E-04
   29 T=    64. E= -.41286651E+03 F= -.41318271E+03 E0= -.41316111E+03  EK= 0.31620E+00 SP= 0.00E+00 SK= 0.00E+00
       N       E                     dE             d eps       ncg     rms          rms(c)
RMM:   1    -0.413174515320E+03    0.81917E-02   -0.11732E+01  4288   0.849E-01    0.911E-01
RMM:   2    -0.413185553595E+03   -0.11038E-01   -0.14695E-01  4264   0.110E-01    0.646E-01
RMM:   3    -0.413184471226E+03    0.10824E-02   -0.64172E-03  4448   0.429E-02    0.172E-01
RMM:   4    -0.413192549726E+03   -0.80785E-02   -0.85680E-03  5147   0.804E-02    0.381E-01
RMM:   5    -0.413184301737E+03    0.82480E-02   -0.40751E-03  4820   0.624E-02    0.214E-02
RMM:   6    -0.413184323515E+03   -0.21778E-04   -0.64296E-04  5826   0.240E-02    0.140E-02
RMM:   7    -0.413184321594E+03    0.19215E-05   -0.78037E-05  5294   0.838E-03    0.912E-03
RMM:   8    -0.413184314152E+03    0.74412E-05   -0.95338E-06  3250   0.361E-03    0.473E-03
RMM:   9    -0.413184309036E+03    0.51160E-05   -0.20743E-06  2581   0.220E-03    0.291E-03
RMM:  10    -0.413184303767E+03    0.52694E-05   -0.87431E-07  2496   0.152E-03    0.160E-03
RMM:  11    -0.413184299239E+03    0.45282E-05   -0.54684E-07  2365   0.120E-03    0.683E-04
RMM:  12    -0.413184295852E+03    0.33870E-05   -0.29415E-07  1949   0.914E-04    0.242E-04
RMM:  13    -0.413184294002E+03    0.18499E-05   -0.14494E-07  1326   0.717E-04    0.145E-04
RMM:  14    -0.413184291290E+03    0.27118E-05   -0.10954E-07  1272   0.684E-04    0.991E-05
RMM:  15    -0.413184288729E+03    0.25611E-05   -0.85064E-08  1237   0.652E-04    0.695E-05
RMM:  16    -0.413184287272E+03    0.14571E-05   -0.51792E-08  1025   0.597E-04    0.491E-05
RMM:  17    -0.413184284587E+03    0.26847E-05   -0.60504E-08  1189   0.610E-04    0.262E-05
RMM:  18    -0.413184284102E+03    0.48468E-06   -0.22735E-08   763   0.524E-04
   30 T=    65. E= -.41286641E+03 F= -.41318428E+03 E0= -.41316274E+03  EK= 0.31787E+00 SP= 0.00E+00 SK= 0.00E+00
       N       E                     dE             d eps       ncg     rms          rms(c)
RMM:   1    -0.413180928724E+03    0.33559E-02   -0.11912E+01  4289   0.902E-01    0.911E-01
RMM:   2    -0.413188059746E+03   -0.71310E-02   -0.15165E-01  4266   0.122E-01    0.660E-01
RMM:   3    -0.413186133992E+03    0.19258E-02   -0.62726E-03  4383   0.402E-02    0.168E-01
RMM:   4    -0.413190372233E+03   -0.42382E-02   -0.49035E-03  5137   0.604E-02    0.274E-01
RMM:   5    -0.413186121337E+03    0.42509E-02   -0.20973E-03  4818   0.448E-02    0.181E-02
RMM:   6    -0.413186125204E+03   -0.38672E-05   -0.33214E-04  5758   0.179E-02    0.127E-02
RMM:   7    -0.413186123172E+03    0.20319E-05   -0.47096E-05  4929   0.692E-03    0.687E-03
RMM:   8    -0.413186117932E+03    0.52399E-05   -0.65353E-06  3015   0.321E-03    0.321E-03
RMM:   9    -0.413186115517E+03    0.24150E-05   -0.12714E-06  2526   0.183E-03    0.191E-03
RMM:  10    -0.413186112592E+03    0.29254E-05   -0.63380E-07  2341   0.123E-03    0.109E-03
RMM:  11    -0.413186109844E+03    0.27473E-05   -0.40912E-07  2101   0.994E-04    0.430E-04
RMM:  12    -0.413186107698E+03    0.21465E-05   -0.22992E-07  1563   0.802E-04    0.175E-04
RMM:  13    -0.413186106137E+03    0.15608E-05   -0.13459E-07  1227   0.698E-04    0.109E-04
RMM:  14    -0.413186104251E+03    0.18858E-05   -0.10785E-07  1263   0.671E-04    0.601E-05
RMM:  15    -0.413186102356E+03    0.18955E-05   -0.86056E-08  1220   0.641E-04    0.598E-05
RMM:  16    -0.413186101455E+03    0.90107E-06   -0.44005E-08   889   0.570E-04
   31 T=    65. E= -.41286647E+03 F= -.41318610E+03 E0= -.41316460E+03  EK= 0.31963E+00 SP= 0.00E+00 SK= 0.00E+00
       N       E                     dE             d eps       ncg     rms          rms(c)
RMM:   1    -0.413190408554E+03   -0.43062E-02   -0.12089E+01  4294   0.929E-01    0.939E-01
RMM:   2    -0.413189733438E+03    0.67512E-03   -0.15499E-01  4262   0.118E-01    0.655E-01
RMM:   3    -0.413188894301E+03    0.83914E-03   -0.68602E-03  4267   0.498E-02    0.180E-01
RMM:   4    -0.413191139638E+03   -0.22453E-02   -0.30066E-03  5098   0.493E-02    0.199E-01
RMM:   5    -0.413188911985E+03    0.22277E-02   -0.10603E-03  4784   0.327E-02    0.201E-02
RMM:   6    -0.413188905300E+03    0.66855E-05   -0.19852E-04  5666   0.145E-02    0.144E-02
RMM:   7    -0.413188892923E+03    0.12377E-04   -0.34308E-05  4599   0.639E-03    0.547E-03
RMM:   8    -0.413188883477E+03    0.94462E-05   -0.48655E-06  2885   0.304E-03    0.278E-03
RMM:   9    -0.413188879061E+03    0.44165E-05   -0.86125E-07  2483   0.168E-03    0.162E-03
RMM:  10    -0.413188871938E+03    0.71229E-05   -0.52865E-07  2336   0.117E-03    0.845E-04
RMM:  11    -0.413188866950E+03    0.49872E-05   -0.28905E-07  1797   0.882E-04    0.348E-04
RMM:  12    -0.413188862126E+03    0.48242E-05   -0.18912E-07  1578   0.780E-04    0.159E-04
RMM:  13    -0.413188858113E+03    0.40132E-05   -0.12313E-07  1340   0.690E-04    0.937E-05
RMM:  14    -0.413188854478E+03    0.36349E-05   -0.90518E-08  1242   0.642E-04    0.665E-05
RMM:  15    -0.413188850356E+03    0.41224E-05   -0.79569E-08  1211   0.625E-04    0.518E-05
RMM:  16    -0.413188848058E+03    0.22975E-05   -0.48537E-08  1000   0.576E-04    0.356E-05
RMM:  17    -0.413188846919E+03    0.11388E-05   -0.32522E-08   836   0.538E-04    0.169E-05
RMM:  18    -0.413188846553E+03    0.36672E-06   -0.18278E-08   695   0.515E-04
   32 T=    66. E= -.41286693E+03 F= -.41318885E+03 E0= -.41316740E+03  EK= 0.32192E+00 SP= 0.00E+00 SK= 0.00E+00
       N       E                     dE             d eps       ncg     rms          rms(c)
RMM:   1    -0.413188288217E+03    0.55870E-03   -0.12025E+01  4293   0.932E-01    0.925E-01
RMM:   2    -0.413192065384E+03   -0.37772E-02   -0.15568E-01  4271   0.131E-01    0.651E-01
RMM:   3    -0.413190779130E+03    0.12863E-02   -0.63628E-03  4174   0.389E-02    0.181E-01
RMM:   4    -0.413191157277E+03   -0.37815E-03   -0.14149E-03  5005   0.308E-02    0.864E-02
RMM:   5    -0.413190748740E+03    0.40854E-03   -0.20819E-04  4728   0.150E-02    0.190E-02
RMM:   6    -0.413190737483E+03    0.11257E-04   -0.74474E-05  5307   0.923E-03    0.133E-02
RMM:   7    -0.413190724725E+03    0.12758E-04   -0.16693E-05  3734   0.506E-03    0.397E-03
RMM:   8    -0.413190717170E+03    0.75552E-05   -0.28618E-06  2626   0.257E-03    0.223E-03
RMM:   9    -0.413190713742E+03    0.34273E-05   -0.60083E-07  2352   0.145E-03    0.127E-03
RMM:  10    -0.413190707834E+03    0.59084E-05   -0.35398E-07  1968   0.984E-04    0.568E-04
RMM:  11    -0.413190701950E+03    0.58840E-05   -0.21707E-07  1586   0.783E-04    0.217E-04
RMM:  12    -0.413190698814E+03    0.31357E-05   -0.10352E-07  1302   0.657E-04    0.142E-04
RMM:  13    -0.413190693018E+03    0.57969E-05   -0.10205E-07  1329   0.660E-04    0.767E-05
RMM:  14    -0.413190689594E+03    0.34238E-05   -0.52681E-08   988   0.577E-04    0.672E-05
RMM:  15    -0.413190687616E+03    0.19781E-05   -0.31091E-08   812   0.536E-04    0.464E-05
RMM:  16    -0.413190684605E+03    0.30106E-05   -0.38476E-08   944   0.562E-04    0.292E-05
RMM:  17    -0.413190684120E+03    0.48499E-06   -0.11085E-08   580   0.489E-04
   33 T=    66. E= -.41286662E+03 F= -.41319068E+03 E0= -.41316928E+03  EK= 0.32407E+00 SP= 0.00E+00 SK= 0.00E+00
       N       E                     dE             d eps       ncg     rms          rms(c)
RMM:   1    -0.413184423294E+03    0.62613E-02   -0.12095E+01  4288   0.922E-01    0.916E-01
RMM:   2    -0.413194840818E+03   -0.10418E-01   -0.15737E-01  4258   0.127E-01    0.665E-01
RMM:   3    -0.413193272907E+03    0.15679E-02   -0.62747E-03  4400   0.442E-02    0.177E-01
RMM:   4    -0.413198884534E+03   -0.56116E-02   -0.62297E-03  5152   0.697E-02    0.317E-01
RMM:   5    -0.413193242252E+03    0.56423E-02   -0.27368E-03  4803   0.518E-02    0.204E-02
RMM:   6    -0.413193231777E+03    0.10475E-04   -0.43626E-04  5758   0.212E-02    0.132E-02
RMM:   7    -0.413193231255E+03    0.52184E-06   -0.58876E-05  5073   0.779E-03    0.764E-03
RMM:   8    -0.413193226087E+03    0.51684E-05   -0.88747E-06  3282   0.360E-03    0.381E-03
RMM:   9    -0.413193222996E+03    0.30907E-05   -0.16932E-06  2560   0.208E-03    0.206E-03
RMM:  10    -0.413193219608E+03    0.33876E-05   -0.69351E-07  2407   0.133E-03    0.114E-03
RMM:  11    -0.413193216232E+03    0.33768E-05   -0.44803E-07  2217   0.107E-03    0.507E-04
RMM:  12    -0.413193213294E+03    0.29377E-05   -0.27431E-07  1801   0.861E-04    0.193E-04
RMM:  13    -0.413193211787E+03    0.15073E-05   -0.13474E-07  1211   0.692E-04    0.124E-04
RMM:  14    -0.413193210008E+03    0.17790E-05   -0.99814E-08  1131   0.659E-04    0.684E-05
RMM:  15    -0.413193207986E+03    0.20221E-05   -0.81779E-08  1152   0.647E-04    0.495E-05
RMM:  16    -0.413193207295E+03    0.69044E-06   -0.45105E-08   905   0.586E-04
   34 T=    66. E= -.41286674E+03 F= -.41319321E+03 E0= -.41317185E+03  EK= 0.32647E+00 SP= 0.00E+00 SK= 0.00E+00
       N       E                     dE             d eps       ncg     rms          rms(c)
RMM:   1    -0.413187117006E+03    0.60910E-02   -0.12222E+01  4299   0.953E-01    0.943E-01
RMM:   2    -0.413197087441E+03   -0.99704E-02   -0.15947E-01  4255   0.135E-01    0.664E-01
RMM:   3    -0.413195977491E+03    0.11099E-02   -0.65541E-03  4524   0.435E-02    0.185E-01
RMM:   4    -0.413205481041E+03   -0.95036E-02   -0.10040E-02  5165   0.858E-02    0.415E-01
RMM:   5    -0.413195751606E+03    0.97294E-02   -0.49314E-03  4812   0.684E-02    0.246E-02
RMM:   6    -0.413195744068E+03    0.75380E-05   -0.78005E-04  5787   0.270E-02    0.148E-02
RMM:   7    -0.413195742767E+03    0.13017E-05   -0.10176E-04  5355   0.914E-03    0.940E-03
RMM:   8    -0.413195734701E+03    0.80657E-05   -0.12645E-05  3530   0.387E-03    0.503E-03
RMM:   9    -0.413195728040E+03    0.66609E-05   -0.24064E-06  2612   0.231E-03    0.280E-03
RMM:  10    -0.413195720771E+03    0.72691E-05   -0.93603E-07  2495   0.155E-03    0.146E-03
RMM:  11    -0.413195714202E+03    0.65692E-05   -0.57689E-07  2392   0.121E-03    0.680E-04
RMM:  12    -0.413195708595E+03    0.56064E-05   -0.32494E-07  2084   0.953E-04    0.236E-04
RMM:  13    -0.413195706055E+03    0.25399E-05   -0.15102E-07  1342   0.725E-04    0.158E-04
RMM:  14    -0.413195702196E+03    0.38594E-05   -0.10752E-07  1203   0.679E-04    0.104E-04
RMM:  15    -0.413195698290E+03    0.39058E-05   -0.87779E-08  1259   0.666E-04    0.668E-05
RMM:  16    -0.413195696486E+03    0.18040E-05   -0.54435E-08  1047   0.605E-04    0.533E-05
RMM:  17    -0.413195692497E+03    0.39895E-05   -0.59949E-08  1246   0.623E-04    0.341E-05
RMM:  18    -0.413195691469E+03    0.10273E-05   -0.26693E-08   834   0.539E-04    0.179E-05
RMM:  19    -0.413195691260E+03    0.20959E-06   -0.15192E-08   687   0.515E-04
   35 T=    67. E= -.41286665E+03 F= -.41319569E+03 E0= -.41317438E+03  EK= 0.32904E+00 SP= 0.00E+00 SK= 0.00E+00
       N       E                     dE             d eps       ncg     rms          rms(c)
RMM:   1    -0.413189395470E+03    0.62960E-02   -0.12259E+01  4298   0.965E-01    0.942E-01
RMM:   2    -0.413198971084E+03   -0.95756E-02   -0.15768E-01  4250   0.121E-01    0.658E-01
RMM:   3    -0.413198217562E+03    0.75352E-03   -0.68200E-03  4828   0.448E-02    0.196E-01
RMM:   4    -0.413228880042E+03   -0.30662E-01   -0.30928E-02  5164   0.147E-01    0.730E-01
RMM:   5    -0.413197850486E+03    0.31030E-01   -0.15611E-02  4803   0.122E-01    0.370E-02
RMM:   6    -0.413197908370E+03   -0.57884E-04   -0.24637E-03  5866   0.462E-02    0.185E-02
RMM:   7    -0.413197920089E+03   -0.11719E-04   -0.25159E-04  5777   0.135E-02    0.130E-02
RMM:   8    -0.413197913378E+03    0.67106E-05   -0.32787E-05  4394   0.519E-03    0.888E-03
RMM:   9    -0.413197907156E+03    0.62222E-05   -0.77867E-06  3256   0.331E-03    0.586E-03
RMM:  10    -0.413197896918E+03    0.10238E-04   -0.22023E-06  2550   0.248E-03    0.267E-03
RMM:  11    -0.413197889285E+03    0.76326E-05   -0.14218E-06  2509   0.188E-03    0.147E-03
RMM:  12    -0.413197881934E+03    0.73517E-05   -0.66396E-07  2441   0.144E-03    0.548E-04
RMM:  13    -0.413197879307E+03    0.26266E-05   -0.28431E-07  2101   0.953E-04    0.366E-04
RMM:  14    -0.413197876905E+03    0.24023E-05   -0.13425E-07  1478   0.723E-04    0.212E-04
RMM:  15    -0.413197870663E+03    0.62421E-05   -0.12011E-07  1614   0.724E-04    0.205E-04
RMM:  16    -0.413197869680E+03    0.98297E-06   -0.44206E-08   917   0.577E-04
   36 T=    67. E= -.41286647E+03 F= -.41319787E+03 E0= -.41317661E+03  EK= 0.33140E+00 SP= 0.00E+00 SK= 0.00E+00
       N       E                     dE             d eps       ncg     rms          rms(c)
RMM:   1    -0.413190721206E+03    0.71495E-02   -0.12315E+01  4302   0.990E-01    0.924E-01
RMM:   2    -0.413202548745E+03   -0.11828E-01   -0.16427E-01  4250   0.136E-01    0.670E-01
RMM:   3    -0.413201366483E+03    0.11823E-02   -0.66001E-03  4813   0.519E-02    0.204E-01
RMM:   4    -0.413242682626E+03   -0.41316E-01   -0.42110E-02  5160   0.171E-01    0.844E-01
RMM:   5    -0.413200713024E+03    0.41970E-01   -0.21232E-02  4801   0.141E-01    0.401E-02
RMM:   6    -0.413200815965E+03   -0.10294E-03   -0.32053E-03  5858   0.532E-02    0.190E-02
RMM:   7    -0.413200832030E+03   -0.16065E-04   -0.31736E-04  5739   0.150E-02    0.130E-02
RMM:   8    -0.413200827765E+03    0.42652E-05   -0.35163E-05  3979   0.494E-03    0.869E-03
RMM:   9    -0.413200822138E+03    0.56271E-05   -0.87122E-06  3301   0.340E-03    0.493E-03
RMM:  10    -0.413200817423E+03    0.47146E-05   -0.25573E-06  2601   0.238E-03    0.273E-03
RMM:  11    -0.413200811416E+03    0.60079E-05   -0.14716E-06  2496   0.196E-03    0.139E-03
RMM:  12    -0.413200807592E+03    0.38232E-05   -0.64745E-07  2441   0.138E-03    0.563E-04
RMM:  13    -0.413200806119E+03    0.14735E-05   -0.28118E-07  2049   0.933E-04    0.351E-04
RMM:  14    -0.413200803975E+03    0.21434E-05   -0.15038E-07  1517   0.744E-04    0.186E-04
RMM:  15    -0.413200800241E+03    0.37340E-05   -0.12630E-07  1488   0.718E-04    0.172E-04
RMM:  16    -0.413200799350E+03    0.89107E-06   -0.53918E-08   982   0.599E-04
   37 T=    68. E= -.41286667E+03 F= -.41320080E+03 E0= -.41317958E+03  EK= 0.33413E+00 SP= 0.00E+00 SK= 0.00E+00
       N       E                     dE             d eps       ncg     rms          rms(c)
RMM:   1    -0.413199358376E+03    0.14419E-02   -0.12542E+01  4306   0.106E+00    0.946E-01
RMM:   2    -0.413205435757E+03   -0.60774E-02   -0.16293E-01  4247   0.131E-01    0.673E-01
RMM:   3    -0.413204002471E+03    0.14333E-02   -0.68176E-03  4728   0.505E-02    0.198E-01
RMM:   4    -0.413235232768E+03   -0.31230E-01   -0.31380E-02  5156   0.148E-01    0.737E-01
RMM:   5    -0.413203580012E+03    0.31653E-01   -0.16100E-02  4810   0.123E-01    0.357E-02
RMM:   6    -0.413203637624E+03   -0.57612E-04   -0.23992E-03  5851   0.462E-02    0.180E-02
RMM:   7    -0.413203650239E+03   -0.12615E-04   -0.25196E-04  5802   0.136E-02    0.129E-02
RMM:   8    -0.413203644303E+03    0.59365E-05   -0.33155E-05  4410   0.518E-03    0.870E-03
RMM:   9    -0.413203639518E+03    0.47847E-05   -0.75018E-06  3213   0.318E-03    0.568E-03
RMM:  10    -0.413203631260E+03    0.82578E-05   -0.21140E-06  2543   0.234E-03    0.258E-03
RMM:  11    -0.413203625086E+03    0.61736E-05   -0.13828E-06  2507   0.183E-03    0.139E-03
RMM:  12    -0.413203619460E+03    0.56265E-05   -0.63251E-07  2429   0.138E-03    0.533E-04
RMM:  13    -0.413203617344E+03    0.21158E-05   -0.27823E-07  2093   0.936E-04    0.353E-04
RMM:  14    -0.413203615210E+03    0.21345E-05   -0.13392E-07  1456   0.719E-04    0.197E-04
RMM:  15    -0.413203609998E+03    0.52117E-05   -0.12050E-07  1567   0.718E-04    0.182E-04
RMM:  16    -0.413203608899E+03    0.10992E-05   -0.45583E-08   924   0.585E-04    0.113E-04
RMM:  17    -0.413203605313E+03    0.35853E-05   -0.50987E-08  1086   0.606E-04    0.830E-05
RMM:  18    -0.413203603286E+03    0.20275E-05   -0.34149E-08   964   0.572E-04    0.254E-05
RMM:  19    -0.413203602041E+03    0.12450E-05   -0.24900E-08   883   0.556E-04    0.312E-05
RMM:  20    -0.413203601733E+03    0.30795E-06   -0.11692E-08   703   0.527E-04
   38 T=    69. E= -.41286695E+03 F= -.41320360E+03 E0= -.41318242E+03  EK= 0.33666E+00 SP= 0.00E+00 SK= 0.00E+00
       N       E                     dE             d eps       ncg     rms          rms(c)
RMM:   1    -0.413201976833E+03    0.16252E-02   -0.12598E+01  4305   0.108E+00    0.959E-01
RMM:   2    -0.413206856197E+03   -0.48794E-02   -0.16771E-01  4256   0.125E-01    0.667E-01
RMM:   3    -0.413206390769E+03    0.46543E-03   -0.74033E-03  4965   0.546E-02    0.229E-01
RMM:   4    -0.413257098200E+03   -0.50707E-01   -0.53716E-02  5137   0.192E-01    0.935E-01
RMM:   5    -0.413205282032E+03    0.51816E-01   -0.25728E-02  4790   0.157E-01    0.473E-02
RMM:   6    -0.413205445377E+03   -0.16335E-03   -0.40610E-03  5844   0.592E-02    0.218E-02
RMM:   7    -0.413205465047E+03   -0.19669E-04   -0.40671E-04  5821   0.169E-02    0.150E-02
RMM:   8    -0.413205462626E+03    0.24202E-05   -0.54914E-05  4694   0.610E-03    0.112E-02
RMM:   9    -0.413205453149E+03    0.94771E-05   -0.11379E-05  3630   0.365E-03    0.716E-03
RMM:  10    -0.413205442451E+03    0.10698E-04   -0.35179E-06  2641   0.289E-03    0.324E-03
RMM:  11    -0.413205434808E+03    0.76429E-05   -0.17354E-06  2510   0.212E-03    0.187E-03
RMM:  12    -0.413205426567E+03    0.82415E-05   -0.88684E-07  2462   0.166E-03    0.647E-04
RMM:  13    -0.413205422764E+03    0.38021E-05   -0.37455E-07  2286   0.110E-03    0.441E-04
RMM:  14    -0.413205419924E+03    0.28402E-05   -0.18152E-07  1750   0.795E-04    0.294E-04
RMM:  15    -0.413205411592E+03    0.83318E-05   -0.16760E-07  1916   0.788E-04    0.310E-04
RMM:  16    -0.413205411071E+03    0.52117E-06   -0.56050E-08  1014   0.575E-04
   39 T=    69. E= -.41286653E+03 F= -.41320541E+03 E0= -.41318427E+03  EK= 0.33888E+00 SP= 0.00E+00 SK= 0.00E+00
       N       E                     dE             d eps       ncg     rms          rms(c)
RMM:   1    -0.413201435305E+03    0.39763E-02   -0.12583E+01  4309   0.113E+00    0.935E-01
RMM:   2    -0.413210444072E+03   -0.90088E-02   -0.16891E-01  4255   0.135E-01    0.673E-01
RMM:   3    -0.413209695698E+03    0.74837E-03   -0.70427E-03  4992   0.533E-02    0.234E-01
RMM:   4    -0.413263768427E+03   -0.54073E-01   -0.58186E-02  5137   0.200E-01    0.964E-01
RMM:   5    -0.413208444743E+03    0.55324E-01   -0.27388E-02  4788   0.162E-01    0.484E-02
RMM:   6    -0.413208620726E+03   -0.17598E-03   -0.42680E-03  5830   0.609E-02    0.210E-02
RMM:   7    -0.413208644814E+03   -0.24088E-04   -0.43399E-04  5862   0.174E-02    0.149E-02
RMM:   8    -0.413208644695E+03    0.11848E-06   -0.59587E-05  4812   0.635E-03    0.112E-02
RMM:   9    -0.413208636982E+03    0.77133E-05   -0.11639E-05  3626   0.369E-03    0.698E-03
RMM:  10    -0.413208629621E+03    0.73614E-05   -0.37066E-06  2657   0.291E-03    0.317E-03
RMM:  11    -0.413208624447E+03    0.51735E-05   -0.17228E-06  2510   0.211E-03    0.181E-03
RMM:  12    -0.413208618876E+03    0.55715E-05   -0.89084E-07  2466   0.163E-03    0.642E-04
RMM:  13    -0.413208616265E+03    0.26112E-05   -0.37696E-07  2273   0.109E-03    0.435E-04
RMM:  14    -0.413208613953E+03    0.23114E-05   -0.19184E-07  1757   0.800E-04    0.282E-04
RMM:  15    -0.413208608352E+03    0.56013E-05   -0.16330E-07  1672   0.761E-04    0.230E-04
RMM:  16    -0.413208607927E+03    0.42496E-06   -0.62407E-08  1028   0.597E-04
   40 T=    70. E= -.41286712E+03 F= -.41320861E+03 E0= -.41318750E+03  EK= 0.34149E+00 SP= 0.00E+00 SK= 0.00E+00
       N       E                     dE             d eps       ncg     rms          rms(c)
RMM:   1    -0.413204950184E+03    0.36582E-02   -0.12767E+01  4305   0.118E+00    0.948E-01
RMM:   2    -0.413211646896E+03   -0.66967E-02   -0.17484E-01  4262   0.139E-01    0.683E-01
RMM:   3    -0.413211453439E+03    0.19346E-03   -0.75944E-03  5046   0.567E-02    0.259E-01
RMM:   4    -0.413267240466E+03   -0.55787E-01   -0.62972E-02  5127   0.208E-01    0.983E-01
RMM:   5    -0.413209671104E+03    0.57569E-01   -0.27957E-02  4774   0.166E-01    0.516E-02
RMM:   6    -0.413209854512E+03   -0.18341E-03   -0.44266E-03  5821   0.620E-02    0.208E-02
RMM:   7    -0.413209880107E+03   -0.25595E-04   -0.46729E-04  5926   0.181E-02    0.157E-02
RMM:   8    -0.413209880340E+03   -0.23275E-06   -0.66467E-05  4983   0.681E-03    0.115E-02
RMM:   9    -0.413209871900E+03    0.84396E-05   -0.10347E-05  3436   0.369E-03    0.652E-03
RMM:  10    -0.413209864445E+03    0.74545E-05   -0.39351E-06  2685   0.294E-03    0.290E-03
RMM:  11    -0.413209859221E+03    0.52248E-05   -0.16792E-06  2518   0.207E-03    0.149E-03
RMM:  12    -0.413209854174E+03    0.50470E-05   -0.81637E-07  2461   0.154E-03    0.604E-04
RMM:  13    -0.413209851648E+03    0.25258E-05   -0.35305E-07  2213   0.104E-03    0.404E-04
RMM:  14    -0.413209848480E+03    0.31679E-05   -0.19773E-07  1705   0.802E-04    0.269E-04
RMM:  15    -0.413209844263E+03    0.42173E-05   -0.14036E-07  1463   0.719E-04    0.158E-04
RMM:  16    -0.413209842939E+03    0.13232E-05   -0.69765E-08  1050   0.615E-04    0.765E-05
RMM:  17    -0.413209840652E+03    0.22877E-05   -0.60354E-08  1076   0.617E-04    0.453E-05
RMM:  18    -0.413209837230E+03    0.34219E-05   -0.69311E-08  1282   0.642E-04    0.448E-05
RMM:  19    -0.413209836780E+03    0.44983E-06   -0.25477E-08   817   0.554E-04
   41 T=    70. E= -.41286653E+03 F= -.41320984E+03 E0= -.41318877E+03  EK= 0.34331E+00 SP= 0.00E+00 SK= 0.00E+00
       N       E                     dE             d eps       ncg     rms          rms(c)
RMM:   1    -0.413213331923E+03   -0.34947E-02   -0.12893E+01  4307   0.126E+00    0.972E-01
RMM:   2    -0.413213217289E+03    0.11463E-03   -0.17786E-01  4289   0.145E-01    0.676E-01
RMM:   3    -0.413216262169E+03   -0.30449E-02   -0.10110E-02  5131   0.737E-02    0.337E-01
RMM:   4    -0.413249229407E+03   -0.32967E-01   -0.49291E-02  5087   0.186E-01    0.802E-01
RMM:   5    -0.413212304960E+03    0.36924E-01   -0.16483E-02  4728   0.134E-01    0.494E-02
RMM:   6    -0.413212353900E+03   -0.48939E-04   -0.27107E-03  5752   0.492E-02    0.186E-02
RMM:   7    -0.413212366004E+03   -0.12104E-04   -0.31798E-04  5894   0.154E-02    0.144E-02
RMM:   8    -0.413212363162E+03    0.28414E-05   -0.48900E-05  4824   0.611E-03    0.941E-03
RMM:   9    -0.413212351181E+03    0.11981E-04   -0.80053E-06  3178   0.380E-03    0.439E-03
RMM:  10    -0.413212342062E+03    0.91189E-05   -0.26456E-06  2564   0.247E-03    0.224E-03
RMM:  11    -0.413212334628E+03    0.74340E-05   -0.99986E-07  2511   0.161E-03    0.984E-04
RMM:  12    -0.413212329223E+03    0.54050E-05   -0.41070E-07  2299   0.111E-03    0.495E-04
RMM:  13    -0.413212323848E+03    0.53753E-05   -0.25155E-07  1672   0.853E-04    0.244E-04
RMM:  14    -0.413212320250E+03    0.35978E-05   -0.15562E-07  1349   0.733E-04    0.147E-04
RMM:  15    -0.413212315012E+03    0.52383E-05   -0.12869E-07  1412   0.715E-04    0.911E-05
RMM:  16    -0.413212310829E+03    0.41826E-05   -0.96570E-08  1357   0.661E-04    0.542E-05
RMM:  17    -0.413212306711E+03    0.41187E-05   -0.76213E-08  1263   0.624E-04    0.431E-05
RMM:  18    -0.413212305243E+03    0.14680E-05   -0.44911E-08   967   0.557E-04    0.293E-05
RMM:  19    -0.413212304515E+03    0.72748E-06   -0.30792E-08   848   0.537E-04
   42 T=    70. E= -.41286703E+03 F= -.41321230E+03 E0= -.41319127E+03  EK= 0.34527E+00 SP= 0.00E+00 SK= 0.00E+00
       N       E                     dE             d eps       ncg     rms          rms(c)
RMM:   1    -0.413213085724E+03   -0.78048E-03   -0.12838E+01  4309   0.133E+00    0.947E-01
RMM:   2    -0.413215102654E+03   -0.20169E-02   -0.17686E-01  4296   0.154E-01    0.676E-01
RMM:   3    -0.413219193851E+03   -0.40912E-02   -0.10882E-02  5108   0.824E-02    0.371E-01
RMM:   4    -0.413246853796E+03   -0.27660E-01   -0.47343E-02  5061   0.184E-01    0.759E-01
RMM:   5    -0.413214081042E+03    0.32773E-01   -0.14252E-02  4706   0.127E-01    0.479E-02
RMM:   6    -0.413214102309E+03   -0.21267E-04   -0.23597E-03  5734   0.462E-02    0.176E-02
RMM:   7    -0.413214110980E+03   -0.86712E-05   -0.27118E-04  5877   0.147E-02    0.138E-02
RMM:   8    -0.413214108472E+03    0.25084E-05   -0.42843E-05  4771   0.588E-03    0.873E-03
RMM:   9    -0.413214098531E+03    0.99402E-05   -0.77713E-06  3166   0.389E-03    0.417E-03
RMM:  10    -0.413214091858E+03    0.66737E-05   -0.24764E-06  2566   0.245E-03    0.228E-03
RMM:  11    -0.413214086620E+03    0.52382E-05   -0.10199E-06  2509   0.160E-03    0.102E-03
RMM:  12    -0.413214082927E+03    0.36924E-05   -0.43416E-07  2298   0.111E-03    0.508E-04
RMM:  13    -0.413214078496E+03    0.44314E-05   -0.30257E-07  1748   0.891E-04    0.268E-04
RMM:  14    -0.413214076306E+03    0.21896E-05   -0.17214E-07  1319   0.736E-04    0.150E-04
RMM:  15    -0.413214072731E+03    0.35751E-05   -0.13901E-07  1294   0.709E-04    0.822E-05
RMM:  16    -0.413214069167E+03    0.35636E-05   -0.11284E-07  1286   0.682E-04    0.499E-05
RMM:  17    -0.413214066325E+03    0.28425E-05   -0.85436E-08  1269   0.641E-04    0.413E-05
RMM:  18    -0.413214064520E+03    0.18050E-05   -0.56311E-08  1050   0.580E-04    0.318E-05
RMM:  19    -0.413214063715E+03    0.80506E-06   -0.35382E-08   844   0.537E-04
   43 T=    71. E= -.41286705E+03 F= -.41321406E+03 E0= -.41319305E+03  EK= 0.34701E+00 SP= 0.00E+00 SK= 0.00E+00
       N       E                     dE             d eps       ncg     rms          rms(c)
RMM:   1    -0.413239890805E+03   -0.25826E-01   -0.13228E+01  4310   0.152E+00    0.949E-01
RMM:   2    -0.413216157753E+03    0.23733E-01   -0.20044E-01  4297   0.175E-01    0.693E-01
RMM:   3    -0.413221567079E+03   -0.54093E-02   -0.12132E-02  5108   0.921E-02    0.420E-01
RMM:   4    -0.413245919467E+03   -0.24352E-01   -0.48345E-02  5054   0.187E-01    0.744E-01
RMM:   5    -0.413214799578E+03    0.31120E-01   -0.13420E-02  4687   0.127E-01    0.503E-02
RMM:   6    -0.413214800328E+03   -0.75041E-06   -0.22516E-03  5674   0.453E-02    0.181E-02
RMM:   7    -0.413214809385E+03   -0.90565E-05   -0.27082E-04  5908   0.148E-02    0.143E-02
RMM:   8    -0.413214806774E+03    0.26103E-05   -0.41368E-05  4756   0.586E-03    0.888E-03
RMM:   9    -0.413214798178E+03    0.85963E-05   -0.89814E-06  3347   0.427E-03    0.442E-03
RMM:  10    -0.413214792754E+03    0.54240E-05   -0.27022E-06  2592   0.256E-03    0.258E-03
RMM:  11    -0.413214788726E+03    0.40283E-05   -0.12355E-06  2520   0.174E-03    0.111E-03
RMM:  12    -0.413214786058E+03    0.26671E-05   -0.52989E-07  2426   0.122E-03    0.597E-04
RMM:  13    -0.413214782316E+03    0.37430E-05   -0.39942E-07  1912   0.985E-04    0.371E-04
RMM:  14    -0.413214780727E+03    0.15887E-05   -0.20301E-07  1406   0.777E-04    0.197E-04
RMM:  15    -0.413214778278E+03    0.24491E-05   -0.15650E-07  1300   0.725E-04    0.110E-04
RMM:  16    -0.413214775219E+03    0.30589E-05   -0.13232E-07  1295   0.699E-04    0.591E-05
RMM:  17    -0.413214773719E+03    0.15001E-05   -0.78857E-08  1049   0.630E-04    0.441E-05
RMM:  18    -0.413214771691E+03    0.20281E-05   -0.71291E-08  1146   0.621E-04    0.383E-05
RMM:  19    -0.413214770696E+03    0.99495E-06   -0.44702E-08   922   0.569E-04
   44 T=    71. E= -.41286664E+03 F= -.41321477E+03 E0= -.41319379E+03  EK= 0.34813E+00 SP= 0.00E+00 SK= 0.00E+00
       N       E                     dE             d eps       ncg     rms          rms(c)
RMM:   1    -0.413244588768E+03   -0.29817E-01   -0.13328E+01  4307   0.158E+00    0.979E-01
RMM:   2    -0.413216611728E+03    0.27977E-01   -0.19138E-01  4358   0.180E-01    0.683E-01
RMM:   3    -0.413229222643E+03   -0.12611E-01   -0.18504E-02  5143   0.117E-01    0.534E-01
RMM:   4    -0.413231694307E+03   -0.24717E-02   -0.37497E-02  5016   0.169E-01    0.544E-01
RMM:   5    -0.413216337446E+03    0.15357E-01   -0.59335E-03  4563   0.949E-02    0.426E-02
RMM:   6    -0.413216292316E+03    0.45129E-04   -0.10430E-03  5337   0.316E-02    0.165E-02
RMM:   7    -0.413216291734E+03    0.58231E-06   -0.11608E-04  5653   0.104E-02    0.125E-02
RMM:   8    -0.413216287096E+03    0.46380E-05   -0.27819E-05  4755   0.521E-03    0.788E-03
RMM:   9    -0.413216271282E+03    0.15814E-04   -0.78177E-06  3272   0.419E-03    0.397E-03
RMM:  10    -0.413216265147E+03    0.61356E-05   -0.14701E-06  2534   0.208E-03    0.180E-03
RMM:  11    -0.413216259016E+03    0.61310E-05   -0.84759E-07  2485   0.147E-03    0.879E-04
RMM:  12    -0.413216253409E+03    0.56071E-05   -0.40836E-07  2355   0.109E-03    0.460E-04
RMM:  13    -0.413216248327E+03    0.50819E-05   -0.23195E-07  1533   0.802E-04    0.242E-04
RMM:  14    -0.413216245440E+03    0.28863E-05   -0.13104E-07  1180   0.685E-04    0.158E-04
RMM:  15    -0.413216239752E+03    0.56881E-05   -0.12334E-07  1284   0.693E-04    0.885E-05
RMM:  16    -0.413216236117E+03    0.36349E-05   -0.86005E-08  1210   0.643E-04    0.889E-05
RMM:  17    -0.413216233495E+03    0.26221E-05   -0.56359E-08   999   0.583E-04    0.573E-05
RMM:  18    -0.413216230690E+03    0.28055E-05   -0.51905E-08  1054   0.577E-04    0.333E-05
RMM:  19    -0.413216230161E+03    0.52900E-06   -0.22881E-08   720   0.516E-04
   45 T=    71. E= -.41286699E+03 F= -.41321623E+03 E0= -.41319527E+03  EK= 0.34924E+00 SP= 0.00E+00 SK= 0.00E+00
       N       E                     dE             d eps       ncg     rms          rms(c)
RMM:   1    -0.413239672658E+03   -0.23442E-01   -0.13186E+01  4307   0.166E+00    0.959E-01
RMM:   2    -0.413216464837E+03    0.23208E-01   -0.18602E-01  4370   0.190E-01    0.679E-01
RMM:   3    -0.413231413143E+03   -0.14948E-01   -0.20446E-02  5137   0.126E-01    0.570E-01
RMM:   4    -0.413229392118E+03    0.20210E-02   -0.36941E-02  4989   0.169E-01    0.509E-01
RMM:   5    -0.413216180307E+03    0.13212E-01   -0.51528E-03  4549   0.913E-02    0.425E-02
RMM:   6    -0.413216116027E+03    0.64280E-04   -0.80853E-04  5122   0.290E-02    0.161E-02
RMM:   7    -0.413216115951E+03    0.75779E-07   -0.96942E-05  5596   0.928E-03    0.108E-02
RMM:   8    -0.413216112220E+03    0.37315E-05   -0.28740E-05  4885   0.548E-03    0.753E-03
RMM:   9    -0.413216099131E+03    0.13089E-04   -0.12496E-05  3951   0.449E-03    0.432E-03
RMM:  10    -0.413216094531E+03    0.46005E-05   -0.17179E-06  2504   0.218E-03    0.189E-03
RMM:  11    -0.413216089332E+03    0.51988E-05   -0.12489E-06  2484   0.174E-03    0.103E-03
RMM:  12    -0.413216084457E+03    0.48749E-05   -0.46518E-07  2351   0.124E-03    0.593E-04
RMM:  13    -0.413216080637E+03    0.38202E-05   -0.21618E-07  1600   0.821E-04    0.301E-04
RMM:  14    -0.413216077090E+03    0.35472E-05   -0.12372E-07  1180   0.687E-04    0.164E-04
RMM:  15    -0.413216071146E+03    0.59439E-05   -0.13597E-07  1416   0.709E-04    0.137E-04
RMM:  16    -0.413216069034E+03    0.21122E-05   -0.60808E-08   899   0.569E-04    0.107E-04
RMM:  17    -0.413216064876E+03    0.41581E-05   -0.71292E-08  1076   0.595E-04    0.472E-05
RMM:  18    -0.413216063294E+03    0.15819E-05   -0.37476E-08   823   0.534E-04    0.419E-05
RMM:  19    -0.413216062534E+03    0.75936E-06   -0.20751E-08   654   0.507E-04
   46 T=    71. E= -.41286678E+03 F= -.41321606E+03 E0= -.41319512E+03  EK= 0.34929E+00 SP= 0.00E+00 SK= 0.00E+00
       N       E                     dE             d eps       ncg     rms          rms(c)
RMM:   1    -0.413260295670E+03   -0.44232E-01   -0.13448E+01  4310   0.182E+00    0.944E-01
RMM:   2    -0.413216083366E+03    0.44212E-01   -0.22279E-01  4398   0.213E-01    0.697E-01
RMM:   3    -0.413230017114E+03   -0.13934E-01   -0.19722E-02  5139   0.125E-01    0.588E-01
RMM:   4    -0.413230404606E+03   -0.38749E-03   -0.39392E-02  5005   0.174E-01    0.557E-01
RMM:   5    -0.413215116185E+03    0.15288E-01   -0.66036E-03  4549   0.100E-01    0.478E-02
RMM:   6    -0.413215042652E+03    0.73533E-04   -0.10146E-03  5204   0.325E-02    0.181E-02
RMM:   7    -0.413215042918E+03   -0.26649E-06   -0.12981E-04  5787   0.108E-02    0.132E-02
RMM:   8    -0.413215040129E+03    0.27893E-05   -0.32304E-05  4932   0.547E-03    0.884E-03
RMM:   9    -0.413215028082E+03    0.12046E-04   -0.11641E-05  3820   0.472E-03    0.481E-03
RMM:  10    -0.413215023826E+03    0.42563E-05   -0.19986E-06  2541   0.226E-03    0.230E-03
RMM:  11    -0.413215020149E+03    0.36771E-05   -0.15482E-06  2532   0.190E-03    0.125E-03
RMM:  12    -0.413215017334E+03    0.28149E-05   -0.51986E-07  2420   0.131E-03    0.708E-04
RMM:  13    -0.413215014538E+03    0.27959E-05   -0.28019E-07  1825   0.886E-04    0.352E-04
RMM:  14    -0.413215012166E+03    0.23721E-05   -0.16721E-07  1267   0.720E-04    0.200E-04
RMM:  15    -0.413215009267E+03    0.28991E-05   -0.14673E-07  1303   0.699E-04    0.958E-05
RMM:  16    -0.413215007246E+03    0.20210E-05   -0.97090E-08  1130   0.628E-04    0.872E-05
RMM:  17    -0.413215005204E+03    0.20424E-05   -0.77242E-08  1070   0.600E-04    0.612E-05
RMM:  18    -0.413215004051E+03    0.11526E-05   -0.46559E-08   861   0.546E-04    0.342E-05
RMM:  19    -0.413215003631E+03    0.41998E-06   -0.24876E-08   689   0.516E-04
   47 T=    71. E= -.41286675E+03 F= -.41321500E+03 E0= -.41319407E+03  EK= 0.34826E+00 SP= 0.00E+00 SK= 0.00E+00
       N       E                     dE             d eps       ncg     rms          rms(c)
RMM:   1    -0.413260424973E+03   -0.45421E-01   -0.13437E+01  4306   0.195E+00    0.972E-01
RMM:   2    -0.413213053822E+03    0.47371E-01   -0.20765E-01  4505   0.210E-01    0.689E-01
RMM:   3    -0.413237924640E+03   -0.24871E-01   -0.29645E-02  5155   0.154E-01    0.716E-01
RMM:   4    -0.413220890880E+03    0.17034E-01   -0.37365E-02  4955   0.174E-01    0.428E-01
RMM:   5    -0.413212844760E+03    0.80461E-02   -0.43893E-03  4577   0.889E-02    0.537E-02
RMM:   6    -0.413212672549E+03    0.17221E-03   -0.43474E-04  4683   0.276E-02    0.211E-02
RMM:   7    -0.413212673029E+03   -0.47999E-06   -0.10938E-04  5832   0.105E-02    0.142E-02
RMM:   8    -0.413212664246E+03    0.87839E-05   -0.21760E-05  4523   0.507E-03    0.995E-03
RMM:   9    -0.413212648916E+03    0.15330E-04   -0.88240E-06  3305   0.422E-03    0.497E-03
RMM:  10    -0.413212641842E+03    0.70735E-05   -0.25770E-06  2614   0.263E-03    0.226E-03
RMM:  11    -0.413212635760E+03    0.60826E-05   -0.18200E-06  2522   0.211E-03    0.139E-03
RMM:  12    -0.413212630052E+03    0.57073E-05   -0.73597E-07  2443   0.150E-03    0.725E-04
RMM:  13    -0.413212625803E+03    0.42491E-05   -0.34998E-07  2169   0.992E-04    0.406E-04
RMM:  14    -0.413212621895E+03    0.39087E-05   -0.19336E-07  1488   0.743E-04    0.221E-04
RMM:  15    -0.413212616211E+03    0.56833E-05   -0.16832E-07  1467   0.726E-04    0.141E-04
RMM:  16    -0.413212613442E+03    0.27693E-05   -0.95737E-08  1179   0.627E-04    0.118E-04
RMM:  17    -0.413212610687E+03    0.27549E-05   -0.69852E-08  1060   0.590E-04    0.607E-05
RMM:  18    -0.413212608544E+03    0.21428E-05   -0.50693E-08   983   0.573E-04    0.332E-05
RMM:  19    -0.413212607702E+03    0.84173E-06   -0.26231E-08   781   0.538E-04
   48 T=    70. E= -.41286678E+03 F= -.41321261E+03 E0= -.41319169E+03  EK= 0.34583E+00 SP= 0.00E+00 SK= 0.00E+00
       N       E                     dE             d eps       ncg     rms          rms(c)
RMM:   1    -0.413259350227E+03   -0.46742E-01   -0.13263E+01  4306   0.207E+00    0.960E-01
RMM:   2    -0.413207940358E+03    0.51410E-01   -0.20536E-01  4535   0.222E-01    0.677E-01
RMM:   3    -0.413238722951E+03   -0.30783E-01   -0.35016E-02  5168   0.168E-01    0.785E-01
RMM:   4    -0.413213391849E+03    0.25331E-01   -0.37335E-02  4924   0.177E-01    0.381E-01
RMM:   5    -0.413207970689E+03    0.54212E-02   -0.48731E-03  4827   0.914E-02    0.676E-02
RMM:   6    -0.413207680865E+03    0.28982E-03   -0.53703E-04  4689   0.319E-02    0.253E-02
RMM:   7    -0.413207676879E+03    0.39855E-05   -0.12477E-04  5701   0.119E-02    0.159E-02
RMM:   8    -0.413207666847E+03    0.10032E-04   -0.18231E-05  4159   0.474E-03    0.106E-02
RMM:   9    -0.413207650874E+03    0.15973E-04   -0.99181E-06  3479   0.428E-03    0.466E-03
RMM:  10    -0.413207642032E+03    0.88418E-05   -0.36901E-06  2780   0.297E-03    0.250E-03
[...]
RMM:  10    -0.413152269552E+03   -0.68553E-05   -0.22909E-06  2592   0.224E-03    0.221E-03
RMM:  11    -0.413152278003E+03   -0.84510E-05   -0.11591E-06  2518   0.172E-03    0.129E-03
RMM:  12    -0.413152285120E+03   -0.71168E-05   -0.64952E-07  2404   0.126E-03    0.735E-04
RMM:  13    -0.413152288479E+03   -0.33591E-05   -0.28307E-07  1629   0.859E-04    0.389E-04
RMM:  14    -0.413152292476E+03   -0.39968E-05   -0.25823E-07  1803   0.848E-04    0.225E-04
RMM:  15    -0.413152294922E+03   -0.24459E-05   -0.15538E-07  1427   0.698E-04    0.177E-04
RMM:  16    -0.413152298229E+03   -0.33077E-05   -0.15464E-07  1425   0.687E-04    0.100E-04
RMM:  17    -0.413152300708E+03   -0.24792E-05   -0.11380E-07  1260   0.634E-04    0.584E-05
RMM:  18    -0.413152301791E+03   -0.10821E-05   -0.64694E-08  1048   0.571E-04    0.506E-05
RMM:  19    -0.413152302600E+03   -0.80911E-06   -0.46009E-08   957   0.545E-04
  140 T=    58. E= -.41286694E+03 F= -.41315230E+03 E0= -.41313149E+03  EK= 0.28536E+00 SP= 0.00E+00 SK= 0.00E+00
       N       E                     dE             d eps       ncg     rms          rms(c)
RMM:   1    -0.413144917311E+03    0.73845E-02   -0.88177E+00  4264   0.102E+00    0.796E-01
RMM:   2    -0.413152232531E+03   -0.73152E-02   -0.98611E-02  4447   0.112E-01    0.572E-01
RMM:   3    -0.413152710892E+03   -0.47836E-03   -0.82060E-03  5144   0.674E-02    0.223E-01
RMM:   4    -0.413178600920E+03   -0.25890E-01   -0.35364E-02  5129   0.159E-01    0.695E-01
RMM:   5    -0.413150521243E+03    0.28080E-01   -0.12918E-02  4790   0.120E-01    0.603E-02
RMM:   6    -0.413150451746E+03    0.69498E-04   -0.22942E-03  5541   0.481E-02    0.212E-02
RMM:   7    -0.413150479000E+03   -0.27254E-04   -0.36849E-04  5993   0.172E-02    0.154E-02
RMM:   8    -0.413150492493E+03   -0.13493E-04   -0.60484E-05  5209   0.741E-03    0.772E-03
RMM:   9    -0.413150504845E+03   -0.12353E-04   -0.12930E-05  3723   0.412E-03    0.369E-03
RMM:  10    -0.413150511596E+03   -0.67508E-05   -0.23757E-06  2610   0.224E-03    0.222E-03
RMM:  11    -0.413150520069E+03   -0.84726E-05   -0.11823E-06  2520   0.173E-03    0.133E-03
RMM:  12    -0.413150527327E+03   -0.72586E-05   -0.66303E-07  2409   0.128E-03    0.750E-04
RMM:  13    -0.413150530647E+03   -0.33198E-05   -0.27925E-07  1659   0.863E-04    0.393E-04
RMM:  14    -0.413150534532E+03   -0.38846E-05   -0.24826E-07  1767   0.838E-04    0.217E-04
RMM:  15    -0.413150537228E+03   -0.26959E-05   -0.15942E-07  1415   0.700E-04    0.167E-04
RMM:  16    -0.413150540465E+03   -0.32376E-05   -0.15425E-07  1411   0.683E-04    0.997E-05
RMM:  17    -0.413150542881E+03   -0.24157E-05   -0.11248E-07  1259   0.632E-04    0.583E-05
RMM:  18    -0.413150544083E+03   -0.12013E-05   -0.66587E-08  1057   0.574E-04    0.482E-05
RMM:  19    -0.413150544809E+03   -0.72676E-06   -0.43416E-08   929   0.541E-04
  141 T=    58. E= -.41286632E+03 F= -.41315054E+03 E0= -.41312977E+03  EK= 0.28422E+00 SP= 0.00E+00 SK= 0.00E+00
       N       E                     dE             d eps       ncg     rms          rms(c)
RMM:   1    -0.413144730800E+03    0.58133E-02   -0.87733E+00  4264   0.103E+00    0.813E-01
RMM:   2    -0.413150600082E+03   -0.58693E-02   -0.95858E-02  4468   0.109E-01    0.564E-01
RMM:   3    -0.413151465932E+03   -0.86585E-03   -0.82552E-03  5153   0.637E-02    0.213E-01
RMM:   4    -0.413175837399E+03   -0.24371E-01   -0.32523E-02  5130   0.153E-01    0.673E-01
RMM:   5    -0.413149679239E+03    0.26158E-01   -0.12181E-02  4793   0.116E-01    0.608E-02
RMM:   6    -0.413149607100E+03    0.72139E-04   -0.21647E-03  5522   0.470E-02    0.231E-02
RMM:   7    -0.413149629821E+03   -0.22721E-04   -0.36296E-04  5976   0.173E-02    0.169E-02
RMM:   8    -0.413149637653E+03   -0.78327E-05   -0.61766E-05  5226   0.767E-03    0.795E-03
RMM:   9    -0.413149643753E+03   -0.60997E-05   -0.13152E-05  3784   0.418E-03    0.375E-03
RMM:  10    -0.413149647392E+03   -0.36388E-05   -0.22925E-06  2602   0.222E-03    0.227E-03
RMM:  11    -0.413149652402E+03   -0.50104E-05   -0.11415E-06  2516   0.172E-03    0.133E-03
RMM:  12    -0.413149656819E+03   -0.44165E-05   -0.66735E-07  2408   0.127E-03    0.734E-04
RMM:  13    -0.413149658664E+03   -0.18451E-05   -0.27549E-07  1686   0.862E-04    0.358E-04
RMM:  14    -0.413149660953E+03   -0.22891E-05   -0.23447E-07  1631   0.814E-04    0.179E-04
RMM:  15    -0.413149662709E+03   -0.17561E-05   -0.16330E-07  1404   0.714E-04    0.141E-04
RMM:  16    -0.413149664306E+03   -0.15974E-05   -0.13368E-07  1380   0.674E-04    0.104E-04
RMM:  17    -0.413149665957E+03   -0.16510E-05   -0.11336E-07  1326   0.644E-04    0.600E-05
RMM:  18    -0.413149667225E+03   -0.12676E-05   -0.79968E-08  1153   0.592E-04    0.400E-05
RMM:  19    -0.413149667380E+03   -0.15533E-06   -0.31178E-08   825   0.522E-04
  142 T=    58. E= -.41286665E+03 F= -.41314967E+03 E0= -.41312892E+03  EK= 0.28302E+00 SP= 0.00E+00 SK= 0.00E+00
       N       E                     dE             d eps       ncg     rms          rms(c)
RMM:   1    -0.413143001363E+03    0.66659E-02   -0.86347E+00  4264   0.101E+00    0.788E-01
RMM:   2    -0.413150114834E+03   -0.71135E-02   -0.95397E-02  4456   0.110E-01    0.561E-01
RMM:   3    -0.413150279120E+03   -0.16429E-03   -0.78890E-03  5154   0.625E-02    0.204E-01
RMM:   4    -0.413176480568E+03   -0.26201E-01   -0.34131E-02  5134   0.156E-01    0.693E-01
RMM:   5    -0.413148509494E+03    0.27971E-01   -0.12960E-02  4796   0.118E-01    0.581E-02
RMM:   6    -0.413148455994E+03    0.53500E-04   -0.22705E-03  5583   0.476E-02    0.218E-02
RMM:   7    -0.413148481744E+03   -0.25750E-04   -0.36163E-04  5987   0.170E-02    0.163E-02
RMM:   8    -0.413148492097E+03   -0.10353E-04   -0.62500E-05  5204   0.761E-03    0.784E-03
RMM:   9    -0.413148501417E+03   -0.93201E-05   -0.12917E-05  3735   0.410E-03    0.375E-03
RMM:  10    -0.413148506833E+03   -0.54160E-05   -0.22735E-06  2602   0.220E-03    0.225E-03
RMM:  11    -0.413148514657E+03   -0.78242E-05   -0.12562E-06  2524   0.177E-03    0.139E-03
RMM:  12    -0.413148520698E+03   -0.60410E-05   -0.64724E-07  2413   0.127E-03    0.716E-04
RMM:  13    -0.413148523308E+03   -0.26100E-05   -0.27545E-07  1704   0.863E-04    0.370E-04
RMM:  14    -0.413148526487E+03   -0.31793E-05   -0.23759E-07  1698   0.823E-04    0.197E-04
RMM:  15    -0.413148528982E+03   -0.24947E-05   -0.16492E-07  1424   0.711E-04    0.154E-04
RMM:  16    -0.413148531178E+03   -0.21959E-05   -0.13533E-07  1363   0.668E-04    0.960E-05
RMM:  17    -0.413148533343E+03   -0.21653E-05   -0.11666E-07  1295   0.643E-04    0.520E-05
RMM:  18    -0.413148534408E+03   -0.10650E-05   -0.67903E-08  1065   0.577E-04    0.444E-05
RMM:  19    -0.413148534908E+03   -0.50006E-06   -0.37444E-08   879   0.535E-04
  143 T=    57. E= -.41286664E+03 F= -.41314853E+03 E0= -.41312782E+03  EK= 0.28189E+00 SP= 0.00E+00 SK= 0.00E+00
       N       E                     dE             d eps       ncg     rms          rms(c)
RMM:   1    -0.413141688197E+03    0.68462E-02   -0.86408E+00  4264   0.101E+00    0.788E-01
RMM:   2    -0.413148691582E+03   -0.70034E-02   -0.96934E-02  4467   0.109E-01    0.571E-01
RMM:   3    -0.413148903448E+03   -0.21187E-03   -0.81913E-03  5145   0.623E-02    0.193E-01
RMM:   4    -0.413177669689E+03   -0.28766E-01   -0.36145E-02  5139   0.161E-01    0.721E-01
RMM:   5    -0.413147275094E+03    0.30395E-01   -0.14124E-02  4798   0.123E-01    0.570E-02
RMM:   6    -0.413147236316E+03    0.38779E-04   -0.24180E-03  5621   0.493E-02    0.213E-02
RMM:   7    -0.413147267295E+03   -0.30979E-04   -0.37047E-04  5995   0.172E-02    0.160E-02
RMM:   8    -0.413147281827E+03   -0.14532E-04   -0.64471E-05  5196   0.795E-03    0.771E-03
RMM:   9    -0.413147294037E+03   -0.12209E-04   -0.13342E-05  3725   0.424E-03    0.377E-03
RMM:  10    -0.413147300887E+03   -0.68506E-05   -0.23606E-06  2610   0.222E-03    0.228E-03
RMM:  11    -0.413147310956E+03   -0.10068E-04   -0.14124E-06  2534   0.185E-03    0.148E-03
RMM:  12    -0.413147317872E+03   -0.69165E-05   -0.67012E-07  2423   0.130E-03    0.726E-04
RMM:  13    -0.413147320998E+03   -0.31259E-05   -0.29564E-07  1743   0.886E-04    0.386E-04
RMM:  14    -0.413147324820E+03   -0.38215E-05   -0.26526E-07  1856   0.850E-04    0.252E-04
RMM:  15    -0.413147327588E+03   -0.27677E-05   -0.16207E-07  1326   0.699E-04    0.161E-04
RMM:  16    -0.413147331647E+03   -0.40590E-05   -0.20168E-07  1606   0.746E-04    0.915E-05
RMM:  17    -0.413147333262E+03   -0.16155E-05   -0.10073E-07  1208   0.616E-04    0.658E-05
RMM:  18    -0.413147334569E+03   -0.13064E-05   -0.70545E-08  1062   0.576E-04    0.540E-05
RMM:  19    -0.413147335088E+03   -0.51926E-06   -0.43424E-08   914   0.536E-04
  144 T=    57. E= -.41286634E+03 F= -.41314734E+03 E0= -.41312665E+03  EK= 0.28099E+00 SP= 0.00E+00 SK= 0.00E+00
       N       E                     dE             d eps       ncg     rms          rms(c)
RMM:   1    -0.413144369145E+03    0.29654E-02   -0.86401E+00  4264   0.104E+00    0.808E-01
RMM:   2    -0.413147840816E+03   -0.34717E-02   -0.93964E-02  4471   0.107E-01    0.563E-01
RMM:   3    -0.413148017624E+03   -0.17681E-03   -0.80983E-03  5153   0.584E-02    0.184E-01
RMM:   4    -0.413175405852E+03   -0.27388E-01   -0.33461E-02  5142   0.155E-01    0.702E-01
RMM:   5    -0.413146711789E+03    0.28694E-01   -0.13489E-02  4796   0.119E-01    0.568E-02
RMM:   6    -0.413146672299E+03    0.39490E-04   -0.23095E-03  5630   0.478E-02    0.233E-02
RMM:   7    -0.413146697657E+03   -0.25358E-04   -0.36396E-04  5991   0.171E-02    0.172E-02
RMM:   8    -0.413146704619E+03   -0.69618E-05   -0.66131E-05  5193   0.801E-03    0.769E-03
RMM:   9    -0.413146710296E+03   -0.56770E-05   -0.12952E-05  3743   0.408E-03    0.383E-03
RMM:  10    -0.413146713929E+03   -0.36328E-05   -0.21663E-06  2595   0.215E-03    0.233E-03
RMM:  11    -0.413146719781E+03   -0.58521E-05   -0.13601E-06  2532   0.182E-03    0.146E-03
RMM:  12    -0.413146723652E+03   -0.38708E-05   -0.63320E-07  2423   0.128E-03    0.667E-04
RMM:  13    -0.413146725502E+03   -0.18508E-05   -0.28423E-07  1724   0.871E-04    0.343E-04
RMM:  14    -0.413146727673E+03   -0.21706E-05   -0.23574E-07  1657   0.817E-04    0.187E-04
RMM:  15    -0.413146729642E+03   -0.19685E-05   -0.18005E-07  1464   0.733E-04    0.147E-04
RMM:  16    -0.413146731044E+03   -0.14029E-05   -0.13189E-07  1378   0.668E-04    0.987E-05
RMM:  17    -0.413146732770E+03   -0.17257E-05   -0.12543E-07  1364   0.651E-04    0.457E-05
RMM:  18    -0.413146733538E+03   -0.76763E-06   -0.65889E-08  1057   0.566E-04
  145 T=    57. E= -.41286672E+03 F= -.41314673E+03 E0= -.41312608E+03  EK= 0.28002E+00 SP= 0.00E+00 SK= 0.00E+00
       N       E                     dE             d eps       ncg     rms          rms(c)
RMM:   1    -0.413140483435E+03    0.62493E-02   -0.84929E+00  4264   0.101E+00    0.790E-01
RMM:   2    -0.413146761776E+03   -0.62783E-02   -0.94304E-02  4461   0.108E-01    0.558E-01
RMM:   3    -0.413146334137E+03    0.42764E-03   -0.77655E-03  5139   0.575E-02    0.178E-01
RMM:   4    -0.413174387453E+03   -0.28053E-01   -0.33803E-02  5142   0.155E-01    0.709E-01
RMM:   5    -0.413145089498E+03    0.29298E-01   -0.13755E-02  4803   0.120E-01    0.548E-02
RMM:   6    -0.413145060219E+03    0.29279E-04   -0.23440E-03  5663   0.477E-02    0.227E-02
RMM:   7    -0.413145086862E+03   -0.26643E-04   -0.35540E-04  5995   0.168E-02    0.167E-02
RMM:   8    -0.413145095813E+03   -0.89510E-05   -0.65131E-05  5178   0.796E-03    0.758E-03
RMM:   9    -0.413145102816E+03   -0.70033E-05   -0.12708E-05  3676   0.401E-03    0.379E-03
RMM:  10    -0.413145107203E+03   -0.43863E-05   -0.20948E-06  2589   0.212E-03    0.229E-03
RMM:  11    -0.413145114590E+03   -0.73879E-05   -0.14113E-06  2532   0.183E-03    0.147E-03
RMM:  12    -0.413145119108E+03   -0.45173E-05   -0.61813E-07  2412   0.128E-03    0.637E-04
RMM:  13    -0.413145121347E+03   -0.22393E-05   -0.28991E-07  1736   0.877E-04    0.336E-04
RMM:  14    -0.413145123805E+03   -0.24580E-05   -0.23518E-07  1712   0.822E-04    0.194E-04
RMM:  15    -0.413145126172E+03   -0.23674E-05   -0.17959E-07  1435   0.733E-04    0.136E-04
RMM:  16    -0.413145127957E+03   -0.17851E-05   -0.13947E-07  1405   0.681E-04    0.790E-05
RMM:  17    -0.413145129541E+03   -0.15831E-05   -0.11171E-07  1325   0.641E-04    0.468E-05
RMM:  18    -0.413145130359E+03   -0.81872E-06   -0.65121E-08  1064   0.567E-04
  146 T=    57. E= -.41286649E+03 F= -.41314513E+03 E0= -.41312450E+03  EK= 0.27864E+00 SP= 0.00E+00 SK= 0.00E+00
       N       E                     dE             d eps       ncg     rms          rms(c)
RMM:   1    -0.413139060368E+03    0.60692E-02   -0.84840E+00  4264   0.996E-01    0.782E-01
RMM:   2    -0.413145923949E+03   -0.68636E-02   -0.95107E-02  4470   0.107E-01    0.568E-01
RMM:   3    -0.413145435297E+03    0.48865E-03   -0.80850E-03  5138   0.575E-02    0.165E-01
RMM:   4    -0.413175475775E+03   -0.30040E-01   -0.35410E-02  5146   0.159E-01    0.730E-01
RMM:   5    -0.413144269691E+03    0.31206E-01   -0.14657E-02  4804   0.123E-01    0.527E-02
RMM:   6    -0.413144269134E+03    0.55684E-06   -0.24790E-03  5693   0.487E-02    0.215E-02
RMM:   7    -0.413144300560E+03   -0.31426E-04   -0.36014E-04  6011   0.167E-02    0.162E-02
RMM:   8    -0.413144312831E+03   -0.12270E-04   -0.64131E-05  5170   0.786E-03    0.764E-03
RMM:   9    -0.413144323512E+03   -0.10682E-04   -0.12449E-05  3626   0.396E-03    0.379E-03
RMM:  10    -0.413144329982E+03   -0.64696E-05   -0.21361E-06  2588   0.213E-03    0.229E-03
RMM:  11    -0.413144340561E+03   -0.10579E-04   -0.15012E-06  2537   0.186E-03    0.150E-03
RMM:  12    -0.413144346702E+03   -0.61412E-05   -0.63590E-07  2423   0.129E-03    0.614E-04
RMM:  13    -0.413144349878E+03   -0.31760E-05   -0.30487E-07  1813   0.892E-04    0.333E-04
RMM:  14    -0.413144353249E+03   -0.33714E-05   -0.23406E-07  1645   0.812E-04    0.196E-04
RMM:  15    -0.413144357335E+03   -0.40860E-05   -0.22373E-07  1626   0.773E-04    0.146E-04
RMM:  16    -0.413144359285E+03   -0.19493E-05   -0.12930E-07  1347   0.658E-04    0.846E-05
RMM:  17    -0.413144361523E+03   -0.22384E-05   -0.11968E-07  1322   0.641E-04    0.488E-05
RMM:  18    -0.413144362383E+03   -0.85972E-06   -0.61700E-08  1011   0.562E-04
  147 T=    57. E= -.41286659E+03 F= -.41314436E+03 E0= -.41312375E+03  EK= 0.27778E+00 SP= 0.00E+00 SK= 0.00E+00
       N       E                     dE             d eps       ncg     rms          rms(c)
RMM:   1    -0.413139056815E+03    0.53047E-02   -0.84654E+00  4264   0.992E-01    0.801E-01
RMM:   2    -0.413145125407E+03   -0.60686E-02   -0.92518E-02  4464   0.106E-01    0.563E-01
RMM:   3    -0.413144680764E+03    0.44464E-03   -0.79348E-03  5174   0.535E-02    0.161E-01
RMM:   4    -0.413173508244E+03   -0.28827E-01   -0.33435E-02  5149   0.154E-01    0.715E-01
RMM:   5    -0.413143698010E+03    0.29810E-01   -0.14124E-02  4808   0.120E-01    0.529E-02
RMM:   6    -0.413143697630E+03    0.38045E-06   -0.24103E-03  5704   0.477E-02    0.232E-02
RMM:   7    -0.413143726465E+03   -0.28835E-04   -0.35643E-04  6000   0.167E-02    0.169E-02
RMM:   8    -0.413143734826E+03   -0.83611E-05   -0.65235E-05  5160   0.803E-03    0.764E-03
RMM:   9    -0.413143740700E+03   -0.58741E-05   -0.11907E-05  3602   0.390E-03    0.386E-03
RMM:  10    -0.413143744666E+03   -0.39658E-05   -0.20169E-06  2584   0.209E-03    0.235E-03
RMM:  11    -0.413143751394E+03   -0.67282E-05   -0.14418E-06  2534   0.183E-03    0.151E-03
RMM:  12    -0.413143755206E+03   -0.38122E-05   -0.61688E-07  2413   0.128E-03    0.569E-04
RMM:  13    -0.413143757207E+03   -0.20011E-05   -0.30565E-07  1834   0.894E-04    0.303E-04
RMM:  14    -0.413143759181E+03   -0.19737E-05   -0.22009E-07  1560   0.795E-04    0.172E-04
RMM:  15    -0.413143761722E+03   -0.25411E-05   -0.21838E-07  1611   0.772E-04    0.136E-04
RMM:  16    -0.413143762727E+03   -0.10044E-05   -0.11629E-07  1296   0.649E-04    0.815E-05
RMM:  17    -0.413143764217E+03   -0.14904E-05   -0.11595E-07  1324   0.644E-04    0.373E-05
RMM:  18    -0.413143765000E+03   -0.78294E-06   -0.65993E-08  1071   0.573E-04
  148 T=    56. E= -.41286679E+03 F= -.41314376E+03 E0= -.41312317E+03  EK= 0.27697E+00 SP= 0.00E+00 SK= 0.00E+00
       N       E                     dE             d eps       ncg     rms          rms(c)
RMM:   1    -0.413137638948E+03    0.61253E-02   -0.83766E+00  4264   0.991E-01    0.793E-01
RMM:   2    -0.413143555283E+03   -0.59163E-02   -0.91782E-02  4480   0.103E-01    0.557E-01
RMM:   3    -0.413143093157E+03    0.46213E-03   -0.78161E-03  5184   0.513E-02    0.151E-01
RMM:   4    -0.413171352141E+03   -0.28259E-01   -0.32040E-02  5148   0.151E-01    0.706E-01
RMM:   5    -0.413142265385E+03    0.29087E-01   -0.13877E-02  4812   0.119E-01    0.513E-02
RMM:   6    -0.413142268477E+03   -0.30924E-05   -0.23586E-03  5716   0.471E-02    0.235E-02
RMM:   7    -0.413142293873E+03   -0.25396E-04   -0.34809E-04  5997   0.165E-02    0.168E-02
RMM:   8    -0.413142300978E+03   -0.71044E-05   -0.64034E-05  5151   0.806E-03    0.757E-03
RMM:   9    -0.413142305499E+03   -0.45216E-05   -0.11242E-05  3529   0.381E-03    0.388E-03
RMM:  10    -0.413142309067E+03   -0.35679E-05   -0.19538E-06  2585   0.205E-03    0.241E-03
RMM:  11    -0.413142315158E+03   -0.60904E-05   -0.14267E-06  2531   0.182E-03    0.153E-03
RMM:  12    -0.413142318513E+03   -0.33548E-05   -0.62609E-07  2409   0.128E-03    0.527E-04
RMM:  13    -0.413142320260E+03   -0.17478E-05   -0.31446E-07  1857   0.902E-04    0.289E-04
RMM:  14    -0.413142321832E+03   -0.15715E-05   -0.21320E-07  1520   0.786E-04    0.174E-04
RMM:  15    -0.413142324297E+03   -0.24655E-05   -0.23714E-07  1658   0.795E-04    0.131E-04
RMM:  16    -0.413142325104E+03   -0.80683E-06   -0.11386E-07  1284   0.649E-04
  149 T=    56. E= -.41286637E+03 F= -.41314233E+03 E0= -.41312175E+03  EK= 0.27596E+00 SP= 0.00E+00 SK= 0.00E+00
       N       E                     dE             d eps       ncg     rms          rms(c)
RMM:   1    -0.413137350411E+03    0.49739E-02   -0.83566E+00  4264   0.980E-01    0.779E-01
RMM:   2    -0.413143742101E+03   -0.63917E-02   -0.93311E-02  4460   0.104E-01    0.564E-01
RMM:   3    -0.413142843461E+03    0.89864E-03   -0.78765E-03  5141   0.502E-02    0.128E-01
RMM:   4    -0.413170805229E+03   -0.27962E-01   -0.30616E-02  5157   0.147E-01    0.700E-01
RMM:   5    -0.413142223375E+03    0.28582E-01   -0.13767E-02  4810   0.117E-01    0.480E-02
RMM:   6    -0.413142240890E+03   -0.17514E-04   -0.23124E-03  5756   0.463E-02    0.219E-02
RMM:   7    -0.413142269505E+03   -0.28616E-04   -0.32529E-04  5995   0.157E-02    0.156E-02
RMM:   8    -0.413142281464E+03   -0.11958E-04   -0.60088E-05  5137   0.774E-03    0.727E-03
RMM:   9    -0.413142290127E+03   -0.86630E-05   -0.10282E-05  3415   0.361E-03    0.373E-03
RMM:  10    -0.413142296170E+03   -0.60429E-05   -0.18458E-06  2575   0.199E-03    0.229E-03
RMM:  11    -0.413142306252E+03   -0.10083E-04   -0.13784E-06  2532   0.175E-03    0.143E-03
RMM:  12    -0.413142312044E+03   -0.57919E-05   -0.63042E-07  2396   0.125E-03    0.503E-04
RMM:  13    -0.413142315011E+03   -0.29669E-05   -0.30960E-07  1812   0.896E-04    0.281E-04
RMM:  14    -0.413142317640E+03   -0.26287E-05   -0.21036E-07  1497   0.781E-04    0.174E-04
RMM:  15    -0.413142322171E+03   -0.45314E-05   -0.27054E-07  1741   0.817E-04    0.151E-04
RMM:  16    -0.413142323247E+03   -0.10755E-05   -0.11246E-07  1244   0.640E-04    0.927E-05
RMM:  17    -0.413142325221E+03   -0.19737E-05   -0.11380E-07  1287   0.643E-04    0.430E-05
RMM:  18    -0.413142326321E+03   -0.11006E-05   -0.76276E-08  1117   0.581E-04    0.298E-05
RMM:  19    -0.413142326633E+03   -0.31206E-06   -0.42241E-08   886   0.533E-04
  150 T=    56. E= -.41286672E+03 F= -.41314233E+03 E0= -.41312176E+03  EK= 0.27561E+00 SP= 0.00E+00 SK= 0.00E+00
