       N       E                     dE             d eps       ncg     rms          rms(c)
RMM:   1     0.220122365619E+04    0.22012E+04   -0.52440E+04  2132   0.654E+02
RMM:   2     0.705241376622E+03   -0.14960E+04   -0.16259E+04  2132   0.177E+02
RMM:   3     0.137631971790E+03   -0.56761E+03   -0.65711E+03  2132   0.117E+02
RMM:   4    -0.159420759646E+03   -0.29705E+03   -0.27829E+03  2132   0.936E+01
RMM:   5    -0.287518683090E+03   -0.12810E+03   -0.11452E+03  2132   0.595E+01
RMM:   6    -0.349806182732E+03   -0.62287E+02   -0.55076E+02  2132   0.423E+01
RMM:   7    -0.382691551783E+03   -0.32885E+02   -0.30401E+02  2132   0.293E+01
RMM:   8    -0.404126856315E+03   -0.21435E+02   -0.18454E+02  2132   0.233E+01
RMM:   9    -0.435992983098E+03   -0.31866E+02   -0.30795E+02  6104   0.173E+01
RMM:  10    -0.441319192608E+03   -0.53262E+01   -0.63309E+01  6395   0.539E+00
RMM:  11    -0.442501256374E+03   -0.11821E+01   -0.10966E+01  6218   0.173E+00
RMM:  12    -0.442876016648E+03   -0.37476E+00   -0.26357E+00  6373   0.599E-01    0.134E+02
RMM:  13    -0.425625448650E+03    0.17251E+02   -0.81378E+01  4675   0.120E+01    0.712E+01
RMM:  14    -0.499829986466E+03   -0.74205E+02   -0.54433E+02  5428   0.233E+01    0.307E+01
RMM:  15    -0.415563914122E+03    0.84266E+02   -0.19974E+02  5089   0.164E+01    0.679E+00
RMM:  16    -0.414003048780E+03    0.15609E+01   -0.39378E+01  6083   0.609E+00    0.425E+00
RMM:  17    -0.413210421757E+03    0.79263E+00   -0.25127E+00  5414   0.187E+00    0.243E+00
RMM:  18    -0.413173786793E+03    0.36635E-01   -0.78900E-01  5974   0.906E-01    0.166E+00
RMM:  19    -0.413168627912E+03    0.51589E-02   -0.28917E-01  5699   0.573E-01    0.866E-01
RMM:  20    -0.413187053615E+03   -0.18426E-01   -0.25323E-01  5575   0.528E-01    0.597E-01
RMM:  21    -0.413168069364E+03    0.18984E-01   -0.34916E-02  4997   0.234E-01    0.276E-01
RMM:  22    -0.413165533181E+03    0.25362E-02   -0.19376E-02  5977   0.126E-01    0.138E-01
RMM:  23    -0.413164462514E+03    0.10707E-02   -0.57338E-03  6011   0.673E-02    0.851E-02
RMM:  24    -0.413163187596E+03    0.12749E-02   -0.17065E-03  5352   0.414E-02    0.468E-02
RMM:  25    -0.413162764162E+03    0.42343E-03   -0.87727E-04  5250   0.270E-02    0.377E-02
RMM:  26    -0.413162922930E+03   -0.15877E-03   -0.94401E-04  5787   0.314E-02    0.331E-02
RMM:  27    -0.413163383434E+03   -0.46050E-03   -0.20332E-04  4525   0.202E-02    0.187E-02
RMM:  28    -0.413163857856E+03   -0.47442E-03   -0.17332E-04  5154   0.185E-02    0.890E-03
RMM:  29    -0.413164252358E+03   -0.39450E-03   -0.11356E-04  4526   0.155E-02    0.461E-03
RMM:  30    -0.413164469054E+03   -0.21670E-03   -0.73962E-05  4098   0.989E-03    0.340E-03
RMM:  31    -0.413164600507E+03   -0.13145E-03   -0.55624E-05  3232   0.715E-03    0.317E-03
RMM:  32    -0.413164622546E+03   -0.22039E-04   -0.20526E-05  2983   0.298E-03    0.158E-03
RMM:  33    -0.413164632938E+03   -0.10392E-04   -0.82837E-06  2776   0.215E-03    0.613E-04
RMM:  34    -0.413164634798E+03   -0.18592E-05   -0.46750E-06  2658   0.160E-03    0.692E-04
RMM:  35    -0.413164634034E+03    0.76346E-06   -0.21810E-06  2212   0.115E-03
    1 T=    61. E= -.41286684E+03 F= -.41316463E+03 E0= -.41314214E+03  EK= 0.29779E+00 SP= 0.00E+00 SK= 0.00E+00
       N       E                     dE             d eps       ncg     rms          rms(c)
RMM:   1    -0.413160937755E+03    0.36970E-02   -0.95661E+00  3985   0.638E-01    0.885E-01
RMM:   2    -0.413167822810E+03   -0.68851E-02   -0.11710E-01  3981   0.916E-02    0.648E-01
RMM:   3    -0.413164486851E+03    0.33360E-02   -0.13018E-02  4693   0.437E-02    0.909E-02
RMM:   4    -0.413180768801E+03   -0.16282E-01   -0.17122E-02  5207   0.109E-01    0.535E-01
RMM:   5    -0.413164220644E+03    0.16548E-01   -0.82029E-03  4853   0.896E-02    0.423E-02
RMM:   6    -0.413164343193E+03   -0.12255E-03   -0.15184E-03  5767   0.377E-02    0.302E-02
RMM:   7    -0.413164340757E+03    0.24368E-05   -0.32306E-04  5598   0.168E-02    0.175E-02
RMM:   8    -0.413164339599E+03    0.11576E-05   -0.33799E-05  4696   0.655E-03    0.757E-03
RMM:   9    -0.413164342982E+03   -0.33827E-05   -0.71884E-06  3177   0.288E-03    0.575E-03
RMM:  10    -0.413164348171E+03   -0.51893E-05   -0.17252E-06  2550   0.200E-03    0.338E-03
RMM:  11    -0.413164353765E+03   -0.55944E-05   -0.12923E-06  2524   0.169E-03    0.159E-03
RMM:  12    -0.413164359723E+03   -0.59577E-05   -0.11164E-06  2491   0.152E-03    0.637E-04
RMM:  13    -0.413164361232E+03   -0.15094E-05   -0.47835E-07  2114   0.104E-03    0.396E-04
RMM:  14    -0.413164361878E+03   -0.64590E-06   -0.28514E-07  1614   0.767E-04
    2 T=    61. E= -.41286659E+03 F= -.41316436E+03 E0= -.41314186E+03  EK= 0.29777E+00 SP= 0.00E+00 SK= 0.00E+00
       N       E                     dE             d eps       ncg     rms          rms(c)
RMM:   1    -0.413161982689E+03    0.23785E-02   -0.95743E+00  4192   0.643E-01    0.906E-01
RMM:   2    -0.413167947417E+03   -0.59647E-02   -0.11550E-01  4036   0.905E-02    0.643E-01
RMM:   3    -0.413165288915E+03    0.26585E-02   -0.12772E-02  4870   0.457E-02    0.122E-01
RMM:   4    -0.413193814902E+03   -0.28526E-01   -0.29899E-02  5167   0.144E-01    0.705E-01
RMM:   5    -0.413164725335E+03    0.29090E-01   -0.14017E-02  4831   0.118E-01    0.486E-02
RMM:   6    -0.413164915937E+03   -0.19060E-03   -0.24397E-03  5757   0.485E-02    0.333E-02
RMM:   7    -0.413164911048E+03    0.48888E-05   -0.42618E-04  5699   0.189E-02    0.204E-02
RMM:   8    -0.413164904344E+03    0.67043E-05   -0.58912E-05  5145   0.836E-03    0.926E-03
RMM:   9    -0.413164902877E+03    0.14668E-05   -0.12110E-05  3796   0.381E-03    0.693E-03
RMM:  10    -0.413164903137E+03   -0.26018E-06   -0.19371E-06  2576   0.217E-03
    3 T=    61. E= -.41286686E+03 F= -.41316490E+03 E0= -.41314241E+03  EK= 0.29804E+00 SP= 0.00E+00 SK= 0.00E+00
       N       E                     dE             d eps       ncg     rms          rms(c)
RMM:   1    -0.413161471334E+03    0.34315E-02   -0.95009E+00  4223   0.645E-01    0.890E-01
RMM:   2    -0.413167666348E+03   -0.61950E-02   -0.11501E-01  4212   0.905E-02    0.638E-01
RMM:   3    -0.413169378252E+03   -0.17119E-02   -0.15925E-02  5155   0.766E-02    0.304E-01
RMM:   4    -0.413191257113E+03   -0.21879E-01   -0.39992E-02  5116   0.170E-01    0.674E-01
RMM:   5    -0.413164616593E+03    0.26641E-01   -0.10506E-02  4717   0.111E-01    0.600E-02
RMM:   6    -0.413164651899E+03   -0.35307E-04   -0.20006E-03  5476   0.449E-02    0.304E-02
RMM:   7    -0.413164674550E+03   -0.22651E-04   -0.36996E-04  6022   0.172E-02    0.188E-02
RMM:   8    -0.413164671446E+03    0.31047E-05   -0.67562E-05  5211   0.924E-03    0.794E-03
RMM:   9    -0.413164669359E+03    0.20866E-05   -0.90798E-06  3508   0.375E-03    0.400E-03
RMM:  10    -0.413164670497E+03   -0.11382E-05   -0.18450E-06  2563   0.216E-03    0.261E-03
RMM:  11    -0.413164672285E+03   -0.17876E-05   -0.14700E-06  2543   0.187E-03    0.156E-03
RMM:  12    -0.413164673189E+03   -0.90386E-06   -0.76687E-07  2495   0.143E-03
    4 T=    61. E= -.41286663E+03 F= -.41316467E+03 E0= -.41314219E+03  EK= 0.29804E+00 SP= 0.00E+00 SK= 0.00E+00
       N       E                     dE             d eps       ncg     rms          rms(c)
RMM:   1    -0.413161419761E+03    0.32525E-02   -0.95584E+00  4235   0.650E-01    0.883E-01
RMM:   2    -0.413168159970E+03   -0.67402E-02   -0.11718E-01  4029   0.899E-02    0.647E-01
RMM:   3    -0.413165268987E+03    0.28910E-02   -0.13158E-02  4924   0.461E-02    0.116E-01
RMM:   4    -0.413195290460E+03   -0.30021E-01   -0.31614E-02  5155   0.148E-01    0.723E-01
RMM:   5    -0.413164631456E+03    0.30659E-01   -0.14720E-02  4818   0.121E-01    0.478E-02
RMM:   6    -0.413164831231E+03   -0.19977E-03   -0.25089E-03  5766   0.492E-02    0.313E-02
RMM:   7    -0.413164838063E+03   -0.68323E-05   -0.41616E-04  5769   0.186E-02    0.200E-02
RMM:   8    -0.413164836367E+03    0.16961E-05   -0.63355E-05  5075   0.848E-03    0.934E-03
RMM:   9    -0.413164837440E+03   -0.10728E-05   -0.12470E-05  3846   0.396E-03    0.690E-03
RMM:  10    -0.413164841568E+03   -0.41281E-05   -0.18839E-06  2576   0.215E-03    0.435E-03
RMM:  11    -0.413164845667E+03   -0.40993E-05   -0.12564E-06  2532   0.176E-03    0.232E-03
RMM:  12    -0.413164851648E+03   -0.59808E-05   -0.18237E-06  2593   0.193E-03    0.100E-03
RMM:  13    -0.413164853040E+03   -0.13915E-05   -0.52630E-07  2344   0.125E-03    0.671E-04
RMM:  14    -0.413164852978E+03    0.61646E-07   -0.22539E-07  1819   0.828E-04
    5 T=    61. E= -.41286668E+03 F= -.41316485E+03 E0= -.41314238E+03  EK= 0.29817E+00 SP= 0.00E+00 SK= 0.00E+00
       N       E                     dE             d eps       ncg     rms          rms(c)
RMM:   1    -0.413162343529E+03    0.25095E-02   -0.95791E+00  4247   0.657E-01    0.902E-01
RMM:   2    -0.413168203207E+03   -0.58597E-02   -0.11590E-01  4085   0.912E-02    0.645E-01
RMM:   3    -0.413165554930E+03    0.26483E-02   -0.12781E-02  4799   0.431E-02    0.109E-01
RMM:   4    -0.413187931866E+03   -0.22377E-01   -0.23021E-02  5155   0.126E-01    0.626E-01
RMM:   5    -0.413165154756E+03    0.22777E-01   -0.11043E-02  4822   0.104E-01    0.454E-02
RMM:   6    -0.413165316204E+03   -0.16145E-03   -0.20188E-03  5770   0.430E-02    0.311E-02
RMM:   7    -0.413165310968E+03    0.52359E-05   -0.36417E-04  5626   0.180E-02    0.194E-02
RMM:   8    -0.413165302640E+03    0.83285E-05   -0.50519E-05  4940   0.794E-03    0.909E-03
RMM:   9    -0.413165301432E+03    0.12081E-05   -0.10177E-05  3589   0.358E-03    0.699E-03
RMM:  10    -0.413165301788E+03   -0.35607E-06   -0.16872E-06  2547   0.216E-03
    6 T=    61. E= -.41286689E+03 F= -.41316530E+03 E0= -.41314284E+03  EK= 0.29842E+00 SP= 0.00E+00 SK= 0.00E+00
       N       E                     dE             d eps       ncg     rms          rms(c)
RMM:   1    -0.413161977710E+03    0.33237E-02   -0.95260E+00  4255   0.658E-01    0.897E-01
RMM:   2    -0.413167962780E+03   -0.59851E-02   -0.11523E-01  4246   0.906E-02    0.639E-01
RMM:   3    -0.413169017679E+03   -0.10549E-02   -0.15380E-02  5122   0.716E-02    0.281E-01
RMM:   4    -0.413194204796E+03   -0.25187E-01   -0.41219E-02  5109   0.172E-01    0.705E-01
RMM:   5    -0.413165011831E+03    0.29193E-01   -0.11908E-02  4731   0.116E-01    0.600E-02
RMM:   6    -0.413165073137E+03   -0.61305E-04   -0.22127E-03  5531   0.469E-02    0.309E-02
RMM:   7    -0.413165092323E+03   -0.19186E-04   -0.38861E-04  6011   0.173E-02    0.189E-02
RMM:   8    -0.413165087889E+03    0.44335E-05   -0.68320E-05  5217   0.920E-03    0.807E-03
RMM:   9    -0.413165084315E+03    0.35746E-05   -0.92070E-06  3469   0.369E-03    0.414E-03
RMM:  10    -0.413165084211E+03    0.10413E-06   -0.21279E-06  2588   0.220E-03
    7 T=    61. E= -.41286664E+03 F= -.41316508E+03 E0= -.41314264E+03  EK= 0.29844E+00 SP= 0.00E+00 SK= 0.00E+00
       N       E                     dE             d eps       ncg     rms          rms(c)
RMM:   1    -0.413162216074E+03    0.28682E-02   -0.95406E+00  4263   0.663E-01    0.882E-01
RMM:   2    -0.413169024871E+03   -0.68088E-02   -0.11660E-01  4158   0.912E-02    0.645E-01
RMM:   3    -0.413166223262E+03    0.28016E-02   -0.13130E-02  4920   0.490E-02    0.126E-01
RMM:   4    -0.413199782230E+03   -0.33559E-01   -0.35761E-02  5145   0.158E-01    0.764E-01
RMM:   5    -0.413165439540E+03    0.34343E-01   -0.16399E-02  4807   0.127E-01    0.499E-02
RMM:   6    -0.413165646715E+03   -0.20718E-03   -0.27861E-03  5761   0.519E-02    0.322E-02
RMM:   7    -0.413165653174E+03   -0.64589E-05   -0.44952E-04  5807   0.191E-02    0.205E-02
RMM:   8    -0.413165651312E+03    0.18613E-05   -0.66542E-05  5155   0.870E-03    0.950E-03
RMM:   9    -0.413165651160E+03    0.15230E-06   -0.13123E-05  3886   0.405E-03    0.681E-03
RMM:  10    -0.413165654107E+03   -0.29472E-05   -0.19999E-06  2583   0.217E-03    0.431E-03
RMM:  11    -0.413165656966E+03   -0.28585E-05   -0.12744E-06  2529   0.176E-03    0.227E-03
RMM:  12    -0.413165660927E+03   -0.39614E-05   -0.18573E-06  2594   0.194E-03    0.973E-04
RMM:  13    -0.413165661832E+03   -0.90530E-06   -0.54875E-07  2352   0.125E-03
    8 T=    61. E= -.41286690E+03 F= -.41316566E+03 E0= -.41314323E+03  EK= 0.29877E+00 SP= 0.00E+00 SK= 0.00E+00
       N       E                     dE             d eps       ncg     rms          rms(c)
RMM:   1    -0.413162675085E+03    0.29858E-02   -0.95859E+00  4287   0.672E-01    0.897E-01
RMM:   2    -0.413169128997E+03   -0.64539E-02   -0.11642E-01  4197   0.926E-02    0.648E-01
RMM:   3    -0.413166081138E+03    0.30479E-02   -0.12866E-02  4788   0.443E-02    0.106E-01
RMM:   4    -0.413188667247E+03   -0.22586E-01   -0.23229E-02  5149   0.127E-01    0.629E-01
RMM:   5    -0.413165674268E+03    0.22993E-01   -0.11184E-02  4817   0.104E-01    0.446E-02
RMM:   6    -0.413165827998E+03   -0.15373E-03   -0.19803E-03  5796   0.425E-02    0.291E-02
RMM:   7    -0.413165830890E+03   -0.28921E-05   -0.32541E-04  5655   0.173E-02    0.185E-02
RMM:   8    -0.413165823149E+03    0.77411E-05   -0.57253E-05  4950   0.817E-03    0.926E-03
RMM:   9    -0.413165821440E+03    0.17090E-05   -0.11142E-05  3776   0.382E-03    0.714E-03
RMM:  10    -0.413165821986E+03   -0.54587E-06   -0.16773E-06  2547   0.216E-03
    9 T=    61. E= -.41286678E+03 F= -.41316582E+03 E0= -.41314341E+03  EK= 0.29905E+00 SP= 0.00E+00 SK= 0.00E+00
       N       E                     dE             d eps       ncg     rms          rms(c)
RMM:   1    -0.413162972902E+03    0.28485E-02   -0.95616E+00  4296   0.672E-01    0.904E-01
RMM:   2    -0.413168907863E+03   -0.59350E-02   -0.11529E-01  4288   0.934E-02    0.641E-01
RMM:   3    -0.413170146071E+03   -0.12382E-02   -0.15710E-02  5107   0.748E-02    0.292E-01
RMM:   4    -0.413193664197E+03   -0.23518E-01   -0.40255E-02  5096   0.170E-01    0.689E-01
RMM:   5    -0.413165818665E+03    0.27846E-01   -0.11218E-02  4718   0.113E-01    0.591E-02
RMM:   6    -0.413165875109E+03   -0.56444E-04   -0.21098E-03  5526   0.456E-02    0.313E-02
RMM:   7    -0.413165887632E+03   -0.12523E-04   -0.36593E-04  5983   0.171E-02    0.189E-02
RMM:   8    -0.413165881153E+03    0.64783E-05   -0.65547E-05  5173   0.907E-03    0.795E-03
RMM:   9    -0.413165876441E+03    0.47127E-05   -0.86895E-06  3429   0.366E-03    0.407E-03
RMM:  10    -0.413165875272E+03    0.11688E-05   -0.19944E-06  2569   0.218E-03    0.268E-03
RMM:  11    -0.413165873333E+03    0.19391E-05   -0.13145E-06  2519   0.181E-03    0.149E-03
RMM:  12    -0.413165871401E+03    0.19318E-05   -0.75207E-07  2476   0.141E-03    0.552E-04
RMM:  13    -0.413165870302E+03    0.10994E-05   -0.37068E-07  2080   0.999E-04    0.307E-04
RMM:  14    -0.413165869162E+03    0.11398E-05   -0.23439E-07  1629   0.805E-04    0.206E-04
RMM:  15    -0.413165867690E+03    0.14723E-05   -0.20103E-07  1477   0.741E-04    0.124E-04
RMM:  16    -0.413165866029E+03    0.16608E-05   -0.17872E-07  1407   0.710E-04    0.125E-04
RMM:  17    -0.413165864314E+03    0.17148E-05   -0.15268E-07  1346   0.668E-04    0.715E-05
RMM:  18    -0.413165863313E+03    0.10005E-05   -0.83662E-08  1052   0.589E-04    0.364E-05
RMM:  19    -0.413165862725E+03    0.58825E-06   -0.46133E-08   867   0.548E-04
   10 T=    61. E= -.41286656E+03 F= -.41316586E+03 E0= -.41314348E+03  EK= 0.29930E+00 SP= 0.00E+00 SK= 0.00E+00
       N       E                     dE             d eps       ncg     rms          rms(c)
RMM:   1    -0.413163266023E+03    0.25973E-02   -0.95327E+00  4292   0.676E-01    0.882E-01
RMM:   2    -0.413169857977E+03   -0.65920E-02   -0.11640E-01  4234   0.924E-02    0.643E-01
RMM:   3    -0.413167180198E+03    0.26778E-02   -0.12960E-02  4899   0.488E-02    0.127E-01
RMM:   4    -0.413200369258E+03   -0.33189E-01   -0.35361E-02  5132   0.156E-01    0.760E-01
RMM:   5    -0.413166419129E+03    0.33950E-01   -0.16258E-02  4797   0.126E-01    0.498E-02
RMM:   6    -0.413166629948E+03   -0.21082E-03   -0.27994E-03  5742   0.513E-02    0.326E-02
RMM:   7    -0.413166633945E+03   -0.39967E-05   -0.44827E-04  5711   0.190E-02    0.207E-02
RMM:   8    -0.413166629366E+03    0.45793E-05   -0.65818E-05  5136   0.866E-03    0.962E-03
RMM:   9    -0.413166627855E+03    0.15106E-05   -0.13394E-05  3945   0.409E-03    0.699E-03
RMM:  10    -0.413166629360E+03   -0.15046E-05   -0.19539E-06  2575   0.216E-03    0.443E-03
RMM:  11    -0.413166630796E+03   -0.14361E-05   -0.11785E-06  2513   0.172E-03    0.243E-03
RMM:  12    -0.413166633044E+03   -0.22481E-05   -0.17126E-06  2572   0.193E-03    0.989E-04
RMM:  13    -0.413166633625E+03   -0.58065E-06   -0.53869E-07  2353   0.127E-03
   11 T=    61. E= -.41286687E+03 F= -.41316663E+03 E0= -.41314427E+03  EK= 0.29977E+00 SP= 0.00E+00 SK= 0.00E+00
       N       E                     dE             d eps       ncg     rms          rms(c)
RMM:   1    -0.413163381069E+03    0.32520E-02   -0.96041E+00  4293   0.682E-01    0.894E-01
RMM:   2    -0.413169842289E+03   -0.64612E-02   -0.11721E-01  4241   0.926E-02    0.650E-01
RMM:   3    -0.413166925964E+03    0.29163E-02   -0.13063E-02  4827   0.455E-02    0.109E-01
RMM:   4    -0.413192791133E+03   -0.25865E-01   -0.26902E-02  5132   0.136E-01    0.672E-01
RMM:   5    -0.413166425403E+03    0.26366E-01   -0.12749E-02  4799   0.111E-01    0.460E-02
RMM:   6    -0.413166604325E+03   -0.17892E-03   -0.22657E-03  5781   0.454E-02    0.300E-02
RMM:   7    -0.413166608749E+03   -0.44238E-05   -0.35979E-04  5695   0.178E-02    0.191E-02
RMM:   8    -0.413166601857E+03    0.68917E-05   -0.62951E-05  4997   0.844E-03    0.957E-03
RMM:   9    -0.413166599997E+03    0.18601E-05   -0.12321E-05  3919   0.399E-03    0.729E-03
RMM:  10    -0.413166600787E+03   -0.78979E-06   -0.17196E-06  2550   0.215E-03
   12 T=    61. E= -.41286659E+03 F= -.41316660E+03 E0= -.41314427E+03  EK= 0.30001E+00 SP= 0.00E+00 SK= 0.00E+00
       N       E                     dE             d eps       ncg     rms          rms(c)
RMM:   1    -0.413164401819E+03    0.21982E-02   -0.95998E+00  4301   0.685E-01    0.909E-01
RMM:   2    -0.413169885621E+03   -0.54838E-02   -0.11582E-01  4307   0.902E-02    0.643E-01
RMM:   3    -0.413172269857E+03   -0.23842E-02   -0.16554E-02  5130   0.775E-02    0.317E-01
RMM:   4    -0.413192377493E+03   -0.20108E-01   -0.39333E-02  5093   0.169E-01    0.657E-01
RMM:   5    -0.413167124009E+03    0.25253E-01   -0.98552E-03  4693   0.107E-01    0.588E-02
RMM:   6    -0.413167159790E+03   -0.35782E-04   -0.19159E-03  5472   0.433E-02    0.312E-02
RMM:   7    -0.413167171597E+03   -0.11807E-04   -0.34570E-04  5965   0.169E-02    0.188E-02
RMM:   8    -0.413167164217E+03    0.73795E-05   -0.63751E-05  5157   0.906E-03    0.785E-03
RMM:   9    -0.413167158483E+03    0.57347E-05   -0.82569E-06  3406   0.365E-03    0.397E-03
RMM:  10    -0.413167156684E+03    0.17988E-05   -0.17866E-06  2544   0.215E-03    0.257E-03
RMM:  11    -0.413167153567E+03    0.31172E-05   -0.13305E-06  2521   0.182E-03    0.149E-03
RMM:  12    -0.413167150903E+03    0.26633E-05   -0.70419E-07  2468   0.140E-03    0.565E-04
RMM:  13    -0.413167149296E+03    0.16078E-05   -0.36310E-07  2079   0.993E-04    0.318E-04
RMM:  14    -0.413167147782E+03    0.15138E-05   -0.21682E-07  1580   0.796E-04    0.217E-04
RMM:  15    -0.413167145428E+03    0.23540E-05   -0.20571E-07  1467   0.752E-04    0.130E-04
RMM:  16    -0.413167143266E+03    0.21614E-05   -0.16476E-07  1397   0.699E-04    0.127E-04
RMM:  17    -0.413167140911E+03    0.23551E-05   -0.15077E-07  1372   0.674E-04    0.716E-05
RMM:  18    -0.413167139834E+03    0.10774E-05   -0.72916E-08  1003   0.579E-04    0.414E-05
RMM:  19    -0.413167139055E+03    0.77877E-06   -0.43699E-08   870   0.549E-04
   13 T=    61. E= -.41286667E+03 F= -.41316714E+03 E0= -.41314484E+03  EK= 0.30047E+00 SP= 0.00E+00 SK= 0.00E+00
       N       E                     dE             d eps       ncg     rms          rms(c)
RMM:   1    -0.413164670195E+03    0.24696E-02   -0.95388E+00  4292   0.700E-01    0.885E-01
RMM:   2    -0.413170877899E+03   -0.62077E-02   -0.11658E-01  4247   0.916E-02    0.641E-01
RMM:   3    -0.413168432644E+03    0.24453E-02   -0.12847E-02  4934   0.471E-02    0.132E-01
RMM:   4    -0.413202648806E+03   -0.34216E-01   -0.36744E-02  5138   0.159E-01    0.771E-01
RMM:   5    -0.413167640892E+03    0.35008E-01   -0.16860E-02  4793   0.128E-01    0.503E-02
RMM:   6    -0.413167847842E+03   -0.20695E-03   -0.28557E-03  5748   0.520E-02    0.331E-02
RMM:   7    -0.413167846976E+03    0.86591E-06   -0.45285E-04  5690   0.193E-02    0.209E-02
RMM:   8    -0.413167840471E+03    0.65057E-05   -0.68527E-05  5158   0.888E-03    0.983E-03
RMM:   9    -0.413167837463E+03    0.30078E-05   -0.14064E-05  4004   0.419E-03    0.705E-03
RMM:  10    -0.413167837261E+03    0.20200E-06   -0.19930E-06  2572   0.217E-03
   14 T=    61. E= -.41286686E+03 F= -.41316784E+03 E0= -.41314557E+03  EK= 0.30098E+00 SP= 0.00E+00 SK= 0.00E+00
       N       E                     dE             d eps       ncg     rms          rms(c)
RMM:   1    -0.413164597143E+03    0.32403E-02   -0.96255E+00  4308   0.694E-01    0.891E-01
RMM:   2    -0.413171324665E+03   -0.67275E-02   -0.11780E-01  4315   0.924E-02    0.652E-01
RMM:   3    -0.413173876215E+03   -0.25516E-02   -0.17650E-02  5128   0.827E-02    0.337E-01
RMM:   4    -0.413193954721E+03   -0.20079E-01   -0.42130E-02  5082   0.175E-01    0.666E-01
RMM:   5    -0.413167805050E+03    0.26150E-01   -0.99964E-03  4683   0.108E-01    0.585E-02
RMM:   6    -0.413167833336E+03   -0.28286E-04   -0.19296E-03  5463   0.433E-02    0.293E-02
RMM:   7    -0.413167854938E+03   -0.21603E-04   -0.34023E-04  5979   0.168E-02    0.182E-02
RMM:   8    -0.413167854236E+03    0.70219E-06   -0.65312E-05  5163   0.906E-03    0.765E-03
RMM:   9    -0.413167852378E+03    0.18578E-05   -0.86150E-06  3411   0.371E-03    0.383E-03
RMM:  10    -0.413167853423E+03   -0.10447E-05   -0.17045E-06  2542   0.209E-03    0.248E-03
RMM:  11    -0.413167854944E+03   -0.15208E-05   -0.14302E-06  2533   0.184E-03    0.154E-03
RMM:  12    -0.413167855383E+03   -0.43951E-06   -0.68871E-07  2464   0.138E-03
   15 T=    61. E= -.41286647E+03 F= -.41316786E+03 E0= -.41314562E+03  EK= 0.30138E+00 SP= 0.00E+00 SK= 0.00E+00
       N       E                     dE             d eps       ncg     rms          rms(c)
RMM:   1    -0.413166071583E+03    0.17834E-02   -0.96359E+00  4300   0.697E-01    0.911E-01
RMM:   2    -0.413172011489E+03   -0.59399E-02   -0.11651E-01  4256   0.937E-02    0.646E-01
RMM:   3    -0.413169526782E+03    0.24847E-02   -0.13053E-02  4931   0.488E-02    0.140E-01
RMM:   4    -0.413204689487E+03   -0.35163E-01   -0.37780E-02  5130   0.161E-01    0.781E-01
RMM:   5    -0.413168710649E+03    0.35979E-01   -0.17344E-02  4791   0.130E-01    0.513E-02
RMM:   6    -0.413168913455E+03   -0.20281E-03   -0.29576E-03  5746   0.532E-02    0.342E-02
RMM:   7    -0.413168907093E+03    0.63619E-05   -0.46756E-04  5737   0.199E-02    0.217E-02
RMM:   8    -0.413168895948E+03    0.11145E-04   -0.73953E-05  5165   0.921E-03    0.105E-02
RMM:   9    -0.413168889672E+03    0.62764E-05   -0.14541E-05  4073   0.429E-03    0.748E-03
RMM:  10    -0.413168885752E+03    0.39193E-05   -0.21107E-06  2580   0.226E-03    0.467E-03
RMM:  11    -0.413168882765E+03    0.29873E-05   -0.12253E-06  2511   0.176E-03    0.263E-03
RMM:  12    -0.413168877232E+03    0.55331E-05   -0.18901E-06  2586   0.206E-03    0.108E-03
RMM:  13    -0.413168874521E+03    0.27111E-05   -0.60468E-07  2390   0.135E-03    0.843E-04
RMM:  14    -0.413168874838E+03   -0.31705E-06   -0.24924E-07  1935   0.877E-04
   16 T=    62. E= -.41286673E+03 F= -.41316887E+03 E0= -.41314668E+03  EK= 0.30214E+00 SP= 0.00E+00 SK= 0.00E+00
       N       E                     dE             d eps       ncg     rms          rms(c)
RMM:   1    -0.413166122233E+03    0.27523E-02   -0.95677E+00  4298   0.703E-01    0.892E-01
RMM:   2    -0.413172566150E+03   -0.64439E-02   -0.11639E-01  4262   0.932E-02    0.641E-01
RMM:   3    -0.413169751588E+03    0.28146E-02   -0.12653E-02  4844   0.467E-02    0.121E-01
RMM:   4    -0.413198634651E+03   -0.28883E-01   -0.30325E-02  5124   0.145E-01    0.709E-01
RMM:   5    -0.413169170094E+03    0.29465E-01   -0.14302E-02  4793   0.118E-01    0.478E-02
RMM:   6    -0.413169345514E+03   -0.17542E-03   -0.24912E-03  5782   0.480E-02    0.316E-02
RMM:   7    -0.413169344036E+03    0.14783E-05   -0.39382E-04  5684   0.185E-02    0.200E-02
RMM:   8    -0.413169333567E+03    0.10468E-04   -0.67341E-05  5054   0.878E-03    0.999E-03
RMM:   9    -0.413169328730E+03    0.48377E-05   -0.13284E-05  4011   0.415E-03    0.747E-03
RMM:  10    -0.413169326281E+03    0.24487E-05   -0.18230E-06  2555   0.218E-03    0.465E-03
RMM:  11    -0.413169324097E+03    0.21841E-05   -0.13028E-06  2515   0.183E-03    0.250E-03
RMM:  12    -0.413169320657E+03    0.34399E-05   -0.16328E-06  2554   0.195E-03    0.970E-04
RMM:  13    -0.413169319211E+03    0.14458E-05   -0.49819E-07  2329   0.125E-03    0.637E-04
RMM:  14    -0.413169319142E+03    0.69438E-07   -0.22525E-07  1837   0.835E-04
   17 T=    62. E= -.41286658E+03 F= -.41316932E+03 E0= -.41314716E+03  EK= 0.30274E+00 SP= 0.00E+00 SK= 0.00E+00
       N       E                     dE             d eps       ncg     rms          rms(c)
RMM:   1    -0.413166575902E+03    0.27433E-02   -0.96530E+00  4294   0.707E-01    0.889E-01
RMM:   2    -0.413173262525E+03   -0.66866E-02   -0.11866E-01  4267   0.937E-02    0.653E-01
RMM:   3    -0.413170225519E+03    0.30370E-02   -0.13374E-02  4866   0.476E-02    0.115E-01
RMM:   4    -0.413199959367E+03   -0.29734E-01   -0.31345E-02  5123   0.147E-01    0.719E-01
RMM:   5    -0.413169613885E+03    0.30345E-01   -0.14751E-02  4791   0.120E-01    0.477E-02
RMM:   6    -0.413169797940E+03   -0.18406E-03   -0.25157E-03  5768   0.487E-02    0.313E-02
RMM:   7    -0.413169801186E+03   -0.32461E-05   -0.40926E-04  5685   0.186E-02    0.200E-02
RMM:   8    -0.413169794658E+03    0.65281E-05   -0.65359E-05  5083   0.864E-03    0.961E-03
RMM:   9    -0.413169792142E+03    0.25155E-05   -0.13100E-05  3939   0.409E-03    0.712E-03
RMM:  10    -0.413169792430E+03   -0.28792E-06   -0.17995E-06  2553   0.213E-03
   18 T=    62. E= -.41286645E+03 F= -.41316979E+03 E0= -.41314767E+03  EK= 0.30334E+00 SP= 0.00E+00 SK= 0.00E+00
       N       E                     dE             d eps       ncg     rms          rms(c)
RMM:   1    -0.413168173550E+03    0.16186E-02   -0.96753E+00  4303   0.714E-01    0.910E-01
RMM:   2    -0.413174070546E+03   -0.58970E-02   -0.11761E-01  4318   0.926E-02    0.650E-01
RMM:   3    -0.413176240078E+03   -0.21695E-02   -0.16738E-02  5118   0.794E-02    0.318E-01
RMM:   4    -0.413197527525E+03   -0.21287E-01   -0.40960E-02  5078   0.172E-01    0.671E-01
RMM:   5    -0.413171002389E+03    0.26525E-01   -0.10355E-02  4689   0.110E-01    0.585E-02
RMM:   6    -0.413171043148E+03   -0.40760E-04   -0.19993E-03  5477   0.443E-02    0.311E-02
RMM:   7    -0.413171051598E+03   -0.84500E-05   -0.35625E-04  5974   0.170E-02    0.191E-02
RMM:   8    -0.413171043907E+03    0.76907E-05   -0.66346E-05  5160   0.913E-03    0.802E-03
RMM:   9    -0.413171037308E+03    0.65998E-05   -0.86647E-06  3436   0.372E-03    0.402E-03
RMM:  10    -0.413171034917E+03    0.23906E-05   -0.18806E-06  2555   0.216E-03    0.262E-03
RMM:  11    -0.413171030904E+03    0.40134E-05   -0.12589E-06  2507   0.180E-03    0.148E-03
RMM:  12    -0.413171027442E+03    0.34619E-05   -0.66849E-07  2458   0.138E-03    0.542E-04
RMM:  13    -0.413171025406E+03    0.20358E-05   -0.33465E-07  2069   0.980E-04    0.309E-04
RMM:  14    -0.413171023561E+03    0.18454E-05   -0.19241E-07  1563   0.779E-04    0.213E-04
RMM:  15    -0.413171020507E+03    0.30537E-05   -0.16777E-07  1427   0.732E-04    0.126E-04
RMM:  16    -0.413171017840E+03    0.26668E-05   -0.12830E-07  1334   0.678E-04    0.124E-04
RMM:  17    -0.413171014840E+03    0.29999E-05   -0.11600E-07  1294   0.657E-04    0.683E-05
RMM:  18    -0.413171013349E+03    0.14911E-05   -0.63340E-08  1019   0.584E-04    0.404E-05
RMM:  19    -0.413171012362E+03    0.98746E-06   -0.35855E-08   849   0.552E-04
   19 T=    62. E= -.41286683E+03 F= -.41317101E+03 E0= -.41314894E+03  EK= 0.30418E+00 SP= 0.00E+00 SK= 0.00E+00
       N       E                     dE             d eps       ncg     rms          rms(c)
RMM:   1    -0.413168357213E+03    0.26561E-02   -0.96208E+00  4297   0.711E-01    0.900E-01
RMM:   2    -0.413174219784E+03   -0.58626E-02   -0.11712E-01  4263   0.926E-02    0.643E-01
RMM:   3    -0.413172086122E+03    0.21337E-02   -0.12957E-02  4940   0.486E-02    0.142E-01
RMM:   4    -0.413208200118E+03   -0.36114E-01   -0.39220E-02  5132   0.164E-01    0.792E-01
RMM:   5    -0.413171194409E+03    0.37006E-01   -0.17902E-02  4788   0.132E-01    0.518E-02
RMM:   6    -0.413171402584E+03   -0.20818E-03   -0.30234E-03  5749   0.539E-02    0.343E-02
RMM:   7    -0.413171398323E+03    0.42616E-05   -0.47876E-04  5703   0.199E-02    0.218E-02
RMM:   8    -0.413171387594E+03    0.10728E-04   -0.75372E-05  5202   0.930E-03    0.104E-02
RMM:   9    -0.413171381338E+03    0.62565E-05   -0.14978E-05  4120   0.436E-03    0.733E-03
RMM:  10    -0.413171377713E+03    0.36252E-05   -0.21155E-06  2579   0.223E-03    0.463E-03
RMM:  11    -0.413171374973E+03    0.27396E-05   -0.11757E-06  2510   0.173E-03    0.261E-03
RMM:  12    -0.413171370091E+03    0.48818E-05   -0.16981E-06  2551   0.199E-03    0.104E-03
RMM:  13    -0.413171367631E+03    0.24606E-05   -0.58319E-07  2374   0.134E-03    0.845E-04
RMM:  14    -0.413171367918E+03   -0.28734E-06   -0.25129E-07  1946   0.879E-04
   20 T=    62. E= -.41286656E+03 F= -.41317137E+03 E0= -.41314933E+03  EK= 0.30481E+00 SP= 0.00E+00 SK= 0.00E+00
       N       E                     dE             d eps       ncg     rms          rms(c)
RMM:   1    -0.413170040148E+03    0.13275E-02   -0.96846E+00  4298   0.733E-01    0.889E-01
RMM:   2    -0.413175924485E+03   -0.58843E-02   -0.12011E-01  4279   0.937E-02    0.653E-01
RMM:   3    -0.413172900281E+03    0.30242E-02   -0.13275E-02  4855   0.466E-02    0.112E-01
RMM:   4    -0.413200784801E+03   -0.27885E-01   -0.29246E-02  5128   0.142E-01    0.697E-01
RMM:   5    -0.413172355789E+03    0.28429E-01   -0.13940E-02  4801   0.116E-01    0.465E-02
RMM:   6    -0.413172520191E+03   -0.16440E-03   -0.23299E-03  5806   0.469E-02    0.297E-02
RMM:   7    -0.413172524067E+03   -0.38765E-05   -0.34978E-04  5682   0.179E-02    0.184E-02
RMM:   8    -0.413172517383E+03    0.66842E-05   -0.68537E-05  5033   0.871E-03    0.984E-03
RMM:   9    -0.413172513422E+03    0.39611E-05   -0.13388E-05  4042   0.419E-03    0.728E-03
RMM:  10    -0.413172512825E+03    0.59697E-06   -0.17797E-06  2554   0.214E-03
   21 T=    62. E= -.41286680E+03 F= -.41317251E+03 E0= -.41315052E+03  EK= 0.30572E+00 SP= 0.00E+00 SK= 0.00E+00
       N       E                     dE             d eps       ncg     rms          rms(c)
RMM:   1    -0.413173137569E+03   -0.62415E-03   -0.97467E+00  4297   0.759E-01    0.907E-01
RMM:   2    -0.413176923042E+03   -0.37855E-02   -0.12579E-01  4313   0.994E-02    0.655E-01
RMM:   3    -0.413177632525E+03   -0.70948E-03   -0.15525E-02  5098   0.734E-02    0.285E-01
RMM:   4    -0.413206646567E+03   -0.29014E-01   -0.45973E-02  5095   0.181E-01    0.748E-01
RMM:   5    -0.413173513110E+03    0.33133E-01   -0.13809E-02  4718   0.123E-01    0.592E-02
RMM:   6    -0.413173599856E+03   -0.86746E-04   -0.25045E-03  5571   0.498E-02    0.315E-02
RMM:   7    -0.413173610863E+03   -0.11007E-04   -0.40597E-04  5955   0.180E-02    0.198E-02
RMM:   8    -0.413173605334E+03    0.55293E-05   -0.74293E-05  5186   0.954E-03    0.857E-03
RMM:   9    -0.413173598544E+03    0.67896E-05   -0.11279E-05  3683   0.402E-03    0.433E-03
RMM:  10    -0.413173596128E+03    0.24159E-05   -0.23604E-06  2616   0.225E-03    0.295E-03
RMM:  11    -0.413173592610E+03    0.35182E-05   -0.12048E-06  2504   0.178E-03    0.156E-03
RMM:  12    -0.413173588846E+03    0.37643E-05   -0.73097E-07  2464   0.142E-03    0.517E-04
RMM:  13    -0.413173586844E+03    0.20014E-05   -0.35768E-07  2124   0.101E-03    0.313E-04
RMM:  14    -0.413173585341E+03    0.15032E-05   -0.19834E-07  1622   0.787E-04    0.226E-04
RMM:  15    -0.413173582666E+03    0.26748E-05   -0.15024E-07  1373   0.715E-04    0.114E-04
RMM:  16    -0.413173579772E+03    0.28943E-05   -0.12466E-07  1323   0.685E-04    0.133E-04
RMM:  17    -0.413173577359E+03    0.24127E-05   -0.93161E-08  1203   0.638E-04    0.748E-05
RMM:  18    -0.413173574792E+03    0.25673E-05   -0.77501E-08  1148   0.615E-04    0.300E-05
RMM:  19    -0.413173573982E+03    0.80969E-06   -0.35208E-08   851   0.552E-04
   22 T=    62. E= -.41286688E+03 F= -.41317357E+03 E0= -.41315163E+03  EK= 0.30669E+00 SP= 0.00E+00 SK= 0.00E+00
       N       E                     dE             d eps       ncg     rms          rms(c)
RMM:   1    -0.413171329069E+03    0.22457E-02   -0.96979E+00  4294   0.725E-01    0.909E-01
RMM:   2    -0.413177515559E+03   -0.61865E-02   -0.11820E-01  4281   0.956E-02    0.647E-01
RMM:   3    -0.413174821067E+03    0.26945E-02   -0.13009E-02  4882   0.493E-02    0.136E-01
RMM:   4    -0.413208595055E+03   -0.33774E-01   -0.36029E-02  5131   0.157E-01    0.765E-01
RMM:   5    -0.413174085253E+03    0.34510E-01   -0.16814E-02  4788   0.128E-01    0.507E-02
RMM:   6    -0.413174278752E+03   -0.19350E-03   -0.28742E-03  5774   0.519E-02    0.338E-02
RMM:   7    -0.413174275159E+03    0.35934E-05   -0.44494E-04  5682   0.198E-02    0.212E-02
RMM:   8    -0.413174263631E+03    0.11527E-04   -0.77130E-05  5149   0.937E-03    0.108E-02
RMM:   9    -0.413174256158E+03    0.74735E-05   -0.15064E-05  4138   0.442E-03    0.769E-03
RMM:  10    -0.413174251344E+03    0.48139E-05   -0.20966E-06  2582   0.226E-03    0.483E-03
RMM:  11    -0.413174247430E+03    0.39138E-05   -0.12695E-06  2511   0.181E-03    0.268E-03
RMM:  12    -0.413174240826E+03    0.66039E-05   -0.17972E-06  2563   0.206E-03    0.108E-03
RMM:  13    -0.413174238310E+03    0.25156E-05   -0.56862E-07  2366   0.135E-03    0.765E-04
RMM:  14    -0.413174238273E+03    0.36918E-07   -0.25108E-07  1955   0.885E-04
   23 T=    63. E= -.41286655E+03 F= -.41317424E+03 E0= -.41315234E+03  EK= 0.30769E+00 SP= 0.00E+00 SK= 0.00E+00
       N       E                     dE             d eps       ncg     rms          rms(c)
RMM:   1    -0.413172803912E+03    0.14344E-02   -0.97192E+00  4296   0.744E-01    0.892E-01
RMM:   2    -0.413179547385E+03   -0.67435E-02   -0.12071E-01  4283   0.987E-02    0.653E-01
RMM:   3    -0.413176080399E+03    0.34670E-02   -0.13072E-02  4741   0.469E-02    0.104E-01
RMM:   4    -0.413197778206E+03   -0.21698E-01   -0.22348E-02  5135   0.124E-01    0.616E-01
RMM:   5    -0.413175708613E+03    0.22070E-01   -0.10904E-02  4803   0.102E-01    0.444E-02
RMM:   6    -0.413175831538E+03   -0.12293E-03   -0.19193E-03  5829   0.410E-02    0.276E-02
RMM:   7    -0.413175833887E+03   -0.23492E-05   -0.24586E-04  5631   0.156E-02    0.146E-02
RMM:   8    -0.413175830350E+03    0.35372E-05   -0.51774E-05  4987   0.744E-03    0.958E-03
RMM:   9    -0.413175825843E+03    0.45071E-05   -0.10696E-05  3827   0.379E-03    0.717E-03
RMM:  10    -0.413175824305E+03    0.15382E-05   -0.15976E-06  2540   0.215E-03    0.443E-03
RMM:  11    -0.413175822458E+03    0.18472E-05   -0.15480E-06  2535   0.198E-03    0.223E-03
RMM:  12    -0.413175819825E+03    0.26323E-05   -0.12904E-06  2502   0.179E-03    0.842E-04
RMM:  13    -0.413175819026E+03    0.79966E-06   -0.42851E-07  2234   0.115E-03
   24 T=    63. E= -.41286678E+03 F= -.41317582E+03 E0= -.41315397E+03  EK= 0.30904E+00 SP= 0.00E+00 SK= 0.00E+00
       N       E                     dE             d eps       ncg     rms          rms(c)
RMM:   1    -0.413177937858E+03   -0.21180E-02   -0.98400E+00  4297   0.777E-01    0.906E-01
RMM:   2    -0.413180464195E+03   -0.25263E-02   -0.13005E-01  4280   0.104E-01    0.660E-01
RMM:   3    -0.413176936904E+03    0.35273E-02   -0.12575E-02  4612   0.458E-02    0.107E-01
RMM:   4    -0.413192086125E+03   -0.15149E-01   -0.15549E-02  5140   0.104E-01    0.517E-01
RMM:   5    -0.413176718733E+03    0.15367E-01   -0.76637E-03  4821   0.853E-02    0.420E-02
RMM:   6    -0.413176787148E+03   -0.68414E-04   -0.13577E-03  5834   0.338E-02    0.244E-02
RMM:   7    -0.413176785084E+03    0.20637E-05   -0.15569E-04  5559   0.127E-02    0.116E-02
RMM:   8    -0.413176778194E+03    0.68899E-05   -0.26601E-05  4621   0.545E-03    0.772E-03
RMM:   9    -0.413176777457E+03    0.73718E-06   -0.69671E-06  3334   0.307E-03
   25 T=    63. E= -.41286654E+03 F= -.41317678E+03 E0= -.41315498E+03  EK= 0.31024E+00 SP= 0.00E+00 SK= 0.00E+00
       N       E                     dE             d eps       ncg     rms          rms(c)
RMM:   1    -0.413175419130E+03    0.13591E-02   -0.98056E+00  4296   0.744E-01    0.919E-01
RMM:   2    -0.413181269991E+03   -0.58509E-02   -0.11982E-01  4343   0.996E-02    0.653E-01
RMM:   3    -0.413185768999E+03   -0.44990E-02   -0.18836E-02  5125   0.922E-02    0.381E-01
RMM:   4    -0.413198888354E+03   -0.13119E-01   -0.37943E-02  5055   0.167E-01    0.594E-01
RMM:   5    -0.413178177706E+03    0.20711E-01   -0.72812E-03  4644   0.969E-02    0.560E-02
RMM:   6    -0.413178182383E+03   -0.46765E-05   -0.15931E-03  5497   0.386E-02    0.319E-02
RMM:   7    -0.413178175869E+03    0.65135E-05   -0.30040E-04  5843   0.165E-02    0.191E-02
RMM:   8    -0.413178165030E+03    0.10839E-04   -0.61851E-05  5049   0.901E-03    0.780E-03
RMM:   9    -0.413178156046E+03    0.89838E-05   -0.78623E-06  3426   0.373E-03    0.393E-03
RMM:  10    -0.413178151883E+03    0.41635E-05   -0.14860E-06  2521   0.207E-03    0.247E-03
RMM:  11    -0.413178144541E+03    0.73424E-05   -0.11102E-06  2496   0.172E-03    0.138E-03
RMM:  12    -0.413178138818E+03    0.57221E-05   -0.59131E-07  2430   0.130E-03    0.518E-04
RMM:  13    -0.413178134922E+03    0.38965E-05   -0.30775E-07  2057   0.946E-04    0.297E-04
RMM:  14    -0.413178132015E+03    0.29071E-05   -0.16506E-07  1476   0.738E-04    0.204E-04
RMM:  15    -0.413178125415E+03    0.66000E-05   -0.16809E-07  1437   0.733E-04    0.172E-04
RMM:  16    -0.413178122492E+03    0.29229E-05   -0.92504E-08  1163   0.634E-04    0.131E-04
RMM:  17    -0.413178117666E+03    0.48256E-05   -0.10853E-07  1339   0.662E-04    0.692E-05
RMM:  18    -0.413178116113E+03    0.15535E-05   -0.49314E-08   928   0.565E-04    0.474E-05
RMM:  19    -0.413178114964E+03    0.11490E-05   -0.31422E-08   846   0.548E-04    0.292E-05
RMM:  20    -0.413178114736E+03    0.22735E-06   -0.15984E-08   703   0.526E-04
   26 T=    63. E= -.41286651E+03 F= -.41317811E+03 E0= -.41315637E+03  EK= 0.31160E+00 SP= 0.00E+00 SK= 0.00E+00
       N       E                     dE             d eps       ncg     rms          rms(c)
RMM:   1    -0.413181793038E+03   -0.36781E-02   -0.98354E+00  4289   0.809E-01    0.898E-01
RMM:   2    -0.413183199361E+03   -0.14063E-02   -0.12222E-01  4282   0.104E-01    0.654E-01
RMM:   3    -0.413180324991E+03    0.28744E-02   -0.13258E-02  4807   0.509E-02    0.118E-01
RMM:   4    -0.413208999108E+03   -0.28674E-01   -0.29834E-02  5137   0.144E-01    0.706E-01
RMM:   5    -0.413179794289E+03    0.29205E-01   -0.14389E-02  4800   0.117E-01    0.477E-02
RMM:   6    -0.413179954544E+03   -0.16025E-03   -0.24793E-03  5822   0.472E-02    0.312E-02
RMM:   7    -0.413179956658E+03   -0.21146E-05   -0.36330E-04  5661   0.183E-02    0.189E-02
RMM:   8    -0.413179949289E+03    0.73692E-05   -0.70973E-05  5039   0.888E-03    0.104E-02
RMM:   9    -0.413179943612E+03    0.56771E-05   -0.13837E-05  4097   0.430E-03    0.753E-03
RMM:  10    -0.413179941241E+03    0.23706E-05   -0.18651E-06  2560   0.220E-03    0.470E-03
RMM:  11    -0.413179938974E+03    0.22669E-05   -0.14142E-06  2525   0.189E-03    0.246E-03
RMM:  12    -0.413179935569E+03    0.34050E-05   -0.15317E-06  2520   0.194E-03    0.953E-04
RMM:  13    -0.413179934261E+03    0.13087E-05   -0.49466E-07  2330   0.125E-03    0.629E-04
RMM:  14    -0.413179934060E+03    0.20053E-06   -0.22986E-07  1857   0.843E-04
   27 T=    64. E= -.41286676E+03 F= -.41317993E+03 E0= -.41315824E+03  EK= 0.31317E+00 SP= 0.00E+00 SK= 0.00E+00
       N       E                     dE             d eps       ncg     rms          rms(c)
RMM:   1    -0.413180726043E+03   -0.79178E-03   -0.99243E+00  4297   0.788E-01    0.907E-01
RMM:   2    -0.413184486084E+03   -0.37600E-02   -0.12509E-01  4283   0.104E-01    0.664E-01
RMM:   3    -0.413181280366E+03    0.32057E-02   -0.13475E-02  4631   0.500E-02    0.986E-02
RMM:   4    -0.413197623147E+03   -0.16343E-01   -0.16676E-02  5144   0.108E-01    0.537E-01
RMM:   5    -0.413181058380E+03    0.16565E-01   -0.83172E-03  4819   0.885E-02    0.426E-02
RMM:   6    -0.413181127156E+03   -0.68776E-04   -0.14163E-03  5844   0.352E-02    0.252E-02
RMM:   7    -0.413181125630E+03    0.15263E-05   -0.17132E-04  5483   0.136E-02    0.116E-02
RMM:   8    -0.413181120422E+03    0.52082E-05   -0.25252E-05  4471   0.536E-03    0.743E-03
RMM:   9    -0.413181118019E+03    0.24029E-05   -0.34979E-06  2734   0.241E-03    0.444E-03
RMM:  10    -0.413181116496E+03    0.15225E-05   -0.10038E-06  2485   0.162E-03    0.284E-03
RMM:  11    -0.413181112793E+03    0.37036E-05   -0.15681E-06  2522   0.201E-03    0.157E-03
RMM:  12    -0.413181111873E+03    0.91944E-06   -0.58593E-07  2356   0.134E-03
   28 T=    64. E= -.41286652E+03 F= -.41318111E+03 E0= -.41315946E+03  EK= 0.31460E+00 SP= 0.00E+00 SK= 0.00E+00
       N       E                     dE             d eps       ncg     rms          rms(c)
RMM:   1    -0.413180369871E+03    0.74292E-03   -0.99233E+00  4292   0.767E-01    0.927E-01
RMM:   2    -0.413186287711E+03   -0.59178E-02   -0.12208E-01  4281   0.105E-01    0.659E-01
RMM:   3    -0.413183198966E+03    0.30887E-02   -0.13344E-02  4512   0.495E-02    0.104E-01
RMM:   4    -0.413193179424E+03   -0.99805E-02   -0.10261E-02  5152   0.847E-02    0.421E-01
RMM:   5    -0.413183096626E+03    0.10083E-01   -0.51590E-03  4833   0.695E-02    0.415E-02
RMM:   6    -0.413183129840E+03   -0.33214E-04   -0.96426E-04  5815   0.290E-02    0.246E-02
RMM:   7    -0.413183128550E+03    0.12896E-05   -0.22298E-04  5429   0.152E-02    0.167E-02
RMM:   8    -0.413183110328E+03    0.18222E-04   -0.26498E-05  4538   0.634E-03    0.748E-03
RMM:   9    -0.413183106878E+03    0.34500E-05   -0.56092E-06  3059   0.290E-03    0.545E-03
RMM:  10    -0.413183101291E+03    0.55866E-05   -0.15264E-06  2501   0.210E-03    0.301E-03
RMM:  11    -0.413183095042E+03    0.62492E-05   -0.10419E-06  2484   0.172E-03    0.152E-03
RMM:  12    -0.413183089349E+03    0.56933E-05   -0.56687E-07  2377   0.129E-03    0.769E-04
RMM:  13    -0.413183086804E+03    0.25450E-05   -0.27465E-07  1962   0.907E-04    0.334E-04
RMM:  14    -0.413183083677E+03    0.31269E-05   -0.16011E-07  1533   0.745E-04    0.218E-04
RMM:  15    -0.413183079056E+03    0.46212E-05   -0.11558E-07  1410   0.694E-04    0.122E-04
RMM:  16    -0.413183076191E+03    0.28648E-05   -0.65785E-08  1095   0.624E-04    0.101E-04
RMM:  17    -0.413183072803E+03    0.33879E-05   -0.57878E-08  1093   0.607E-04    0.571E-05
RMM:  18    -0.413183069333E+03    0.34704E-05   -0.56183E-08  1138   0.604E-04    0.298E-05
RMM:  19    -0.413183068795E+03    0.53807E-06   -0.16223E-08   734   0.528E-04
   29 T=    64. E= -.41286665E+03 F= -.41318307E+03 E0= -.41316147E+03  EK= 0.31642E+00 SP= 0.00E+00 SK= 0.00E+00
       N       E                     dE             d eps       ncg     rms          rms(c)
RMM:   1    -0.413182136030E+03    0.93330E-03   -0.98936E+00  4287   0.794E-01    0.907E-01
RMM:   2    -0.413188555929E+03   -0.64199E-02   -0.12340E-01  4271   0.112E-01    0.657E-01
RMM:   3    -0.413185053452E+03    0.35025E-02   -0.13295E-02  4511   0.537E-02    0.987E-02
RMM:   4    -0.413195550577E+03   -0.10497E-01   -0.10748E-02  5149   0.869E-02    0.432E-01
RMM:   5    -0.413184951531E+03    0.10599E-01   -0.54019E-03  4828   0.711E-02    0.409E-02
RMM:   6    -0.413184989639E+03   -0.38108E-04   -0.99428E-04  5833   0.295E-02    0.255E-02
RMM:   7    -0.413184991034E+03   -0.13941E-05   -0.23845E-04  5421   0.155E-02    0.169E-02
RMM:   8    -0.413184974073E+03    0.16961E-04   -0.28666E-05  4654   0.654E-03    0.757E-03
RMM:   9    -0.413184972008E+03    0.20648E-05   -0.52986E-06  2986   0.288E-03    0.546E-03
RMM:  10    -0.413184968575E+03    0.34329E-05   -0.15161E-06  2506   0.204E-03    0.301E-03
RMM:  11    -0.413184965107E+03    0.34680E-05   -0.97963E-07  2477   0.167E-03    0.152E-03
RMM:  12    -0.413184961746E+03    0.33614E-05   -0.61180E-07  2386   0.131E-03    0.779E-04
RMM:  13    -0.413184960154E+03    0.15923E-05   -0.27899E-07  1977   0.916E-04    0.337E-04
RMM:  14    -0.413184958484E+03    0.16692E-05   -0.15154E-07  1448   0.724E-04    0.209E-04
RMM:  15    -0.413184955858E+03    0.26261E-05   -0.10307E-07  1268   0.672E-04    0.100E-04
RMM:  16    -0.413184953783E+03    0.20749E-05   -0.62684E-08  1000   0.622E-04    0.758E-05
RMM:  17    -0.413184952157E+03    0.16266E-05   -0.42722E-08   917   0.597E-04    0.499E-05
RMM:  18    -0.413184949107E+03    0.30502E-05   -0.61725E-08  1174   0.623E-04    0.400E-05
RMM:  19    -0.413184948474E+03    0.63223E-06   -0.20710E-08   752   0.546E-04
   30 T=    65. E= -.41286661E+03 F= -.41318495E+03 E0= -.41316340E+03  EK= 0.31834E+00 SP= 0.00E+00 SK= 0.00E+00
       N       E                     dE             d eps       ncg     rms          rms(c)
RMM:   1    -0.413186226883E+03   -0.12778E-02   -0.10045E+01  4291   0.818E-01    0.910E-01
RMM:   2    -0.413190754700E+03   -0.45278E-02   -0.12825E-01  4284   0.117E-01    0.670E-01
RMM:   3    -0.413186652265E+03    0.41024E-02   -0.13928E-02  4454   0.591E-02    0.907E-02
RMM:   4    -0.413195776622E+03   -0.91244E-02   -0.93438E-03  5151   0.811E-02    0.403E-01
RMM:   5    -0.413186568814E+03    0.92078E-02   -0.47058E-03  4830   0.663E-02    0.401E-02
RMM:   6    -0.413186604523E+03   -0.35709E-04   -0.89378E-04  5822   0.280E-02    0.254E-02
RMM:   7    -0.413186608469E+03   -0.39456E-05   -0.24019E-04  5376   0.155E-02    0.170E-02
RMM:   8    -0.413186593343E+03    0.15125E-04   -0.25783E-05  4569   0.635E-03    0.738E-03
RMM:   9    -0.413186592222E+03    0.11213E-05   -0.46319E-06  2915   0.272E-03    0.515E-03
RMM:  10    -0.413186590559E+03    0.16629E-05   -0.15314E-06  2514   0.200E-03    0.279E-03
RMM:  11    -0.413186588868E+03    0.16915E-05   -0.97317E-07  2474   0.163E-03    0.139E-03
RMM:  12    -0.413186587127E+03    0.17405E-05   -0.55249E-07  2334   0.123E-03    0.713E-04
RMM:  13    -0.413186586066E+03    0.10612E-05   -0.25968E-07  1911   0.878E-04    0.318E-04
RMM:  14    -0.413186584761E+03    0.13054E-05   -0.14066E-07  1365   0.709E-04    0.195E-04
RMM:  15    -0.413186582763E+03    0.19973E-05   -0.97963E-08  1195   0.663E-04    0.103E-04
RMM:  16    -0.413186581208E+03    0.15554E-05   -0.60809E-08   980   0.619E-04    0.726E-05
RMM:  17    -0.413186579557E+03    0.16511E-05   -0.43935E-08   923   0.599E-04    0.426E-05
RMM:  18    -0.413186577389E+03    0.21682E-05   -0.47781E-08  1002   0.600E-04    0.264E-05
RMM:  19    -0.413186576794E+03    0.59476E-06   -0.17086E-08   711   0.551E-04
   31 T=    65. E= -.41286635E+03 F= -.41318658E+03 E0= -.41316508E+03  EK= 0.32023E+00 SP= 0.00E+00 SK= 0.00E+00
       N       E                     dE             d eps       ncg     rms          rms(c)
RMM:   1    -0.413186754020E+03   -0.17663E-03   -0.10070E+01  4290   0.808E-01    0.933E-01
RMM:   2    -0.413192867698E+03   -0.61137E-02   -0.12590E-01  4284   0.123E-01    0.666E-01
RMM:   3    -0.413189158993E+03    0.37087E-02   -0.13669E-02  4309   0.564E-02    0.989E-02
RMM:   4    -0.413190957452E+03   -0.17985E-02   -0.23563E-03  5142   0.404E-02    0.180E-01
RMM:   5    -0.413189192069E+03    0.17654E-02   -0.95036E-04  4819   0.306E-02    0.397E-02
RMM:   6    -0.413189213392E+03   -0.21324E-04   -0.43678E-04  5503   0.207E-02    0.293E-02
RMM:   7    -0.413189177651E+03    0.35741E-04   -0.20833E-04  4986   0.149E-02    0.162E-02
RMM:   8    -0.413189171178E+03    0.64736E-05   -0.22524E-05  4395   0.532E-03    0.602E-03
RMM:   9    -0.413189169379E+03    0.17987E-05   -0.26025E-06  2568   0.216E-03    0.342E-03
RMM:  10    -0.413189163933E+03    0.54457E-05   -0.86435E-07  2454   0.155E-03    0.181E-03
RMM:  11    -0.413189158833E+03    0.51006E-05   -0.54289E-07  2291   0.113E-03    0.662E-04
RMM:  12    -0.413189154513E+03    0.43200E-05   -0.27317E-07  1876   0.872E-04    0.257E-04
RMM:  13    -0.413189151138E+03    0.33743E-05   -0.14196E-07  1382   0.715E-04    0.204E-04
RMM:  14    -0.413189147940E+03    0.31981E-05   -0.80055E-08  1039   0.640E-04    0.130E-04
RMM:  15    -0.413189142717E+03    0.52232E-05   -0.92362E-08  1273   0.665E-04    0.947E-05
RMM:  16    -0.413189139923E+03    0.27939E-05   -0.53205E-08  1031   0.593E-04    0.899E-05
RMM:  17    -0.413189137399E+03    0.25243E-05   -0.39208E-08   908   0.563E-04    0.399E-05
RMM:  18    -0.413189136454E+03    0.94462E-06   -0.21274E-08   733   0.528E-04
   32 T=    66. E= -.41286671E+03 F= -.41318914E+03 E0= -.41316769E+03  EK= 0.32243E+00 SP= 0.00E+00 SK= 0.00E+00
       N       E                     dE             d eps       ncg     rms          rms(c)
RMM:   1    -0.413188508708E+03    0.62869E-03   -0.10043E+01  4289   0.821E-01    0.920E-01
RMM:   2    -0.413194676923E+03   -0.61682E-02   -0.12684E-01  4284   0.123E-01    0.662E-01
RMM:   3    -0.413191098072E+03    0.35789E-02   -0.13477E-02  4252   0.582E-02    0.960E-02
RMM:   4    -0.413191251747E+03   -0.15368E-03   -0.78487E-04  4950   0.190E-02    0.550E-02
RMM:   5    -0.413191201117E+03    0.50631E-04   -0.16717E-04  4856   0.125E-02    0.475E-02
RMM:   6    -0.413191176246E+03    0.24870E-04   -0.33684E-04  5254   0.179E-02    0.291E-02
RMM:   7    -0.413191133713E+03    0.42533E-04   -0.18300E-04  4846   0.138E-02    0.146E-02
RMM:   8    -0.413191130056E+03    0.36569E-05   -0.21385E-05  4305   0.499E-03    0.536E-03
RMM:   9    -0.413191128738E+03    0.13179E-05   -0.33038E-06  2437   0.210E-03    0.190E-03
RMM:  10    -0.413191121677E+03    0.70617E-05   -0.86093E-07  2341   0.142E-03    0.795E-04
RMM:  11    -0.413191118015E+03    0.36621E-05   -0.21561E-07  1632   0.807E-04    0.428E-04
RMM:  12    -0.413191114240E+03    0.37744E-05   -0.14512E-07  1368   0.716E-04    0.230E-04
RMM:  13    -0.413191110616E+03    0.36244E-05   -0.10829E-07  1218   0.669E-04    0.169E-04
RMM:  14    -0.413191105669E+03    0.49468E-05   -0.96855E-08  1170   0.648E-04    0.133E-04
RMM:  15    -0.413191103220E+03    0.24492E-05   -0.37079E-08   709   0.564E-04    0.795E-05
RMM:  16    -0.413191099771E+03    0.34490E-05   -0.40212E-08   782   0.577E-04    0.453E-05
RMM:  17    -0.413191098782E+03    0.98920E-06   -0.16336E-08   589   0.534E-04
   33 T=    66. E= -.41286658E+03 F= -.41319110E+03 E0= -.41316970E+03  EK= 0.32452E+00 SP= 0.00E+00 SK= 0.00E+00
       N       E                     dE             d eps       ncg     rms          rms(c)
RMM:   1    -0.413198325005E+03   -0.72252E-02   -0.10230E+01  4301   0.882E-01    0.915E-01
RMM:   2    -0.413197246282E+03    0.10787E-02   -0.13650E-01  4280   0.129E-01    0.675E-01
RMM:   3    -0.413193499964E+03    0.37463E-02   -0.13695E-02  4255   0.615E-02    0.924E-02
RMM:   4    -0.413193816376E+03   -0.31641E-03   -0.96241E-04  5052   0.225E-02    0.759E-02
RMM:   5    -0.413193566677E+03    0.24970E-03   -0.20665E-04  4769   0.144E-02    0.409E-02
RMM:   6    -0.413193578686E+03   -0.12009E-04   -0.32819E-04  5304   0.176E-02    0.280E-02
RMM:   7    -0.413193547097E+03    0.31589E-04   -0.18354E-04  4831   0.136E-02    0.171E-02
RMM:   8    -0.413193541985E+03    0.51124E-05   -0.22841E-05  4190   0.484E-03    0.551E-03
RMM:   9    -0.413193541461E+03    0.52398E-06   -0.27723E-06  2442   0.205E-03
   34 T=    67. E= -.41286664E+03 F= -.41319354E+03 E0= -.41317219E+03  EK= 0.32690E+00 SP= 0.00E+00 SK= 0.00E+00
       N       E                     dE             d eps       ncg     rms          rms(c)
RMM:   1    -0.413197263199E+03   -0.37212E-02   -0.10265E+01  4304   0.907E-01    0.937E-01
RMM:   2    -0.413199633176E+03   -0.23700E-02   -0.13488E-01  4275   0.131E-01    0.676E-01
RMM:   3    -0.413196362690E+03    0.32705E-02   -0.13729E-02  4505   0.634E-02    0.111E-01
RMM:   4    -0.413208409251E+03   -0.12047E-01   -0.12264E-02  5166   0.940E-02    0.463E-01
RMM:   5    -0.413196322460E+03    0.12087E-01   -0.61788E-03  4822   0.769E-02    0.440E-02
RMM:   6    -0.413196315794E+03    0.66665E-05   -0.11291E-03  5760   0.334E-02    0.321E-02
RMM:   7    -0.413196308052E+03    0.77415E-05   -0.31465E-04  5400   0.171E-02    0.173E-02
RMM:   8    -0.413196294500E+03    0.13552E-04   -0.32233E-05  4799   0.668E-03    0.741E-03
RMM:   9    -0.413196291423E+03    0.30775E-05   -0.55106E-06  3014   0.284E-03    0.456E-03
RMM:  10    -0.413196285549E+03    0.58738E-05   -0.12969E-06  2510   0.194E-03    0.240E-03
RMM:  11    -0.413196279205E+03    0.63440E-05   -0.91161E-07  2487   0.154E-03    0.123E-03
RMM:  12    -0.413196273163E+03    0.60418E-05   -0.53225E-07  2307   0.120E-03    0.588E-04
RMM:  13    -0.413196270360E+03    0.28034E-05   -0.25567E-07  1873   0.868E-04    0.314E-04
RMM:  14    -0.413196267157E+03    0.32024E-05   -0.13732E-07  1319   0.705E-04    0.186E-04
RMM:  15    -0.413196261461E+03    0.56967E-05   -0.10897E-07  1245   0.680E-04    0.103E-04
RMM:  16    -0.413196258035E+03    0.34253E-05   -0.72742E-08  1102   0.631E-04    0.917E-05
RMM:  17    -0.413196254412E+03    0.36231E-05   -0.59766E-08  1134   0.617E-04    0.609E-05
RMM:  18    -0.413196251043E+03    0.33687E-05   -0.50392E-08  1108   0.599E-04    0.300E-05
RMM:  19    -0.413196250240E+03    0.80342E-06   -0.22961E-08   783   0.533E-04
   35 T=    67. E= -.41286681E+03 F= -.41319625E+03 E0= -.41317494E+03  EK= 0.32944E+00 SP= 0.00E+00 SK= 0.00E+00
       N       E                     dE             d eps       ncg     rms          rms(c)
RMM:   1    -0.413196027576E+03    0.22347E-03   -0.10233E+01  4301   0.878E-01    0.936E-01
RMM:   2    -0.413201554934E+03   -0.55274E-02   -0.13179E-01  4256   0.131E-01    0.670E-01
RMM:   3    -0.413198423134E+03    0.31318E-02   -0.13724E-02  4450   0.637E-02    0.110E-01
RMM:   4    -0.413206470545E+03   -0.80474E-02   -0.83491E-03  5176   0.772E-02    0.380E-01
RMM:   5    -0.413198410875E+03    0.80597E-02   -0.41530E-03  4825   0.630E-02    0.423E-02
RMM:   6    -0.413198416544E+03   -0.56691E-05   -0.87086E-04  5746   0.292E-02    0.301E-02
RMM:   7    -0.413198403454E+03    0.13090E-04   -0.28652E-04  5272   0.169E-02    0.176E-02
RMM:   8    -0.413198389276E+03    0.14178E-04   -0.28589E-05  4768   0.649E-03    0.783E-03
RMM:   9    -0.413198386555E+03    0.27209E-05   -0.45534E-06  2860   0.265E-03    0.469E-03
RMM:  10    -0.413198380932E+03    0.56235E-05   -0.13763E-06  2507   0.197E-03    0.244E-03
RMM:  11    -0.413198375416E+03    0.55158E-05   -0.83679E-07  2465   0.151E-03    0.123E-03
RMM:  12    -0.413198370257E+03    0.51592E-05   -0.48039E-07  2249   0.116E-03    0.602E-04
RMM:  13    -0.413198367070E+03    0.31867E-05   -0.24903E-07  1850   0.864E-04    0.293E-04
RMM:  14    -0.413198363940E+03    0.31302E-05   -0.12562E-07  1319   0.696E-04    0.179E-04
RMM:  15    -0.413198359436E+03    0.45044E-05   -0.82969E-08  1129   0.651E-04    0.941E-05
RMM:  16    -0.413198356078E+03    0.33579E-05   -0.60132E-08  1067   0.624E-04    0.721E-05
RMM:  17    -0.413198353754E+03    0.23234E-05   -0.42218E-08   984   0.594E-04    0.480E-05
RMM:  18    -0.413198349648E+03    0.41063E-05   -0.50728E-08  1176   0.607E-04    0.264E-05
RMM:  19    -0.413198348963E+03    0.68462E-06   -0.17600E-08   745   0.527E-04
   36 T=    68. E= -.41286654E+03 F= -.41319835E+03 E0= -.41317708E+03  EK= 0.33181E+00 SP= 0.00E+00 SK= 0.00E+00
       N       E                     dE             d eps       ncg     rms          rms(c)
RMM:   1    -0.413206260147E+03   -0.79105E-02   -0.10383E+01  4306   0.969E-01    0.922E-01
RMM:   2    -0.413205350065E+03    0.91008E-03   -0.14811E-01  4259   0.138E-01    0.681E-01
RMM:   3    -0.413201432242E+03    0.39178E-02   -0.13161E-02  4578   0.604E-02    0.123E-01
RMM:   4    -0.413218647566E+03   -0.17215E-01   -0.17495E-02  5160   0.112E-01    0.551E-01
RMM:   5    -0.413201313000E+03    0.17335E-01   -0.88288E-03  4814   0.915E-02    0.449E-02
RMM:   6    -0.413201320747E+03   -0.77473E-05   -0.14958E-03  5833   0.373E-02    0.289E-02
RMM:   7    -0.413201332667E+03   -0.11920E-04   -0.30703E-04  5495   0.170E-02    0.182E-02
RMM:   8    -0.413201316544E+03    0.16123E-04   -0.49659E-05  4953   0.793E-03    0.851E-03
RMM:   9    -0.413201315513E+03    0.10308E-05   -0.94720E-06  3586   0.376E-03    0.582E-03
RMM:  10    -0.413201312660E+03    0.28529E-05   -0.15717E-06  2534   0.216E-03    0.325E-03
RMM:  11    -0.413201310050E+03    0.26100E-05   -0.97922E-07  2497   0.161E-03    0.175E-03
RMM:  12    -0.413201305996E+03    0.40544E-05   -0.97799E-07  2477   0.155E-03    0.930E-04
RMM:  13    -0.413201303991E+03    0.20046E-05   -0.37092E-07  2160   0.105E-03    0.475E-04
RMM:  14    -0.413201303118E+03    0.87362E-06   -0.17340E-07  1525   0.751E-04
   37 T=    68. E= -.41286682E+03 F= -.41320130E+03 E0= -.41318008E+03  EK= 0.33448E+00 SP= 0.00E+00 SK= 0.00E+00
       N       E                     dE             d eps       ncg     rms          rms(c)
RMM:   1    -0.413224905647E+03   -0.23602E-01   -0.10649E+01  4307   0.109E+00    0.940E-01
RMM:   2    -0.413208042568E+03    0.16863E-01   -0.16851E-01  4260   0.139E-01    0.689E-01
RMM:   3    -0.413204149730E+03    0.38928E-02   -0.12262E-02  4765   0.563E-02    0.171E-01
RMM:   4    -0.413241069218E+03   -0.36919E-01   -0.38029E-02  5153   0.163E-01    0.799E-01
RMM:   5    -0.413203639697E+03    0.37430E-01   -0.18831E-02  4798   0.134E-01    0.527E-02
RMM:   6    -0.413203737576E+03   -0.97879E-04   -0.31627E-03  5852   0.524E-02    0.334E-02
RMM:   7    -0.413203746118E+03   -0.85415E-05   -0.37539E-04  5648   0.182E-02    0.169E-02
RMM:   8    -0.413203738346E+03    0.77718E-05   -0.48004E-05  4778   0.712E-03    0.897E-03
RMM:   9    -0.413203737172E+03    0.11739E-05   -0.16785E-05  4204   0.425E-03    0.723E-03
RMM:  10    -0.413203732162E+03    0.50097E-05   -0.32293E-06  2758   0.256E-03    0.440E-03
RMM:  11    -0.413203728423E+03    0.37396E-05   -0.15865E-06  2525   0.201E-03    0.264E-03
RMM:  12    -0.413203720253E+03    0.81700E-05   -0.19993E-06  2552   0.226E-03    0.125E-03
RMM:  13    -0.413203717540E+03    0.27133E-05   -0.56485E-07  2408   0.140E-03    0.784E-04
RMM:  14    -0.413203717473E+03    0.66320E-07   -0.23686E-07  1971   0.878E-04
   38 T=    69. E= -.41286667E+03 F= -.41320372E+03 E0= -.41318254E+03  EK= 0.33705E+00 SP= 0.00E+00 SK= 0.00E+00
       N       E                     dE             d eps       ncg     rms          rms(c)
RMM:   1    -0.413205780077E+03   -0.20625E-02   -0.10456E+01  4306   0.988E-01    0.954E-01
RMM:   2    -0.413210271696E+03   -0.44916E-02   -0.13716E-01  4264   0.124E-01    0.680E-01
RMM:   3    -0.413206934948E+03    0.33367E-02   -0.14245E-02  4910   0.578E-02    0.159E-01
RMM:   4    -0.413248353543E+03   -0.41419E-01   -0.44174E-02  5135   0.175E-01    0.846E-01
RMM:   5    -0.413206141406E+03    0.42212E-01   -0.20911E-02  4796   0.142E-01    0.555E-02
RMM:   6    -0.413206252655E+03   -0.11125E-03   -0.34703E-03  5826   0.553E-02    0.346E-02
RMM:   7    -0.413206260298E+03   -0.76427E-05   -0.41933E-04  5671   0.190E-02    0.178E-02
RMM:   8    -0.413206250383E+03    0.99146E-05   -0.50047E-05  4779   0.710E-03    0.904E-03
RMM:   9    -0.413206245153E+03    0.52305E-05   -0.12586E-05  3678   0.377E-03    0.617E-03
RMM:  10    -0.413206240495E+03    0.46576E-05   -0.25636E-06  2644   0.232E-03    0.413E-03
RMM:  11    -0.413206234185E+03    0.63101E-05   -0.13990E-06  2499   0.197E-03    0.232E-03
RMM:  12    -0.413206222905E+03    0.11281E-04   -0.15853E-06  2518   0.204E-03    0.110E-03
RMM:  13    -0.413206220228E+03    0.26765E-05   -0.48272E-07  2373   0.129E-03    0.723E-04
RMM:  14    -0.413206219923E+03    0.30551E-06   -0.21452E-07  1904   0.839E-04
   39 T=    69. E= -.41286657E+03 F= -.41320622E+03 E0= -.41318508E+03  EK= 0.33965E+00 SP= 0.00E+00 SK= 0.00E+00
       N       E                     dE             d eps       ncg     rms          rms(c)
RMM:   1    -0.413232386173E+03   -0.26166E-01   -0.10718E+01  4312   0.117E+00    0.931E-01
RMM:   2    -0.413213796592E+03    0.18590E-01   -0.17217E-01  4267   0.138E-01    0.688E-01
RMM:   3    -0.413210317779E+03    0.34788E-02   -0.12455E-02  4978   0.595E-02    0.209E-01
RMM:   4    -0.413265115034E+03   -0.54797E-01   -0.60195E-02  5133   0.204E-01    0.969E-01
RMM:   5    -0.413208993580E+03    0.56121E-01   -0.27517E-02  4785   0.163E-01    0.614E-02
RMM:   6    -0.413209181463E+03   -0.18788E-03   -0.46190E-03  5818   0.632E-02    0.369E-02
RMM:   7    -0.413209196273E+03   -0.14810E-04   -0.56956E-04  5789   0.214E-02    0.224E-02
RMM:   8    -0.413209197442E+03   -0.11692E-05   -0.12810E-04  5262   0.112E-02    0.142E-02
RMM:   9    -0.413209184028E+03    0.13414E-04   -0.28561E-05  4731   0.619E-03    0.723E-03
RMM:  10    -0.413209179701E+03    0.43272E-05   -0.53553E-06  2960   0.303E-03    0.451E-03
RMM:  11    -0.413209176330E+03    0.33705E-05   -0.15971E-06  2508   0.208E-03    0.274E-03
RMM:  12    -0.413209169202E+03    0.71281E-05   -0.16090E-06  2515   0.209E-03    0.101E-03
RMM:  13    -0.413209164961E+03    0.42407E-05   -0.71202E-07  2428   0.147E-03    0.735E-04
RMM:  14    -0.413209164471E+03    0.49020E-06   -0.30539E-07  2099   0.976E-04
   40 T=    70. E= -.41286678E+03 F= -.41320916E+03 E0= -.41318806E+03  EK= 0.34238E+00 SP= 0.00E+00 SK= 0.00E+00
       N       E                     dE             d eps       ncg     rms          rms(c)
RMM:   1    -0.413223239713E+03   -0.14075E-01   -0.10736E+01  4311   0.114E+00    0.946E-01
RMM:   2    -0.413215933276E+03    0.73064E-02   -0.15638E-01  4268   0.140E-01    0.696E-01
RMM:   3    -0.413212979695E+03    0.29536E-02   -0.14620E-02  5014   0.657E-02    0.215E-01
RMM:   4    -0.413265487330E+03   -0.52508E-01   -0.60997E-02  5126   0.206E-01    0.954E-01
RMM:   5    -0.413211099223E+03    0.54388E-01   -0.26038E-02  4781   0.160E-01    0.609E-02
RMM:   6    -0.413211264186E+03   -0.16496E-03   -0.43303E-03  5810   0.619E-02    0.362E-02
RMM:   7    -0.413211277640E+03   -0.13454E-04   -0.53365E-04  5784   0.210E-02    0.217E-02
RMM:   8    -0.413211279237E+03   -0.15972E-05   -0.12388E-04  5254   0.109E-02    0.141E-02
RMM:   9    -0.413211265631E+03    0.13606E-04   -0.27382E-05  4702   0.608E-03    0.696E-03
RMM:  10    -0.413211261644E+03    0.39870E-05   -0.52150E-06  2953   0.304E-03    0.428E-03
RMM:  11    -0.413211258474E+03    0.31697E-05   -0.15238E-06  2503   0.207E-03    0.256E-03
RMM:  12    -0.413211251911E+03    0.65630E-05   -0.14116E-06  2505   0.197E-03    0.952E-04
RMM:  13    -0.413211247796E+03    0.41155E-05   -0.64435E-07  2418   0.139E-03    0.627E-04
RMM:  14    -0.413211247017E+03    0.77908E-06   -0.28761E-07  2066   0.942E-04
   41 T=    70. E= -.41286647E+03 F= -.41321125E+03 E0= -.41319017E+03  EK= 0.34478E+00 SP= 0.00E+00 SK= 0.00E+00
       N       E                     dE             d eps       ncg     rms          rms(c)
RMM:   1    -0.413217702880E+03   -0.64551E-02   -0.10680E+01  4312   0.115E+00    0.967E-01
RMM:   2    -0.413217886455E+03   -0.18357E-03   -0.14570E-01  4299   0.134E-01    0.690E-01
RMM:   3    -0.413216962927E+03    0.92353E-03   -0.16357E-02  5065   0.745E-02    0.267E-01
RMM:   4    -0.413257503608E+03   -0.40541E-01   -0.54785E-02  5092   0.197E-01    0.859E-01
RMM:   5    -0.413213745882E+03    0.43758E-01   -0.19665E-02  4751   0.143E-01    0.609E-02
RMM:   6    -0.413213843905E+03   -0.98022E-04   -0.34699E-03  5773   0.557E-02    0.361E-02
RMM:   7    -0.413213849391E+03   -0.54858E-05   -0.48100E-04  5749   0.202E-02    0.223E-02
RMM:   8    -0.413213847588E+03    0.18025E-05   -0.13081E-04  5222   0.116E-02    0.135E-02
RMM:   9    -0.413213831815E+03    0.15773E-04   -0.22108E-05  4518   0.585E-03    0.587E-03
RMM:  10    -0.413213825833E+03    0.59826E-05   -0.49614E-06  2949   0.285E-03    0.367E-03
RMM:  11    -0.413213820469E+03    0.53641E-05   -0.12529E-06  2492   0.193E-03    0.206E-03
RMM:  12    -0.413213810998E+03    0.94709E-05   -0.95332E-07  2467   0.169E-03    0.798E-04
RMM:  13    -0.413213805282E+03    0.57153E-05   -0.45412E-07  2332   0.118E-03    0.431E-04
RMM:  14    -0.413213803572E+03    0.17101E-05   -0.22860E-07  1879   0.847E-04    0.300E-04
RMM:  15    -0.413213799388E+03    0.41839E-05   -0.12886E-07  1412   0.706E-04    0.144E-04
RMM:  16    -0.413213793769E+03    0.56197E-05   -0.93810E-08  1264   0.671E-04    0.156E-04
RMM:  17    -0.413213790488E+03    0.32808E-05   -0.61040E-08  1104   0.622E-04    0.103E-04
RMM:  18    -0.413213786746E+03    0.37414E-05   -0.56809E-08  1225   0.623E-04    0.737E-05
RMM:  19    -0.413213783783E+03    0.29630E-05   -0.39736E-08  1089   0.590E-04    0.435E-05
RMM:  20    -0.413213783124E+03    0.65928E-06   -0.20046E-08   820   0.539E-04
   42 T=    71. E= -.41286660E+03 F= -.41321378E+03 E0= -.41319274E+03  EK= 0.34718E+00 SP= 0.00E+00 SK= 0.00E+00
       N       E                     dE             d eps       ncg     rms          rms(c)
RMM:   1    -0.413244655443E+03   -0.30872E-01   -0.10897E+01  4312   0.134E+00    0.944E-01
RMM:   2    -0.413220091432E+03    0.24564E-01   -0.17179E-01  4309   0.148E-01    0.692E-01
RMM:   3    -0.413220256893E+03   -0.16546E-03   -0.15619E-02  5072   0.807E-02    0.322E-01
RMM:   4    -0.413258532935E+03   -0.38276E-01   -0.56977E-02  5094   0.201E-01    0.851E-01
RMM:   5    -0.413215808426E+03    0.42725E-01   -0.18809E-02  4731   0.142E-01    0.630E-02
RMM:   6    -0.413215887516E+03   -0.79090E-04   -0.33507E-03  5737   0.549E-02    0.359E-02
RMM:   7    -0.413215894628E+03   -0.71119E-05   -0.49895E-04  5785   0.201E-02    0.238E-02
RMM:   8    -0.413215892902E+03    0.17256E-05   -0.13022E-04  5191   0.117E-02    0.126E-02
RMM:   9    -0.413215880424E+03    0.12479E-04   -0.21708E-05  4516   0.582E-03    0.499E-03
RMM:  10    -0.413215877192E+03    0.32320E-05   -0.46746E-06  2886   0.270E-03    0.318E-03
RMM:  11    -0.413215873348E+03    0.38436E-05   -0.13207E-06  2499   0.190E-03    0.173E-03
RMM:  12    -0.413215867990E+03    0.53586E-05   -0.77266E-07  2454   0.150E-03    0.669E-04
RMM:  13    -0.413215864778E+03    0.32120E-05   -0.38351E-07  2152   0.106E-03    0.309E-04
RMM:  14    -0.413215862627E+03    0.21504E-05   -0.20651E-07  1692   0.811E-04    0.205E-04
RMM:  15    -0.413215858727E+03    0.39005E-05   -0.13609E-07  1347   0.716E-04    0.112E-04
RMM:  16    -0.413215856299E+03    0.24277E-05   -0.83803E-08  1129   0.656E-04    0.834E-05
RMM:  17    -0.413215853757E+03    0.25424E-05   -0.66857E-08  1139   0.640E-04    0.509E-05
RMM:  18    -0.413215851050E+03    0.27068E-05   -0.56687E-08  1176   0.626E-04    0.365E-05
RMM:  19    -0.413215849385E+03    0.16650E-05   -0.35002E-08   981   0.578E-04    0.242E-05
RMM:  20    -0.413215848714E+03    0.67111E-06   -0.18643E-08   785   0.546E-04
   43 T=    71. E= -.41286664E+03 F= -.41321585E+03 E0= -.41319483E+03  EK= 0.34921E+00 SP= 0.00E+00 SK= 0.00E+00
       N       E                     dE             d eps       ncg     rms          rms(c)
RMM:   1    -0.413227837495E+03   -0.11988E-01   -0.10830E+01  4312   0.131E+00    0.950E-01
RMM:   2    -0.413221569163E+03    0.62683E-02   -0.15763E-01  4309   0.158E-01    0.703E-01
RMM:   3    -0.413222699108E+03   -0.11299E-02   -0.18522E-02  5067   0.911E-02    0.341E-01
RMM:   4    -0.413256015713E+03   -0.33317E-01   -0.55333E-02  5070   0.200E-01    0.811E-01
RMM:   5    -0.413217026955E+03    0.38989E-01   -0.16258E-02  4707   0.134E-01    0.610E-02
RMM:   6    -0.413217082432E+03   -0.55477E-04   -0.30126E-03  5729   0.518E-02    0.347E-02
RMM:   7    -0.413217087630E+03   -0.51986E-05   -0.44793E-04  5738   0.195E-02    0.228E-02
RMM:   8    -0.413217086754E+03    0.87609E-06   -0.12014E-04  5176   0.113E-02    0.118E-02
RMM:   9    -0.413217076314E+03    0.10440E-04   -0.19301E-05  4415   0.557E-03    0.477E-03
RMM:  10    -0.413217073904E+03    0.24103E-05   -0.39383E-06  2790   0.257E-03    0.300E-03
RMM:  11    -0.413217070948E+03    0.29559E-05   -0.12793E-06  2498   0.186E-03    0.161E-03
RMM:  12    -0.413217066818E+03    0.41307E-05   -0.78721E-07  2446   0.148E-03    0.649E-04
RMM:  13    -0.413217064268E+03    0.25493E-05   -0.38863E-07  2100   0.104E-03    0.296E-04
RMM:  14    -0.413217062421E+03    0.18471E-05   -0.21439E-07  1616   0.803E-04    0.189E-04
RMM:  15    -0.413217058754E+03    0.36670E-05   -0.15504E-07  1337   0.727E-04    0.118E-04
RMM:  16    -0.413217057011E+03    0.17433E-05   -0.93553E-08  1134   0.661E-04    0.840E-05
RMM:  17    -0.413217054577E+03    0.24340E-05   -0.77039E-08  1149   0.646E-04    0.489E-05
RMM:  18    -0.413217052341E+03    0.22356E-05   -0.61881E-08  1146   0.628E-04    0.344E-05
RMM:  19    -0.413217050801E+03    0.15403E-05   -0.37791E-08   945   0.582E-04    0.224E-05
RMM:  20    -0.413217050237E+03    0.56372E-06   -0.22263E-08   776   0.554E-04
   44 T=    71. E= -.41286644E+03 F= -.41321705E+03 E0= -.41319606E+03  EK= 0.35061E+00 SP= 0.00E+00 SK= 0.00E+00
       N       E                     dE             d eps       ncg     rms          rms(c)
RMM:   1    -0.413250675330E+03   -0.33625E-01   -0.11031E+01  4312   0.148E+00    0.974E-01
RMM:   2    -0.413222385339E+03    0.28290E-01   -0.16970E-01  4328   0.168E-01    0.700E-01
RMM:   3    -0.413227488898E+03   -0.51036E-02   -0.20637E-02  5117   0.105E-01    0.433E-01
RMM:   4    -0.413244688201E+03   -0.17199E-01   -0.46943E-02  5051   0.187E-01    0.675E-01
RMM:   5    -0.413218438016E+03    0.26250E-01   -0.10059E-02  4657   0.113E-01    0.598E-02
RMM:   6    -0.413218423785E+03    0.14231E-04   -0.20767E-03  5612   0.435E-02    0.344E-02
RMM:   7    -0.413218420425E+03    0.33599E-05   -0.35455E-04  5628   0.181E-02    0.227E-02
RMM:   8    -0.413218413470E+03    0.69541E-05   -0.12059E-04  5084   0.115E-02    0.108E-02
RMM:   9    -0.413218400445E+03    0.13025E-04   -0.16332E-05  4335   0.550E-03    0.438E-03
RMM:  10    -0.413218396609E+03    0.38365E-05   -0.30509E-06  2741   0.235E-03    0.259E-03
RMM:  11    -0.413218390717E+03    0.58917E-05   -0.11753E-06  2482   0.180E-03    0.141E-03
RMM:  12    -0.413218384572E+03    0.61448E-05   -0.61633E-07  2427   0.136E-03    0.654E-04
RMM:  13    -0.413218380839E+03    0.37327E-05   -0.29334E-07  1910   0.938E-04    0.303E-04
RMM:  14    -0.413218377338E+03    0.35014E-05   -0.16583E-07  1469   0.742E-04    0.169E-04
RMM:  15    -0.413218372330E+03    0.50084E-05   -0.12197E-07  1286   0.697E-04    0.122E-04
RMM:  16    -0.413218369358E+03    0.29712E-05   -0.81069E-08  1162   0.647E-04    0.961E-05
RMM:  17    -0.413218364432E+03    0.49264E-05   -0.83341E-08  1376   0.657E-04    0.675E-05
RMM:  18    -0.413218362499E+03    0.19333E-05   -0.41791E-08   972   0.566E-04    0.428E-05
RMM:  19    -0.413218360901E+03    0.15982E-05   -0.30713E-08   899   0.548E-04    0.229E-05
RMM:  20    -0.413218360530E+03    0.37016E-06   -0.16825E-08   733   0.521E-04
   45 T=    72. E= -.41286682E+03 F= -.41321836E+03 E0= -.41319739E+03  EK= 0.35154E+00 SP= 0.00E+00 SK= 0.00E+00
       N       E                     dE             d eps       ncg     rms          rms(c)
RMM:   1    -0.413263582693E+03   -0.45222E-01   -0.11056E+01  4311   0.161E+00    0.953E-01
RMM:   2    -0.413222259514E+03    0.41323E-01   -0.19003E-01  4354   0.184E-01    0.696E-01
RMM:   3    -0.413229514269E+03   -0.72548E-02   -0.20882E-02  5120   0.113E-01    0.491E-01
RMM:   4    -0.413240524843E+03   -0.11011E-01   -0.45145E-02  5038   0.184E-01    0.630E-01
RMM:   5    -0.413218255588E+03    0.22269E-01   -0.86371E-03  4618   0.107E-01    0.600E-02
RMM:   6    -0.413218210588E+03    0.44999E-04   -0.17114E-03  5472   0.405E-02    0.337E-02
RMM:   7    -0.413218205917E+03    0.46707E-05   -0.30917E-04  5646   0.171E-02    0.231E-02
RMM:   8    -0.413218196636E+03    0.92810E-05   -0.12845E-04  5080   0.118E-02    0.106E-02
RMM:   9    -0.413218183521E+03    0.13116E-04   -0.17629E-05  4382   0.576E-03    0.425E-03
RMM:  10    -0.413218180411E+03    0.31095E-05   -0.30535E-06  2730   0.229E-03    0.245E-03
RMM:  11    -0.413218174701E+03    0.57103E-05   -0.13370E-06  2499   0.185E-03    0.137E-03
RMM:  12    -0.413218170082E+03    0.46190E-05   -0.58549E-07  2432   0.134E-03    0.705E-04
RMM:  13    -0.413218166480E+03    0.36016E-05   -0.28271E-07  1847   0.916E-04    0.333E-04
RMM:  14    -0.413218162838E+03    0.36426E-05   -0.16068E-07  1389   0.727E-04    0.177E-04
RMM:  15    -0.413218159029E+03    0.38089E-05   -0.11477E-07  1244   0.677E-04    0.118E-04
RMM:  16    -0.413218156029E+03    0.29996E-05   -0.80506E-08  1139   0.640E-04    0.103E-04
RMM:  17    -0.413218151901E+03    0.41288E-05   -0.79614E-08  1292   0.648E-04    0.644E-05
RMM:  18    -0.413218149706E+03    0.21944E-05   -0.46482E-08  1052   0.576E-04    0.525E-05
RMM:  19    -0.413218148667E+03    0.10387E-05   -0.26274E-08   810   0.528E-04    0.314E-05
RMM:  20    -0.413218148045E+03    0.62249E-06   -0.16748E-08   719   0.519E-04
   46 T=    72. E= -.41286674E+03 F= -.41321815E+03 E0= -.41319719E+03  EK= 0.35141E+00 SP= 0.00E+00 SK= 0.00E+00
       N       E                     dE             d eps       ncg     rms          rms(c)
RMM:   1    -0.413240216605E+03   -0.22068E-01   -0.10848E+01  4311   0.159E+00    0.942E-01
RMM:   2    -0.413221675471E+03    0.18541E-01   -0.17978E-01  4370   0.191E-01    0.706E-01
RMM:   3    -0.413231176594E+03   -0.95011E-02   -0.23976E-02  5113   0.125E-01    0.528E-01
RMM:   4    -0.413238258235E+03   -0.70816E-02   -0.46826E-02  5023   0.189E-01    0.607E-01
RMM:   5    -0.413217250686E+03    0.21008E-01   -0.75633E-03  4596   0.105E-01    0.593E-02
RMM:   6    -0.413217188845E+03    0.61841E-04   -0.15184E-03  5416   0.385E-02    0.322E-02
RMM:   7    -0.413217185304E+03    0.35412E-05   -0.27656E-04  5615   0.163E-02    0.221E-02
RMM:   8    -0.413217177220E+03    0.80833E-05   -0.13077E-04  5099   0.118E-02    0.104E-02
RMM:   9    -0.413217165310E+03    0.11910E-04   -0.16801E-05  4348   0.567E-03    0.420E-03
RMM:  10    -0.413217163195E+03    0.21152E-05   -0.29773E-06  2723   0.227E-03    0.243E-03
RMM:  11    -0.413217159178E+03    0.40175E-05   -0.13474E-06  2495   0.186E-03    0.132E-03
RMM:  12    -0.413217156103E+03    0.30750E-05   -0.60642E-07  2428   0.135E-03    0.720E-04
RMM:  13    -0.413217153337E+03    0.27655E-05   -0.30541E-07  1849   0.941E-04    0.345E-04
RMM:  14    -0.413217150668E+03    0.26695E-05   -0.17179E-07  1406   0.742E-04    0.177E-04
RMM:  15    -0.413217147900E+03    0.27671E-05   -0.12201E-07  1224   0.682E-04    0.113E-04
RMM:  16    -0.413217145697E+03    0.22032E-05   -0.87219E-08  1190   0.645E-04    0.985E-05
RMM:  17    -0.413217142846E+03    0.28514E-05   -0.77760E-08  1230   0.635E-04    0.529E-05
RMM:  18    -0.413217140812E+03    0.20336E-05   -0.51604E-08  1055   0.582E-04    0.434E-05
RMM:  19    -0.413217140073E+03    0.73936E-06   -0.25907E-08   791   0.528E-04
   47 T=    71. E= -.41286683E+03 F= -.41321714E+03 E0= -.41319620E+03  EK= 0.35031E+00 SP= 0.00E+00 SK= 0.00E+00
       N       E                     dE             d eps       ncg     rms          rms(c)
RMM:   1    -0.413242350899E+03   -0.25210E-01   -0.10795E+01  4306   0.172E+00    0.964E-01
RMM:   2    -0.413219239503E+03    0.23111E-01   -0.17302E-01  4428   0.201E-01    0.701E-01
RMM:   3    -0.413237154248E+03   -0.17915E-01   -0.31413E-02  5139   0.148E-01    0.648E-01
RMM:   4    -0.413227389533E+03    0.97647E-02   -0.42518E-02  4981   0.184E-01    0.472E-01
RMM:   5    -0.413215238822E+03    0.12151E-01   -0.44717E-03  4531   0.895E-02    0.585E-02
RMM:   6    -0.413215118332E+03    0.12049E-03   -0.65834E-04  4860   0.297E-02    0.308E-02
RMM:   7    -0.413215107018E+03    0.11314E-04   -0.18017E-04  5873   0.131E-02    0.127E-02
RMM:   8    -0.413215099127E+03    0.78903E-05   -0.42921E-05  5170   0.798E-03    0.760E-03
RMM:   9    -0.413215095263E+03    0.38647E-05   -0.79766E-06  3416   0.357E-03    0.337E-03
RMM:  10    -0.413215091481E+03    0.37818E-05   -0.20340E-06  2561   0.224E-03    0.230E-03
RMM:  11    -0.413215086469E+03    0.50122E-05   -0.13610E-06  2468   0.195E-03    0.153E-03
RMM:  12    -0.413215082892E+03    0.35772E-05   -0.48757E-07  2378   0.132E-03    0.870E-04
RMM:  13    -0.413215078996E+03    0.38951E-05   -0.24999E-07  1970   0.888E-04    0.470E-04
RMM:  14    -0.413215073422E+03    0.55745E-05   -0.18506E-07  1609   0.763E-04    0.352E-04
RMM:  15    -0.413215069852E+03    0.35699E-05   -0.90783E-08  1026   0.598E-04    0.142E-04
RMM:  16    -0.413215067189E+03    0.26633E-05   -0.64540E-08   978   0.581E-04    0.844E-05
RMM:  17    -0.413215062853E+03    0.43362E-05   -0.74422E-08  1180   0.615E-04    0.108E-04
RMM:  18    -0.413215061465E+03    0.13870E-05   -0.32112E-08   830   0.536E-04    0.769E-05
RMM:  19    -0.413215060704E+03    0.76155E-06   -0.18282E-08   688   0.509E-04
   48 T=    71. E= -.41286709E+03 F= -.41321506E+03 E0= -.41319413E+03  EK= 0.34797E+00 SP= 0.00E+00 SK= 0.00E+00
       N       E                     dE             d eps       ncg     rms          rms(c)
RMM:   1    -0.413243120956E+03   -0.28059E-01   -0.10633E+01  4306   0.185E+00    0.953E-01
RMM:   2    -0.413214599097E+03    0.28522E-01   -0.17249E-01  4480   0.211E-01    0.690E-01
RMM:   3    -0.413240556258E+03   -0.25957E-01   -0.37738E-02  5149   0.167E-01    0.748E-01
RMM:   4    -0.413218775930E+03    0.21780E-01   -0.41789E-02  4946   0.186E-01    0.393E-01
RMM:   5    -0.413210883979E+03    0.78920E-02   -0.41561E-03  4644   0.881E-02    0.656E-02
RMM:   6    -0.413210688508E+03    0.19547E-03   -0.45684E-04  4653   0.293E-02    0.336E-02
RMM:   7    -0.413210698797E+03   -0.10289E-04   -0.31085E-04  5734   0.186E-02    0.254E-02
RMM:   8    -0.413210661646E+03    0.37150E-04   -0.10182E-04  4979   0.116E-02    0.968E-03
RMM:   9    -0.413210655325E+03    0.63211E-05   -0.22478E-05  5120   0.588E-03    0.481E-03
RMM:  10    -0.413210651191E+03    0.41343E-05   -0.26346E-06  2671   0.248E-03    0.269E-03
RMM:  11    -0.413210645210E+03    0.59811E-05   -0.14522E-06  2499   0.199E-03    0.190E-03
RMM:  12    -0.413210641309E+03    0.39002E-05   -0.44285E-07  2415   0.125E-03    0.993E-04
RMM:  13    -0.413210636930E+03    0.43797E-05   -0.26955E-07  2058   0.892E-04    0.471E-04
RMM:  14    -0.413210631724E+03    0.52057E-05   -0.20664E-07  1714   0.778E-04    0.344E-04
RMM:  15    -0.413210626575E+03    0.51487E-05   -0.12388E-07  1181   0.654E-04    0.146E-04
RMM:  16    -0.413210623906E+03    0.26693E-05   -0.72622E-08  1048   0.599E-04    0.916E-05
RMM:  17    -0.413210619924E+03    0.39815E-05   -0.74223E-08  1185   0.619E-04    0.643E-05
RMM:  18    -0.413210618049E+03    0.18750E-05   -0.42534E-08   998   0.558E-04    0.545E-05
RMM:  19    -0.413210616493E+03    0.15566E-05   -0.29514E-08   890   0.532E-04    0.314E-05
RMM:  20    -0.413210615627E+03    0.86558E-06   -0.23069E-08   821   0.515E-04
   49 T=    70. E= -.41286687E+03 F= -.41321062E+03 E0= -.41318969E+03  EK= 0.34375E+00 SP= 0.00E+00 SK= 0.00E+00
[...]
RMM:  11    -0.413503891407E+03   -0.20999E-05   -0.15163E-05  4223   0.433E-03    0.512E-03
RMM:  12    -0.413503893371E+03   -0.19647E-05   -0.42732E-06  2987   0.324E-03    0.230E-03
RMM:  13    -0.413503894506E+03   -0.11343E-05   -0.95748E-07  2507   0.179E-03    0.103E-03
RMM:  14    -0.413503895433E+03   -0.92715E-06   -0.55591E-07  2286   0.119E-03
  138 T=   130. E= -.41286609E+03 F= -.41350390E+03 E0= -.41348116E+03  EK= 0.63781E+00 SP= 0.00E+00 SK= 0.00E+00
       N       E                     dE             d eps       ncg     rms          rms(c)
RMM:   1    -0.413673992765E+03   -0.17010E+00   -0.13018E+01  4289   0.649E+00    0.900E-01
RMM:   2    -0.413601158366E+03    0.72834E-01   -0.32754E-01  5400   0.682E-01    0.925E-01
RMM:   3    -0.413596163362E+03    0.49950E-02   -0.63327E-02  5659   0.280E-01    0.841E-01
RMM:   4    -0.413583947720E+03    0.12216E-01   -0.25472E-02  5266   0.193E-01    0.445E-01
RMM:   5    -0.413584500012E+03   -0.55229E-03   -0.21939E-02  4855   0.194E-01    0.234E-01
RMM:   6    -0.413583132637E+03    0.13674E-02   -0.11039E-02  5018   0.127E-01    0.127E-01
RMM:   7    -0.413582411597E+03    0.72104E-03   -0.14568E-03  4700   0.570E-02    0.543E-02
RMM:   8    -0.413582401720E+03    0.98769E-05   -0.62508E-04  5851   0.287E-02    0.348E-02
RMM:   9    -0.413582391711E+03    0.10009E-04   -0.20699E-04  4676   0.184E-02    0.147E-02
RMM:  10    -0.413582390891E+03    0.82066E-06   -0.48122E-05  5556   0.843E-03    0.830E-03
RMM:  11    -0.413582391533E+03   -0.64188E-06   -0.13336E-05  4267   0.466E-03    0.526E-03
RMM:  12    -0.413582394239E+03   -0.27058E-05   -0.39736E-06  2928   0.311E-03    0.317E-03
RMM:  13    -0.413582395307E+03   -0.10679E-05   -0.13098E-06  2549   0.196E-03    0.122E-03
RMM:  14    -0.413582395768E+03   -0.46112E-06   -0.68712E-07  2352   0.132E-03
  139 T=   145. E= -.41287253E+03 F= -.41358240E+03 E0= -.41355996E+03  EK= 0.70986E+00 SP= 0.00E+00 SK= 0.00E+00
       N       E                     dE             d eps       ncg     rms          rms(c)
RMM:   1    -0.413827674588E+03   -0.24528E+00   -0.16805E+01  4295   0.753E+00    0.143E+00
RMM:   2    -0.413760627283E+03    0.67047E-01   -0.46968E-01  5396   0.816E-01    0.130E+00
RMM:   3    -0.413782814458E+03   -0.22187E-01   -0.13663E-01  5533   0.403E-01    0.136E+00
RMM:   4    -0.413736672330E+03    0.46142E-01   -0.87868E-02  5180   0.349E-01    0.581E-01
RMM:   5    -0.413731430635E+03    0.52417E-02   -0.48157E-02  4876   0.287E-01    0.239E-01
RMM:   6    -0.413729925080E+03    0.15056E-02   -0.15060E-02  5279   0.150E-01    0.152E-01
RMM:   7    -0.413728831907E+03    0.10932E-02   -0.19071E-03  4529   0.648E-02    0.642E-02
RMM:   8    -0.413728819463E+03    0.12444E-04   -0.12055E-03  5732   0.404E-02    0.402E-02
RMM:   9    -0.413728822567E+03   -0.31047E-05   -0.30031E-04  5372   0.210E-02    0.272E-02
RMM:  10    -0.413728807589E+03    0.14979E-04   -0.82303E-05  5512   0.115E-02    0.108E-02
RMM:  11    -0.413728811640E+03   -0.40512E-05   -0.40848E-05  5438   0.704E-03    0.720E-03
RMM:  12    -0.413728815592E+03   -0.39519E-05   -0.62774E-06  3222   0.373E-03    0.335E-03
RMM:  13    -0.413728817321E+03   -0.17288E-05   -0.17870E-06  2609   0.214E-03    0.143E-03
RMM:  14    -0.413728818777E+03   -0.14563E-05   -0.10123E-06  2507   0.158E-03    0.670E-04
RMM:  15    -0.413728819601E+03   -0.82397E-06   -0.61031E-07  2240   0.119E-03
  140 T=   172. E= -.41288440E+03 F= -.41372882E+03 E0= -.41370679E+03  EK= 0.84442E+00 SP= 0.00E+00 SK= 0.00E+00
       N       E                     dE             d eps       ncg     rms          rms(c)
RMM:   1    -0.413882040857E+03   -0.15322E+00   -0.19526E+01  4295   0.813E+00    0.136E+00
RMM:   2    -0.413787547027E+03    0.94494E-01   -0.54335E-01  5406   0.878E-01    0.125E+00
RMM:   3    -0.413816526998E+03   -0.28980E-01   -0.13477E-01  5643   0.400E-01    0.134E+00
RMM:   4    -0.413770349139E+03    0.46178E-01   -0.71240E-02  5145   0.317E-01    0.608E-01
RMM:   5    -0.413767184785E+03    0.31644E-02   -0.47873E-02  4800   0.287E-01    0.261E-01
RMM:   6    -0.413765386730E+03    0.17981E-02   -0.15185E-02  5215   0.152E-01    0.151E-01
RMM:   7    -0.413764254520E+03    0.11322E-02   -0.21829E-03  4674   0.677E-02    0.738E-02
RMM:   8    -0.413764196609E+03    0.57912E-04   -0.12883E-03  5716   0.420E-02    0.458E-02
RMM:   9    -0.413764195202E+03    0.14065E-05   -0.39789E-04  5039   0.244E-02    0.252E-02
RMM:  10    -0.413764188228E+03    0.69736E-05   -0.10360E-04  5611   0.127E-02    0.118E-02
RMM:  11    -0.413764193299E+03   -0.50701E-05   -0.37955E-05  5309   0.724E-03    0.852E-03
RMM:  12    -0.413764197495E+03   -0.41969E-05   -0.79624E-06  3519   0.405E-03    0.382E-03
RMM:  13    -0.413764199839E+03   -0.23433E-05   -0.30943E-06  2792   0.255E-03    0.164E-03
RMM:  14    -0.413764201832E+03   -0.19932E-05   -0.13735E-06  2522   0.187E-03    0.801E-04
RMM:  15    -0.413764202983E+03   -0.11512E-05   -0.78347E-07  2377   0.136E-03    0.576E-04
RMM:  16    -0.413764203557E+03   -0.57373E-06   -0.55434E-07  2145   0.108E-03
  141 T=   179. E= -.41288286E+03 F= -.41376420E+03 E0= -.41374263E+03  EK= 0.88134E+00 SP= 0.00E+00 SK= 0.00E+00
       N       E                     dE             d eps       ncg     rms          rms(c)
RMM:   1    -0.413778575765E+03   -0.14373E-01   -0.18687E+01  4296   0.801E+00    0.105E+00
RMM:   2    -0.413682267043E+03    0.96309E-01   -0.50792E-01  5420   0.853E-01    0.994E-01
RMM:   3    -0.413706145994E+03   -0.23879E-01   -0.92170E-02  5875   0.325E-01    0.105E+00
RMM:   4    -0.413681742702E+03    0.24403E-01   -0.35084E-02  5168   0.207E-01    0.656E-01
RMM:   5    -0.413677826978E+03    0.39157E-02   -0.40395E-02  4452   0.265E-01    0.261E-01
RMM:   6    -0.413676112343E+03    0.17146E-02   -0.10060E-02  5073   0.131E-01    0.138E-01
RMM:   7    -0.413675528600E+03    0.58374E-03   -0.19748E-03  5454   0.584E-02    0.999E-02
RMM:   8    -0.413675250814E+03    0.27779E-03   -0.87198E-04  4542   0.381E-02    0.496E-02
RMM:   9    -0.413675254051E+03   -0.32374E-05   -0.75903E-04  4864   0.328E-02    0.223E-02
RMM:  10    -0.413675255961E+03   -0.19095E-05   -0.88202E-05  5380   0.120E-02    0.119E-02
RMM:  11    -0.413675261296E+03   -0.53357E-05   -0.28383E-05  4740   0.675E-03    0.585E-03
RMM:  12    -0.413675266538E+03   -0.52420E-05   -0.59988E-06  3121   0.326E-03    0.303E-03
RMM:  13    -0.413675270439E+03   -0.39013E-05   -0.21644E-06  2670   0.218E-03    0.185E-03
RMM:  14    -0.413675272666E+03   -0.22265E-05   -0.15093E-06  2556   0.183E-03    0.981E-04
RMM:  15    -0.413675273711E+03   -0.10447E-05   -0.80073E-07  2316   0.131E-03    0.500E-04
RMM:  16    -0.413675274248E+03   -0.53708E-06   -0.53799E-07  2113   0.108E-03
  142 T=   162. E= -.41288066E+03 F= -.41367527E+03 E0= -.41365415E+03  EK= 0.79461E+00 SP= 0.00E+00 SK= 0.00E+00
       N       E                     dE             d eps       ncg     rms          rms(c)
RMM:   1    -0.413561857740E+03    0.11342E+00   -0.15431E+01  4287   0.729E+00    0.122E+00
RMM:   2    -0.413495565279E+03    0.66292E-01   -0.45866E-01  5410   0.815E-01    0.118E+00
RMM:   3    -0.413519670773E+03   -0.24105E-01   -0.95100E-02  5845   0.315E-01    0.119E+00
RMM:   4    -0.413492379639E+03    0.27291E-01   -0.33971E-02  5046   0.214E-01    0.719E-01
RMM:   5    -0.413490279249E+03    0.21004E-02   -0.46692E-02  4333   0.291E-01    0.266E-01
RMM:   6    -0.413487558136E+03    0.27211E-02   -0.43539E-03  4506   0.103E-01    0.112E-01
RMM:   7    -0.413487286463E+03    0.27167E-03   -0.14209E-03  5568   0.478E-02    0.697E-02
RMM:   8    -0.413487202607E+03    0.83856E-04   -0.78053E-04  4655   0.357E-02    0.271E-02
RMM:   9    -0.413487207485E+03   -0.48783E-05   -0.23209E-04  5514   0.185E-02    0.152E-02
RMM:  10    -0.413487217056E+03   -0.95705E-05   -0.59593E-05  5529   0.884E-03    0.103E-02
RMM:  11    -0.413487215713E+03    0.13429E-05   -0.17732E-05  4507   0.495E-03    0.602E-03
RMM:  12    -0.413487219756E+03   -0.40435E-05   -0.37450E-06  2923   0.291E-03    0.325E-03
RMM:  13    -0.413487223503E+03   -0.37462E-05   -0.22942E-06  2674   0.240E-03    0.161E-03
RMM:  14    -0.413487225700E+03   -0.21976E-05   -0.12668E-06  2521   0.178E-03    0.872E-04
RMM:  15    -0.413487227011E+03   -0.13107E-05   -0.75475E-07  2396   0.132E-03    0.508E-04
RMM:  16    -0.413487227525E+03   -0.51427E-06   -0.41275E-07  1886   0.960E-04
  143 T=   123. E= -.41288134E+03 F= -.41348723E+03 E0= -.41346640E+03  EK= 0.60589E+00 SP= 0.00E+00 SK= 0.00E+00
       N       E                     dE             d eps       ncg     rms          rms(c)
RMM:   1    -0.413260576272E+03    0.22665E+00   -0.95282E+00  4265   0.577E+00    0.128E+00
RMM:   2    -0.413258010481E+03    0.25658E-02   -0.32721E-01  5397   0.689E-01    0.132E+00
RMM:   3    -0.413252473686E+03    0.55368E-02   -0.79901E-02  5653   0.296E-01    0.123E+00
RMM:   4    -0.413232830266E+03    0.19643E-01   -0.30881E-02  4849   0.231E-01    0.627E-01
RMM:   5    -0.413233192489E+03   -0.36222E-03   -0.30418E-02  4364   0.244E-01    0.268E-01
RMM:   6    -0.413231252563E+03    0.19399E-02   -0.39452E-03  4681   0.919E-02    0.113E-01
RMM:   7    -0.413230944268E+03    0.30829E-03   -0.97527E-04  5121   0.414E-02    0.715E-02
RMM:   8    -0.413230817038E+03    0.12723E-03   -0.68747E-04  4446   0.352E-02    0.280E-02
RMM:   9    -0.413230825773E+03   -0.87353E-05   -0.25199E-04  5655   0.188E-02    0.146E-02
RMM:  10    -0.413230825365E+03    0.40839E-06   -0.50277E-05  5401   0.826E-03    0.861E-03
RMM:  11    -0.413230827531E+03   -0.21661E-05   -0.13254E-05  3994   0.463E-03    0.456E-03
RMM:  12    -0.413230830896E+03   -0.33658E-05   -0.29472E-06  2790   0.255E-03    0.218E-03
RMM:  13    -0.413230833191E+03   -0.22941E-05   -0.13154E-06  2565   0.177E-03    0.124E-03
RMM:  14    -0.413230834662E+03   -0.14717E-05   -0.77110E-07  2428   0.139E-03    0.577E-04
RMM:  15    -0.413230835575E+03   -0.91278E-06   -0.52442E-07  2109   0.109E-03
  144 T=    74. E= -.41286690E+03 F= -.41323084E+03 E0= -.41321020E+03  EK= 0.36393E+00 SP= 0.00E+00 SK= 0.00E+00
       N       E                     dE             d eps       ncg     rms          rms(c)
RMM:   1    -0.413133436192E+03    0.97398E-01   -0.36239E+00  4264   0.370E+00    0.561E-01
RMM:   2    -0.413144318152E+03   -0.10882E-01   -0.94851E-02  5414   0.369E-01    0.645E-01
RMM:   3    -0.413136874682E+03    0.74435E-02   -0.23702E-02  5615   0.162E-01    0.524E-01
RMM:   4    -0.413133014417E+03    0.38603E-02   -0.97306E-03  5087   0.127E-01    0.269E-01
RMM:   5    -0.413133209193E+03   -0.19478E-03   -0.89563E-03  4475   0.133E-01    0.137E-01
RMM:   6    -0.413132535345E+03    0.67385E-03   -0.14471E-03  4621   0.541E-02    0.649E-02
RMM:   7    -0.413132422770E+03    0.11258E-03   -0.28645E-04  4649   0.248E-02    0.327E-02
RMM:   8    -0.413132418308E+03    0.44611E-05   -0.21110E-04  4649   0.191E-02    0.160E-02
RMM:   9    -0.413132422516E+03   -0.42074E-05   -0.59966E-05  5522   0.901E-03    0.858E-03
RMM:  10    -0.413132422389E+03    0.12718E-06   -0.12099E-05  3984   0.434E-03    0.430E-03
RMM:  11    -0.413132424357E+03   -0.19684E-05   -0.40525E-06  2931   0.279E-03    0.248E-03
RMM:  12    -0.413132425793E+03   -0.14355E-05   -0.90796E-07  2481   0.174E-03    0.116E-03
RMM:  13    -0.413132426945E+03   -0.11523E-05   -0.59165E-07  2393   0.128E-03    0.514E-04
RMM:  14    -0.413132427812E+03   -0.86720E-06   -0.35193E-07  1896   0.977E-04
  145 T=    56. E= -.41285661E+03 F= -.41313243E+03 E0= -.41311209E+03  EK= 0.27581E+00 SP= 0.00E+00 SK= 0.00E+00
       N       E                     dE             d eps       ncg     rms          rms(c)
RMM:   1    -0.413316649389E+03   -0.18422E+00   -0.51404E+00  4296   0.446E+00    0.885E-01
RMM:   2    -0.413315238457E+03    0.14109E-02   -0.11983E-01  5357   0.432E-01    0.721E-01
RMM:   3    -0.413353483950E+03   -0.38245E-01   -0.58237E-02  5469   0.247E-01    0.988E-01
RMM:   4    -0.413315008453E+03    0.38475E-01   -0.39277E-02  5103   0.221E-01    0.340E-01
RMM:   5    -0.413312182073E+03    0.28264E-02   -0.14488E-02  4901   0.162E-01    0.103E-01
RMM:   6    -0.413311952290E+03    0.22978E-03   -0.27907E-03  5562   0.651E-02    0.626E-02
RMM:   7    -0.413311826162E+03    0.12613E-03   -0.55910E-04  5018   0.292E-02    0.344E-02
RMM:   8    -0.413311797414E+03    0.28748E-04   -0.18754E-04  5384   0.175E-02    0.201E-02
RMM:   9    -0.413311802575E+03   -0.51612E-05   -0.95430E-05  5635   0.117E-02    0.135E-02
RMM:  10    -0.413311801630E+03    0.94541E-06   -0.19799E-05  4663   0.568E-03    0.693E-03
RMM:  11    -0.413311805550E+03   -0.39199E-05   -0.18296E-05  4734   0.514E-03    0.482E-03
RMM:  12    -0.413311808069E+03   -0.25197E-05   -0.21912E-06  2645   0.256E-03    0.224E-03
RMM:  13    -0.413311809710E+03   -0.16407E-05   -0.11120E-06  2506   0.168E-03    0.106E-03
RMM:  14    -0.413311811623E+03   -0.19130E-05   -0.71411E-07  2355   0.134E-03    0.458E-04
RMM:  15    -0.413311812878E+03   -0.12555E-05   -0.44150E-07  1963   0.102E-03    0.269E-04
RMM:  16    -0.413311814074E+03   -0.11954E-05   -0.38421E-07  2012   0.945E-04    0.226E-04
RMM:  17    -0.413311814919E+03   -0.84470E-06   -0.26802E-07  1622   0.788E-04
  146 T=    88. E= -.41287902E+03 F= -.41331181E+03 E0= -.41329167E+03  EK= 0.43280E+00 SP= 0.00E+00 SK= 0.00E+00
       N       E                     dE             d eps       ncg     rms          rms(c)
RMM:   1    -0.413507705290E+03   -0.19589E+00   -0.10473E+01  4299   0.636E+00    0.142E+00
RMM:   2    -0.413501385783E+03    0.63195E-02   -0.29540E-01  5378   0.692E-01    0.127E+00
RMM:   3    -0.413543333670E+03   -0.41948E-01   -0.11827E-01  5392   0.366E-01    0.143E+00
RMM:   4    -0.413483356971E+03    0.59977E-01   -0.82373E-02  5137   0.330E-01    0.588E-01
RMM:   5    -0.413479491296E+03    0.38657E-02   -0.36976E-02  4919   0.253E-01    0.225E-01
RMM:   6    -0.413477869037E+03    0.16223E-02   -0.12398E-02  5197   0.136E-01    0.123E-01
RMM:   7    -0.413477122756E+03    0.74628E-03   -0.16932E-03  4715   0.588E-02    0.524E-02
RMM:   8    -0.413477089030E+03    0.33726E-04   -0.45142E-04  5547   0.264E-02    0.334E-02
RMM:   9    -0.413477093439E+03   -0.44090E-05   -0.20972E-04  5316   0.179E-02    0.187E-02
RMM:  10    -0.413477094737E+03   -0.12984E-05   -0.48233E-05  5361   0.846E-03    0.107E-02
RMM:  11    -0.413477102136E+03   -0.73991E-05   -0.29686E-05  5064   0.678E-03    0.556E-03
RMM:  12    -0.413477109135E+03   -0.69993E-05   -0.49321E-06  3026   0.329E-03    0.342E-03
RMM:  13    -0.413477113519E+03   -0.43834E-05   -0.26099E-06  2702   0.244E-03    0.160E-03
RMM:  14    -0.413477116837E+03   -0.33180E-05   -0.13272E-06  2537   0.175E-03    0.847E-04
RMM:  15    -0.413477119241E+03   -0.24041E-05   -0.92384E-07  2382   0.133E-03    0.521E-04
RMM:  16    -0.413477120869E+03   -0.16278E-05   -0.73868E-07  2171   0.112E-03    0.292E-04
RMM:  17    -0.413477121647E+03   -0.77831E-06   -0.62563E-07  2069   0.100E-03
  147 T=   120. E= -.41288639E+03 F= -.41347712E+03 E0= -.41345710E+03  EK= 0.59073E+00 SP= 0.00E+00 SK= 0.00E+00
       N       E                     dE             d eps       ncg     rms          rms(c)
RMM:   1    -0.413516287065E+03   -0.39166E-01   -0.12363E+01  4296   0.687E+00    0.125E+00
RMM:   2    -0.413502957498E+03    0.13330E-01   -0.34646E-01  5385   0.731E-01    0.114E+00
RMM:   3    -0.413536637492E+03   -0.33680E-01   -0.10168E-01  5429   0.345E-01    0.128E+00
RMM:   4    -0.413488344274E+03    0.48293E-01   -0.58001E-02  5125   0.282E-01    0.583E-01
RMM:   5    -0.413486681834E+03    0.16624E-02   -0.31354E-02  4886   0.235E-01    0.227E-01
RMM:   6    -0.413485265069E+03    0.14168E-02   -0.12247E-02  5143   0.134E-01    0.127E-01
RMM:   7    -0.413484424806E+03    0.84026E-03   -0.18871E-03  4804   0.612E-02    0.562E-02
RMM:   8    -0.413484398584E+03    0.26222E-04   -0.54434E-04  5754   0.280E-02    0.379E-02
RMM:   9    -0.413484394618E+03    0.39656E-05   -0.23083E-04  4937   0.194E-02    0.178E-02
RMM:  10    -0.413484396755E+03   -0.21364E-05   -0.56009E-05  5450   0.923E-03    0.103E-02
RMM:  11    -0.413484402281E+03   -0.55269E-05   -0.21703E-05  4715   0.600E-03    0.523E-03
RMM:  12    -0.413484409612E+03   -0.73303E-05   -0.52170E-06  3040   0.337E-03    0.309E-03
RMM:  13    -0.413484414755E+03   -0.51435E-05   -0.26013E-06  2722   0.237E-03    0.156E-03
RMM:  14    -0.413484417853E+03   -0.30978E-05   -0.14843E-06  2553   0.171E-03    0.849E-04
RMM:  15    -0.413484420040E+03   -0.21868E-05   -0.11327E-06  2414   0.138E-03    0.536E-04
RMM:  16    -0.413484421067E+03   -0.10274E-05   -0.85707E-07  2178   0.117E-03    0.286E-04
RMM:  17    -0.413484421097E+03   -0.30217E-07   -0.73553E-07  2087   0.105E-03
  148 T=   123. E= -.41287900E+03 F= -.41348442E+03 E0= -.41346456E+03  EK= 0.60542E+00 SP= 0.00E+00 SK= 0.00E+00
       N       E                     dE             d eps       ncg     rms          rms(c)
RMM:   1    -0.413453954823E+03    0.30466E-01   -0.11202E+01  4284   0.641E+00    0.992E-01
RMM:   2    -0.413442939880E+03    0.11015E-01   -0.33879E-01  5384   0.671E-01    0.869E-01
RMM:   3    -0.413474741998E+03   -0.31802E-01   -0.79414E-02  5461   0.304E-01    0.106E+00
RMM:   4    -0.413436600715E+03    0.38141E-01   -0.40945E-02  5156   0.239E-01    0.492E-01
RMM:   5    -0.413434853540E+03    0.17472E-02   -0.18829E-02  4699   0.190E-01    0.149E-01
RMM:   6    -0.413434499303E+03    0.35424E-03   -0.68178E-03  5290   0.997E-02    0.986E-02
RMM:   7    -0.413433974054E+03    0.52525E-03   -0.14364E-03  4951   0.495E-02    0.453E-02
RMM:   8    -0.413433957404E+03    0.16651E-04   -0.41832E-04  5782   0.243E-02    0.309E-02
RMM:   9    -0.413433956659E+03    0.74517E-06   -0.17254E-04  5034   0.168E-02    0.184E-02
RMM:  10    -0.413433952777E+03    0.38815E-05   -0.38967E-05  5224   0.801E-03    0.957E-03
RMM:  11    -0.413433955332E+03   -0.25551E-05   -0.23929E-05  4985   0.591E-03    0.535E-03
RMM:  12    -0.413433958819E+03   -0.34868E-05   -0.37045E-06  2871   0.298E-03    0.271E-03
RMM:  13    -0.413433961578E+03   -0.27595E-05   -0.20984E-06  2651   0.216E-03    0.138E-03
RMM:  14    -0.413433963637E+03   -0.20584E-05   -0.11413E-06  2478   0.161E-03    0.736E-04
RMM:  15    -0.413433964857E+03   -0.12196E-05   -0.77319E-07  2237   0.120E-03    0.471E-04
RMM:  16    -0.413433965472E+03   -0.61498E-06   -0.74510E-07  2257   0.114E-03
  149 T=   115. E= -.41286780E+03 F= -.41343397E+03 E0= -.41341432E+03  EK= 0.56617E+00 SP= 0.00E+00 SK= 0.00E+00
       N       E                     dE             d eps       ncg     rms          rms(c)
RMM:   1    -0.413507469066E+03   -0.73504E-01   -0.11031E+01  4264   0.614E+00    0.100E+00
RMM:   2    -0.413488291171E+03    0.19178E-01   -0.36228E-01  5414   0.697E-01    0.913E-01
RMM:   3    -0.413518435465E+03   -0.30144E-01   -0.82717E-02  5515   0.310E-01    0.105E+00
RMM:   4    -0.413482645333E+03    0.35790E-01   -0.43284E-02  5276   0.239E-01    0.525E-01
RMM:   5    -0.413479220395E+03    0.34249E-02   -0.15367E-02  4372   0.185E-01    0.118E-01
RMM:   6    -0.413479120836E+03    0.99560E-04   -0.43072E-03  5406   0.802E-02    0.813E-02
RMM:   7    -0.413478858593E+03    0.26224E-03   -0.12613E-03  5134   0.428E-02    0.452E-02
RMM:   8    -0.413478812269E+03    0.46324E-04   -0.29055E-04  5362   0.220E-02    0.281E-02
RMM:   9    -0.413478806946E+03    0.53223E-05   -0.14534E-04  4943   0.156E-02    0.161E-02
RMM:  10    -0.413478802961E+03    0.39852E-05   -0.33485E-05  5158   0.735E-03    0.842E-03
RMM:  11    -0.413478803363E+03   -0.40155E-06   -0.16126E-05  4496   0.487E-03    0.466E-03
RMM:  12    -0.413478804350E+03   -0.98709E-06   -0.29196E-06  2755   0.272E-03
  150 T=   124. E= -.41287084E+03 F= -.41347880E+03 E0= -.41345938E+03  EK= 0.60796E+00 SP= 0.00E+00 SK= 0.00E+00
