       N       E                     dE             d eps       ncg     rms          rms(c)
RMM:   1     0.220181919389E+04    0.22018E+04   -0.52441E+04  2132   0.654E+02
RMM:   2     0.705923333129E+03   -0.14959E+04   -0.16265E+04  2132   0.177E+02
RMM:   3     0.138104007493E+03   -0.56782E+03   -0.65717E+03  2132   0.117E+02
RMM:   4    -0.159299722223E+03   -0.29740E+03   -0.27875E+03  2132   0.936E+01
RMM:   5    -0.287452956967E+03   -0.12815E+03   -0.11459E+03  2132   0.595E+01
RMM:   6    -0.349960855805E+03   -0.62508E+02   -0.55233E+02  2132   0.423E+01
RMM:   7    -0.382842033153E+03   -0.32881E+02   -0.30429E+02  2132   0.293E+01
RMM:   8    -0.404264099498E+03   -0.21422E+02   -0.18377E+02  2132   0.233E+01
RMM:   9    -0.436081582527E+03   -0.31817E+02   -0.30704E+02  6110   0.173E+01
RMM:  10    -0.441306217719E+03   -0.52246E+01   -0.62669E+01  6394   0.538E+00
RMM:  11    -0.442522284899E+03   -0.12161E+01   -0.11159E+01  6211   0.173E+00
RMM:  12    -0.442893727376E+03   -0.37144E+00   -0.27131E+00  6366   0.600E-01    0.134E+02
RMM:  13    -0.425561536385E+03    0.17332E+02   -0.80802E+01  4672   0.119E+01    0.712E+01
RMM:  14    -0.498973274262E+03   -0.73412E+02   -0.53554E+02  5413   0.232E+01    0.307E+01
RMM:  15    -0.417875480439E+03    0.81098E+02   -0.20415E+02  5121   0.164E+01    0.845E+00
RMM:  16    -0.414022405808E+03    0.38531E+01   -0.40128E+01  6090   0.619E+00    0.432E+00
RMM:  17    -0.413207572352E+03    0.81483E+00   -0.27457E+00  5423   0.195E+00    0.244E+00
RMM:  18    -0.413178256350E+03    0.29316E-01   -0.74432E-01  6002   0.877E-01    0.172E+00
RMM:  19    -0.413178146217E+03    0.11013E-03   -0.23888E-01  5662   0.538E-01    0.970E-01
RMM:  20    -0.413198629869E+03   -0.20484E-01   -0.38411E-01  5571   0.633E-01    0.727E-01
RMM:  21    -0.413171457266E+03    0.27173E-01   -0.39422E-02  4972   0.264E-01    0.361E-01
RMM:  22    -0.413165641540E+03    0.58157E-02   -0.34470E-02  5740   0.186E-01    0.147E-01
RMM:  23    -0.413164909536E+03    0.73200E-03   -0.62306E-03  5964   0.721E-02    0.879E-02
RMM:  24    -0.413163768570E+03    0.11410E-02   -0.19069E-03  5349   0.437E-02    0.563E-02
RMM:  25    -0.413162952106E+03    0.81646E-03   -0.90851E-04  4840   0.303E-02    0.415E-02
RMM:  26    -0.413163019450E+03   -0.67343E-04   -0.11506E-03  5748   0.347E-02    0.330E-02
RMM:  27    -0.413163463026E+03   -0.44358E-03   -0.21912E-04  4588   0.206E-02    0.195E-02
RMM:  28    -0.413163880086E+03   -0.41706E-03   -0.14362E-04  4981   0.165E-02    0.993E-03
RMM:  29    -0.413164268981E+03   -0.38889E-03   -0.11078E-04  4701   0.155E-02    0.466E-03
RMM:  30    -0.413164550834E+03   -0.28185E-03   -0.94108E-05  4419   0.122E-02    0.479E-03
RMM:  31    -0.413164684798E+03   -0.13396E-03   -0.59163E-05  3321   0.734E-03    0.367E-03
RMM:  32    -0.413164713423E+03   -0.28625E-04   -0.22701E-05  2997   0.334E-03    0.238E-03
RMM:  33    -0.413164725201E+03   -0.11778E-04   -0.94491E-06  2835   0.241E-03    0.795E-04
RMM:  34    -0.413164725627E+03   -0.42607E-06   -0.51856E-06  2608   0.157E-03
    1 T=    61. E= -.41286690E+03 F= -.41316473E+03 E0= -.41314223E+03  EK= 0.29782E+00 SP= 0.00E+00 SK= 0.00E+00
       N       E                     dE             d eps       ncg     rms          rms(c)
RMM:   1    -0.413163917234E+03    0.80797E-03   -0.88344E+00  4019   0.608E-01    0.887E-01
RMM:   2    -0.413168818047E+03   -0.49008E-02   -0.10857E-01  4003   0.887E-02    0.652E-01
RMM:   3    -0.413164707350E+03    0.41107E-02   -0.18001E-02  4789   0.498E-02    0.902E-02
RMM:   4    -0.413183688038E+03   -0.18981E-01   -0.20228E-02  5210   0.118E-01    0.578E-01
RMM:   5    -0.413164271366E+03    0.19417E-01   -0.95160E-03  4858   0.967E-02    0.466E-02
RMM:   6    -0.413164410750E+03   -0.13938E-03   -0.18153E-03  5749   0.414E-02    0.335E-02
RMM:   7    -0.413164408128E+03    0.26220E-05   -0.37233E-04  5660   0.175E-02    0.190E-02
RMM:   8    -0.413164406239E+03    0.18889E-05   -0.36541E-05  4771   0.666E-03    0.779E-03
RMM:   9    -0.413164409698E+03   -0.34590E-05   -0.74167E-06  3185   0.288E-03    0.575E-03
RMM:  10    -0.413164415045E+03   -0.53472E-05   -0.19234E-06  2572   0.207E-03    0.329E-03
RMM:  11    -0.413164420112E+03   -0.50665E-05   -0.13043E-06  2521   0.168E-03    0.157E-03
RMM:  12    -0.413164425853E+03   -0.57414E-05   -0.11303E-06  2489   0.152E-03    0.604E-04
RMM:  13    -0.413164427763E+03   -0.19096E-05   -0.53619E-07  2175   0.107E-03    0.419E-04
RMM:  14    -0.413164428291E+03   -0.52790E-06   -0.31975E-07  1702   0.788E-04
    2 T=    61. E= -.41286661E+03 F= -.41316443E+03 E0= -.41314193E+03  EK= 0.29781E+00 SP= 0.00E+00 SK= 0.00E+00
       N       E                     dE             d eps       ncg     rms          rms(c)
RMM:   1    -0.413164848748E+03   -0.42099E-03   -0.88318E+00  4184   0.615E-01    0.905E-01
RMM:   2    -0.413168980730E+03   -0.41320E-02   -0.10763E-01  4038   0.876E-02    0.648E-01
RMM:   3    -0.413165554979E+03    0.34258E-02   -0.17152E-02  4912   0.502E-02    0.118E-01
RMM:   4    -0.413195174186E+03   -0.29619E-01   -0.31688E-02  5162   0.149E-01    0.719E-01
RMM:   5    -0.413164813234E+03    0.30361E-01   -0.14415E-02  4821   0.120E-01    0.510E-02
RMM:   6    -0.413165012802E+03   -0.19957E-03   -0.25994E-03  5751   0.501E-02    0.359E-02
RMM:   7    -0.413165000290E+03    0.12512E-04   -0.47042E-04  5654   0.201E-02    0.221E-02
RMM:   8    -0.413164991577E+03    0.87128E-05   -0.61860E-05  5217   0.881E-03    0.100E-02
RMM:   9    -0.413164989896E+03    0.16815E-05   -0.12406E-05  3824   0.389E-03    0.734E-03
RMM:  10    -0.413164990267E+03   -0.37175E-06   -0.21735E-06  2598   0.232E-03
    3 T=    61. E= -.41286691E+03 F= -.41316499E+03 E0= -.41314250E+03  EK= 0.29808E+00 SP= 0.00E+00 SK= 0.00E+00
       N       E                     dE             d eps       ncg     rms          rms(c)
RMM:   1    -0.413164309154E+03    0.68074E-03   -0.87688E+00  4224   0.618E-01    0.890E-01
RMM:   2    -0.413168502703E+03   -0.41935E-02   -0.10726E-01  4247   0.875E-02    0.642E-01
RMM:   3    -0.413171101794E+03   -0.25991E-02   -0.21276E-02  5168   0.859E-02    0.342E-01
RMM:   4    -0.413187223434E+03   -0.16122E-01   -0.37981E-02  5107   0.168E-01    0.619E-01
RMM:   5    -0.413164749743E+03    0.22474E-01   -0.83186E-03  4692   0.101E-01    0.599E-02
RMM:   6    -0.413164750652E+03   -0.90957E-06   -0.16726E-03  5413   0.416E-02    0.318E-02
RMM:   7    -0.413164772092E+03   -0.21440E-04   -0.34162E-04  5974   0.170E-02    0.192E-02
RMM:   8    -0.413164766792E+03    0.52996E-05   -0.61032E-05  5153   0.909E-03    0.785E-03
RMM:   9    -0.413164765122E+03    0.16700E-05   -0.77843E-06  3402   0.362E-03    0.397E-03
RMM:  10    -0.413164766274E+03   -0.11520E-05   -0.16010E-06  2537   0.213E-03    0.252E-03
RMM:  11    -0.413164768062E+03   -0.17880E-05   -0.13361E-06  2536   0.180E-03    0.147E-03
RMM:  12    -0.413164768981E+03   -0.91880E-06   -0.75855E-07  2486   0.140E-03
    4 T=    61. E= -.41286674E+03 F= -.41316477E+03 E0= -.41314228E+03  EK= 0.29803E+00 SP= 0.00E+00 SK= 0.00E+00
       N       E                     dE             d eps       ncg     rms          rms(c)
RMM:   1    -0.413164274751E+03    0.49331E-03   -0.88322E+00  4235   0.621E-01    0.884E-01
RMM:   2    -0.413169023962E+03   -0.47492E-02   -0.10877E-01  4065   0.867E-02    0.651E-01
RMM:   3    -0.413165621258E+03    0.34027E-02   -0.18167E-02  4959   0.511E-02    0.123E-01
RMM:   4    -0.413196581994E+03   -0.30961E-01   -0.33496E-02  5142   0.153E-01    0.737E-01
RMM:   5    -0.413164725992E+03    0.31856E-01   -0.14975E-02  4811   0.122E-01    0.504E-02
RMM:   6    -0.413164932992E+03   -0.20700E-03   -0.26520E-03  5741   0.506E-02    0.340E-02
RMM:   7    -0.413164933682E+03   -0.68937E-06   -0.45490E-04  5738   0.197E-02    0.216E-02
RMM:   8    -0.413164930068E+03    0.36140E-05   -0.64567E-05  5142   0.883E-03    0.997E-03
RMM:   9    -0.413164930726E+03   -0.65866E-06   -0.12469E-05  3841   0.398E-03    0.723E-03
RMM:  10    -0.413164934959E+03   -0.42328E-05   -0.20687E-06  2584   0.227E-03    0.441E-03
RMM:  11    -0.413164938494E+03   -0.35343E-05   -0.11974E-06  2531   0.173E-03    0.248E-03
RMM:  12    -0.413164944330E+03   -0.58361E-05   -0.19344E-06  2606   0.200E-03    0.111E-03
RMM:  13    -0.413164946420E+03   -0.20902E-05   -0.64208E-07  2412   0.133E-03    0.808E-04
RMM:  14    -0.413164946283E+03    0.13722E-06   -0.24934E-07  1918   0.866E-04
    5 T=    61. E= -.41286684E+03 F= -.41316495E+03 E0= -.41314247E+03  EK= 0.29811E+00 SP= 0.00E+00 SK= 0.00E+00
       N       E                     dE             d eps       ncg     rms          rms(c)
RMM:   1    -0.413165148569E+03   -0.20215E-03   -0.88430E+00  4244   0.626E-01    0.902E-01
RMM:   2    -0.413169186073E+03   -0.40375E-02   -0.10807E-01  4065   0.862E-02    0.650E-01
RMM:   3    -0.413165806371E+03    0.33797E-02   -0.17153E-02  4874   0.466E-02    0.102E-01
RMM:   4    -0.413189955779E+03   -0.24149E-01   -0.25223E-02  5141   0.133E-01    0.651E-01
RMM:   5    -0.413165263107E+03    0.24693E-01   -0.11788E-02  4814   0.108E-01    0.480E-02
RMM:   6    -0.413165437721E+03   -0.17461E-03   -0.22139E-03  5759   0.450E-02    0.336E-02
RMM:   7    -0.413165428404E+03    0.93175E-05   -0.40194E-04  5602   0.192E-02    0.211E-02
RMM:   8    -0.413165417645E+03    0.10759E-04   -0.54781E-05  4981   0.838E-03    0.996E-03
RMM:   9    -0.413165416172E+03    0.14726E-05   -0.10879E-05  3658   0.372E-03    0.751E-03
RMM:  10    -0.413165416539E+03   -0.36656E-06   -0.19539E-06  2558   0.231E-03
    6 T=    61. E= -.41286704E+03 F= -.41316542E+03 E0= -.41314295E+03  EK= 0.29837E+00 SP= 0.00E+00 SK= 0.00E+00
       N       E                     dE             d eps       ncg     rms          rms(c)
RMM:   1    -0.413164852237E+03    0.56393E-03   -0.87978E+00  4257   0.631E-01    0.897E-01
RMM:   2    -0.413168916516E+03   -0.40643E-02   -0.10751E-01  4273   0.861E-02    0.643E-01
RMM:   3    -0.413170787992E+03   -0.18715E-02   -0.20685E-02  5136   0.817E-02    0.323E-01
RMM:   4    -0.413189149089E+03   -0.18361E-01   -0.38659E-02  5097   0.168E-01    0.640E-01
RMM:   5    -0.413165130153E+03    0.24019E-01   -0.91187E-03  4694   0.104E-01    0.599E-02
RMM:   6    -0.413165151583E+03   -0.21430E-04   -0.18271E-03  5442   0.430E-02    0.323E-02
RMM:   7    -0.413165169443E+03   -0.17859E-04   -0.35410E-04  5962   0.171E-02    0.194E-02
RMM:   8    -0.413165163310E+03    0.61325E-05   -0.61126E-05  5136   0.905E-03    0.794E-03
RMM:   9    -0.413165160096E+03    0.32139E-05   -0.74955E-06  3335   0.354E-03    0.410E-03
RMM:  10    -0.413165160023E+03    0.72894E-07   -0.17624E-06  2555   0.215E-03
    7 T=    61. E= -.41286670E+03 F= -.41316516E+03 E0= -.41314271E+03  EK= 0.29846E+00 SP= 0.00E+00 SK= 0.00E+00
       N       E                     dE             d eps       ncg     rms          rms(c)
RMM:   1    -0.413165071126E+03    0.88970E-04   -0.88280E+00  4272   0.635E-01    0.883E-01
RMM:   2    -0.413170014251E+03   -0.49431E-02   -0.10846E-01  4149   0.875E-02    0.649E-01
RMM:   3    -0.413166547305E+03    0.34669E-02   -0.17953E-02  4947   0.533E-02    0.131E-01
RMM:   4    -0.413199380875E+03   -0.32834E-01   -0.35965E-02  5137   0.158E-01    0.758E-01
RMM:   5    -0.413165548618E+03    0.33832E-01   -0.15959E-02  4806   0.126E-01    0.516E-02
RMM:   6    -0.413165751341E+03   -0.20272E-03   -0.27632E-03  5740   0.519E-02    0.345E-02
RMM:   7    -0.413165752165E+03   -0.82450E-06   -0.47062E-04  5744   0.199E-02    0.218E-02
RMM:   8    -0.413165747113E+03    0.50521E-05   -0.65627E-05  5176   0.892E-03    0.991E-03
RMM:   9    -0.413165746999E+03    0.11425E-06   -0.12794E-05  3863   0.400E-03    0.705E-03
RMM:  10    -0.413165749841E+03   -0.28420E-05   -0.20578E-06  2574   0.226E-03    0.430E-03
RMM:  11    -0.413165752235E+03   -0.23943E-05   -0.11568E-06  2520   0.171E-03    0.240E-03
RMM:  12    -0.413165756045E+03   -0.38096E-05   -0.18630E-06  2595   0.196E-03    0.106E-03
RMM:  13    -0.413165757423E+03   -0.13784E-05   -0.67406E-07  2416   0.134E-03    0.839E-04
RMM:  14    -0.413165757179E+03    0.24359E-06   -0.24875E-07  1914   0.864E-04
    8 T=    61. E= -.41286691E+03 F= -.41316576E+03 E0= -.41314333E+03  EK= 0.29884E+00 SP= 0.00E+00 SK= 0.00E+00
       N       E                     dE             d eps       ncg     rms          rms(c)
RMM:   1    -0.413165554026E+03    0.20340E-03   -0.88691E+00  4280   0.641E-01    0.898E-01
RMM:   2    -0.413170093718E+03   -0.45397E-02   -0.10837E-01  4180   0.885E-02    0.652E-01
RMM:   3    -0.413166355052E+03    0.37387E-02   -0.17425E-02  4854   0.498E-02    0.104E-01
RMM:   4    -0.413191874341E+03   -0.25519E-01   -0.26802E-02  5137   0.136E-01    0.669E-01
RMM:   5    -0.413165747703E+03    0.26127E-01   -0.12510E-02  4807   0.111E-01    0.481E-02
RMM:   6    -0.413165926861E+03   -0.17916E-03   -0.23203E-03  5768   0.460E-02    0.330E-02
RMM:   7    -0.413165924399E+03    0.24618E-05   -0.40169E-04  5630   0.191E-02    0.211E-02
RMM:   8    -0.413165914602E+03    0.97970E-05   -0.58863E-05  4981   0.854E-03    0.101E-02
RMM:   9    -0.413165913079E+03    0.15225E-05   -0.11626E-05  3782   0.386E-03    0.763E-03
RMM:  10    -0.413165913636E+03   -0.55708E-06   -0.19677E-06  2562   0.230E-03
    9 T=    61. E= -.41286679E+03 F= -.41316591E+03 E0= -.41314351E+03  EK= 0.29912E+00 SP= 0.00E+00 SK= 0.00E+00
       N       E                     dE             d eps       ncg     rms          rms(c)
RMM:   1    -0.413165820903E+03    0.92177E-04   -0.88456E+00  4294   0.650E-01    0.903E-01
RMM:   2    -0.413169932812E+03   -0.41119E-02   -0.10781E-01  4307   0.902E-02    0.645E-01
RMM:   3    -0.413172302312E+03   -0.23695E-02   -0.21203E-02  5129   0.860E-02    0.342E-01
RMM:   4    -0.413188238612E+03   -0.15936E-01   -0.37767E-02  5080   0.166E-01    0.616E-01
RMM:   5    -0.413165982622E+03    0.22256E-01   -0.82749E-03  4678   0.100E-01    0.593E-02
RMM:   6    -0.413165991820E+03   -0.91986E-05   -0.16894E-03  5415   0.411E-02    0.325E-02
RMM:   7    -0.413166001604E+03   -0.97832E-05   -0.33346E-04  5931   0.169E-02    0.191E-02
RMM:   8    -0.413165993627E+03    0.79761E-05   -0.59121E-05  5121   0.891E-03    0.777E-03
RMM:   9    -0.413165989258E+03    0.43690E-05   -0.73082E-06  3304   0.349E-03    0.400E-03
RMM:  10    -0.413165988136E+03    0.11223E-05   -0.16380E-06  2539   0.212E-03    0.252E-03
RMM:  11    -0.413165986278E+03    0.18583E-05   -0.12400E-06  2519   0.175E-03    0.142E-03
RMM:  12    -0.413165984474E+03    0.18040E-05   -0.73416E-07  2467   0.138E-03    0.591E-04
RMM:  13    -0.413165983323E+03    0.11505E-05   -0.37772E-07  2106   0.100E-03    0.325E-04
RMM:  14    -0.413165982182E+03    0.11413E-05   -0.23001E-07  1611   0.794E-04    0.216E-04
RMM:  15    -0.413165980320E+03    0.18620E-05   -0.23392E-07  1533   0.763E-04    0.161E-04
RMM:  16    -0.413165978458E+03    0.18618E-05   -0.18891E-07  1393   0.705E-04    0.145E-04
RMM:  17    -0.413165976616E+03    0.18425E-05   -0.15674E-07  1332   0.665E-04    0.767E-05
RMM:  18    -0.413165975521E+03    0.10947E-05   -0.80262E-08  1021   0.583E-04    0.414E-05
RMM:  19    -0.413165974880E+03    0.64103E-06   -0.44561E-08   852   0.543E-04
   10 T=    61. E= -.41286662E+03 F= -.41316597E+03 E0= -.41314359E+03  EK= 0.29935E+00 SP= 0.00E+00 SK= 0.00E+00
       N       E                     dE             d eps       ncg     rms          rms(c)
RMM:   1    -0.413166003092E+03   -0.27571E-04   -0.88311E+00  4291   0.647E-01    0.883E-01
RMM:   2    -0.413170735367E+03   -0.47323E-02   -0.10853E-01  4237   0.879E-02    0.647E-01
RMM:   3    -0.413167535494E+03    0.31999E-02   -0.17552E-02  4935   0.526E-02    0.130E-01
RMM:   4    -0.413200433478E+03   -0.32898E-01   -0.36012E-02  5127   0.158E-01    0.758E-01
RMM:   5    -0.413166556039E+03    0.33877E-01   -0.16080E-02  4795   0.126E-01    0.516E-02
RMM:   6    -0.413166766842E+03   -0.21080E-03   -0.27726E-03  5725   0.516E-02    0.348E-02
RMM:   7    -0.413166764367E+03    0.24758E-05   -0.46742E-04  5661   0.199E-02    0.219E-02
RMM:   8    -0.413166757212E+03    0.71543E-05   -0.66445E-05  5167   0.903E-03    0.996E-03
RMM:   9    -0.413166755691E+03    0.15209E-05   -0.13170E-05  3895   0.407E-03    0.711E-03
RMM:  10    -0.413166757303E+03   -0.16114E-05   -0.20275E-06  2573   0.226E-03    0.435E-03
RMM:  11    -0.413166758620E+03   -0.13173E-05   -0.10755E-06  2506   0.167E-03    0.249E-03
RMM:  12    -0.413166760795E+03   -0.21749E-05   -0.16555E-06  2557   0.193E-03    0.108E-03
RMM:  13    -0.413166761506E+03   -0.71102E-06   -0.62224E-07  2387   0.133E-03
   11 T=    61. E= -.41286700E+03 F= -.41316676E+03 E0= -.41314440E+03  EK= 0.29976E+00 SP= 0.00E+00 SK= 0.00E+00
       N       E                     dE             d eps       ncg     rms          rms(c)
RMM:   1    -0.413166156562E+03    0.60423E-03   -0.88989E+00  4294   0.653E-01    0.894E-01
RMM:   2    -0.413170721341E+03   -0.45648E-02   -0.10920E-01  4241   0.874E-02    0.653E-01
RMM:   3    -0.413167232352E+03    0.34890E-02   -0.17677E-02  4844   0.506E-02    0.109E-01
RMM:   4    -0.413194523332E+03   -0.27291E-01   -0.28938E-02  5128   0.142E-01    0.692E-01
RMM:   5    -0.413166546436E+03    0.27977E-01   -0.13413E-02  4804   0.114E-01    0.484E-02
RMM:   6    -0.413166734695E+03   -0.18826E-03   -0.24016E-03  5772   0.473E-02    0.325E-02
RMM:   7    -0.413166732971E+03    0.17237E-05   -0.39885E-04  5666   0.191E-02    0.209E-02
RMM:   8    -0.413166723619E+03    0.93526E-05   -0.63171E-05  5000   0.875E-03    0.102E-02
RMM:   9    -0.413166721656E+03    0.19622E-05   -0.12457E-05  3883   0.401E-03    0.760E-03
RMM:  10    -0.413166722467E+03   -0.81040E-06   -0.19556E-06  2559   0.229E-03
   12 T=    61. E= -.41286677E+03 F= -.41316672E+03 E0= -.41314439E+03  EK= 0.29995E+00 SP= 0.00E+00 SK= 0.00E+00
       N       E                     dE             d eps       ncg     rms          rms(c)
RMM:   1    -0.413167205240E+03   -0.48358E-03   -0.88904E+00  4308   0.663E-01    0.908E-01
RMM:   2    -0.413170856306E+03   -0.36511E-02   -0.10851E-01  4319   0.890E-02    0.648E-01
RMM:   3    -0.413174071072E+03   -0.32148E-02   -0.21613E-02  5126   0.872E-02    0.354E-01
RMM:   4    -0.413188770473E+03   -0.14699E-01   -0.37783E-02  5076   0.166E-01    0.605E-01
RMM:   5    -0.413167310215E+03    0.21460E-01   -0.78554E-03  4658   0.983E-02    0.591E-02
RMM:   6    -0.413167314308E+03   -0.40938E-05   -0.16307E-03  5398   0.402E-02    0.325E-02
RMM:   7    -0.413167322748E+03   -0.84397E-05   -0.32348E-04  5920   0.167E-02    0.190E-02
RMM:   8    -0.413167314905E+03    0.78427E-05   -0.57833E-05  5124   0.888E-03    0.771E-03
RMM:   9    -0.413167309908E+03    0.49977E-05   -0.71472E-06  3279   0.349E-03    0.396E-03
RMM:  10    -0.413167308234E+03    0.16740E-05   -0.15664E-06  2524   0.210E-03    0.249E-03
RMM:  11    -0.413167305348E+03    0.28859E-05   -0.12139E-06  2506   0.175E-03    0.142E-03
RMM:  12    -0.413167302919E+03    0.24290E-05   -0.67970E-07  2453   0.136E-03    0.586E-04
RMM:  13    -0.413167301233E+03    0.16857E-05   -0.36012E-07  2093   0.992E-04    0.335E-04
RMM:  14    -0.413167299663E+03    0.15705E-05   -0.21490E-07  1607   0.787E-04    0.224E-04
RMM:  15    -0.413167296913E+03    0.27494E-05   -0.22284E-07  1539   0.764E-04    0.168E-04
RMM:  16    -0.413167294507E+03    0.24064E-05   -0.16743E-07  1390   0.692E-04    0.144E-04
RMM:  17    -0.413167292193E+03    0.23140E-05   -0.13595E-07  1310   0.654E-04    0.776E-05
RMM:  18    -0.413167291023E+03    0.11697E-05   -0.69223E-08   962   0.568E-04    0.447E-05
RMM:  19    -0.413167290152E+03    0.87095E-06   -0.41719E-08   841   0.543E-04
   13 T=    61. E= -.41286684E+03 F= -.41316729E+03 E0= -.41314499E+03  EK= 0.30045E+00 SP= 0.00E+00 SK= 0.00E+00
       N       E                     dE             d eps       ncg     rms          rms(c)
RMM:   1    -0.413167308734E+03   -0.17711E-04   -0.88476E+00  4295   0.663E-01    0.886E-01
RMM:   2    -0.413171795978E+03   -0.44872E-02   -0.10869E-01  4243   0.865E-02    0.645E-01
RMM:   3    -0.413168753899E+03    0.30421E-02   -0.17247E-02  4957   0.511E-02    0.133E-01
RMM:   4    -0.413202449582E+03   -0.33696E-01   -0.37190E-02  5128   0.160E-01    0.767E-01
RMM:   5    -0.413167754313E+03    0.34695E-01   -0.16477E-02  4792   0.127E-01    0.522E-02
RMM:   6    -0.413167961479E+03   -0.20717E-03   -0.28478E-03  5729   0.524E-02    0.352E-02
RMM:   7    -0.413167956777E+03    0.47025E-05   -0.47940E-04  5661   0.202E-02    0.223E-02
RMM:   8    -0.413167948240E+03    0.85364E-05   -0.69129E-05  5186   0.916E-03    0.103E-02
RMM:   9    -0.413167945406E+03    0.28342E-05   -0.13442E-05  3952   0.413E-03    0.728E-03
RMM:  10    -0.413167945434E+03   -0.28303E-07   -0.20830E-06  2571   0.228E-03
   14 T=    61. E= -.41286691E+03 F= -.41316795E+03 E0= -.41314568E+03  EK= 0.30103E+00 SP= 0.00E+00 SK= 0.00E+00
       N       E                     dE             d eps       ncg     rms          rms(c)
RMM:   1    -0.413167400491E+03    0.54492E-03   -0.89406E+00  4303   0.665E-01    0.892E-01
RMM:   2    -0.413172268078E+03   -0.48676E-02   -0.10984E-01  4325   0.887E-02    0.655E-01
RMM:   3    -0.413175458000E+03   -0.31899E-02   -0.23066E-02  5131   0.908E-02    0.368E-01
RMM:   4    -0.413190623669E+03   -0.15166E-01   -0.40379E-02  5072   0.172E-01    0.620E-01
RMM:   5    -0.413167983473E+03    0.22640E-01   -0.82694E-03  4653   0.101E-01    0.582E-02
RMM:   6    -0.413167992478E+03   -0.90051E-05   -0.16751E-03  5398   0.405E-02    0.310E-02
RMM:   7    -0.413168009814E+03   -0.17336E-04   -0.32274E-04  5934   0.166E-02    0.186E-02
RMM:   8    -0.413168006603E+03    0.32116E-05   -0.59404E-05  5122   0.887E-03    0.756E-03
RMM:   9    -0.413168004727E+03    0.18754E-05   -0.70922E-06  3258   0.352E-03    0.385E-03
RMM:  10    -0.413168005820E+03   -0.10931E-05   -0.15216E-06  2520   0.206E-03    0.243E-03
RMM:  11    -0.413168007315E+03   -0.14945E-05   -0.12351E-06  2513   0.174E-03    0.141E-03
RMM:  12    -0.413168007789E+03   -0.47356E-06   -0.66685E-07  2450   0.134E-03
   15 T=    61. E= -.41286658E+03 F= -.41316801E+03 E0= -.41314577E+03  EK= 0.30143E+00 SP= 0.00E+00 SK= 0.00E+00
       N       E                     dE             d eps       ncg     rms          rms(c)
RMM:   1    -0.413168835370E+03   -0.82805E-03   -0.89445E+00  4298   0.672E-01    0.910E-01
RMM:   2    -0.413172996610E+03   -0.41612E-02   -0.10915E-01  4268   0.898E-02    0.651E-01
RMM:   3    -0.413169866157E+03    0.31305E-02   -0.17065E-02  4938   0.533E-02    0.137E-01
RMM:   4    -0.413204474428E+03   -0.34608E-01   -0.38106E-02  5125   0.162E-01    0.777E-01
RMM:   5    -0.413168851232E+03    0.35623E-01   -0.16938E-02  4789   0.129E-01    0.529E-02
RMM:   6    -0.413169061787E+03   -0.21056E-03   -0.29742E-03  5747   0.533E-02    0.364E-02
RMM:   7    -0.413169052269E+03    0.95177E-05   -0.49533E-04  5695   0.208E-02    0.231E-02
RMM:   8    -0.413169039656E+03    0.12613E-04   -0.72932E-05  5188   0.943E-03    0.109E-02
RMM:   9    -0.413169033670E+03    0.59862E-05   -0.13888E-05  3997   0.423E-03    0.772E-03
RMM:  10    -0.413169029845E+03    0.38253E-05   -0.22354E-06  2589   0.236E-03    0.469E-03
RMM:  11    -0.413169027295E+03    0.25496E-05   -0.11449E-06  2506   0.174E-03    0.274E-03
RMM:  12    -0.413169022197E+03    0.50980E-05   -0.19319E-06  2592   0.208E-03    0.119E-03
RMM:  13    -0.413169019255E+03    0.29417E-05   -0.69355E-07  2415   0.142E-03    0.946E-04
RMM:  14    -0.413169019332E+03   -0.76583E-07   -0.27081E-07  2005   0.916E-04
   16 T=    62. E= -.41286687E+03 F= -.41316902E+03 E0= -.41314682E+03  EK= 0.30215E+00 SP= 0.00E+00 SK= 0.00E+00
       N       E                     dE             d eps       ncg     rms          rms(c)
RMM:   1    -0.413173398498E+03   -0.43792E-02   -0.89372E+00  4295   0.713E-01    0.892E-01
RMM:   2    -0.413173518194E+03   -0.11970E-03   -0.10874E-01  4265   0.913E-02    0.645E-01
RMM:   3    -0.413170075933E+03    0.34423E-02   -0.16918E-02  4872   0.519E-02    0.118E-01
RMM:   4    -0.413200036134E+03   -0.29960E-01   -0.32126E-02  5121   0.149E-01    0.723E-01
RMM:   5    -0.413169310883E+03    0.30725E-01   -0.14776E-02  4795   0.120E-01    0.500E-02
RMM:   6    -0.413169503671E+03   -0.19279E-03   -0.26152E-03  5783   0.492E-02    0.342E-02
RMM:   7    -0.413169495681E+03    0.79899E-05   -0.42715E-04  5638   0.198E-02    0.216E-02
RMM:   8    -0.413169481496E+03    0.14184E-04   -0.66884E-05  5059   0.913E-03    0.105E-02
RMM:   9    -0.413169476746E+03    0.47503E-05   -0.13281E-05  3945   0.414E-03    0.772E-03
RMM:  10    -0.413169474320E+03    0.24264E-05   -0.20691E-06  2572   0.233E-03    0.467E-03
RMM:  11    -0.413169472446E+03    0.18738E-05   -0.12608E-06  2511   0.181E-03    0.256E-03
RMM:  12    -0.413169469250E+03    0.31957E-05   -0.17439E-06  2565   0.202E-03    0.110E-03
RMM:  13    -0.413169467579E+03    0.16712E-05   -0.56132E-07  2369   0.132E-03    0.770E-04
RMM:  14    -0.413169467483E+03    0.95912E-07   -0.24472E-07  1930   0.866E-04
   17 T=    62. E= -.41286679E+03 F= -.41316947E+03 E0= -.41314731E+03  EK= 0.30268E+00 SP= 0.00E+00 SK= 0.00E+00
       N       E                     dE             d eps       ncg     rms          rms(c)
RMM:   1    -0.413169229374E+03    0.23821E-03   -0.89816E+00  4295   0.678E-01    0.891E-01
RMM:   2    -0.413174110859E+03   -0.48815E-02   -0.11081E-01  4268   0.911E-02    0.656E-01
RMM:   3    -0.413170652763E+03    0.34581E-02   -0.17942E-02  4890   0.526E-02    0.120E-01
RMM:   4    -0.413201556824E+03   -0.30904E-01   -0.33392E-02  5118   0.152E-01    0.735E-01
RMM:   5    -0.413169810893E+03    0.31746E-01   -0.15293E-02  4790   0.122E-01    0.499E-02
RMM:   6    -0.413170006706E+03   -0.19581E-03   -0.26132E-03  5767   0.497E-02    0.337E-02
RMM:   7    -0.413170003779E+03    0.29263E-05   -0.43519E-04  5630   0.197E-02    0.214E-02
RMM:   8    -0.413169994820E+03    0.89591E-05   -0.66032E-05  5091   0.907E-03    0.101E-02
RMM:   9    -0.413169992176E+03    0.26443E-05   -0.13177E-05  3912   0.412E-03    0.732E-03
RMM:  10    -0.413169992510E+03   -0.33424E-06   -0.20010E-06  2566   0.226E-03
   18 T=    62. E= -.41286675E+03 F= -.41316999E+03 E0= -.41314787E+03  EK= 0.30324E+00 SP= 0.00E+00 SK= 0.00E+00
       N       E                     dE             d eps       ncg     rms          rms(c)
RMM:   1    -0.413176308212E+03   -0.63160E-02   -0.90537E+00  4302   0.728E-01    0.910E-01
RMM:   2    -0.413174937038E+03    0.13712E-02   -0.11025E-01  4327   0.913E-02    0.654E-01
RMM:   3    -0.413177551729E+03   -0.26147E-02   -0.21479E-02  5123   0.860E-02    0.342E-01
RMM:   4    -0.413194588496E+03   -0.17037E-01   -0.39468E-02  5074   0.169E-01    0.631E-01
RMM:   5    -0.413171174350E+03    0.23414E-01   -0.87808E-03  4670   0.102E-01    0.586E-02
RMM:   6    -0.413171203914E+03   -0.29564E-04   -0.17936E-03  5435   0.417E-02    0.325E-02
RMM:   7    -0.413171208631E+03   -0.47164E-05   -0.33639E-04  5913   0.169E-02    0.193E-02
RMM:   8    -0.413171198646E+03    0.99845E-05   -0.60124E-05  5121   0.899E-03    0.788E-03
RMM:   9    -0.413171192679E+03    0.59675E-05   -0.73866E-06  3296   0.356E-03    0.406E-03
RMM:  10    -0.413171190337E+03    0.23414E-05   -0.16912E-06  2539   0.212E-03    0.258E-03
RMM:  11    -0.413171186752E+03    0.35858E-05   -0.11475E-06  2499   0.173E-03    0.142E-03
RMM:  12    -0.413171183374E+03    0.33777E-05   -0.67337E-07  2451   0.136E-03    0.559E-04
RMM:  13    -0.413171181304E+03    0.20697E-05   -0.34316E-07  2090   0.987E-04    0.330E-04
RMM:  14    -0.413171179448E+03    0.18560E-05   -0.19501E-07  1600   0.777E-04    0.223E-04
RMM:  15    -0.413171175968E+03    0.34798E-05   -0.18218E-07  1474   0.741E-04    0.164E-04
RMM:  16    -0.413171173133E+03    0.28356E-05   -0.12821E-07  1297   0.670E-04    0.143E-04
RMM:  17    -0.413171170171E+03    0.29620E-05   -0.11213E-07  1277   0.651E-04    0.749E-05
RMM:  18    -0.413171168356E+03    0.18147E-05   -0.62736E-08   982   0.579E-04    0.380E-05
RMM:  19    -0.413171167321E+03    0.10349E-05   -0.38016E-08   870   0.550E-04    0.343E-05
RMM:  20    -0.413171167019E+03    0.30173E-06   -0.17462E-08   719   0.526E-04
   19 T=    62. E= -.41286708E+03 F= -.41317117E+03 E0= -.41314909E+03  EK= 0.30409E+00 SP= 0.00E+00 SK= 0.00E+00
       N       E                     dE             d eps       ncg     rms          rms(c)
RMM:   1    -0.413171033754E+03    0.13357E-03   -0.89565E+00  4295   0.689E-01    0.899E-01
RMM:   2    -0.413175188135E+03   -0.41544E-02   -0.11003E-01  4275   0.884E-02    0.648E-01
RMM:   3    -0.413172475594E+03    0.27125E-02   -0.16849E-02  4972   0.518E-02    0.140E-01
RMM:   4    -0.413207792958E+03   -0.35317E-01   -0.39365E-02  5124   0.165E-01    0.785E-01
RMM:   5    -0.413171411259E+03    0.36382E-01   -0.17395E-02  4785   0.130E-01    0.533E-02
RMM:   6    -0.413171613151E+03   -0.20189E-03   -0.29672E-03  5742   0.534E-02    0.363E-02
RMM:   7    -0.413171602359E+03    0.10792E-04   -0.49518E-04  5650   0.207E-02    0.229E-02
RMM:   8    -0.413171590530E+03    0.11828E-04   -0.74535E-05  5218   0.951E-03    0.107E-02
RMM:   9    -0.413171584391E+03    0.61395E-05   -0.14321E-05  4059   0.429E-03    0.744E-03
RMM:  10    -0.413171580959E+03    0.34320E-05   -0.21718E-06  2576   0.233E-03    0.457E-03
RMM:  11    -0.413171578814E+03    0.21453E-05   -0.10870E-06  2503   0.168E-03    0.268E-03
RMM:  12    -0.413171574505E+03    0.43085E-05   -0.16894E-06  2550   0.201E-03    0.116E-03
RMM:  13    -0.413171572002E+03    0.25028E-05   -0.67899E-07  2399   0.140E-03    0.928E-04
RMM:  14    -0.413171571987E+03    0.15385E-07   -0.27180E-07  2008   0.919E-04
   20 T=    62. E= -.41286679E+03 F= -.41317157E+03 E0= -.41314954E+03  EK= 0.30478E+00 SP= 0.00E+00 SK= 0.00E+00
       N       E                     dE             d eps       ncg     rms          rms(c)
RMM:   1    -0.413171839055E+03   -0.26705E-03   -0.90274E+00  4292   0.691E-01    0.891E-01
RMM:   2    -0.413176779860E+03   -0.49408E-02   -0.11166E-01  4276   0.893E-02    0.656E-01
RMM:   3    -0.413173154124E+03    0.36257E-02   -0.17676E-02  4888   0.489E-02    0.108E-01
RMM:   4    -0.413200496498E+03   -0.27342E-01   -0.29127E-02  5127   0.142E-01    0.692E-01
RMM:   5    -0.413172486018E+03    0.28010E-01   -0.13566E-02  4788   0.115E-01    0.483E-02
RMM:   6    -0.413172657818E+03   -0.17180E-03   -0.24094E-03  5813   0.469E-02    0.315E-02
RMM:   7    -0.413172661121E+03   -0.33028E-05   -0.36440E-04  5641   0.186E-02    0.197E-02
RMM:   8    -0.413172652827E+03    0.82942E-05   -0.68732E-05  5015   0.889E-03    0.104E-02
RMM:   9    -0.413172649071E+03    0.37561E-05   -0.13042E-05  3997   0.416E-03    0.774E-03
RMM:  10    -0.413172648546E+03    0.52426E-06   -0.18990E-06  2555   0.226E-03
   21 T=    62. E= -.41286689E+03 F= -.41317265E+03 E0= -.41315066E+03  EK= 0.30576E+00 SP= 0.00E+00 SK= 0.00E+00
       N       E                     dE             d eps       ncg     rms          rms(c)
RMM:   1    -0.413173399911E+03   -0.75084E-03   -0.90729E+00  4297   0.705E-01    0.908E-01
RMM:   2    -0.413177848998E+03   -0.44491E-02   -0.11183E-01  4330   0.906E-02    0.658E-01
RMM:   3    -0.413179686851E+03   -0.18379E-02   -0.21164E-02  5116   0.839E-02    0.331E-01
RMM:   4    -0.413199464635E+03   -0.19778E-01   -0.41565E-02  5086   0.173E-01    0.661E-01
RMM:   5    -0.413173724223E+03    0.25740E-01   -0.98841E-03  4681   0.107E-01    0.582E-02
RMM:   6    -0.413173771708E+03   -0.47486E-04   -0.19911E-03  5496   0.437E-02    0.325E-02
RMM:   7    -0.413173778152E+03   -0.64437E-05   -0.35426E-04  5884   0.174E-02    0.196E-02
RMM:   8    -0.413173770953E+03    0.71990E-05   -0.62709E-05  5116   0.907E-03    0.808E-03
RMM:   9    -0.413173765150E+03    0.58027E-05   -0.83334E-06  3364   0.362E-03    0.424E-03
RMM:  10    -0.413173762881E+03    0.22688E-05   -0.18192E-06  2556   0.214E-03    0.273E-03
RMM:  11    -0.413173759632E+03    0.32490E-05   -0.10717E-06  2487   0.170E-03    0.145E-03
RMM:  12    -0.413173756063E+03    0.35692E-05   -0.69603E-07  2448   0.137E-03    0.527E-04
RMM:  13    -0.413173754081E+03    0.19826E-05   -0.34587E-07  2110   0.992E-04    0.323E-04
RMM:  14    -0.413173752442E+03    0.16386E-05   -0.19228E-07  1617   0.774E-04    0.224E-04
RMM:  15    -0.413173749229E+03    0.32135E-05   -0.15705E-07  1370   0.719E-04    0.143E-04
RMM:  16    -0.413173746379E+03    0.28496E-05   -0.11888E-07  1281   0.670E-04    0.154E-04
RMM:  17    -0.413173743739E+03    0.26396E-05   -0.88850E-08  1158   0.632E-04    0.790E-05
RMM:  18    -0.413173741208E+03    0.25319E-05   -0.70196E-08  1077   0.606E-04    0.323E-05
RMM:  19    -0.413173740201E+03    0.10067E-05   -0.34640E-08   860   0.558E-04    0.277E-05
RMM:  20    -0.413173739739E+03    0.46133E-06   -0.17516E-08   745   0.540E-04
   22 T=    62. E= -.41286696E+03 F= -.41317374E+03 E0= -.41315180E+03  EK= 0.30678E+00 SP= 0.00E+00 SK= 0.00E+00
       N       E                     dE             d eps       ncg     rms          rms(c)
RMM:   1    -0.413174088599E+03   -0.34840E-03   -0.90554E+00  4294   0.708E-01    0.909E-01
RMM:   2    -0.413178412597E+03   -0.43240E-02   -0.11113E-01  4288   0.917E-02    0.651E-01
RMM:   3    -0.413175167001E+03    0.32456E-02   -0.16745E-02  4910   0.530E-02    0.131E-01
RMM:   4    -0.413208993150E+03   -0.33826E-01   -0.36824E-02  5121   0.160E-01    0.767E-01
RMM:   5    -0.413174273563E+03    0.34720E-01   -0.16718E-02  4785   0.128E-01    0.524E-02
RMM:   6    -0.413174467956E+03   -0.19439E-03   -0.29292E-03  5764   0.525E-02    0.360E-02
RMM:   7    -0.413174458018E+03    0.99386E-05   -0.47646E-04  5647   0.208E-02    0.227E-02
RMM:   8    -0.413174445008E+03    0.13010E-04   -0.75783E-05  5158   0.959E-03    0.111E-02
RMM:   9    -0.413174438238E+03    0.67702E-05   -0.14456E-05  4079   0.435E-03    0.792E-03
RMM:  10    -0.413174433651E+03    0.45863E-05   -0.22020E-06  2583   0.237E-03    0.485E-03
RMM:  11    -0.413174430383E+03    0.32684E-05   -0.12264E-06  2511   0.179E-03    0.277E-03
RMM:  12    -0.413174424422E+03    0.59607E-05   -0.18582E-06  2569   0.210E-03    0.117E-03
RMM:  13    -0.413174421157E+03    0.32652E-05   -0.64028E-07  2395   0.140E-03    0.914E-04
RMM:  14    -0.413174421334E+03   -0.17716E-06   -0.27219E-07  2012   0.911E-04
   23 T=    63. E= -.41286671E+03 F= -.41317442E+03 E0= -.41315253E+03  EK= 0.30771E+00 SP= 0.00E+00 SK= 0.00E+00
       N       E                     dE             d eps       ncg     rms          rms(c)
RMM:   1    -0.413175181229E+03   -0.76007E-03   -0.90875E+00  4293   0.712E-01    0.893E-01
RMM:   2    -0.413180479470E+03   -0.52982E-02   -0.11249E-01  4286   0.930E-02    0.656E-01
RMM:   3    -0.413176389540E+03    0.40899E-02   -0.17244E-02  4781   0.505E-02    0.954E-02
RMM:   4    -0.413198572200E+03   -0.22183E-01   -0.23006E-02  5130   0.126E-01    0.624E-01
RMM:   5    -0.413175924199E+03    0.22648E-01   -0.11155E-02  4805   0.103E-01    0.460E-02
RMM:   6    -0.413176047181E+03   -0.12298E-03   -0.19267E-03  5825   0.416E-02    0.285E-02
RMM:   7    -0.413176045394E+03    0.17868E-05   -0.23800E-04  5616   0.157E-02    0.147E-02
RMM:   8    -0.413176041375E+03    0.40197E-05   -0.48267E-05  4948   0.725E-03    0.978E-03
RMM:   9    -0.413176037177E+03    0.41980E-05   -0.10215E-05  3756   0.367E-03    0.728E-03
RMM:  10    -0.413176035749E+03    0.14271E-05   -0.16946E-06  2543   0.221E-03    0.437E-03
RMM:  11    -0.413176034171E+03    0.15781E-05   -0.16268E-06  2542   0.200E-03    0.222E-03
RMM:  12    -0.413176031867E+03    0.23044E-05   -0.12739E-06  2492   0.179E-03    0.935E-04
RMM:  13    -0.413176031009E+03    0.85770E-06   -0.43066E-07  2253   0.116E-03
   24 T=    63. E= -.41286705E+03 F= -.41317603E+03 E0= -.41315418E+03  EK= 0.30898E+00 SP= 0.00E+00 SK= 0.00E+00
       N       E                     dE             d eps       ncg     rms          rms(c)
RMM:   1    -0.413176595019E+03   -0.56315E-03   -0.91672E+00  4298   0.721E-01    0.907E-01
RMM:   2    -0.413181326545E+03   -0.47315E-02   -0.11343E-01  4288   0.949E-02    0.662E-01
RMM:   3    -0.413177402343E+03    0.39242E-02   -0.17229E-02  4781   0.513E-02    0.979E-02
RMM:   4    -0.413200575195E+03   -0.23173E-01   -0.23995E-02  5127   0.129E-01    0.637E-01
RMM:   5    -0.413176921314E+03    0.23654E-01   -0.11587E-02  4803   0.105E-01    0.467E-02
RMM:   6    -0.413177052555E+03   -0.13124E-03   -0.20239E-03  5820   0.426E-02    0.297E-02
RMM:   7    -0.413177050440E+03    0.21153E-05   -0.28262E-04  5673   0.168E-02    0.172E-02
RMM:   8    -0.413177042203E+03    0.82368E-05   -0.58406E-05  4975   0.816E-03    0.101E-02
RMM:   9    -0.413177037124E+03    0.50791E-05   -0.11346E-05  3876   0.395E-03    0.751E-03
RMM:  10    -0.413177034483E+03    0.26412E-05   -0.17495E-06  2547   0.224E-03    0.447E-03
RMM:  11    -0.413177031829E+03    0.26541E-05   -0.14919E-06  2520   0.196E-03    0.231E-03
RMM:  12    -0.413177028175E+03    0.36544E-05   -0.13396E-06  2505   0.182E-03    0.939E-04
RMM:  13    -0.413177026616E+03    0.15589E-05   -0.45834E-07  2272   0.119E-03    0.601E-04
RMM:  14    -0.413177026109E+03    0.50654E-06   -0.21682E-07  1785   0.822E-04
   25 T=    63. E= -.41286685E+03 F= -.41317703E+03 E0= -.41315523E+03  EK= 0.31017E+00 SP= 0.00E+00 SK= 0.00E+00
       N       E                     dE             d eps       ncg     rms          rms(c)
RMM:   1    -0.413178375954E+03   -0.13493E-02   -0.91796E+00  4293   0.725E-01    0.918E-01
RMM:   2    -0.413182196550E+03   -0.38206E-02   -0.11331E-01  4287   0.968E-02    0.656E-01
RMM:   3    -0.413178836812E+03    0.33597E-02   -0.16611E-02  4822   0.525E-02    0.115E-01
RMM:   4    -0.413207756939E+03   -0.28920E-01   -0.30439E-02  5129   0.145E-01    0.710E-01
RMM:   5    -0.413178211323E+03    0.29546E-01   -0.14475E-02  4795   0.118E-01    0.504E-02
RMM:   6    -0.413178378097E+03   -0.16677E-03   -0.25489E-03  5812   0.484E-02    0.350E-02
RMM:   7    -0.413178363142E+03    0.14956E-04   -0.42420E-04  5608   0.200E-02    0.216E-02
RMM:   8    -0.413178348333E+03    0.14809E-04   -0.68149E-05  5091   0.927E-03    0.108E-02
RMM:   9    -0.413178341384E+03    0.69485E-05   -0.13221E-05  3954   0.418E-03    0.783E-03
RMM:  10    -0.413178335713E+03    0.56707E-05   -0.20823E-06  2568   0.236E-03    0.471E-03
RMM:  11    -0.413178331220E+03    0.44931E-05   -0.12403E-06  2512   0.181E-03    0.263E-03
RMM:  12    -0.413178323556E+03    0.76646E-05   -0.17040E-06  2551   0.203E-03    0.112E-03
RMM:  13    -0.413178319024E+03    0.45317E-05   -0.58358E-07  2373   0.135E-03    0.853E-04
RMM:  14    -0.413178319330E+03   -0.30566E-06   -0.25847E-07  1951   0.886E-04
   26 T=    63. E= -.41286676E+03 F= -.41317832E+03 E0= -.41315657E+03  EK= 0.31156E+00 SP= 0.00E+00 SK= 0.00E+00
       N       E                     dE             d eps       ncg     rms          rms(c)
RMM:   1    -0.413179565241E+03   -0.12462E-02   -0.91748E+00  4295   0.738E-01    0.898E-01
RMM:   2    -0.413184169558E+03   -0.46043E-02   -0.11461E-01  4285   0.990E-02    0.657E-01
RMM:   3    -0.413180519860E+03    0.36497E-02   -0.16932E-02  4777   0.519E-02    0.973E-02
RMM:   4    -0.413203296375E+03   -0.22777E-01   -0.23547E-02  5132   0.128E-01    0.632E-01
RMM:   5    -0.413180075248E+03    0.23221E-01   -0.11489E-02  4804   0.104E-01    0.466E-02
RMM:   6    -0.413180193923E+03   -0.11867E-03   -0.19675E-03  5826   0.420E-02    0.291E-02
RMM:   7    -0.413180192163E+03    0.17606E-05   -0.25057E-04  5622   0.161E-02    0.152E-02
RMM:   8    -0.413180187495E+03    0.46673E-05   -0.51334E-05  4974   0.749E-03    0.100E-02
RMM:   9    -0.413180182376E+03    0.51195E-05   -0.10712E-05  3820   0.378E-03    0.740E-03
RMM:  10    -0.413180179846E+03    0.25302E-05   -0.17494E-06  2548   0.224E-03    0.441E-03
RMM:  11    -0.413180176969E+03    0.28768E-05   -0.15962E-06  2531   0.200E-03    0.224E-03
RMM:  12    -0.413180172971E+03    0.39974E-05   -0.12855E-06  2493   0.181E-03    0.892E-04
RMM:  13    -0.413180171535E+03    0.14365E-05   -0.43376E-07  2258   0.116E-03    0.599E-04
RMM:  14    -0.413180171105E+03    0.42966E-06   -0.20476E-07  1749   0.809E-04
   27 T=    64. E= -.41286700E+03 F= -.41318017E+03 E0= -.41315847E+03  EK= 0.31317E+00 SP= 0.00E+00 SK= 0.00E+00
       N       E                     dE             d eps       ncg     rms          rms(c)
RMM:   1    -0.413181142711E+03   -0.97118E-03   -0.92933E+00  4293   0.747E-01    0.909E-01
RMM:   2    -0.413185415575E+03   -0.42729E-02   -0.11576E-01  4282   0.989E-02    0.667E-01
RMM:   3    -0.413181656936E+03    0.37586E-02   -0.17675E-02  4765   0.534E-02    0.972E-02
RMM:   4    -0.413204770577E+03   -0.23114E-01   -0.23885E-02  5132   0.129E-01    0.637E-01
RMM:   5    -0.413181186246E+03    0.23584E-01   -0.11667E-02  4803   0.105E-01    0.468E-02
RMM:   6    -0.413181312097E+03   -0.12585E-03   -0.20189E-03  5827   0.427E-02    0.307E-02
RMM:   7    -0.413181311541E+03    0.55525E-06   -0.31502E-04  5620   0.177E-02    0.183E-02
RMM:   8    -0.413181303635E+03    0.79067E-05   -0.59878E-05  4980   0.841E-03    0.101E-02
RMM:   9    -0.413181298808E+03    0.48268E-05   -0.11065E-05  3788   0.393E-03    0.737E-03
RMM:  10    -0.413181296685E+03    0.21233E-05   -0.18126E-06  2545   0.226E-03    0.434E-03
RMM:  11    -0.413181294464E+03    0.22204E-05   -0.14988E-06  2526   0.196E-03    0.215E-03
RMM:  12    -0.413181291607E+03    0.28573E-05   -0.12975E-06  2508   0.178E-03    0.919E-04
RMM:  13    -0.413181290346E+03    0.12607E-05   -0.44444E-07  2270   0.117E-03    0.592E-04
RMM:  14    -0.413181289815E+03    0.53128E-06   -0.21090E-07  1781   0.816E-04
   28 T=    64. E= -.41286666E+03 F= -.41318129E+03 E0= -.41315964E+03  EK= 0.31463E+00 SP= 0.00E+00 SK= 0.00E+00
       N       E                     dE             d eps       ncg     rms          rms(c)
RMM:   1    -0.413183295480E+03   -0.20051E-02   -0.93185E+00  4292   0.755E-01    0.926E-01
RMM:   2    -0.413187239748E+03   -0.39443E-02   -0.11566E-01  4280   0.102E-01    0.663E-01
RMM:   3    -0.413183502256E+03    0.37375E-02   -0.16722E-02  4655   0.504E-02    0.928E-02
RMM:   4    -0.413199955996E+03   -0.16454E-01   -0.16744E-02  5140   0.108E-01    0.539E-01
RMM:   5    -0.413183250006E+03    0.16706E-01   -0.84244E-03  4820   0.887E-02    0.453E-02
RMM:   6    -0.413183327053E+03   -0.77046E-04   -0.14894E-03  5836   0.360E-02    0.280E-02
RMM:   7    -0.413183317213E+03    0.98395E-05   -0.17902E-04  5491   0.144E-02    0.131E-02
RMM:   8    -0.413183310257E+03    0.69566E-05   -0.25965E-05  4523   0.553E-03    0.834E-03
RMM:   9    -0.413183305415E+03    0.48417E-05   -0.64324E-06  3244   0.298E-03    0.602E-03
RMM:  10    -0.413183301962E+03    0.34528E-05   -0.15240E-06  2529   0.208E-03    0.375E-03
RMM:  11    -0.413183295444E+03    0.65180E-05   -0.17256E-06  2547   0.209E-03    0.189E-03
RMM:  12    -0.413183289396E+03    0.60479E-05   -0.10448E-06  2474   0.168E-03    0.112E-03
RMM:  13    -0.413183287733E+03    0.16636E-05   -0.35917E-07  2245   0.109E-03    0.600E-04
RMM:  14    -0.413183286615E+03    0.11181E-05   -0.16312E-07  1606   0.751E-04    0.470E-04
RMM:  15    -0.413183280933E+03    0.56810E-05   -0.25323E-07  2300   0.887E-04    0.660E-04
RMM:  16    -0.413183278222E+03    0.27111E-05   -0.89664E-08  1292   0.633E-04    0.514E-04
RMM:  17    -0.413183277044E+03    0.11786E-05   -0.31365E-08   839   0.528E-04    0.409E-04
RMM:  18    -0.413183272779E+03    0.42648E-05   -0.63378E-08  1057   0.609E-04    0.105E-04
RMM:  19    -0.413183271200E+03    0.15788E-05   -0.39236E-08  1053   0.590E-04    0.109E-04
RMM:  20    -0.413183270392E+03    0.80858E-06   -0.18580E-08   823   0.542E-04
   29 T=    64. E= -.41286684E+03 F= -.41318327E+03 E0= -.41316167E+03  EK= 0.31643E+00 SP= 0.00E+00 SK= 0.00E+00
       N       E                     dE             d eps       ncg     rms          rms(c)
RMM:   1    -0.413190711010E+03   -0.74398E-02   -0.93587E+00  4290   0.839E-01    0.908E-01
RMM:   2    -0.413189452507E+03    0.12585E-02   -0.11893E-01  4274   0.114E-01    0.660E-01
RMM:   3    -0.413185199088E+03    0.42534E-02   -0.16706E-02  4503   0.549E-02    0.787E-02
RMM:   4    -0.413194213780E+03   -0.90147E-02   -0.91688E-03  5143   0.802E-02    0.401E-01
RMM:   5    -0.413185083586E+03    0.91302E-02   -0.46860E-03  4833   0.659E-02    0.420E-02
RMM:   6    -0.413185125011E+03   -0.41425E-04   -0.92908E-04  5812   0.281E-02    0.261E-02
RMM:   7    -0.413185124054E+03    0.95700E-06   -0.22759E-04  5361   0.155E-02    0.174E-02
RMM:   8    -0.413185107964E+03    0.16090E-04   -0.24998E-05  4511   0.628E-03    0.778E-03
RMM:   9    -0.413185106183E+03    0.17806E-05   -0.47240E-06  2924   0.274E-03    0.543E-03
RMM:  10    -0.413185103228E+03    0.29547E-05   -0.16176E-06  2512   0.206E-03    0.294E-03
RMM:  11    -0.413185100228E+03    0.30006E-05   -0.10221E-06  2476   0.169E-03    0.145E-03
RMM:  12    -0.413185097415E+03    0.28124E-05   -0.55644E-07  2344   0.126E-03    0.749E-04
RMM:  13    -0.413185095801E+03    0.16142E-05   -0.28118E-07  1945   0.906E-04    0.323E-04
RMM:  14    -0.413185093918E+03    0.18835E-05   -0.15598E-07  1474   0.731E-04    0.202E-04
RMM:  15    -0.413185091231E+03    0.26869E-05   -0.10256E-07  1253   0.670E-04    0.114E-04
RMM:  16    -0.413185088999E+03    0.22314E-05   -0.62376E-08   988   0.621E-04    0.785E-05
RMM:  17    -0.413185087137E+03    0.18623E-05   -0.42863E-08   919   0.598E-04    0.473E-05
RMM:  18    -0.413185084084E+03    0.30534E-05   -0.58802E-08  1111   0.619E-04    0.405E-05
RMM:  19    -0.413185083447E+03    0.63670E-06   -0.19920E-08   752   0.549E-04
   30 T=    65. E= -.41286682E+03 F= -.41318508E+03 E0= -.41316354E+03  EK= 0.31827E+00 SP= 0.00E+00 SK= 0.00E+00
       N       E                     dE             d eps       ncg     rms          rms(c)
RMM:   1    -0.413186065151E+03   -0.98107E-03   -0.94299E+00  4293   0.772E-01    0.912E-01
RMM:   2    -0.413191575974E+03   -0.55108E-02   -0.11874E-01  4286   0.114E-01    0.672E-01
RMM:   3    -0.413186830116E+03    0.47459E-02   -0.17952E-02  4454   0.606E-02    0.706E-02
RMM:   4    -0.413195090401E+03   -0.82603E-02   -0.83340E-03  5150   0.770E-02    0.385E-01
RMM:   5    -0.413186700593E+03    0.83898E-02   -0.42851E-03  4829   0.632E-02    0.415E-02
RMM:   6    -0.413186744073E+03   -0.43480E-04   -0.88843E-04  5795   0.278E-02    0.270E-02
RMM:   7    -0.413186743817E+03    0.25608E-06   -0.24901E-04  5335   0.161E-02    0.179E-02
RMM:   8    -0.413186728876E+03    0.14940E-04   -0.23870E-05  4486   0.626E-03    0.772E-03
RMM:   9    -0.413186727869E+03    0.10072E-05   -0.43694E-06  2853   0.262E-03    0.523E-03
RMM:  10    -0.413186726553E+03    0.13157E-05   -0.16024E-06  2517   0.201E-03    0.279E-03
RMM:  11    -0.413186725297E+03    0.12565E-05   -0.10232E-06  2474   0.165E-03    0.136E-03
RMM:  12    -0.413186723908E+03    0.13892E-05   -0.53983E-07  2297   0.123E-03    0.684E-04
RMM:  13    -0.413186722896E+03    0.10117E-05   -0.27328E-07  1912   0.889E-04    0.316E-04
RMM:  14    -0.413186721554E+03    0.13424E-05   -0.14972E-07  1407   0.722E-04    0.199E-04
RMM:  15    -0.413186719539E+03    0.20148E-05   -0.10383E-07  1216   0.669E-04    0.112E-04
RMM:  16    -0.413186717911E+03    0.16283E-05   -0.64291E-08  1001   0.621E-04    0.745E-05
RMM:  17    -0.413186716101E+03    0.18092E-05   -0.50146E-08   973   0.599E-04    0.436E-05
RMM:  18    -0.413186713987E+03    0.21142E-05   -0.44836E-08   981   0.590E-04    0.289E-05
RMM:  19    -0.413186713382E+03    0.60507E-06   -0.18330E-08   729   0.545E-04
   31 T=    65. E= -.41286656E+03 F= -.41318671E+03 E0= -.41316522E+03  EK= 0.32015E+00 SP= 0.00E+00 SK= 0.00E+00
       N       E                     dE             d eps       ncg     rms          rms(c)
RMM:   1    -0.413190188604E+03   -0.34746E-02   -0.94901E+00  4289   0.813E-01    0.933E-01
RMM:   2    -0.413193718344E+03   -0.35297E-02   -0.12028E-01  4283   0.119E-01    0.670E-01
RMM:   3    -0.413189294971E+03    0.44234E-02   -0.16918E-02  4297   0.603E-02    0.757E-02
RMM:   4    -0.413190765768E+03   -0.14708E-02   -0.18457E-03  5153   0.355E-02    0.165E-01
RMM:   5    -0.413189307303E+03    0.14585E-02   -0.82740E-04  4825   0.282E-02    0.416E-02
RMM:   6    -0.413189338650E+03   -0.31347E-04   -0.48976E-04  5463   0.216E-02    0.315E-02
RMM:   7    -0.413189296620E+03    0.42030E-04   -0.21497E-04  4959   0.157E-02    0.174E-02
RMM:   8    -0.413189290038E+03    0.65826E-05   -0.28194E-05  4708   0.572E-03    0.660E-03
RMM:   9    -0.413189288387E+03    0.16501E-05   -0.31905E-06  2580   0.222E-03    0.342E-03
RMM:  10    -0.413189283389E+03    0.49984E-05   -0.88234E-07  2448   0.157E-03    0.184E-03
RMM:  11    -0.413189278299E+03    0.50898E-05   -0.57884E-07  2323   0.114E-03    0.648E-04
RMM:  12    -0.413189274480E+03    0.38192E-05   -0.25692E-07  1769   0.843E-04    0.281E-04
RMM:  13    -0.413189271076E+03    0.34040E-05   -0.14462E-07  1367   0.721E-04    0.230E-04
RMM:  14    -0.413189268079E+03    0.29972E-05   -0.83286E-08  1048   0.647E-04    0.129E-04
RMM:  15    -0.413189262882E+03    0.51963E-05   -0.97839E-08  1288   0.671E-04    0.113E-04
RMM:  16    -0.413189259431E+03    0.34519E-05   -0.56013E-08  1029   0.597E-04    0.846E-05
RMM:  17    -0.413189257177E+03    0.22534E-05   -0.36260E-08   869   0.558E-04    0.551E-05
RMM:  18    -0.413189256369E+03    0.80850E-06   -0.19017E-08   717   0.528E-04
   32 T=    66. E= -.41286683E+03 F= -.41318926E+03 E0= -.41316781E+03  EK= 0.32243E+00 SP= 0.00E+00 SK= 0.00E+00
       N       E                     dE             d eps       ncg     rms          rms(c)
RMM:   1    -0.413191734676E+03   -0.24775E-02   -0.94750E+00  4294   0.823E-01    0.920E-01
RMM:   2    -0.413195390846E+03   -0.36562E-02   -0.12138E-01  4286   0.121E-01    0.666E-01
RMM:   3    -0.413191273153E+03    0.41177E-02   -0.16739E-02  4300   0.635E-02    0.743E-02
RMM:   4    -0.413192635899E+03   -0.13627E-02   -0.17317E-03  5161   0.343E-02    0.159E-01
RMM:   5    -0.413191284497E+03    0.13514E-02   -0.76931E-04  4817   0.272E-02    0.414E-02
RMM:   6    -0.413191316750E+03   -0.32253E-04   -0.48889E-04  5461   0.212E-02    0.311E-02
RMM:   7    -0.413191272236E+03    0.44514E-04   -0.20811E-04  4964   0.152E-02    0.175E-02
RMM:   8    -0.413191265696E+03    0.65396E-05   -0.27800E-05  4641   0.560E-03    0.643E-03
RMM:   9    -0.413191264145E+03    0.15511E-05   -0.30202E-06  2564   0.219E-03    0.342E-03
RMM:  10    -0.413191259395E+03    0.47507E-05   -0.86218E-07  2440   0.153E-03    0.179E-03
RMM:  11    -0.413191254916E+03    0.44784E-05   -0.53608E-07  2266   0.109E-03    0.654E-04
RMM:  12    -0.413191251354E+03    0.35627E-05   -0.24642E-07  1766   0.828E-04    0.278E-04
RMM:  13    -0.413191248061E+03    0.32921E-05   -0.13629E-07  1328   0.708E-04    0.230E-04
RMM:  14    -0.413191245202E+03    0.28596E-05   -0.76174E-08  1001   0.637E-04    0.133E-04
RMM:  15    -0.413191240167E+03    0.50349E-05   -0.93021E-08  1239   0.664E-04    0.110E-04
RMM:  16    -0.413191236808E+03    0.33591E-05   -0.53051E-08  1013   0.601E-04    0.924E-05
RMM:  17    -0.413191234583E+03    0.22250E-05   -0.31129E-08   822   0.557E-04    0.558E-05
RMM:  18    -0.413191233810E+03    0.77268E-06   -0.17829E-08   682   0.531E-04
   33 T=    66. E= -.41286663E+03 F= -.41319123E+03 E0= -.41316983E+03  EK= 0.32460E+00 SP= 0.00E+00 SK= 0.00E+00
       N       E                     dE             d eps       ncg     rms          rms(c)
RMM:   1    -0.413195236619E+03   -0.40020E-02   -0.96133E+00  4301   0.833E-01    0.917E-01
RMM:   2    -0.413197974317E+03   -0.27377E-02   -0.12331E-01  4283   0.124E-01    0.677E-01
RMM:   3    -0.413193659440E+03    0.43149E-02   -0.17907E-02  4351   0.676E-02    0.647E-02
RMM:   4    -0.413197000129E+03   -0.33407E-02   -0.35568E-03  5155   0.503E-02    0.247E-01
RMM:   5    -0.413193626033E+03    0.33741E-02   -0.17536E-03  4828   0.410E-02    0.407E-02
RMM:   6    -0.413193661136E+03   -0.35103E-04   -0.60787E-04  5628   0.230E-02    0.291E-02
RMM:   7    -0.413193639815E+03    0.21321E-04   -0.23703E-04  5115   0.157E-02    0.188E-02
RMM:   8    -0.413193629445E+03    0.10371E-04   -0.21919E-05  4209   0.549E-03    0.700E-03
RMM:   9    -0.413193628362E+03    0.10824E-05   -0.25816E-06  2580   0.223E-03    0.445E-03
RMM:  10    -0.413193626514E+03    0.18487E-05   -0.12082E-06  2484   0.177E-03    0.232E-03
RMM:  11    -0.413193624932E+03    0.15816E-05   -0.74320E-07  2401   0.134E-03    0.104E-03
RMM:  12    -0.413193623028E+03    0.19040E-05   -0.42376E-07  2124   0.105E-03    0.422E-04
RMM:  13    -0.413193621420E+03    0.16076E-05   -0.22613E-07  1702   0.810E-04    0.266E-04
RMM:  14    -0.413193619442E+03    0.19789E-05   -0.11964E-07  1170   0.678E-04    0.203E-04
RMM:  15    -0.413193616521E+03    0.29208E-05   -0.10255E-07  1159   0.660E-04    0.798E-05
RMM:  16    -0.413193614940E+03    0.15810E-05   -0.55490E-08   933   0.603E-04    0.697E-05
RMM:  17    -0.413193612107E+03    0.28325E-05   -0.57827E-08  1042   0.607E-04    0.384E-05
RMM:  18    -0.413193610996E+03    0.11115E-05   -0.29158E-08   798   0.553E-04    0.285E-05
RMM:  19    -0.413193610247E+03    0.74874E-06   -0.16213E-08   670   0.534E-04
   34 T=    67. E= -.41286668E+03 F= -.41319361E+03 E0= -.41317226E+03  EK= 0.32693E+00 SP= 0.00E+00 SK= 0.00E+00
       N       E                     dE             d eps       ncg     rms          rms(c)
RMM:   1    -0.413204435915E+03   -0.10825E-01   -0.97480E+00  4302   0.922E-01    0.937E-01
RMM:   2    -0.413200294416E+03    0.41415E-02   -0.13430E-01  4272   0.133E-01    0.680E-01
RMM:   3    -0.413196321216E+03    0.39732E-02   -0.16405E-02  4262   0.679E-02    0.842E-02
RMM:   4    -0.413196465176E+03   -0.14396E-03   -0.70602E-04  4995   0.172E-02    0.546E-02
RMM:   5    -0.413196443563E+03    0.21613E-04   -0.19189E-04  4885   0.132E-02    0.526E-02
RMM:   6    -0.413196413053E+03    0.30509E-04   -0.40327E-04  5265   0.196E-02    0.308E-02
RMM:   7    -0.413196362882E+03    0.50172E-04   -0.18933E-04  4818   0.148E-02    0.151E-02
RMM:   8    -0.413196359435E+03    0.34462E-05   -0.26422E-05  4525   0.535E-03    0.542E-03
RMM:   9    -0.413196358058E+03    0.13774E-05   -0.37543E-06  2476   0.213E-03    0.184E-03
RMM:  10    -0.413196351777E+03    0.62806E-05   -0.89916E-07  2338   0.150E-03    0.852E-04
RMM:  11    -0.413196348413E+03    0.33642E-05   -0.23567E-07  1750   0.836E-04    0.488E-04
RMM:  12    -0.413196344478E+03    0.39351E-05   -0.13853E-07  1244   0.704E-04    0.299E-04
RMM:  13    -0.413196340755E+03    0.37234E-05   -0.11480E-07  1246   0.672E-04    0.210E-04
RMM:  14    -0.413196335425E+03    0.53293E-05   -0.11005E-07  1192   0.664E-04    0.176E-04
RMM:  15    -0.413196333197E+03    0.22281E-05   -0.36810E-08   696   0.569E-04    0.119E-04
RMM:  16    -0.413196329060E+03    0.41378E-05   -0.42782E-08   841   0.593E-04    0.505E-05
RMM:  17    -0.413196327753E+03    0.13070E-05   -0.19762E-08   648   0.543E-04    0.491E-05
RMM:  18    -0.413196327069E+03    0.68380E-06   -0.90126E-09   488   0.520E-04
   35 T=    67. E= -.41286693E+03 F= -.41319633E+03 E0= -.41317502E+03  EK= 0.32939E+00 SP= 0.00E+00 SK= 0.00E+00
       N       E                     dE             d eps       ncg     rms          rms(c)
RMM:   1    -0.413200616169E+03   -0.42884E-02   -0.96958E+00  4302   0.875E-01    0.937E-01
RMM:   2    -0.413202231090E+03   -0.16149E-02   -0.12635E-01  4266   0.131E-01    0.674E-01
RMM:   3    -0.413198475792E+03    0.37553E-02   -0.16745E-02  4337   0.679E-02    0.826E-02
RMM:   4    -0.413200457530E+03   -0.19817E-02   -0.23718E-03  5189   0.410E-02    0.191E-01
RMM:   5    -0.413198504092E+03    0.19534E-02   -0.10724E-03  4818   0.324E-02    0.423E-02
RMM:   6    -0.413198531298E+03   -0.27206E-04   -0.52217E-04  5504   0.228E-02    0.323E-02
RMM:   7    -0.413198491606E+03    0.39691E-04   -0.24044E-04  4963   0.161E-02    0.182E-02
RMM:   8    -0.413198483451E+03    0.81555E-05   -0.28676E-05  4747   0.587E-03    0.723E-03
RMM:   9    -0.413198481439E+03    0.20120E-05   -0.38161E-06  2610   0.231E-03    0.352E-03
RMM:  10    -0.413198476000E+03    0.54382E-05   -0.10286E-06  2465   0.168E-03    0.198E-03
RMM:  11    -0.413198471154E+03    0.48469E-05   -0.57311E-07  2320   0.117E-03    0.787E-04
RMM:  12    -0.413198466300E+03    0.48535E-05   -0.30961E-07  1885   0.922E-04    0.292E-04
RMM:  13    -0.413198461932E+03    0.43681E-05   -0.17469E-07  1501   0.759E-04    0.232E-04
RMM:  14    -0.413198458372E+03    0.35600E-05   -0.87113E-08   996   0.647E-04    0.165E-04
RMM:  15    -0.413198452778E+03    0.55945E-05   -0.82010E-08  1095   0.650E-04    0.767E-05
RMM:  16    -0.413198448828E+03    0.39496E-05   -0.64240E-08  1107   0.618E-04    0.908E-05
RMM:  17    -0.413198446644E+03    0.21836E-05   -0.31738E-08   786   0.557E-04    0.428E-05
RMM:  18    -0.413198444731E+03    0.19135E-05   -0.25407E-08   749   0.548E-04    0.329E-05
RMM:  19    -0.413198444294E+03    0.43646E-06   -0.11363E-08   537   0.516E-04
   36 T=    68. E= -.41286674E+03 F= -.41319844E+03 E0= -.41317718E+03  EK= 0.33170E+00 SP= 0.00E+00 SK= 0.00E+00
       N       E                     dE             d eps       ncg     rms          rms(c)
RMM:   1    -0.413205699768E+03   -0.72550E-02   -0.98071E+00  4308   0.924E-01    0.924E-01
RMM:   2    -0.413205858777E+03   -0.15901E-03   -0.13147E-01  4265   0.132E-01    0.682E-01
RMM:   3    -0.413201378656E+03    0.44801E-02   -0.17215E-02  4483   0.649E-02    0.808E-02
RMM:   4    -0.413210446148E+03   -0.90675E-02   -0.92220E-03  5164   0.811E-02    0.404E-01
RMM:   5    -0.413201301947E+03    0.91442E-02   -0.46635E-03  4825   0.670E-02    0.437E-02
RMM:   6    -0.413201320498E+03   -0.18551E-04   -0.10170E-03  5740   0.306E-02    0.304E-02
RMM:   7    -0.413201320480E+03    0.18212E-07   -0.31204E-04  5295   0.175E-02    0.198E-02
RMM:   8    -0.413201304940E+03    0.15540E-04   -0.32946E-05  4819   0.693E-03    0.877E-03
RMM:   9    -0.413201303730E+03    0.12098E-05   -0.56146E-06  2941   0.288E-03    0.530E-03
RMM:  10    -0.413201301531E+03    0.21992E-05   -0.15812E-06  2519   0.211E-03    0.282E-03
RMM:  11    -0.413201298995E+03    0.25360E-05   -0.10288E-06  2479   0.166E-03    0.141E-03
RMM:  12    -0.413201296303E+03    0.26916E-05   -0.62340E-07  2368   0.128E-03    0.699E-04
RMM:  13    -0.413201294550E+03    0.17537E-05   -0.31189E-07  1964   0.932E-04    0.341E-04
RMM:  14    -0.413201292748E+03    0.18014E-05   -0.16111E-07  1433   0.731E-04    0.206E-04
RMM:  15    -0.413201289801E+03    0.29478E-05   -0.10361E-07  1184   0.668E-04    0.112E-04
RMM:  16    -0.413201287495E+03    0.23059E-05   -0.66325E-08   981   0.627E-04    0.740E-05
RMM:  17    -0.413201285624E+03    0.18704E-05   -0.44875E-08   922   0.601E-04    0.464E-05
RMM:  18    -0.413201282493E+03    0.31314E-05   -0.52211E-08  1094   0.613E-04    0.286E-05
RMM:  19    -0.413201281705E+03    0.78806E-06   -0.20847E-08   754   0.545E-04
   37 T=    68. E= -.41286700E+03 F= -.41320128E+03 E0= -.41318006E+03  EK= 0.33428E+00 SP= 0.00E+00 SK= 0.00E+00
       N       E                     dE             d eps       ncg     rms          rms(c)
RMM:   1    -0.413211120792E+03   -0.98383E-02   -0.99427E+00  4307   0.973E-01    0.942E-01
RMM:   2    -0.413208486741E+03    0.26341E-02   -0.13883E-01  4261   0.131E-01    0.689E-01
RMM:   3    -0.413204204523E+03    0.42822E-02   -0.16736E-02  4759   0.625E-02    0.124E-01
RMM:   4    -0.413236594843E+03   -0.32390E-01   -0.33451E-02  5131   0.153E-01    0.751E-01
RMM:   5    -0.413203694480E+03    0.32900E-01   -0.16471E-02  4796   0.125E-01    0.519E-02
RMM:   6    -0.413203757504E+03   -0.63024E-04   -0.27252E-03  5838   0.496E-02    0.333E-02
RMM:   7    -0.413203766813E+03   -0.93097E-05   -0.35612E-04  5615   0.182E-02    0.174E-02
RMM:   8    -0.413203758451E+03    0.83620E-05   -0.50983E-05  4896   0.753E-03    0.972E-03
RMM:   9    -0.413203758407E+03    0.44500E-07   -0.19196E-05  4458   0.464E-03    0.792E-03
RMM:  10    -0.413203753023E+03    0.53836E-05   -0.29189E-06  2692   0.270E-03    0.438E-03
RMM:  11    -0.413203750434E+03    0.25890E-05   -0.14400E-06  2504   0.193E-03    0.270E-03
RMM:  12    -0.413203743935E+03    0.64988E-05   -0.19978E-06  2558   0.225E-03    0.134E-03
RMM:  13    -0.413203741072E+03    0.28637E-05   -0.67108E-07  2406   0.146E-03    0.840E-04
RMM:  14    -0.413203740725E+03    0.34705E-06   -0.26525E-07  2046   0.927E-04
   38 T=    69. E= -.41286692E+03 F= -.41320374E+03 E0= -.41318256E+03  EK= 0.33682E+00 SP= 0.00E+00 SK= 0.00E+00
       N       E                     dE             d eps       ncg     rms          rms(c)
RMM:   1    -0.413208959342E+03   -0.52183E-02   -0.99258E+00  4307   0.972E-01    0.953E-01
RMM:   2    -0.413210809079E+03   -0.18497E-02   -0.13202E-01  4264   0.124E-01    0.683E-01
RMM:   3    -0.413206858833E+03    0.39502E-02   -0.16959E-02  4881   0.603E-02    0.142E-01
RMM:   4    -0.413245286927E+03   -0.38428E-01   -0.40885E-02  5126   0.169E-01    0.816E-01
RMM:   5    -0.413206092610E+03    0.39194E-01   -0.19352E-02  4790   0.136E-01    0.553E-02
RMM:   6    -0.413206187771E+03   -0.95161E-04   -0.32626E-03  5825   0.538E-02    0.352E-02
RMM:   7    -0.413206198040E+03   -0.10269E-04   -0.41626E-04  5665   0.193E-02    0.188E-02
RMM:   8    -0.413206186784E+03    0.11256E-04   -0.59184E-05  4977   0.799E-03    0.103E-02
RMM:   9    -0.413206184920E+03    0.18642E-05   -0.22471E-05  4594   0.495E-03    0.824E-03
RMM:  10    -0.413206176881E+03    0.80383E-05   -0.34131E-06  2748   0.285E-03    0.457E-03
RMM:  11    -0.413206172422E+03    0.44594E-05   -0.15388E-06  2507   0.202E-03    0.280E-03
RMM:  12    -0.413206161615E+03    0.10807E-04   -0.19931E-06  2550   0.228E-03    0.133E-03
RMM:  13    -0.413206156876E+03    0.47392E-05   -0.70250E-07  2430   0.150E-03    0.870E-04
RMM:  14    -0.413206156476E+03    0.40018E-06   -0.28174E-07  2094   0.954E-04
   39 T=    69. E= -.41286673E+03 F= -.41320616E+03 E0= -.41318502E+03  EK= 0.33943E+00 SP= 0.00E+00 SK= 0.00E+00
       N       E                     dE             d eps       ncg     rms          rms(c)
RMM:   1    -0.413220240888E+03   -0.14084E-01   -0.10054E+01  4310   0.107E+00    0.932E-01
RMM:   2    -0.413214284629E+03    0.59563E-02   -0.14750E-01  4264   0.131E-01    0.688E-01
RMM:   3    -0.413210275077E+03    0.40096E-02   -0.16329E-02  4956   0.644E-02    0.172E-01
RMM:   4    -0.413258260301E+03   -0.47985E-01   -0.53019E-02  5124   0.192E-01    0.910E-01
RMM:   5    -0.413209011210E+03    0.49249E-01   -0.23977E-02  4783   0.152E-01    0.587E-02
RMM:   6    -0.413209152047E+03   -0.14084E-03   -0.39904E-03  5827   0.594E-02    0.363E-02
RMM:   7    -0.413209164194E+03   -0.12147E-04   -0.47929E-04  5722   0.203E-02    0.199E-02
RMM:   8    -0.413209163757E+03    0.43761E-06   -0.89144E-05  5180   0.932E-03    0.123E-02
RMM:   9    -0.413209154571E+03    0.91859E-05   -0.25950E-05  4654   0.550E-03    0.772E-03
RMM:  10    -0.413209150397E+03    0.41742E-05   -0.42281E-06  2815   0.297E-03    0.463E-03
RMM:  11    -0.413209147160E+03    0.32363E-05   -0.16290E-06  2505   0.210E-03    0.282E-03
RMM:  12    -0.413209139739E+03    0.74213E-05   -0.17997E-06  2532   0.217E-03    0.108E-03
RMM:  13    -0.413209135304E+03    0.44344E-05   -0.74451E-07  2441   0.149E-03    0.847E-04
RMM:  14    -0.413209134972E+03    0.33229E-06   -0.30441E-07  2134   0.976E-04
   40 T=    70. E= -.41286691E+03 F= -.41320913E+03 E0= -.41318803E+03  EK= 0.34223E+00 SP= 0.00E+00 SK= 0.00E+00
       N       E                     dE             d eps       ncg     rms          rms(c)
RMM:   1    -0.413221538424E+03   -0.12403E-01   -0.10186E+01  4312   0.110E+00    0.948E-01
RMM:   2    -0.413216385676E+03    0.51527E-02   -0.14036E-01  4266   0.138E-01    0.697E-01
RMM:   3    -0.413212826459E+03    0.35592E-02   -0.18219E-02  4987   0.690E-02    0.189E-01
RMM:   4    -0.413260950433E+03   -0.48124E-01   -0.55665E-02  5125   0.197E-01    0.915E-01
RMM:   5    -0.413211040107E+03    0.49910E-01   -0.23714E-02  4781   0.152E-01    0.596E-02
RMM:   6    -0.413211187147E+03   -0.14704E-03   -0.40247E-03  5823   0.596E-02    0.363E-02
RMM:   7    -0.413211202343E+03   -0.15196E-04   -0.49476E-04  5760   0.205E-02    0.207E-02
RMM:   8    -0.413211204488E+03   -0.21455E-05   -0.10774E-04  5221   0.102E-02    0.135E-02
RMM:   9    -0.413211192908E+03    0.11580E-04   -0.25886E-05  4673   0.576E-03    0.737E-03
RMM:  10    -0.413211189216E+03    0.36917E-05   -0.43678E-06  2827   0.297E-03    0.447E-03
RMM:  11    -0.413211186318E+03    0.28981E-05   -0.14930E-06  2502   0.204E-03    0.269E-03
RMM:  12    -0.413211179822E+03    0.64960E-05   -0.15940E-06  2531   0.205E-03    0.106E-03
RMM:  13    -0.413211175488E+03    0.43345E-05   -0.69846E-07  2430   0.144E-03    0.724E-04
RMM:  14    -0.413211174857E+03    0.63035E-06   -0.29751E-07  2098   0.958E-04
   41 T=    70. E= -.41286652E+03 F= -.41321117E+03 E0= -.41319011E+03  EK= 0.34466E+00 SP= 0.00E+00 SK= 0.00E+00
       N       E                     dE             d eps       ncg     rms          rms(c)
RMM:   1    -0.413232216138E+03   -0.21041E-01   -0.10297E+01  4312   0.121E+00    0.967E-01
RMM:   2    -0.413218314771E+03    0.13901E-01   -0.14373E-01  4296   0.135E-01    0.693E-01
RMM:   3    -0.413216505486E+03    0.18093E-02   -0.18516E-02  5060   0.746E-02    0.248E-01
RMM:   4    -0.413258959037E+03   -0.42454E-01   -0.55438E-02  5098   0.198E-01    0.874E-01
RMM:   5    -0.413213586919E+03    0.45372E-01   -0.20579E-02  4758   0.145E-01    0.616E-02
RMM:   6    -0.413213696439E+03   -0.10952E-03   -0.36235E-03  5776   0.568E-02    0.373E-02
RMM:   7    -0.413213702825E+03   -0.63858E-05   -0.48920E-04  5734   0.206E-02    0.224E-02
RMM:   8    -0.413213700985E+03    0.18401E-05   -0.13116E-04  5226   0.116E-02    0.140E-02
RMM:   9    -0.413213685010E+03    0.15975E-04   -0.23128E-05  4542   0.592E-03    0.634E-03
RMM:  10    -0.413213678980E+03    0.60298E-05   -0.51668E-06  2993   0.294E-03    0.395E-03
RMM:  11    -0.413213674002E+03    0.49783E-05   -0.12732E-06  2496   0.195E-03    0.226E-03
RMM:  12    -0.413213664605E+03    0.93962E-05   -0.10819E-06  2478   0.177E-03    0.885E-04
RMM:  13    -0.413213658571E+03    0.60347E-05   -0.51100E-07  2367   0.125E-03    0.509E-04
RMM:  14    -0.413213657235E+03    0.13356E-05   -0.25129E-07  1964   0.882E-04    0.351E-04
RMM:  15    -0.413213654188E+03    0.30473E-05   -0.13336E-07  1451   0.710E-04    0.192E-04
RMM:  16    -0.413213647126E+03    0.70621E-05   -0.11209E-07  1413   0.705E-04    0.213E-04
RMM:  17    -0.413213644768E+03    0.23572E-05   -0.55206E-08  1000   0.608E-04    0.131E-04
RMM:  18    -0.413213639561E+03    0.52080E-05   -0.64860E-08  1325   0.643E-04    0.119E-04
RMM:  19    -0.413213637294E+03    0.22668E-05   -0.36041E-08  1012   0.568E-04    0.588E-05
RMM:  20    -0.413213636065E+03    0.12287E-05   -0.24919E-08   891   0.546E-04    0.296E-05
RMM:  21    -0.413213635846E+03    0.21918E-06   -0.13491E-08   723   0.520E-04
   42 T=    71. E= -.41286665E+03 F= -.41321364E+03 E0= -.41319260E+03  EK= 0.34698E+00 SP= 0.00E+00 SK= 0.00E+00
       N       E                     dE             d eps       ncg     rms          rms(c)
RMM:   1    -0.413239648025E+03   -0.26012E-01   -0.10335E+01  4312   0.128E+00    0.944E-01
RMM:   2    -0.413220387958E+03    0.19260E-01   -0.16485E-01  4303   0.147E-01    0.694E-01
RMM:   3    -0.413219666014E+03    0.72194E-03   -0.17486E-02  5068   0.809E-02    0.301E-01
RMM:   4    -0.413260287519E+03   -0.40622E-01   -0.58314E-02  5097   0.204E-01    0.868E-01
RMM:   5    -0.413215519500E+03    0.44768E-01   -0.19764E-02  4743   0.144E-01    0.636E-02
RMM:   6    -0.413215613200E+03   -0.93700E-04   -0.35328E-03  5757   0.562E-02    0.372E-02
RMM:   7    -0.413215620297E+03   -0.70966E-05   -0.52402E-04  5752   0.208E-02    0.244E-02
RMM:   8    -0.413215616345E+03    0.39514E-05   -0.13342E-04  5198   0.120E-02    0.131E-02
RMM:   9    -0.413215603863E+03    0.12483E-04   -0.21534E-05  4492   0.585E-03    0.538E-03
RMM:  10    -0.413215600546E+03    0.33172E-05   -0.48544E-06  2918   0.278E-03    0.345E-03
RMM:  11    -0.413215597154E+03    0.33911E-05   -0.13175E-06  2497   0.191E-03    0.189E-03
RMM:  12    -0.413215591757E+03    0.53975E-05   -0.89335E-07  2473   0.158E-03    0.713E-04
RMM:  13    -0.413215588228E+03    0.35291E-05   -0.43552E-07  2246   0.113E-03    0.352E-04
RMM:  14    -0.413215586578E+03    0.16499E-05   -0.22880E-07  1822   0.845E-04    0.247E-04
RMM:  15    -0.413215583496E+03    0.30817E-05   -0.13617E-07  1396   0.715E-04    0.120E-04
RMM:  16    -0.413215580231E+03    0.32649E-05   -0.90972E-08  1166   0.661E-04    0.976E-05
RMM:  17    -0.413215577981E+03    0.22502E-05   -0.63808E-08  1080   0.630E-04    0.653E-05
RMM:  18    -0.413215575077E+03    0.29044E-05   -0.54073E-08  1132   0.625E-04    0.405E-05
RMM:  19    -0.413215573049E+03    0.20280E-05   -0.38720E-08  1045   0.591E-04    0.288E-05
RMM:  20    -0.413215572304E+03    0.74445E-06   -0.20669E-08   813   0.552E-04
   43 T=    71. E= -.41286673E+03 F= -.41321557E+03 E0= -.41319456E+03  EK= 0.34885E+00 SP= 0.00E+00 SK= 0.00E+00
       N       E                     dE             d eps       ncg     rms          rms(c)
RMM:   1    -0.413226949224E+03   -0.11376E-01   -0.10318E+01  4314   0.127E+00    0.949E-01
RMM:   2    -0.413221671522E+03    0.52777E-02   -0.15415E-01  4301   0.155E-01    0.705E-01
RMM:   3    -0.413221825175E+03   -0.15365E-03   -0.20458E-02  5064   0.907E-02    0.323E-01
RMM:   4    -0.413257732983E+03   -0.35908E-01   -0.56844E-02  5090   0.203E-01    0.832E-01
RMM:   5    -0.413216541234E+03    0.41192E-01   -0.17408E-02  4722   0.137E-01    0.619E-02
RMM:   6    -0.413216610778E+03   -0.69543E-04   -0.31917E-03  5739   0.536E-02    0.358E-02
RMM:   7    -0.413216610571E+03    0.20718E-06   -0.47839E-04  5742   0.202E-02    0.234E-02
RMM:   8    -0.413216606269E+03    0.43016E-05   -0.12574E-04  5181   0.117E-02    0.124E-02
RMM:   9    -0.413216596076E+03    0.10193E-04   -0.19324E-05  4403   0.563E-03    0.506E-03
RMM:  10    -0.413216593739E+03    0.23370E-05   -0.43022E-06  2838   0.265E-03    0.321E-03
RMM:  11    -0.413216591175E+03    0.25641E-05   -0.12705E-06  2496   0.186E-03    0.173E-03
RMM:  12    -0.413216587099E+03    0.40754E-05   -0.85228E-07  2467   0.152E-03    0.694E-04
RMM:  13    -0.413216584427E+03    0.26723E-05   -0.42574E-07  2169   0.109E-03    0.320E-04
RMM:  14    -0.413216582792E+03    0.16354E-05   -0.22584E-07  1722   0.825E-04    0.210E-04
RMM:  15    -0.413216579376E+03    0.34157E-05   -0.15779E-07  1380   0.732E-04    0.122E-04
RMM:  16    -0.413216577330E+03    0.20459E-05   -0.93275E-08  1136   0.661E-04    0.884E-05
RMM:  17    -0.413216575290E+03    0.20397E-05   -0.71819E-08  1140   0.641E-04    0.569E-05
RMM:  18    -0.413216572725E+03    0.25650E-05   -0.59426E-08  1153   0.627E-04    0.355E-05
RMM:  19    -0.413216570873E+03    0.18525E-05   -0.40315E-08  1017   0.587E-04    0.277E-05
RMM:  20    -0.413216570277E+03    0.59558E-06   -0.20462E-08   783   0.548E-04
   44 T=    71. E= -.41286656E+03 F= -.41321657E+03 E0= -.41319559E+03  EK= 0.35001E+00 SP= 0.00E+00 SK= 0.00E+00
       N       E                     dE             d eps       ncg     rms          rms(c)
RMM:   1    -0.413260450086E+03   -0.43879E-01   -0.10627E+01  4312   0.150E+00    0.971E-01
RMM:   2    -0.413222164093E+03    0.38286E-01   -0.18103E-01  4313   0.170E-01    0.703E-01
RMM:   3    -0.413225288921E+03   -0.31248E-02   -0.19947E-02  5102   0.994E-02    0.406E-01
RMM:   4    -0.413249163973E+03   -0.23875E-01   -0.50880E-02  5063   0.193E-01    0.737E-01
RMM:   5    -0.413217652594E+03    0.31511E-01   -0.12815E-02  4687   0.123E-01    0.630E-02
RMM:   6    -0.413217655800E+03   -0.32052E-05   -0.24397E-03  5652   0.477E-02    0.364E-02
RMM:   7    -0.413217648584E+03    0.72158E-05   -0.41148E-04  5702   0.193E-02    0.242E-02
RMM:   8    -0.413217639707E+03    0.88769E-05   -0.12685E-04  5121   0.120E-02    0.116E-02
RMM:   9    -0.413217626091E+03    0.13615E-04   -0.18288E-05  4418   0.581E-03    0.458E-03
RMM:  10    -0.413217622266E+03    0.38256E-05   -0.36307E-06  2780   0.248E-03    0.275E-03
RMM:  11    -0.413217616746E+03    0.55202E-05   -0.13255E-06  2498   0.188E-03    0.152E-03
RMM:  12    -0.413217610833E+03    0.59122E-05   -0.67667E-07  2444   0.142E-03    0.680E-04
RMM:  13    -0.413217607114E+03    0.37197E-05   -0.33189E-07  1976   0.983E-04    0.315E-04
RMM:  14    -0.413217603653E+03    0.34605E-05   -0.19048E-07  1545   0.780E-04    0.182E-04
RMM:  15    -0.413217598978E+03    0.46756E-05   -0.13596E-07  1356   0.716E-04    0.121E-04
RMM:  16    -0.413217595788E+03    0.31893E-05   -0.88061E-08  1154   0.660E-04    0.894E-05
RMM:  17    -0.413217591342E+03    0.44465E-05   -0.84369E-08  1360   0.665E-04    0.608E-05
RMM:  18    -0.413217589124E+03    0.22181E-05   -0.51716E-08  1093   0.590E-04    0.493E-05
RMM:  19    -0.413217587117E+03    0.20066E-05   -0.35901E-08   975   0.565E-04    0.267E-05
RMM:  20    -0.413217586893E+03    0.22428E-06   -0.17855E-08   728   0.523E-04
   45 T=    71. E= -.41286697E+03 F= -.41321759E+03 E0= -.41319663E+03  EK= 0.35062E+00 SP= 0.00E+00 SK= 0.00E+00
       N       E                     dE             d eps       ncg     rms          rms(c)
RMM:   1    -0.413246639716E+03   -0.29053E-01   -0.10396E+01  4311   0.151E+00    0.953E-01
RMM:   2    -0.413221596086E+03    0.25044E-01   -0.16557E-01  4325   0.178E-01    0.696E-01
RMM:   3    -0.413227802214E+03   -0.62061E-02   -0.23241E-02  5104   0.114E-01    0.462E-01
RMM:   4    -0.413240745460E+03   -0.12943E-01   -0.46057E-02  5042   0.186E-01    0.640E-01
RMM:   5    -0.413217084371E+03    0.23661E-01   -0.86250E-03  4637   0.107E-01    0.594E-02
RMM:   6    -0.413217052783E+03    0.31589E-04   -0.18212E-03  5552   0.412E-02    0.341E-02
RMM:   7    -0.413217044129E+03    0.86534E-05   -0.33462E-04  5579   0.178E-02    0.226E-02
RMM:   8    -0.413217033147E+03    0.10982E-04   -0.12442E-04  5073   0.118E-02    0.106E-02
RMM:   9    -0.413217020571E+03    0.12577E-04   -0.15280E-05  4271   0.548E-03    0.435E-03
RMM:  10    -0.413217017188E+03    0.33832E-05   -0.28447E-06  2706   0.229E-03    0.254E-03
RMM:  11    -0.413217011977E+03    0.52105E-05   -0.11819E-06  2485   0.178E-03    0.135E-03
RMM:  12    -0.413217006744E+03    0.52335E-05   -0.61728E-07  2413   0.134E-03    0.653E-04
RMM:  13    -0.413217003333E+03    0.34102E-05   -0.29805E-07  1893   0.933E-04    0.307E-04
RMM:  14    -0.413217000163E+03    0.31707E-05   -0.16916E-07  1429   0.738E-04    0.172E-04
RMM:  15    -0.413216995760E+03    0.44031E-05   -0.12658E-07  1278   0.695E-04    0.120E-04
RMM:  16    -0.413216993116E+03    0.26441E-05   -0.81817E-08  1117   0.643E-04    0.899E-05
RMM:  17    -0.413216988580E+03    0.45356E-05   -0.85168E-08  1377   0.665E-04    0.659E-05
RMM:  18    -0.413216986858E+03    0.17218E-05   -0.44128E-08   984   0.567E-04    0.417E-05
RMM:  19    -0.413216985301E+03    0.15568E-05   -0.33248E-08   921   0.549E-04    0.231E-05
RMM:  20    -0.413216984853E+03    0.44834E-06   -0.18756E-08   744   0.520E-04
   46 T=    71. E= -.41286692E+03 F= -.41321698E+03 E0= -.41319604E+03  EK= 0.35007E+00 SP= 0.00E+00 SK= 0.00E+00
       N       E                     dE             d eps       ncg     rms          rms(c)
RMM:   1    -0.413231420629E+03   -0.14435E-01   -0.10280E+01  4312   0.151E+00    0.943E-01
RMM:   2    -0.413220527610E+03    0.10893E-01   -0.16014E-01  4341   0.183E-01    0.705E-01
RMM:   3    -0.413228887943E+03   -0.83603E-02   -0.26440E-02  5099   0.126E-01    0.502E-01
RMM:   4    -0.413237612148E+03   -0.87242E-02   -0.47283E-02  5031   0.190E-01    0.615E-01
RMM:   5    -0.413215582410E+03    0.22030E-01   -0.75450E-03  4607   0.104E-01    0.584E-02
RMM:   6    -0.413215528597E+03    0.53813E-04   -0.15888E-03  5462   0.390E-02    0.320E-02
RMM:   7    -0.413215523546E+03    0.50503E-05   -0.29238E-04  5589   0.169E-02    0.214E-02
RMM:   8    -0.413215513084E+03    0.10462E-04   -0.12859E-04  5078   0.119E-02    0.104E-02
RMM:   9    -0.413215501323E+03    0.11761E-04   -0.14768E-05  4228   0.546E-03    0.423E-03
RMM:  10    -0.413215499121E+03    0.22024E-05   -0.28929E-06  2726   0.228E-03    0.244E-03
RMM:  11    -0.413215495470E+03    0.36508E-05   -0.12433E-06  2493   0.180E-03    0.127E-03
RMM:  12    -0.413215492135E+03    0.33347E-05   -0.61956E-07  2397   0.133E-03    0.664E-04
RMM:  13    -0.413215489587E+03    0.25483E-05   -0.30784E-07  1849   0.939E-04    0.316E-04
RMM:  14    -0.413215487032E+03    0.25548E-05   -0.17939E-07  1408   0.748E-04    0.172E-04
RMM:  15    -0.413215483961E+03    0.30716E-05   -0.13800E-07  1322   0.706E-04    0.118E-04
RMM:  16    -0.413215481975E+03    0.19853E-05   -0.87185E-08  1154   0.644E-04    0.931E-05
RMM:  17    -0.413215478320E+03    0.36555E-05   -0.94228E-08  1336   0.662E-04    0.620E-05
RMM:  18    -0.413215476967E+03    0.13532E-05   -0.45487E-08   962   0.567E-04    0.425E-05
RMM:  19    -0.413215476018E+03    0.94883E-06   -0.27511E-08   818   0.537E-04
   47 T=    71. E= -.41286707E+03 F= -.41321548E+03 E0= -.41319455E+03  EK= 0.34840E+00 SP= 0.00E+00 SK= 0.00E+00
       N       E                     dE             d eps       ncg     rms          rms(c)
RMM:   1    -0.413242127567E+03   -0.26651E-01   -0.10309E+01  4305   0.167E+00    0.960E-01
RMM:   2    -0.413217466665E+03    0.24661E-01   -0.17321E-01  4385   0.198E-01    0.702E-01
RMM:   3    -0.413232264199E+03   -0.14798E-01   -0.30088E-02  5135   0.142E-01    0.610E-01
RMM:   4    -0.413227177441E+03    0.50868E-02   -0.43373E-02  4994   0.185E-01    0.506E-01
RMM:   5    -0.413212864111E+03    0.14313E-01   -0.49849E-03  4556   0.921E-02    0.590E-02
RMM:   6    -0.413212758896E+03    0.10521E-03   -0.85303E-04  5004   0.318E-02    0.312E-02
RMM:   7    -0.413212744957E+03    0.13940E-04   -0.18598E-04  5660   0.136E-02    0.151E-02
RMM:   8    -0.413212747024E+03   -0.20677E-05   -0.11325E-04  5241   0.108E-02    0.125E-02
RMM:   9    -0.413212729933E+03    0.17092E-04   -0.24248E-05  4614   0.620E-03    0.462E-03
RMM:  10    -0.413212727263E+03    0.26698E-05   -0.35902E-06  2787   0.255E-03    0.247E-03
RMM:  11    -0.413212721377E+03    0.58858E-05   -0.15964E-06  2463   0.205E-03    0.140E-03
RMM:  12    -0.413212717432E+03    0.39446E-05   -0.67727E-07  2385   0.145E-03    0.823E-04
RMM:  13    -0.413212713345E+03    0.40872E-05   -0.32235E-07  1931   0.101E-03    0.443E-04
RMM:  14    -0.413212709004E+03    0.43415E-05   -0.16633E-07  1549   0.756E-04    0.258E-04
RMM:  15    -0.413212705224E+03    0.37800E-05   -0.98580E-08  1120   0.634E-04    0.148E-04
RMM:  16    -0.413212702422E+03    0.28017E-05   -0.70755E-08  1061   0.603E-04    0.119E-04
RMM:  17    -0.413212698823E+03    0.35989E-05   -0.69045E-08  1166   0.613E-04    0.841E-05
RMM:  18    -0.413212696521E+03    0.23023E-05   -0.40207E-08   939   0.564E-04    0.613E-05
RMM:  19    -0.413212695466E+03    0.10545E-05   -0.21540E-08   730   0.521E-04    0.394E-05
RMM:  20    -0.413212694433E+03    0.10335E-05   -0.18316E-08   708   0.517E-04    0.208E-05
RMM:  21    -0.413212694043E+03    0.38963E-06   -0.11244E-08   612   0.501E-04
   48 T=    70. E= -.41286738E+03 F= -.41321269E+03 E0= -.41319178E+03  EK= 0.34531E+00 SP= 0.00E+00 SK= 0.00E+00
[...]
RMM:   6    -0.413161792362E+03   -0.27517E-04   -0.23266E-03  5716   0.459E-02    0.221E-02
RMM:   7    -0.413161842999E+03   -0.50637E-04   -0.30589E-04  5970   0.147E-02    0.143E-02
RMM:   8    -0.413161869680E+03   -0.26681E-04   -0.55945E-05  5163   0.746E-03    0.768E-03
RMM:   9    -0.413161884842E+03   -0.15162E-04   -0.93897E-06  3267   0.348E-03    0.346E-03
RMM:  10    -0.413161899232E+03   -0.14391E-04   -0.31594E-06  2641   0.228E-03    0.238E-03
RMM:  11    -0.413161913567E+03   -0.14334E-04   -0.22654E-06  2584   0.193E-03    0.126E-03
RMM:  12    -0.413161923664E+03   -0.10097E-04   -0.16602E-06  2513   0.157E-03    0.495E-04
RMM:  13    -0.413161927771E+03   -0.41069E-05   -0.69614E-07  2043   0.106E-03    0.370E-04
RMM:  14    -0.413161931308E+03   -0.35376E-05   -0.57623E-07  2040   0.991E-04    0.229E-04
RMM:  15    -0.413161934209E+03   -0.29001E-05   -0.54110E-07  1847   0.930E-04    0.140E-04
RMM:  16    -0.413161935609E+03   -0.14002E-05   -0.28946E-07  1655   0.774E-04    0.898E-05
RMM:  17    -0.413161936116E+03   -0.50705E-06   -0.11755E-07  1149   0.590E-04
  138 T=    60. E= -.41286637E+03 F= -.41316194E+03 E0= -.41314122E+03  EK= 0.29557E+00 SP= 0.00E+00 SK= 0.00E+00
       N       E                     dE             d eps       ncg     rms          rms(c)
RMM:   1    -0.413154443842E+03    0.74918E-02   -0.83151E+00  4265   0.793E-01    0.763E-01
RMM:   2    -0.413160930471E+03   -0.64866E-02   -0.93868E-02  4308   0.904E-02    0.533E-01
RMM:   3    -0.413159786284E+03    0.11442E-02   -0.71447E-03  4948   0.414E-02    0.130E-01
RMM:   4    -0.413184085138E+03   -0.24299E-01   -0.25661E-02  5144   0.134E-01    0.652E-01
RMM:   5    -0.413159500287E+03    0.24585E-01   -0.12189E-02  4816   0.109E-01    0.462E-02
RMM:   6    -0.413159520743E+03   -0.20456E-04   -0.20057E-03  5718   0.427E-02    0.251E-02
RMM:   7    -0.413159559961E+03   -0.39218E-04   -0.28621E-04  5905   0.146E-02    0.147E-02
RMM:   8    -0.413159577441E+03   -0.17479E-04   -0.54254E-05  5127   0.762E-03    0.762E-03
RMM:   9    -0.413159584819E+03   -0.73781E-05   -0.80054E-06  3179   0.332E-03    0.374E-03
RMM:  10    -0.413159594872E+03   -0.10054E-04   -0.29292E-06  2627   0.228E-03    0.251E-03
RMM:  11    -0.413159603326E+03   -0.84539E-05   -0.20204E-06  2558   0.187E-03    0.126E-03
RMM:  12    -0.413159609131E+03   -0.58052E-05   -0.16737E-06  2529   0.157E-03    0.533E-04
RMM:  13    -0.413159611265E+03   -0.21333E-05   -0.69898E-07  2095   0.108E-03    0.393E-04
RMM:  14    -0.413159612540E+03   -0.12752E-05   -0.46364E-07  1890   0.931E-04    0.226E-04
RMM:  15    -0.413159613539E+03   -0.99867E-06   -0.47415E-07  1849   0.909E-04
  139 T=    60. E= -.41286603E+03 F= -.41315961E+03 E0= -.41313891E+03  EK= 0.29359E+00 SP= 0.00E+00 SK= 0.00E+00
       N       E                     dE             d eps       ncg     rms          rms(c)
RMM:   1    -0.413155947994E+03    0.36645E-02   -0.81065E+00  4264   0.787E-01    0.737E-01
RMM:   2    -0.413162723602E+03   -0.67756E-02   -0.92891E-02  4316   0.873E-02    0.535E-01
RMM:   3    -0.413161247977E+03    0.14756E-02   -0.74125E-03  4954   0.394E-02    0.108E-01
RMM:   4    -0.413181555570E+03   -0.20308E-01   -0.21304E-02  5142   0.122E-01    0.597E-01
RMM:   5    -0.413161047646E+03    0.20508E-01   -0.10228E-02  4817   0.993E-02    0.435E-02
RMM:   6    -0.413161055213E+03   -0.75670E-05   -0.16677E-03  5711   0.393E-02    0.244E-02
RMM:   7    -0.413161097639E+03   -0.42426E-04   -0.25251E-04  5856   0.137E-02    0.137E-02
RMM:   8    -0.413161119385E+03   -0.21746E-04   -0.49893E-05  5080   0.738E-03    0.720E-03
RMM:   9    -0.413161128564E+03   -0.91792E-05   -0.68452E-06  3075   0.311E-03    0.359E-03
RMM:  10    -0.413161141508E+03   -0.12944E-04   -0.26606E-06  2599   0.220E-03    0.240E-03
RMM:  11    -0.413161152862E+03   -0.11354E-04   -0.18711E-06  2539   0.180E-03    0.119E-03
RMM:  12    -0.413161160697E+03   -0.78347E-05   -0.14530E-06  2497   0.148E-03    0.542E-04
RMM:  13    -0.413161163783E+03   -0.30864E-05   -0.66499E-07  2002   0.104E-03    0.382E-04
RMM:  14    -0.413161165722E+03   -0.19384E-05   -0.48479E-07  1835   0.920E-04    0.227E-04
RMM:  15    -0.413161166910E+03   -0.11882E-05   -0.42935E-07  1799   0.867E-04    0.164E-04
RMM:  16    -0.413161167557E+03   -0.64730E-06   -0.37828E-07  1675   0.817E-04
  140 T=    60. E= -.41286654E+03 F= -.41316117E+03 E0= -.41314048E+03  EK= 0.29462E+00 SP= 0.00E+00 SK= 0.00E+00
       N       E                     dE             d eps       ncg     rms          rms(c)
RMM:   1    -0.413157518571E+03    0.36483E-02   -0.80539E+00  4265   0.787E-01    0.745E-01
RMM:   2    -0.413164077317E+03   -0.65587E-02   -0.91956E-02  4310   0.899E-02    0.543E-01
RMM:   3    -0.413162109127E+03    0.19682E-02   -0.81995E-03  4819   0.411E-02    0.880E-02
RMM:   4    -0.413174971988E+03   -0.12863E-01   -0.13333E-02  5147   0.968E-02    0.477E-01
RMM:   5    -0.413162035085E+03    0.12937E-01   -0.65369E-03  4826   0.793E-02    0.396E-02
RMM:   6    -0.413162036193E+03   -0.11086E-05   -0.11079E-03  5709   0.325E-02    0.247E-02
RMM:   7    -0.413162077793E+03   -0.41600E-04   -0.20023E-04  5724   0.124E-02    0.126E-02
RMM:   8    -0.413162095754E+03   -0.17960E-04   -0.40688E-05  4963   0.681E-03    0.667E-03
RMM:   9    -0.413162102458E+03   -0.67048E-05   -0.43672E-06  2865   0.264E-03    0.349E-03
RMM:  10    -0.413162115099E+03   -0.12640E-04   -0.21916E-06  2559   0.203E-03    0.219E-03
RMM:  11    -0.413162124974E+03   -0.98750E-05   -0.15875E-06  2521   0.161E-03    0.104E-03
RMM:  12    -0.413162131289E+03   -0.63153E-05   -0.12023E-06  2446   0.132E-03    0.538E-04
RMM:  13    -0.413162134167E+03   -0.28782E-05   -0.70935E-07  1968   0.101E-03    0.347E-04
RMM:  14    -0.413162135296E+03   -0.11286E-05   -0.43043E-07  1670   0.865E-04    0.243E-04
RMM:  15    -0.413162135570E+03   -0.27445E-06   -0.43846E-07  1854   0.866E-04
  141 T=    60. E= -.41286618E+03 F= -.41316214E+03 E0= -.41314146E+03  EK= 0.29596E+00 SP= 0.00E+00 SK= 0.00E+00
       N       E                     dE             d eps       ncg     rms          rms(c)
RMM:   1    -0.413156984811E+03    0.51505E-02   -0.79657E+00  4264   0.788E-01    0.765E-01
RMM:   2    -0.413162380976E+03   -0.53962E-02   -0.89369E-02  4304   0.894E-02    0.537E-01
RMM:   3    -0.413160770670E+03    0.16103E-02   -0.85269E-03  4763   0.395E-02    0.934E-02
RMM:   4    -0.413169550100E+03   -0.87794E-02   -0.91928E-03  5157   0.806E-02    0.395E-01
RMM:   5    -0.413160765572E+03    0.87845E-02   -0.45171E-03  4835   0.660E-02    0.399E-02
RMM:   6    -0.413160763413E+03    0.21584E-05   -0.83596E-04  5632   0.288E-02    0.269E-02
RMM:   7    -0.413160789297E+03   -0.25884E-04   -0.18976E-04  5567   0.123E-02    0.128E-02
RMM:   8    -0.413160795852E+03   -0.65549E-05   -0.35380E-05  4923   0.657E-03    0.671E-03
RMM:   9    -0.413160798376E+03   -0.25245E-05   -0.34139E-06  2780   0.238E-03    0.355E-03
RMM:  10    -0.413160804740E+03   -0.63638E-05   -0.19603E-06  2539   0.194E-03    0.202E-03
RMM:  11    -0.413160808044E+03   -0.33042E-05   -0.13227E-06  2498   0.151E-03    0.967E-04
RMM:  12    -0.413160809144E+03   -0.10998E-05   -0.10329E-06  2377   0.126E-03    0.518E-04
RMM:  13    -0.413160808579E+03    0.56508E-06   -0.74864E-07  2072   0.104E-03
  142 T=    60. E= -.41286642E+03 F= -.41316081E+03 E0= -.41314014E+03  EK= 0.29439E+00 SP= 0.00E+00 SK= 0.00E+00
       N       E                     dE             d eps       ncg     rms          rms(c)
RMM:   1    -0.413156594216E+03    0.42149E-02   -0.78454E+00  4264   0.788E-01    0.743E-01
RMM:   2    -0.413162225958E+03   -0.56317E-02   -0.88320E-02  4302   0.888E-02    0.532E-01
RMM:   3    -0.413160504096E+03    0.17219E-02   -0.84507E-03  4518   0.393E-02    0.753E-02
RMM:   4    -0.413160740428E+03   -0.23633E-03   -0.72403E-04  5209   0.218E-02    0.638E-02
RMM:   5    -0.413160603493E+03    0.13693E-03   -0.19591E-04  4928   0.144E-02    0.412E-02
RMM:   6    -0.413160583281E+03    0.20213E-04   -0.19178E-04  5197   0.143E-02    0.253E-02
RMM:   7    -0.413160616556E+03   -0.33275E-04   -0.13724E-04  5016   0.997E-03    0.138E-02
RMM:   8    -0.413160615916E+03    0.63991E-06   -0.12174E-05  3944   0.471E-03    0.679E-03
RMM:   9    -0.413160618499E+03   -0.25824E-05   -0.39512E-06  2554   0.227E-03    0.255E-03
RMM:  10    -0.413160627803E+03   -0.93042E-05   -0.24288E-06  2526   0.204E-03    0.125E-03
RMM:  11    -0.413160635490E+03   -0.76870E-05   -0.24614E-06  2524   0.179E-03    0.708E-04
RMM:  12    -0.413160636649E+03   -0.11593E-05   -0.66919E-07  2178   0.108E-03    0.540E-04
RMM:  13    -0.413160636884E+03   -0.23509E-06   -0.61243E-07  1988   0.953E-04
  143 T=    60. E= -.41286640E+03 F= -.41316064E+03 E0= -.41313998E+03  EK= 0.29424E+00 SP= 0.00E+00 SK= 0.00E+00
       N       E                     dE             d eps       ncg     rms          rms(c)
RMM:   1    -0.413158300768E+03    0.23359E-02   -0.79271E+00  4264   0.792E-01    0.742E-01
RMM:   2    -0.413164310556E+03   -0.60098E-02   -0.89428E-02  4311   0.880E-02    0.542E-01
RMM:   3    -0.413162301013E+03    0.20095E-02   -0.90210E-03  4565   0.395E-02    0.611E-02
RMM:   4    -0.413162392709E+03   -0.91696E-04   -0.54728E-04  5150   0.193E-02    0.385E-02
RMM:   5    -0.413162446622E+03   -0.53912E-04   -0.17755E-04  4996   0.139E-02    0.471E-02
RMM:   6    -0.413162384862E+03    0.61760E-04   -0.12493E-04  5280   0.112E-02    0.264E-02
RMM:   7    -0.413162425016E+03   -0.40154E-04   -0.14179E-04  4998   0.101E-02    0.137E-02
RMM:   8    -0.413162425401E+03   -0.38530E-06   -0.11859E-05  3932   0.463E-03    0.679E-03
RMM:   9    -0.413162428451E+03   -0.30495E-05   -0.36993E-06  2541   0.224E-03    0.264E-03
RMM:  10    -0.413162442867E+03   -0.14417E-04   -0.25742E-06  2526   0.204E-03    0.112E-03
RMM:  11    -0.413162455612E+03   -0.12745E-04   -0.26540E-06  2546   0.179E-03    0.627E-04
RMM:  12    -0.413162458129E+03   -0.25163E-05   -0.70391E-07  2176   0.107E-03    0.541E-04
RMM:  13    -0.413162460319E+03   -0.21902E-05   -0.10202E-06  2180   0.109E-03    0.467E-04
RMM:  14    -0.413162460126E+03    0.19294E-06   -0.60373E-07  1638   0.859E-04
  144 T=    60. E= -.41286634E+03 F= -.41316246E+03 E0= -.41314181E+03  EK= 0.29612E+00 SP= 0.00E+00 SK= 0.00E+00
       N       E                     dE             d eps       ncg     rms          rms(c)
RMM:   1    -0.413157901291E+03    0.45590E-02   -0.79887E+00  4264   0.797E-01    0.763E-01
RMM:   2    -0.413163247302E+03   -0.53460E-02   -0.87941E-02  4322   0.858E-02    0.537E-01
RMM:   3    -0.413161779747E+03    0.14676E-02   -0.85967E-03  4694   0.365E-02    0.818E-02
RMM:   4    -0.413163891985E+03   -0.21122E-02   -0.25368E-03  5203   0.434E-02    0.194E-01
RMM:   5    -0.413161846175E+03    0.20458E-02   -0.11111E-03  4843   0.335E-02    0.373E-02
RMM:   6    -0.413161843621E+03    0.25544E-05   -0.34297E-04  5448   0.191E-02    0.261E-02
RMM:   7    -0.413161875443E+03   -0.31822E-04   -0.14851E-04  5278   0.104E-02    0.135E-02
RMM:   8    -0.413161875858E+03   -0.41509E-06   -0.18639E-05  4456   0.519E-03    0.659E-03
RMM:   9    -0.413161878612E+03   -0.27537E-05   -0.37522E-06  2613   0.222E-03    0.275E-03
RMM:  10    -0.413161886131E+03   -0.75196E-05   -0.19783E-06  2531   0.192E-03    0.148E-03
RMM:  11    -0.413161891905E+03   -0.57741E-05   -0.19827E-06  2529   0.170E-03    0.811E-04
RMM:  12    -0.413161893299E+03   -0.13935E-05   -0.85333E-07  2266   0.117E-03    0.432E-04
RMM:  13    -0.413161893462E+03   -0.16341E-06   -0.75459E-07  2097   0.102E-03
  145 T=    60. E= -.41286664E+03 F= -.41316189E+03 E0= -.41314125E+03  EK= 0.29526E+00 SP= 0.00E+00 SK= 0.00E+00
       N       E                     dE             d eps       ncg     rms          rms(c)
RMM:   1    -0.413156009242E+03    0.58841E-02   -0.80274E+00  4264   0.804E-01    0.753E-01
RMM:   2    -0.413161639767E+03   -0.56305E-02   -0.87733E-02  4323   0.864E-02    0.529E-01
RMM:   3    -0.413160160939E+03    0.14788E-02   -0.80567E-03  4679   0.357E-02    0.845E-02
RMM:   4    -0.413160749585E+03   -0.58865E-03   -0.11063E-03  5212   0.284E-02    0.102E-01
RMM:   5    -0.413160239060E+03    0.51053E-03   -0.36147E-04  4900   0.197E-02    0.383E-02
RMM:   6    -0.413160229130E+03    0.99300E-05   -0.22839E-04  5267   0.158E-02    0.255E-02
RMM:   7    -0.413160260538E+03   -0.31408E-04   -0.13306E-04  5082   0.947E-03    0.135E-02
RMM:   8    -0.413160259565E+03    0.97271E-06   -0.11752E-05  3939   0.448E-03    0.669E-03
RMM:   9    -0.413160262393E+03   -0.28282E-05   -0.39649E-06  2565   0.227E-03    0.256E-03
RMM:  10    -0.413160271034E+03   -0.86406E-05   -0.25153E-06  2552   0.209E-03    0.138E-03
RMM:  11    -0.413160277919E+03   -0.68846E-05   -0.23181E-06  2539   0.180E-03    0.779E-04
RMM:  12    -0.413160279578E+03   -0.16589E-05   -0.80011E-07  2233   0.115E-03    0.488E-04
RMM:  13    -0.413160280348E+03   -0.77020E-06   -0.78171E-07  2116   0.103E-03
  146 T=    60. E= -.41286616E+03 F= -.41316028E+03 E0= -.41313965E+03  EK= 0.29412E+00 SP= 0.00E+00 SK= 0.00E+00
       N       E                     dE             d eps       ncg     rms          rms(c)
RMM:   1    -0.413157437311E+03    0.28423E-02   -0.81891E+00  4264   0.807E-01    0.740E-01
RMM:   2    -0.413164161601E+03   -0.67243E-02   -0.90331E-02  4325   0.870E-02    0.537E-01
RMM:   3    -0.413162384767E+03    0.17768E-02   -0.78628E-03  4861   0.366E-02    0.819E-02
RMM:   4    -0.413170070601E+03   -0.76858E-02   -0.80205E-03  5161   0.758E-02    0.369E-01
RMM:   5    -0.413162362641E+03    0.77080E-02   -0.39335E-03  4835   0.614E-02    0.380E-02
RMM:   6    -0.413162360160E+03    0.24814E-05   -0.72270E-04  5639   0.264E-02    0.240E-02
RMM:   7    -0.413162411249E+03   -0.51089E-04   -0.16098E-04  5578   0.107E-02    0.112E-02
RMM:   8    -0.413162425534E+03   -0.14285E-04   -0.28280E-05  4814   0.583E-03    0.615E-03
RMM:   9    -0.413162432725E+03   -0.71907E-05   -0.29802E-06  2700   0.235E-03    0.317E-03
RMM:  10    -0.413162449014E+03   -0.16290E-04   -0.22797E-06  2570   0.204E-03    0.180E-03
RMM:  11    -0.413162462642E+03   -0.13628E-04   -0.19010E-06  2550   0.168E-03    0.872E-04
RMM:  12    -0.413162470031E+03   -0.73887E-05   -0.10986E-06  2389   0.126E-03    0.513E-04
RMM:  13    -0.413162475099E+03   -0.50678E-05   -0.85847E-07  2048   0.104E-03    0.333E-04
RMM:  14    -0.413162477975E+03   -0.28758E-05   -0.65110E-07  1805   0.931E-04    0.282E-04
RMM:  15    -0.413162479536E+03   -0.15611E-05   -0.59594E-07  1792   0.916E-04    0.126E-04
RMM:  16    -0.413162479758E+03   -0.22244E-06   -0.23656E-07  1336   0.684E-04
  147 T=    60. E= -.41286635E+03 F= -.41316248E+03 E0= -.41314185E+03  EK= 0.29613E+00 SP= 0.00E+00 SK= 0.00E+00
       N       E                     dE             d eps       ncg     rms          rms(c)
RMM:   1    -0.413157159690E+03    0.53198E-02   -0.83773E+00  4264   0.817E-01    0.758E-01
RMM:   2    -0.413163693910E+03   -0.65342E-02   -0.90709E-02  4323   0.884E-02    0.535E-01
RMM:   3    -0.413162560184E+03    0.11337E-02   -0.73956E-03  4971   0.393E-02    0.111E-01
RMM:   4    -0.413181964668E+03   -0.19404E-01   -0.20250E-02  5142   0.119E-01    0.583E-01
RMM:   5    -0.413162335519E+03    0.19629E-01   -0.98129E-03  4821   0.966E-02    0.459E-02
RMM:   6    -0.413162355479E+03   -0.19960E-04   -0.16174E-03  5692   0.385E-02    0.242E-02
RMM:   7    -0.413162400009E+03   -0.44530E-04   -0.23985E-04  5821   0.131E-02    0.125E-02
RMM:   8    -0.413162419003E+03   -0.18994E-04   -0.41914E-05  5082   0.670E-03    0.697E-03
RMM:   9    -0.413162426416E+03   -0.74133E-05   -0.62896E-06  3068   0.303E-03    0.348E-03
RMM:  10    -0.413162439319E+03   -0.12903E-04   -0.28241E-06  2596   0.230E-03    0.226E-03
RMM:  11    -0.413162450264E+03   -0.10945E-04   -0.19515E-06  2545   0.184E-03    0.112E-03
RMM:  12    -0.413162457188E+03   -0.69244E-05   -0.13029E-06  2480   0.140E-03    0.563E-04
RMM:  13    -0.413162460589E+03   -0.34012E-05   -0.70742E-07  2008   0.103E-03    0.368E-04
RMM:  14    -0.413162462738E+03   -0.21484E-05   -0.50343E-07  1735   0.909E-04    0.233E-04
RMM:  15    -0.413162464212E+03   -0.14746E-05   -0.50760E-07  1881   0.902E-04    0.145E-04
RMM:  16    -0.413162464798E+03   -0.58565E-06   -0.31496E-07  1554   0.762E-04
  148 T=    60. E= -.41286638E+03 F= -.41316246E+03 E0= -.41314184E+03  EK= 0.29609E+00 SP= 0.00E+00 SK= 0.00E+00
       N       E                     dE             d eps       ncg     rms          rms(c)
RMM:   1    -0.413154780569E+03    0.76836E-02   -0.85155E+00  4264   0.824E-01    0.765E-01
RMM:   2    -0.413161177565E+03   -0.63970E-02   -0.91039E-02  4323   0.882E-02    0.526E-01
RMM:   3    -0.413160689121E+03    0.48844E-03   -0.70602E-03  5023   0.398E-02    0.130E-01
RMM:   4    -0.413183923775E+03   -0.23235E-01   -0.24584E-02  5137   0.131E-01    0.637E-01
RMM:   5    -0.413160347344E+03    0.23576E-01   -0.11716E-02  4822   0.106E-01    0.492E-02
RMM:   6    -0.413160366265E+03   -0.18920E-04   -0.19087E-03  5681   0.419E-02    0.238E-02
RMM:   7    -0.413160408639E+03   -0.42374E-04   -0.27345E-04  5895   0.138E-02    0.132E-02
RMM:   8    -0.413160424710E+03   -0.16070E-04   -0.45953E-05  5181   0.692E-03    0.727E-03
RMM:   9    -0.413160431265E+03   -0.65549E-05   -0.71753E-06  3146   0.318E-03    0.349E-03
RMM:  10    -0.413160440874E+03   -0.96096E-05   -0.28805E-06  2593   0.231E-03    0.232E-03
RMM:  11    -0.413160449588E+03   -0.87136E-05   -0.20014E-06  2541   0.185E-03    0.120E-03
RMM:  12    -0.413160455167E+03   -0.55791E-05   -0.13612E-06  2481   0.143E-03    0.551E-04
RMM:  13    -0.413160457447E+03   -0.22804E-05   -0.61896E-07  1980   0.101E-03    0.376E-04
RMM:  14    -0.413160459326E+03   -0.18784E-05   -0.55363E-07  1838   0.943E-04    0.231E-04
RMM:  15    -0.413160460457E+03   -0.11314E-05   -0.46144E-07  1769   0.875E-04    0.136E-04
RMM:  16    -0.413160461036E+03   -0.57904E-06   -0.32571E-07  1676   0.789E-04
  149 T=    60. E= -.41286623E+03 F= -.41316046E+03 E0= -.41313984E+03  EK= 0.29423E+00 SP= 0.00E+00 SK= 0.00E+00
       N       E                     dE             d eps       ncg     rms          rms(c)
RMM:   1    -0.413155550806E+03    0.49097E-02   -0.86246E+00  4264   0.831E-01    0.741E-01
RMM:   2    -0.413163233280E+03   -0.76825E-02   -0.94116E-02  4319   0.892E-02    0.528E-01
RMM:   3    -0.413162630195E+03    0.60309E-03   -0.63187E-03  5078   0.405E-02    0.137E-01
RMM:   4    -0.413189458612E+03   -0.26828E-01   -0.29040E-02  5137   0.142E-01    0.684E-01
RMM:   5    -0.413162127406E+03    0.27331E-01   -0.13448E-02  4816   0.114E-01    0.498E-02
RMM:   6    -0.413162156815E+03   -0.29410E-04   -0.21631E-03  5680   0.445E-02    0.202E-02
RMM:   7    -0.413162208128E+03   -0.51313E-04   -0.29202E-04  5937   0.140E-02    0.127E-02
RMM:   8    -0.413162233168E+03   -0.25040E-04   -0.47477E-05  5210   0.687E-03    0.724E-03
RMM:   9    -0.413162247319E+03   -0.14151E-04   -0.80880E-06  3174   0.327E-03    0.328E-03
RMM:  10    -0.413162262193E+03   -0.14874E-04   -0.29086E-06  2598   0.227E-03    0.221E-03
RMM:  11    -0.413162278733E+03   -0.16540E-04   -0.21653E-06  2553   0.187E-03    0.126E-03
RMM:  12    -0.413162290363E+03   -0.11630E-04   -0.14646E-06  2488   0.145E-03    0.525E-04
RMM:  13    -0.413162295150E+03   -0.47870E-05   -0.57583E-07  1916   0.988E-04    0.367E-04
RMM:  14    -0.413162300750E+03   -0.56002E-05   -0.63623E-07  1942   0.981E-04    0.237E-04
RMM:  15    -0.413162304627E+03   -0.38767E-05   -0.48795E-07  1732   0.878E-04    0.127E-04
RMM:  16    -0.413162306829E+03   -0.22025E-05   -0.28962E-07  1618   0.766E-04    0.765E-05
RMM:  17    -0.413162307630E+03   -0.80084E-06   -0.11663E-07  1158   0.599E-04
  150 T=    60. E= -.41286653E+03 F= -.41316231E+03 E0= -.41314169E+03  EK= 0.29578E+00 SP= 0.00E+00 SK= 0.00E+00
