       N       E                     dE             d eps       ncg     rms          rms(c)
RMM:   1     0.220131529745E+04    0.22013E+04   -0.52442E+04  2132   0.654E+02
RMM:   2     0.705304240003E+03   -0.14960E+04   -0.16261E+04  2132   0.177E+02
RMM:   3     0.137467978902E+03   -0.56784E+03   -0.65707E+03  2132   0.117E+02
RMM:   4    -0.159412047328E+03   -0.29688E+03   -0.27865E+03  2132   0.936E+01
RMM:   5    -0.287432506243E+03   -0.12802E+03   -0.11449E+03  2132   0.595E+01
RMM:   6    -0.349702217649E+03   -0.62270E+02   -0.55103E+02  2132   0.423E+01
RMM:   7    -0.382595942946E+03   -0.32894E+02   -0.30414E+02  2132   0.293E+01
RMM:   8    -0.404074650391E+03   -0.21479E+02   -0.18496E+02  2132   0.233E+01
RMM:   9    -0.436008905149E+03   -0.31934E+02   -0.30838E+02  6109   0.174E+01
RMM:  10    -0.441343053294E+03   -0.53341E+01   -0.63534E+01  6397   0.540E+00
RMM:  11    -0.442514082879E+03   -0.11710E+01   -0.11001E+01  6213   0.173E+00
RMM:  12    -0.442879050050E+03   -0.36497E+00   -0.25479E+00  6368   0.597E-01    0.134E+02
RMM:  13    -0.425595784076E+03    0.17283E+02   -0.81290E+01  4675   0.119E+01    0.712E+01
RMM:  14    -0.499669377053E+03   -0.74074E+02   -0.54091E+02  5417   0.232E+01    0.307E+01
RMM:  15    -0.417514095211E+03    0.82155E+02   -0.20352E+02  5115   0.164E+01    0.812E+00
RMM:  16    -0.414010317011E+03    0.35038E+01   -0.40145E+01  6101   0.619E+00    0.432E+00
RMM:  17    -0.413198718710E+03    0.81160E+00   -0.27585E+00  5420   0.194E+00    0.243E+00
RMM:  18    -0.413179115180E+03    0.19604E-01   -0.74720E-01  6006   0.870E-01    0.172E+00
RMM:  19    -0.413176968491E+03    0.21467E-02   -0.25426E-01  5643   0.550E-01    0.948E-01
RMM:  20    -0.413196985821E+03   -0.20017E-01   -0.36360E-01  5607   0.610E-01    0.708E-01
RMM:  21    -0.413171559108E+03    0.25427E-01   -0.38763E-02  4982   0.257E-01    0.352E-01
RMM:  22    -0.413165995198E+03    0.55639E-02   -0.34062E-02  5758   0.183E-01    0.149E-01
RMM:  23    -0.413165203758E+03    0.79144E-03   -0.58178E-03  5851   0.687E-02    0.883E-02
RMM:  24    -0.413163879204E+03    0.13246E-02   -0.20193E-03  5405   0.433E-02    0.555E-02
RMM:  25    -0.413163047624E+03    0.83158E-03   -0.10020E-03  4938   0.302E-02    0.426E-02
RMM:  26    -0.413163082077E+03   -0.34453E-04   -0.12688E-03  5794   0.357E-02    0.355E-02
RMM:  27    -0.413163488564E+03   -0.40649E-03   -0.23326E-04  4562   0.207E-02    0.209E-02
RMM:  28    -0.413163876287E+03   -0.38772E-03   -0.16467E-04  5096   0.168E-02    0.941E-03
RMM:  29    -0.413164270017E+03   -0.39373E-03   -0.11457E-04  4641   0.158E-02    0.451E-03
RMM:  30    -0.413164544306E+03   -0.27429E-03   -0.96116E-05  4460   0.122E-02    0.477E-03
RMM:  31    -0.413164683745E+03   -0.13944E-03   -0.63868E-05  3349   0.771E-03    0.373E-03
RMM:  32    -0.413164708775E+03   -0.25030E-04   -0.23850E-05  3001   0.326E-03    0.250E-03
RMM:  33    -0.413164719356E+03   -0.10581E-04   -0.10002E-05  2827   0.242E-03    0.830E-04
RMM:  34    -0.413164719658E+03   -0.30169E-06   -0.53204E-06  2601   0.153E-03
    1 T=    61. E= -.41286692E+03 F= -.41316472E+03 E0= -.41314222E+03  EK= 0.29780E+00 SP= 0.00E+00 SK= 0.00E+00
       N       E                     dE             d eps       ncg     rms          rms(c)
RMM:   1    -0.413169210536E+03   -0.44912E-02   -0.74642E+00  4018   0.549E-01    0.894E-01
RMM:   2    -0.413170387770E+03   -0.11772E-02   -0.93400E-02  3922   0.802E-02    0.659E-01
RMM:   3    -0.413165377757E+03    0.50100E-02   -0.32149E-02  4860   0.600E-02    0.169E-01
RMM:   4    -0.413185187071E+03   -0.19809E-01   -0.22879E-02  5187   0.127E-01    0.599E-01
RMM:   5    -0.413164253840E+03    0.20933E-01   -0.10112E-02  4832   0.101E-01    0.473E-02
RMM:   6    -0.413164418187E+03   -0.16435E-03   -0.19708E-03  5725   0.433E-02    0.346E-02
RMM:   7    -0.413164408826E+03    0.93616E-05   -0.39010E-04  5643   0.183E-02    0.207E-02
RMM:   8    -0.413164406735E+03    0.20912E-05   -0.41932E-05  5034   0.736E-03    0.837E-03
RMM:   9    -0.413164409620E+03   -0.28857E-05   -0.90325E-06  3314   0.314E-03    0.606E-03
RMM:  10    -0.413164414789E+03   -0.51689E-05   -0.20560E-06  2578   0.216E-03    0.345E-03
RMM:  11    -0.413164418930E+03   -0.41411E-05   -0.12272E-06  2515   0.163E-03    0.179E-03
RMM:  12    -0.413164424678E+03   -0.57479E-05   -0.12747E-06  2515   0.160E-03    0.764E-04
RMM:  13    -0.413164427353E+03   -0.26744E-05   -0.61133E-07  2281   0.114E-03    0.547E-04
RMM:  14    -0.413164427504E+03   -0.15098E-06   -0.33126E-07  1772   0.801E-04
    2 T=    61. E= -.41286671E+03 F= -.41316443E+03 E0= -.41314193E+03  EK= 0.29772E+00 SP= 0.00E+00 SK= 0.00E+00
       N       E                     dE             d eps       ncg     rms          rms(c)
RMM:   1    -0.413170188664E+03   -0.57613E-02   -0.74330E+00  4183   0.550E-01    0.909E-01
RMM:   2    -0.413170585681E+03   -0.39702E-03   -0.93310E-02  4002   0.796E-02    0.656E-01
RMM:   3    -0.413166426479E+03    0.41592E-02   -0.29903E-02  5016   0.610E-02    0.176E-01
RMM:   4    -0.413195017829E+03   -0.28591E-01   -0.33794E-02  5149   0.155E-01    0.717E-01
RMM:   5    -0.413164816414E+03    0.30201E-01   -0.13951E-02  4804   0.120E-01    0.512E-02
RMM:   6    -0.413165024142E+03   -0.20773E-03   -0.26135E-03  5724   0.503E-02    0.367E-02
RMM:   7    -0.413165008153E+03    0.15989E-04   -0.46787E-04  5646   0.203E-02    0.234E-02
RMM:   8    -0.413164998658E+03    0.94948E-05   -0.60849E-05  5258   0.898E-03    0.104E-02
RMM:   9    -0.413164996773E+03    0.18847E-05   -0.12467E-05  3807   0.390E-03    0.725E-03
RMM:  10    -0.413164996938E+03   -0.16468E-06   -0.22727E-06  2595   0.239E-03
    3 T=    61. E= -.41286708E+03 F= -.41316500E+03 E0= -.41314250E+03  EK= 0.29792E+00 SP= 0.00E+00 SK= 0.00E+00
       N       E                     dE             d eps       ncg     rms          rms(c)
RMM:   1    -0.413169581642E+03   -0.45849E-02   -0.73819E+00  4223   0.554E-01    0.895E-01
RMM:   2    -0.413170180215E+03   -0.59857E-03   -0.92886E-02  4232   0.785E-02    0.651E-01
RMM:   3    -0.413173789700E+03   -0.36095E-02   -0.35120E-02  5168   0.100E-01    0.406E-01
RMM:   4    -0.413181741484E+03   -0.79518E-02   -0.34739E-02  5085   0.162E-01    0.544E-01
RMM:   5    -0.413164751545E+03    0.16990E-01   -0.62582E-03  4615   0.908E-02    0.547E-02
RMM:   6    -0.413164750903E+03    0.64215E-06   -0.13007E-03  5339   0.363E-02    0.318E-02
RMM:   7    -0.413164759781E+03   -0.88788E-05   -0.26937E-04  5804   0.156E-02    0.184E-02
RMM:   8    -0.413164756849E+03    0.29320E-05   -0.44038E-05  5030   0.798E-03    0.716E-03
RMM:   9    -0.413164756026E+03    0.82341E-06   -0.50382E-06  2962   0.303E-03
    4 T=    61. E= -.41286682E+03 F= -.41316476E+03 E0= -.41314227E+03  EK= 0.29793E+00 SP= 0.00E+00 SK= 0.00E+00
       N       E                     dE             d eps       ncg     rms          rms(c)
RMM:   1    -0.413169588969E+03   -0.48321E-02   -0.74589E+00  4238   0.562E-01    0.891E-01
RMM:   2    -0.413170614170E+03   -0.10252E-02   -0.93698E-02  4103   0.777E-02    0.657E-01
RMM:   3    -0.413170062192E+03    0.55198E-03   -0.34687E-02  5112   0.845E-02    0.318E-01
RMM:   4    -0.413189969293E+03   -0.19907E-01   -0.37663E-02  5106   0.166E-01    0.660E-01
RMM:   5    -0.413164797370E+03    0.25172E-01   -0.10542E-02  4705   0.110E-01    0.541E-02
RMM:   6    -0.413164902763E+03   -0.10539E-03   -0.19820E-03  5609   0.445E-02    0.321E-02
RMM:   7    -0.413164914627E+03   -0.11865E-04   -0.35826E-04  5835   0.170E-02    0.199E-02
RMM:   8    -0.413164913591E+03    0.10360E-05   -0.49249E-05  5098   0.818E-03    0.784E-03
RMM:   9    -0.413164915327E+03   -0.17355E-05   -0.72896E-06  3210   0.328E-03    0.457E-03
RMM:  10    -0.413164920045E+03   -0.47186E-05   -0.18316E-06  2557   0.214E-03    0.284E-03
RMM:  11    -0.413164923863E+03   -0.38177E-05   -0.10120E-06  2511   0.159E-03    0.143E-03
RMM:  12    -0.413164928438E+03   -0.45747E-05   -0.10159E-06  2506   0.145E-03    0.658E-04
RMM:  13    -0.413164930761E+03   -0.23233E-05   -0.53151E-07  2204   0.109E-03    0.382E-04
RMM:  14    -0.413164931357E+03   -0.59544E-06   -0.24467E-07  1654   0.808E-04
    5 T=    61. E= -.41286685E+03 F= -.41316493E+03 E0= -.41314245E+03  EK= 0.29809E+00 SP= 0.00E+00 SK= 0.00E+00
       N       E                     dE             d eps       ncg     rms          rms(c)
RMM:   1    -0.413170483905E+03   -0.55531E-02   -0.74460E+00  4246   0.563E-01    0.906E-01
RMM:   2    -0.413170856502E+03   -0.37260E-03   -0.93501E-02  4029   0.768E-02    0.658E-01
RMM:   3    -0.413167189967E+03    0.36665E-02   -0.30563E-02  5032   0.622E-02    0.195E-01
RMM:   4    -0.413196370074E+03   -0.29180E-01   -0.35843E-02  5131   0.159E-01    0.729E-01
RMM:   5    -0.413165226749E+03    0.31143E-01   -0.14317E-02  4779   0.122E-01    0.523E-02
RMM:   6    -0.413165428012E+03   -0.20126E-03   -0.26103E-03  5695   0.505E-02    0.361E-02
RMM:   7    -0.413165416156E+03    0.11855E-04   -0.46160E-04  5669   0.199E-02    0.230E-02
RMM:   8    -0.413165407683E+03    0.84734E-05   -0.60643E-05  5238   0.890E-03    0.100E-02
RMM:   9    -0.413165405437E+03    0.22459E-05   -0.11617E-05  3745   0.383E-03    0.676E-03
RMM:  10    -0.413165405675E+03   -0.23737E-06   -0.21124E-06  2572   0.233E-03
    6 T=    61. E= -.41286707E+03 F= -.41316541E+03 E0= -.41314294E+03  EK= 0.29834E+00 SP= 0.00E+00 SK= 0.00E+00
       N       E                     dE             d eps       ncg     rms          rms(c)
RMM:   1    -0.413170150236E+03   -0.47448E-02   -0.74008E+00  4259   0.568E-01    0.901E-01
RMM:   2    -0.413170595424E+03   -0.44519E-03   -0.93081E-02  4252   0.782E-02    0.652E-01
RMM:   3    -0.413172889869E+03   -0.22944E-02   -0.33869E-02  5148   0.946E-02    0.376E-01
RMM:   4    -0.413184023098E+03   -0.11133E-01   -0.35174E-02  5076   0.162E-01    0.571E-01
RMM:   5    -0.413165145714E+03    0.18877E-01   -0.71093E-03  4646   0.948E-02    0.547E-02
RMM:   6    -0.413165167653E+03   -0.21939E-04   -0.14317E-03  5404   0.382E-02    0.324E-02
RMM:   7    -0.413165180456E+03   -0.12804E-04   -0.28753E-04  5826   0.160E-02    0.191E-02
RMM:   8    -0.413165173463E+03    0.69933E-05   -0.46700E-05  5040   0.827E-03    0.743E-03
RMM:   9    -0.413165171015E+03    0.24483E-05   -0.56657E-06  3014   0.318E-03    0.388E-03
RMM:  10    -0.413165170684E+03    0.33067E-06   -0.15085E-06  2526   0.201E-03
    7 T=    61. E= -.41286680E+03 F= -.41316517E+03 E0= -.41314272E+03  EK= 0.29837E+00 SP= 0.00E+00 SK= 0.00E+00
       N       E                     dE             d eps       ncg     rms          rms(c)
RMM:   1    -0.413170351325E+03   -0.51803E-02   -0.74464E+00  4269   0.574E-01    0.890E-01
RMM:   2    -0.413171630270E+03   -0.12789E-02   -0.93293E-02  4122   0.800E-02    0.655E-01
RMM:   3    -0.413168060785E+03    0.35695E-02   -0.32460E-02  5018   0.700E-02    0.225E-01
RMM:   4    -0.413196426217E+03   -0.28365E-01   -0.36659E-02  5120   0.162E-01    0.726E-01
RMM:   5    -0.413165566648E+03    0.30860E-01   -0.14023E-02  4772   0.121E-01    0.517E-02
RMM:   6    -0.413165771053E+03   -0.20441E-03   -0.25590E-03  5695   0.500E-02    0.350E-02
RMM:   7    -0.413165768696E+03    0.23575E-05   -0.44657E-04  5680   0.197E-02    0.225E-02
RMM:   8    -0.413165759796E+03    0.88998E-05   -0.59634E-05  5201   0.886E-03    0.977E-03
RMM:   9    -0.413165759589E+03    0.20674E-06   -0.11371E-05  3684   0.384E-03    0.651E-03
RMM:  10    -0.413165762457E+03   -0.28681E-05   -0.20848E-06  2573   0.231E-03    0.389E-03
RMM:  11    -0.413165764360E+03   -0.19025E-05   -0.10253E-06  2516   0.164E-03    0.217E-03
RMM:  12    -0.413165767460E+03   -0.31005E-05   -0.15625E-06  2555   0.182E-03    0.102E-03
RMM:  13    -0.413165768831E+03   -0.13709E-05   -0.73728E-07  2422   0.132E-03    0.838E-04
RMM:  14    -0.413165768606E+03    0.22522E-06   -0.25882E-07  1919   0.866E-04
    8 T=    61. E= -.41286707E+03 F= -.41316577E+03 E0= -.41314334E+03  EK= 0.29870E+00 SP= 0.00E+00 SK= 0.00E+00
       N       E                     dE             d eps       ncg     rms          rms(c)
RMM:   1    -0.413170988265E+03   -0.52194E-02   -0.74655E+00  4279   0.583E-01    0.903E-01
RMM:   2    -0.413171741891E+03   -0.75363E-03   -0.93633E-02  4145   0.810E-02    0.659E-01
RMM:   3    -0.413167461754E+03    0.42801E-02   -0.31052E-02  4957   0.642E-02    0.187E-01
RMM:   4    -0.413195758646E+03   -0.28297E-01   -0.33495E-02  5125   0.154E-01    0.716E-01
RMM:   5    -0.413165747220E+03    0.30011E-01   -0.13999E-02  4793   0.119E-01    0.500E-02
RMM:   6    -0.413165944326E+03   -0.19711E-03   -0.25072E-03  5723   0.494E-02    0.359E-02
RMM:   7    -0.413165928053E+03    0.16272E-04   -0.44069E-04  5619   0.200E-02    0.227E-02
RMM:   8    -0.413165922380E+03    0.56738E-05   -0.58144E-05  5148   0.891E-03    0.102E-02
RMM:   9    -0.413165920679E+03    0.17009E-05   -0.12026E-05  3738   0.387E-03    0.710E-03
RMM:  10    -0.413165921234E+03   -0.55528E-06   -0.20854E-06  2575   0.234E-03
    9 T=    61. E= -.41286700E+03 F= -.41316592E+03 E0= -.41314351E+03  EK= 0.29892E+00 SP= 0.00E+00 SK= 0.00E+00
       N       E                     dE             d eps       ncg     rms          rms(c)
RMM:   1    -0.413171118979E+03   -0.51983E-02   -0.74296E+00  4289   0.582E-01    0.907E-01
RMM:   2    -0.413171608371E+03   -0.48939E-03   -0.93505E-02  4309   0.815E-02    0.654E-01
RMM:   3    -0.413174432445E+03   -0.28241E-02   -0.34376E-02  5130   0.986E-02    0.392E-01
RMM:   4    -0.413183797018E+03   -0.93646E-02   -0.34885E-02  5061   0.162E-01    0.555E-01
RMM:   5    -0.413166010181E+03    0.17787E-01   -0.65308E-03  4630   0.920E-02    0.548E-02
RMM:   6    -0.413166019027E+03   -0.88458E-05   -0.13898E-03  5376   0.370E-02    0.326E-02
RMM:   7    -0.413166022012E+03   -0.29854E-05   -0.27845E-04  5762   0.158E-02    0.188E-02
RMM:   8    -0.413166014937E+03    0.70757E-05   -0.45452E-05  5051   0.797E-03    0.732E-03
RMM:   9    -0.413166011714E+03    0.32225E-05   -0.52164E-06  2964   0.303E-03    0.383E-03
RMM:  10    -0.413166010286E+03    0.14277E-05   -0.14401E-06  2516   0.199E-03    0.232E-03
RMM:  11    -0.413166008482E+03    0.18047E-05   -0.99008E-07  2476   0.156E-03    0.116E-03
RMM:  12    -0.413166006265E+03    0.22164E-05   -0.73440E-07  2448   0.130E-03    0.508E-04
RMM:  13    -0.413166004830E+03    0.14350E-05   -0.35850E-07  1981   0.955E-04    0.314E-04
RMM:  14    -0.413166003287E+03    0.15431E-05   -0.22600E-07  1525   0.778E-04    0.190E-04
RMM:  15    -0.413166000540E+03    0.27469E-05   -0.30509E-07  1766   0.803E-04    0.262E-04
RMM:  16    -0.413165998010E+03    0.25302E-05   -0.20401E-07  1315   0.683E-04    0.166E-04
RMM:  17    -0.413165996626E+03    0.13839E-05   -0.11079E-07  1105   0.611E-04    0.797E-05
RMM:  18    -0.413165994993E+03    0.16332E-05   -0.92853E-08  1096   0.603E-04    0.482E-05
RMM:  19    -0.413165994623E+03    0.37030E-06   -0.36668E-08   789   0.537E-04
   10 T=    61. E= -.41286685E+03 F= -.41316599E+03 E0= -.41314361E+03  EK= 0.29914E+00 SP= 0.00E+00 SK= 0.00E+00
       N       E                     dE             d eps       ncg     rms          rms(c)
RMM:   1    -0.413171780681E+03   -0.57857E-02   -0.74401E+00  4291   0.596E-01    0.889E-01
RMM:   2    -0.413172412050E+03   -0.63137E-03   -0.94405E-02  4206   0.838E-02    0.654E-01
RMM:   3    -0.413168692064E+03    0.37200E-02   -0.31336E-02  4994   0.656E-02    0.206E-01
RMM:   4    -0.413197745344E+03   -0.29053E-01   -0.36220E-02  5118   0.160E-01    0.729E-01
RMM:   5    -0.413166567772E+03    0.31178E-01   -0.14398E-02  4771   0.121E-01    0.512E-02
RMM:   6    -0.413166769562E+03   -0.20179E-03   -0.25765E-03  5687   0.501E-02    0.354E-02
RMM:   7    -0.413166763409E+03    0.61532E-05   -0.44737E-04  5604   0.197E-02    0.226E-02
RMM:   8    -0.413166757864E+03    0.55446E-05   -0.59900E-05  5215   0.876E-03    0.989E-03
RMM:   9    -0.413166756576E+03    0.12885E-05   -0.11589E-05  3783   0.385E-03    0.669E-03
RMM:  10    -0.413166758344E+03   -0.17683E-05   -0.20199E-06  2564   0.227E-03    0.399E-03
RMM:  11    -0.413166759499E+03   -0.11547E-05   -0.96017E-07  2493   0.160E-03    0.227E-03
RMM:  12    -0.413166761282E+03   -0.17830E-05   -0.14286E-06  2532   0.180E-03    0.106E-03
RMM:  13    -0.413166761897E+03   -0.61547E-06   -0.63441E-07  2405   0.131E-03
   11 T=    61. E= -.41286715E+03 F= -.41316676E+03 E0= -.41314440E+03  EK= 0.29961E+00 SP= 0.00E+00 SK= 0.00E+00
       N       E                     dE             d eps       ncg     rms          rms(c)
RMM:   1    -0.413171685134E+03   -0.49239E-02   -0.74931E+00  4291   0.591E-01    0.900E-01
RMM:   2    -0.413172374843E+03   -0.68971E-03   -0.93979E-02  4234   0.793E-02    0.660E-01
RMM:   3    -0.413168372760E+03    0.40021E-02   -0.31816E-02  4964   0.631E-02    0.195E-01
RMM:   4    -0.413196469584E+03   -0.28097E-01   -0.33740E-02  5119   0.154E-01    0.715E-01
RMM:   5    -0.413166550476E+03    0.29919E-01   -0.13965E-02  4778   0.119E-01    0.497E-02
RMM:   6    -0.413166755747E+03   -0.20527E-03   -0.25288E-03  5744   0.492E-02    0.351E-02
RMM:   7    -0.413166746479E+03    0.92678E-05   -0.43129E-04  5647   0.199E-02    0.226E-02
RMM:   8    -0.413166738416E+03    0.80632E-05   -0.59582E-05  5078   0.887E-03    0.103E-02
RMM:   9    -0.413166736517E+03    0.18987E-05   -0.11888E-05  3727   0.391E-03    0.723E-03
RMM:  10    -0.413166737580E+03   -0.10627E-05   -0.20776E-06  2577   0.231E-03    0.424E-03
RMM:  11    -0.413166738454E+03   -0.87447E-06   -0.11365E-06  2503   0.172E-03
   12 T=    61. E= -.41286689E+03 F= -.41316674E+03 E0= -.41314441E+03  EK= 0.29985E+00 SP= 0.00E+00 SK= 0.00E+00
       N       E                     dE             d eps       ncg     rms          rms(c)
RMM:   1    -0.413172546159E+03   -0.58086E-02   -0.74638E+00  4290   0.594E-01    0.911E-01
RMM:   2    -0.413172635434E+03   -0.89274E-04   -0.93990E-02  4249   0.783E-02    0.657E-01
RMM:   3    -0.413168432813E+03    0.42026E-02   -0.29284E-02  4954   0.554E-02    0.155E-01
RMM:   4    -0.413195006226E+03   -0.26573E-01   -0.30146E-02  5122   0.146E-01    0.689E-01
RMM:   5    -0.413167177710E+03    0.27829E-01   -0.13107E-02  4792   0.114E-01    0.492E-02
RMM:   6    -0.413167369749E+03   -0.19204E-03   -0.24098E-03  5764   0.479E-02    0.353E-02
RMM:   7    -0.413167353882E+03    0.15867E-04   -0.41719E-04  5632   0.200E-02    0.227E-02
RMM:   8    -0.413167338207E+03    0.15674E-04   -0.57401E-05  4994   0.876E-03    0.107E-02
RMM:   9    -0.413167333615E+03    0.45919E-05   -0.11757E-05  3733   0.391E-03    0.769E-03
RMM:  10    -0.413167330258E+03    0.33572E-05   -0.21715E-06  2570   0.241E-03    0.445E-03
RMM:  11    -0.413167327719E+03    0.25390E-05   -0.12946E-06  2519   0.183E-03    0.245E-03
RMM:  12    -0.413167323183E+03    0.45363E-05   -0.17191E-06  2571   0.198E-03    0.112E-03
RMM:  13    -0.413167320345E+03    0.28377E-05   -0.59995E-07  2381   0.133E-03    0.825E-04
RMM:  14    -0.413167320360E+03   -0.15061E-07   -0.24460E-07  1904   0.859E-04
   13 T=    61. E= -.41286703E+03 F= -.41316732E+03 E0= -.41314502E+03  EK= 0.30029E+00 SP= 0.00E+00 SK= 0.00E+00
       N       E                     dE             d eps       ncg     rms          rms(c)
RMM:   1    -0.413172652494E+03   -0.53321E-02   -0.74378E+00  4293   0.598E-01    0.892E-01
RMM:   2    -0.413173498571E+03   -0.84608E-03   -0.93402E-02  4247   0.781E-02    0.653E-01
RMM:   3    -0.413169570737E+03    0.39278E-02   -0.30750E-02  4979   0.614E-02    0.189E-01
RMM:   4    -0.413197933954E+03   -0.28363E-01   -0.34035E-02  5117   0.155E-01    0.717E-01
RMM:   5    -0.413167780152E+03    0.30154E-01   -0.14041E-02  4780   0.119E-01    0.502E-02
RMM:   6    -0.413167977400E+03   -0.19725E-03   -0.25229E-03  5717   0.494E-02    0.357E-02
RMM:   7    -0.413167964866E+03    0.12534E-04   -0.43977E-04  5602   0.200E-02    0.228E-02
RMM:   8    -0.413167956175E+03    0.86913E-05   -0.59562E-05  5160   0.877E-03    0.102E-02
RMM:   9    -0.413167953039E+03    0.31355E-05   -0.11512E-05  3729   0.386E-03    0.708E-03
RMM:  10    -0.413167952504E+03    0.53537E-06   -0.20528E-06  2562   0.232E-03
   14 T=    61. E= -.41286717E+03 F= -.41316795E+03 E0= -.41314568E+03  EK= 0.30079E+00 SP= 0.00E+00 SK= 0.00E+00
       N       E                     dE             d eps       ncg     rms          rms(c)
RMM:   1    -0.413172791772E+03   -0.48387E-02   -0.75245E+00  4305   0.605E-01    0.899E-01
RMM:   2    -0.413173953188E+03   -0.11614E-02   -0.94259E-02  4325   0.809E-02    0.662E-01
RMM:   3    -0.413177828972E+03   -0.38758E-02   -0.37907E-02  5128   0.104E-01    0.425E-01
RMM:   4    -0.413185393728E+03   -0.75648E-02   -0.36040E-02  5051   0.165E-01    0.552E-01
RMM:   5    -0.413168026116E+03    0.17368E-01   -0.66256E-03  4591   0.928E-02    0.533E-02
RMM:   6    -0.413168044838E+03   -0.18722E-04   -0.13438E-03  5367   0.359E-02    0.312E-02
RMM:   7    -0.413168047690E+03   -0.28523E-05   -0.26253E-04  5706   0.153E-02    0.179E-02
RMM:   8    -0.413168044968E+03    0.27225E-05   -0.41831E-05  4962   0.787E-03    0.678E-03
RMM:   9    -0.413168044012E+03    0.95617E-06   -0.47885E-06  2891   0.295E-03
   15 T=    61. E= -.41286687E+03 F= -.41316804E+03 E0= -.41314581E+03  EK= 0.30117E+00 SP= 0.00E+00 SK= 0.00E+00
       N       E                     dE             d eps       ncg     rms          rms(c)
RMM:   1    -0.413174328479E+03   -0.62835E-02   -0.75008E+00  4295   0.610E-01    0.913E-01
RMM:   2    -0.413174715343E+03   -0.38686E-03   -0.94284E-02  4276   0.820E-02    0.659E-01
RMM:   3    -0.413173918159E+03    0.79718E-03   -0.32006E-02  5090   0.829E-02    0.301E-01
RMM:   4    -0.413194459538E+03   -0.20541E-01   -0.37976E-02  5083   0.166E-01    0.660E-01
RMM:   5    -0.413168986821E+03    0.25473E-01   -0.10384E-02  4698   0.109E-01    0.548E-02
RMM:   6    -0.413169090275E+03   -0.10345E-03   -0.20738E-03  5602   0.448E-02    0.342E-02
RMM:   7    -0.413169082785E+03    0.74904E-05   -0.37291E-04  5754   0.180E-02    0.212E-02
RMM:   8    -0.413169072725E+03    0.10060E-04   -0.52329E-05  5101   0.863E-03    0.850E-03
RMM:   9    -0.413169068189E+03    0.45358E-05   -0.83147E-06  3323   0.346E-03    0.493E-03
RMM:  10    -0.413169065135E+03    0.30541E-05   -0.19102E-06  2549   0.222E-03    0.302E-03
RMM:  11    -0.413169062336E+03    0.27993E-05   -0.95282E-07  2488   0.160E-03    0.156E-03
RMM:  12    -0.413169057719E+03    0.46166E-05   -0.96286E-07  2489   0.149E-03    0.718E-04
RMM:  13    -0.413169054249E+03    0.34702E-05   -0.48709E-07  2258   0.112E-03    0.444E-04
RMM:  14    -0.413169053268E+03    0.98115E-06   -0.21717E-07  1708   0.802E-04
   16 T=    61. E= -.41286716E+03 F= -.41316905E+03 E0= -.41314686E+03  EK= 0.30189E+00 SP= 0.00E+00 SK= 0.00E+00
       N       E                     dE             d eps       ncg     rms          rms(c)
RMM:   1    -0.413174628185E+03   -0.55739E-02   -0.74656E+00  4296   0.619E-01    0.897E-01
RMM:   2    -0.413175228103E+03   -0.59992E-03   -0.93943E-02  4263   0.825E-02    0.654E-01
RMM:   3    -0.413171737284E+03    0.34908E-02   -0.30678E-02  5006   0.679E-02    0.213E-01
RMM:   4    -0.413201064971E+03   -0.29328E-01   -0.37808E-02  5111   0.163E-01    0.734E-01
RMM:   5    -0.413169387005E+03    0.31678E-01   -0.14433E-02  4761   0.122E-01    0.528E-02
RMM:   6    -0.413169568452E+03   -0.18145E-03   -0.26175E-03  5683   0.505E-02    0.360E-02
RMM:   7    -0.413169547461E+03    0.20991E-04   -0.45650E-04  5636   0.199E-02    0.230E-02
RMM:   8    -0.413169538484E+03    0.89777E-05   -0.61992E-05  5232   0.896E-03    0.993E-03
RMM:   9    -0.413169534536E+03    0.39479E-05   -0.11596E-05  3734   0.386E-03    0.650E-03
RMM:  10    -0.413169532750E+03    0.17853E-05   -0.21122E-06  2566   0.232E-03    0.388E-03
RMM:  11    -0.413169531461E+03    0.12891E-05   -0.96054E-07  2493   0.161E-03    0.219E-03
RMM:  12    -0.413169528700E+03    0.27613E-05   -0.13354E-06  2520   0.177E-03    0.104E-03
RMM:  13    -0.413169526369E+03    0.23313E-05   -0.62377E-07  2398   0.130E-03    0.843E-04
RMM:  14    -0.413169526202E+03    0.16625E-06   -0.24998E-07  1934   0.874E-04
   17 T=    62. E= -.41286704E+03 F= -.41316953E+03 E0= -.41314737E+03  EK= 0.30249E+00 SP= 0.00E+00 SK= 0.00E+00
       N       E                     dE             d eps       ncg     rms          rms(c)
RMM:   1    -0.413174867274E+03   -0.53409E-02   -0.75583E+00  4296   0.618E-01    0.898E-01
RMM:   2    -0.413175877883E+03   -0.10106E-02   -0.95059E-02  4254   0.829E-02    0.662E-01
RMM:   3    -0.413171956888E+03    0.39210E-02   -0.32719E-02  4972   0.669E-02    0.211E-01
RMM:   4    -0.413200846806E+03   -0.28890E-01   -0.35808E-02  5111   0.159E-01    0.727E-01
RMM:   5    -0.413169858866E+03    0.30988E-01   -0.14458E-02  4767   0.121E-01    0.505E-02
RMM:   6    -0.413170050767E+03   -0.19190E-03   -0.26059E-03  5719   0.500E-02    0.352E-02
RMM:   7    -0.413170040268E+03    0.10499E-04   -0.44345E-04  5604   0.200E-02    0.227E-02
RMM:   8    -0.413170032794E+03    0.74742E-05   -0.61895E-05  5146   0.906E-03    0.103E-02
RMM:   9    -0.413170030327E+03    0.24665E-05   -0.12155E-05  3781   0.398E-03    0.702E-03
RMM:  10    -0.413170030985E+03   -0.65771E-06   -0.20700E-06  2573   0.231E-03
   18 T=    62. E= -.41286692E+03 F= -.41317003E+03 E0= -.41314791E+03  EK= 0.30311E+00 SP= 0.00E+00 SK= 0.00E+00
       N       E                     dE             d eps       ncg     rms          rms(c)
RMM:   1    -0.413176717960E+03   -0.66876E-02   -0.75500E+00  4300   0.629E-01    0.914E-01
RMM:   2    -0.413176745758E+03   -0.27798E-04   -0.95166E-02  4335   0.820E-02    0.662E-01
RMM:   3    -0.413180101846E+03   -0.33561E-02   -0.35368E-02  5134   0.996E-02    0.402E-01
RMM:   4    -0.413189180462E+03   -0.90786E-02   -0.36044E-02  5051   0.164E-01    0.558E-01
RMM:   5    -0.413171199069E+03    0.17981E-01   -0.65949E-03  4606   0.925E-02    0.542E-02
RMM:   6    -0.413171219172E+03   -0.20104E-04   -0.14339E-03  5368   0.368E-02    0.326E-02
RMM:   7    -0.413171210271E+03    0.89017E-05   -0.27727E-04  5686   0.161E-02    0.189E-02
RMM:   8    -0.413171201845E+03    0.84255E-05   -0.44392E-05  4990   0.813E-03    0.726E-03
RMM:   9    -0.413171197599E+03    0.42462E-05   -0.55554E-06  2973   0.310E-03    0.387E-03
RMM:  10    -0.413171194932E+03    0.26668E-05   -0.14272E-06  2509   0.198E-03    0.232E-03
RMM:  11    -0.413171191854E+03    0.30780E-05   -0.87892E-07  2461   0.152E-03    0.116E-03
RMM:  12    -0.413171187884E+03    0.39697E-05   -0.66779E-07  2435   0.128E-03    0.508E-04
RMM:  13    -0.413171185462E+03    0.24222E-05   -0.32312E-07  1957   0.940E-04    0.317E-04
RMM:  14    -0.413171183297E+03    0.21654E-05   -0.18383E-07  1467   0.745E-04    0.199E-04
RMM:  15    -0.413171178675E+03    0.46219E-05   -0.20642E-07  1572   0.756E-04    0.249E-04
RMM:  16    -0.413171175180E+03    0.34949E-05   -0.12428E-07  1140   0.641E-04    0.168E-04
RMM:  17    -0.413171172923E+03    0.22574E-05   -0.80840E-08  1033   0.600E-04    0.806E-05
RMM:  18    -0.413171170355E+03    0.25677E-05   -0.68141E-08  1040   0.595E-04    0.391E-05
RMM:  19    -0.413171169480E+03    0.87467E-06   -0.32708E-08   830   0.552E-04
   19 T=    62. E= -.41286721E+03 F= -.41317117E+03 E0= -.41314909E+03  EK= 0.30396E+00 SP= 0.00E+00 SK= 0.00E+00
       N       E                     dE             d eps       ncg     rms          rms(c)
RMM:   1    -0.413176777266E+03   -0.56069E-02   -0.75125E+00  4296   0.631E-01    0.904E-01
RMM:   2    -0.413177000303E+03   -0.22304E-03   -0.95043E-02  4261   0.814E-02    0.656E-01
RMM:   3    -0.413173664096E+03    0.33362E-02   -0.30087E-02  5035   0.640E-02    0.202E-01
RMM:   4    -0.413203751609E+03   -0.30088E-01   -0.38145E-02  5108   0.164E-01    0.740E-01
RMM:   5    -0.413171469360E+03    0.32282E-01   -0.14814E-02  4765   0.123E-01    0.526E-02
RMM:   6    -0.413171669326E+03   -0.19997E-03   -0.26974E-03  5694   0.512E-02    0.367E-02
RMM:   7    -0.413171661202E+03    0.81235E-05   -0.46644E-04  5600   0.207E-02    0.236E-02
RMM:   8    -0.413171650180E+03    0.11023E-04   -0.66897E-05  5207   0.944E-03    0.106E-02
RMM:   9    -0.413171644621E+03    0.55590E-05   -0.12956E-05  3848   0.412E-03    0.700E-03
RMM:  10    -0.413171641586E+03    0.30347E-05   -0.22065E-06  2572   0.241E-03    0.416E-03
RMM:  11    -0.413171639766E+03    0.18200E-05   -0.99806E-07  2498   0.164E-03    0.242E-03
RMM:  12    -0.413171635883E+03    0.38825E-05   -0.15021E-06  2533   0.189E-03    0.114E-03
RMM:  13    -0.413171633006E+03    0.28772E-05   -0.68258E-07  2403   0.137E-03    0.920E-04
RMM:  14    -0.413171632781E+03    0.22502E-06   -0.27108E-07  1991   0.912E-04
   20 T=    62. E= -.41286700E+03 F= -.41317163E+03 E0= -.41314960E+03  EK= 0.30463E+00 SP= 0.00E+00 SK= 0.00E+00
       N       E                     dE             d eps       ncg     rms          rms(c)
RMM:   1    -0.413177529119E+03   -0.58961E-02   -0.75894E+00  4296   0.632E-01    0.898E-01
RMM:   2    -0.413178440614E+03   -0.91149E-03   -0.95468E-02  4255   0.813E-02    0.662E-01
RMM:   3    -0.413174448944E+03    0.39917E-02   -0.32375E-02  4975   0.629E-02    0.198E-01
RMM:   4    -0.413202719241E+03   -0.28270E-01   -0.34126E-02  5109   0.155E-01    0.717E-01
RMM:   5    -0.413172553009E+03    0.30166E-01   -0.14178E-02  4773   0.120E-01    0.498E-02
RMM:   6    -0.413172746168E+03   -0.19316E-03   -0.25569E-03  5737   0.494E-02    0.347E-02
RMM:   7    -0.413172739542E+03    0.66260E-05   -0.42611E-04  5599   0.200E-02    0.226E-02
RMM:   8    -0.413172731803E+03    0.77393E-05   -0.63301E-05  5089   0.916E-03    0.106E-02
RMM:   9    -0.413172728925E+03    0.28775E-05   -0.12334E-05  3777   0.406E-03    0.733E-03
RMM:  10    -0.413172728912E+03    0.12802E-07   -0.20950E-06  2569   0.235E-03
   21 T=    62. E= -.41286715E+03 F= -.41317273E+03 E0= -.41315074E+03  EK= 0.30558E+00 SP= 0.00E+00 SK= 0.00E+00
       N       E                     dE             d eps       ncg     rms          rms(c)
RMM:   1    -0.413178898998E+03   -0.61701E-02   -0.76054E+00  4302   0.631E-01    0.914E-01
RMM:   2    -0.413179607550E+03   -0.70855E-03   -0.95512E-02  4341   0.848E-02    0.665E-01
RMM:   3    -0.413182633849E+03   -0.30263E-02   -0.35661E-02  5127   0.999E-02    0.399E-01
RMM:   4    -0.413192614120E+03   -0.99803E-02   -0.36660E-02  5051   0.165E-01    0.569E-01
RMM:   5    -0.413173851042E+03    0.18763E-01   -0.69196E-03  4614   0.951E-02    0.536E-02
RMM:   6    -0.413173884018E+03   -0.32976E-04   -0.14815E-03  5400   0.376E-02    0.323E-02
RMM:   7    -0.413173885290E+03   -0.12726E-05   -0.28407E-04  5682   0.162E-02    0.190E-02
RMM:   8    -0.413173877797E+03    0.74933E-05   -0.45552E-05  5015   0.810E-03    0.731E-03
RMM:   9    -0.413173873735E+03    0.40622E-05   -0.55443E-06  2976   0.312E-03    0.392E-03
RMM:  10    -0.413173871309E+03    0.24255E-05   -0.14357E-06  2508   0.199E-03    0.237E-03
RMM:  11    -0.413173868502E+03    0.28071E-05   -0.85705E-07  2459   0.151E-03    0.119E-03
RMM:  12    -0.413173864676E+03    0.38259E-05   -0.66053E-07  2427   0.127E-03    0.515E-04
RMM:  13    -0.413173862364E+03    0.23119E-05   -0.31720E-07  1967   0.934E-04    0.328E-04
RMM:  14    -0.413173860400E+03    0.19643E-05   -0.17616E-07  1463   0.735E-04    0.211E-04
RMM:  15    -0.413173855689E+03    0.47110E-05   -0.19325E-07  1546   0.744E-04    0.249E-04
RMM:  16    -0.413173851990E+03    0.36989E-05   -0.11329E-07  1082   0.635E-04    0.173E-04
RMM:  17    -0.413173849594E+03    0.23959E-05   -0.74425E-08  1018   0.602E-04    0.863E-05
RMM:  18    -0.413173846879E+03    0.27156E-05   -0.64740E-08  1047   0.600E-04    0.432E-05
RMM:  19    -0.413173845790E+03    0.10885E-05   -0.31277E-08   825   0.554E-04    0.325E-05
RMM:  20    -0.413173845318E+03    0.47193E-06   -0.16664E-08   722   0.538E-04
   22 T=    62. E= -.41286721E+03 F= -.41317385E+03 E0= -.41315190E+03  EK= 0.30663E+00 SP= 0.00E+00 SK= 0.00E+00
       N       E                     dE             d eps       ncg     rms          rms(c)
RMM:   1    -0.413179764035E+03   -0.59182E-02   -0.75823E+00  4296   0.642E-01    0.913E-01
RMM:   2    -0.413180260487E+03   -0.49645E-03   -0.95811E-02  4277   0.831E-02    0.660E-01
RMM:   3    -0.413176206169E+03    0.40543E-02   -0.29796E-02  4974   0.647E-02    0.185E-01
RMM:   4    -0.413206738106E+03   -0.30532E-01   -0.36872E-02  5106   0.161E-01    0.741E-01
RMM:   5    -0.413174382465E+03    0.32356E-01   -0.15051E-02  4777   0.124E-01    0.520E-02
RMM:   6    -0.413174575734E+03   -0.19327E-03   -0.27748E-03  5726   0.514E-02    0.372E-02
RMM:   7    -0.413174559706E+03    0.16029E-04   -0.47000E-04  5585   0.208E-02    0.239E-02
RMM:   8    -0.413174547489E+03    0.12216E-04   -0.67604E-05  5198   0.941E-03    0.111E-02
RMM:   9    -0.413174541721E+03    0.57687E-05   -0.12985E-05  3875   0.412E-03    0.755E-03
RMM:  10    -0.413174537744E+03    0.39771E-05   -0.22670E-06  2577   0.243E-03    0.447E-03
RMM:  11    -0.413174535154E+03    0.25901E-05   -0.10795E-06  2499   0.171E-03    0.261E-03
RMM:  12    -0.413174529904E+03    0.52498E-05   -0.17467E-06  2562   0.201E-03    0.121E-03
RMM:  13    -0.413174526321E+03    0.35825E-05   -0.70340E-07  2409   0.141E-03    0.977E-04
RMM:  14    -0.413174526155E+03    0.16610E-06   -0.27851E-07  2025   0.922E-04
   23 T=    63. E= -.41286691E+03 F= -.41317453E+03 E0= -.41315263E+03  EK= 0.30761E+00 SP= 0.00E+00 SK= 0.00E+00
       N       E                     dE             d eps       ncg     rms          rms(c)
RMM:   1    -0.413180876688E+03   -0.63504E-02   -0.76321E+00  4297   0.643E-01    0.900E-01
RMM:   2    -0.413182200632E+03   -0.13239E-02   -0.96361E-02  4285   0.851E-02    0.663E-01
RMM:   3    -0.413177481472E+03    0.47192E-02   -0.31910E-02  4889   0.660E-02    0.181E-01
RMM:   4    -0.413204211914E+03   -0.26730E-01   -0.30906E-02  5113   0.148E-01    0.695E-01
RMM:   5    -0.413175939551E+03    0.28272E-01   -0.13423E-02  4782   0.116E-01    0.487E-02
RMM:   6    -0.413176116709E+03   -0.17716E-03   -0.24633E-03  5789   0.476E-02    0.333E-02
RMM:   7    -0.413176115297E+03    0.14123E-05   -0.38130E-04  5617   0.192E-02    0.215E-02
RMM:   8    -0.413176104549E+03    0.10748E-04   -0.64627E-05  5009   0.900E-03    0.109E-02
RMM:   9    -0.413176100899E+03    0.36503E-05   -0.12537E-05  3867   0.411E-03    0.770E-03
RMM:  10    -0.413176099729E+03    0.11694E-05   -0.20767E-06  2559   0.238E-03    0.454E-03
RMM:  11    -0.413176098725E+03    0.10047E-05   -0.13364E-06  2515   0.185E-03    0.244E-03
RMM:  12    -0.413176096788E+03    0.19365E-05   -0.16321E-06  2540   0.196E-03    0.115E-03
RMM:  13    -0.413176095406E+03    0.13825E-05   -0.52177E-07  2350   0.128E-03    0.752E-04
RMM:  14    -0.413176095038E+03    0.36753E-06   -0.23337E-07  1891   0.847E-04
   24 T=    63. E= -.41286715E+03 F= -.41317610E+03 E0= -.41315425E+03  EK= 0.30895E+00 SP= 0.00E+00 SK= 0.00E+00
       N       E                     dE             d eps       ncg     rms          rms(c)
RMM:   1    -0.413182309343E+03   -0.62139E-02   -0.76891E+00  4294   0.650E-01    0.914E-01
RMM:   2    -0.413183151006E+03   -0.84166E-03   -0.97110E-02  4288   0.862E-02    0.669E-01
RMM:   3    -0.413178500070E+03    0.46509E-02   -0.31527E-02  4898   0.657E-02    0.176E-01
RMM:   4    -0.413206156937E+03   -0.27657E-01   -0.31842E-02  5111   0.150E-01    0.705E-01
RMM:   5    -0.413177007144E+03    0.29150E-01   -0.13764E-02  4783   0.118E-01    0.496E-02
RMM:   6    -0.413177189201E+03   -0.18206E-03   -0.25547E-03  5783   0.485E-02    0.350E-02
RMM:   7    -0.413177178949E+03    0.10252E-04   -0.41970E-04  5592   0.200E-02    0.227E-02
RMM:   8    -0.413177167871E+03    0.11079E-04   -0.62925E-05  5056   0.912E-03    0.109E-02
RMM:   9    -0.413177163229E+03    0.46412E-05   -0.12404E-05  3800   0.407E-03    0.766E-03
RMM:  10    -0.413177160836E+03    0.23931E-05   -0.21484E-06  2574   0.239E-03    0.449E-03
RMM:  11    -0.413177158924E+03    0.19121E-05   -0.12413E-06  2506   0.180E-03    0.247E-03
RMM:  12    -0.413177155447E+03    0.34775E-05   -0.16484E-06  2539   0.198E-03    0.115E-03
RMM:  13    -0.413177153175E+03    0.22717E-05   -0.57164E-07  2372   0.133E-03    0.824E-04
RMM:  14    -0.413177152847E+03    0.32821E-06   -0.24935E-07  1935   0.872E-04
   25 T=    63. E= -.41286698E+03 F= -.41317715E+03 E0= -.41315536E+03  EK= 0.31017E+00 SP= 0.00E+00 SK= 0.00E+00
       N       E                     dE             d eps       ncg     rms          rms(c)
RMM:   1    -0.413184153816E+03   -0.70006E-02   -0.76789E+00  4294   0.665E-01    0.922E-01
RMM:   2    -0.413184184461E+03   -0.30646E-04   -0.98215E-02  4285   0.892E-02    0.666E-01
RMM:   3    -0.413179551961E+03    0.46325E-02   -0.29425E-02  4886   0.621E-02    0.152E-01
RMM:   4    -0.413207057719E+03   -0.27506E-01   -0.30897E-02  5119   0.147E-01    0.700E-01
RMM:   5    -0.413178339070E+03    0.28719E-01   -0.13687E-02  4781   0.116E-01    0.498E-02
RMM:   6    -0.413178515319E+03   -0.17625E-03   -0.25452E-03  5805   0.481E-02    0.352E-02
RMM:   7    -0.413178511909E+03    0.34101E-05   -0.40117E-04  5603   0.198E-02    0.225E-02
RMM:   8    -0.413178498967E+03    0.12942E-04   -0.65255E-05  5026   0.916E-03    0.114E-02
RMM:   9    -0.413178492313E+03    0.66535E-05   -0.12848E-05  3892   0.416E-03    0.806E-03
RMM:  10    -0.413178487025E+03    0.52882E-05   -0.22385E-06  2579   0.245E-03    0.468E-03
RMM:  11    -0.413178482775E+03    0.42501E-05   -0.13804E-06  2523   0.188E-03    0.258E-03
RMM:  12    -0.413178475525E+03    0.72497E-05   -0.18051E-06  2572   0.205E-03    0.119E-03
RMM:  13    -0.413178471564E+03    0.39614E-05   -0.59195E-07  2378   0.135E-03    0.828E-04
RMM:  14    -0.413178471231E+03    0.33230E-06   -0.25927E-07  1958   0.884E-04
   26 T=    63. E= -.41286692E+03 F= -.41317847E+03 E0= -.41315672E+03  EK= 0.31155E+00 SP= 0.00E+00 SK= 0.00E+00
       N       E                     dE             d eps       ncg     rms          rms(c)
RMM:   1    -0.413185152294E+03   -0.66807E-02   -0.76919E+00  4294   0.659E-01    0.905E-01
RMM:   2    -0.413186066804E+03   -0.91451E-03   -0.97624E-02  4281   0.913E-02    0.665E-01
RMM:   3    -0.413181447939E+03    0.46189E-02   -0.31135E-02  4877   0.632E-02    0.165E-01
RMM:   4    -0.413206887670E+03   -0.25440E-01   -0.28678E-02  5114   0.143E-01    0.676E-01
RMM:   5    -0.413180193018E+03    0.26695E-01   -0.12759E-02  4784   0.112E-01    0.481E-02
RMM:   6    -0.413180345093E+03   -0.15207E-03   -0.23281E-03  5818   0.459E-02    0.331E-02
RMM:   7    -0.413180340263E+03    0.48298E-05   -0.35805E-04  5601   0.190E-02    0.211E-02
RMM:   8    -0.413180330571E+03    0.96929E-05   -0.61882E-05  4972   0.893E-03    0.108E-02
RMM:   9    -0.413180325855E+03    0.47152E-05   -0.11999E-05  3828   0.407E-03    0.765E-03
RMM:  10    -0.413180323217E+03    0.26383E-05   -0.20661E-06  2563   0.239E-03    0.443E-03
RMM:  11    -0.413180320897E+03    0.23197E-05   -0.13858E-06  2521   0.189E-03    0.235E-03
RMM:  12    -0.413180317111E+03    0.37866E-05   -0.15331E-06  2524   0.193E-03    0.112E-03
RMM:  13    -0.413180315008E+03    0.21025E-05   -0.51581E-07  2328   0.127E-03    0.715E-04
RMM:  14    -0.413180314463E+03    0.54487E-06   -0.23464E-07  1863   0.848E-04
   27 T=    64. E= -.41286717E+03 F= -.41318031E+03 E0= -.41315862E+03  EK= 0.31315E+00 SP= 0.00E+00 SK= 0.00E+00
       N       E                     dE             d eps       ncg     rms          rms(c)
RMM:   1    -0.413186624811E+03   -0.63098E-02   -0.77921E+00  4294   0.669E-01    0.915E-01
RMM:   2    -0.413187296224E+03   -0.67141E-03   -0.99120E-02  4275   0.929E-02    0.674E-01
RMM:   3    -0.413182588764E+03    0.47075E-02   -0.32301E-02  4882   0.636E-02    0.171E-01
RMM:   4    -0.413208007776E+03   -0.25419E-01   -0.28779E-02  5120   0.143E-01    0.677E-01
RMM:   5    -0.413181229267E+03    0.26779E-01   -0.12746E-02  4777   0.113E-01    0.482E-02
RMM:   6    -0.413181395394E+03   -0.16613E-03   -0.23468E-03  5819   0.462E-02    0.335E-02
RMM:   7    -0.413181395141E+03    0.25318E-06   -0.36887E-04  5591   0.193E-02    0.214E-02
RMM:   8    -0.413181386928E+03    0.82131E-05   -0.60767E-05  4976   0.906E-03    0.108E-02
RMM:   9    -0.413181383360E+03    0.35678E-05   -0.11999E-05  3787   0.414E-03    0.762E-03
RMM:  10    -0.413181381839E+03    0.15212E-05   -0.22582E-06  2593   0.253E-03    0.440E-03
RMM:  11    -0.413181380269E+03    0.15697E-05   -0.14073E-06  2526   0.192E-03    0.232E-03
RMM:  12    -0.413181377531E+03    0.27382E-05   -0.16037E-06  2529   0.200E-03    0.112E-03
RMM:  13    -0.413181375871E+03    0.16600E-05   -0.52793E-07  2339   0.129E-03    0.722E-04
RMM:  14    -0.413181375351E+03    0.51954E-06   -0.23897E-07  1889   0.856E-04
   28 T=    64. E= -.41286679E+03 F= -.41318138E+03 E0= -.41315973E+03  EK= 0.31458E+00 SP= 0.00E+00 SK= 0.00E+00
       N       E                     dE             d eps       ncg     rms          rms(c)
RMM:   1    -0.413189257847E+03   -0.78820E-02   -0.77901E+00  4294   0.691E-01    0.930E-01
RMM:   2    -0.413189351954E+03   -0.94107E-04   -0.10007E-01  4279   0.957E-02    0.672E-01
RMM:   3    -0.413184206932E+03    0.51450E-02   -0.29667E-02  4807   0.604E-02    0.133E-01
RMM:   4    -0.413206488444E+03   -0.22282E-01   -0.23952E-02  5129   0.131E-01    0.631E-01
RMM:   5    -0.413183328930E+03    0.23160E-01   -0.11225E-02  4791   0.104E-01    0.474E-02
RMM:   6    -0.413183454170E+03   -0.12524E-03   -0.20439E-03  5841   0.429E-02    0.326E-02
RMM:   7    -0.413183448027E+03    0.61433E-05   -0.28717E-04  5582   0.178E-02    0.189E-02
RMM:   8    -0.413183439046E+03    0.89810E-05   -0.56286E-05  4964   0.833E-03    0.108E-02
RMM:   9    -0.413183432842E+03    0.62034E-05   -0.10744E-05  3727   0.392E-03    0.764E-03
RMM:  10    -0.413183427842E+03    0.50004E-05   -0.20941E-06  2580   0.246E-03    0.429E-03
RMM:  11    -0.413183422824E+03    0.50178E-05   -0.15562E-06  2531   0.199E-03    0.221E-03
RMM:  12    -0.413183416215E+03    0.66091E-05   -0.14732E-06  2528   0.189E-03    0.114E-03
RMM:  13    -0.413183413645E+03    0.25701E-05   -0.50261E-07  2328   0.124E-03    0.695E-04
RMM:  14    -0.413183412477E+03    0.11674E-05   -0.23250E-07  1827   0.838E-04    0.501E-04
RMM:  15    -0.413183407829E+03    0.46488E-05   -0.20311E-07  1989   0.820E-04    0.388E-04
RMM:  16    -0.413183403644E+03    0.41850E-05   -0.12917E-07  1521   0.688E-04    0.410E-04
RMM:  17    -0.413183401440E+03    0.22034E-05   -0.50467E-08   908   0.554E-04    0.316E-04
RMM:  18    -0.413183396956E+03    0.44843E-05   -0.72969E-08  1093   0.613E-04    0.792E-05
RMM:  19    -0.413183394795E+03    0.21607E-05   -0.37827E-08   925   0.578E-04    0.116E-04
RMM:  20    -0.413183394782E+03    0.13504E-07   -0.12840E-08   687   0.533E-04
   29 T=    64. E= -.41286696E+03 F= -.41318339E+03 E0= -.41316180E+03  EK= 0.31643E+00 SP= 0.00E+00 SK= 0.00E+00
       N       E                     dE             d eps       ncg     rms          rms(c)
RMM:   1    -0.413190617021E+03   -0.72222E-02   -0.77806E+00  4293   0.692E-01    0.913E-01
RMM:   2    -0.413191499421E+03   -0.88240E-03   -0.99431E-02  4277   0.979E-02    0.668E-01
RMM:   3    -0.413186295073E+03    0.52043E-02   -0.30827E-02  4816   0.654E-02    0.153E-01
RMM:   4    -0.413210735619E+03   -0.24441E-01   -0.26831E-02  5125   0.138E-01    0.662E-01
RMM:   5    -0.413185160172E+03    0.25575E-01   -0.12352E-02  4783   0.110E-01    0.478E-02
RMM:   6    -0.413185309253E+03   -0.14908E-03   -0.22341E-03  5841   0.447E-02    0.326E-02
RMM:   7    -0.413185310743E+03   -0.14898E-05   -0.30693E-04  5622   0.177E-02    0.192E-02
RMM:   8    -0.413185304756E+03    0.59871E-05   -0.59610E-05  4986   0.838E-03    0.110E-02
RMM:   9    -0.413185299332E+03    0.54242E-05   -0.11425E-05  3814   0.402E-03    0.768E-03
RMM:  10    -0.413185296835E+03    0.24969E-05   -0.21001E-06  2573   0.240E-03    0.440E-03
RMM:  11    -0.413185294557E+03    0.22779E-05   -0.14543E-06  2526   0.192E-03    0.232E-03
RMM:  12    -0.413185290995E+03    0.35615E-05   -0.15066E-06  2520   0.192E-03    0.116E-03
RMM:  13    -0.413185289341E+03    0.16547E-05   -0.52060E-07  2339   0.127E-03    0.710E-04
RMM:  14    -0.413185288652E+03    0.68872E-06   -0.23594E-07  1878   0.851E-04
   30 T=    65. E= -.41286696E+03 F= -.41318529E+03 E0= -.41316374E+03  EK= 0.31833E+00 SP= 0.00E+00 SK= 0.00E+00
       N       E                     dE             d eps       ncg     rms          rms(c)
RMM:   1    -0.413193651694E+03   -0.83624E-02   -0.79216E+00  4296   0.707E-01    0.919E-01
RMM:   2    -0.413193531744E+03    0.11995E-03   -0.10259E-01  4271   0.102E-01    0.679E-01
RMM:   3    -0.413187780895E+03    0.57508E-02   -0.32744E-02  4688   0.676E-02    0.152E-01
RMM:   4    -0.413205451822E+03   -0.17671E-01   -0.19089E-02  5133   0.118E-01    0.567E-01
RMM:   5    -0.413186840361E+03    0.18611E-01   -0.91073E-03  4798   0.935E-02    0.447E-02
RMM:   6    -0.413186948615E+03   -0.10825E-03   -0.16542E-03  5857   0.380E-02    0.291E-02
RMM:   7    -0.413186950530E+03   -0.19158E-05   -0.18458E-04  5506   0.148E-02    0.142E-02
RMM:   8    -0.413186947527E+03    0.30031E-05   -0.29758E-05  4576   0.582E-03    0.866E-03
RMM:   9    -0.413186945458E+03    0.20694E-05   -0.77011E-06  3392   0.317E-03    0.626E-03
RMM:  10    -0.413186944792E+03    0.66560E-06   -0.17302E-06  2539   0.220E-03
   31 T=    65. E= -.41286681E+03 F= -.41318694E+03 E0= -.41316545E+03  EK= 0.32014E+00 SP= 0.00E+00 SK= 0.00E+00
       N       E                     dE             d eps       ncg     rms          rms(c)
RMM:   1    -0.413196430819E+03   -0.94854E-02   -0.79231E+00  4299   0.729E-01    0.938E-01
RMM:   2    -0.413195852887E+03    0.57793E-03   -0.10297E-01  4289   0.106E-01    0.679E-01
RMM:   3    -0.413191769135E+03    0.40838E-02   -0.31315E-02  4951   0.809E-02    0.208E-01
RMM:   4    -0.413224746682E+03   -0.32978E-01   -0.41281E-02  5098   0.171E-01    0.773E-01
RMM:   5    -0.413189357119E+03    0.35390E-01   -0.16258E-02  4777   0.128E-01    0.548E-02
RMM:   6    -0.413189549158E+03   -0.19204E-03   -0.30183E-03  5755   0.528E-02    0.380E-02
RMM:   7    -0.413189546131E+03    0.30273E-05   -0.50016E-04  5623   0.210E-02    0.246E-02
RMM:   8    -0.413189537914E+03    0.82167E-05   -0.71118E-05  5219   0.976E-03    0.111E-02
RMM:   9    -0.413189531364E+03    0.65502E-05   -0.13605E-05  3919   0.432E-03    0.705E-03
RMM:  10    -0.413189525601E+03    0.57632E-05   -0.25514E-06  2615   0.255E-03    0.425E-03
RMM:  11    -0.413189521694E+03    0.39064E-05   -0.10893E-06  2507   0.171E-03    0.248E-03
RMM:  12    -0.413189513480E+03    0.82148E-05   -0.15270E-06  2529   0.193E-03    0.111E-03
RMM:  13    -0.413189509003E+03    0.44760E-05   -0.69715E-07  2411   0.138E-03    0.809E-04
RMM:  14    -0.413189507438E+03    0.15652E-05   -0.29907E-07  2049   0.941E-04    0.521E-04
RMM:  15    -0.413189505065E+03    0.23734E-05   -0.15103E-07  1508   0.726E-04    0.301E-04
RMM:  16    -0.413189498806E+03    0.62588E-05   -0.16020E-07  1749   0.752E-04    0.383E-04
RMM:  17    -0.413189495404E+03    0.34018E-05   -0.79706E-08  1200   0.608E-04    0.354E-04
RMM:  18    -0.413189489230E+03    0.61738E-05   -0.80501E-08  1106   0.599E-04    0.217E-04
RMM:  19    -0.413189487922E+03    0.13082E-05   -0.39245E-08   878   0.545E-04    0.677E-05
RMM:  20    -0.413189486332E+03    0.15898E-05   -0.35887E-08   952   0.568E-04    0.130E-04
RMM:  21    -0.413189486078E+03    0.25404E-06   -0.12924E-08   697   0.529E-04
   32 T=    66. E= -.41286722E+03 F= -.41318949E+03 E0= -.41316804E+03  EK= 0.32227E+00 SP= 0.00E+00 SK= 0.00E+00
       N       E                     dE             d eps       ncg     rms          rms(c)
RMM:   1    -0.413199562980E+03   -0.10077E-01   -0.79235E+00  4301   0.751E-01    0.926E-01
RMM:   2    -0.413197469649E+03    0.20933E-02   -0.10487E-01  4279   0.110E-01    0.675E-01
RMM:   3    -0.413191928633E+03    0.55410E-02   -0.30133E-02  4586   0.715E-02    0.117E-01
RMM:   4    -0.413205615945E+03   -0.13687E-01   -0.14257E-02  5131   0.101E-01    0.499E-01
RMM:   5    -0.413191336922E+03    0.14279E-01   -0.71486E-03  4811   0.818E-02    0.440E-02
RMM:   6    -0.413191415192E+03   -0.78270E-04   -0.13273E-03  5826   0.340E-02    0.293E-02
RMM:   7    -0.413191419628E+03   -0.44360E-05   -0.21913E-04  5451   0.157E-02    0.176E-02
RMM:   8    -0.413191404614E+03    0.15014E-04   -0.34265E-05  4747   0.670E-03    0.876E-03
RMM:   9    -0.413191402810E+03    0.18044E-05   -0.68586E-06  3196   0.322E-03    0.632E-03
RMM:  10    -0.413191399087E+03    0.37224E-05   -0.16505E-06  2515   0.220E-03    0.336E-03
RMM:  11    -0.413191395586E+03    0.35018E-05   -0.11746E-06  2508   0.175E-03    0.174E-03
RMM:  12    -0.413191391472E+03    0.41138E-05   -0.82700E-07  2452   0.147E-03    0.970E-04
RMM:  13    -0.413191389563E+03    0.19090E-05   -0.33346E-07  2141   0.101E-03    0.468E-04
RMM:  14    -0.413191388024E+03    0.15388E-05   -0.16746E-07  1534   0.746E-04    0.300E-04
RMM:  15    -0.413191384223E+03    0.38011E-05   -0.13180E-07  1530   0.716E-04    0.169E-04
RMM:  16    -0.413191381037E+03    0.31859E-05   -0.72177E-08  1094   0.627E-04    0.150E-04
RMM:  17    -0.413191378192E+03    0.28455E-05   -0.45758E-08   908   0.586E-04    0.994E-05
RMM:  18    -0.413191373686E+03    0.45061E-05   -0.55968E-08  1045   0.609E-04    0.356E-05
RMM:  19    -0.413191372759E+03    0.92674E-06   -0.21409E-08   782   0.555E-04
   33 T=    66. E= -.41286707E+03 F= -.41319137E+03 E0= -.41316997E+03  EK= 0.32430E+00 SP= 0.00E+00 SK= 0.00E+00
       N       E                     dE             d eps       ncg     rms          rms(c)
RMM:   1    -0.413200711237E+03   -0.93376E-02   -0.80358E+00  4306   0.745E-01    0.924E-01
RMM:   2    -0.413200001055E+03    0.71018E-03   -0.10586E-01  4274   0.113E-01    0.684E-01
RMM:   3    -0.413194347112E+03    0.56539E-02   -0.32991E-02  4512   0.772E-02    0.136E-01
RMM:   4    -0.413203735028E+03   -0.93879E-02   -0.10181E-02  5135   0.867E-02    0.421E-01
RMM:   5    -0.413193678618E+03    0.10056E-01   -0.50217E-03  4823   0.689E-02    0.421E-02
RMM:   6    -0.413193750169E+03   -0.71551E-04   -0.10828E-03  5793   0.299E-02    0.290E-02
RMM:   7    -0.413193754009E+03   -0.38400E-05   -0.23990E-04  5340   0.161E-02    0.189E-02
RMM:   8    -0.413193738946E+03    0.15064E-04   -0.27255E-05  4581   0.650E-03    0.835E-03
RMM:   9    -0.413193738430E+03    0.51602E-06   -0.50670E-06  2936   0.287E-03
   34 T=    66. E= -.41286711E+03 F= -.41319374E+03 E0= -.41317239E+03  EK= 0.32663E+00 SP= 0.00E+00 SK= 0.00E+00
       N       E                     dE             d eps       ncg     rms          rms(c)
RMM:   1    -0.413202630693E+03   -0.88917E-02   -0.80564E+00  4306   0.761E-01    0.944E-01
RMM:   2    -0.413202217281E+03    0.41341E-03   -0.10565E-01  4290   0.120E-01    0.687E-01
RMM:   3    -0.413199468443E+03    0.27488E-02   -0.32915E-02  4928   0.980E-02    0.240E-01
RMM:   4    -0.413231472883E+03   -0.32004E-01   -0.42827E-02  5083   0.175E-01    0.771E-01
RMM:   5    -0.413196282786E+03    0.35190E-01   -0.15780E-02  4763   0.128E-01    0.539E-02
RMM:   6    -0.413196467137E+03   -0.18435E-03   -0.30215E-03  5783   0.521E-02    0.368E-02
RMM:   7    -0.413196471744E+03   -0.46065E-05   -0.42711E-04  5616   0.201E-02    0.231E-02
RMM:   8    -0.413196463692E+03    0.80515E-05   -0.86603E-05  5168   0.102E-02    0.126E-02
RMM:   9    -0.413196454270E+03    0.94218E-05   -0.14273E-05  4030   0.466E-03    0.734E-03
RMM:  10    -0.413196449105E+03    0.51651E-05   -0.29056E-06  2683   0.268E-03    0.437E-03
RMM:  11    -0.413196445451E+03    0.36547E-05   -0.11910E-06  2499   0.183E-03    0.254E-03
RMM:  12    -0.413196437694E+03    0.77567E-05   -0.16555E-06  2530   0.204E-03    0.115E-03
RMM:  13    -0.413196433086E+03    0.46080E-05   -0.69580E-07  2401   0.142E-03    0.802E-04
RMM:  14    -0.413196431883E+03    0.12025E-05   -0.29852E-07  2066   0.951E-04    0.531E-04
RMM:  15    -0.413196429720E+03    0.21636E-05   -0.14790E-07  1483   0.727E-04    0.326E-04
RMM:  16    -0.413196422420E+03    0.72999E-05   -0.20434E-07  2062   0.813E-04    0.611E-04
RMM:  17    -0.413196420036E+03    0.23839E-05   -0.68883E-08  1071   0.579E-04    0.497E-04
RMM:  18    -0.413196413460E+03    0.65755E-05   -0.77303E-08  1036   0.600E-04    0.315E-04
RMM:  19    -0.413196412411E+03    0.10491E-05   -0.41218E-08   924   0.564E-04    0.104E-04
RMM:  20    -0.413196410154E+03    0.22571E-05   -0.50535E-08  1207   0.609E-04    0.252E-04
RMM:  21    -0.413196409904E+03    0.25037E-06   -0.18020E-08   755   0.529E-04
   35 T=    67. E= -.41286719E+03 F= -.41319641E+03 E0= -.41317510E+03  EK= 0.32922E+00 SP= 0.00E+00 SK= 0.00E+00
       N       E                     dE             d eps       ncg     rms          rms(c)
RMM:   1    -0.413207609751E+03   -0.11200E-01   -0.80853E+00  4306   0.820E-01    0.940E-01
RMM:   2    -0.413204234628E+03    0.33751E-02   -0.11217E-01  4264   0.131E-01    0.684E-01
RMM:   3    -0.413198781149E+03    0.54535E-02   -0.29722E-02  4295   0.813E-02    0.848E-02
RMM:   4    -0.413198660389E+03    0.12076E-03   -0.35373E-04  4946   0.174E-02    0.589E-02
RMM:   5    -0.413198620885E+03    0.39504E-04   -0.18185E-04  4878   0.129E-02    0.520E-02
RMM:   6    -0.413198618471E+03    0.24138E-05   -0.47648E-04  5211   0.211E-02    0.344E-02
RMM:   7    -0.413198570498E+03    0.47973E-04   -0.19246E-04  4780   0.157E-02    0.190E-02
RMM:   8    -0.413198563652E+03    0.68459E-05   -0.35513E-05  4687   0.575E-03    0.636E-03
RMM:   9    -0.413198562081E+03    0.15719E-05   -0.77919E-06  2535   0.240E-03    0.252E-03
RMM:  10    -0.413198555734E+03    0.63465E-05   -0.10818E-06  2385   0.160E-03    0.905E-04
RMM:  11    -0.413198552251E+03    0.34828E-05   -0.29932E-07  1801   0.881E-04    0.483E-04
RMM:  12    -0.413198547560E+03    0.46908E-05   -0.14771E-07  1309   0.726E-04    0.403E-04
RMM:  13    -0.413198543403E+03    0.41574E-05   -0.10603E-07  1156   0.660E-04    0.254E-04
RMM:  14    -0.413198536521E+03    0.68819E-05   -0.12117E-07  1172   0.665E-04    0.174E-04
RMM:  15    -0.413198533727E+03    0.27943E-05   -0.38523E-08   791   0.574E-04    0.157E-04
RMM:  16    -0.413198529053E+03    0.46740E-05   -0.43244E-08   957   0.593E-04    0.822E-05
RMM:  17    -0.413198527289E+03    0.17634E-05   -0.20183E-08   727   0.537E-04    0.544E-05
RMM:  18    -0.413198526786E+03    0.50308E-06   -0.88394E-09   560   0.510E-04
   36 T=    68. E= -.41286683E+03 F= -.41319853E+03 E0= -.41317726E+03  EK= 0.33170E+00 SP= 0.00E+00 SK= 0.00E+00
       N       E                     dE             d eps       ncg     rms          rms(c)
RMM:   1    -0.413207507381E+03   -0.89801E-02   -0.81562E+00  4312   0.805E-01    0.932E-01
RMM:   2    -0.413207786602E+03   -0.27922E-03   -0.10918E-01  4263   0.125E-01    0.689E-01
RMM:   3    -0.413201992834E+03    0.57938E-02   -0.33005E-02  4399   0.830E-02    0.122E-01
RMM:   4    -0.413205868227E+03   -0.38754E-02   -0.46140E-03  5149   0.602E-02    0.282E-01
RMM:   5    -0.413201499973E+03    0.43683E-02   -0.22031E-03  4807   0.463E-02    0.413E-02
RMM:   6    -0.413201543453E+03   -0.43480E-04   -0.68507E-04  5561   0.261E-02    0.325E-02
RMM:   7    -0.413201529317E+03    0.14136E-04   -0.24757E-04  5114   0.169E-02    0.189E-02
RMM:   8    -0.413201521365E+03    0.79519E-05   -0.30261E-05  4865   0.635E-03    0.784E-03
RMM:   9    -0.413201520688E+03    0.67640E-06   -0.44166E-06  2748   0.254E-03
   37 T=    68. E= -.41286702E+03 F= -.41320152E+03 E0= -.41318030E+03  EK= 0.33450E+00 SP= 0.00E+00 SK= 0.00E+00
       N       E                     dE             d eps       ncg     rms          rms(c)
RMM:   1    -0.413213863114E+03   -0.12342E-01   -0.82645E+00  4312   0.861E-01    0.948E-01
RMM:   2    -0.413210766581E+03    0.30965E-02   -0.11891E-01  4264   0.125E-01    0.697E-01
RMM:   3    -0.413205575013E+03    0.51916E-02   -0.31267E-02  4827   0.818E-02    0.166E-01
RMM:   4    -0.413241040595E+03   -0.35466E-01   -0.39751E-02  5121   0.168E-01    0.793E-01
RMM:   5    -0.413204081700E+03    0.36959E-01   -0.17691E-02  4788   0.132E-01    0.537E-02
RMM:   6    -0.413204178194E+03   -0.96494E-04   -0.31361E-03  5818   0.526E-02    0.352E-02
RMM:   7    -0.413204194914E+03   -0.16720E-04   -0.36387E-04  5590   0.188E-02    0.188E-02
RMM:   8    -0.413204187822E+03    0.70913E-05   -0.44764E-05  4670   0.696E-03    0.969E-03
RMM:   9    -0.413204183673E+03    0.41494E-05   -0.85766E-06  3192   0.348E-03    0.524E-03
RMM:  10    -0.413204180931E+03    0.27418E-05   -0.20681E-06  2557   0.214E-03    0.341E-03
RMM:  11    -0.413204174660E+03    0.62716E-05   -0.22165E-06  2590   0.233E-03    0.196E-03
RMM:  12    -0.413204170552E+03    0.41070E-05   -0.11626E-06  2472   0.181E-03    0.103E-03
RMM:  13    -0.413204167845E+03    0.27074E-05   -0.46278E-07  2308   0.120E-03    0.751E-04
RMM:  14    -0.413204166415E+03    0.14299E-05   -0.22474E-07  1857   0.838E-04    0.505E-04
RMM:  15    -0.413204162117E+03    0.42982E-05   -0.17329E-07  1794   0.781E-04    0.263E-04
RMM:  16    -0.413204156456E+03    0.56608E-05   -0.12868E-07  1528   0.700E-04    0.289E-04
RMM:  17    -0.413204151919E+03    0.45375E-05   -0.70245E-08  1085   0.604E-04    0.215E-04
RMM:  18    -0.413204147935E+03    0.39842E-05   -0.56846E-08  1072   0.599E-04    0.554E-05
RMM:  19    -0.413204144918E+03    0.30164E-05   -0.44997E-08  1114   0.600E-04    0.157E-04
RMM:  20    -0.413204144825E+03    0.92761E-07   -0.14573E-08   699   0.528E-04
   38 T=    69. E= -.41286691E+03 F= -.41320414E+03 E0= -.41318297E+03  EK= 0.33723E+00 SP= 0.00E+00 SK= 0.00E+00
       N       E                     dE             d eps       ncg     rms          rms(c)
RMM:   1    -0.413221547240E+03   -0.17402E-01   -0.83190E+00  4309   0.934E-01    0.956E-01
RMM:   2    -0.413213368963E+03    0.81783E-02   -0.12437E-01  4260   0.123E-01    0.694E-01
RMM:   3    -0.413207572619E+03    0.57963E-02   -0.28278E-02  4809   0.707E-02    0.127E-01
RMM:   4    -0.413239063293E+03   -0.31491E-01   -0.33717E-02  5133   0.154E-01    0.744E-01
RMM:   5    -0.413206710630E+03    0.32353E-01   -0.15872E-02  4802   0.123E-01    0.523E-02
RMM:   6    -0.413206791034E+03   -0.80404E-04   -0.27718E-03  5815   0.495E-02    0.351E-02
RMM:   7    -0.413206799869E+03   -0.88345E-05   -0.34653E-04  5598   0.183E-02    0.190E-02
RMM:   8    -0.413206791557E+03    0.83121E-05   -0.45621E-05  4815   0.722E-03    0.102E-02
RMM:   9    -0.413206791404E+03    0.15265E-06   -0.18722E-05  4425   0.456E-03    0.820E-03
RMM:  10    -0.413206785096E+03    0.63078E-05   -0.32800E-06  2748   0.282E-03    0.437E-03
RMM:  11    -0.413206781957E+03    0.31392E-05   -0.15274E-06  2511   0.200E-03    0.268E-03
RMM:  12    -0.413206774240E+03    0.77165E-05   -0.20533E-06  2563   0.225E-03    0.137E-03
RMM:  13    -0.413206770896E+03    0.33449E-05   -0.66470E-07  2419   0.147E-03    0.861E-04
RMM:  14    -0.413206770248E+03    0.64772E-06   -0.27096E-07  2083   0.933E-04
   39 T=    69. E= -.41286683E+03 F= -.41320677E+03 E0= -.41318563E+03  EK= 0.33994E+00 SP= 0.00E+00 SK= 0.00E+00
       N       E                     dE             d eps       ncg     rms          rms(c)
RMM:   1    -0.413220664056E+03   -0.13893E-01   -0.83379E+00  4311   0.937E-01    0.940E-01
RMM:   2    -0.413216923020E+03    0.37410E-02   -0.12273E-01  4262   0.126E-01    0.697E-01
RMM:   3    -0.413211188326E+03    0.57347E-02   -0.30655E-02  4856   0.761E-02    0.155E-01
RMM:   4    -0.413246102580E+03   -0.34914E-01   -0.38811E-02  5123   0.165E-01    0.785E-01
RMM:   5    -0.413209898694E+03    0.36204E-01   -0.17494E-02  4794   0.130E-01    0.534E-02
RMM:   6    -0.413209990005E+03   -0.91312E-04   -0.30223E-03  5814   0.517E-02    0.345E-02
RMM:   7    -0.413210004072E+03   -0.14067E-04   -0.37175E-04  5635   0.184E-02    0.187E-02
RMM:   8    -0.413209997246E+03    0.68263E-05   -0.43935E-05  4729   0.689E-03    0.936E-03
RMM:   9    -0.413209997960E+03   -0.71491E-06   -0.17319E-05  4264   0.434E-03    0.736E-03
RMM:  10    -0.413209993135E+03    0.48251E-05   -0.36256E-06  2822   0.271E-03    0.413E-03
RMM:  11    -0.413209990469E+03    0.26659E-05   -0.15303E-06  2508   0.200E-03    0.246E-03
RMM:  12    -0.413209984217E+03    0.62526E-05   -0.18722E-06  2539   0.213E-03    0.120E-03
RMM:  13    -0.413209981615E+03    0.26018E-05   -0.56914E-07  2404   0.137E-03    0.773E-04
RMM:  14    -0.413209981101E+03    0.51453E-06   -0.24207E-07  1973   0.879E-04
   40 T=    70. E= -.41286718E+03 F= -.41320998E+03 E0= -.41318888E+03  EK= 0.34280E+00 SP= 0.00E+00 SK= 0.00E+00
       N       E                     dE             d eps       ncg     rms          rms(c)
RMM:   1    -0.413221401029E+03   -0.11419E-01   -0.84313E+00  4310   0.947E-01    0.956E-01
RMM:   2    -0.413219330671E+03    0.20704E-02   -0.11755E-01  4263   0.126E-01    0.705E-01
RMM:   3    -0.413214114241E+03    0.52164E-02   -0.33301E-02  4923   0.803E-02    0.189E-01
RMM:   4    -0.413251260770E+03   -0.37147E-01   -0.43711E-02  5119   0.176E-01    0.814E-01
RMM:   5    -0.413212205116E+03    0.39056E-01   -0.18479E-02  4788   0.135E-01    0.554E-02
RMM:   6    -0.413212306646E+03   -0.10153E-03   -0.32175E-03  5807   0.532E-02    0.347E-02
RMM:   7    -0.413212320228E+03   -0.13582E-04   -0.38524E-04  5660   0.187E-02    0.189E-02
RMM:   8    -0.413212318377E+03    0.18518E-05   -0.55028E-05  4927   0.751E-03    0.100E-02
RMM:   9    -0.413212314503E+03    0.38737E-05   -0.18311E-05  4357   0.449E-03    0.711E-03
RMM:  10    -0.413212312064E+03    0.24387E-05   -0.45247E-06  2945   0.292E-03    0.410E-03
RMM:  11    -0.413212309565E+03    0.24993E-05   -0.14531E-06  2498   0.200E-03    0.250E-03
RMM:  12    -0.413212303268E+03    0.62968E-05   -0.16246E-06  2519   0.203E-03    0.108E-03
RMM:  13    -0.413212299656E+03    0.36124E-05   -0.61423E-07  2405   0.137E-03    0.793E-04
RMM:  14    -0.413212299080E+03    0.57577E-06   -0.26006E-07  2008   0.904E-04
   41 T=    70. E= -.41286698E+03 F= -.41321230E+03 E0= -.41319123E+03  EK= 0.34532E+00 SP= 0.00E+00 SK= 0.00E+00
       N       E                     dE             d eps       ncg     rms          rms(c)
RMM:   1    -0.413233199709E+03   -0.20900E-01   -0.85163E+00  4312   0.107E+00    0.970E-01
RMM:   2    -0.413221666665E+03    0.11533E-01   -0.12855E-01  4296   0.132E-01    0.704E-01
RMM:   3    -0.413217087144E+03    0.45795E-02   -0.29614E-02  4989   0.781E-02    0.199E-01
RMM:   4    -0.413258949544E+03   -0.41862E-01   -0.51142E-02  5117   0.190E-01    0.862E-01
RMM:   5    -0.413214842533E+03    0.44107E-01   -0.20481E-02  4781   0.143E-01    0.587E-02
RMM:   6    -0.413214971172E+03   -0.12864E-03   -0.36362E-03  5797   0.564E-02    0.371E-02
RMM:   7    -0.413214979440E+03   -0.82680E-05   -0.45291E-04  5712   0.202E-02    0.217E-02
RMM:   8    -0.413214979646E+03   -0.20631E-06   -0.98797E-05  5209   0.100E-02    0.137E-02
RMM:   9    -0.413214967665E+03    0.11981E-04   -0.22733E-05  4564   0.549E-03    0.750E-03
RMM:  10    -0.413214962305E+03    0.53597E-05   -0.40786E-06  2811   0.295E-03    0.438E-03
RMM:  11    -0.413214958456E+03    0.38488E-05   -0.13486E-06  2498   0.197E-03    0.265E-03
RMM:  12    -0.413214949547E+03    0.89096E-05   -0.15054E-06  2507   0.201E-03    0.119E-03
RMM:  13    -0.413214943300E+03    0.62468E-05   -0.68142E-07  2432   0.143E-03    0.767E-04
RMM:  14    -0.413214942273E+03    0.10266E-05   -0.29413E-07  2096   0.956E-04    0.494E-04
RMM:  15    -0.413214940008E+03    0.22653E-05   -0.14352E-07  1510   0.724E-04    0.345E-04
RMM:  16    -0.413214931629E+03    0.83790E-05   -0.16847E-07  1981   0.790E-04    0.552E-04
RMM:  17    -0.413214929852E+03    0.17773E-05   -0.52338E-08   963   0.561E-04    0.429E-04
RMM:  18    -0.413214923139E+03    0.67130E-05   -0.59646E-08  1108   0.600E-04    0.270E-04
RMM:  19    -0.413214922208E+03    0.93032E-06   -0.29783E-08   857   0.552E-04
   42 T=    71. E= -.41286716E+03 F= -.41321492E+03 E0= -.41319388E+03  EK= 0.34776E+00 SP= 0.00E+00 SK= 0.00E+00
       N       E                     dE             d eps       ncg     rms          rms(c)
RMM:   1    -0.413228410931E+03   -0.13488E-01   -0.84476E+00  4314   0.108E+00    0.953E-01
RMM:   2    -0.413224064458E+03    0.43465E-02   -0.12300E-01  4335   0.132E-01    0.701E-01
RMM:   3    -0.413220982474E+03    0.30820E-02   -0.32983E-02  5034   0.904E-02    0.262E-01
RMM:   4    -0.413256795932E+03   -0.35813E-01   -0.50783E-02  5100   0.191E-01    0.818E-01
RMM:   5    -0.413217115823E+03    0.39680E-01   -0.17451E-02  4754   0.135E-01    0.581E-02
RMM:   6    -0.413217209410E+03   -0.93587E-04   -0.32077E-03  5772   0.531E-02    0.356E-02
RMM:   7    -0.413217220423E+03   -0.11013E-04   -0.43160E-04  5694   0.198E-02    0.219E-02
RMM:   8    -0.413217221280E+03   -0.85635E-06   -0.10942E-04  5199   0.107E-02    0.133E-02
RMM:   9    -0.413217211263E+03    0.10016E-04   -0.19009E-05  4394   0.539E-03    0.635E-03
RMM:  10    -0.413217208407E+03    0.28568E-05   -0.39138E-06  2802   0.277E-03    0.379E-03
RMM:  11    -0.413217206103E+03    0.23032E-05   -0.12302E-06  2499   0.186E-03    0.219E-03
RMM:  12    -0.413217200814E+03    0.52890E-05   -0.12217E-06  2498   0.179E-03    0.101E-03
RMM:  13    -0.413217196913E+03    0.39010E-05   -0.55884E-07  2362   0.127E-03    0.575E-04
RMM:  14    -0.413217195877E+03    0.10362E-05   -0.25878E-07  1922   0.880E-04    0.368E-04
RMM:  15    -0.413217193411E+03    0.24658E-05   -0.13987E-07  1396   0.711E-04    0.187E-04
RMM:  16    -0.413217188822E+03    0.45894E-05   -0.11322E-07  1356   0.690E-04    0.200E-04
RMM:  17    -0.413217186390E+03    0.24314E-05   -0.60648E-08   988   0.609E-04    0.130E-04
RMM:  18    -0.413217182304E+03    0.40860E-05   -0.63931E-08  1197   0.630E-04    0.118E-04
RMM:  19    -0.413217180040E+03    0.22642E-05   -0.38729E-08   968   0.577E-04    0.391E-05
RMM:  20    -0.413217179161E+03    0.87894E-06   -0.23551E-08   819   0.549E-04
   43 T=    71. E= -.41286734E+03 F= -.41321718E+03 E0= -.41319617E+03  EK= 0.34984E+00 SP= 0.00E+00 SK= 0.00E+00
       N       E                     dE             d eps       ncg     rms          rms(c)
RMM:   1    -0.413231037237E+03   -0.13857E-01   -0.85715E+00  4316   0.112E+00    0.958E-01
RMM:   2    -0.413225701118E+03    0.53361E-02   -0.12675E-01  4348   0.140E-01    0.712E-01
RMM:   3    -0.413223368309E+03    0.23328E-02   -0.34973E-02  5044   0.968E-02    0.298E-01
RMM:   4    -0.413256926886E+03   -0.33559E-01   -0.52052E-02  5094   0.194E-01    0.807E-01
RMM:   5    -0.413218383109E+03    0.38544E-01   -0.16453E-02  4737   0.133E-01    0.582E-02
RMM:   6    -0.413218459547E+03   -0.76438E-04   -0.30310E-03  5767   0.520E-02    0.345E-02
RMM:   7    -0.413218470155E+03   -0.10608E-04   -0.42375E-04  5686   0.197E-02    0.221E-02
RMM:   8    -0.413218471855E+03   -0.17000E-05   -0.11234E-04  5199   0.110E-02    0.128E-02
RMM:   9    -0.413218463011E+03    0.88440E-05   -0.17540E-05  4299   0.533E-03    0.576E-03
RMM:  10    -0.413218461254E+03    0.17572E-05   -0.38436E-06  2803   0.268E-03    0.349E-03
RMM:  11    -0.413218459592E+03    0.16615E-05   -0.12064E-06  2503   0.182E-03    0.195E-03
RMM:  12    -0.413218455668E+03    0.39241E-05   -0.11188E-06  2490   0.169E-03    0.892E-04
RMM:  13    -0.413218452691E+03    0.29774E-05   -0.51166E-07  2305   0.120E-03    0.483E-04
RMM:  14    -0.413218451534E+03    0.11566E-05   -0.23941E-07  1803   0.840E-04    0.302E-04
RMM:  15    -0.413218448297E+03    0.32373E-05   -0.15380E-07  1393   0.725E-04    0.153E-04
RMM:  16    -0.413218445227E+03    0.30692E-05   -0.10517E-07  1208   0.666E-04    0.149E-04
RMM:  17    -0.413218442644E+03    0.25831E-05   -0.74096E-08  1115   0.626E-04    0.111E-04
RMM:  18    -0.413218440109E+03    0.25352E-05   -0.56707E-08  1098   0.609E-04    0.691E-05
RMM:  19    -0.413218437251E+03    0.28585E-05   -0.47148E-08  1090   0.595E-04    0.392E-05
RMM:  20    -0.413218436747E+03    0.50373E-06   -0.20700E-08   760   0.537E-04
   44 T=    72. E= -.41286712E+03 F= -.41321844E+03 E0= -.41319745E+03  EK= 0.35132E+00 SP= 0.00E+00 SK= 0.00E+00
       N       E                     dE             d eps       ncg     rms          rms(c)
RMM:   1    -0.413236575396E+03   -0.18138E-01   -0.85693E+00  4312   0.123E+00    0.977E-01
RMM:   2    -0.413226772532E+03    0.98029E-02   -0.12967E-01  4348   0.150E-01    0.711E-01
RMM:   3    -0.413226669862E+03    0.10267E-03   -0.34134E-02  5067   0.106E-01    0.349E-01
RMM:   4    -0.413251740162E+03   -0.25070E-01   -0.49084E-02  5065   0.191E-01    0.735E-01
RMM:   5    -0.413219816464E+03    0.31924E-01   -0.12569E-02  4708   0.120E-01    0.586E-02
RMM:   6    -0.413219841234E+03   -0.24771E-04   -0.24888E-03  5703   0.474E-02    0.345E-02
RMM:   7    -0.413219847707E+03   -0.64730E-05   -0.39707E-04  5632   0.194E-02    0.228E-02
RMM:   8    -0.413219843241E+03    0.44668E-05   -0.11359E-04  5135   0.114E-02    0.121E-02
RMM:   9    -0.413219832995E+03    0.10246E-04   -0.14379E-05  4146   0.515E-03    0.516E-03
RMM:  10    -0.413219828887E+03    0.41081E-05   -0.32763E-06  2760   0.250E-03    0.308E-03
RMM:  11    -0.413219825018E+03    0.38687E-05   -0.10727E-06  2490   0.174E-03    0.166E-03
RMM:  12    -0.413219818230E+03    0.67878E-05   -0.82286E-07  2453   0.150E-03    0.770E-04
RMM:  13    -0.413219814094E+03    0.41364E-05   -0.37677E-07  2148   0.106E-03    0.357E-04
RMM:  14    -0.413219811839E+03    0.22549E-05   -0.19554E-07  1633   0.788E-04    0.225E-04
RMM:  15    -0.413219805645E+03    0.61935E-05   -0.13924E-07  1362   0.726E-04    0.173E-04
RMM:  16    -0.413219803067E+03    0.25780E-05   -0.81803E-08  1125   0.647E-04    0.116E-04
RMM:  17    -0.413219799641E+03    0.34263E-05   -0.65704E-08  1149   0.632E-04    0.748E-05
RMM:  18    -0.413219795921E+03    0.37198E-05   -0.56522E-08  1187   0.617E-04    0.435E-05
RMM:  19    -0.413219793460E+03    0.24608E-05   -0.37310E-08  1024   0.572E-04    0.370E-05
RMM:  20    -0.413219793036E+03    0.42425E-06   -0.18160E-08   745   0.529E-04
   45 T=    72. E= -.41286739E+03 F= -.41321979E+03 E0= -.41319883E+03  EK= 0.35240E+00 SP= 0.00E+00 SK= 0.00E+00
       N       E                     dE             d eps       ncg     rms          rms(c)
RMM:   1    -0.413240736214E+03   -0.20943E-01   -0.85449E+00  4312   0.133E+00    0.958E-01
RMM:   2    -0.413226579495E+03    0.14157E-01   -0.13807E-01  4374   0.161E-01    0.706E-01
RMM:   3    -0.413228717147E+03   -0.21377E-02   -0.33745E-02  5073   0.115E-01    0.405E-01
RMM:   4    -0.413247763218E+03   -0.19046E-01   -0.48971E-02  5059   0.192E-01    0.691E-01
RMM:   5    -0.413219545661E+03    0.28218E-01   -0.10433E-02  4675   0.113E-01    0.586E-02
RMM:   6    -0.413219539824E+03    0.58374E-05   -0.21408E-03  5641   0.444E-02    0.332E-02
RMM:   7    -0.413219545964E+03   -0.61399E-05   -0.36522E-04  5600   0.188E-02    0.227E-02
RMM:   8    -0.413219540938E+03    0.50253E-05   -0.11368E-04  5079   0.116E-02    0.111E-02
RMM:   9    -0.413219531234E+03    0.97046E-05   -0.13446E-05  4094   0.514E-03    0.459E-03
RMM:  10    -0.413219527756E+03    0.34776E-05   -0.29490E-06  2728   0.236E-03    0.274E-03
RMM:  11    -0.413219523742E+03    0.40147E-05   -0.10861E-06  2490   0.170E-03    0.143E-03
RMM:  12    -0.413219518092E+03    0.56493E-05   -0.70565E-07  2418   0.138E-03    0.692E-04
RMM:  13    -0.413219514440E+03    0.36526E-05   -0.33853E-07  1976   0.989E-04    0.304E-04
RMM:  14    -0.413219511592E+03    0.28481E-05   -0.18704E-07  1491   0.765E-04    0.178E-04
RMM:  15    -0.413219506106E+03    0.54857E-05   -0.14358E-07  1318   0.723E-04    0.132E-04
RMM:  16    -0.413219503530E+03    0.25758E-05   -0.90564E-08  1166   0.656E-04    0.885E-05
RMM:  17    -0.413219498649E+03    0.48808E-05   -0.90234E-08  1404   0.670E-04    0.604E-05
RMM:  18    -0.413219496261E+03    0.23884E-05   -0.51503E-08  1062   0.581E-04    0.347E-05
RMM:  19    -0.413219494545E+03    0.17162E-05   -0.35010E-08   943   0.553E-04    0.235E-05
RMM:  20    -0.413219494274E+03    0.27102E-06   -0.19354E-08   734   0.520E-04
   46 T=    72. E= -.41286712E+03 F= -.41321949E+03 E0= -.41319855E+03  EK= 0.35238E+00 SP= 0.00E+00 SK= 0.00E+00
       N       E                     dE             d eps       ncg     rms          rms(c)
RMM:   1    -0.413235775119E+03   -0.16281E-01   -0.85513E+00  4314   0.137E+00    0.952E-01
RMM:   2    -0.413225658466E+03    0.10117E-01   -0.13533E-01  4384   0.169E-01    0.712E-01
RMM:   3    -0.413230736803E+03   -0.50783E-02   -0.38340E-02  5083   0.130E-01    0.467E-01
RMM:   4    -0.413242454059E+03   -0.11717E-01   -0.48043E-02  5037   0.192E-01    0.640E-01
RMM:   5    -0.413218354142E+03    0.24100E-01   -0.83136E-03  4634   0.106E-01    0.569E-02
RMM:   6    -0.413218321928E+03    0.32214E-04   -0.17878E-03  5548   0.406E-02    0.307E-02
RMM:   7    -0.413218326563E+03   -0.46356E-05   -0.30911E-04  5563   0.175E-02    0.212E-02
RMM:   8    -0.413218321151E+03    0.54127E-05   -0.11126E-04  5066   0.113E-02    0.101E-02
RMM:   9    -0.413218313395E+03    0.77558E-05   -0.11860E-05  3950   0.493E-03    0.432E-03
RMM:  10    -0.413218311166E+03    0.22291E-05   -0.26378E-06  2683   0.228E-03    0.252E-03
RMM:  11    -0.413218308186E+03    0.29799E-05   -0.11200E-06  2495   0.169E-03    0.128E-03
RMM:  12    -0.413218304390E+03    0.37959E-05   -0.67915E-07  2380   0.132E-03    0.655E-04
RMM:  13    -0.413218301554E+03    0.28357E-05   -0.32786E-07  1885   0.942E-04    0.293E-04
RMM:  14    -0.413218298923E+03    0.26311E-05   -0.18793E-07  1365   0.749E-04    0.162E-04
RMM:  15    -0.413218294881E+03    0.40418E-05   -0.15965E-07  1380   0.726E-04    0.118E-04
RMM:  16    -0.413218292474E+03    0.24072E-05   -0.10134E-07  1197   0.655E-04    0.809E-05
RMM:  17    -0.413218287876E+03    0.45984E-05   -0.10729E-07  1445   0.678E-04    0.545E-05
RMM:  18    -0.413218286070E+03    0.18056E-05   -0.51405E-08  1001   0.563E-04    0.314E-05
RMM:  19    -0.413218284956E+03    0.11140E-05   -0.31392E-08   845   0.535E-04    0.180E-05
RMM:  20    -0.413218284468E+03    0.48843E-06   -0.19161E-08   730   0.519E-04
   47 T=    72. E= -.41286703E+03 F= -.41321828E+03 E0= -.41319735E+03  EK= 0.35126E+00 SP= 0.00E+00 SK= 0.00E+00
       N       E                     dE             d eps       ncg     rms          rms(c)
RMM:   1    -0.413235281206E+03   -0.16996E-01   -0.84615E+00  4311   0.145E+00    0.967E-01
RMM:   2    -0.413223054999E+03    0.12226E-01   -0.13401E-01  4426   0.179E-01    0.710E-01
RMM:   3    -0.413234737403E+03   -0.11682E-01   -0.41877E-02  5104   0.147E-01    0.572E-01
RMM:   4    -0.413232151117E+03    0.25863E-02   -0.44624E-02  5000   0.189E-01    0.523E-01
RMM:   5    -0.413216117371E+03    0.16034E-01   -0.49173E-03  4580   0.908E-02    0.560E-02
RMM:   6    -0.413216041882E+03    0.75489E-04   -0.98968E-04  5145   0.326E-02    0.290E-02
RMM:   7    -0.413216048514E+03   -0.66318E-05   -0.18519E-04  5497   0.140E-02    0.161E-02
RMM:   8    -0.413216050228E+03   -0.17149E-05   -0.10296E-04  5185   0.105E-02    0.108E-02
RMM:   9    -0.413216037626E+03    0.12603E-04   -0.13747E-05  4156   0.513E-03    0.424E-03
RMM:  10    -0.413216034693E+03    0.29332E-05   -0.29213E-06  2703   0.235E-03    0.233E-03
RMM:  11    -0.413216029605E+03    0.50882E-05   -0.11978E-06  2452   0.180E-03    0.122E-03
RMM:  12    -0.413216025423E+03    0.41817E-05   -0.55911E-07  2300   0.128E-03    0.703E-04
RMM:  13    -0.413216021037E+03    0.43855E-05   -0.27986E-07  1747   0.917E-04    0.324E-04
RMM:  14    -0.413216016646E+03    0.43916E-05   -0.15411E-07  1320   0.729E-04    0.172E-04
RMM:  15    -0.413216012232E+03    0.44136E-05   -0.11407E-07  1243   0.683E-04    0.125E-04
RMM:  16    -0.413216009245E+03    0.29866E-05   -0.75473E-08  1096   0.629E-04    0.958E-05
RMM:  17    -0.413216003715E+03    0.55309E-05   -0.87347E-08  1401   0.663E-04    0.664E-05
RMM:  18    -0.413216002169E+03    0.15459E-05   -0.32265E-08   796   0.527E-04    0.497E-05
RMM:  19    -0.413216000870E+03    0.12983E-05   -0.24232E-08   765   0.518E-04    0.264E-05
RMM:  20    -0.413215999774E+03    0.10962E-05   -0.19749E-08   734   0.513E-04    0.139E-05
RMM:  21    -0.413215999538E+03    0.23595E-06   -0.96485E-09   570   0.488E-04
   48 T=    71. E= -.41286719E+03 F= -.41321600E+03 E0= -.41319508E+03  EK= 0.34881E+00 SP= 0.00E+00 SK= 0.00E+00
       N       E                     dE             d eps       ncg     rms          rms(c)
RMM:   1    -0.413233475472E+03   -0.17476E-01   -0.83156E+00  4307   0.157E+00    0.954E-01
RMM:   2    -0.413218179309E+03    0.15296E-01   -0.13535E-01  4487   0.192E-01    0.699E-01
RMM:   3    -0.413237997636E+03   -0.19818E-01   -0.46275E-02  5135   0.166E-01    0.682E-01
RMM:   4    -0.413222163470E+03    0.15834E-01   -0.44149E-02  4972   0.191E-01    0.430E-01
RMM:   5    -0.413211442201E+03    0.10721E-01   -0.35348E-03  4557   0.839E-02    0.578E-02
RMM:   6    -0.413211317370E+03    0.12483E-03   -0.51657E-04  4763   0.277E-02    0.296E-02
RMM:   7    -0.413211325330E+03   -0.79598E-05   -0.20449E-04  5791   0.154E-02    0.163E-02
RMM:   8    -0.413211312802E+03    0.12528E-04   -0.69396E-05  5117   0.935E-03    0.932E-03
RMM:   9    -0.413211307662E+03    0.51399E-05   -0.11426E-05  4069   0.458E-03    0.415E-03
RMM:  10    -0.413211304131E+03    0.35303E-05   -0.17997E-06  2596   0.220E-03    0.234E-03
RMM:  11    -0.413211298240E+03    0.58911E-05   -0.10963E-06  2477   0.172E-03    0.145E-03
RMM:  12    -0.413211294820E+03    0.34202E-05   -0.45054E-07  2302   0.116E-03    0.768E-04
RMM:  13    -0.413211289451E+03    0.53693E-05   -0.35344E-07  2189   0.977E-04    0.477E-04
RMM:  14    -0.413211284839E+03    0.46120E-05   -0.17035E-07  1388   0.730E-04    0.294E-04
RMM:  15    -0.413211280319E+03    0.45195E-05   -0.11685E-07  1161   0.664E-04    0.133E-04
RMM:  16    -0.413211277115E+03    0.32047E-05   -0.81439E-08  1131   0.629E-04    0.891E-05
RMM:  17    -0.413211271300E+03    0.58147E-05   -0.91273E-08  1406   0.662E-04    0.120E-04
RMM:  18    -0.413211270021E+03    0.12787E-05   -0.40871E-08   927   0.537E-04    0.919E-05
RMM:  19    -0.413211268394E+03    0.16272E-05   -0.31231E-08   880   0.525E-04    0.356E-05
RMM:  20    -0.413211266900E+03    0.14942E-05   -0.25481E-08   858   0.519E-04    0.304E-05
RMM:  21    -0.413211266706E+03    0.19400E-06   -0.13747E-08   660   0.480E-04
   49 T=    70. E= -.41286686E+03 F= -.41321127E+03 E0= -.41319035E+03  EK= 0.34441E+00 SP= 0.00E+00 SK= 0.00E+00
       N       E                     dE             d eps       ncg     rms          rms(c)
RMM:   1    -0.413229921095E+03   -0.18654E-01   -0.82357E+00  4310   0.171E+00    0.928E-01
RMM:   2    -0.413212584475E+03    0.17337E-01   -0.14179E-01  4574   0.205E-01    0.699E-01
RMM:   3    -0.413238794758E+03   -0.26210E-01   -0.50498E-02  5140   0.183E-01    0.762E-01
RMM:   4    -0.413214596097E+03    0.24199E-01   -0.47019E-02  4945   0.200E-01    0.396E-01
RMM:   5    -0.413205578369E+03    0.90177E-02   -0.37372E-03  4661   0.870E-02    0.624E-02
RMM:   6    -0.413205403563E+03    0.17481E-03   -0.44140E-04  4670   0.281E-02    0.302E-02
RMM:   7    -0.413205433054E+03   -0.29491E-04   -0.29866E-04  5711   0.187E-02    0.234E-02
RMM:   8    -0.413205403648E+03    0.29406E-04   -0.82484E-05  5002   0.107E-02    0.100E-02
RMM:   9    -0.413205400765E+03    0.28834E-05   -0.24350E-05  5310   0.603E-03    0.477E-03
[...]
RMM:  14    -0.413494985846E+03   -0.65481E-05   -0.11671E-06  2572   0.166E-03    0.841E-04
RMM:  15    -0.413494991984E+03   -0.61375E-05   -0.89835E-07  2496   0.132E-03    0.614E-04
RMM:  16    -0.413495000482E+03   -0.84981E-05   -0.15315E-06  2574   0.155E-03    0.370E-04
RMM:  17    -0.413495004712E+03   -0.42306E-05   -0.78738E-07  1895   0.104E-03    0.238E-04
RMM:  18    -0.413495008929E+03   -0.42164E-05   -0.68736E-07  2076   0.102E-03    0.195E-04
RMM:  19    -0.413495012723E+03   -0.37947E-05   -0.61154E-07  1863   0.919E-04    0.134E-04
RMM:  20    -0.413495014272E+03   -0.15485E-05   -0.22350E-07  1266   0.655E-04    0.841E-05
RMM:  21    -0.413495016141E+03   -0.18694E-05   -0.15016E-07  1178   0.615E-04    0.590E-05
RMM:  22    -0.413495016921E+03   -0.77991E-06   -0.79242E-08  1030   0.564E-04
  139 T=   126. E= -.41287827E+03 F= -.41349502E+03 E0= -.41347470E+03  EK= 0.61674E+00 SP= 0.00E+00 SK= 0.00E+00
       N       E                     dE             d eps       ncg     rms          rms(c)
RMM:   1    -0.413342387112E+03    0.15263E+00   -0.11691E+01  4268   0.645E+00    0.111E+00
RMM:   2    -0.413328654577E+03    0.13733E-01   -0.33641E-01  5397   0.684E-01    0.102E+00
RMM:   3    -0.413350699966E+03   -0.22045E-01   -0.79654E-02  5719   0.292E-01    0.108E+00
RMM:   4    -0.413323357523E+03    0.27342E-01   -0.37471E-02  5025   0.234E-01    0.467E-01
RMM:   5    -0.413323766755E+03   -0.40923E-03   -0.33863E-02  4849   0.236E-01    0.240E-01
RMM:   6    -0.413320812558E+03    0.29542E-02   -0.66917E-03  4834   0.109E-01    0.101E-01
RMM:   7    -0.413320478812E+03    0.33375E-03   -0.10564E-03  5159   0.450E-02    0.541E-02
RMM:   8    -0.413320430711E+03    0.48101E-04   -0.45120E-04  5208   0.267E-02    0.306E-02
RMM:   9    -0.413320420122E+03    0.10589E-04   -0.16378E-04  5092   0.160E-02    0.131E-02
RMM:  10    -0.413320422891E+03   -0.27691E-05   -0.48339E-05  5734   0.777E-03    0.893E-03
RMM:  11    -0.413320423933E+03   -0.10411E-05   -0.11356E-05  4071   0.438E-03    0.493E-03
RMM:  12    -0.413320428301E+03   -0.43688E-05   -0.43166E-06  2973   0.329E-03    0.259E-03
RMM:  13    -0.413320433003E+03   -0.47015E-05   -0.13412E-06  2570   0.202E-03    0.130E-03
RMM:  14    -0.413320436801E+03   -0.37982E-05   -0.79063E-07  2510   0.139E-03    0.668E-04
RMM:  15    -0.413320440426E+03   -0.36252E-05   -0.62543E-07  2197   0.112E-03    0.480E-04
RMM:  16    -0.413320445330E+03   -0.49039E-05   -0.89344E-07  2406   0.122E-03    0.303E-04
RMM:  17    -0.413320447732E+03   -0.24022E-05   -0.40694E-07  1556   0.827E-04    0.172E-04
RMM:  18    -0.413320451286E+03   -0.35535E-05   -0.58379E-07  1946   0.965E-04    0.197E-04
RMM:  19    -0.413320453259E+03   -0.19732E-05   -0.29511E-07  1408   0.739E-04    0.123E-04
RMM:  20    -0.413320454552E+03   -0.12933E-05   -0.16394E-07  1201   0.649E-04    0.699E-05
RMM:  21    -0.413320455954E+03   -0.14011E-05   -0.12750E-07  1193   0.625E-04    0.541E-05
RMM:  22    -0.413320456225E+03   -0.27093E-06   -0.52388E-08   921   0.559E-04
  140 T=    94. E= -.41285722E+03 F= -.41332046E+03 E0= -.41330039E+03  EK= 0.46324E+00 SP= 0.00E+00 SK= 0.00E+00
       N       E                     dE             d eps       ncg     rms          rms(c)
RMM:   1    -0.413341111042E+03   -0.20655E-01   -0.87134E+00  4264   0.564E+00    0.835E-01
RMM:   2    -0.413332130508E+03    0.89805E-02   -0.22570E-01  5416   0.568E-01    0.713E-01
RMM:   3    -0.413357880954E+03   -0.25750E-01   -0.62130E-02  5602   0.263E-01    0.875E-01
RMM:   4    -0.413331521625E+03    0.26359E-01   -0.36940E-02  5196   0.213E-01    0.433E-01
RMM:   5    -0.413328160025E+03    0.33616E-02   -0.15039E-02  4667   0.171E-01    0.122E-01
RMM:   6    -0.413327945690E+03    0.21434E-03   -0.55843E-03  5306   0.896E-02    0.909E-02
RMM:   7    -0.413327515497E+03    0.43019E-03   -0.11227E-03  4958   0.439E-02    0.422E-02
RMM:   8    -0.413327504836E+03    0.10661E-04   -0.35374E-04  5554   0.229E-02    0.253E-02
RMM:   9    -0.413327506992E+03   -0.21567E-05   -0.12319E-04  5304   0.139E-02    0.163E-02
RMM:  10    -0.413327501430E+03    0.55622E-05   -0.29773E-05  5056   0.678E-03    0.730E-03
RMM:  11    -0.413327502551E+03   -0.11208E-05   -0.19843E-05  4802   0.508E-03    0.526E-03
RMM:  12    -0.413327502736E+03   -0.18521E-06   -0.21643E-06  2668   0.251E-03
  141 T=    95. E= -.41286172E+03 F= -.41332750E+03 E0= -.41330749E+03  EK= 0.46578E+00 SP= 0.00E+00 SK= 0.00E+00
       N       E                     dE             d eps       ncg     rms          rms(c)
RMM:   1    -0.413527704041E+03   -0.20020E+00   -0.11583E+01  4287   0.648E+00    0.151E+00
RMM:   2    -0.413531721826E+03   -0.40178E-02   -0.43694E-01  5388   0.805E-01    0.152E+00
RMM:   3    -0.413534992417E+03   -0.32706E-02   -0.15632E-01  5376   0.430E-01    0.142E+00
RMM:   4    -0.413481558440E+03    0.53434E-01   -0.12234E-01  5206   0.393E-01    0.695E-01
RMM:   5    -0.413475318784E+03    0.62397E-02   -0.37924E-02  4890   0.262E-01    0.263E-01
RMM:   6    -0.413472870659E+03    0.24481E-02   -0.19022E-02  5022   0.168E-01    0.148E-01
RMM:   7    -0.413471889533E+03    0.98113E-03   -0.21787E-03  4776   0.693E-02    0.651E-02
RMM:   8    -0.413471865012E+03    0.24522E-04   -0.51881E-04  5302   0.284E-02    0.360E-02
RMM:   9    -0.413471858504E+03    0.65072E-05   -0.21092E-04  5247   0.178E-02    0.163E-02
RMM:  10    -0.413471856558E+03    0.19468E-05   -0.46377E-05  5424   0.804E-03    0.901E-03
RMM:  11    -0.413471858085E+03   -0.15270E-05   -0.20797E-05  4841   0.538E-03    0.509E-03
RMM:  12    -0.413471859676E+03   -0.15918E-05   -0.31176E-06  2802   0.274E-03    0.311E-03
RMM:  13    -0.413471860362E+03   -0.68598E-06   -0.12954E-06  2538   0.189E-03
  142 T=   121. E= -.41287650E+03 F= -.41347186E+03 E0= -.41345175E+03  EK= 0.59536E+00 SP= 0.00E+00 SK= 0.00E+00
       N       E                     dE             d eps       ncg     rms          rms(c)
RMM:   1    -0.413641255162E+03   -0.16940E+00   -0.14253E+01  4294   0.709E+00    0.145E+00
RMM:   2    -0.413632282938E+03    0.89722E-02   -0.53968E-01  5411   0.890E-01    0.163E+00
RMM:   3    -0.413598011585E+03    0.34271E-01   -0.16087E-01  5383   0.449E-01    0.135E+00
RMM:   4    -0.413554958940E+03    0.43053E-01   -0.10800E-01  5263   0.373E-01    0.703E-01
RMM:   5    -0.413551304599E+03    0.36543E-02   -0.36644E-02  4903   0.257E-01    0.300E-01
RMM:   6    -0.413549447183E+03    0.18574E-02   -0.24909E-02  5037   0.188E-01    0.181E-01
RMM:   7    -0.413547752844E+03    0.16943E-02   -0.31032E-03  4666   0.827E-02    0.715E-02
RMM:   8    -0.413547747638E+03    0.52060E-05   -0.82889E-04  5542   0.343E-02    0.421E-02
RMM:   9    -0.413547734746E+03    0.12891E-04   -0.25182E-04  5003   0.202E-02    0.168E-02
RMM:  10    -0.413547734045E+03    0.70166E-06   -0.59456E-05  5571   0.917E-03    0.953E-03
RMM:  11    -0.413547736483E+03   -0.24379E-05   -0.21225E-05  4899   0.561E-03    0.581E-03
RMM:  12    -0.413547739300E+03   -0.28176E-05   -0.45357E-06  2979   0.314E-03    0.422E-03
RMM:  13    -0.413547740186E+03   -0.88621E-06   -0.18579E-06  2636   0.221E-03
  143 T=   138. E= -.41287111E+03 F= -.41354774E+03 E0= -.41352754E+03  EK= 0.67663E+00 SP= 0.00E+00 SK= 0.00E+00
       N       E                     dE             d eps       ncg     rms          rms(c)
RMM:   1    -0.413681006487E+03   -0.13327E+00   -0.15062E+01  4292   0.724E+00    0.102E+00
RMM:   2    -0.413650494609E+03    0.30512E-01   -0.47823E-01  5427   0.830E-01    0.126E+00
RMM:   3    -0.413614469863E+03    0.36025E-01   -0.10950E-01  5504   0.374E-01    0.964E-01
RMM:   4    -0.413593400389E+03    0.21069E-01   -0.52623E-02  5309   0.266E-01    0.543E-01
RMM:   5    -0.413591673028E+03    0.17274E-02   -0.20745E-02  4722   0.199E-01    0.256E-01
RMM:   6    -0.413591609464E+03    0.63563E-04   -0.17401E-02  5052   0.157E-01    0.168E-01
RMM:   7    -0.413590092551E+03    0.15169E-02   -0.32722E-03  4819   0.787E-02    0.682E-02
RMM:   8    -0.413590104772E+03   -0.12221E-04   -0.91650E-04  5806   0.344E-02    0.430E-02
RMM:   9    -0.413590083466E+03    0.21306E-04   -0.26944E-04  4758   0.215E-02    0.153E-02
RMM:  10    -0.413590084405E+03   -0.93942E-06   -0.62364E-05  5665   0.968E-03    0.985E-03
RMM:  11    -0.413590085700E+03   -0.12942E-05   -0.16775E-05  4471   0.519E-03    0.612E-03
RMM:  12    -0.413590087968E+03   -0.22685E-05   -0.49683E-06  3075   0.328E-03    0.415E-03
RMM:  13    -0.413590088725E+03   -0.75709E-06   -0.19796E-06  2670   0.225E-03
  144 T=   147. E= -.41286581E+03 F= -.41359009E+03 E0= -.41356982E+03  EK= 0.72428E+00 SP= 0.00E+00 SK= 0.00E+00
       N       E                     dE             d eps       ncg     rms          rms(c)
RMM:   1    -0.413759818809E+03   -0.16973E+00   -0.16365E+01  4285   0.752E+00    0.945E-01
RMM:   2    -0.413704334657E+03    0.55484E-01   -0.45581E-01  5429   0.811E-01    0.104E+00
RMM:   3    -0.413686939173E+03    0.17395E-01   -0.91629E-02  5666   0.335E-01    0.871E-01
RMM:   4    -0.413671865285E+03    0.15074E-01   -0.36515E-02  5297   0.228E-01    0.501E-01
RMM:   5    -0.413670882048E+03    0.98324E-03   -0.23293E-02  4713   0.205E-01    0.240E-01
RMM:   6    -0.413669939157E+03    0.94289E-03   -0.12648E-02  4976   0.138E-01    0.134E-01
RMM:   7    -0.413669042320E+03    0.89684E-03   -0.22101E-03  4819   0.655E-02    0.611E-02
RMM:   8    -0.413669020652E+03    0.21668E-04   -0.62935E-04  5679   0.295E-02    0.412E-02
RMM:   9    -0.413669005938E+03    0.14714E-04   -0.28264E-04  4768   0.214E-02    0.171E-02
RMM:  10    -0.413669004498E+03    0.14400E-05   -0.62552E-05  5574   0.982E-03    0.101E-02
RMM:  11    -0.413669004208E+03    0.29047E-06   -0.18021E-05  4527   0.537E-03    0.567E-03
RMM:  12    -0.413669005050E+03   -0.84194E-06   -0.44071E-06  2970   0.305E-03
  145 T=   164. E= -.41286574E+03 F= -.41366901E+03 E0= -.41364867E+03  EK= 0.80326E+00 SP= 0.00E+00 SK= 0.00E+00
       N       E                     dE             d eps       ncg     rms          rms(c)
RMM:   1    -0.413904517037E+03   -0.23551E+00   -0.19106E+01  4278   0.804E+00    0.980E-01
RMM:   2    -0.413804872536E+03    0.99645E-01   -0.51244E-01  5413   0.868E-01    0.942E-01
RMM:   3    -0.413815537564E+03   -0.10665E-01   -0.98467E-02  5780   0.337E-01    0.973E-01
RMM:   4    -0.413791811243E+03    0.23726E-01   -0.31671E-02  5115   0.219E-01    0.499E-01
RMM:   5    -0.413790935347E+03    0.87590E-03   -0.23334E-02  4504   0.211E-01    0.202E-01
RMM:   6    -0.413790181347E+03    0.75400E-03   -0.93451E-03  5091   0.119E-01    0.113E-01
RMM:   7    -0.413789528956E+03    0.65239E-03   -0.19561E-03  5087   0.579E-02    0.613E-02
RMM:   8    -0.413789470469E+03    0.58487E-04   -0.52280E-04  5455   0.277E-02    0.350E-02
RMM:   9    -0.413789461736E+03    0.87326E-05   -0.25858E-04  4700   0.206E-02    0.150E-02
RMM:  10    -0.413789461602E+03    0.13470E-06   -0.56764E-05  5586   0.889E-03    0.971E-03
RMM:  11    -0.413789460861E+03    0.74073E-06   -0.13978E-05  4176   0.472E-03    0.535E-03
RMM:  12    -0.413789461097E+03   -0.23637E-06   -0.41315E-06  2936   0.311E-03
  146 T=   187. E= -.41286948E+03 F= -.41378946E+03 E0= -.41376913E+03  EK= 0.91998E+00 SP= 0.00E+00 SK= 0.00E+00
       N       E                     dE             d eps       ncg     rms          rms(c)
RMM:   1    -0.414058370081E+03   -0.26891E+00   -0.22816E+01  4264   0.864E+00    0.111E+00
RMM:   2    -0.413902069224E+03    0.15630E+00   -0.63817E-01  5405   0.978E-01    0.988E-01
RMM:   3    -0.413924034789E+03   -0.21966E-01   -0.10238E-01  5763   0.358E-01    0.932E-01
RMM:   4    -0.413914109534E+03    0.99253E-02   -0.49828E-02  5358   0.232E-01    0.730E-01
RMM:   5    -0.413900786849E+03    0.13323E-01   -0.38432E-02  4488   0.264E-01    0.223E-01
RMM:   6    -0.413899302420E+03    0.14844E-02   -0.84609E-03  5003   0.124E-01    0.119E-01
RMM:   7    -0.413898748513E+03    0.55391E-03   -0.19057E-03  5262   0.566E-02    0.658E-02
RMM:   8    -0.413898687821E+03    0.60692E-04   -0.69966E-04  5541   0.321E-02    0.444E-02
RMM:   9    -0.413898644619E+03    0.43202E-04   -0.34209E-04  4702   0.237E-02    0.196E-02
RMM:  10    -0.413898648050E+03   -0.34309E-05   -0.99171E-05  5722   0.123E-02    0.125E-02
RMM:  11    -0.413898646713E+03    0.13372E-05   -0.25901E-05  4933   0.625E-03    0.660E-03
RMM:  12    -0.413898647790E+03   -0.10771E-05   -0.56262E-06  3101   0.342E-03    0.343E-03
RMM:  13    -0.413898649668E+03   -0.18779E-05   -0.20729E-06  2625   0.237E-03    0.194E-03
RMM:  14    -0.413898651705E+03   -0.20368E-05   -0.94855E-07  2488   0.167E-03    0.100E-03
RMM:  15    -0.413898653496E+03   -0.17914E-05   -0.58939E-07  2316   0.121E-03    0.513E-04
RMM:  16    -0.413898655337E+03   -0.18410E-05   -0.43075E-07  1957   0.978E-04    0.302E-04
RMM:  17    -0.413898657211E+03   -0.18737E-05   -0.35033E-07  1746   0.866E-04    0.214E-04
RMM:  18    -0.413898659098E+03   -0.18877E-05   -0.31692E-07  1718   0.815E-04    0.146E-04
RMM:  19    -0.413898660677E+03   -0.15782E-05   -0.22837E-07  1426   0.717E-04    0.871E-05
RMM:  20    -0.413898662409E+03   -0.17321E-05   -0.21616E-07  1412   0.703E-04    0.752E-05
RMM:  21    -0.413898663155E+03   -0.74687E-06   -0.11064E-07  1119   0.611E-04
  147 T=   207. E= -.41287948E+03 F= -.41389866E+03 E0= -.41387849E+03  EK= 0.10192E+01 SP= 0.00E+00 SK= 0.00E+00
       N       E                     dE             d eps       ncg     rms          rms(c)
RMM:   1    -0.414054958701E+03   -0.15630E+00   -0.25145E+01  4264   0.898E+00    0.152E+00
RMM:   2    -0.413880644189E+03    0.17431E+00   -0.75736E-01  5393   0.107E+00    0.141E+00
RMM:   3    -0.413936005333E+03   -0.55361E-01   -0.17253E-01  5733   0.445E-01    0.145E+00
RMM:   4    -0.413880705276E+03    0.55300E-01   -0.84814E-02  5228   0.322E-01    0.869E-01
RMM:   5    -0.413874903072E+03    0.58022E-02   -0.73622E-02  4552   0.362E-01    0.329E-01
RMM:   6    -0.413870103162E+03    0.47999E-02   -0.16849E-02  4828   0.173E-01    0.156E-01
RMM:   7    -0.413868819343E+03    0.12838E-02   -0.26730E-03  4813   0.752E-02    0.774E-02
RMM:   8    -0.413868710933E+03    0.10841E-03   -0.10179E-03  5516   0.401E-02    0.486E-02
RMM:   9    -0.413868671857E+03    0.39076E-04   -0.43458E-04  4758   0.269E-02    0.218E-02
RMM:  10    -0.413868672935E+03   -0.10773E-05   -0.11793E-04  5793   0.129E-02    0.127E-02
RMM:  11    -0.413868672693E+03    0.24153E-06   -0.33694E-05  5231   0.698E-03    0.788E-03
RMM:  12    -0.413868673983E+03   -0.12902E-05   -0.68298E-06  3254   0.366E-03    0.398E-03
RMM:  13    -0.413868676764E+03   -0.27808E-05   -0.29097E-06  2761   0.263E-03    0.196E-03
RMM:  14    -0.413868679736E+03   -0.29723E-05   -0.11771E-06  2537   0.182E-03    0.101E-03
RMM:  15    -0.413868682304E+03   -0.25675E-05   -0.76206E-07  2416   0.134E-03    0.558E-04
RMM:  16    -0.413868684874E+03   -0.25697E-05   -0.59519E-07  2116   0.109E-03    0.313E-04
RMM:  17    -0.413868687403E+03   -0.25296E-05   -0.51868E-07  2017   0.977E-04    0.228E-04
RMM:  18    -0.413868690038E+03   -0.26349E-05   -0.52211E-07  1898   0.923E-04    0.163E-04
RMM:  19    -0.413868692058E+03   -0.20196E-05   -0.35601E-07  1522   0.787E-04    0.975E-05
RMM:  20    -0.413868693487E+03   -0.14297E-05   -0.22943E-07  1391   0.709E-04    0.785E-05
RMM:  21    -0.413868694632E+03   -0.11447E-05   -0.14664E-07  1225   0.643E-04    0.509E-05
RMM:  22    -0.413868695400E+03   -0.76832E-06   -0.84376E-08  1035   0.587E-04
  148 T=   199. E= -.41288890E+03 F= -.41386870E+03 E0= -.41384875E+03  EK= 0.97979E+00 SP= 0.00E+00 SK= 0.00E+00
       N       E                     dE             d eps       ncg     rms          rms(c)
RMM:   1    -0.413753703319E+03    0.11499E+00   -0.21614E+01  4264   0.831E+00    0.175E+00
RMM:   2    -0.413657210909E+03    0.96492E-01   -0.69034E-01  5382   0.102E+00    0.168E+00
RMM:   3    -0.413700571888E+03   -0.43361E-01   -0.18514E-01  5628   0.458E-01    0.170E+00
RMM:   4    -0.413635922530E+03    0.64649E-01   -0.10343E-01  5237   0.372E-01    0.938E-01
RMM:   5    -0.413632762017E+03    0.31605E-02   -0.76519E-02  4460   0.381E-01    0.361E-01
RMM:   6    -0.413628093384E+03    0.46686E-02   -0.16315E-02  4827   0.172E-01    0.161E-01
RMM:   7    -0.413626813673E+03    0.12797E-02   -0.25504E-03  4695   0.739E-02    0.804E-02
RMM:   8    -0.413626658361E+03    0.15531E-03   -0.95815E-04  4989   0.410E-02    0.429E-02
RMM:   9    -0.413626642930E+03    0.15431E-04   -0.40563E-04  5177   0.253E-02    0.199E-02
RMM:  10    -0.413626643768E+03   -0.83801E-06   -0.10304E-04  5944   0.117E-02    0.119E-02
RMM:  11    -0.413626644495E+03   -0.72741E-06   -0.32146E-05  5201   0.673E-03    0.829E-03
RMM:  12    -0.413626645951E+03   -0.14564E-05   -0.67502E-06  3268   0.366E-03    0.370E-03
RMM:  13    -0.413626648844E+03   -0.28926E-05   -0.29343E-06  2757   0.260E-03    0.184E-03
RMM:  14    -0.413626651859E+03   -0.30149E-05   -0.11564E-06  2525   0.182E-03    0.930E-04
RMM:  15    -0.413626654347E+03   -0.24881E-05   -0.70713E-07  2397   0.130E-03    0.534E-04
RMM:  16    -0.413626656851E+03   -0.25038E-05   -0.57470E-07  2098   0.106E-03    0.271E-04
RMM:  17    -0.413626659210E+03   -0.23591E-05   -0.47853E-07  1928   0.941E-04    0.200E-04
RMM:  18    -0.413626661968E+03   -0.27576E-05   -0.55811E-07  2006   0.956E-04    0.141E-04
RMM:  19    -0.413626663734E+03   -0.17662E-05   -0.31097E-07  1427   0.750E-04    0.851E-05
RMM:  20    -0.413626665001E+03   -0.12677E-05   -0.19804E-07  1322   0.684E-04    0.666E-05
RMM:  21    -0.413626666070E+03   -0.10690E-05   -0.13749E-07  1239   0.640E-04    0.425E-05
RMM:  22    -0.413626666636E+03   -0.56595E-06   -0.72107E-08   992   0.575E-04
  149 T=   154. E= -.41287130E+03 F= -.41362667E+03 E0= -.41360682E+03  EK= 0.75536E+00 SP= 0.00E+00 SK= 0.00E+00
       N       E                     dE             d eps       ncg     rms          rms(c)
RMM:   1    -0.413499151933E+03    0.12751E+00   -0.14212E+01  4264   0.678E+00    0.136E+00
RMM:   2    -0.413461264046E+03    0.37888E-01   -0.44527E-01  5395   0.804E-01    0.129E+00
RMM:   3    -0.413497985434E+03   -0.36721E-01   -0.11321E-01  5556   0.363E-01    0.129E+00
RMM:   4    -0.413456815840E+03    0.41170E-01   -0.73003E-02  5258   0.299E-01    0.746E-01
RMM:   5    -0.413451417659E+03    0.53982E-02   -0.41665E-02  4542   0.284E-01    0.258E-01
RMM:   6    -0.413448567873E+03    0.28498E-02   -0.11463E-02  4893   0.140E-01    0.126E-01
RMM:   7    -0.413447770292E+03    0.79758E-03   -0.16508E-03  4650   0.612E-02    0.623E-02
RMM:   8    -0.413447701044E+03    0.69249E-04   -0.41317E-04  4835   0.277E-02    0.340E-02
RMM:   9    -0.413447690884E+03    0.10160E-04   -0.24616E-04  5169   0.199E-02    0.152E-02
RMM:  10    -0.413447692950E+03   -0.20661E-05   -0.65706E-05  5862   0.926E-03    0.951E-03
RMM:  11    -0.413447693705E+03   -0.75546E-06   -0.18942E-05  4654   0.537E-03    0.518E-03
RMM:  12    -0.413447694850E+03   -0.11450E-05   -0.31539E-06  2809   0.262E-03    0.299E-03
RMM:  13    -0.413447696643E+03   -0.17929E-05   -0.17043E-06  2583   0.211E-03    0.143E-03
RMM:  14    -0.413447698211E+03   -0.15678E-05   -0.77428E-07  2469   0.148E-03    0.728E-04
RMM:  15    -0.413447699709E+03   -0.14979E-05   -0.47508E-07  2098   0.108E-03    0.370E-04
RMM:  16    -0.413447701177E+03   -0.14680E-05   -0.37478E-07  1830   0.916E-04    0.206E-04
RMM:  17    -0.413447702530E+03   -0.13533E-05   -0.31464E-07  1744   0.835E-04    0.117E-04
RMM:  18    -0.413447703537E+03   -0.10067E-05   -0.22264E-07  1491   0.724E-04    0.795E-05
RMM:  19    -0.413447704722E+03   -0.11855E-05   -0.19583E-07  1407   0.692E-04    0.499E-05
RMM:  20    -0.413447705458E+03   -0.73605E-06   -0.11737E-07  1162   0.623E-04
  150 T=   121. E= -.41285391E+03 F= -.41344771E+03 E0= -.41342767E+03  EK= 0.59379E+00 SP= 0.00E+00 SK= 0.00E+00
