       N       E                     dE             d eps       ncg     rms          rms(c)
RMM:   1     0.220127894236E+04    0.22013E+04   -0.52441E+04  2132   0.654E+02
RMM:   2     0.705362978771E+03   -0.14959E+04   -0.16262E+04  2132   0.177E+02
RMM:   3     0.137569837575E+03   -0.56779E+03   -0.65703E+03  2132   0.117E+02
RMM:   4    -0.159367399801E+03   -0.29694E+03   -0.27872E+03  2132   0.936E+01
RMM:   5    -0.287549100454E+03   -0.12818E+03   -0.11439E+03  2132   0.595E+01
RMM:   6    -0.349733069102E+03   -0.62184E+02   -0.55079E+02  2132   0.423E+01
RMM:   7    -0.382698111298E+03   -0.32965E+02   -0.30449E+02  2132   0.293E+01
RMM:   8    -0.404206081037E+03   -0.21508E+02   -0.18452E+02  2132   0.233E+01
RMM:   9    -0.436035896621E+03   -0.31830E+02   -0.30736E+02  6104   0.173E+01
RMM:  10    -0.441284486840E+03   -0.52486E+01   -0.62823E+01  6395   0.538E+00
RMM:  11    -0.442499410984E+03   -0.12149E+01   -0.11058E+01  6213   0.173E+00
RMM:  12    -0.442880403631E+03   -0.38099E+00   -0.28417E+00  6368   0.607E-01    0.134E+02
RMM:  13    -0.425629546812E+03    0.17251E+02   -0.81193E+01  4676   0.119E+01    0.712E+01
RMM:  14    -0.499602766760E+03   -0.73973E+02   -0.54145E+02  5419   0.232E+01    0.307E+01
RMM:  15    -0.416488241320E+03    0.83115E+02   -0.20201E+02  5102   0.164E+01    0.738E+00
RMM:  16    -0.414028568604E+03    0.24597E+01   -0.39966E+01  6090   0.614E+00    0.431E+00
RMM:  17    -0.413206765620E+03    0.82180E+00   -0.26134E+00  5392   0.191E+00    0.243E+00
RMM:  18    -0.413178580110E+03    0.28186E-01   -0.74646E-01  5990   0.885E-01    0.171E+00
RMM:  19    -0.413170217648E+03    0.83625E-02   -0.27673E-01  5672   0.569E-01    0.890E-01
RMM:  20    -0.413189071424E+03   -0.18854E-01   -0.29133E-01  5592   0.559E-01    0.628E-01
RMM:  21    -0.413167964335E+03    0.21107E-01   -0.35882E-02  4978   0.246E-01    0.288E-01
RMM:  22    -0.413164995668E+03    0.29687E-02   -0.21764E-02  5930   0.139E-01    0.138E-01
RMM:  23    -0.413164186280E+03    0.80939E-03   -0.55860E-03  6034   0.655E-02    0.861E-02
RMM:  24    -0.413163121970E+03    0.10643E-02   -0.17158E-03  5334   0.413E-02    0.532E-02
RMM:  25    -0.413162650524E+03    0.47145E-03   -0.91735E-04  5105   0.295E-02    0.405E-02
RMM:  26    -0.413162808796E+03   -0.15827E-03   -0.11379E-03  5821   0.339E-02    0.355E-02
RMM:  27    -0.413163238683E+03   -0.42989E-03   -0.21101E-04  4582   0.201E-02    0.212E-02
RMM:  28    -0.413163676844E+03   -0.43816E-03   -0.17411E-04  5209   0.178E-02    0.975E-03
RMM:  29    -0.413164079959E+03   -0.40312E-03   -0.11811E-04  4703   0.156E-02    0.458E-03
RMM:  30    -0.413164312643E+03   -0.23268E-03   -0.78446E-05  4424   0.103E-02    0.462E-03
RMM:  31    -0.413164465833E+03   -0.15319E-03   -0.59792E-05  3271   0.766E-03    0.372E-03
RMM:  32    -0.413164495368E+03   -0.29535E-04   -0.23278E-05  2997   0.324E-03    0.195E-03
RMM:  33    -0.413164510858E+03   -0.15490E-04   -0.96265E-06  2829   0.238E-03    0.669E-04
RMM:  34    -0.413164515154E+03   -0.42952E-05   -0.52187E-06  2661   0.174E-03    0.646E-04
RMM:  35    -0.413164516178E+03   -0.10245E-05   -0.24916E-06  2404   0.132E-03    0.781E-04
RMM:  36    -0.413164516370E+03   -0.19187E-06   -0.35562E-06  1876   0.959E-04
    1 T=    61. E= -.41286672E+03 F= -.41316452E+03 E0= -.41314202E+03  EK= 0.29780E+00 SP= 0.00E+00 SK= 0.00E+00
       N       E                     dE             d eps       ncg     rms          rms(c)
RMM:   1    -0.413154408383E+03    0.10108E-01   -0.11197E+01  3969   0.702E-01    0.886E-01
RMM:   2    -0.413165507666E+03   -0.11099E-01   -0.13829E-01  3843   0.101E-01    0.640E-01
RMM:   3    -0.413164111162E+03    0.13965E-02   -0.63042E-03  4797   0.364E-02    0.159E-01
RMM:   4    -0.413187518987E+03   -0.23408E-01   -0.24337E-02  5218   0.129E-01    0.638E-01
RMM:   5    -0.413163747886E+03    0.23771E-01   -0.11744E-02  4848   0.107E-01    0.311E-02
RMM:   6    -0.413163906653E+03   -0.15877E-03   -0.18852E-03  5845   0.420E-02    0.155E-02
RMM:   7    -0.413163923756E+03   -0.17103E-04   -0.23018E-04  5822   0.124E-02    0.122E-02
RMM:   8    -0.413163929542E+03   -0.57862E-05   -0.29290E-05  4155   0.474E-03    0.781E-03
RMM:   9    -0.413163935392E+03   -0.58498E-05   -0.48917E-06  2830   0.255E-03    0.526E-03
RMM:  10    -0.413163944297E+03   -0.89050E-05   -0.22094E-06  2577   0.208E-03    0.253E-03
RMM:  11    -0.413163951447E+03   -0.71499E-05   -0.14960E-06  2540   0.171E-03    0.130E-03
RMM:  12    -0.413163955569E+03   -0.41214E-05   -0.77523E-07  2412   0.127E-03    0.472E-04
RMM:  13    -0.413163957615E+03   -0.20467E-05   -0.42192E-07  1919   0.904E-04    0.275E-04
RMM:  14    -0.413163959850E+03   -0.22346E-05   -0.31647E-07  1544   0.780E-04    0.174E-04
RMM:  15    -0.413163961959E+03   -0.21091E-05   -0.25967E-07  1371   0.722E-04    0.119E-04
RMM:  16    -0.413163962636E+03   -0.67725E-06   -0.16914E-07  1130   0.640E-04
    2 T=    61. E= -.41286625E+03 F= -.41316396E+03 E0= -.41314146E+03  EK= 0.29771E+00 SP= 0.00E+00 SK= 0.00E+00
       N       E                     dE             d eps       ncg     rms          rms(c)
RMM:   1    -0.413155645351E+03    0.83166E-02   -0.11235E+01  4193   0.706E-01    0.912E-01
RMM:   2    -0.413165510042E+03   -0.98647E-02   -0.13547E-01  3879   0.966E-02    0.633E-01
RMM:   3    -0.413164984685E+03    0.52536E-03   -0.67661E-03  4845   0.388E-02    0.170E-01
RMM:   4    -0.413193880443E+03   -0.28896E-01   -0.29292E-02  5185   0.143E-01    0.708E-01
RMM:   5    -0.413164566490E+03    0.29314E-01   -0.14231E-02  4829   0.119E-01    0.364E-02
RMM:   6    -0.413164749777E+03   -0.18329E-03   -0.23114E-03  5799   0.466E-02    0.181E-02
RMM:   7    -0.413164762560E+03   -0.12782E-04   -0.27537E-04  5896   0.137E-02    0.135E-02
RMM:   8    -0.413164763018E+03   -0.45832E-06   -0.34687E-05  4320   0.509E-03    0.869E-03
RMM:   9    -0.413164762140E+03    0.87838E-06   -0.52073E-06  2894   0.261E-03
    3 T=    61. E= -.41286673E+03 F= -.41316476E+03 E0= -.41314227E+03  EK= 0.29803E+00 SP= 0.00E+00 SK= 0.00E+00
       N       E                     dE             d eps       ncg     rms          rms(c)
RMM:   1    -0.413155079584E+03    0.96834E-02   -0.11149E+01  4226   0.706E-01    0.894E-01
RMM:   2    -0.413165739143E+03   -0.10660E-01   -0.13432E-01  4169   0.992E-02    0.627E-01
RMM:   3    -0.413167653907E+03   -0.19148E-02   -0.88152E-03  5169   0.638E-02    0.285E-01
RMM:   4    -0.413195873777E+03   -0.28220E-01   -0.41605E-02  5140   0.172E-01    0.737E-01
RMM:   5    -0.413164333854E+03    0.31540E-01   -0.13433E-02  4746   0.123E-01    0.534E-02
RMM:   6    -0.413164402051E+03   -0.68196E-04   -0.22590E-03  5594   0.475E-02    0.157E-02
RMM:   7    -0.413164426700E+03   -0.24650E-04   -0.31684E-04  6045   0.151E-02    0.118E-02
RMM:   8    -0.413164429698E+03   -0.29981E-05   -0.39612E-05  4603   0.546E-03    0.756E-03
RMM:   9    -0.413164431572E+03   -0.18740E-05   -0.65086E-06  3030   0.350E-03    0.359E-03
RMM:  10    -0.413164433638E+03   -0.20657E-05   -0.20560E-06  2556   0.223E-03    0.216E-03
RMM:  11    -0.413164435810E+03   -0.21714E-05   -0.98805E-07  2536   0.154E-03    0.963E-04
RMM:  12    -0.413164436945E+03   -0.11357E-05   -0.46440E-07  2058   0.103E-03    0.432E-04
RMM:  13    -0.413164438192E+03   -0.12465E-05   -0.38354E-07  1819   0.897E-04    0.233E-04
RMM:  14    -0.413164438789E+03   -0.59693E-06   -0.21744E-07  1383   0.735E-04
    4 T=    61. E= -.41286641E+03 F= -.41316444E+03 E0= -.41314195E+03  EK= 0.29803E+00 SP= 0.00E+00 SK= 0.00E+00
       N       E                     dE             d eps       ncg     rms          rms(c)
RMM:   1    -0.413154821719E+03    0.96165E-02   -0.11187E+01  4235   0.711E-01    0.884E-01
RMM:   2    -0.413165978655E+03   -0.11157E-01   -0.13848E-01  3974   0.965E-02    0.639E-01
RMM:   3    -0.413164882263E+03    0.10964E-02   -0.63445E-03  4949   0.367E-02    0.167E-01
RMM:   4    -0.413197480486E+03   -0.32598E-01   -0.33416E-02  5169   0.153E-01    0.752E-01
RMM:   5    -0.413164297384E+03    0.33183E-01   -0.16003E-02  4814   0.126E-01    0.372E-02
RMM:   6    -0.413164498782E+03   -0.20140E-03   -0.25779E-03  5780   0.493E-02    0.163E-02
RMM:   7    -0.413164518850E+03   -0.20067E-04   -0.30090E-04  5895   0.142E-02    0.130E-02
RMM:   8    -0.413164523866E+03   -0.50158E-05   -0.37137E-05  4346   0.521E-03    0.844E-03
RMM:   9    -0.413164528160E+03   -0.42944E-05   -0.53695E-06  2885   0.265E-03    0.581E-03
RMM:  10    -0.413164535370E+03   -0.72096E-05   -0.23520E-06  2580   0.223E-03    0.272E-03
RMM:  11    -0.413164541059E+03   -0.56892E-05   -0.14599E-06  2540   0.179E-03    0.137E-03
RMM:  12    -0.413164544466E+03   -0.34075E-05   -0.74246E-07  2441   0.134E-03    0.478E-04
RMM:  13    -0.413164546076E+03   -0.16094E-05   -0.34204E-07  2000   0.942E-04    0.298E-04
RMM:  14    -0.413164547852E+03   -0.17764E-05   -0.25138E-07  1635   0.805E-04    0.198E-04
RMM:  15    -0.413164549395E+03   -0.15434E-05   -0.20589E-07  1432   0.736E-04    0.128E-04
RMM:  16    -0.413164549742E+03   -0.34631E-06   -0.98684E-08  1125   0.638E-04
    5 T=    61. E= -.41286638E+03 F= -.41316455E+03 E0= -.41314207E+03  EK= 0.29817E+00 SP= 0.00E+00 SK= 0.00E+00
       N       E                     dE             d eps       ncg     rms          rms(c)
RMM:   1    -0.413155906461E+03    0.86429E-02   -0.11243E+01  4248   0.717E-01    0.907E-01
RMM:   2    -0.413166235736E+03   -0.10329E-01   -0.13533E-01  3927   0.960E-02    0.635E-01
RMM:   3    -0.413165389664E+03    0.84607E-03   -0.65572E-03  4844   0.368E-02    0.169E-01
RMM:   4    -0.413193923371E+03   -0.28534E-01   -0.28842E-02  5160   0.142E-01    0.704E-01
RMM:   5    -0.413164985241E+03    0.28938E-01   -0.14095E-02  4818   0.117E-01    0.355E-02
RMM:   6    -0.413165162888E+03   -0.17765E-03   -0.22301E-03  5785   0.458E-02    0.176E-02
RMM:   7    -0.413165174844E+03   -0.11956E-04   -0.26343E-04  5845   0.134E-02    0.132E-02
RMM:   8    -0.413165175674E+03   -0.83004E-06   -0.32921E-05  4288   0.505E-03    0.851E-03
RMM:   9    -0.413165175223E+03    0.45093E-06   -0.50993E-06  2864   0.263E-03
    6 T=    61. E= -.41286668E+03 F= -.41316518E+03 E0= -.41314271E+03  EK= 0.29850E+00 SP= 0.00E+00 SK= 0.00E+00
       N       E                     dE             d eps       ncg     rms          rms(c)
RMM:   1    -0.413155502521E+03    0.96732E-02   -0.11182E+01  4271   0.722E-01    0.902E-01
RMM:   2    -0.413165460445E+03   -0.99579E-02   -0.13487E-01  4225   0.999E-02    0.628E-01
RMM:   3    -0.413167547336E+03   -0.20869E-02   -0.87667E-03  5142   0.611E-02    0.275E-01
RMM:   4    -0.413197397465E+03   -0.29850E-01   -0.42103E-02  5127   0.172E-01    0.752E-01
RMM:   5    -0.413164579837E+03    0.32818E-01   -0.14191E-02  4761   0.125E-01    0.530E-02
RMM:   6    -0.413164662767E+03   -0.82930E-04   -0.23442E-03  5621   0.482E-02    0.158E-02
RMM:   7    -0.413164686755E+03   -0.23988E-04   -0.32119E-04  6046   0.152E-02    0.119E-02
RMM:   8    -0.413164688528E+03   -0.17732E-05   -0.39998E-05  4589   0.547E-03    0.762E-03
RMM:   9    -0.413164687567E+03    0.96140E-06   -0.61918E-06  2920   0.344E-03
    7 T=    61. E= -.41286618E+03 F= -.41316469E+03 E0= -.41314224E+03  EK= 0.29851E+00 SP= 0.00E+00 SK= 0.00E+00
       N       E                     dE             d eps       ncg     rms          rms(c)
RMM:   1    -0.413155650246E+03    0.90383E-02   -0.11182E+01  4290   0.725E-01    0.883E-01
RMM:   2    -0.413166762710E+03   -0.11112E-01   -0.13767E-01  4093   0.962E-02    0.637E-01
RMM:   3    -0.413165527386E+03    0.12353E-02   -0.61098E-03  3986   0.309E-02    0.151E-01
RMM:   4    -0.413167547949E+03   -0.20206E-02   -0.25899E-03  5160   0.422E-02    0.192E-01
RMM:   5    -0.413165504736E+03    0.20432E-02   -0.10132E-03  4818   0.317E-02    0.151E-02
RMM:   6    -0.413165515721E+03   -0.10985E-04   -0.17219E-04  5646   0.138E-02    0.973E-03
RMM:   7    -0.413165524568E+03   -0.88469E-05   -0.21132E-05  4192   0.490E-03    0.498E-03
RMM:   8    -0.413165529113E+03   -0.45444E-05   -0.24488E-06  2639   0.224E-03    0.285E-03
RMM:   9    -0.413165534053E+03   -0.49399E-05   -0.12999E-06  2520   0.170E-03    0.196E-03
RMM:  10    -0.413165536696E+03   -0.26430E-05   -0.63454E-07  2395   0.130E-03    0.100E-03
RMM:  11    -0.413165540459E+03   -0.37636E-05   -0.76992E-07  2401   0.120E-03    0.506E-04
RMM:  12    -0.413165542732E+03   -0.22725E-05   -0.47164E-07  1985   0.937E-04    0.337E-04
RMM:  13    -0.413165543020E+03   -0.28862E-06   -0.14703E-07  1190   0.661E-04
    8 T=    61. E= -.41286669E+03 F= -.41316554E+03 E0= -.41314311E+03  EK= 0.29886E+00 SP= 0.00E+00 SK= 0.00E+00
       N       E                     dE             d eps       ncg     rms          rms(c)
RMM:   1    -0.413156170249E+03    0.93725E-02   -0.11249E+01  4282   0.729E-01    0.901E-01
RMM:   2    -0.413166697891E+03   -0.10528E-01   -0.13683E-01  4158   0.101E-01    0.638E-01
RMM:   3    -0.413165913485E+03    0.78441E-03   -0.65821E-03  4863   0.406E-02    0.172E-01
RMM:   4    -0.413200105711E+03   -0.34192E-01   -0.35013E-02  5158   0.155E-01    0.770E-01
RMM:   5    -0.413165288612E+03    0.34817E-01   -0.16953E-02  4809   0.129E-01    0.383E-02
RMM:   6    -0.413165493433E+03   -0.20482E-03   -0.26865E-03  5788   0.503E-02    0.176E-02
RMM:   7    -0.413165509247E+03   -0.15814E-04   -0.31788E-04  5898   0.145E-02    0.137E-02
RMM:   8    -0.413165509905E+03   -0.65808E-06   -0.38817E-05  4398   0.534E-03    0.891E-03
RMM:   9    -0.413165509310E+03    0.59483E-06   -0.58916E-06  2917   0.271E-03
    9 T=    61. E= -.41286642E+03 F= -.41316551E+03 E0= -.41314310E+03  EK= 0.29909E+00 SP= 0.00E+00 SK= 0.00E+00
       N       E                     dE             d eps       ncg     rms          rms(c)
RMM:   1    -0.413156681509E+03    0.88284E-02   -0.11235E+01  4294   0.734E-01    0.909E-01
RMM:   2    -0.413166290130E+03   -0.96086E-02   -0.13484E-01  4276   0.980E-02    0.629E-01
RMM:   3    -0.413169134175E+03   -0.28440E-02   -0.94653E-03  5145   0.661E-02    0.297E-01
RMM:   4    -0.413194391886E+03   -0.25258E-01   -0.39481E-02  5106   0.167E-01    0.707E-01
RMM:   5    -0.413165627809E+03    0.28764E-01   -0.12111E-02  4735   0.117E-01    0.522E-02
RMM:   6    -0.413165682361E+03   -0.54552E-04   -0.20347E-03  5591   0.447E-02    0.166E-02
RMM:   7    -0.413165700911E+03   -0.18550E-04   -0.28237E-04  6037   0.146E-02    0.119E-02
RMM:   8    -0.413165701077E+03   -0.16566E-06   -0.35283E-05  4541   0.530E-03    0.751E-03
RMM:   9    -0.413165697403E+03    0.36736E-05   -0.65446E-06  3007   0.357E-03    0.357E-03
RMM:  10    -0.413165695952E+03    0.14514E-05   -0.19590E-06  2552   0.219E-03    0.211E-03
RMM:  11    -0.413165694489E+03    0.14629E-05   -0.97728E-07  2529   0.155E-03    0.950E-04
RMM:  12    -0.413165693677E+03    0.81231E-06   -0.45973E-07  2086   0.104E-03
   10 T=    61. E= -.41286631E+03 F= -.41316569E+03 E0= -.41314331E+03  EK= 0.29938E+00 SP= 0.00E+00 SK= 0.00E+00
       N       E                     dE             d eps       ncg     rms          rms(c)
RMM:   1    -0.413156809552E+03    0.88849E-02   -0.11189E+01  4293   0.739E-01    0.885E-01
RMM:   2    -0.413167804418E+03   -0.10995E-01   -0.13674E-01  4173   0.953E-02    0.634E-01
RMM:   3    -0.413166726256E+03    0.10782E-02   -0.61937E-03  4854   0.390E-02    0.166E-01
RMM:   4    -0.413195350090E+03   -0.28624E-01   -0.29059E-02  5147   0.142E-01    0.706E-01
RMM:   5    -0.413166195829E+03    0.29154E-01   -0.14331E-02  4816   0.118E-01    0.338E-02
RMM:   6    -0.413166373632E+03   -0.17780E-03   -0.21958E-03  5787   0.456E-02    0.167E-02
RMM:   7    -0.413166387441E+03   -0.13809E-04   -0.25621E-04  5833   0.133E-02    0.128E-02
RMM:   8    -0.413166389887E+03   -0.24468E-05   -0.33312E-05  4342   0.510E-03    0.850E-03
RMM:   9    -0.413166390638E+03   -0.75058E-06   -0.51159E-06  2865   0.268E-03
   11 T=    61. E= -.41286654E+03 F= -.41316639E+03 E0= -.41314403E+03  EK= 0.29985E+00 SP= 0.00E+00 SK= 0.00E+00
       N       E                     dE             d eps       ncg     rms          rms(c)
RMM:   1    -0.413156711473E+03    0.96784E-02   -0.11268E+01  4298   0.745E-01    0.896E-01
RMM:   2    -0.413167434082E+03   -0.10723E-01   -0.13858E-01  4289   0.993E-02    0.641E-01
RMM:   3    -0.413169653043E+03   -0.22190E-02   -0.90093E-03  5132   0.656E-02    0.292E-01
RMM:   4    -0.413200188045E+03   -0.30535E-01   -0.44985E-02  5106   0.178E-01    0.764E-01
RMM:   5    -0.413166116460E+03    0.34072E-01   -0.14535E-02  4742   0.127E-01    0.527E-02
RMM:   6    -0.413166204520E+03   -0.88060E-04   -0.24126E-03  5620   0.486E-02    0.143E-02
RMM:   7    -0.413166230611E+03   -0.26091E-04   -0.32015E-04  6034   0.152E-02    0.115E-02
RMM:   8    -0.413166234101E+03   -0.34895E-05   -0.39529E-05  4618   0.545E-03    0.734E-03
RMM:   9    -0.413166236466E+03   -0.23659E-05   -0.64158E-06  2955   0.348E-03    0.367E-03
RMM:  10    -0.413166238476E+03   -0.20099E-05   -0.22678E-06  2567   0.225E-03    0.214E-03
RMM:  11    -0.413166240099E+03   -0.16225E-05   -0.11528E-06  2546   0.158E-03    0.934E-04
RMM:  12    -0.413166240759E+03   -0.66006E-06   -0.49271E-07  2087   0.104E-03
   12 T=    61. E= -.41286606E+03 F= -.41316624E+03 E0= -.41314391E+03  EK= 0.30018E+00 SP= 0.00E+00 SK= 0.00E+00
       N       E                     dE             d eps       ncg     rms          rms(c)
RMM:   1    -0.413157800522E+03    0.84396E-02   -0.11298E+01  4295   0.748E-01    0.915E-01
RMM:   2    -0.413167692952E+03   -0.98924E-02   -0.13527E-01  4215   0.946E-02    0.632E-01
RMM:   3    -0.413167214510E+03    0.47844E-03   -0.67614E-03  4895   0.366E-02    0.171E-01
RMM:   4    -0.413195182129E+03   -0.27968E-01   -0.28245E-02  5142   0.140E-01    0.697E-01
RMM:   5    -0.413166809020E+03    0.28373E-01   -0.13919E-02  4812   0.116E-01    0.355E-02
RMM:   6    -0.413166981533E+03   -0.17251E-03   -0.22037E-03  5807   0.450E-02    0.185E-02
RMM:   7    -0.413166989368E+03   -0.78348E-05   -0.25272E-04  5826   0.133E-02    0.134E-02
RMM:   8    -0.413166987331E+03    0.20375E-05   -0.33321E-05  4366   0.510E-03    0.892E-03
RMM:   9    -0.413166982790E+03    0.45407E-05   -0.52361E-06  2887   0.265E-03    0.610E-03
RMM:  10    -0.413166978225E+03    0.45650E-05   -0.20129E-06  2552   0.211E-03    0.296E-03
RMM:  11    -0.413166974968E+03    0.32567E-05   -0.15286E-06  2547   0.184E-03    0.146E-03
RMM:  12    -0.413166972516E+03    0.24525E-05   -0.73029E-07  2428   0.135E-03    0.498E-04
RMM:  13    -0.413166971631E+03    0.88439E-06   -0.30963E-07  2007   0.924E-04
   13 T=    61. E= -.41286616E+03 F= -.41316697E+03 E0= -.41314467E+03  EK= 0.30081E+00 SP= 0.00E+00 SK= 0.00E+00
       N       E                     dE             d eps       ncg     rms          rms(c)
RMM:   1    -0.413157810905E+03    0.91616E-02   -0.11215E+01  4296   0.750E-01    0.889E-01
RMM:   2    -0.413168569034E+03   -0.10758E-01   -0.13733E-01  4220   0.959E-02    0.632E-01
RMM:   3    -0.413167754735E+03    0.81430E-03   -0.62932E-03  4838   0.374E-02    0.168E-01
RMM:   4    -0.413195659336E+03   -0.27905E-01   -0.28396E-02  5141   0.140E-01    0.697E-01
RMM:   5    -0.413167270799E+03    0.28389E-01   -0.13950E-02  4814   0.116E-01    0.339E-02
RMM:   6    -0.413167442701E+03   -0.17190E-03   -0.21914E-03  5799   0.449E-02    0.168E-02
RMM:   7    -0.413167454126E+03   -0.11425E-04   -0.25407E-04  5816   0.133E-02    0.128E-02
RMM:   8    -0.413167454358E+03   -0.23250E-06   -0.32385E-05  4276   0.502E-03    0.842E-03
RMM:   9    -0.413167452772E+03    0.15863E-05   -0.49662E-06  2852   0.264E-03    0.584E-03
RMM:  10    -0.413167452156E+03    0.61566E-06   -0.21104E-06  2565   0.219E-03
   14 T=    61. E= -.41286620E+03 F= -.41316745E+03 E0= -.41314518E+03  EK= 0.30125E+00 SP= 0.00E+00 SK= 0.00E+00
       N       E                     dE             d eps       ncg     rms          rms(c)
RMM:   1    -0.413157965141E+03    0.94876E-02   -0.11305E+01  4305   0.764E-01    0.893E-01
RMM:   2    -0.413169342314E+03   -0.11377E-01   -0.13972E-01  4296   0.993E-02    0.643E-01
RMM:   3    -0.413171200098E+03   -0.18578E-02   -0.89986E-03  5120   0.659E-02    0.294E-01
RMM:   4    -0.413202456050E+03   -0.31256E-01   -0.46104E-02  5106   0.180E-01    0.772E-01
RMM:   5    -0.413167597599E+03    0.34858E-01   -0.14887E-02  4728   0.128E-01    0.509E-02
RMM:   6    -0.413167697255E+03   -0.99656E-04   -0.24595E-03  5620   0.490E-02    0.137E-02
RMM:   7    -0.413167723345E+03   -0.26090E-04   -0.31775E-04  6009   0.149E-02    0.112E-02
RMM:   8    -0.413167726539E+03   -0.31946E-05   -0.38497E-05  4506   0.534E-03    0.696E-03
RMM:   9    -0.413167728491E+03   -0.19521E-05   -0.57426E-06  2859   0.318E-03    0.344E-03
RMM:  10    -0.413167730280E+03   -0.17889E-05   -0.22944E-06  2564   0.218E-03    0.201E-03
RMM:  11    -0.413167731427E+03   -0.11463E-05   -0.10219E-06  2532   0.149E-03    0.835E-04
RMM:  12    -0.413167732026E+03   -0.59915E-06   -0.48706E-07  1964   0.103E-03
   15 T=    61. E= -.41286614E+03 F= -.41316773E+03 E0= -.41314550E+03  EK= 0.30159E+00 SP= 0.00E+00 SK= 0.00E+00
       N       E                     dE             d eps       ncg     rms          rms(c)
RMM:   1    -0.413159544886E+03    0.81865E-02   -0.11350E+01  4303   0.764E-01    0.917E-01
RMM:   2    -0.413169451252E+03   -0.99064E-02   -0.13675E-01  4249   0.101E-01    0.635E-01
RMM:   3    -0.413168873642E+03    0.57761E-03   -0.67846E-03  4899   0.383E-02    0.175E-01
RMM:   4    -0.413200406386E+03   -0.31533E-01   -0.32121E-02  5144   0.149E-01    0.739E-01
RMM:   5    -0.413168373164E+03    0.32033E-01   -0.15688E-02  4809   0.123E-01    0.372E-02
RMM:   6    -0.413168559655E+03   -0.18649E-03   -0.24977E-03  5804   0.479E-02    0.186E-02
RMM:   7    -0.413168567616E+03   -0.79611E-05   -0.28602E-04  5862   0.140E-02    0.139E-02
RMM:   8    -0.413168565067E+03    0.25489E-05   -0.36840E-05  4439   0.531E-03    0.934E-03
RMM:   9    -0.413168559848E+03    0.52197E-05   -0.57285E-06  2915   0.273E-03    0.646E-03
RMM:  10    -0.413168554192E+03    0.56556E-05   -0.21658E-06  2554   0.222E-03    0.311E-03
RMM:  11    -0.413168550162E+03    0.40301E-05   -0.15739E-06  2532   0.190E-03    0.156E-03
RMM:  12    -0.413168547077E+03    0.30849E-05   -0.76153E-07  2440   0.141E-03    0.517E-04
RMM:  13    -0.413168545915E+03    0.11622E-05   -0.33445E-07  2079   0.961E-04    0.321E-04
RMM:  14    -0.413168544403E+03    0.15120E-05   -0.20590E-07  1626   0.782E-04    0.189E-04
RMM:  15    -0.413168541869E+03    0.25336E-05   -0.20697E-07  1578   0.758E-04    0.155E-04
RMM:  16    -0.413168541191E+03    0.67826E-06   -0.82367E-08  1083   0.615E-04
   16 T=    62. E= -.41286634E+03 F= -.41316854E+03 E0= -.41314634E+03  EK= 0.30221E+00 SP= 0.00E+00 SK= 0.00E+00
       N       E                     dE             d eps       ncg     rms          rms(c)
RMM:   1    -0.413159421755E+03    0.91201E-02   -0.11260E+01  4296   0.761E-01    0.896E-01
RMM:   2    -0.413170092234E+03   -0.10670E-01   -0.13758E-01  4250   0.986E-02    0.631E-01
RMM:   3    -0.413169382278E+03    0.70996E-03   -0.64478E-03  4894   0.410E-02    0.177E-01
RMM:   4    -0.413204706132E+03   -0.35324E-01   -0.36283E-02  5140   0.158E-01    0.781E-01
RMM:   5    -0.413168829134E+03    0.35877E-01   -0.17572E-02  4799   0.130E-01    0.387E-02
RMM:   6    -0.413169033313E+03   -0.20418E-03   -0.27805E-03  5769   0.507E-02    0.183E-02
RMM:   7    -0.413169045249E+03   -0.11937E-04   -0.32311E-04  5887   0.147E-02    0.140E-02
RMM:   8    -0.413169043813E+03    0.14362E-05   -0.39867E-05  4424   0.541E-03    0.930E-03
RMM:   9    -0.413169040012E+03    0.38011E-05   -0.61294E-06  2940   0.274E-03    0.648E-03
RMM:  10    -0.413169036286E+03    0.37263E-05   -0.23194E-06  2561   0.228E-03    0.305E-03
RMM:  11    -0.413169033932E+03    0.23540E-05   -0.15693E-06  2527   0.190E-03    0.153E-03
RMM:  12    -0.413169032138E+03    0.17943E-05   -0.76122E-07  2447   0.142E-03    0.514E-04
RMM:  13    -0.413169031437E+03    0.70055E-06   -0.33994E-07  2107   0.975E-04
   17 T=    62. E= -.41286631E+03 F= -.41316903E+03 E0= -.41314687E+03  EK= 0.30272E+00 SP= 0.00E+00 SK= 0.00E+00
       N       E                     dE             d eps       ncg     rms          rms(c)
RMM:   1    -0.413159664689E+03    0.93674E-02   -0.11343E+01  4298   0.769E-01    0.891E-01
RMM:   2    -0.413171256248E+03   -0.11592E-01   -0.14016E-01  4262   0.101E-01    0.644E-01
RMM:   3    -0.413169901466E+03    0.13548E-02   -0.62363E-03  4861   0.384E-02    0.168E-01
RMM:   4    -0.413200496511E+03   -0.30595E-01   -0.31348E-02  5147   0.147E-01    0.729E-01
RMM:   5    -0.413169352190E+03    0.31144E-01   -0.15269E-02  4803   0.121E-01    0.350E-02
RMM:   6    -0.413169532994E+03   -0.18080E-03   -0.24069E-03  5796   0.473E-02    0.167E-02
RMM:   7    -0.413169545487E+03   -0.12493E-04   -0.27216E-04  5838   0.137E-02    0.129E-02
RMM:   8    -0.413169546408E+03   -0.92067E-06   -0.35143E-05  4381   0.518E-03    0.867E-03
RMM:   9    -0.413169545390E+03    0.10175E-05   -0.54604E-06  2904   0.271E-03    0.601E-03
RMM:  10    -0.413169545931E+03   -0.54060E-06   -0.22454E-06  2567   0.222E-03
   18 T=    62. E= -.41286619E+03 F= -.41316955E+03 E0= -.41314743E+03  EK= 0.30336E+00 SP= 0.00E+00 SK= 0.00E+00
       N       E                     dE             d eps       ncg     rms          rms(c)
RMM:   1    -0.413161360541E+03    0.81848E-02   -0.11403E+01  4309   0.776E-01    0.916E-01
RMM:   2    -0.413171602787E+03   -0.10242E-01   -0.13863E-01  4303   0.101E-01    0.639E-01
RMM:   3    -0.413174478793E+03   -0.28760E-02   -0.95932E-03  5128   0.671E-02    0.307E-01
RMM:   4    -0.413200251601E+03   -0.25773E-01   -0.41526E-02  5092   0.171E-01    0.716E-01
RMM:   5    -0.413170562791E+03    0.29689E-01   -0.12437E-02  4713   0.119E-01    0.495E-02
RMM:   6    -0.413170628567E+03   -0.65776E-04   -0.20864E-03  5600   0.449E-02    0.157E-02
RMM:   7    -0.413170644214E+03   -0.15647E-04   -0.27118E-04  5998   0.141E-02    0.114E-02
RMM:   8    -0.413170642409E+03    0.18052E-05   -0.33278E-05  4406   0.513E-03    0.706E-03
RMM:   9    -0.413170634965E+03    0.74442E-05   -0.53644E-06  2804   0.327E-03    0.331E-03
RMM:  10    -0.413170630680E+03    0.42845E-05   -0.19493E-06  2537   0.210E-03    0.188E-03
RMM:  11    -0.413170626828E+03    0.38521E-05   -0.85563E-07  2514   0.145E-03    0.823E-04
RMM:  12    -0.413170624582E+03    0.22464E-05   -0.42978E-07  1916   0.101E-03    0.403E-04
RMM:  13    -0.413170621839E+03    0.27428E-05   -0.33387E-07  1911   0.910E-04    0.243E-04
RMM:  14    -0.413170620320E+03    0.15190E-05   -0.18572E-07  1412   0.722E-04    0.138E-04
RMM:  15    -0.413170617313E+03    0.30069E-05   -0.22041E-07  1616   0.758E-04    0.977E-05
RMM:  16    -0.413170615744E+03    0.15697E-05   -0.11669E-07  1237   0.637E-04    0.768E-05
RMM:  17    -0.413170613536E+03    0.22078E-05   -0.10861E-07  1266   0.639E-04    0.420E-05
RMM:  18    -0.413170612102E+03    0.14338E-05   -0.65556E-08  1025   0.573E-04    0.230E-05
RMM:  19    -0.413170611616E+03    0.48579E-06   -0.32477E-08   809   0.528E-04
   19 T=    62. E= -.41286635E+03 F= -.41317061E+03 E0= -.41314853E+03  EK= 0.30426E+00 SP= 0.00E+00 SK= 0.00E+00
       N       E                     dE             d eps       ncg     rms          rms(c)
RMM:   1    -0.413161922947E+03    0.86892E-02   -0.11354E+01  4296   0.786E-01    0.905E-01
RMM:   2    -0.413172215078E+03   -0.10292E-01   -0.13743E-01  4256   0.990E-02    0.632E-01
RMM:   3    -0.413171736110E+03    0.47897E-03   -0.66084E-03  4965   0.408E-02    0.186E-01
RMM:   4    -0.413211229126E+03   -0.39493E-01   -0.41411E-02  5141   0.168E-01    0.825E-01
RMM:   5    -0.413171013138E+03    0.40216E-01   -0.19684E-02  4790   0.138E-01    0.421E-02
RMM:   6    -0.413171222881E+03   -0.20974E-03   -0.31368E-03  5754   0.542E-02    0.190E-02
RMM:   7    -0.413171237222E+03   -0.14342E-04   -0.36619E-04  5872   0.156E-02    0.146E-02
RMM:   8    -0.413171234669E+03    0.25529E-05   -0.45539E-05  4563   0.573E-03    0.971E-03
RMM:   9    -0.413171229103E+03    0.55662E-05   -0.68118E-06  2991   0.281E-03    0.672E-03
RMM:  10    -0.413171222935E+03    0.61681E-05   -0.24645E-06  2566   0.233E-03    0.313E-03
RMM:  11    -0.413171218946E+03    0.39887E-05   -0.15749E-06  2522   0.192E-03    0.155E-03
RMM:  12    -0.413171216020E+03    0.29266E-05   -0.78991E-07  2455   0.145E-03    0.503E-04
RMM:  13    -0.413171214974E+03    0.10459E-05   -0.34536E-07  2140   0.995E-04    0.333E-04
RMM:  14    -0.413171213687E+03    0.12873E-05   -0.19405E-07  1641   0.784E-04    0.197E-04
RMM:  15    -0.413171211403E+03    0.22834E-05   -0.17226E-07  1563   0.747E-04    0.136E-04
RMM:  16    -0.413171210821E+03    0.58247E-06   -0.74042E-08  1074   0.616E-04
   20 T=    62. E= -.41286617E+03 F= -.41317121E+03 E0= -.41314918E+03  EK= 0.30504E+00 SP= 0.00E+00 SK= 0.00E+00
       N       E                     dE             d eps       ncg     rms          rms(c)
RMM:   1    -0.413162703297E+03    0.85081E-02   -0.11403E+01  4295   0.794E-01    0.891E-01
RMM:   2    -0.413173503056E+03   -0.10800E-01   -0.14203E-01  4269   0.104E-01    0.644E-01
RMM:   3    -0.413172385463E+03    0.11176E-02   -0.63677E-03  4899   0.405E-02    0.176E-01
RMM:   4    -0.413208822328E+03   -0.36437E-01   -0.37738E-02  5142   0.161E-01    0.793E-01
RMM:   5    -0.413171702478E+03    0.37120E-01   -0.18289E-02  4796   0.133E-01    0.385E-02
RMM:   6    -0.413171904133E+03   -0.20165E-03   -0.29113E-03  5787   0.523E-02    0.174E-02
RMM:   7    -0.413171920705E+03   -0.16571E-04   -0.33461E-04  5881   0.150E-02    0.137E-02
RMM:   8    -0.413171920958E+03   -0.25362E-06   -0.42923E-05  4510   0.557E-03    0.930E-03
RMM:   9    -0.413171918621E+03    0.23373E-05   -0.63998E-06  2965   0.280E-03    0.657E-03
RMM:  10    -0.413171917355E+03    0.12660E-05   -0.24259E-06  2575   0.235E-03    0.316E-03
RMM:  11    -0.413171916716E+03    0.63914E-06   -0.17224E-06  2539   0.196E-03
   21 T=    62. E= -.41286607E+03 F= -.41317192E+03 E0= -.41314993E+03  EK= 0.30585E+00 SP= 0.00E+00 SK= 0.00E+00
       N       E                     dE             d eps       ncg     rms          rms(c)
RMM:   1    -0.413163776730E+03    0.81406E-02   -0.11479E+01  4300   0.795E-01    0.913E-01
RMM:   2    -0.413174267512E+03   -0.10491E-01   -0.14064E-01  4294   0.101E-01    0.643E-01
RMM:   3    -0.413174335223E+03   -0.67711E-04   -0.71527E-03  5012   0.490E-02    0.212E-01
RMM:   4    -0.413219807422E+03   -0.45472E-01   -0.50604E-02  5128   0.186E-01    0.888E-01
RMM:   5    -0.413173037841E+03    0.46770E-01   -0.22337E-02  4781   0.149E-01    0.465E-02
RMM:   6    -0.413173252757E+03   -0.21492E-03   -0.35361E-03  5743   0.585E-02    0.184E-02
RMM:   7    -0.413173272555E+03   -0.19798E-04   -0.42567E-04  5952   0.168E-02    0.150E-02
RMM:   8    -0.413173270579E+03    0.19756E-05   -0.51908E-05  4701   0.603E-03    0.992E-03
RMM:   9    -0.413173264921E+03    0.56580E-05   -0.72786E-06  3000   0.289E-03    0.647E-03
RMM:  10    -0.413173258787E+03    0.61340E-05   -0.27677E-06  2591   0.245E-03    0.291E-03
RMM:  11    -0.413173254550E+03    0.42365E-05   -0.14872E-06  2517   0.188E-03    0.138E-03
RMM:  12    -0.413173251249E+03    0.33014E-05   -0.77208E-07  2459   0.142E-03    0.451E-04
RMM:  13    -0.413173249580E+03    0.16694E-05   -0.34605E-07  2120   0.987E-04    0.316E-04
RMM:  14    -0.413173247118E+03    0.24620E-05   -0.23016E-07  1698   0.809E-04    0.219E-04
RMM:  15    -0.413173244830E+03    0.22872E-05   -0.15488E-07  1449   0.717E-04    0.107E-04
RMM:  16    -0.413173243965E+03    0.86527E-06   -0.80605E-08  1126   0.623E-04
   22 T=    62. E= -.41286649E+03 F= -.41317324E+03 E0= -.41315130E+03  EK= 0.30675E+00 SP= 0.00E+00 SK= 0.00E+00
       N       E                     dE             d eps       ncg     rms          rms(c)
RMM:   1    -0.413164503304E+03    0.87415E-02   -0.11466E+01  4302   0.791E-01    0.915E-01
RMM:   2    -0.413174846557E+03   -0.10343E-01   -0.13906E-01  4282   0.106E-01    0.635E-01
RMM:   3    -0.413174381218E+03    0.46534E-03   -0.67671E-03  4881   0.444E-02    0.185E-01
RMM:   4    -0.413212134754E+03   -0.37754E-01   -0.39065E-02  5139   0.164E-01    0.807E-01
RMM:   5    -0.413173645638E+03    0.38489E-01   -0.18837E-02  4792   0.136E-01    0.407E-02
RMM:   6    -0.413173853737E+03   -0.20810E-03   -0.30744E-03  5776   0.536E-02    0.195E-02
RMM:   7    -0.413173865566E+03   -0.11829E-04   -0.34651E-04  5882   0.154E-02    0.148E-02
RMM:   8    -0.413173861970E+03    0.35967E-05   -0.44308E-05  4578   0.575E-03    0.101E-02
RMM:   9    -0.413173854735E+03    0.72347E-05   -0.67837E-06  2993   0.290E-03    0.707E-03
RMM:  10    -0.413173846122E+03    0.86126E-05   -0.24452E-06  2572   0.242E-03    0.342E-03
RMM:  11    -0.413173839512E+03    0.66104E-05   -0.17034E-06  2530   0.202E-03    0.170E-03
RMM:  12    -0.413173834988E+03    0.45233E-05   -0.81493E-07  2458   0.150E-03    0.552E-04
RMM:  13    -0.413173833309E+03    0.16798E-05   -0.35611E-07  2159   0.101E-03    0.354E-04
RMM:  14    -0.413173830969E+03    0.23393E-05   -0.20574E-07  1705   0.803E-04    0.205E-04
RMM:  15    -0.413173827315E+03    0.36548E-05   -0.17356E-07  1629   0.753E-04    0.154E-04
RMM:  16    -0.413173826599E+03    0.71558E-06   -0.73814E-08  1095   0.607E-04
   23 T=    63. E= -.41286618E+03 F= -.41317383E+03 E0= -.41315193E+03  EK= 0.30765E+00 SP= 0.00E+00 SK= 0.00E+00
       N       E                     dE             d eps       ncg     rms          rms(c)
RMM:   1    -0.413165316371E+03    0.85109E-02   -0.11464E+01  4295   0.796E-01    0.894E-01
RMM:   2    -0.413177059539E+03   -0.11743E-01   -0.14286E-01  4278   0.105E-01    0.644E-01
RMM:   3    -0.413175753453E+03    0.13061E-02   -0.62114E-03  4814   0.407E-02    0.172E-01
RMM:   4    -0.413204600894E+03   -0.28847E-01   -0.29370E-02  5153   0.142E-01    0.707E-01
RMM:   5    -0.413175306779E+03    0.29294E-01   -0.14520E-02  4802   0.118E-01    0.336E-02
RMM:   6    -0.413175471814E+03   -0.16504E-03   -0.23196E-03  5781   0.462E-02    0.167E-02
RMM:   7    -0.413175483145E+03   -0.11331E-04   -0.24694E-04  5773   0.132E-02    0.122E-02
RMM:   8    -0.413175482414E+03    0.73044E-06   -0.34072E-05  4410   0.510E-03    0.889E-03
RMM:   9    -0.413175478400E+03    0.40138E-05   -0.55397E-06  2938   0.275E-03    0.621E-03
RMM:  10    -0.413175475207E+03    0.31931E-05   -0.19886E-06  2548   0.219E-03    0.310E-03
RMM:  11    -0.413175472920E+03    0.22872E-05   -0.15711E-06  2535   0.190E-03    0.157E-03
RMM:  12    -0.413175471273E+03    0.16475E-05   -0.68705E-07  2422   0.137E-03    0.562E-04
RMM:  13    -0.413175470636E+03    0.63613E-06   -0.30308E-07  2029   0.932E-04
   24 T=    63. E= -.41286656E+03 F= -.41317547E+03 E0= -.41315362E+03  EK= 0.30891E+00 SP= 0.00E+00 SK= 0.00E+00
       N       E                     dE             d eps       ncg     rms          rms(c)
RMM:   1    -0.413166639995E+03    0.88313E-02   -0.11579E+01  4294   0.804E-01    0.910E-01
RMM:   2    -0.413177974722E+03   -0.11335E-01   -0.14255E-01  4277   0.106E-01    0.648E-01
RMM:   3    -0.413176694504E+03    0.12802E-02   -0.63776E-03  4758   0.425E-02    0.173E-01
RMM:   4    -0.413204088967E+03   -0.27394E-01   -0.27608E-02  5150   0.139E-01    0.689E-01
RMM:   5    -0.413176331337E+03    0.27758E-01   -0.13715E-02  4804   0.115E-01    0.330E-02
RMM:   6    -0.413176486257E+03   -0.15492E-03   -0.21946E-03  5797   0.448E-02    0.169E-02
RMM:   7    -0.413176495396E+03   -0.91387E-05   -0.22767E-04  5734   0.129E-02    0.120E-02
RMM:   8    -0.413176493448E+03    0.19479E-05   -0.31635E-05  4338   0.501E-03    0.886E-03
RMM:   9    -0.413176487907E+03    0.55414E-05   -0.55104E-06  2955   0.281E-03    0.612E-03
RMM:  10    -0.413176482798E+03    0.51087E-05   -0.19517E-06  2550   0.223E-03    0.306E-03
RMM:  11    -0.413176478655E+03    0.41432E-05   -0.15486E-06  2530   0.191E-03    0.153E-03
RMM:  12    -0.413176475869E+03    0.27852E-05   -0.65789E-07  2423   0.136E-03    0.540E-04
RMM:  13    -0.413176474781E+03    0.10883E-05   -0.28824E-07  1988   0.917E-04    0.322E-04
RMM:  14    -0.413176472887E+03    0.18944E-05   -0.18689E-07  1642   0.776E-04    0.192E-04
RMM:  15    -0.413176470512E+03    0.23741E-05   -0.14290E-07  1497   0.719E-04    0.168E-04
RMM:  16    -0.413176469904E+03    0.60879E-06   -0.59780E-08   981   0.594E-04
   25 T=    63. E= -.41286654E+03 F= -.41317647E+03 E0= -.41315467E+03  EK= 0.30993E+00 SP= 0.00E+00 SK= 0.00E+00
       N       E                     dE             d eps       ncg     rms          rms(c)
RMM:   1    -0.413167880299E+03    0.85902E-02   -0.11602E+01  4295   0.812E-01    0.925E-01
RMM:   2    -0.413178240875E+03   -0.10361E-01   -0.14157E-01  4272   0.111E-01    0.640E-01
RMM:   3    -0.413177673149E+03    0.56773E-03   -0.66730E-03  4694   0.407E-02    0.174E-01
RMM:   4    -0.413200285237E+03   -0.22612E-01   -0.22776E-02  5149   0.126E-01    0.628E-01
RMM:   5    -0.413177341968E+03    0.22943E-01   -0.11418E-02  4809   0.104E-01    0.315E-02
RMM:   6    -0.413177459507E+03   -0.11754E-03   -0.17857E-03  5807   0.402E-02    0.168E-02
RMM:   7    -0.413177463720E+03   -0.42124E-05   -0.17506E-04  5523   0.115E-02    0.108E-02
RMM:   8    -0.413177458050E+03    0.56697E-05   -0.22576E-05  3881   0.430E-03    0.777E-03
RMM:   9    -0.413177450556E+03    0.74939E-05   -0.50433E-06  2929   0.270E-03    0.530E-03
RMM:  10    -0.413177443759E+03    0.67965E-05   -0.16343E-06  2527   0.209E-03    0.289E-03
RMM:  11    -0.413177435468E+03    0.82917E-05   -0.13468E-06  2512   0.184E-03    0.140E-03
RMM:  12    -0.413177430979E+03    0.44892E-05   -0.54546E-07  2371   0.127E-03    0.553E-04
RMM:  13    -0.413177429077E+03    0.19018E-05   -0.24093E-07  1913   0.872E-04    0.309E-04
RMM:  14    -0.413177425793E+03    0.32837E-05   -0.15701E-07  1579   0.748E-04    0.164E-04
RMM:  15    -0.413177421947E+03    0.38463E-05   -0.12879E-07  1529   0.705E-04    0.184E-04
RMM:  16    -0.413177420972E+03    0.97505E-06   -0.48397E-08   935   0.572E-04
   26 T=    63. E= -.41286621E+03 F= -.41317742E+03 E0= -.41315567E+03  EK= 0.31122E+00 SP= 0.00E+00 SK= 0.00E+00
       N       E                     dE             d eps       ncg     rms          rms(c)
RMM:   1    -0.413169241513E+03    0.81804E-02   -0.11581E+01  4292   0.815E-01    0.900E-01
RMM:   2    -0.413180637984E+03   -0.11396E-01   -0.14326E-01  4274   0.104E-01    0.643E-01
RMM:   3    -0.413179624153E+03    0.10138E-02   -0.62617E-03  4649   0.400E-02    0.170E-01
RMM:   4    -0.413198003709E+03   -0.18380E-01   -0.18521E-02  5160   0.114E-01    0.567E-01
RMM:   5    -0.413179409774E+03    0.18594E-01   -0.92429E-03  4814   0.938E-02    0.272E-02
RMM:   6    -0.413179501537E+03   -0.91763E-04   -0.14490E-03  5840   0.358E-02    0.147E-02
RMM:   7    -0.413179506769E+03   -0.52326E-05   -0.13610E-04  5377   0.102E-02    0.941E-03
RMM:   8    -0.413179502106E+03    0.46630E-05   -0.15708E-05  3487   0.368E-03    0.644E-03
RMM:   9    -0.413179496860E+03    0.52465E-05   -0.31589E-06  2607   0.242E-03    0.340E-03
RMM:  10    -0.413179494312E+03    0.25478E-05   -0.12681E-06  2526   0.171E-03    0.231E-03
RMM:  11    -0.413179490485E+03    0.38273E-05   -0.92544E-07  2488   0.159E-03    0.112E-03
RMM:  12    -0.413179488102E+03    0.23833E-05   -0.43110E-07  2261   0.111E-03    0.411E-04
RMM:  13    -0.413179487312E+03    0.79012E-06   -0.19388E-07  1586   0.781E-04
   27 T=    64. E= -.41286647E+03 F= -.41317949E+03 E0= -.41315779E+03  EK= 0.31302E+00 SP= 0.00E+00 SK= 0.00E+00
       N       E                     dE             d eps       ncg     rms          rms(c)
RMM:   1    -0.413170987566E+03    0.85005E-02   -0.11726E+01  4290   0.836E-01    0.909E-01
RMM:   2    -0.413181708446E+03   -0.10721E-01   -0.14688E-01  4271   0.108E-01    0.654E-01
RMM:   3    -0.413180561155E+03    0.11473E-02   -0.63715E-03  4497   0.409E-02    0.167E-01
RMM:   4    -0.413190749204E+03   -0.10188E-01   -0.10652E-02  5159   0.883E-02    0.427E-01
RMM:   5    -0.413180329233E+03    0.10420E-01   -0.51457E-03  4820   0.699E-02    0.215E-02
RMM:   6    -0.413180367695E+03   -0.38463E-04   -0.80913E-04  5845   0.266E-02    0.130E-02
RMM:   7    -0.413180370791E+03   -0.30951E-05   -0.87076E-05  5308   0.854E-03    0.926E-03
RMM:   8    -0.413180365533E+03    0.52580E-05   -0.11704E-05  3499   0.365E-03    0.564E-03
RMM:   9    -0.413180362046E+03    0.34869E-05   -0.24105E-06  2619   0.229E-03    0.357E-03
RMM:  10    -0.413180357840E+03    0.42057E-05   -0.10383E-06  2503   0.165E-03    0.182E-03
RMM:  11    -0.413180354473E+03    0.33671E-05   -0.72728E-07  2469   0.133E-03    0.864E-04
RMM:  12    -0.413180351999E+03    0.24737E-05   -0.35245E-07  2104   0.977E-04    0.308E-04
RMM:  13    -0.413180350633E+03    0.13658E-05   -0.16820E-07  1430   0.736E-04    0.172E-04
RMM:  14    -0.413180348652E+03    0.19818E-05   -0.11890E-07  1267   0.686E-04    0.130E-04
RMM:  15    -0.413180346330E+03    0.23219E-05   -0.10001E-07  1294   0.668E-04    0.905E-05
RMM:  16    -0.413180345231E+03    0.10983E-05   -0.55664E-08  1039   0.591E-04    0.675E-05
RMM:  17    -0.413180342555E+03    0.26768E-05   -0.71481E-08  1242   0.611E-04    0.286E-05
RMM:  18    -0.413180341874E+03    0.68005E-06   -0.24362E-08   767   0.519E-04
   28 T=    64. E= -.41286589E+03 F= -.41318034E+03 E0= -.41315869E+03  EK= 0.31445E+00 SP= 0.00E+00 SK= 0.00E+00
       N       E                     dE             d eps       ncg     rms          rms(c)
RMM:   1    -0.413173087402E+03    0.72552E-02   -0.11798E+01  4287   0.842E-01    0.934E-01
RMM:   2    -0.413183469394E+03   -0.10382E-01   -0.14458E-01  4267   0.113E-01    0.646E-01
RMM:   3    -0.413182759085E+03    0.71031E-03   -0.67664E-03  4472   0.417E-02    0.173E-01
RMM:   4    -0.413191932943E+03   -0.91739E-02   -0.94302E-03  5174   0.822E-02    0.402E-01
RMM:   5    -0.413182724237E+03    0.92087E-02   -0.45820E-03  4834   0.657E-02    0.237E-02
RMM:   6    -0.413182751496E+03   -0.27259E-04   -0.73435E-04  5846   0.252E-02    0.149E-02
RMM:   7    -0.413182749555E+03    0.19418E-05   -0.86068E-05  5342   0.863E-03    0.973E-03
RMM:   8    -0.413182741139E+03    0.84156E-05   -0.10156E-05  3275   0.357E-03    0.534E-03
RMM:   9    -0.413182734009E+03    0.71301E-05   -0.21786E-06  2589   0.221E-03    0.326E-03
RMM:  10    -0.413182726243E+03    0.77656E-05   -0.10042E-06  2499   0.164E-03    0.168E-03
RMM:  11    -0.413182720526E+03    0.57177E-05   -0.60172E-07  2411   0.126E-03    0.734E-04
RMM:  12    -0.413182716461E+03    0.40645E-05   -0.30973E-07  2016   0.940E-04    0.294E-04
RMM:  13    -0.413182713989E+03    0.24718E-05   -0.15531E-07  1405   0.731E-04    0.166E-04
RMM:  14    -0.413182710663E+03    0.33263E-05   -0.11093E-07  1294   0.688E-04    0.110E-04
RMM:  15    -0.413182707375E+03    0.32881E-05   -0.90091E-08  1329   0.664E-04    0.842E-05
RMM:  16    -0.413182705751E+03    0.16235E-05   -0.52818E-08  1046   0.588E-04    0.659E-05
RMM:  17    -0.413182702635E+03    0.31165E-05   -0.66628E-08  1235   0.611E-04    0.236E-05
RMM:  18    -0.413182701895E+03    0.73949E-06   -0.26370E-08   805   0.521E-04
   29 T=    64. E= -.41286642E+03 F= -.41318270E+03 E0= -.41316110E+03  EK= 0.31628E+00 SP= 0.00E+00 SK= 0.00E+00
       N       E                     dE             d eps       ncg     rms          rms(c)
RMM:   1    -0.413174434368E+03    0.82683E-02   -0.11757E+01  4291   0.848E-01    0.910E-01
RMM:   2    -0.413185545340E+03   -0.11111E-01   -0.14735E-01  4266   0.110E-01    0.646E-01
RMM:   3    -0.413184454091E+03    0.10912E-02   -0.63477E-03  4448   0.422E-02    0.172E-01
RMM:   4    -0.413192302040E+03   -0.78479E-02   -0.83522E-03  5149   0.792E-02    0.375E-01
RMM:   5    -0.413184299343E+03    0.80027E-02   -0.39556E-03  4825   0.612E-02    0.208E-02
RMM:   6    -0.413184319421E+03   -0.20078E-04   -0.62741E-04  5839   0.234E-02    0.135E-02
RMM:   7    -0.413184317650E+03    0.17707E-05   -0.73843E-05  5247   0.809E-03    0.889E-03
RMM:   8    -0.413184310598E+03    0.70521E-05   -0.83267E-06  3138   0.339E-03    0.475E-03
RMM:   9    -0.413184305166E+03    0.54318E-05   -0.19214E-06  2570   0.213E-03    0.281E-03
RMM:  10    -0.413184299615E+03    0.55508E-05   -0.91457E-07  2494   0.155E-03    0.145E-03
RMM:  11    -0.413184295454E+03    0.41618E-05   -0.52184E-07  2329   0.117E-03    0.615E-04
RMM:  12    -0.413184292454E+03    0.29994E-05   -0.27464E-07  1920   0.894E-04    0.236E-04
RMM:  13    -0.413184290287E+03    0.21673E-05   -0.14627E-07  1350   0.718E-04    0.140E-04
RMM:  14    -0.413184287629E+03    0.26577E-05   -0.10814E-07  1301   0.680E-04    0.993E-05
RMM:  15    -0.413184284936E+03    0.26932E-05   -0.85156E-08  1252   0.649E-04    0.644E-05
RMM:  16    -0.413184283328E+03    0.16080E-05   -0.53538E-08  1050   0.593E-04    0.471E-05
RMM:  17    -0.413184281177E+03    0.21516E-05   -0.52900E-08  1095   0.588E-04    0.206E-05
RMM:  18    -0.413184280530E+03    0.64681E-06   -0.22987E-08   780   0.525E-04
   30 T=    65. E= -.41286632E+03 F= -.41318428E+03 E0= -.41316273E+03  EK= 0.31797E+00 SP= 0.00E+00 SK= 0.00E+00
       N       E                     dE             d eps       ncg     rms          rms(c)
RMM:   1    -0.413176638431E+03    0.76427E-02   -0.11898E+01  4289   0.876E-01    0.912E-01
RMM:   2    -0.413188035436E+03   -0.11397E-01   -0.15264E-01  4269   0.121E-01    0.660E-01
RMM:   3    -0.413186136800E+03    0.18986E-02   -0.61842E-03  4400   0.400E-02    0.170E-01
RMM:   4    -0.413190530148E+03   -0.43933E-02   -0.50604E-03  5140   0.611E-02    0.279E-01
RMM:   5    -0.413186129916E+03    0.44002E-02   -0.21718E-03  4821   0.454E-02    0.175E-02
RMM:   6    -0.413186133258E+03   -0.33414E-05   -0.34115E-04  5765   0.179E-02    0.121E-02
RMM:   7    -0.413186131186E+03    0.20713E-05   -0.45582E-05  4904   0.675E-03    0.690E-03
RMM:   8    -0.413186126230E+03    0.49559E-05   -0.60146E-06  2973   0.314E-03    0.327E-03
RMM:   9    -0.413186123490E+03    0.27400E-05   -0.13120E-06  2526   0.185E-03    0.181E-03
RMM:  10    -0.413186120561E+03    0.29293E-05   -0.67111E-07  2378   0.126E-03    0.999E-04
RMM:  11    -0.413186118075E+03    0.24860E-05   -0.39992E-07  2100   0.987E-04    0.418E-04
RMM:  12    -0.413186115920E+03    0.21545E-05   -0.23621E-07  1578   0.810E-04    0.157E-04
RMM:  13    -0.413186114226E+03    0.16942E-05   -0.14007E-07  1247   0.704E-04    0.104E-04
RMM:  14    -0.413186112272E+03    0.19539E-05   -0.11309E-07  1325   0.679E-04    0.604E-05
RMM:  15    -0.413186110436E+03    0.18364E-05   -0.85233E-08  1223   0.634E-04    0.526E-05
RMM:  16    -0.413186109547E+03    0.88876E-06   -0.43215E-08   869   0.562E-04
   31 T=    65. E= -.41286633E+03 F= -.41318611E+03 E0= -.41316461E+03  EK= 0.31978E+00 SP= 0.00E+00 SK= 0.00E+00
       N       E                     dE             d eps       ncg     rms          rms(c)
RMM:   1    -0.413183108894E+03    0.30015E-02   -0.12046E+01  4295   0.907E-01    0.939E-01
RMM:   2    -0.413189714392E+03   -0.66055E-02   -0.15214E-01  4263   0.118E-01    0.654E-01
RMM:   3    -0.413188912041E+03    0.80235E-03   -0.68196E-03  4302   0.504E-02    0.177E-01
RMM:   4    -0.413191802285E+03   -0.28902E-02   -0.35805E-03  5127   0.536E-02    0.227E-01
RMM:   5    -0.413188904975E+03    0.28973E-02   -0.13923E-03  4798   0.370E-02    0.197E-02
RMM:   6    -0.413188899537E+03    0.54379E-05   -0.24415E-04  5719   0.157E-02    0.139E-02
RMM:   7    -0.413188888987E+03    0.10550E-04   -0.36816E-05  4662   0.652E-03    0.599E-03
RMM:   8    -0.413188879367E+03    0.96200E-05   -0.48915E-06  2893   0.307E-03    0.282E-03
RMM:   9    -0.413188873843E+03    0.55242E-05   -0.99395E-07  2496   0.174E-03    0.160E-03
RMM:  10    -0.413188866937E+03    0.69062E-05   -0.57974E-07  2378   0.122E-03    0.843E-04
RMM:  11    -0.413188861918E+03    0.50191E-05   -0.32398E-07  1915   0.927E-04    0.352E-04
RMM:  12    -0.413188857120E+03    0.47978E-05   -0.20240E-07  1594   0.793E-04    0.151E-04
RMM:  13    -0.413188853139E+03    0.39812E-05   -0.13074E-07  1330   0.701E-04    0.914E-05
RMM:  14    -0.413188849228E+03    0.39110E-05   -0.10124E-07  1324   0.665E-04    0.648E-05
RMM:  15    -0.413188845007E+03    0.42209E-05   -0.88409E-08  1301   0.645E-04    0.624E-05
RMM:  16    -0.413188843304E+03    0.17030E-05   -0.47228E-08   944   0.566E-04    0.298E-05
RMM:  17    -0.413188842097E+03    0.12069E-05   -0.36845E-08   894   0.543E-04    0.189E-05
RMM:  18    -0.413188841854E+03    0.24262E-06   -0.18682E-08   677   0.507E-04
   32 T=    66. E= -.41286677E+03 F= -.41318884E+03 E0= -.41316739E+03  EK= 0.32207E+00 SP= 0.00E+00 SK= 0.00E+00
       N       E                     dE             d eps       ncg     rms          rms(c)
RMM:   1    -0.413189237536E+03   -0.39544E-03   -0.12065E+01  4293   0.934E-01    0.925E-01
RMM:   2    -0.413192104639E+03   -0.28671E-02   -0.15663E-01  4270   0.130E-01    0.651E-01
RMM:   3    -0.413190789163E+03    0.13155E-02   -0.62813E-03  4216   0.391E-02    0.182E-01
RMM:   4    -0.413191645840E+03   -0.85668E-03   -0.18360E-03  5064   0.366E-02    0.125E-01
RMM:   5    -0.413190771046E+03    0.87479E-03   -0.42148E-04  4755   0.209E-02    0.180E-02
RMM:   6    -0.413190760738E+03    0.10308E-04   -0.10477E-04  5462   0.107E-02    0.127E-02
RMM:   7    -0.413190749030E+03    0.11708E-04   -0.18067E-05  3943   0.508E-03    0.440E-03
RMM:   8    -0.413190740503E+03    0.85270E-05   -0.33202E-06  2699   0.274E-03    0.228E-03
RMM:   9    -0.413190736095E+03    0.44080E-05   -0.73119E-07  2439   0.157E-03    0.117E-03
RMM:  10    -0.413190730764E+03    0.53306E-05   -0.40026E-07  2163   0.105E-03    0.577E-04
RMM:  11    -0.413190726020E+03    0.47441E-05   -0.22550E-07  1620   0.806E-04    0.240E-04
RMM:  12    -0.413190721747E+03    0.42731E-05   -0.14628E-07  1508   0.727E-04    0.136E-04
RMM:  13    -0.413190717272E+03    0.44753E-05   -0.10245E-07  1273   0.663E-04    0.759E-05
RMM:  14    -0.413190713421E+03    0.38502E-05   -0.73744E-08  1167   0.621E-04    0.631E-05
RMM:  15    -0.413190710852E+03    0.25697E-05   -0.48363E-08  1022   0.576E-04    0.398E-05
RMM:  16    -0.413190708262E+03    0.25901E-05   -0.40434E-08   955   0.557E-04    0.249E-05
RMM:  17    -0.413190707781E+03    0.48025E-06   -0.17367E-08   652   0.501E-04
   33 T=    66. E= -.41286649E+03 F= -.41319071E+03 E0= -.41316931E+03  EK= 0.32421E+00 SP= 0.00E+00 SK= 0.00E+00
       N       E                     dE             d eps       ncg     rms          rms(c)
RMM:   1    -0.413183789747E+03    0.69185E-02   -0.12123E+01  4288   0.919E-01    0.917E-01
RMM:   2    -0.413194845418E+03   -0.11056E-01   -0.15761E-01  4258   0.126E-01    0.665E-01
RMM:   3    -0.413193234594E+03    0.16108E-02   -0.61963E-03  4394   0.434E-02    0.178E-01
RMM:   4    -0.413198415390E+03   -0.51808E-02   -0.58173E-03  5152   0.677E-02    0.304E-01
RMM:   5    -0.413193227524E+03    0.51879E-02   -0.25154E-03  4800   0.497E-02    0.193E-02
RMM:   6    -0.413193216423E+03    0.11102E-04   -0.40291E-04  5741   0.204E-02    0.123E-02
RMM:   7    -0.413193215507E+03    0.91605E-06   -0.52597E-05  4961   0.744E-03    0.730E-03
RMM:   8    -0.413193210523E+03    0.49835E-05   -0.76112E-06  3168   0.341E-03    0.369E-03
RMM:   9    -0.413193206965E+03    0.35583E-05   -0.15530E-06  2539   0.205E-03    0.185E-03
RMM:  10    -0.413193203531E+03    0.34337E-05   -0.72338E-07  2439   0.134E-03    0.974E-04
RMM:  11    -0.413193200546E+03    0.29851E-05   -0.43037E-07  2166   0.104E-03    0.475E-04
RMM:  12    -0.413193197467E+03    0.30794E-05   -0.28120E-07  1782   0.866E-04    0.167E-04
RMM:  13    -0.413193195956E+03    0.15108E-05   -0.14058E-07  1246   0.700E-04    0.112E-04
RMM:  14    -0.413193194108E+03    0.18477E-05   -0.10601E-07  1185   0.669E-04    0.642E-05
RMM:  15    -0.413193192125E+03    0.19838E-05   -0.82939E-08  1150   0.645E-04    0.409E-05
RMM:  16    -0.413193191375E+03    0.75009E-06   -0.47408E-08   898   0.583E-04
   34 T=    66. E= -.41286656E+03 F= -.41319319E+03 E0= -.41317184E+03  EK= 0.32663E+00 SP= 0.00E+00 SK= 0.00E+00
       N       E                     dE             d eps       ncg     rms          rms(c)
RMM:   1    -0.413188278314E+03    0.49138E-02   -0.12272E+01  4299   0.967E-01    0.943E-01
RMM:   2    -0.413197023480E+03   -0.87452E-02   -0.16133E-01  4256   0.136E-01    0.664E-01
RMM:   3    -0.413195963531E+03    0.10599E-02   -0.65160E-03  4557   0.439E-02    0.189E-01
RMM:   4    -0.413207907165E+03   -0.11944E-01   -0.12381E-02  5165   0.951E-02    0.464E-01
RMM:   5    -0.413195714602E+03    0.12193E-01   -0.62028E-03  4812   0.765E-02    0.254E-02
RMM:   6    -0.413195709814E+03    0.47883E-05   -0.96506E-04  5803   0.299E-02    0.146E-02
RMM:   7    -0.413195709899E+03   -0.84925E-07   -0.11875E-04  5437   0.966E-03    0.997E-03
RMM:   8    -0.413195702749E+03    0.71502E-05   -0.13916E-05  3567   0.384E-03    0.585E-03
RMM:   9    -0.413195695516E+03    0.72328E-05   -0.25925E-06  2627   0.237E-03    0.327E-03
RMM:  10    -0.413195686997E+03    0.85192E-05   -0.11653E-06  2499   0.175E-03    0.149E-03
RMM:  11    -0.413195680699E+03    0.62976E-05   -0.66616E-07  2441   0.131E-03    0.724E-04
RMM:  12    -0.413195675494E+03    0.52053E-05   -0.34281E-07  2176   0.990E-04    0.288E-04
RMM:  13    -0.413195672773E+03    0.27209E-05   -0.16430E-07  1457   0.743E-04    0.175E-04
RMM:  14    -0.413195668625E+03    0.41474E-05   -0.10854E-07  1249   0.682E-04    0.121E-04
RMM:  15    -0.413195664678E+03    0.39475E-05   -0.86099E-08  1253   0.657E-04    0.719E-05
RMM:  16    -0.413195662236E+03    0.24418E-05   -0.56075E-08  1085   0.610E-04    0.604E-05
RMM:  17    -0.413195658847E+03    0.33888E-05   -0.53119E-08  1157   0.607E-04    0.328E-05
RMM:  18    -0.413195657230E+03    0.16170E-05   -0.32725E-08   930   0.556E-04    0.192E-05
RMM:  19    -0.413195657121E+03    0.10946E-06   -0.13764E-08   666   0.515E-04
   35 T=    67. E= -.41286638E+03 F= -.41319566E+03 E0= -.41317435E+03  EK= 0.32928E+00 SP= 0.00E+00 SK= 0.00E+00
       N       E                     dE             d eps       ncg     rms          rms(c)
RMM:   1    -0.413189368996E+03    0.62882E-02   -0.12300E+01  4298   0.966E-01    0.942E-01
RMM:   2    -0.413198919213E+03   -0.95502E-02   -0.15819E-01  4253   0.120E-01    0.657E-01
RMM:   3    -0.413198215676E+03    0.70354E-03   -0.67735E-03  4842   0.444E-02    0.197E-01
RMM:   4    -0.413229952274E+03   -0.31737E-01   -0.32077E-02  5160   0.150E-01    0.743E-01
RMM:   5    -0.413197827550E+03    0.32125E-01   -0.16225E-02  4803   0.124E-01    0.370E-02
RMM:   6    -0.413197890844E+03   -0.63294E-04   -0.25196E-03  5868   0.468E-02    0.180E-02
RMM:   7    -0.413197902257E+03   -0.11413E-04   -0.25525E-04  5758   0.135E-02    0.128E-02
RMM:   8    -0.413197895860E+03    0.63967E-05   -0.32397E-05  4292   0.501E-03    0.905E-03
RMM:   9    -0.413197889802E+03    0.60576E-05   -0.70118E-06  3132   0.314E-03    0.609E-03
RMM:  10    -0.413197878995E+03    0.10807E-04   -0.22866E-06  2554   0.254E-03    0.261E-03
RMM:  11    -0.413197871507E+03    0.74884E-05   -0.13856E-06  2499   0.188E-03    0.144E-03
RMM:  12    -0.413197864519E+03    0.69877E-05   -0.66228E-07  2439   0.143E-03    0.541E-04
RMM:  13    -0.413197861850E+03    0.26694E-05   -0.28705E-07  2106   0.954E-04    0.359E-04
RMM:  14    -0.413197859116E+03    0.27340E-05   -0.13992E-07  1511   0.733E-04    0.208E-04
RMM:  15    -0.413197853193E+03    0.59225E-05   -0.11256E-07  1547   0.712E-04    0.178E-04
RMM:  16    -0.413197852094E+03    0.10997E-05   -0.44757E-08   929   0.582E-04    0.108E-04
RMM:  17    -0.413197848237E+03    0.38569E-05   -0.49681E-08  1114   0.608E-04    0.775E-05
RMM:  18    -0.413197845883E+03    0.23537E-05   -0.35095E-08  1006   0.575E-04    0.262E-05
RMM:  19    -0.413197844870E+03    0.10132E-05   -0.21571E-08   820   0.545E-04    0.320E-05
RMM:  20    -0.413197844554E+03    0.31626E-06   -0.11357E-08   705   0.528E-04
   36 T=    68. E= -.41286626E+03 F= -.41319784E+03 E0= -.41317658E+03  EK= 0.33158E+00 SP= 0.00E+00 SK= 0.00E+00
       N       E                     dE             d eps       ncg     rms          rms(c)
RMM:   1    -0.413190391072E+03    0.74538E-02   -0.12353E+01  4299   0.990E-01    0.925E-01
RMM:   2    -0.413202438761E+03   -0.12048E-01   -0.16492E-01  4254   0.136E-01    0.670E-01
RMM:   3    -0.413201366953E+03    0.10718E-02   -0.66229E-03  4859   0.530E-02    0.210E-01
RMM:   4    -0.413247262916E+03   -0.45896E-01   -0.47219E-02  5150   0.181E-01    0.888E-01
RMM:   5    -0.413200572533E+03    0.46690E-01   -0.23571E-02  4798   0.149E-01    0.419E-02
RMM:   6    -0.413200701531E+03   -0.12900E-03   -0.35308E-03  5856   0.559E-02    0.194E-02
RMM:   7    -0.413200718669E+03   -0.17138E-04   -0.34913E-04  5752   0.157E-02    0.134E-02
RMM:   8    -0.413200717101E+03    0.15684E-05   -0.42812E-05  4207   0.528E-03    0.977E-03
RMM:   9    -0.413200711112E+03    0.59890E-05   -0.94466E-06  3410   0.337E-03    0.630E-03
RMM:  10    -0.413200706000E+03    0.51112E-05   -0.32554E-06  2653   0.273E-03    0.303E-03
RMM:  11    -0.413200701041E+03    0.49598E-05   -0.17028E-06  2510   0.210E-03    0.164E-03
RMM:  12    -0.413200696647E+03    0.43934E-05   -0.80368E-07  2456   0.154E-03    0.592E-04
RMM:  13    -0.413200694594E+03    0.20532E-05   -0.34200E-07  2226   0.103E-03    0.385E-04
RMM:  14    -0.413200692695E+03    0.18989E-05   -0.16481E-07  1613   0.765E-04    0.246E-04
RMM:  15    -0.413200688681E+03    0.40138E-05   -0.13756E-07  1585   0.728E-04    0.188E-04
RMM:  16    -0.413200688095E+03    0.58682E-06   -0.51537E-08   979   0.586E-04
   37 T=    68. E= -.41286649E+03 F= -.41320069E+03 E0= -.41317947E+03  EK= 0.33419E+00 SP= 0.00E+00 SK= 0.00E+00
       N       E                     dE             d eps       ncg     rms          rms(c)
RMM:   1    -0.413195895193E+03    0.47935E-02   -0.12548E+01  4307   0.104E+00    0.947E-01
RMM:   2    -0.413205457541E+03   -0.95623E-02   -0.16447E-01  4249   0.132E-01    0.673E-01
RMM:   3    -0.413204089488E+03    0.13681E-02   -0.67312E-03  4754   0.504E-02    0.203E-01
RMM:   4    -0.413238077776E+03   -0.33988E-01   -0.34266E-02  5154   0.155E-01    0.768E-01
RMM:   5    -0.413203623837E+03    0.34454E-01   -0.17500E-02  4807   0.128E-01    0.368E-02
RMM:   6    -0.413203699389E+03   -0.75552E-04   -0.26607E-03  5844   0.481E-02    0.179E-02
RMM:   7    -0.413203712614E+03   -0.13225E-04   -0.26989E-04  5787   0.139E-02    0.130E-02
RMM:   8    -0.413203707003E+03    0.56106E-05   -0.34385E-05  4321   0.508E-03    0.911E-03
RMM:   9    -0.413203702127E+03    0.48757E-05   -0.73873E-06  3173   0.310E-03    0.622E-03
RMM:  10    -0.413203693025E+03    0.91022E-05   -0.23252E-06  2550   0.249E-03    0.266E-03
RMM:  11    -0.413203686782E+03    0.62431E-05   -0.14637E-06  2501   0.191E-03    0.147E-03
RMM:  12    -0.413203681151E+03    0.56308E-05   -0.69016E-07  2443   0.144E-03    0.549E-04
RMM:  13    -0.413203678915E+03    0.22363E-05   -0.30159E-07  2130   0.972E-04    0.373E-04
RMM:  14    -0.413203676492E+03    0.24226E-05   -0.14841E-07  1560   0.743E-04    0.214E-04
RMM:  15    -0.413203671166E+03    0.53260E-05   -0.12187E-07  1573   0.720E-04    0.181E-04
RMM:  16    -0.413203670248E+03    0.91875E-06   -0.46164E-08   937   0.584E-04
   38 T=    69. E= -.41286688E+03 F= -.41320367E+03 E0= -.41318249E+03  EK= 0.33679E+00 SP= 0.00E+00 SK= 0.00E+00
       N       E                     dE             d eps       ncg     rms          rms(c)
RMM:   1    -0.413202065622E+03    0.16055E-02   -0.12643E+01  4305   0.108E+00    0.959E-01
RMM:   2    -0.413206808193E+03   -0.47426E-02   -0.16855E-01  4262   0.126E-01    0.667E-01
RMM:   3    -0.413206270299E+03    0.53789E-03   -0.72540E-03  4943   0.543E-02    0.228E-01
RMM:   4    -0.413256562135E+03   -0.50292E-01   -0.52949E-02  5138   0.191E-01    0.930E-01
RMM:   5    -0.413205238514E+03    0.51324E-01   -0.25614E-02  4794   0.156E-01    0.463E-02
RMM:   6    -0.413205396869E+03   -0.15836E-03   -0.39782E-03  5843   0.587E-02    0.210E-02
RMM:   7    -0.413205415724E+03   -0.18854E-04   -0.39718E-04  5806   0.166E-02    0.145E-02
RMM:   8    -0.413205412560E+03    0.31641E-05   -0.51224E-05  4490   0.572E-03    0.109E-02
RMM:   9    -0.413205403494E+03    0.90654E-05   -0.10276E-05  3454   0.342E-03    0.720E-03
RMM:  10    -0.413205392496E+03    0.10998E-04   -0.34004E-06  2644   0.287E-03    0.324E-03
RMM:  11    -0.413205383850E+03    0.86454E-05   -0.17369E-06  2514   0.214E-03    0.181E-03
RMM:  12    -0.413205375359E+03    0.84919E-05   -0.88014E-07  2464   0.165E-03    0.599E-04
RMM:  13    -0.413205371486E+03    0.38721E-05   -0.36725E-07  2271   0.109E-03    0.432E-04
RMM:  14    -0.413205368313E+03    0.31738E-05   -0.17921E-07  1746   0.790E-04    0.322E-04
RMM:  15    -0.413205359850E+03    0.84631E-05   -0.15639E-07  1859   0.774E-04    0.277E-04
RMM:  16    -0.413205359335E+03    0.51459E-06   -0.52429E-08   997   0.572E-04
   39 T=    69. E= -.41286632E+03 F= -.41320536E+03 E0= -.41318422E+03  EK= 0.33904E+00 SP= 0.00E+00 SK= 0.00E+00
       N       E                     dE             d eps       ncg     rms          rms(c)
RMM:   1    -0.413200996441E+03    0.43634E-02   -0.12630E+01  4309   0.113E+00    0.936E-01
RMM:   2    -0.413210357364E+03   -0.93609E-02   -0.16972E-01  4260   0.136E-01    0.673E-01
RMM:   3    -0.413209601225E+03    0.75614E-03   -0.69277E-03  4983   0.530E-02    0.234E-01
RMM:   4    -0.413263688821E+03   -0.54088E-01   -0.58048E-02  5137   0.200E-01    0.964E-01
RMM:   5    -0.413208360600E+03    0.55328E-01   -0.27271E-02  4785   0.162E-01    0.485E-02
RMM:   6    -0.413208555399E+03   -0.19480E-03   -0.44577E-03  5827   0.610E-02    0.204E-02
RMM:   7    -0.413208580570E+03   -0.25171E-04   -0.43977E-04  5852   0.173E-02    0.146E-02
RMM:   8    -0.413208580431E+03    0.13844E-06   -0.58232E-05  4683   0.614E-03    0.113E-02
RMM:   9    -0.413208573213E+03    0.72184E-05   -0.10520E-05  3451   0.346E-03    0.739E-03
RMM:  10    -0.413208565424E+03    0.77889E-05   -0.35908E-06  2662   0.292E-03    0.330E-03
RMM:  11    -0.413208559827E+03    0.55967E-05   -0.18182E-06  2514   0.216E-03    0.186E-03
RMM:  12    -0.413208554202E+03    0.56255E-05   -0.95741E-07  2473   0.167E-03    0.626E-04
RMM:  13    -0.413208551801E+03    0.24006E-05   -0.39780E-07  2283   0.111E-03    0.448E-04
RMM:  14    -0.413208549622E+03    0.21790E-05   -0.20218E-07  1809   0.813E-04    0.322E-04
RMM:  15    -0.413208543762E+03    0.58601E-05   -0.17765E-07  1847   0.784E-04    0.276E-04
RMM:  16    -0.413208543427E+03    0.33490E-06   -0.61082E-08  1040   0.586E-04
   40 T=    70. E= -.41286691E+03 F= -.41320854E+03 E0= -.41318744E+03  EK= 0.34163E+00 SP= 0.00E+00 SK= 0.00E+00
       N       E                     dE             d eps       ncg     rms          rms(c)
RMM:   1    -0.413203948260E+03    0.45955E-02   -0.12809E+01  4304   0.118E+00    0.949E-01
RMM:   2    -0.413211478333E+03   -0.75301E-02   -0.17464E-01  4269   0.140E-01    0.683E-01
RMM:   3    -0.413211313612E+03    0.16472E-03   -0.74809E-03  5043   0.563E-02    0.258E-01
RMM:   4    -0.413267106990E+03   -0.55793E-01   -0.62874E-02  5128   0.208E-01    0.983E-01
RMM:   5    -0.413209538194E+03    0.57569E-01   -0.27864E-02  4772   0.166E-01    0.517E-02
RMM:   6    -0.413209740717E+03   -0.20252E-03   -0.45754E-03  5822   0.621E-02    0.200E-02
RMM:   7    -0.413209767055E+03   -0.26339E-04   -0.46748E-04  5926   0.180E-02    0.153E-02
RMM:   8    -0.413209767413E+03   -0.35790E-06   -0.65038E-05  4878   0.661E-03    0.115E-02
RMM:   9    -0.413209759439E+03    0.79743E-05   -0.93534E-06  3264   0.345E-03    0.690E-03
RMM:  10    -0.413209751518E+03    0.79212E-05   -0.38001E-06  2693   0.297E-03    0.300E-03
RMM:  11    -0.413209745609E+03    0.59093E-05   -0.17300E-06  2514   0.214E-03    0.147E-03
RMM:  12    -0.413209740394E+03    0.52148E-05   -0.86662E-07  2458   0.158E-03    0.584E-04
RMM:  13    -0.413209738084E+03    0.23097E-05   -0.37130E-07  2229   0.106E-03    0.425E-04
RMM:  14    -0.413209735005E+03    0.30795E-05   -0.20546E-07  1769   0.814E-04    0.307E-04
RMM:  15    -0.413209730424E+03    0.45809E-05   -0.14855E-07  1536   0.733E-04    0.167E-04
RMM:  16    -0.413209729195E+03    0.12289E-05   -0.68991E-08  1047   0.609E-04    0.845E-05
RMM:  17    -0.413209726900E+03    0.22949E-05   -0.59173E-08  1053   0.607E-04    0.469E-05
RMM:  18    -0.413209723133E+03    0.37667E-05   -0.65548E-08  1221   0.635E-04    0.454E-05
RMM:  19    -0.413209722660E+03    0.47294E-06   -0.25337E-08   805   0.558E-04
   41 T=    70. E= -.41286623E+03 F= -.41320972E+03 E0= -.41318865E+03  EK= 0.34349E+00 SP= 0.00E+00 SK= 0.00E+00
       N       E                     dE             d eps       ncg     rms          rms(c)
RMM:   1    -0.413212931352E+03   -0.32082E-02   -0.12946E+01  4308   0.126E+00    0.972E-01
RMM:   2    -0.413213026499E+03   -0.95147E-04   -0.17860E-01  4295   0.146E-01    0.675E-01
RMM:   3    -0.413216127719E+03   -0.31012E-02   -0.99981E-03  5128   0.736E-02    0.338E-01
RMM:   4    -0.413249209042E+03   -0.33081E-01   -0.49351E-02  5089   0.186E-01    0.803E-01
RMM:   5    -0.413212206745E+03    0.37002E-01   -0.16588E-02  4731   0.134E-01    0.488E-02
RMM:   6    -0.413212256620E+03   -0.49875E-04   -0.26933E-03  5752   0.491E-02    0.175E-02
RMM:   7    -0.413212268987E+03   -0.12368E-04   -0.31082E-04  5902   0.153E-02    0.137E-02
RMM:   8    -0.413212266674E+03    0.23134E-05   -0.46244E-05  4717   0.584E-03    0.918E-03
RMM:   9    -0.413212255402E+03    0.11272E-04   -0.66906E-06  3064   0.358E-03    0.450E-03
RMM:  10    -0.413212245193E+03    0.10209E-04   -0.26591E-06  2578   0.256E-03    0.231E-03
RMM:  11    -0.413212237234E+03    0.79588E-05   -0.99673E-07  2508   0.163E-03    0.943E-04
RMM:  12    -0.413212232307E+03    0.49269E-05   -0.39929E-07  2296   0.109E-03    0.520E-04
RMM:  13    -0.413212227103E+03    0.52037E-05   -0.25204E-07  1694   0.857E-04    0.244E-04
RMM:  14    -0.413212223293E+03    0.38100E-05   -0.15855E-07  1381   0.744E-04    0.146E-04
RMM:  15    -0.413212218414E+03    0.48795E-05   -0.12501E-07  1374   0.709E-04    0.104E-04
RMM:  16    -0.413212213580E+03    0.48341E-05   -0.97403E-08  1377   0.672E-04    0.544E-05
RMM:  17    -0.413212209880E+03    0.37001E-05   -0.73832E-08  1277   0.621E-04    0.504E-05
RMM:  18    -0.413212208490E+03    0.13893E-05   -0.43398E-08   950   0.553E-04    0.341E-05
RMM:  19    -0.413212207685E+03    0.80584E-06   -0.31899E-08   871   0.536E-04
   42 T=    70. E= -.41286679E+03 F= -.41321221E+03 E0= -.41319117E+03  EK= 0.34542E+00 SP= 0.00E+00 SK= 0.00E+00
       N       E                     dE             d eps       ncg     rms          rms(c)
RMM:   1    -0.413212492663E+03   -0.28417E-03   -0.12894E+01  4310   0.133E+00    0.947E-01
RMM:   2    -0.413214859674E+03   -0.23670E-02   -0.17773E-01  4305   0.155E-01    0.676E-01
RMM:   3    -0.413219050495E+03   -0.41908E-02   -0.10864E-02  5109   0.827E-02    0.373E-01
RMM:   4    -0.413246415249E+03   -0.27365E-01   -0.47241E-02  5063   0.184E-01    0.757E-01
RMM:   5    -0.413213875205E+03    0.32540E-01   -0.14135E-02  4705   0.127E-01    0.476E-02
RMM:   6    -0.413213900319E+03   -0.25114E-04   -0.23814E-03  5727   0.461E-02    0.164E-02
RMM:   7    -0.413213910279E+03   -0.99601E-05   -0.27111E-04  5878   0.146E-02    0.131E-02
RMM:   8    -0.413213908157E+03    0.21212E-05   -0.40530E-05  4614   0.560E-03    0.849E-03
RMM:   9    -0.413213898938E+03    0.92199E-05   -0.66232E-06  3105   0.372E-03    0.424E-03
RMM:  10    -0.413213891394E+03    0.75438E-05   -0.25244E-06  2572   0.256E-03    0.239E-03
RMM:  11    -0.413213885825E+03    0.55687E-05   -0.10336E-06  2514   0.164E-03    0.998E-04
RMM:  12    -0.413213882593E+03    0.32320E-05   -0.43427E-07  2336   0.111E-03    0.547E-04
RMM:  13    -0.413213878274E+03    0.43188E-05   -0.31223E-07  1808   0.920E-04    0.285E-04
RMM:  14    -0.413213876079E+03    0.21947E-05   -0.17847E-07  1380   0.753E-04    0.153E-04
RMM:  15    -0.413213872604E+03    0.34758E-05   -0.13885E-07  1285   0.713E-04    0.103E-04
RMM:  16    -0.413213869008E+03    0.35957E-05   -0.10943E-07  1263   0.684E-04    0.490E-05
RMM:  17    -0.413213866109E+03    0.28985E-05   -0.87521E-08  1290   0.648E-04    0.461E-05
RMM:  18    -0.413213864580E+03    0.15295E-05   -0.53126E-08  1012   0.580E-04    0.336E-05
RMM:  19    -0.413213863457E+03    0.11228E-05   -0.38014E-08   878   0.548E-04    0.174E-05
RMM:  20    -0.413213863110E+03    0.34683E-06   -0.22767E-08   756   0.528E-04
   43 T=    71. E= -.41286685E+03 F= -.41321386E+03 E0= -.41319285E+03  EK= 0.34701E+00 SP= 0.00E+00 SK= 0.00E+00
       N       E                     dE             d eps       ncg     rms          rms(c)
RMM:   1    -0.413246880856E+03   -0.33017E-01   -0.13357E+01  4311   0.153E+00    0.950E-01
RMM:   2    -0.413215753403E+03    0.31127E-01   -0.19959E-01  4305   0.175E-01    0.692E-01
RMM:   3    -0.413221570427E+03   -0.58170E-02   -0.12381E-02  5104   0.934E-02    0.424E-01
RMM:   4    -0.413244392501E+03   -0.22822E-01   -0.47399E-02  5056   0.185E-01    0.730E-01
RMM:   5    -0.413214499003E+03    0.29893E-01   -0.12757E-02  4677   0.125E-01    0.492E-02
RMM:   6    -0.413214500648E+03   -0.16454E-05   -0.21852E-03  5665   0.445E-02    0.169E-02
RMM:   7    -0.413214509394E+03   -0.87455E-05   -0.25624E-04  5895   0.145E-02    0.134E-02
RMM:   8    -0.413214507205E+03    0.21889E-05   -0.38271E-05  4627   0.555E-03    0.855E-03
RMM:   9    -0.413214499181E+03    0.80236E-05   -0.75008E-06  3237   0.408E-03    0.441E-03
RMM:  10    -0.413214493099E+03    0.60818E-05   -0.27338E-06  2604   0.268E-03    0.264E-03
RMM:  11    -0.413214488836E+03    0.42634E-05   -0.12105E-06  2522   0.176E-03    0.109E-03
RMM:  12    -0.413214486430E+03    0.24056E-05   -0.50839E-07  2423   0.121E-03    0.625E-04
RMM:  13    -0.413214482742E+03    0.36888E-05   -0.39804E-07  2023   0.100E-03    0.404E-04
RMM:  14    -0.413214481232E+03    0.15095E-05   -0.19933E-07  1463   0.776E-04    0.209E-04
RMM:  15    -0.413214478666E+03    0.25664E-05   -0.15066E-07  1286   0.720E-04    0.133E-04
RMM:  16    -0.413214475702E+03    0.29640E-05   -0.12210E-07  1247   0.690E-04    0.577E-05
RMM:  17    -0.413214473941E+03    0.17612E-05   -0.78675E-08  1095   0.638E-04    0.458E-05
RMM:  18    -0.413214471966E+03    0.19741E-05   -0.65609E-08  1107   0.617E-04    0.404E-05
RMM:  19    -0.413214470914E+03    0.10525E-05   -0.43832E-08   953   0.572E-04    0.359E-05
RMM:  20    -0.413214470604E+03    0.30985E-06   -0.24246E-08   751   0.537E-04
   44 T=    71. E= -.41286649E+03 F= -.41321447E+03 E0= -.41319349E+03  EK= 0.34798E+00 SP= 0.00E+00 SK= 0.00E+00
       N       E                     dE             d eps       ncg     rms          rms(c)
RMM:   1    -0.413242590444E+03   -0.28120E-01   -0.13369E+01  4307   0.158E+00    0.978E-01
RMM:   2    -0.413216125212E+03    0.26465E-01   -0.19441E-01  4370   0.182E-01    0.683E-01
RMM:   3    -0.413229215519E+03   -0.13090E-01   -0.18781E-02  5141   0.119E-01    0.542E-01
RMM:   4    -0.413230746422E+03   -0.15309E-02   -0.37232E-02  5010   0.168E-01    0.538E-01
RMM:   5    -0.413215910529E+03    0.14836E-01   -0.57606E-03  4560   0.942E-02    0.422E-02
RMM:   6    -0.413215861543E+03    0.48986E-04   -0.97923E-04  5292   0.310E-02    0.154E-02
RMM:   7    -0.413215861246E+03    0.29685E-06   -0.10799E-04  5635   0.998E-03    0.115E-02
RMM:   8    -0.413215857371E+03    0.38746E-05   -0.22939E-05  4523   0.471E-03    0.768E-03
RMM:   9    -0.413215841675E+03    0.15697E-04   -0.64947E-06  3175   0.409E-03    0.416E-03
RMM:  10    -0.413215834532E+03    0.71422E-05   -0.13936E-06  2527   0.216E-03    0.178E-03
RMM:  11    -0.413215828273E+03    0.62598E-05   -0.92357E-07  2496   0.151E-03    0.811E-04
RMM:  12    -0.413215823552E+03    0.47207E-05   -0.42575E-07  2387   0.112E-03    0.489E-04
RMM:  13    -0.413215818465E+03    0.50864E-05   -0.24520E-07  1691   0.837E-04    0.275E-04
RMM:  14    -0.413215815415E+03    0.30505E-05   -0.13189E-07  1199   0.696E-04    0.176E-04
RMM:  15    -0.413215810721E+03    0.46935E-05   -0.10747E-07  1242   0.683E-04    0.815E-05
RMM:  16    -0.413215806447E+03    0.42741E-05   -0.89428E-08  1271   0.653E-04    0.105E-04
RMM:  17    -0.413215804179E+03    0.22687E-05   -0.52795E-08   983   0.574E-04    0.627E-05
RMM:  18    -0.413215800781E+03    0.33981E-05   -0.54298E-08  1089   0.585E-04    0.410E-05
RMM:  19    -0.413215800563E+03    0.21801E-06   -0.19524E-08   652   0.508E-04
   45 T=    71. E= -.41286685E+03 F= -.41321580E+03 E0= -.41319484E+03  EK= 0.34895E+00 SP= 0.00E+00 SK= 0.00E+00
       N       E                     dE             d eps       ncg     rms          rms(c)
RMM:   1    -0.413239299261E+03   -0.23498E-01   -0.13245E+01  4307   0.166E+00    0.958E-01
RMM:   2    -0.413215944154E+03    0.23355E-01   -0.18674E-01  4382   0.191E-01    0.679E-01
RMM:   3    -0.413231464129E+03   -0.15520E-01   -0.20841E-02  5140   0.127E-01    0.579E-01
RMM:   4    -0.413228420804E+03    0.30433E-02   -0.36759E-02  4990   0.168E-01    0.501E-01
RMM:   5    -0.413215681911E+03    0.12739E-01   -0.49912E-03  4546   0.908E-02    0.422E-02
RMM:   6    -0.413215612891E+03    0.69020E-04   -0.75814E-04  5064   0.284E-02    0.151E-02
RMM:   7    -0.413215614145E+03   -0.12541E-05   -0.94510E-05  5642   0.912E-03    0.992E-03
RMM:   8    -0.413215607456E+03    0.66888E-05   -0.17238E-05  4224   0.477E-03    0.611E-03
RMM:   9    -0.413215596681E+03    0.10775E-04   -0.70337E-06  3284   0.360E-03    0.412E-03
RMM:  10    -0.413215592188E+03    0.44935E-05   -0.17403E-06  2511   0.221E-03    0.161E-03
RMM:  11    -0.413215587067E+03    0.51212E-05   -0.11190E-06  2448   0.170E-03    0.952E-04
RMM:  12    -0.413215583042E+03    0.40250E-05   -0.49573E-07  2338   0.124E-03    0.619E-04
RMM:  13    -0.413215578716E+03    0.43254E-05   -0.24635E-07  1774   0.870E-04    0.325E-04
RMM:  14    -0.413215575695E+03    0.30210E-05   -0.12977E-07  1212   0.687E-04    0.195E-04
RMM:  15    -0.413215570770E+03    0.49256E-05   -0.11950E-07  1334   0.682E-04    0.116E-04
RMM:  16    -0.413215567253E+03    0.35163E-05   -0.74936E-08  1039   0.599E-04    0.119E-04
RMM:  17    -0.413215563990E+03    0.32635E-05   -0.59882E-08   979   0.573E-04    0.568E-05
RMM:  18    -0.413215561913E+03    0.20765E-05   -0.38304E-08   848   0.543E-04    0.337E-05
RMM:  19    -0.413215560809E+03    0.11042E-05   -0.22062E-08   697   0.520E-04    0.258E-05
RMM:  20    -0.413215560263E+03    0.54630E-06   -0.12976E-08   588   0.503E-04
   46 T=    71. E= -.41286669E+03 F= -.41321556E+03 E0= -.41319461E+03  EK= 0.34887E+00 SP= 0.00E+00 SK= 0.00E+00
       N       E                     dE             d eps       ncg     rms          rms(c)
RMM:   1    -0.413261502126E+03   -0.45941E-01   -0.13526E+01  4310   0.182E+00    0.944E-01
RMM:   2    -0.413215313415E+03    0.46189E-01   -0.22500E-01  4408   0.213E-01    0.696E-01
RMM:   3    -0.413229927376E+03   -0.14614E-01   -0.20231E-02  5144   0.127E-01    0.599E-01
RMM:   4    -0.413228855593E+03    0.10718E-02   -0.38880E-02  5005   0.173E-01    0.546E-01
RMM:   5    -0.413214391527E+03    0.14464E-01   -0.63416E-03  4546   0.990E-02    0.476E-02
RMM:   6    -0.413214311653E+03    0.79874E-04   -0.93421E-04  5137   0.317E-02    0.170E-02
RMM:   7    -0.413214312766E+03   -0.11128E-05   -0.12426E-04  5791   0.104E-02    0.120E-02
RMM:   8    -0.413214310832E+03    0.19337E-05   -0.26682E-05  4740   0.495E-03    0.847E-03
RMM:   9    -0.413214299641E+03    0.11191E-04   -0.10953E-05  3840   0.460E-03    0.510E-03
RMM:  10    -0.413214294677E+03    0.49637E-05   -0.20044E-06  2521   0.236E-03    0.235E-03
RMM:  11    -0.413214290723E+03    0.39547E-05   -0.18160E-06  2554   0.200E-03    0.128E-03
RMM:  12    -0.413214288120E+03    0.26032E-05   -0.53948E-07  2408   0.136E-03    0.769E-04
RMM:  13    -0.413214285716E+03    0.24036E-05   -0.27298E-07  1982   0.910E-04    0.415E-04
RMM:  14    -0.413214283126E+03    0.25900E-05   -0.16130E-07  1281   0.712E-04    0.217E-04
RMM:  15    -0.413214280426E+03    0.27000E-05   -0.12352E-07  1189   0.667E-04    0.990E-05
RMM:  16    -0.413214278115E+03    0.23109E-05   -0.95044E-08  1137   0.633E-04    0.968E-05
RMM:  17    -0.413214276304E+03    0.18108E-05   -0.66865E-08  1043   0.590E-04    0.101E-04
RMM:  18    -0.413214275081E+03    0.12237E-05   -0.39709E-08   814   0.539E-04    0.441E-05
RMM:  19    -0.413214274596E+03    0.48416E-06   -0.21926E-08   679   0.516E-04
   47 T=    71. E= -.41286673E+03 F= -.41321427E+03 E0= -.41319334E+03  EK= 0.34755E+00 SP= 0.00E+00 SK= 0.00E+00
       N       E                     dE             d eps       ncg     rms          rms(c)
RMM:   1    -0.413262625970E+03   -0.48351E-01   -0.13518E+01  4306   0.195E+00    0.972E-01
RMM:   2    -0.413211922424E+03    0.50704E-01   -0.20543E-01  4506   0.209E-01    0.687E-01
RMM:   3    -0.413238313025E+03   -0.26391E-01   -0.30894E-02  5162   0.158E-01    0.732E-01
RMM:   4    -0.413219247783E+03    0.19065E-01   -0.37455E-02  4950   0.175E-01    0.415E-01
RMM:   5    -0.413211777560E+03    0.74702E-02   -0.43889E-03  4621   0.889E-02    0.557E-02
RMM:   6    -0.413211585571E+03    0.19199E-03   -0.43502E-04  4674   0.281E-02    0.209E-02
RMM:   7    -0.413211585385E+03    0.18533E-06   -0.10275E-04  5763   0.103E-02    0.135E-02
RMM:   8    -0.413211578327E+03    0.70577E-05   -0.16485E-05  4083   0.438E-03    0.986E-03
RMM:   9    -0.413211563498E+03    0.14830E-04   -0.70750E-06  3237   0.404E-03    0.483E-03
RMM:  10    -0.413211555054E+03    0.84436E-05   -0.30068E-06  2688   0.280E-03    0.213E-03
RMM:  11    -0.413211548120E+03    0.69348E-05   -0.20686E-06  2558   0.225E-03    0.138E-03
RMM:  12    -0.413211543213E+03    0.49066E-05   -0.74689E-07  2435   0.153E-03    0.771E-04
RMM:  13    -0.413211539594E+03    0.36190E-05   -0.34814E-07  2232   0.100E-03    0.464E-04
RMM:  14    -0.413211535021E+03    0.45728E-05   -0.20017E-07  1608   0.768E-04    0.219E-04
RMM:  15    -0.413211529500E+03    0.55209E-05   -0.16358E-07  1524   0.730E-04    0.159E-04
RMM:  16    -0.413211527016E+03    0.24839E-05   -0.82764E-08  1113   0.611E-04    0.116E-04
RMM:  17    -0.413211523728E+03    0.32887E-05   -0.69769E-08  1086   0.602E-04    0.543E-05
RMM:  18    -0.413211521777E+03    0.19510E-05   -0.45595E-08   964   0.572E-04    0.302E-05
RMM:  19    -0.413211520707E+03    0.10699E-05   -0.26614E-08   829   0.549E-04    0.268E-05
RMM:  20    -0.413211519851E+03    0.85575E-06   -0.19170E-08   764   0.540E-04
   48 T=    70. E= -.41286681E+03 F= -.41321152E+03 E0= -.41319060E+03  EK= 0.34471E+00 SP= 0.00E+00 SK= 0.00E+00
       N       E                     dE             d eps       ncg     rms          rms(c)
RMM:   1    -0.413257022822E+03   -0.45502E-01   -0.13295E+01  4304   0.206E+00    0.958E-01
RMM:   2    -0.413206456704E+03    0.50566E-01   -0.20539E-01  4533   0.222E-01    0.676E-01
RMM:   3    -0.413238444337E+03   -0.31988E-01   -0.35952E-02  5170   0.170E-01    0.798E-01
RMM:   4    -0.413211690466E+03    0.26754E-01   -0.37457E-02  4927   0.177E-01    0.375E-01
RMM:   5    -0.413206630851E+03    0.50596E-02   -0.50338E-03  4895   0.925E-02    0.705E-02
RMM:   6    -0.413206310690E+03    0.32016E-03   -0.58927E-04  4699   0.331E-02    0.251E-02
RMM:   7    -0.413206306818E+03    0.38721E-05   -0.13127E-04  5718   0.122E-02    0.152E-02
[...]
RMM:  12    -0.413161415818E+03   -0.10197E-04   -0.11167E-06  2508   0.150E-03    0.664E-04
RMM:  13    -0.413161420241E+03   -0.44225E-05   -0.46874E-07  2140   0.106E-03    0.404E-04
RMM:  14    -0.413161423145E+03   -0.29049E-05   -0.25810E-07  1688   0.829E-04    0.248E-04
RMM:  15    -0.413161428193E+03   -0.50477E-05   -0.30925E-07  1738   0.831E-04    0.204E-04
RMM:  16    -0.413161431990E+03   -0.37966E-05   -0.23555E-07  1591   0.749E-04    0.172E-04
RMM:  17    -0.413161433194E+03   -0.12039E-05   -0.10303E-07  1113   0.603E-04    0.115E-04
RMM:  18    -0.413161434964E+03   -0.17699E-05   -0.10642E-07  1266   0.629E-04    0.309E-05
RMM:  19    -0.413161435472E+03   -0.50890E-06   -0.51014E-08   952   0.540E-04
  139 T=    60. E= -.41286625E+03 F= -.41316144E+03 E0= -.41314074E+03  EK= 0.29519E+00 SP= 0.00E+00 SK= 0.00E+00
       N       E                     dE             d eps       ncg     rms          rms(c)
RMM:   1    -0.413159465171E+03    0.19698E-02   -0.87967E+00  4264   0.776E-01    0.859E-01
RMM:   2    -0.413164692252E+03   -0.52271E-02   -0.10126E-01  4302   0.888E-02    0.616E-01
RMM:   3    -0.413161934191E+03    0.27581E-02   -0.13595E-02  4946   0.453E-02    0.106E-01
RMM:   4    -0.413186340720E+03   -0.24407E-01   -0.26138E-02  5136   0.135E-01    0.654E-01
RMM:   5    -0.413161501143E+03    0.24840E-01   -0.12163E-02  4806   0.109E-01    0.515E-02
RMM:   6    -0.413161533769E+03   -0.32626E-04   -0.21700E-03  5688   0.443E-02    0.317E-02
RMM:   7    -0.413161559599E+03   -0.25830E-04   -0.35824E-04  5805   0.162E-02    0.169E-02
RMM:   8    -0.413161564187E+03   -0.45878E-05   -0.49554E-05  5153   0.752E-03    0.818E-03
RMM:   9    -0.413161567176E+03   -0.29891E-05   -0.73891E-06  3207   0.320E-03    0.469E-03
RMM:  10    -0.413161575148E+03   -0.79720E-05   -0.21739E-06  2565   0.217E-03    0.284E-03
RMM:  11    -0.413161582237E+03   -0.70884E-05   -0.12094E-06  2507   0.167E-03    0.132E-03
RMM:  12    -0.413161589303E+03   -0.70666E-05   -0.97498E-07  2458   0.141E-03    0.623E-04
RMM:  13    -0.413161592912E+03   -0.36091E-05   -0.45128E-07  2094   0.103E-03    0.369E-04
RMM:  14    -0.413161595037E+03   -0.21252E-05   -0.24150E-07  1630   0.808E-04    0.234E-04
RMM:  15    -0.413161599392E+03   -0.43545E-05   -0.31624E-07  1747   0.831E-04    0.208E-04
RMM:  16    -0.413161601960E+03   -0.25683E-05   -0.19645E-07  1448   0.706E-04    0.167E-04
RMM:  17    -0.413161602996E+03   -0.10360E-05   -0.10370E-07  1116   0.603E-04    0.106E-04
RMM:  18    -0.413161604541E+03   -0.15444E-05   -0.10842E-07  1221   0.626E-04    0.352E-05
RMM:  19    -0.413161604826E+03   -0.28541E-06   -0.45196E-08   875   0.546E-04
  140 T=    60. E= -.41286616E+03 F= -.41316160E+03 E0= -.41314092E+03  EK= 0.29544E+00 SP= 0.00E+00 SK= 0.00E+00
       N       E                     dE             d eps       ncg     rms          rms(c)
RMM:   1    -0.413158264996E+03    0.33395E-02   -0.90569E+00  4264   0.789E-01    0.866E-01
RMM:   2    -0.413163525501E+03   -0.52605E-02   -0.10327E-01  4302   0.895E-02    0.607E-01
RMM:   3    -0.413161292602E+03    0.22329E-02   -0.11702E-02  4850   0.405E-02    0.996E-02
RMM:   4    -0.413175500806E+03   -0.14208E-01   -0.14837E-02  5161   0.102E-01    0.501E-01
RMM:   5    -0.413161148765E+03    0.14352E-01   -0.72448E-03  4827   0.836E-02    0.463E-02
RMM:   6    -0.413161157660E+03   -0.88947E-05   -0.13635E-03  5660   0.358E-02    0.313E-02
RMM:   7    -0.413161164135E+03   -0.64747E-05   -0.26969E-04  5624   0.144E-02    0.145E-02
RMM:   8    -0.413161165552E+03   -0.14176E-05   -0.37431E-05  4960   0.664E-03    0.753E-03
RMM:   9    -0.413161166975E+03   -0.14233E-05   -0.45511E-06  2910   0.266E-03    0.432E-03
RMM:  10    -0.413161172115E+03   -0.51395E-05   -0.18702E-06  2537   0.206E-03    0.243E-03
RMM:  11    -0.413161176433E+03   -0.43181E-05   -0.10770E-06  2500   0.155E-03    0.114E-03
RMM:  12    -0.413161180154E+03   -0.37207E-05   -0.76089E-07  2320   0.126E-03    0.554E-04
RMM:  13    -0.413161183033E+03   -0.28792E-05   -0.46487E-07  2038   0.992E-04    0.317E-04
RMM:  14    -0.413161184655E+03   -0.16222E-05   -0.24391E-07  1553   0.784E-04    0.220E-04
RMM:  15    -0.413161187660E+03   -0.30051E-05   -0.35994E-07  1725   0.834E-04    0.169E-04
RMM:  16    -0.413161189284E+03   -0.16241E-05   -0.20464E-07  1465   0.703E-04    0.133E-04
RMM:  17    -0.413161189779E+03   -0.49412E-06   -0.89014E-08  1008   0.571E-04
  141 T=    60. E= -.41286605E+03 F= -.41316119E+03 E0= -.41314051E+03  EK= 0.29514E+00 SP= 0.00E+00 SK= 0.00E+00
       N       E                     dE             d eps       ncg     rms          rms(c)
RMM:   1    -0.413157591567E+03    0.35977E-02   -0.92764E+00  4264   0.804E-01    0.845E-01
RMM:   2    -0.413164371057E+03   -0.67795E-02   -0.10731E-01  4301   0.921E-02    0.608E-01
RMM:   3    -0.413161990955E+03    0.23801E-02   -0.10426E-02  4709   0.391E-02    0.875E-02
RMM:   4    -0.413167658770E+03   -0.56678E-02   -0.61544E-03  5163   0.663E-02    0.319E-01
RMM:   5    -0.413161954985E+03    0.57038E-02   -0.29595E-03  4837   0.537E-02    0.398E-02
RMM:   6    -0.413161949024E+03    0.59609E-05   -0.61853E-04  5555   0.253E-02    0.278E-02
RMM:   7    -0.413161964993E+03   -0.15969E-04   -0.18229E-04  5378   0.114E-02    0.127E-02
RMM:   8    -0.413161967686E+03   -0.26933E-05   -0.24447E-05  4712   0.556E-03    0.653E-03
RMM:   9    -0.413161970922E+03   -0.32359E-05   -0.29285E-06  2658   0.213E-03    0.331E-03
RMM:  10    -0.413161981009E+03   -0.10087E-04   -0.14246E-06  2518   0.175E-03    0.173E-03
RMM:  11    -0.413161988436E+03   -0.74268E-05   -0.77201E-07  2370   0.131E-03    0.838E-04
RMM:  12    -0.413161995315E+03   -0.68789E-05   -0.58630E-07  2111   0.108E-03    0.389E-04
RMM:  13    -0.413162001311E+03   -0.59968E-05   -0.42665E-07  1852   0.909E-04    0.251E-04
RMM:  14    -0.413162004747E+03   -0.34352E-05   -0.23892E-07  1474   0.757E-04    0.207E-04
RMM:  15    -0.413162009114E+03   -0.43676E-05   -0.29893E-07  1674   0.790E-04    0.111E-04
RMM:  16    -0.413162011436E+03   -0.23215E-05   -0.16543E-07  1335   0.662E-04    0.761E-05
RMM:  17    -0.413162012059E+03   -0.62382E-06   -0.75715E-08   978   0.557E-04
  142 T=    60. E= -.41286636E+03 F= -.41316201E+03 E0= -.41314135E+03  EK= 0.29565E+00 SP= 0.00E+00 SK= 0.00E+00
       N       E                     dE             d eps       ncg     rms          rms(c)
RMM:   1    -0.413156790336E+03    0.52211E-02   -0.95903E+00  4264   0.815E-01    0.855E-01
RMM:   2    -0.413164240726E+03   -0.74504E-02   -0.11077E-01  4302   0.938E-02    0.613E-01
RMM:   3    -0.413161961621E+03    0.22791E-02   -0.94596E-03  4608   0.381E-02    0.932E-02
RMM:   4    -0.413162660872E+03   -0.69925E-03   -0.13446E-03  5168   0.313E-02    0.115E-01
RMM:   5    -0.413161981236E+03    0.67964E-03   -0.43809E-04  4884   0.214E-02    0.382E-02
RMM:   6    -0.413161964027E+03    0.17209E-04   -0.22691E-04  5254   0.158E-02    0.256E-02
RMM:   7    -0.413161984617E+03   -0.20589E-04   -0.13602E-04  5030   0.903E-03    0.138E-02
RMM:   8    -0.413161983126E+03    0.14910E-05   -0.10915E-05  3781   0.424E-03    0.669E-03
RMM:   9    -0.413161986292E+03   -0.31660E-05   -0.37763E-06  2526   0.213E-03    0.255E-03
RMM:  10    -0.413161997188E+03   -0.10897E-04   -0.19483E-06  2548   0.188E-03    0.120E-03
RMM:  11    -0.413162005647E+03   -0.84583E-05   -0.96512E-07  2398   0.141E-03    0.614E-04
RMM:  12    -0.413162010185E+03   -0.45380E-05   -0.41403E-07  1930   0.962E-04    0.442E-04
RMM:  13    -0.413162015686E+03   -0.55016E-05   -0.33402E-07  1616   0.810E-04    0.282E-04
RMM:  14    -0.413162020427E+03   -0.47411E-05   -0.29381E-07  1562   0.764E-04    0.154E-04
RMM:  15    -0.413162022535E+03   -0.21075E-05   -0.12965E-07  1164   0.621E-04    0.918E-05
RMM:  16    -0.413162025098E+03   -0.25633E-05   -0.15765E-07  1324   0.649E-04    0.463E-05
RMM:  17    -0.413162025898E+03   -0.80013E-06   -0.55847E-08   832   0.525E-04
  143 T=    60. E= -.41286608E+03 F= -.41316203E+03 E0= -.41314137E+03  EK= 0.29595E+00 SP= 0.00E+00 SK= 0.00E+00
       N       E                     dE             d eps       ncg     rms          rms(c)
RMM:   1    -0.413156313956E+03    0.57111E-02   -0.98228E+00  4264   0.827E-01    0.872E-01
RMM:   2    -0.413163545721E+03   -0.72318E-02   -0.11169E-01  4299   0.949E-02    0.604E-01
RMM:   3    -0.413161962749E+03    0.15830E-02   -0.86367E-03  4631   0.370E-02    0.116E-01
RMM:   4    -0.413162421119E+03   -0.45837E-03   -0.12289E-03  5184   0.299E-02    0.963E-02
RMM:   5    -0.413161978663E+03    0.44246E-03   -0.34072E-04  4904   0.192E-02    0.400E-02
RMM:   6    -0.413161947052E+03    0.31611E-04   -0.21837E-04  5201   0.155E-02    0.255E-02
RMM:   7    -0.413161955114E+03   -0.80627E-05   -0.11988E-04  4942   0.890E-03    0.125E-02
RMM:   8    -0.413161953661E+03    0.14532E-05   -0.95209E-06  3672   0.410E-03    0.615E-03
RMM:   9    -0.413161955969E+03   -0.23079E-05   -0.33676E-06  2528   0.215E-03    0.227E-03
RMM:  10    -0.413161960756E+03   -0.47868E-05   -0.18260E-06  2536   0.186E-03    0.115E-03
RMM:  11    -0.413161965132E+03   -0.43756E-05   -0.10110E-06  2359   0.142E-03    0.611E-04
RMM:  12    -0.413161967246E+03   -0.21143E-05   -0.39551E-07  1870   0.944E-04    0.383E-04
RMM:  13    -0.413161970126E+03   -0.28800E-05   -0.37188E-07  1618   0.825E-04    0.269E-04
RMM:  14    -0.413161972544E+03   -0.24177E-05   -0.31842E-07  1561   0.772E-04    0.169E-04
RMM:  15    -0.413161973915E+03   -0.13713E-05   -0.16235E-07  1197   0.640E-04    0.860E-05
RMM:  16    -0.413161975743E+03   -0.18278E-05   -0.21784E-07  1368   0.690E-04    0.627E-05
RMM:  17    -0.413161976128E+03   -0.38557E-06   -0.58933E-08   817   0.521E-04
  144 T=    60. E= -.41286614E+03 F= -.41316198E+03 E0= -.41314133E+03  EK= 0.29583E+00 SP= 0.00E+00 SK= 0.00E+00
       N       E                     dE             d eps       ncg     rms          rms(c)
RMM:   1    -0.413155541274E+03    0.64345E-02   -0.99327E+00  4264   0.834E-01    0.848E-01
RMM:   2    -0.413163926022E+03   -0.83847E-02   -0.11491E-01  4302   0.950E-02    0.601E-01
RMM:   3    -0.413162472727E+03    0.14533E-02   -0.75764E-03  4795   0.366E-02    0.122E-01
RMM:   4    -0.413170504610E+03   -0.80319E-02   -0.85095E-03  5170   0.787E-02    0.378E-01
RMM:   5    -0.413162425310E+03    0.80793E-02   -0.41227E-03  4837   0.628E-02    0.379E-02
RMM:   6    -0.413162405698E+03    0.19613E-04   -0.74408E-04  5626   0.267E-02    0.227E-02
RMM:   7    -0.413162427267E+03   -0.21570E-04   -0.13832E-04  5487   0.101E-02    0.947E-03
RMM:   8    -0.413162433310E+03   -0.60425E-05   -0.23991E-05  4661   0.533E-03    0.554E-03
RMM:   9    -0.413162436069E+03   -0.27596E-05   -0.25274E-06  2682   0.227E-03    0.284E-03
RMM:  10    -0.413162442981E+03   -0.69115E-05   -0.14808E-06  2521   0.180E-03    0.159E-03
RMM:  11    -0.413162449731E+03   -0.67504E-05   -0.89644E-07  2425   0.137E-03    0.711E-04
RMM:  12    -0.413162453754E+03   -0.40227E-05   -0.45231E-07  2058   0.996E-04    0.376E-04
RMM:  13    -0.413162457094E+03   -0.33401E-05   -0.29184E-07  1560   0.817E-04    0.215E-04
RMM:  14    -0.413162460218E+03   -0.31236E-05   -0.24641E-07  1451   0.772E-04    0.164E-04
RMM:  15    -0.413162463052E+03   -0.28340E-05   -0.24236E-07  1578   0.750E-04    0.878E-05
RMM:  16    -0.413162464886E+03   -0.18340E-05   -0.14914E-07  1309   0.658E-04    0.497E-05
RMM:  17    -0.413162465389E+03   -0.50294E-06   -0.70195E-08   964   0.557E-04
  145 T=    60. E= -.41286629E+03 F= -.41316247E+03 E0= -.41314183E+03  EK= 0.29617E+00 SP= 0.00E+00 SK= 0.00E+00
       N       E                     dE             d eps       ncg     rms          rms(c)
RMM:   1    -0.413154970677E+03    0.74942E-02   -0.10176E+01  4264   0.845E-01    0.850E-01
RMM:   2    -0.413164266454E+03   -0.92958E-02   -0.11929E-01  4299   0.977E-02    0.611E-01
RMM:   3    -0.413162649243E+03    0.16172E-02   -0.71933E-03  4917   0.377E-02    0.131E-01
RMM:   4    -0.413180342121E+03   -0.17693E-01   -0.18299E-02  5155   0.113E-01    0.556E-01
RMM:   5    -0.413162481124E+03    0.17861E-01   -0.89669E-03  4833   0.921E-02    0.422E-02
RMM:   6    -0.413162492680E+03   -0.11556E-04   -0.15157E-03  5711   0.364E-02    0.199E-02
RMM:   7    -0.413162521513E+03   -0.28833E-04   -0.19964E-04  5686   0.118E-02    0.107E-02
RMM:   8    -0.413162534181E+03   -0.12668E-04   -0.31608E-05  4751   0.572E-03    0.603E-03
RMM:   9    -0.413162539212E+03   -0.50303E-05   -0.50068E-06  2943   0.277E-03    0.293E-03
RMM:  10    -0.413162547589E+03   -0.83779E-05   -0.19070E-06  2538   0.197E-03    0.190E-03
RMM:  11    -0.413162556262E+03   -0.86726E-05   -0.10751E-06  2484   0.151E-03    0.894E-04
RMM:  12    -0.413162562138E+03   -0.58755E-05   -0.57748E-07  2221   0.111E-03    0.394E-04
RMM:  13    -0.413162565893E+03   -0.37555E-05   -0.31787E-07  1742   0.862E-04    0.253E-04
RMM:  14    -0.413162569032E+03   -0.31393E-05   -0.22720E-07  1456   0.764E-04    0.143E-04
RMM:  15    -0.413162572133E+03   -0.31003E-05   -0.21559E-07  1517   0.744E-04    0.837E-05
RMM:  16    -0.413162574395E+03   -0.22619E-05   -0.16441E-07  1380   0.696E-04    0.554E-05
RMM:  17    -0.413162574835E+03   -0.44004E-06   -0.75365E-08  1027   0.582E-04
  146 T=    60. E= -.41286598E+03 F= -.41316257E+03 E0= -.41314194E+03  EK= 0.29659E+00 SP= 0.00E+00 SK= 0.00E+00
       N       E                     dE             d eps       ncg     rms          rms(c)
RMM:   1    -0.413155295499E+03    0.72789E-02   -0.10336E+01  4264   0.852E-01    0.873E-01
RMM:   2    -0.413163997686E+03   -0.87022E-02   -0.11866E-01  4297   0.986E-02    0.603E-01
RMM:   3    -0.413163195412E+03    0.80227E-03   -0.71284E-03  4937   0.401E-02    0.151E-01
RMM:   4    -0.413188041220E+03   -0.24846E-01   -0.25665E-02  5149   0.134E-01    0.657E-01
RMM:   5    -0.413162892732E+03    0.25148E-01   -0.12572E-02  4825   0.109E-01    0.477E-02
RMM:   6    -0.413162922352E+03   -0.29620E-04   -0.20719E-03  5689   0.430E-02    0.199E-02
RMM:   7    -0.413162946341E+03   -0.23990E-04   -0.26348E-04  5814   0.133E-02    0.118E-02
RMM:   8    -0.413162951320E+03   -0.49791E-05   -0.34986E-05  4713   0.584E-03    0.630E-03
RMM:   9    -0.413162952841E+03   -0.15205E-05   -0.60708E-06  2993   0.291E-03    0.307E-03
RMM:  10    -0.413162955992E+03   -0.31510E-05   -0.19847E-06  2545   0.195E-03    0.197E-03
RMM:  11    -0.413162959252E+03   -0.32598E-05   -0.10649E-06  2487   0.149E-03    0.986E-04
RMM:  12    -0.413162961653E+03   -0.24011E-05   -0.64747E-07  2256   0.115E-03    0.351E-04
RMM:  13    -0.413162962908E+03   -0.12553E-05   -0.31146E-07  1780   0.872E-04    0.250E-04
RMM:  14    -0.413162964377E+03   -0.14690E-05   -0.24538E-07  1441   0.782E-04    0.148E-04
RMM:  15    -0.413162965792E+03   -0.14147E-05   -0.23452E-07  1478   0.754E-04    0.854E-05
RMM:  16    -0.413162966816E+03   -0.10247E-05   -0.17752E-07  1435   0.708E-04    0.616E-05
RMM:  17    -0.413162967290E+03   -0.47341E-06   -0.98768E-08  1138   0.612E-04
  147 T=    60. E= -.41286630E+03 F= -.41316297E+03 E0= -.41314234E+03  EK= 0.29666E+00 SP= 0.00E+00 SK= 0.00E+00
       N       E                     dE             d eps       ncg     rms          rms(c)
RMM:   1    -0.413154469188E+03    0.84976E-02   -0.10345E+01  4264   0.857E-01    0.854E-01
RMM:   2    -0.413163865102E+03   -0.93959E-02   -0.12035E-01  4297   0.102E-01    0.598E-01
RMM:   3    -0.413163233168E+03    0.63193E-03   -0.66055E-03  5021   0.413E-02    0.163E-01
RMM:   4    -0.413195704805E+03   -0.32472E-01   -0.34157E-02  5147   0.154E-01    0.749E-01
RMM:   5    -0.413162752482E+03    0.32952E-01   -0.16325E-02  4821   0.125E-01    0.518E-02
RMM:   6    -0.413162812861E+03   -0.60379E-04   -0.26699E-03  5694   0.489E-02    0.168E-02
RMM:   7    -0.413162846295E+03   -0.33435E-04   -0.33343E-04  5921   0.146E-02    0.119E-02
RMM:   8    -0.413162852748E+03   -0.64529E-05   -0.39285E-05  4671   0.585E-03    0.664E-03
RMM:   9    -0.413162856614E+03   -0.38657E-05   -0.68443E-06  3001   0.296E-03    0.325E-03
RMM:  10    -0.413162860913E+03   -0.42993E-05   -0.20601E-06  2548   0.192E-03    0.197E-03
RMM:  11    -0.413162865345E+03   -0.44325E-05   -0.10641E-06  2480   0.146E-03    0.105E-03
RMM:  12    -0.413162868905E+03   -0.35595E-05   -0.69258E-07  2273   0.116E-03    0.331E-04
RMM:  13    -0.413162870313E+03   -0.14080E-05   -0.30036E-07  1753   0.871E-04    0.232E-04
RMM:  14    -0.413162872423E+03   -0.21099E-05   -0.28009E-07  1529   0.818E-04    0.155E-04
RMM:  15    -0.413162873970E+03   -0.15477E-05   -0.21244E-07  1465   0.749E-04    0.836E-05
RMM:  16    -0.413162874809E+03   -0.83837E-06   -0.14472E-07  1348   0.681E-04
  148 T=    60. E= -.41286613E+03 F= -.41316287E+03 E0= -.41314225E+03  EK= 0.29674E+00 SP= 0.00E+00 SK= 0.00E+00
       N       E                     dE             d eps       ncg     rms          rms(c)
RMM:   1    -0.413154401826E+03    0.84721E-02   -0.10455E+01  4264   0.862E-01    0.846E-01
RMM:   2    -0.413165061405E+03   -0.10660E-01   -0.12440E-01  4294   0.103E-01    0.610E-01
RMM:   3    -0.413163934915E+03    0.11265E-02   -0.64545E-03  5005   0.460E-02    0.171E-01
RMM:   4    -0.413202091417E+03   -0.38157E-01   -0.41095E-02  5133   0.168E-01    0.811E-01
RMM:   5    -0.413163164314E+03    0.38927E-01   -0.19129E-02  4813   0.136E-01    0.544E-02
RMM:   6    -0.413163240067E+03   -0.75753E-04   -0.30754E-03  5672   0.528E-02    0.137E-02
RMM:   7    -0.413163283185E+03   -0.43118E-04   -0.39086E-04  5994   0.156E-02    0.115E-02
RMM:   8    -0.413163292384E+03   -0.91988E-05   -0.41359E-05  4499   0.572E-03    0.688E-03
RMM:   9    -0.413163301260E+03   -0.88761E-05   -0.66663E-06  2915   0.298E-03    0.347E-03
RMM:  10    -0.413163309255E+03   -0.79949E-05   -0.22278E-06  2553   0.199E-03    0.194E-03
RMM:  11    -0.413163316712E+03   -0.74568E-05   -0.11456E-06  2491   0.148E-03    0.985E-04
RMM:  12    -0.413163322507E+03   -0.57948E-05   -0.70278E-07  2278   0.116E-03    0.376E-04
RMM:  13    -0.413163324920E+03   -0.24132E-05   -0.31873E-07  1834   0.886E-04    0.245E-04
RMM:  14    -0.413163328893E+03   -0.39733E-05   -0.34073E-07  1639   0.852E-04    0.159E-04
RMM:  15    -0.413163331047E+03   -0.21538E-05   -0.20590E-07  1494   0.743E-04    0.899E-05
RMM:  16    -0.413163331965E+03   -0.91855E-06   -0.11901E-07  1239   0.652E-04
  149 T=    61. E= -.41286604E+03 F= -.41316333E+03 E0= -.41314272E+03  EK= 0.29729E+00 SP= 0.00E+00 SK= 0.00E+00
       N       E                     dE             d eps       ncg     rms          rms(c)
RMM:   1    -0.413155119227E+03    0.82118E-02   -0.10516E+01  4264   0.865E-01    0.868E-01
RMM:   2    -0.413164436941E+03   -0.93177E-02   -0.12311E-01  4297   0.101E-01    0.605E-01
RMM:   3    -0.413164398456E+03    0.38485E-04   -0.68166E-03  5083   0.456E-02    0.186E-01
RMM:   4    -0.413202562957E+03   -0.38165E-01   -0.41918E-02  5134   0.170E-01    0.813E-01
RMM:   5    -0.413163538765E+03    0.39024E-01   -0.19158E-02  4816   0.137E-01    0.572E-02
RMM:   6    -0.413163583476E+03   -0.44711E-04   -0.29917E-03  5669   0.530E-02    0.147E-02
RMM:   7    -0.413163620540E+03   -0.37065E-04   -0.39454E-04  6029   0.160E-02    0.116E-02
RMM:   8    -0.413163624619E+03   -0.40790E-05   -0.42944E-05  4402   0.563E-03    0.738E-03
RMM:   9    -0.413163627537E+03   -0.29174E-05   -0.63547E-06  2850   0.309E-03    0.357E-03
RMM:  10    -0.413163630659E+03   -0.31225E-05   -0.22007E-06  2548   0.209E-03    0.190E-03
RMM:  11    -0.413163633399E+03   -0.27393E-05   -0.11552E-06  2512   0.153E-03    0.893E-04
RMM:  12    -0.413163635286E+03   -0.18875E-05   -0.62584E-07  2190   0.112E-03    0.375E-04
RMM:  13    -0.413163636202E+03   -0.91586E-06   -0.33744E-07  1871   0.906E-04
  150 T=    61. E= -.41286614E+03 F= -.41316364E+03 E0= -.41314302E+03  EK= 0.29749E+00 SP= 0.00E+00 SK= 0.00E+00
