       N       E                     dE             d eps       ncg     rms          rms(c)
RMM:   1     0.220179258442E+04    0.22018E+04   -0.52438E+04  2132   0.654E+02
RMM:   2     0.705606466426E+03   -0.14962E+04   -0.16263E+04  2132   0.177E+02
RMM:   3     0.137686223174E+03   -0.56792E+03   -0.65704E+03  2132   0.117E+02
RMM:   4    -0.159302883855E+03   -0.29699E+03   -0.27872E+03  2132   0.936E+01
RMM:   5    -0.287545860064E+03   -0.12824E+03   -0.11454E+03  2132   0.595E+01
RMM:   6    -0.349907104636E+03   -0.62361E+02   -0.55115E+02  2132   0.423E+01
RMM:   7    -0.382742811661E+03   -0.32836E+02   -0.30351E+02  2132   0.293E+01
RMM:   8    -0.404247744687E+03   -0.21505E+02   -0.18438E+02  2132   0.233E+01
RMM:   9    -0.436035281650E+03   -0.31788E+02   -0.30628E+02  6109   0.173E+01
RMM:  10    -0.441328133510E+03   -0.52929E+01   -0.63067E+01  6395   0.538E+00
RMM:  11    -0.442524208076E+03   -0.11961E+01   -0.11003E+01  6207   0.173E+00
RMM:  12    -0.442889845166E+03   -0.36564E+00   -0.26839E+00  6366   0.599E-01    0.134E+02
RMM:  13    -0.425562390947E+03    0.17327E+02   -0.80880E+01  4675   0.119E+01    0.712E+01
RMM:  14    -0.499037038592E+03   -0.73475E+02   -0.53639E+02  5417   0.232E+01    0.306E+01
RMM:  15    -0.417812317998E+03    0.81225E+02   -0.20362E+02  5119   0.164E+01    0.837E+00
RMM:  16    -0.414018874163E+03    0.37934E+01   -0.40220E+01  6095   0.619E+00    0.432E+00
RMM:  17    -0.413201076673E+03    0.81780E+00   -0.27828E+00  5427   0.195E+00    0.243E+00
RMM:  18    -0.413176444822E+03    0.24632E-01   -0.74918E-01  6003   0.874E-01    0.171E+00
RMM:  19    -0.413178786336E+03   -0.23415E-02   -0.23251E-01  5618   0.531E-01    0.971E-01
RMM:  20    -0.413199094086E+03   -0.20308E-01   -0.39756E-01  5574   0.640E-01    0.740E-01
RMM:  21    -0.413171019260E+03    0.28075E-01   -0.40006E-02  4956   0.265E-01    0.368E-01
RMM:  22    -0.413165064422E+03    0.59548E-02   -0.36809E-02  5720   0.192E-01    0.148E-01
RMM:  23    -0.413164453590E+03    0.61083E-03   -0.61759E-03  5906   0.715E-02    0.870E-02
RMM:  24    -0.413163421726E+03    0.10319E-02   -0.19159E-03  5372   0.429E-02    0.554E-02
RMM:  25    -0.413162707837E+03    0.71389E-03   -0.90948E-04  4834   0.295E-02    0.419E-02
RMM:  26    -0.413162791330E+03   -0.83493E-04   -0.11957E-03  5753   0.352E-02    0.335E-02
RMM:  27    -0.413163203737E+03   -0.41241E-03   -0.20767E-04  4595   0.198E-02    0.197E-02
RMM:  28    -0.413163612113E+03   -0.40838E-03   -0.14468E-04  4996   0.164E-02    0.951E-03
RMM:  29    -0.413164008001E+03   -0.39589E-03   -0.10777E-04  4680   0.153E-02    0.449E-03
RMM:  30    -0.413164285116E+03   -0.27711E-03   -0.88439E-05  4427   0.117E-02    0.454E-03
RMM:  31    -0.413164436287E+03   -0.15117E-03   -0.61272E-05  3377   0.780E-03    0.357E-03
RMM:  32    -0.413164467998E+03   -0.31711E-04   -0.23281E-05  2997   0.332E-03    0.250E-03
RMM:  33    -0.413164484325E+03   -0.16327E-04   -0.98094E-06  2841   0.244E-03    0.844E-04
RMM:  34    -0.413164486367E+03   -0.20412E-05   -0.52790E-06  2610   0.152E-03    0.482E-04
RMM:  35    -0.413164488109E+03   -0.17423E-05   -0.21668E-06  2501   0.142E-03    0.759E-04
RMM:  36    -0.413164487691E+03    0.41753E-06   -0.14156E-06  2022   0.101E-03
    1 T=    61. E= -.41286670E+03 F= -.41316449E+03 E0= -.41314199E+03  EK= 0.29779E+00 SP= 0.00E+00 SK= 0.00E+00
       N       E                     dE             d eps       ncg     rms          rms(c)
RMM:   1    -0.413157519425E+03    0.69687E-02   -0.10462E+01  3985   0.677E-01    0.885E-01
RMM:   2    -0.413166656665E+03   -0.91372E-02   -0.12836E-01  3779   0.952E-02    0.644E-01
RMM:   3    -0.413164295121E+03    0.23615E-02   -0.86750E-03  4654   0.375E-02    0.123E-01
RMM:   4    -0.413177530977E+03   -0.13236E-01   -0.13867E-02  5209   0.978E-02    0.483E-01
RMM:   5    -0.413164122124E+03    0.13409E-01   -0.66644E-03  4855   0.806E-02    0.348E-02
RMM:   6    -0.413164207537E+03   -0.85413E-04   -0.11474E-03  5809   0.326E-02    0.239E-02
RMM:   7    -0.413164213036E+03   -0.54986E-05   -0.21502E-04  5632   0.135E-02    0.137E-02
RMM:   8    -0.413164215879E+03   -0.28438E-05   -0.25793E-05  4377   0.553E-03    0.583E-03
RMM:   9    -0.413164220130E+03   -0.42508E-05   -0.53780E-06  2999   0.261E-03    0.460E-03
RMM:  10    -0.413164225191E+03   -0.50604E-05   -0.12525E-06  2524   0.172E-03    0.285E-03
RMM:  11    -0.413164231874E+03   -0.66831E-05   -0.11898E-06  2515   0.156E-03    0.124E-03
RMM:  12    -0.413164237579E+03   -0.57057E-05   -0.86713E-07  2377   0.129E-03    0.542E-04
RMM:  13    -0.413164238262E+03   -0.68275E-06   -0.36517E-07  1894   0.871E-04
    2 T=    61. E= -.41286649E+03 F= -.41316424E+03 E0= -.41314174E+03  EK= 0.29775E+00 SP= 0.00E+00 SK= 0.00E+00
       N       E                     dE             d eps       ncg     rms          rms(c)
RMM:   1    -0.413158444825E+03    0.57928E-02   -0.10485E+01  4185   0.680E-01    0.908E-01
RMM:   2    -0.413166694771E+03   -0.82499E-02   -0.12605E-01  3774   0.921E-02    0.638E-01
RMM:   3    -0.413164964946E+03    0.17298E-02   -0.88653E-03  4841   0.383E-02    0.142E-01
RMM:   4    -0.413188873805E+03   -0.23909E-01   -0.24506E-02  5184   0.131E-01    0.646E-01
RMM:   5    -0.413164599268E+03    0.24275E-01   -0.11822E-02  4836   0.108E-01    0.412E-02
RMM:   6    -0.413164759667E+03   -0.16040E-03   -0.19966E-03  5800   0.434E-02    0.265E-02
RMM:   7    -0.413164762867E+03   -0.31991E-05   -0.30414E-04  5783   0.158E-02    0.168E-02
RMM:   8    -0.413164759638E+03    0.32283E-05   -0.48390E-05  4953   0.723E-03    0.780E-03
RMM:   9    -0.413164758828E+03    0.81020E-06   -0.97441E-06  3556   0.353E-03
    3 T=    61. E= -.41286672E+03 F= -.41316476E+03 E0= -.41314226E+03  EK= 0.29804E+00 SP= 0.00E+00 SK= 0.00E+00
       N       E                     dE             d eps       ncg     rms          rms(c)
RMM:   1    -0.413157936636E+03    0.68230E-02   -0.10403E+01  4223   0.681E-01    0.892E-01
RMM:   2    -0.413166574413E+03   -0.86378E-02   -0.12522E-01  4338   0.965E-02    0.632E-01
RMM:   3    -0.413172783713E+03   -0.62093E-02   -0.15275E-02  5203   0.897E-02    0.405E-01
RMM:   4    -0.413181760872E+03   -0.89772E-02   -0.34350E-02  5100   0.161E-01    0.548E-01
RMM:   5    -0.413164599160E+03    0.17162E-01   -0.60308E-03  4643   0.919E-02    0.560E-02
RMM:   6    -0.413164529035E+03    0.70125E-04   -0.11860E-03  5316   0.350E-02    0.256E-02
RMM:   7    -0.413164546550E+03   -0.17516E-04   -0.25446E-04  5983   0.156E-02    0.161E-02
RMM:   8    -0.413164545669E+03    0.88115E-06   -0.49054E-05  5227   0.792E-03    0.670E-03
RMM:   9    -0.413164545290E+03    0.37966E-06   -0.10070E-05  3803   0.395E-03    0.362E-03
RMM:  10    -0.413164546477E+03   -0.11878E-05   -0.12194E-06  2527   0.193E-03    0.222E-03
RMM:  11    -0.413164548776E+03   -0.22988E-05   -0.11968E-06  2526   0.173E-03    0.136E-03
RMM:  12    -0.413164550062E+03   -0.12862E-05   -0.56829E-07  2410   0.122E-03    0.462E-04
RMM:  13    -0.413164550977E+03   -0.91454E-06   -0.29598E-07  1621   0.812E-04
    4 T=    61. E= -.41286647E+03 F= -.41316455E+03 E0= -.41314206E+03  EK= 0.29808E+00 SP= 0.00E+00 SK= 0.00E+00
       N       E                     dE             d eps       ncg     rms          rms(c)
RMM:   1    -0.413157892135E+03    0.66579E-02   -0.10450E+01  4235   0.689E-01    0.883E-01
RMM:   2    -0.413167121254E+03   -0.92291E-02   -0.12835E-01  3923   0.945E-02    0.643E-01
RMM:   3    -0.413164987221E+03    0.21340E-02   -0.87818E-03  4900   0.416E-02    0.140E-01
RMM:   4    -0.413195318109E+03   -0.30331E-01   -0.31335E-02  5162   0.147E-01    0.726E-01
RMM:   5    -0.413164491571E+03    0.30827E-01   -0.15001E-02  4817   0.121E-01    0.429E-02
RMM:   6    -0.413164678913E+03   -0.18734E-03   -0.24082E-03  5762   0.482E-02    0.261E-02
RMM:   7    -0.413164691855E+03   -0.12942E-04   -0.34684E-04  5835   0.162E-02    0.169E-02
RMM:   8    -0.413164695409E+03   -0.35544E-05   -0.53398E-05  5016   0.739E-03    0.797E-03
RMM:   9    -0.413164698054E+03   -0.26452E-05   -0.11515E-05  3723   0.376E-03    0.574E-03
RMM:  10    -0.413164702575E+03   -0.45205E-05   -0.17335E-06  2565   0.197E-03    0.377E-03
RMM:  11    -0.413164708445E+03   -0.58700E-05   -0.14637E-06  2549   0.185E-03    0.171E-03
RMM:  12    -0.413164713937E+03   -0.54924E-05   -0.12502E-06  2511   0.163E-03    0.720E-04
RMM:  13    -0.413164714342E+03   -0.40502E-06   -0.35562E-07  2112   0.102E-03
    5 T=    61. E= -.41286646E+03 F= -.41316471E+03 E0= -.41314224E+03  EK= 0.29825E+00 SP= 0.00E+00 SK= 0.00E+00
       N       E                     dE             d eps       ncg     rms          rms(c)
RMM:   1    -0.413158795394E+03    0.59185E-02   -0.10485E+01  4250   0.691E-01    0.904E-01
RMM:   2    -0.413167150507E+03   -0.83551E-02   -0.12617E-01  3970   0.945E-02    0.640E-01
RMM:   3    -0.413165371806E+03    0.17787E-02   -0.88110E-03  4793   0.388E-02    0.138E-01
RMM:   4    -0.413187509176E+03   -0.22137E-01   -0.22581E-02  5161   0.125E-01    0.623E-01
RMM:   5    -0.413165035920E+03    0.22473E-01   -0.11056E-02  4825   0.104E-01    0.395E-02
RMM:   6    -0.413165176857E+03   -0.14094E-03   -0.17971E-03  5803   0.413E-02    0.253E-02
RMM:   7    -0.413165179643E+03   -0.27863E-05   -0.27513E-04  5761   0.152E-02    0.160E-02
RMM:   8    -0.413165176146E+03    0.34970E-05   -0.47340E-05  4903   0.717E-03    0.768E-03
RMM:   9    -0.413165175171E+03    0.97542E-06   -0.93693E-06  3540   0.353E-03
    6 T=    61. E= -.41286667E+03 F= -.41316518E+03 E0= -.41314271E+03  EK= 0.29851E+00 SP= 0.00E+00 SK= 0.00E+00
       N       E                     dE             d eps       ncg     rms          rms(c)
RMM:   1    -0.413158551986E+03    0.66242E-02   -0.10428E+01  4276   0.692E-01    0.899E-01
RMM:   2    -0.413166787009E+03   -0.82350E-02   -0.12539E-01  4389   0.925E-02    0.633E-01
RMM:   3    -0.413172858946E+03   -0.60719E-02   -0.15241E-02  5175   0.880E-02    0.400E-01
RMM:   4    -0.413182319086E+03   -0.94601E-02   -0.34358E-02  5079   0.160E-01    0.551E-01
RMM:   5    -0.413165013737E+03    0.17305E-01   -0.61935E-03  4646   0.919E-02    0.560E-02
RMM:   6    -0.413164950493E+03    0.63244E-04   -0.12083E-03  5316   0.351E-02    0.259E-02
RMM:   7    -0.413164964616E+03   -0.14123E-04   -0.25484E-04  5969   0.156E-02    0.162E-02
RMM:   8    -0.413164961503E+03    0.31129E-05   -0.49712E-05  5204   0.798E-03    0.674E-03
RMM:   9    -0.413164958779E+03    0.27240E-05   -0.97931E-06  3770   0.394E-03    0.360E-03
RMM:  10    -0.413164959073E+03   -0.29383E-06   -0.11911E-06  2515   0.193E-03
    7 T=    61. E= -.41286647E+03 F= -.41316496E+03 E0= -.41314251E+03  EK= 0.29849E+00 SP= 0.00E+00 SK= 0.00E+00
       N       E                     dE             d eps       ncg     rms          rms(c)
RMM:   1    -0.413158678486E+03    0.62803E-02   -0.10427E+01  4270   0.699E-01    0.882E-01
RMM:   2    -0.413167817613E+03   -0.91391E-02   -0.12765E-01  4029   0.947E-02    0.640E-01
RMM:   3    -0.413165771803E+03    0.20458E-02   -0.87052E-03  4843   0.407E-02    0.136E-01
RMM:   4    -0.413192057006E+03   -0.26285E-01   -0.27010E-02  5150   0.137E-01    0.677E-01
RMM:   5    -0.413165323903E+03    0.26733E-01   -0.13028E-02  4822   0.113E-01    0.417E-02
RMM:   6    -0.413165496341E+03   -0.17244E-03   -0.21650E-03  5780   0.450E-02    0.259E-02
RMM:   7    -0.413165505482E+03   -0.91411E-05   -0.32081E-04  5825   0.156E-02    0.164E-02
RMM:   8    -0.413165506848E+03   -0.13660E-05   -0.44875E-05  4877   0.687E-03    0.732E-03
RMM:   9    -0.413165508787E+03   -0.19391E-05   -0.97228E-06  3476   0.345E-03    0.555E-03
RMM:  10    -0.413165511893E+03   -0.31059E-05   -0.15162E-06  2554   0.190E-03    0.363E-03
RMM:  11    -0.413165516176E+03   -0.42829E-05   -0.14956E-06  2551   0.184E-03    0.158E-03
RMM:  12    -0.413165519594E+03   -0.34178E-05   -0.11841E-06  2499   0.156E-03    0.725E-04
RMM:  13    -0.413165519650E+03   -0.56316E-07   -0.32292E-07  2050   0.965E-04
    8 T=    61. E= -.41286673E+03 F= -.41316552E+03 E0= -.41314309E+03  EK= 0.29878E+00 SP= 0.00E+00 SK= 0.00E+00
       N       E                     dE             d eps       ncg     rms          rms(c)
RMM:   1    -0.413159256700E+03    0.62629E-02   -0.10484E+01  4287   0.709E-01    0.899E-01
RMM:   2    -0.413167958814E+03   -0.87021E-02   -0.12698E-01  4117   0.974E-02    0.642E-01
RMM:   3    -0.413165931484E+03    0.20273E-02   -0.88658E-03  4765   0.415E-02    0.136E-01
RMM:   4    -0.413188498501E+03   -0.22567E-01   -0.23020E-02  5152   0.126E-01    0.629E-01
RMM:   5    -0.413165545164E+03    0.22953E-01   -0.11309E-02  4819   0.104E-01    0.395E-02
RMM:   6    -0.413165692745E+03   -0.14758E-03   -0.18849E-03  5815   0.415E-02    0.251E-02
RMM:   7    -0.413165699664E+03   -0.69186E-05   -0.27459E-04  5757   0.152E-02    0.160E-02
RMM:   8    -0.413165696737E+03    0.29263E-05   -0.49397E-05  4927   0.729E-03    0.794E-03
RMM:   9    -0.413165695509E+03    0.12283E-05   -0.98292E-06  3606   0.363E-03    0.607E-03
RMM:  10    -0.413165696498E+03   -0.98903E-06   -0.13954E-06  2544   0.194E-03
    9 T=    61. E= -.41286662E+03 F= -.41316570E+03 E0= -.41314329E+03  EK= 0.29908E+00 SP= 0.00E+00 SK= 0.00E+00
       N       E                     dE             d eps       ncg     rms          rms(c)
RMM:   1    -0.413159451362E+03    0.62441E-02   -0.10463E+01  4292   0.707E-01    0.906E-01
RMM:   2    -0.413167638113E+03   -0.81868E-02   -0.12551E-01  4244   0.951E-02    0.634E-01
RMM:   3    -0.413167969089E+03   -0.33098E-03   -0.10474E-02  5091   0.596E-02    0.239E-01
RMM:   4    -0.413202617611E+03   -0.34649E-01   -0.45101E-02  5131   0.178E-01    0.794E-01
RMM:   5    -0.413165631336E+03    0.36986E-01   -0.16532E-02  4772   0.132E-01    0.554E-02
RMM:   6    -0.413165767219E+03   -0.13588E-03   -0.27580E-03  5635   0.521E-02    0.268E-02
RMM:   7    -0.413165784239E+03   -0.17020E-04   -0.39503E-04  6016   0.167E-02    0.173E-02
RMM:   8    -0.413165781871E+03    0.23674E-05   -0.63817E-05  5246   0.825E-03    0.790E-03
RMM:   9    -0.413165777466E+03    0.44051E-05   -0.11036E-05  3543   0.374E-03    0.394E-03
RMM:  10    -0.413165776435E+03    0.10315E-05   -0.25154E-06  2614   0.220E-03    0.276E-03
RMM:  11    -0.413165774985E+03    0.14503E-05   -0.11224E-06  2509   0.167E-03    0.140E-03
RMM:  12    -0.413165773230E+03    0.17541E-05   -0.75395E-07  2463   0.135E-03    0.427E-04
RMM:  13    -0.413165772406E+03    0.82414E-06   -0.36915E-07  2010   0.971E-04
   10 T=    61. E= -.41286642E+03 F= -.41316577E+03 E0= -.41314339E+03  EK= 0.29936E+00 SP= 0.00E+00 SK= 0.00E+00
       N       E                     dE             d eps       ncg     rms          rms(c)
RMM:   1    -0.413159720012E+03    0.60532E-02   -0.10419E+01  4291   0.710E-01    0.883E-01
RMM:   2    -0.413168719418E+03   -0.89994E-02   -0.12697E-01  4185   0.938E-02    0.638E-01
RMM:   3    -0.413166889267E+03    0.18302E-02   -0.86882E-03  4897   0.420E-02    0.142E-01
RMM:   4    -0.413197080666E+03   -0.30191E-01   -0.31339E-02  5146   0.147E-01    0.725E-01
RMM:   5    -0.413166308320E+03    0.30772E-01   -0.15061E-02  4805   0.121E-01    0.430E-02
RMM:   6    -0.413166496269E+03   -0.18795E-03   -0.24374E-03  5774   0.480E-02    0.264E-02
RMM:   7    -0.413166505461E+03   -0.91918E-05   -0.34595E-04  5819   0.165E-02    0.173E-02
RMM:   8    -0.413166504203E+03    0.12580E-05   -0.56993E-05  5000   0.767E-03    0.846E-03
RMM:   9    -0.413166503201E+03    0.10024E-05   -0.11920E-05  3789   0.389E-03    0.610E-03
RMM:  10    -0.413166504608E+03   -0.14072E-05   -0.17125E-06  2563   0.200E-03    0.398E-03
RMM:  11    -0.413166506592E+03   -0.19835E-05   -0.16810E-06  2559   0.198E-03    0.176E-03
RMM:  12    -0.413166508066E+03   -0.14742E-05   -0.12104E-06  2500   0.165E-03    0.725E-04
RMM:  13    -0.413166508117E+03   -0.51550E-07   -0.35134E-07  2135   0.102E-03
   11 T=    61. E= -.41286667E+03 F= -.41316651E+03 E0= -.41314415E+03  EK= 0.29984E+00 SP= 0.00E+00 SK= 0.00E+00
       N       E                     dE             d eps       ncg     rms          rms(c)
RMM:   1    -0.413160369164E+03    0.61389E-02   -0.10499E+01  4295   0.729E-01    0.894E-01
RMM:   2    -0.413168707856E+03   -0.83387E-02   -0.13036E-01  4198   0.979E-02    0.645E-01
RMM:   3    -0.413166659174E+03    0.20487E-02   -0.88002E-03  4815   0.415E-02    0.138E-01
RMM:   4    -0.413192039004E+03   -0.25380E-01   -0.26069E-02  5145   0.134E-01    0.665E-01
RMM:   5    -0.413166259468E+03    0.25780E-01   -0.12704E-02  4812   0.111E-01    0.404E-02
RMM:   6    -0.413166420408E+03   -0.16094E-03   -0.20448E-03  5803   0.437E-02    0.253E-02
RMM:   7    -0.413166428183E+03   -0.77754E-05   -0.29220E-04  5766   0.155E-02    0.163E-02
RMM:   8    -0.413166426462E+03    0.17207E-05   -0.53024E-05  4957   0.747E-03    0.806E-03
RMM:   9    -0.413166425419E+03    0.10436E-05   -0.10823E-05  3709   0.377E-03    0.602E-03
RMM:  10    -0.413166426584E+03   -0.11656E-05   -0.14984E-06  2548   0.195E-03    0.392E-03
RMM:  11    -0.413166428295E+03   -0.17104E-05   -0.16425E-06  2563   0.197E-03    0.174E-03
RMM:  12    -0.413166429369E+03   -0.10740E-05   -0.10657E-06  2475   0.157E-03    0.680E-04
RMM:  13    -0.413166429381E+03   -0.12515E-07   -0.32073E-07  2049   0.967E-04
   12 T=    61. E= -.41286638E+03 F= -.41316643E+03 E0= -.41314410E+03  EK= 0.30005E+00 SP= 0.00E+00 SK= 0.00E+00
       N       E                     dE             d eps       ncg     rms          rms(c)
RMM:   1    -0.413160800184E+03    0.56292E-02   -0.10496E+01  4290   0.721E-01    0.911E-01
RMM:   2    -0.413168756393E+03   -0.79562E-02   -0.12591E-01  4221   0.956E-02    0.637E-01
RMM:   3    -0.413167310164E+03    0.14462E-02   -0.90438E-03  4840   0.405E-02    0.147E-01
RMM:   4    -0.413194200969E+03   -0.26891E-01   -0.27662E-02  5145   0.138E-01    0.685E-01
RMM:   5    -0.413166848021E+03    0.27353E-01   -0.13388E-02  4808   0.114E-01    0.429E-02
RMM:   6    -0.413167020498E+03   -0.17248E-03   -0.22663E-03  5806   0.455E-02    0.272E-02
RMM:   7    -0.413167020575E+03   -0.77245E-07   -0.32045E-04  5757   0.163E-02    0.174E-02
RMM:   8    -0.413167012815E+03    0.77595E-05   -0.55548E-05  4976   0.769E-03    0.866E-03
RMM:   9    -0.413167008027E+03    0.47881E-05   -0.11220E-05  3772   0.384E-03    0.650E-03
RMM:  10    -0.413167005422E+03    0.26049E-05   -0.15936E-06  2552   0.202E-03    0.419E-03
RMM:  11    -0.413167002108E+03    0.33147E-05   -0.15385E-06  2544   0.193E-03    0.195E-03
RMM:  12    -0.413166998351E+03    0.37565E-05   -0.12068E-06  2507   0.169E-03    0.693E-04
RMM:  13    -0.413166997849E+03    0.50174E-06   -0.36867E-07  2185   0.105E-03
   13 T=    61. E= -.41286650E+03 F= -.41316700E+03 E0= -.41314470E+03  EK= 0.30049E+00 SP= 0.00E+00 SK= 0.00E+00
       N       E                     dE             d eps       ncg     rms          rms(c)
RMM:   1    -0.413160973174E+03    0.60252E-02   -0.10420E+01  4290   0.720E-01    0.886E-01
RMM:   2    -0.413169857291E+03   -0.88841E-02   -0.12682E-01  4218   0.929E-02    0.636E-01
RMM:   3    -0.413167930230E+03    0.19271E-02   -0.86837E-03  4832   0.395E-02    0.139E-01
RMM:   4    -0.413192930727E+03   -0.25000E-01   -0.25713E-02  5137   0.133E-01    0.660E-01
RMM:   5    -0.413167532794E+03    0.25398E-01   -0.12540E-02  4808   0.110E-01    0.405E-02
RMM:   6    -0.413167686569E+03   -0.15378E-03   -0.19965E-03  5804   0.434E-02    0.253E-02
RMM:   7    -0.413167692021E+03   -0.54515E-05   -0.28560E-04  5760   0.156E-02    0.162E-02
RMM:   8    -0.413167687944E+03    0.40763E-05   -0.53643E-05  4954   0.757E-03    0.808E-03
RMM:   9    -0.413167685408E+03    0.25365E-05   -0.10931E-05  3719   0.380E-03    0.606E-03
RMM:  10    -0.413167685254E+03    0.15370E-06   -0.14694E-06  2542   0.196E-03
   14 T=    61. E= -.41286667E+03 F= -.41316769E+03 E0= -.41314542E+03  EK= 0.30102E+00 SP= 0.00E+00 SK= 0.00E+00
       N       E                     dE             d eps       ncg     rms          rms(c)
RMM:   1    -0.413161242071E+03    0.64433E-02   -0.10507E+01  4303   0.736E-01    0.891E-01
RMM:   2    -0.413170342294E+03   -0.91002E-02   -0.12896E-01  4275   0.986E-02    0.647E-01
RMM:   3    -0.413169989149E+03    0.35315E-03   -0.10467E-02  5082   0.597E-02    0.233E-01
RMM:   4    -0.413209355746E+03   -0.39367E-01   -0.50269E-02  5126   0.187E-01    0.840E-01
RMM:   5    -0.413167578617E+03    0.41777E-01   -0.18844E-02  4772   0.140E-01    0.552E-02
RMM:   6    -0.413167737012E+03   -0.15840E-03   -0.30590E-03  5676   0.548E-02    0.258E-02
RMM:   7    -0.413167759737E+03   -0.22725E-04   -0.42164E-04  5999   0.171E-02    0.174E-02
RMM:   8    -0.413167761592E+03   -0.18549E-05   -0.67813E-05  5238   0.833E-03    0.818E-03
RMM:   9    -0.413167759882E+03    0.17093E-05   -0.12684E-05  3666   0.391E-03    0.399E-03
RMM:  10    -0.413167761314E+03   -0.14322E-05   -0.27880E-06  2633   0.222E-03    0.281E-03
RMM:  11    -0.413167762515E+03   -0.12003E-05   -0.11332E-06  2506   0.166E-03    0.143E-03
RMM:  12    -0.413167763252E+03   -0.73779E-06   -0.79382E-07  2454   0.135E-03
   15 T=    61. E= -.41286641E+03 F= -.41316776E+03 E0= -.41314553E+03  EK= 0.30136E+00 SP= 0.00E+00 SK= 0.00E+00
       N       E                     dE             d eps       ncg     rms          rms(c)
RMM:   1    -0.413162662677E+03    0.50998E-02   -0.10528E+01  4299   0.731E-01    0.913E-01
RMM:   2    -0.413170714549E+03   -0.80519E-02   -0.12660E-01  4247   0.975E-02    0.640E-01
RMM:   3    -0.413169178225E+03    0.15363E-02   -0.92117E-03  4917   0.421E-02    0.153E-01
RMM:   4    -0.413201816408E+03   -0.32638E-01   -0.34048E-02  5137   0.153E-01    0.753E-01
RMM:   5    -0.413168564221E+03    0.33252E-01   -0.16223E-02  4798   0.126E-01    0.458E-02
RMM:   6    -0.413168764062E+03   -0.19984E-03   -0.27392E-03  5772   0.503E-02    0.283E-02
RMM:   7    -0.413168766376E+03   -0.23139E-05   -0.37791E-04  5809   0.173E-02    0.185E-02
RMM:   8    -0.413168758407E+03    0.79686E-05   -0.64631E-05  5060   0.814E-03    0.946E-03
RMM:   9    -0.413168752292E+03    0.61146E-05   -0.13118E-05  3943   0.409E-03    0.679E-03
RMM:  10    -0.413168748857E+03    0.34356E-05   -0.18951E-06  2571   0.209E-03    0.438E-03
RMM:  11    -0.413168744926E+03    0.39309E-05   -0.15919E-06  2538   0.196E-03    0.210E-03
RMM:  12    -0.413168740197E+03    0.47291E-05   -0.13537E-06  2522   0.179E-03    0.741E-04
RMM:  13    -0.413168739376E+03    0.82104E-06   -0.41006E-07  2236   0.112E-03
   16 T=    62. E= -.41286665E+03 F= -.41316874E+03 E0= -.41314654E+03  EK= 0.30208E+00 SP= 0.00E+00 SK= 0.00E+00
       N       E                     dE             d eps       ncg     rms          rms(c)
RMM:   1    -0.413162607630E+03    0.61326E-02   -0.10450E+01  4295   0.732E-01    0.893E-01
RMM:   2    -0.413171322494E+03   -0.87149E-02   -0.12704E-01  4239   0.939E-02    0.636E-01
RMM:   3    -0.413169459733E+03    0.18628E-02   -0.87563E-03  4863   0.408E-02    0.145E-01
RMM:   4    -0.413197775520E+03   -0.28316E-01   -0.29311E-02  5137   0.142E-01    0.702E-01
RMM:   5    -0.413168974435E+03    0.28801E-01   -0.14144E-02  4806   0.117E-01    0.427E-02
RMM:   6    -0.413169148185E+03   -0.17375E-03   -0.23625E-03  5805   0.464E-02    0.264E-02
RMM:   7    -0.413169153110E+03   -0.49248E-05   -0.31781E-04  5788   0.162E-02    0.170E-02
RMM:   8    -0.413169147627E+03    0.54824E-05   -0.60592E-05  5006   0.787E-03    0.891E-03
RMM:   9    -0.413169142899E+03    0.47284E-05   -0.12229E-05  3904   0.401E-03    0.655E-03
RMM:  10    -0.413169140825E+03    0.20742E-05   -0.17178E-06  2559   0.203E-03    0.426E-03
RMM:  11    -0.413169138064E+03    0.27610E-05   -0.16767E-06  2549   0.201E-03    0.199E-03
RMM:  12    -0.413169134962E+03    0.31020E-05   -0.11721E-06  2501   0.169E-03    0.673E-04
RMM:  13    -0.413169134477E+03    0.48434E-06   -0.35984E-07  2168   0.104E-03
   17 T=    62. E= -.41286642E+03 F= -.41316913E+03 E0= -.41314698E+03  EK= 0.30271E+00 SP= 0.00E+00 SK= 0.00E+00
       N       E                     dE             d eps       ncg     rms          rms(c)
RMM:   1    -0.413162914191E+03    0.62208E-02   -0.10527E+01  4295   0.744E-01    0.889E-01
RMM:   2    -0.413172152441E+03   -0.92382E-02   -0.12959E-01  4258   0.984E-02    0.648E-01
RMM:   3    -0.413170016231E+03    0.21362E-02   -0.90289E-03  4866   0.425E-02    0.139E-01
RMM:   4    -0.413199916806E+03   -0.29901E-01   -0.31116E-02  5138   0.146E-01    0.721E-01
RMM:   5    -0.413169446795E+03    0.30470E-01   -0.14941E-02  4802   0.120E-01    0.429E-02
RMM:   6    -0.413169631202E+03   -0.18441E-03   -0.24963E-03  5809   0.477E-02    0.262E-02
RMM:   7    -0.413169640342E+03   -0.91401E-05   -0.33313E-04  5784   0.164E-02    0.171E-02
RMM:   8    -0.413169637755E+03    0.25865E-05   -0.61446E-05  5017   0.789E-03    0.892E-03
RMM:   9    -0.413169635054E+03    0.27009E-05   -0.12747E-05  3940   0.406E-03    0.645E-03
RMM:  10    -0.413169635268E+03   -0.21380E-06   -0.18044E-06  2565   0.204E-03
   18 T=    62. E= -.41286630E+03 F= -.41316964E+03 E0= -.41314752E+03  EK= 0.30334E+00 SP= 0.00E+00 SK= 0.00E+00
       N       E                     dE             d eps       ncg     rms          rms(c)
RMM:   1    -0.413164584127E+03    0.50509E-02   -0.10565E+01  4300   0.743E-01    0.912E-01
RMM:   2    -0.413172909983E+03   -0.83259E-02   -0.12788E-01  4306   0.987E-02    0.644E-01
RMM:   3    -0.413174171482E+03   -0.12615E-02   -0.11533E-02  5095   0.677E-02    0.276E-01
RMM:   4    -0.413204062055E+03   -0.29891E-01   -0.44247E-02  5100   0.177E-01    0.753E-01
RMM:   5    -0.413170761986E+03    0.33300E-01   -0.14302E-02  4739   0.125E-01    0.547E-02
RMM:   6    -0.413170864741E+03   -0.10276E-03   -0.24472E-03  5615   0.489E-02    0.267E-02
RMM:   7    -0.413170874936E+03   -0.10195E-04   -0.35436E-04  5991   0.162E-02    0.171E-02
RMM:   8    -0.413170870442E+03    0.44942E-05   -0.62487E-05  5218   0.825E-03    0.776E-03
RMM:   9    -0.413170863784E+03    0.66582E-05   -0.10486E-05  3481   0.372E-03    0.368E-03
RMM:  10    -0.413170861290E+03    0.24940E-05   -0.22789E-06  2580   0.215E-03    0.253E-03
RMM:  11    -0.413170857568E+03    0.37217E-05   -0.11224E-06  2514   0.169E-03    0.134E-03
RMM:  12    -0.413170853932E+03    0.36363E-05   -0.63659E-07  2427   0.130E-03    0.405E-04
RMM:  13    -0.413170852116E+03    0.18157E-05   -0.31344E-07  1938   0.927E-04    0.248E-04
RMM:  14    -0.413170850360E+03    0.17559E-05   -0.19087E-07  1471   0.764E-04    0.159E-04
RMM:  15    -0.413170847959E+03    0.24010E-05   -0.15535E-07  1318   0.717E-04    0.837E-05
RMM:  16    -0.413170845861E+03    0.20977E-05   -0.12576E-07  1340   0.685E-04    0.883E-05
RMM:  17    -0.413170843388E+03    0.24731E-05   -0.11440E-07  1360   0.660E-04    0.511E-05
RMM:  18    -0.413170841759E+03    0.16295E-05   -0.71288E-08  1071   0.586E-04    0.211E-05
RMM:  19    -0.413170841240E+03    0.51846E-06   -0.35076E-08   836   0.538E-04
   19 T=    62. E= -.41286661E+03 F= -.41317084E+03 E0= -.41314876E+03  EK= 0.30423E+00 SP= 0.00E+00 SK= 0.00E+00
       N       E                     dE             d eps       ncg     rms          rms(c)
RMM:   1    -0.413164927853E+03    0.59139E-02   -0.10508E+01  4296   0.744E-01    0.902E-01
RMM:   2    -0.413173188088E+03   -0.82602E-02   -0.12719E-01  4252   0.986E-02    0.638E-01
RMM:   3    -0.413171820182E+03    0.13679E-02   -0.91020E-03  4929   0.449E-02    0.161E-01
RMM:   4    -0.413208859215E+03   -0.37039E-01   -0.39282E-02  5138   0.164E-01    0.800E-01
RMM:   5    -0.413171068561E+03    0.37791E-01   -0.18480E-02  4793   0.134E-01    0.478E-02
RMM:   6    -0.413171273389E+03   -0.20483E-03   -0.30189E-03  5756   0.534E-02    0.291E-02
RMM:   7    -0.413171275382E+03   -0.19929E-05   -0.41456E-04  5788   0.179E-02    0.191E-02
RMM:   8    -0.413171267906E+03    0.74755E-05   -0.68195E-05  5149   0.836E-03    0.959E-03
RMM:   9    -0.413171261342E+03    0.65647E-05   -0.14573E-05  4061   0.424E-03    0.655E-03
RMM:  10    -0.413171257828E+03    0.35142E-05   -0.21146E-06  2588   0.213E-03    0.426E-03
RMM:  11    -0.413171254204E+03    0.36238E-05   -0.13979E-06  2513   0.187E-03    0.208E-03
RMM:  12    -0.413171249678E+03    0.45262E-05   -0.13014E-06  2524   0.178E-03    0.722E-04
RMM:  13    -0.413171248627E+03    0.10506E-05   -0.40948E-07  2261   0.114E-03    0.492E-04
RMM:  14    -0.413171248530E+03    0.96996E-07   -0.19392E-07  1712   0.792E-04
   20 T=    62. E= -.41286633E+03 F= -.41317125E+03 E0= -.41314922E+03  EK= 0.30492E+00 SP= 0.00E+00 SK= 0.00E+00
       N       E                     dE             d eps       ncg     rms          rms(c)
RMM:   1    -0.413165776956E+03    0.54717E-02   -0.10552E+01  4295   0.762E-01    0.889E-01
RMM:   2    -0.413174879980E+03   -0.91030E-02   -0.13058E-01  4271   0.982E-02    0.648E-01
RMM:   3    -0.413172625893E+03    0.22541E-02   -0.90230E-03  4852   0.423E-02    0.139E-01
RMM:   4    -0.413201581847E+03   -0.28956E-01   -0.30076E-02  5138   0.144E-01    0.709E-01
RMM:   5    -0.413172135125E+03    0.29447E-01   -0.14525E-02  4796   0.118E-01    0.430E-02
RMM:   6    -0.413172312476E+03   -0.17735E-03   -0.24299E-03  5796   0.472E-02    0.265E-02
RMM:   7    -0.413172320824E+03   -0.83476E-05   -0.33312E-04  5757   0.164E-02    0.172E-02
RMM:   8    -0.413172317231E+03    0.35931E-05   -0.59967E-05  5029   0.788E-03    0.880E-03
RMM:   9    -0.413172313707E+03    0.35235E-05   -0.12438E-05  3887   0.401E-03    0.636E-03
RMM:  10    -0.413172313127E+03    0.58002E-06   -0.17138E-06  2559   0.200E-03
   21 T=    62. E= -.41286653E+03 F= -.41317231E+03 E0= -.41315032E+03  EK= 0.30579E+00 SP= 0.00E+00 SK= 0.00E+00
       N       E                     dE             d eps       ncg     rms          rms(c)
RMM:   1    -0.413167042057E+03    0.52717E-02   -0.10609E+01  4299   0.757E-01    0.910E-01
RMM:   2    -0.413175626841E+03   -0.85848E-02   -0.12941E-01  4300   0.988E-02    0.648E-01
RMM:   3    -0.413176049851E+03   -0.42301E-03   -0.11094E-02  5071   0.643E-02    0.255E-01
RMM:   4    -0.413211101739E+03   -0.35052E-01   -0.47662E-02  5105   0.183E-01    0.801E-01
RMM:   5    -0.413173193414E+03    0.37908E-01   -0.16796E-02  4753   0.133E-01    0.548E-02
RMM:   6    -0.413173325826E+03   -0.13241E-03   -0.28089E-03  5653   0.525E-02    0.271E-02
RMM:   7    -0.413173338377E+03   -0.12550E-04   -0.39861E-04  5980   0.171E-02    0.179E-02
RMM:   8    -0.413173333685E+03    0.46911E-05   -0.66763E-05  5213   0.845E-03    0.826E-03
RMM:   9    -0.413173326944E+03    0.67415E-05   -0.12071E-05  3665   0.392E-03    0.403E-03
RMM:  10    -0.413173324243E+03    0.27007E-05   -0.25428E-06  2609   0.220E-03    0.282E-03
RMM:  11    -0.413173320640E+03    0.36028E-05   -0.10645E-06  2500   0.167E-03    0.143E-03
RMM:  12    -0.413173316735E+03    0.39059E-05   -0.68743E-07  2439   0.134E-03    0.397E-04
RMM:  13    -0.413173314876E+03    0.18588E-05   -0.33015E-07  2011   0.959E-04    0.269E-04
RMM:  14    -0.413173313608E+03    0.12679E-05   -0.18298E-07  1506   0.762E-04    0.183E-04
RMM:  15    -0.413173310860E+03    0.27475E-05   -0.15157E-07  1316   0.719E-04    0.921E-05
RMM:  16    -0.413173308733E+03    0.21269E-05   -0.11570E-07  1317   0.679E-04    0.101E-04
RMM:  17    -0.413173306626E+03    0.21077E-05   -0.92259E-08  1267   0.644E-04    0.640E-05
RMM:  18    -0.413173304292E+03    0.23343E-05   -0.78131E-08  1171   0.610E-04    0.301E-05
RMM:  19    -0.413173303726E+03    0.56578E-06   -0.32698E-08   845   0.542E-04
   22 T=    62. E= -.41286660E+03 F= -.41317330E+03 E0= -.41315136E+03  EK= 0.30670E+00 SP= 0.00E+00 SK= 0.00E+00
       N       E                     dE             d eps       ncg     rms          rms(c)
RMM:   1    -0.413167790749E+03    0.55135E-02   -0.10586E+01  4296   0.761E-01    0.911E-01
RMM:   2    -0.413176253241E+03   -0.84625E-02   -0.12836E-01  4269   0.102E-01    0.641E-01
RMM:   3    -0.413174572981E+03    0.16803E-02   -0.93068E-03  4873   0.469E-02    0.159E-01
RMM:   4    -0.413210168003E+03   -0.35595E-01   -0.37482E-02  5138   0.161E-01    0.785E-01
RMM:   5    -0.413173829235E+03    0.36339E-01   -0.17824E-02  4790   0.132E-01    0.475E-02
RMM:   6    -0.413174035370E+03   -0.20613E-03   -0.30145E-03  5773   0.527E-02    0.295E-02
RMM:   7    -0.413174038942E+03   -0.35720E-05   -0.40375E-04  5763   0.181E-02    0.191E-02
RMM:   8    -0.413174030449E+03    0.84930E-05   -0.71691E-05  5132   0.857E-03    0.101E-02
RMM:   9    -0.413174022482E+03    0.79670E-05   -0.14688E-05  4115   0.433E-03    0.700E-03
RMM:  10    -0.413174017737E+03    0.47452E-05   -0.21708E-06  2592   0.217E-03    0.457E-03
RMM:  11    -0.413174012595E+03    0.51420E-05   -0.15191E-06  2517   0.195E-03    0.223E-03
RMM:  12    -0.413174006332E+03    0.62621E-05   -0.13397E-06  2506   0.184E-03    0.744E-04
RMM:  13    -0.413174004991E+03    0.13412E-05   -0.44038E-07  2279   0.118E-03    0.518E-04
RMM:  14    -0.413174004775E+03    0.21611E-06   -0.20889E-07  1772   0.816E-04
   23 T=    63. E= -.41286637E+03 F= -.41317400E+03 E0= -.41315211E+03  EK= 0.30763E+00 SP= 0.00E+00 SK= 0.00E+00
       N       E                     dE             d eps       ncg     rms          rms(c)
RMM:   1    -0.413169362431E+03    0.46426E-02   -0.10591E+01  4291   0.780E-01    0.892E-01
RMM:   2    -0.413178282909E+03   -0.89205E-02   -0.13108E-01  4270   0.105E-01    0.648E-01
RMM:   3    -0.413175935173E+03    0.23477E-02   -0.89920E-03  4787   0.450E-02    0.140E-01
RMM:   4    -0.413203048380E+03   -0.27113E-01   -0.27908E-02  5137   0.139E-01    0.687E-01
RMM:   5    -0.413175483233E+03    0.27565E-01   -0.13652E-02  4791   0.115E-01    0.421E-02
RMM:   6    -0.413175640130E+03   -0.15690E-03   -0.22744E-03  5800   0.458E-02    0.262E-02
RMM:   7    -0.413175645125E+03   -0.49955E-05   -0.30867E-04  5761   0.162E-02    0.165E-02
RMM:   8    -0.413175640035E+03    0.50904E-05   -0.61057E-05  5018   0.794E-03    0.893E-03
RMM:   9    -0.413175635012E+03    0.50231E-05   -0.12448E-05  3947   0.406E-03    0.647E-03
RMM:  10    -0.413175633214E+03    0.17972E-05   -0.16717E-06  2554   0.202E-03    0.424E-03
RMM:  11    -0.413175630627E+03    0.25869E-05   -0.17763E-06  2546   0.209E-03    0.187E-03
RMM:  12    -0.413175628050E+03    0.25769E-05   -0.10162E-06  2470   0.163E-03    0.640E-04
RMM:  13    -0.413175627635E+03    0.41508E-06   -0.34114E-07  2122   0.101E-03
   24 T=    63. E= -.41286673E+03 F= -.41317563E+03 E0= -.41315378E+03  EK= 0.30890E+00 SP= 0.00E+00 SK= 0.00E+00
       N       E                     dE             d eps       ncg     rms          rms(c)
RMM:   1    -0.413170375425E+03    0.52526E-02   -0.10678E+01  4298   0.785E-01    0.907E-01
RMM:   2    -0.413179166593E+03   -0.87912E-02   -0.13126E-01  4273   0.105E-01    0.653E-01
RMM:   3    -0.413176810231E+03    0.23564E-02   -0.91367E-03  4718   0.445E-02    0.136E-01
RMM:   4    -0.413197367873E+03   -0.20558E-01   -0.21082E-02  5141   0.121E-01    0.601E-01
RMM:   5    -0.413176448404E+03    0.20919E-01   -0.10350E-02  4810   0.999E-02    0.393E-02
RMM:   6    -0.413176555671E+03   -0.10727E-03   -0.17153E-03  5813   0.393E-02    0.233E-02
RMM:   7    -0.413176557894E+03   -0.22227E-05   -0.18817E-04  5620   0.131E-02    0.108E-02
RMM:   8    -0.413176552889E+03    0.50047E-05   -0.31782E-05  4703   0.568E-03    0.716E-03
RMM:   9    -0.413176549417E+03    0.34725E-05   -0.42528E-06  2821   0.243E-03    0.488E-03
RMM:  10    -0.413176548382E+03    0.10351E-05   -0.10772E-06  2493   0.158E-03    0.376E-03
RMM:  11    -0.413176543115E+03    0.52667E-05   -0.18159E-06  2541   0.223E-03    0.180E-03
RMM:  12    -0.413176540613E+03    0.25020E-05   -0.80640E-07  2425   0.152E-03    0.104E-03
RMM:  13    -0.413176540190E+03    0.42342E-06   -0.25939E-07  2032   0.922E-04
   25 T=    63. E= -.41286653E+03 F= -.41317654E+03 E0= -.41315474E+03  EK= 0.31001E+00 SP= 0.00E+00 SK= 0.00E+00
       N       E                     dE             d eps       ncg     rms          rms(c)
RMM:   1    -0.413172173201E+03    0.43674E-02   -0.10695E+01  4295   0.791E-01    0.921E-01
RMM:   2    -0.413179831108E+03   -0.76579E-02   -0.12982E-01  4276   0.107E-01    0.646E-01
RMM:   3    -0.413177905559E+03    0.19255E-02   -0.92907E-03  4599   0.441E-02    0.139E-01
RMM:   4    -0.413192852008E+03   -0.14946E-01   -0.15238E-02  5144   0.103E-01    0.513E-01
RMM:   5    -0.413177769468E+03    0.15083E-01   -0.76012E-03  4823   0.848E-02    0.380E-02
RMM:   6    -0.413177825250E+03   -0.55782E-04   -0.12317E-03  5810   0.333E-02    0.222E-02
RMM:   7    -0.413177822164E+03    0.30861E-05   -0.16258E-04  5625   0.125E-02    0.114E-02
RMM:   8    -0.413177811792E+03    0.10372E-04   -0.31808E-05  4742   0.588E-03    0.717E-03
RMM:   9    -0.413177808701E+03    0.30903E-05   -0.72397E-06  3410   0.323E-03    0.579E-03
RMM:  10    -0.413177803444E+03    0.52573E-05   -0.10673E-06  2512   0.188E-03    0.351E-03
RMM:  11    -0.413177796401E+03    0.70426E-05   -0.11343E-06  2498   0.175E-03    0.171E-03
RMM:  12    -0.413177789232E+03    0.71698E-05   -0.72586E-07  2405   0.139E-03    0.597E-04
RMM:  13    -0.413177787781E+03    0.14510E-05   -0.26656E-07  1986   0.902E-04    0.398E-04
RMM:  14    -0.413177786620E+03    0.11606E-05   -0.12402E-07  1353   0.691E-04    0.321E-04
RMM:  15    -0.413177781161E+03    0.54589E-05   -0.16482E-07  1812   0.771E-04    0.300E-04
RMM:  16    -0.413177780201E+03    0.96023E-06   -0.48883E-08   914   0.572E-04
   26 T=    63. E= -.41286646E+03 F= -.41317778E+03 E0= -.41315603E+03  EK= 0.31132E+00 SP= 0.00E+00 SK= 0.00E+00
       N       E                     dE             d eps       ncg     rms          rms(c)
RMM:   1    -0.413174085489E+03    0.36957E-02   -0.10665E+01  4291   0.793E-01    0.898E-01
RMM:   2    -0.413181843635E+03   -0.77581E-02   -0.13177E-01  4272   0.104E-01    0.648E-01
RMM:   3    -0.413179772065E+03    0.20716E-02   -0.91603E-03  4705   0.462E-02    0.140E-01
RMM:   4    -0.413203498743E+03   -0.23727E-01   -0.24260E-02  5147   0.130E-01    0.643E-01
RMM:   5    -0.413179412954E+03    0.24086E-01   -0.12092E-02  4815   0.107E-01    0.405E-02
RMM:   6    -0.413179530556E+03   -0.11760E-03   -0.19116E-03  5824   0.420E-02    0.248E-02
RMM:   7    -0.413179533011E+03   -0.24547E-05   -0.23198E-04  5698   0.145E-02    0.129E-02
RMM:   8    -0.413179529730E+03    0.32806E-05   -0.48254E-05  4957   0.691E-03    0.858E-03
RMM:   9    -0.413179524614E+03    0.51158E-05   -0.11438E-05  3919   0.382E-03    0.636E-03
RMM:  10    -0.413179522207E+03    0.24077E-05   -0.15403E-06  2546   0.206E-03    0.412E-03
RMM:  11    -0.413179518737E+03    0.34698E-05   -0.16112E-06  2528   0.201E-03    0.197E-03
RMM:  12    -0.413179514514E+03    0.42225E-05   -0.10568E-06  2470   0.167E-03    0.702E-04
RMM:  13    -0.413179513787E+03    0.72733E-06   -0.34582E-07  2146   0.104E-03
   27 T=    64. E= -.41286661E+03 F= -.41317951E+03 E0= -.41315782E+03  EK= 0.31290E+00 SP= 0.00E+00 SK= 0.00E+00
       N       E                     dE             d eps       ncg     rms          rms(c)
RMM:   1    -0.413181486242E+03   -0.19717E-02   -0.10844E+01  4293   0.876E-01    0.907E-01
RMM:   2    -0.413183220352E+03   -0.17341E-02   -0.13434E-01  4271   0.110E-01    0.659E-01
RMM:   3    -0.413180773596E+03    0.24468E-02   -0.93963E-03  4450   0.446E-02    0.124E-01
RMM:   4    -0.413187631691E+03   -0.68581E-02   -0.73304E-03  5156   0.723E-02    0.350E-01
RMM:   5    -0.413180703365E+03    0.69283E-02   -0.34792E-03  4827   0.574E-02    0.333E-02
RMM:   6    -0.413180718562E+03   -0.15197E-04   -0.62406E-04  5823   0.235E-02    0.204E-02
RMM:   7    -0.413180718890E+03   -0.32801E-06   -0.17392E-04  5396   0.130E-02    0.138E-02
RMM:   8    -0.413180705750E+03    0.13141E-04   -0.16873E-05  4150   0.527E-03    0.566E-03
RMM:   9    -0.413180704006E+03    0.17440E-05   -0.40080E-06  2887   0.254E-03    0.400E-03
RMM:  10    -0.413180701755E+03    0.22510E-05   -0.12547E-06  2483   0.187E-03    0.227E-03
RMM:  11    -0.413180698803E+03    0.29517E-05   -0.76433E-07  2454   0.148E-03    0.104E-03
RMM:  12    -0.413180696500E+03    0.23031E-05   -0.37509E-07  2155   0.104E-03    0.468E-04
RMM:  13    -0.413180695190E+03    0.13095E-05   -0.18901E-07  1608   0.771E-04    0.227E-04
RMM:  14    -0.413180693352E+03    0.18383E-05   -0.12100E-07  1316   0.692E-04    0.160E-04
RMM:  15    -0.413180690502E+03    0.28502E-05   -0.10480E-07  1256   0.674E-04    0.804E-05
RMM:  16    -0.413180689381E+03    0.11209E-05   -0.50905E-08   977   0.596E-04    0.538E-05
RMM:  17    -0.413180686413E+03    0.29683E-05   -0.71097E-08  1176   0.623E-04    0.456E-05
RMM:  18    -0.413180685696E+03    0.71630E-06   -0.23838E-08   786   0.543E-04
   28 T=    64. E= -.41286635E+03 F= -.41318069E+03 E0= -.41315904E+03  EK= 0.31434E+00 SP= 0.00E+00 SK= 0.00E+00
       N       E                     dE             d eps       ncg     rms          rms(c)
RMM:   1    -0.413176790411E+03    0.38960E-02   -0.10814E+01  4287   0.805E-01    0.929E-01
RMM:   2    -0.413184941386E+03   -0.81510E-02   -0.13231E-01  4268   0.106E-01    0.653E-01
RMM:   3    -0.413182832211E+03    0.21092E-02   -0.96036E-03  4548   0.458E-02    0.140E-01
RMM:   4    -0.413194792398E+03   -0.11960E-01   -0.12291E-02  5161   0.933E-02    0.459E-01
RMM:   5    -0.413182763290E+03    0.12029E-01   -0.60969E-03  4824   0.757E-02    0.373E-02
RMM:   6    -0.413182798403E+03   -0.35113E-04   -0.10071E-03  5836   0.301E-02    0.233E-02
RMM:   7    -0.413182797455E+03    0.94856E-06   -0.20659E-04  5506   0.141E-02    0.148E-02
RMM:   8    -0.413182780983E+03    0.16472E-04   -0.29632E-05  4651   0.634E-03    0.649E-03
RMM:   9    -0.413182777657E+03    0.33259E-05   -0.57322E-06  3102   0.296E-03    0.500E-03
RMM:  10    -0.413182772526E+03    0.51310E-05   -0.11710E-06  2497   0.189E-03    0.293E-03
RMM:  11    -0.413182766725E+03    0.58008E-05   -0.80498E-07  2471   0.153E-03    0.147E-03
RMM:  12    -0.413182760862E+03    0.58632E-05   -0.56529E-07  2357   0.125E-03    0.667E-04
RMM:  13    -0.413182758822E+03    0.20405E-05   -0.23005E-07  1897   0.860E-04    0.296E-04
RMM:  14    -0.413182756808E+03    0.20137E-05   -0.11916E-07  1302   0.684E-04    0.186E-04
RMM:  15    -0.413182752682E+03    0.41262E-05   -0.98711E-08  1290   0.677E-04    0.918E-05
RMM:  16    -0.413182751010E+03    0.16715E-05   -0.53059E-08  1001   0.610E-04    0.830E-05
RMM:  17    -0.413182748569E+03    0.24408E-05   -0.52015E-08  1091   0.606E-04    0.680E-05
RMM:  18    -0.413182745570E+03    0.29989E-05   -0.55653E-08  1147   0.598E-04    0.405E-05
RMM:  19    -0.413182744899E+03    0.67137E-06   -0.21436E-08   781   0.524E-04
   29 T=    64. E= -.41286664E+03 F= -.41318274E+03 E0= -.41316115E+03  EK= 0.31611E+00 SP= 0.00E+00 SK= 0.00E+00
       N       E                     dE             d eps       ncg     rms          rms(c)
RMM:   1    -0.413178137914E+03    0.46077E-02   -0.10764E+01  4286   0.808E-01    0.908E-01
RMM:   2    -0.413187085198E+03   -0.89473E-02   -0.13362E-01  4268   0.112E-01    0.651E-01
RMM:   3    -0.413184741867E+03    0.23433E-02   -0.93445E-03  4479   0.470E-02    0.134E-01
RMM:   4    -0.413193050405E+03   -0.83085E-02   -0.88126E-03  5161   0.791E-02    0.385E-01
RMM:   5    -0.413184660782E+03    0.83896E-02   -0.42669E-03  4827   0.634E-02    0.352E-02
RMM:   6    -0.413184681859E+03   -0.21076E-04   -0.75640E-04  5814   0.259E-02    0.229E-02
RMM:   7    -0.413184679105E+03    0.27540E-05   -0.19756E-04  5398   0.138E-02    0.143E-02
RMM:   8    -0.413184665076E+03    0.14029E-04   -0.21382E-05  4373   0.573E-03    0.605E-03
RMM:   9    -0.413184662779E+03    0.22973E-05   -0.39166E-06  2878   0.256E-03    0.438E-03
RMM:  10    -0.413184659061E+03    0.37181E-05   -0.11988E-06  2490   0.182E-03    0.245E-03
RMM:  11    -0.413184654813E+03    0.42477E-05   -0.78969E-07  2457   0.150E-03    0.117E-03
RMM:  12    -0.413184651322E+03    0.34911E-05   -0.43644E-07  2243   0.112E-03    0.532E-04
RMM:  13    -0.413184649871E+03    0.14505E-05   -0.19739E-07  1691   0.794E-04    0.241E-04
RMM:  14    -0.413184647782E+03    0.20888E-05   -0.11357E-07  1245   0.682E-04    0.143E-04
RMM:  15    -0.413184644904E+03    0.28779E-05   -0.87792E-08  1182   0.658E-04    0.706E-05
RMM:  16    -0.413184643702E+03    0.12019E-05   -0.50524E-08   974   0.605E-04    0.599E-05
RMM:  17    -0.413184641228E+03    0.24744E-05   -0.56940E-08  1105   0.613E-04    0.348E-05
RMM:  18    -0.413184639482E+03    0.17461E-05   -0.39190E-08   970   0.574E-04    0.211E-05
RMM:  19    -0.413184639001E+03    0.48060E-06   -0.16981E-08   721   0.530E-04
   30 T=    65. E= -.41286672E+03 F= -.41318464E+03 E0= -.41316309E+03  EK= 0.31792E+00 SP= 0.00E+00 SK= 0.00E+00
       N       E                     dE             d eps       ncg     rms          rms(c)
RMM:   1    -0.413186972525E+03   -0.23330E-02   -0.10962E+01  4291   0.892E-01    0.909E-01
RMM:   2    -0.413189290513E+03   -0.23180E-02   -0.14585E-01  4270   0.123E-01    0.666E-01
RMM:   3    -0.413186265139E+03    0.30254E-02   -0.92816E-03  4451   0.481E-02    0.139E-01
RMM:   4    -0.413193643588E+03   -0.73784E-02   -0.79950E-03  5158   0.755E-02    0.362E-01
RMM:   5    -0.413186240681E+03    0.74029E-02   -0.37369E-03  4825   0.595E-02    0.341E-02
RMM:   6    -0.413186262360E+03   -0.21679E-04   -0.67440E-04  5801   0.245E-02    0.225E-02
RMM:   7    -0.413186262543E+03   -0.18296E-06   -0.18929E-04  5369   0.134E-02    0.137E-02
RMM:   8    -0.413186250716E+03    0.11826E-04   -0.18960E-05  4288   0.549E-03    0.581E-03
RMM:   9    -0.413186249413E+03    0.13031E-05   -0.33129E-06  2808   0.243E-03    0.409E-03
RMM:  10    -0.413186247335E+03    0.20787E-05   -0.11460E-06  2484   0.176E-03    0.227E-03
RMM:  11    -0.413186244889E+03    0.24456E-05   -0.77041E-07  2450   0.145E-03    0.106E-03
RMM:  12    -0.413186242804E+03    0.20853E-05   -0.40989E-07  2178   0.107E-03    0.481E-04
RMM:  13    -0.413186241807E+03    0.99700E-06   -0.18473E-07  1582   0.766E-04
   31 T=    65. E= -.41286645E+03 F= -.41318624E+03 E0= -.41316474E+03  EK= 0.31979E+00 SP= 0.00E+00 SK= 0.00E+00
       N       E                     dE             d eps       ncg     rms          rms(c)
RMM:   1    -0.413183071598E+03    0.31712E-02   -0.10961E+01  4292   0.844E-01    0.934E-01
RMM:   2    -0.413191166900E+03   -0.80953E-02   -0.13665E-01  4276   0.120E-01    0.661E-01
RMM:   3    -0.413188918673E+03    0.22482E-02   -0.98170E-03  4270   0.523E-02    0.136E-01
RMM:   4    -0.413189951633E+03   -0.10330E-02   -0.19262E-03  5074   0.361E-02    0.139E-01
RMM:   5    -0.413188915120E+03    0.10365E-02   -0.55852E-04  4787   0.238E-02    0.345E-02
RMM:   6    -0.413188914252E+03    0.86728E-06   -0.25542E-04  5444   0.162E-02    0.252E-02
RMM:   7    -0.413188884460E+03    0.29792E-04   -0.15364E-04  4909   0.119E-02    0.130E-02
RMM:   8    -0.413188880820E+03    0.36399E-05   -0.11879E-05  3553   0.407E-03    0.471E-03
RMM:   9    -0.413188878834E+03    0.19861E-05   -0.18099E-06  2480   0.197E-03    0.263E-03
RMM:  10    -0.413188870150E+03    0.86845E-05   -0.87277E-07  2418   0.148E-03    0.112E-03
RMM:  11    -0.413188865525E+03    0.46245E-05   -0.38213E-07  2045   0.987E-04    0.406E-04
RMM:  12    -0.413188860739E+03    0.47861E-05   -0.22003E-07  1775   0.821E-04    0.229E-04
RMM:  13    -0.413188857460E+03    0.32787E-05   -0.11583E-07  1312   0.679E-04    0.144E-04
RMM:  14    -0.413188851455E+03    0.60049E-05   -0.10091E-07  1263   0.668E-04    0.114E-04
RMM:  15    -0.413188846997E+03    0.44584E-05   -0.72756E-08  1180   0.623E-04    0.793E-05
RMM:  16    -0.413188844060E+03    0.29367E-05   -0.48782E-08   992   0.573E-04    0.470E-05
RMM:  17    -0.413188842168E+03    0.18924E-05   -0.33071E-08   850   0.541E-04    0.257E-05
RMM:  18    -0.413188841552E+03    0.61625E-06   -0.15684E-08   673   0.512E-04
   32 T=    66. E= -.41286677E+03 F= -.41318884E+03 E0= -.41316739E+03  EK= 0.32207E+00 SP= 0.00E+00 SK= 0.00E+00
       N       E                     dE             d eps       ncg     rms          rms(c)
RMM:   1    -0.413184460396E+03    0.43818E-02   -0.10930E+01  4286   0.851E-01    0.921E-01
RMM:   2    -0.413193418235E+03   -0.89578E-02   -0.13751E-01  4273   0.125E-01    0.657E-01
RMM:   3    -0.413190687120E+03    0.27311E-02   -0.95329E-03  4192   0.472E-02    0.138E-01
RMM:   4    -0.413190894709E+03   -0.20759E-03   -0.11189E-03  4822   0.245E-02    0.494E-02
RMM:   5    -0.413190834678E+03    0.60031E-04   -0.12230E-04  4800   0.110E-02    0.390E-02
RMM:   6    -0.413190809015E+03    0.25663E-04   -0.18447E-04  5210   0.136E-02    0.245E-02
RMM:   7    -0.413190782048E+03    0.26967E-04   -0.14262E-04  4790   0.112E-02    0.123E-02
RMM:   8    -0.413190778926E+03    0.31220E-05   -0.10760E-05  3494   0.397E-03    0.446E-03
RMM:   9    -0.413190777519E+03    0.14070E-05   -0.20649E-06  2349   0.189E-03    0.187E-03
RMM:  10    -0.413190769346E+03    0.81732E-05   -0.71352E-07  2239   0.128E-03    0.655E-04
RMM:  11    -0.413190765286E+03    0.40594E-05   -0.21035E-07  1510   0.777E-04    0.295E-04
RMM:  12    -0.413190761995E+03    0.32916E-05   -0.12986E-07  1356   0.695E-04    0.178E-04
RMM:  13    -0.413190757766E+03    0.42285E-05   -0.92406E-08  1112   0.646E-04    0.981E-05
RMM:  14    -0.413190753300E+03    0.44669E-05   -0.59646E-08   909   0.604E-04    0.852E-05
RMM:  15    -0.413190750936E+03    0.23634E-05   -0.33429E-08   728   0.556E-04    0.459E-05
RMM:  16    -0.413190747630E+03    0.33061E-05   -0.43471E-08   916   0.576E-04    0.366E-05
RMM:  17    -0.413190747003E+03    0.62693E-06   -0.11111E-08   540   0.504E-04
   33 T=    66. E= -.41286650E+03 F= -.41319075E+03 E0= -.41316935E+03  EK= 0.32425E+00 SP= 0.00E+00 SK= 0.00E+00
       N       E                     dE             d eps       ncg     rms          rms(c)
RMM:   1    -0.413197587478E+03   -0.68398E-02   -0.11146E+01  4295   0.974E-01    0.914E-01
RMM:   2    -0.413196158412E+03    0.14291E-02   -0.15122E-01  4268   0.136E-01    0.671E-01
RMM:   3    -0.413193136314E+03    0.30221E-02   -0.93884E-03  4249   0.513E-02    0.141E-01
RMM:   4    -0.413194083775E+03   -0.94746E-03   -0.19030E-03  5066   0.371E-02    0.128E-01
RMM:   5    -0.413193209242E+03    0.87453E-03   -0.45961E-04  4751   0.219E-02    0.331E-02
RMM:   6    -0.413193207997E+03    0.12452E-05   -0.21359E-04  5471   0.151E-02    0.237E-02
RMM:   7    -0.413193193360E+03    0.14637E-04   -0.15610E-04  4901   0.117E-02    0.140E-02
RMM:   8    -0.413193188265E+03    0.50952E-05   -0.11510E-05  3518   0.414E-03    0.518E-03
RMM:   9    -0.413193187489E+03    0.77606E-06   -0.20811E-06  2447   0.190E-03
   34 T=    67. E= -.41286652E+03 F= -.41319319E+03 E0= -.41317183E+03  EK= 0.32667E+00 SP= 0.00E+00 SK= 0.00E+00
       N       E                     dE             d eps       ncg     rms          rms(c)
RMM:   1    -0.413189953203E+03    0.32351E-02   -0.11133E+01  4299   0.889E-01    0.939E-01
RMM:   2    -0.413198442535E+03   -0.84893E-02   -0.14266E-01  4257   0.128E-01    0.670E-01
RMM:   3    -0.413195869663E+03    0.25729E-02   -0.97337E-03  4337   0.503E-02    0.139E-01
RMM:   4    -0.413196270556E+03   -0.40089E-03   -0.14595E-03  5106   0.274E-02    0.868E-02
RMM:   5    -0.413195904099E+03    0.36646E-03   -0.25993E-04  4797   0.165E-02    0.377E-02
RMM:   6    -0.413195881945E+03    0.22154E-04   -0.18687E-04  5274   0.141E-02    0.268E-02
RMM:   7    -0.413195859909E+03    0.22035E-04   -0.16483E-04  4734   0.110E-02    0.149E-02
RMM:   8    -0.413195854246E+03    0.56631E-05   -0.11117E-05  3646   0.419E-03    0.603E-03
RMM:   9    -0.413195852751E+03    0.14951E-05   -0.30392E-06  2349   0.185E-03    0.229E-03
RMM:  10    -0.413195841289E+03    0.11462E-04   -0.11713E-06  2270   0.148E-03    0.619E-04
RMM:  11    -0.413195837119E+03    0.41699E-05   -0.31743E-07  1825   0.929E-04    0.318E-04
RMM:  12    -0.413195834049E+03    0.30706E-05   -0.14943E-07  1349   0.726E-04    0.233E-04
RMM:  13    -0.413195828226E+03    0.58226E-05   -0.93317E-08   942   0.639E-04    0.121E-04
RMM:  14    -0.413195822263E+03    0.59628E-05   -0.85519E-08  1126   0.650E-04    0.157E-04
RMM:  15    -0.413195819563E+03    0.27003E-05   -0.45136E-08   846   0.569E-04    0.131E-04
RMM:  16    -0.413195814666E+03    0.48970E-05   -0.58757E-08  1017   0.594E-04    0.470E-05
RMM:  17    -0.413195813756E+03    0.91003E-06   -0.17645E-08   564   0.495E-04
   35 T=    67. E= -.41286671E+03 F= -.41319581E+03 E0= -.41317451E+03  EK= 0.32911E+00 SP= 0.00E+00 SK= 0.00E+00
       N       E                     dE             d eps       ncg     rms          rms(c)
RMM:   1    -0.413192712572E+03    0.31021E-02   -0.11139E+01  4297   0.924E-01    0.938E-01
RMM:   2    -0.413200113210E+03   -0.74006E-02   -0.14383E-01  4250   0.128E-01    0.664E-01
RMM:   3    -0.413197982689E+03    0.21305E-02   -0.98594E-03  4693   0.509E-02    0.158E-01
RMM:   4    -0.413221420929E+03   -0.23438E-01   -0.23775E-02  5165   0.130E-01    0.641E-01
RMM:   5    -0.413197762024E+03    0.23659E-01   -0.11999E-02  4804   0.106E-01    0.434E-02
RMM:   6    -0.413197790057E+03   -0.28033E-04   -0.19030E-03  5851   0.417E-02    0.274E-02
RMM:   7    -0.413197798815E+03   -0.87577E-05   -0.28977E-04  5638   0.161E-02    0.161E-02
RMM:   8    -0.413197785263E+03    0.13551E-04   -0.55092E-05  4991   0.790E-03    0.852E-03
RMM:   9    -0.413197781694E+03    0.35697E-05   -0.12782E-05  4003   0.425E-03    0.594E-03
RMM:  10    -0.413197775480E+03    0.62139E-05   -0.16999E-06  2566   0.218E-03    0.351E-03
RMM:  11    -0.413197770447E+03    0.50333E-05   -0.98414E-07  2496   0.162E-03    0.201E-03
RMM:  12    -0.413197761038E+03    0.94089E-05   -0.11164E-06  2494   0.174E-03    0.908E-04
RMM:  13    -0.413197757143E+03    0.38941E-05   -0.41624E-07  2224   0.114E-03    0.538E-04
RMM:  14    -0.413197756465E+03    0.67886E-06   -0.18605E-07  1637   0.784E-04
   36 T=    67. E= -.41286636E+03 F= -.41319776E+03 E0= -.41317649E+03  EK= 0.33140E+00 SP= 0.00E+00 SK= 0.00E+00
       N       E                     dE             d eps       ncg     rms          rms(c)
RMM:   1    -0.413208998383E+03   -0.11241E-01   -0.11337E+01  4304   0.104E+00    0.921E-01
RMM:   2    -0.413203891016E+03    0.51074E-02   -0.16399E-01  4247   0.141E-01    0.676E-01
RMM:   3    -0.413201018078E+03    0.28729E-02   -0.91662E-03  4631   0.540E-02    0.169E-01
RMM:   4    -0.413220520078E+03   -0.19502E-01   -0.19973E-02  5162   0.120E-01    0.586E-01
RMM:   5    -0.413200855140E+03    0.19665E-01   -0.99354E-03  4804   0.971E-02    0.418E-02
RMM:   6    -0.413200870126E+03   -0.14986E-04   -0.16273E-03  5846   0.383E-02    0.270E-02
RMM:   7    -0.413200879530E+03   -0.94037E-05   -0.27790E-04  5606   0.155E-02    0.158E-02
RMM:   8    -0.413200866117E+03    0.13413E-04   -0.52246E-05  4992   0.780E-03    0.764E-03
RMM:   9    -0.413200863957E+03    0.21608E-05   -0.10124E-05  3716   0.389E-03    0.500E-03
RMM:  10    -0.413200859996E+03    0.39608E-05   -0.14433E-06  2545   0.199E-03    0.306E-03
RMM:  11    -0.413200855769E+03    0.42264E-05   -0.93795E-07  2493   0.156E-03    0.156E-03
RMM:  12    -0.413200850049E+03    0.57202E-05   -0.81803E-07  2422   0.142E-03    0.688E-04
RMM:  13    -0.413200847809E+03    0.22400E-05   -0.31507E-07  2024   0.963E-04    0.407E-04
RMM:  14    -0.413200846945E+03    0.86390E-06   -0.14932E-07  1372   0.716E-04
   37 T=    68. E= -.41286672E+03 F= -.41320085E+03 E0= -.41317963E+03  EK= 0.33413E+00 SP= 0.00E+00 SK= 0.00E+00
       N       E                     dE             d eps       ncg     rms          rms(c)
RMM:   1    -0.413207925505E+03   -0.70777E-02   -0.11419E+01  4305   0.106E+00    0.942E-01
RMM:   2    -0.413206491651E+03    0.14339E-02   -0.15229E-01  4247   0.134E-01    0.680E-01
RMM:   3    -0.413203441361E+03    0.30503E-02   -0.99911E-03  4722   0.541E-02    0.160E-01
RMM:   4    -0.413230426263E+03   -0.26985E-01   -0.27355E-02  5156   0.139E-01    0.686E-01
RMM:   5    -0.413203174074E+03    0.27252E-01   -0.13871E-02  4806   0.114E-01    0.448E-02
RMM:   6    -0.413203214194E+03   -0.40120E-04   -0.21645E-03  5844   0.442E-02    0.284E-02
RMM:   7    -0.413203224472E+03   -0.10279E-04   -0.32662E-04  5691   0.167E-02    0.168E-02
RMM:   8    -0.413203211293E+03    0.13179E-04   -0.61479E-05  5047   0.828E-03    0.885E-03
RMM:   9    -0.413203207980E+03    0.33132E-05   -0.13690E-05  4094   0.439E-03    0.569E-03
RMM:  10    -0.413203202719E+03    0.52604E-05   -0.19315E-06  2588   0.218E-03    0.348E-03
RMM:  11    -0.413203198285E+03    0.44345E-05   -0.10344E-06  2498   0.164E-03    0.194E-03
RMM:  12    -0.413203190208E+03    0.80766E-05   -0.10833E-06  2486   0.170E-03    0.868E-04
RMM:  13    -0.413203186900E+03    0.33080E-05   -0.41426E-07  2230   0.113E-03    0.546E-04
RMM:  14    -0.413203186364E+03    0.53634E-06   -0.18879E-07  1637   0.781E-04
   38 T=    69. E= -.41286657E+03 F= -.41320319E+03 E0= -.41318201E+03  EK= 0.33662E+00 SP= 0.00E+00 SK= 0.00E+00
       N       E                     dE             d eps       ncg     rms          rms(c)
RMM:   1    -0.413204944581E+03   -0.17577E-02   -0.11395E+01  4305   0.105E+00    0.955E-01
RMM:   2    -0.413208615892E+03   -0.36713E-02   -0.15032E-01  4248   0.125E-01    0.674E-01
RMM:   3    -0.413206255359E+03    0.23605E-02   -0.10380E-02  4901   0.544E-02    0.184E-01
RMM:   4    -0.413249022225E+03   -0.42767E-01   -0.44701E-02  5137   0.176E-01    0.859E-01
RMM:   5    -0.413205556154E+03    0.43466E-01   -0.21801E-02  4799   0.144E-01    0.521E-02
RMM:   6    -0.413205672756E+03   -0.11660E-03   -0.34309E-03  5836   0.549E-02    0.312E-02
RMM:   7    -0.413205682917E+03   -0.10161E-04   -0.39653E-04  5716   0.179E-02    0.166E-02
RMM:   8    -0.413205672297E+03    0.10621E-04   -0.53023E-05  4897   0.721E-03    0.893E-03
RMM:   9    -0.413205669492E+03    0.28043E-05   -0.21884E-05  4530   0.474E-03    0.746E-03
RMM:  10    -0.413205661559E+03    0.79332E-05   -0.38309E-06  2817   0.280E-03    0.417E-03
RMM:  11    -0.413205655633E+03    0.59258E-05   -0.18217E-06  2539   0.212E-03    0.246E-03
RMM:  12    -0.413205643617E+03    0.12016E-04   -0.16841E-06  2521   0.215E-03    0.108E-03
RMM:  13    -0.413205639987E+03    0.36300E-05   -0.52206E-07  2394   0.135E-03    0.707E-04
RMM:  14    -0.413205639978E+03    0.89785E-08   -0.22264E-07  1932   0.863E-04
   39 T=    69. E= -.41286657E+03 F= -.41320564E+03 E0= -.41318450E+03  EK= 0.33907E+00 SP= 0.00E+00 SK= 0.00E+00
       N       E                     dE             d eps       ncg     rms          rms(c)
RMM:   1    -0.413221807914E+03   -0.16168E-01   -0.11545E+01  4304   0.117E+00    0.933E-01
RMM:   2    -0.413211790867E+03    0.10017E-01   -0.15843E-01  4252   0.132E-01    0.679E-01
RMM:   3    -0.413209305005E+03    0.24859E-02   -0.10288E-02  4985   0.568E-02    0.201E-01
RMM:   4    -0.413260069486E+03   -0.50764E-01   -0.54895E-02  5132   0.195E-01    0.934E-01
RMM:   5    -0.413208183145E+03    0.51886E-01   -0.25593E-02  4787   0.157E-01    0.555E-02
RMM:   6    -0.413208341246E+03   -0.15810E-03   -0.40916E-03  5829   0.598E-02    0.319E-02
RMM:   7    -0.413208355076E+03   -0.13830E-04   -0.46023E-04  5787   0.190E-02    0.182E-02
RMM:   8    -0.413208354512E+03    0.56364E-06   -0.87403E-05  5205   0.890E-03    0.117E-02
RMM:   9    -0.413208344529E+03    0.99830E-05   -0.26655E-05  4646   0.553E-03    0.685E-03
RMM:  10    -0.413208339892E+03    0.46370E-05   -0.42761E-06  2778   0.289E-03    0.412E-03
RMM:  11    -0.413208335844E+03    0.40486E-05   -0.16958E-06  2513   0.211E-03    0.244E-03
RMM:  12    -0.413208328071E+03    0.77723E-05   -0.13691E-06  2500   0.197E-03    0.816E-04
RMM:  13    -0.413208324487E+03    0.35846E-05   -0.57409E-07  2376   0.134E-03    0.610E-04
RMM:  14    -0.413208323527E+03    0.96014E-06   -0.24954E-07  1960   0.895E-04
   40 T=    70. E= -.41286682E+03 F= -.41320832E+03 E0= -.41318722E+03  EK= 0.34151E+00 SP= 0.00E+00 SK= 0.00E+00
       N       E                     dE             d eps       ncg     rms          rms(c)
RMM:   1    -0.413243882146E+03   -0.35558E-01   -0.11876E+01  4306   0.129E+00    0.944E-01
RMM:   2    -0.413213636785E+03    0.30245E-01   -0.18200E-01  4267   0.143E-01    0.692E-01
RMM:   3    -0.413211885541E+03    0.17512E-02   -0.10504E-02  5041   0.620E-02    0.257E-01
RMM:   4    -0.413268412982E+03   -0.56527E-01   -0.65391E-02  5128   0.213E-01    0.990E-01
RMM:   5    -0.413209882522E+03    0.58530E-01   -0.28300E-02  4777   0.167E-01    0.607E-02
RMM:   6    -0.413210057466E+03   -0.17494E-03   -0.45380E-03  5810   0.635E-02    0.331E-02
RMM:   7    -0.413210073059E+03   -0.15593E-04   -0.54288E-04  5876   0.205E-02    0.218E-02
RMM:   8    -0.413210072999E+03    0.59776E-07   -0.12154E-04  5283   0.107E-02    0.134E-02
RMM:   9    -0.413210059454E+03    0.13545E-04   -0.25932E-05  4627   0.593E-03    0.587E-03
RMM:  10    -0.413210055009E+03    0.44449E-05   -0.55846E-06  2961   0.296E-03    0.365E-03
RMM:  11    -0.413210051272E+03    0.37369E-05   -0.14797E-06  2505   0.200E-03    0.212E-03
RMM:  12    -0.413210044951E+03    0.63210E-05   -0.10088E-06  2478   0.171E-03    0.700E-04
RMM:  13    -0.413210041372E+03    0.35790E-05   -0.48620E-07  2337   0.120E-03    0.397E-04
RMM:  14    -0.413210039775E+03    0.15971E-05   -0.24181E-07  1892   0.864E-04    0.284E-04
RMM:  15    -0.413210036723E+03    0.30518E-05   -0.13858E-07  1379   0.712E-04    0.123E-04
RMM:  16    -0.413210033684E+03    0.30394E-05   -0.96180E-08  1181   0.661E-04    0.102E-04
RMM:  17    -0.413210031303E+03    0.23810E-05   -0.67090E-08  1099   0.631E-04    0.692E-05
RMM:  18    -0.413210028413E+03    0.28898E-05   -0.60426E-08  1182   0.629E-04    0.424E-05
RMM:  19    -0.413210026606E+03    0.18065E-05   -0.37574E-08   991   0.590E-04    0.322E-05
RMM:  20    -0.413210026037E+03    0.56974E-06   -0.23074E-08   848   0.559E-04
   41 T=    70. E= -.41286652E+03 F= -.41321003E+03 E0= -.41318895E+03  EK= 0.34351E+00 SP= 0.00E+00 SK= 0.00E+00
       N       E                     dE             d eps       ncg     rms          rms(c)
RMM:   1    -0.413212940073E+03   -0.29135E-02   -0.11575E+01  4309   0.119E+00    0.967E-01
RMM:   2    -0.413215106153E+03   -0.21661E-02   -0.15647E-01  4291   0.138E-01    0.683E-01
RMM:   3    -0.413216191037E+03   -0.10849E-02   -0.13330E-02  5091   0.759E-02    0.309E-01
RMM:   4    -0.413251316068E+03   -0.35125E-01   -0.51585E-02  5090   0.192E-01    0.817E-01
RMM:   5    -0.413212304910E+03    0.39011E-01   -0.17253E-02  4730   0.136E-01    0.575E-02
RMM:   6    -0.413212371213E+03   -0.66303E-04   -0.30071E-03  5767   0.519E-02    0.321E-02
RMM:   7    -0.413212375884E+03   -0.46706E-05   -0.41443E-04  5776   0.184E-02    0.211E-02
RMM:   8    -0.413212371930E+03    0.39545E-05   -0.10946E-04  5174   0.105E-02    0.116E-02
RMM:   9    -0.413212358283E+03    0.13647E-04   -0.19464E-05  4406   0.545E-03    0.470E-03
RMM:  10    -0.413212353131E+03    0.51525E-05   -0.39982E-06  2796   0.257E-03    0.295E-03
RMM:  11    -0.413212347480E+03    0.56510E-05   -0.11815E-06  2492   0.182E-03    0.160E-03
RMM:  12    -0.413212339628E+03    0.78515E-05   -0.70374E-07  2440   0.146E-03    0.601E-04
RMM:  13    -0.413212335403E+03    0.42252E-05   -0.34483E-07  2101   0.102E-03    0.290E-04
RMM:  14    -0.413212332756E+03    0.26467E-05   -0.18515E-07  1569   0.777E-04    0.184E-04
RMM:  15    -0.413212326737E+03    0.60188E-05   -0.13322E-07  1362   0.720E-04    0.137E-04
RMM:  16    -0.413212324558E+03    0.21791E-05   -0.83932E-08  1162   0.653E-04    0.874E-05
RMM:  17    -0.413212320920E+03    0.36381E-05   -0.72335E-08  1243   0.648E-04    0.627E-05
RMM:  18    -0.413212318271E+03    0.26489E-05   -0.54385E-08  1152   0.605E-04    0.361E-05
RMM:  19    -0.413212316378E+03    0.18934E-05   -0.37943E-08  1004   0.571E-04    0.318E-05
RMM:  20    -0.413212316169E+03    0.20931E-06   -0.18623E-08   747   0.531E-04
   42 T=    70. E= -.41286675E+03 F= -.41321232E+03 E0= -.41319127E+03  EK= 0.34556E+00 SP= 0.00E+00 SK= 0.00E+00
       N       E                     dE             d eps       ncg     rms          rms(c)
RMM:   1    -0.413222385925E+03   -0.10070E-01   -0.11598E+01  4310   0.129E+00    0.944E-01
RMM:   2    -0.413216966497E+03    0.54194E-02   -0.16383E-01  4312   0.147E-01    0.683E-01
RMM:   3    -0.413219137880E+03   -0.21714E-02   -0.13916E-02  5100   0.831E-02    0.345E-01
RMM:   4    -0.413250155283E+03   -0.31017E-01   -0.51065E-02  5073   0.191E-01    0.787E-01
RMM:   5    -0.413214081440E+03    0.36074E-01   -0.15542E-02  4712   0.131E-01    0.572E-02
RMM:   6    -0.413214120581E+03   -0.39140E-04   -0.27202E-03  5731   0.497E-02    0.312E-02
RMM:   7    -0.413214123048E+03   -0.24669E-05   -0.37258E-04  5772   0.178E-02    0.210E-02
RMM:   8    -0.413214119271E+03    0.37762E-05   -0.10343E-04  5151   0.104E-02    0.109E-02
RMM:   9    -0.413214107490E+03    0.11782E-04   -0.18782E-05  4363   0.538E-03    0.424E-03
RMM:  10    -0.413214104019E+03    0.34703E-05   -0.35652E-06  2748   0.246E-03    0.262E-03
RMM:  11    -0.413214099402E+03    0.46171E-05   -0.12214E-06  2491   0.181E-03    0.141E-03
RMM:  12    -0.413214094100E+03    0.53019E-05   -0.64707E-07  2427   0.138E-03    0.577E-04
RMM:  13    -0.413214091091E+03    0.30089E-05   -0.31752E-07  1943   0.959E-04    0.264E-04
RMM:  14    -0.413214088557E+03    0.25345E-05   -0.18031E-07  1470   0.763E-04    0.154E-04
RMM:  15    -0.413214083986E+03    0.45708E-05   -0.13933E-07  1318   0.721E-04    0.114E-04
RMM:  16    -0.413214082335E+03    0.16510E-05   -0.86364E-08  1157   0.655E-04    0.816E-05
RMM:  17    -0.413214078851E+03    0.34842E-05   -0.81849E-08  1318   0.659E-04    0.594E-05
RMM:  18    -0.413214076902E+03    0.19492E-05   -0.51946E-08  1065   0.590E-04    0.370E-05
RMM:  19    -0.413214075790E+03    0.11113E-05   -0.32358E-08   871   0.553E-04    0.231E-05
RMM:  20    -0.413214075382E+03    0.40800E-06   -0.20018E-08   761   0.534E-04
   43 T=    71. E= -.41286685E+03 F= -.41321408E+03 E0= -.41319306E+03  EK= 0.34723E+00 SP= 0.00E+00 SK= 0.00E+00
       N       E                     dE             d eps       ncg     rms          rms(c)
RMM:   1    -0.413237042851E+03   -0.22967E-01   -0.11838E+01  4310   0.140E+00    0.945E-01
RMM:   2    -0.413218088836E+03    0.18954E-01   -0.18591E-01  4313   0.167E-01    0.699E-01
RMM:   3    -0.413221045096E+03   -0.29563E-02   -0.14441E-02  5094   0.904E-02    0.385E-01
RMM:   4    -0.413251290884E+03   -0.30246E-01   -0.53503E-02  5064   0.197E-01    0.792E-01
RMM:   5    -0.413214905631E+03    0.36385E-01   -0.15624E-02  4711   0.133E-01    0.595E-02
RMM:   6    -0.413214930825E+03   -0.25194E-04   -0.27154E-03  5706   0.497E-02    0.312E-02
RMM:   7    -0.413214933777E+03   -0.29516E-05   -0.37419E-04  5814   0.178E-02    0.216E-02
RMM:   8    -0.413214930363E+03    0.34132E-05   -0.10046E-04  5158   0.102E-02    0.108E-02
RMM:   9    -0.413214920203E+03    0.10161E-04   -0.20138E-05  4406   0.554E-03    0.413E-03
RMM:  10    -0.413214917750E+03    0.24533E-05   -0.37803E-06  2765   0.245E-03    0.246E-03
RMM:  11    -0.413214914089E+03    0.36610E-05   -0.14821E-06  2524   0.187E-03    0.141E-03
RMM:  12    -0.413214910550E+03    0.35390E-05   -0.62483E-07  2437   0.137E-03    0.620E-04
RMM:  13    -0.413214908188E+03    0.23619E-05   -0.31439E-07  1846   0.929E-04    0.274E-04
RMM:  14    -0.413214905836E+03    0.23520E-05   -0.19099E-07  1430   0.763E-04    0.149E-04
RMM:  15    -0.413214902718E+03    0.31175E-05   -0.14315E-07  1302   0.712E-04    0.952E-05
RMM:  16    -0.413214900946E+03    0.17727E-05   -0.94342E-08  1172   0.656E-04    0.732E-05
RMM:  17    -0.413214898265E+03    0.26804E-05   -0.81941E-08  1258   0.649E-04    0.506E-05
RMM:  18    -0.413214896478E+03    0.17875E-05   -0.55405E-08  1069   0.594E-04    0.394E-05
RMM:  19    -0.413214895562E+03    0.91604E-06   -0.39005E-08   985   0.577E-04
   44 T=    71. E= -.41286661E+03 F= -.41321490E+03 E0= -.41319390E+03  EK= 0.34828E+00 SP= 0.00E+00 SK= 0.00E+00
       N       E                     dE             d eps       ncg     rms          rms(c)
RMM:   1    -0.413228008030E+03   -0.13112E-01   -0.11731E+01  4309   0.144E+00    0.972E-01
RMM:   2    -0.413218493809E+03    0.95142E-02   -0.16805E-01  4345   0.169E-01    0.691E-01
RMM:   3    -0.413226559948E+03   -0.80661E-02   -0.19368E-02  5123   0.110E-01    0.471E-01
RMM:   4    -0.413236909258E+03   -0.10349E-01   -0.42274E-02  5032   0.178E-01    0.610E-01
RMM:   5    -0.413215945754E+03    0.20964E-01   -0.78440E-03  4617   0.104E-01    0.538E-02
RMM:   6    -0.413215915059E+03    0.30695E-04   -0.15789E-03  5520   0.384E-02    0.295E-02
RMM:   7    -0.413215912253E+03    0.28059E-05   -0.24960E-04  5619   0.154E-02    0.199E-02
RMM:   8    -0.413215904819E+03    0.74342E-05   -0.10357E-04  5079   0.105E-02    0.960E-03
RMM:   9    -0.413215891450E+03    0.13369E-04   -0.14882E-05  4214   0.523E-03    0.386E-03
RMM:  10    -0.413215887632E+03    0.38178E-05   -0.25032E-06  2679   0.218E-03    0.223E-03
RMM:  11    -0.413215880825E+03    0.68066E-05   -0.11154E-06  2478   0.173E-03    0.123E-03
RMM:  12    -0.413215874686E+03    0.61396E-05   -0.53173E-07  2395   0.127E-03    0.588E-04
RMM:  13    -0.413215871064E+03    0.36217E-05   -0.24347E-07  1755   0.857E-04    0.291E-04
RMM:  14    -0.413215867431E+03    0.36333E-05   -0.13650E-07  1295   0.696E-04    0.152E-04
RMM:  15    -0.413215861912E+03    0.55188E-05   -0.11240E-07  1257   0.683E-04    0.124E-04
RMM:  16    -0.413215859371E+03    0.25414E-05   -0.71190E-08  1118   0.627E-04    0.107E-04
RMM:  17    -0.413215855575E+03    0.37953E-05   -0.62555E-08  1172   0.621E-04    0.592E-05
RMM:  18    -0.413215852169E+03    0.34061E-05   -0.55134E-08  1209   0.601E-04    0.498E-05
RMM:  19    -0.413215851573E+03    0.59644E-06   -0.21665E-08   761   0.513E-04
   45 T=    71. E= -.41286689E+03 F= -.41321585E+03 E0= -.41319488E+03  EK= 0.34896E+00 SP= 0.00E+00 SK= 0.00E+00
       N       E                     dE             d eps       ncg     rms          rms(c)
RMM:   1    -0.413250901590E+03   -0.35049E-01   -0.11843E+01  4308   0.162E+00    0.953E-01
RMM:   2    -0.413217959456E+03    0.32942E-01   -0.17780E-01  4366   0.185E-01    0.687E-01
RMM:   3    -0.413228175578E+03   -0.10216E-01   -0.20816E-02  5128   0.119E-01    0.518E-01
RMM:   4    -0.413233183480E+03   -0.50079E-02   -0.41179E-02  5014   0.177E-01    0.570E-01
RMM:   5    -0.413215328836E+03    0.17855E-01   -0.66576E-03  4584   0.988E-02    0.536E-02
RMM:   6    -0.413215280211E+03    0.48625E-04   -0.13028E-03  5395   0.354E-02    0.288E-02
RMM:   7    -0.413215278366E+03    0.18450E-05   -0.20784E-04  5615   0.141E-02    0.190E-02
RMM:   8    -0.413215272979E+03    0.53877E-05   -0.11224E-04  5093   0.108E-02    0.100E-02
RMM:   9    -0.413215258823E+03    0.14155E-04   -0.16392E-05  4334   0.548E-03    0.393E-03
RMM:  10    -0.413215255777E+03    0.30460E-05   -0.27154E-06  2694   0.221E-03    0.225E-03
RMM:  11    -0.413215249598E+03    0.61796E-05   -0.12462E-06  2489   0.180E-03    0.124E-03
RMM:  12    -0.413215244771E+03    0.48267E-05   -0.54651E-07  2409   0.130E-03    0.665E-04
RMM:  13    -0.413215241240E+03    0.35308E-05   -0.24725E-07  1743   0.874E-04    0.329E-04
RMM:  14    -0.413215237739E+03    0.35013E-05   -0.13331E-07  1310   0.694E-04    0.167E-04
RMM:  15    -0.413215233415E+03    0.43235E-05   -0.10043E-07  1188   0.663E-04    0.119E-04
RMM:  16    -0.413215231038E+03    0.23775E-05   -0.65908E-08  1079   0.614E-04    0.110E-04
RMM:  17    -0.413215228112E+03    0.29256E-05   -0.53966E-08  1086   0.600E-04    0.609E-05
RMM:  18    -0.413215224638E+03    0.34739E-05   -0.51897E-08  1111   0.594E-04    0.505E-05
RMM:  19    -0.413215224072E+03    0.56651E-06   -0.18912E-08   707   0.518E-04
   46 T=    71. E= -.41286670E+03 F= -.41321522E+03 E0= -.41319427E+03  EK= 0.34852E+00 SP= 0.00E+00 SK= 0.00E+00
       N       E                     dE             d eps       ncg     rms          rms(c)
RMM:   1    -0.413233206902E+03   -0.17982E-01   -0.11675E+01  4309   0.163E+00    0.940E-01
RMM:   2    -0.413216961731E+03    0.16245E-01   -0.18361E-01  4374   0.196E-01    0.699E-01
RMM:   3    -0.413227777509E+03   -0.10816E-01   -0.21599E-02  5127   0.125E-01    0.541E-01
RMM:   4    -0.413232605287E+03   -0.48278E-02   -0.43913E-02  5010   0.183E-01    0.584E-01
RMM:   5    -0.413213702120E+03    0.18903E-01   -0.70652E-03  4583   0.102E-01    0.552E-02
RMM:   6    -0.413213640539E+03    0.61581E-04   -0.13348E-03  5367   0.362E-02    0.289E-02
RMM:   7    -0.413213637787E+03    0.27520E-05   -0.20912E-04  5651   0.141E-02    0.195E-02
RMM:   8    -0.413213633734E+03    0.40532E-05   -0.11564E-04  5136   0.109E-02    0.103E-02
RMM:   9    -0.413213620567E+03    0.13167E-04   -0.17918E-05  4372   0.568E-03    0.398E-03
RMM:  10    -0.413213618505E+03    0.20617E-05   -0.29539E-06  2709   0.228E-03    0.228E-03
RMM:  11    -0.413213614175E+03    0.43306E-05   -0.14063E-06  2505   0.188E-03    0.129E-03
RMM:  12    -0.413213610961E+03    0.32133E-05   -0.58873E-07  2428   0.135E-03    0.699E-04
RMM:  13    -0.413213608254E+03    0.27078E-05   -0.27893E-07  1779   0.918E-04    0.341E-04
RMM:  14    -0.413213605680E+03    0.25735E-05   -0.15444E-07  1366   0.726E-04    0.177E-04
RMM:  15    -0.413213602694E+03    0.29863E-05   -0.11180E-07  1198   0.674E-04    0.108E-04
RMM:  16    -0.413213600752E+03    0.19417E-05   -0.77746E-08  1143   0.630E-04    0.103E-04
RMM:  17    -0.413213599070E+03    0.16823E-05   -0.52976E-08   996   0.591E-04    0.600E-05
RMM:  18    -0.413213596097E+03    0.29729E-05   -0.62878E-08  1139   0.608E-04    0.437E-05
RMM:  19    -0.413213595687E+03    0.41048E-06   -0.21022E-08   704   0.522E-04
   47 T=    71. E= -.41286663E+03 F= -.41321360E+03 E0= -.41319265E+03  EK= 0.34696E+00 SP= 0.00E+00 SK= 0.00E+00
       N       E                     dE             d eps       ncg     rms          rms(c)
RMM:   1    -0.413248541041E+03   -0.34945E-01   -0.11753E+01  4305   0.179E+00    0.961E-01
RMM:   2    -0.413213525660E+03    0.35015E-01   -0.18803E-01  4453   0.203E-01    0.694E-01
RMM:   3    -0.413231925377E+03   -0.18400E-01   -0.28033E-02  5151   0.145E-01    0.651E-01
RMM:   4    -0.413222055981E+03    0.98694E-02   -0.39989E-02  4976   0.179E-01    0.469E-01
RMM:   5    -0.413210813741E+03    0.11242E-01   -0.46942E-03  4530   0.897E-02    0.558E-02
RMM:   6    -0.413210691905E+03    0.12184E-03   -0.60117E-04  4845   0.289E-02    0.290E-02
RMM:   7    -0.413210687116E+03    0.47893E-05   -0.19274E-04  5927   0.138E-02    0.158E-02
RMM:   8    -0.413210677702E+03    0.94144E-05   -0.10011E-04  5171   0.109E-02    0.118E-02
RMM:   9    -0.413210666646E+03    0.11055E-04   -0.17278E-05  4358   0.536E-03    0.461E-03
RMM:  10    -0.413210663001E+03    0.36448E-05   -0.30414E-06  2684   0.262E-03    0.228E-03
RMM:  11    -0.413210657453E+03    0.55481E-05   -0.19419E-06  2520   0.219E-03    0.152E-03
RMM:  12    -0.413210653093E+03    0.43599E-05   -0.71795E-07  2394   0.153E-03    0.897E-04
RMM:  13    -0.413210649274E+03    0.38193E-05   -0.31921E-07  2041   0.100E-03    0.530E-04
RMM:  14    -0.413210643534E+03    0.57403E-05   -0.21757E-07  1890   0.837E-04    0.428E-04
RMM:  15    -0.413210639818E+03    0.37155E-05   -0.99958E-08  1074   0.610E-04    0.165E-04
RMM:  16    -0.413210637545E+03    0.22737E-05   -0.67559E-08  1003   0.582E-04    0.927E-05
RMM:  17    -0.413210634110E+03    0.34347E-05   -0.64882E-08  1067   0.600E-04    0.697E-05
RMM:  18    -0.413210632197E+03    0.19129E-05   -0.38801E-08   898   0.561E-04    0.650E-05
RMM:  19    -0.413210631253E+03    0.94367E-06   -0.20676E-08   723   0.527E-04
   48 T=    70. E= -.41286683E+03 F= -.41321063E+03 E0= -.41318970E+03  EK= 0.34380E+00 SP= 0.00E+00 SK= 0.00E+00
       N       E                     dE             d eps       ncg     rms          rms(c)
RMM:   1    -0.413245953566E+03   -0.35321E-01   -0.11525E+01  4305   0.190E+00    0.950E-01
RMM:   2    -0.413207344952E+03    0.38609E-01   -0.18451E-01  4497   0.213E-01    0.682E-01
RMM:   3    -0.413232698268E+03   -0.25353E-01   -0.33810E-02  5153   0.162E-01    0.736E-01
RMM:   4    -0.413212446830E+03    0.20251E-01   -0.39012E-02  4949   0.179E-01    0.399E-01
RMM:   5    -0.413204905532E+03    0.75413E-02   -0.43682E-03  4633   0.880E-02    0.626E-02
RMM:   6    -0.413204715248E+03    0.19028E-03   -0.45909E-04  4676   0.291E-02    0.320E-02
RMM:   7    -0.413204717980E+03   -0.27320E-05   -0.22701E-04  5741   0.159E-02    0.230E-02
RMM:   8    -0.413204689031E+03    0.28949E-04   -0.77943E-05  4973   0.100E-02    0.859E-03
RMM:   9    -0.413204681072E+03    0.79595E-05   -0.14520E-05  4092   0.477E-03    0.428E-03
RMM:  10    -0.413204676530E+03    0.45415E-05   -0.18553E-06  2569   0.224E-03    0.246E-03
RMM:  11    -0.413204669670E+03    0.68601E-05   -0.95786E-07  2489   0.163E-03    0.152E-03
RMM:  12    -0.413204665905E+03    0.37651E-05   -0.35296E-07  2282   0.107E-03    0.758E-04
RMM:  13    -0.413204660214E+03    0.56910E-05   -0.31041E-07  1977   0.914E-04    0.397E-04
RMM:  14    -0.413204655578E+03    0.46363E-05   -0.17740E-07  1439   0.739E-04    0.288E-04
RMM:  15    -0.413204651062E+03    0.45160E-05   -0.12708E-07  1198   0.669E-04    0.129E-04
RMM:  16    -0.413204648444E+03    0.26179E-05   -0.81972E-08  1152   0.625E-04    0.932E-05
RMM:  17    -0.413204644441E+03    0.40027E-05   -0.82012E-08  1275   0.634E-04    0.859E-05
RMM:  18    -0.413204643584E+03    0.85658E-06   -0.35353E-08   881   0.539E-04
   49 T=    69. E= -.41286641E+03 F= -.41320464E+03 E0= -.41318371E+03  EK= 0.33824E+00 SP= 0.00E+00 SK= 0.00E+00
       N       E                     dE             d eps       ncg     rms          rms(c)
RMM:   1    -0.413220247685E+03   -0.15603E-01   -0.11098E+01  4304   0.191E+00    0.918E-01
RMM:   2    -0.413200396946E+03    0.19851E-01   -0.18099E-01  4506   0.220E-01    0.684E-01
RMM:   3    -0.413225566236E+03   -0.25169E-01   -0.33661E-02  5159   0.163E-01    0.741E-01
RMM:   4    -0.413205356220E+03    0.20210E-01   -0.40193E-02  4949   0.183E-01    0.403E-01
RMM:   5    -0.413197390378E+03    0.79658E-02   -0.46498E-03  4657   0.909E-02    0.649E-02
RMM:   6    -0.413197175789E+03    0.21459E-03   -0.48089E-04  4666   0.301E-02    0.321E-02
RMM:   7    -0.413197177375E+03   -0.15867E-05   -0.22529E-04  5745   0.159E-02    0.228E-02
RMM:   8    -0.413197150139E+03    0.27237E-04   -0.76101E-05  5007   0.975E-03    0.902E-03
RMM:   9    -0.413197143706E+03    0.64325E-05   -0.15093E-05  4170   0.487E-03    0.425E-03
RMM:  10    -0.413197140125E+03    0.35813E-05   -0.21201E-06  2603   0.227E-03    0.251E-03
RMM:  11    -0.413197135234E+03    0.48907E-05   -0.88830E-07  2483   0.159E-03    0.150E-03
RMM:  12    -0.413197132467E+03    0.27672E-05   -0.35706E-07  2279   0.105E-03    0.763E-04
RMM:  13    -0.413197128215E+03    0.42520E-05   -0.35193E-07  2093   0.950E-04    0.440E-04
RMM:  14    -0.413197125044E+03    0.31711E-05   -0.18398E-07  1395   0.738E-04    0.285E-04
RMM:  15    -0.413197121884E+03    0.31595E-05   -0.13971E-07  1222   0.684E-04    0.130E-04
RMM:  16    -0.413197119859E+03    0.20252E-05   -0.93675E-08  1206   0.644E-04    0.950E-05
RMM:  17    -0.413197117269E+03    0.25898E-05   -0.90820E-08  1322   0.643E-04    0.910E-05
RMM:  18    -0.413197116698E+03    0.57167E-06   -0.38870E-08   913   0.536E-04
[...]
RMM:  19    -0.413161898968E+03   -0.31614E-06   -0.54267E-08   902   0.521E-04
  137 T=    60. E= -.41286743E+03 F= -.41316190E+03 E0= -.41314115E+03  EK= 0.29447E+00 SP= 0.00E+00 SK= 0.00E+00
       N       E                     dE             d eps       ncg     rms          rms(c)
RMM:   1    -0.413159537302E+03    0.23614E-02   -0.80283E+00  4264   0.757E-01    0.815E-01
RMM:   2    -0.413163403087E+03   -0.38658E-02   -0.88644E-02  4291   0.873E-02    0.574E-01
RMM:   3    -0.413161234123E+03    0.21690E-02   -0.13113E-02  4935   0.468E-02    0.108E-01
RMM:   4    -0.413184198875E+03   -0.22965E-01   -0.24798E-02  5133   0.131E-01    0.636E-01
RMM:   5    -0.413160795335E+03    0.23404E-01   -0.11446E-02  4811   0.105E-01    0.510E-02
RMM:   6    -0.413160819005E+03   -0.23670E-04   -0.20412E-03  5682   0.433E-02    0.323E-02
RMM:   7    -0.413160844111E+03   -0.25106E-04   -0.34272E-04  5727   0.162E-02    0.168E-02
RMM:   8    -0.413160850059E+03   -0.59484E-05   -0.46779E-05  5147   0.737E-03    0.811E-03
RMM:   9    -0.413160853701E+03   -0.36416E-05   -0.71598E-06  3170   0.316E-03    0.474E-03
RMM:  10    -0.413160862570E+03   -0.88689E-05   -0.23656E-06  2573   0.219E-03    0.282E-03
RMM:  11    -0.413160870207E+03   -0.76369E-05   -0.14783E-06  2524   0.170E-03    0.131E-03
RMM:  12    -0.413160877588E+03   -0.73816E-05   -0.13077E-06  2478   0.147E-03    0.642E-04
RMM:  13    -0.413160881511E+03   -0.39230E-05   -0.59966E-07  2124   0.108E-03    0.392E-04
RMM:  14    -0.413160883864E+03   -0.23525E-05   -0.30184E-07  1675   0.837E-04    0.269E-04
RMM:  15    -0.413160889139E+03   -0.52752E-05   -0.63211E-07  2035   0.965E-04    0.294E-04
RMM:  16    -0.413160891352E+03   -0.22136E-05   -0.28248E-07  1391   0.719E-04    0.205E-04
RMM:  17    -0.413160892345E+03   -0.99283E-06   -0.13366E-07  1124   0.631E-04
  138 T=    60. E= -.41286723E+03 F= -.41316089E+03 E0= -.41314016E+03  EK= 0.29367E+00 SP= 0.00E+00 SK= 0.00E+00
       N       E                     dE             d eps       ncg     rms          rms(c)
RMM:   1    -0.413158848758E+03    0.20426E-02   -0.84113E+00  4264   0.768E-01    0.798E-01
RMM:   2    -0.413164354179E+03   -0.55054E-02   -0.93546E-02  4300   0.879E-02    0.574E-01
RMM:   3    -0.413162186515E+03    0.21677E-02   -0.11072E-02  4830   0.428E-02    0.869E-02
RMM:   4    -0.413177388727E+03   -0.15202E-01   -0.15830E-02  5137   0.105E-01    0.518E-01
RMM:   5    -0.413162012742E+03    0.15376E-01   -0.76666E-03  4814   0.860E-02    0.449E-02
RMM:   6    -0.413162026542E+03   -0.13800E-04   -0.14051E-03  5654   0.361E-02    0.294E-02
RMM:   7    -0.413162057918E+03   -0.31376E-04   -0.26238E-04  5641   0.140E-02    0.142E-02
RMM:   8    -0.413162068443E+03   -0.10525E-04   -0.36611E-05  4902   0.652E-03    0.727E-03
RMM:   9    -0.413162073979E+03   -0.55364E-05   -0.47741E-06  2937   0.271E-03    0.420E-03
RMM:  10    -0.413162086998E+03   -0.13018E-04   -0.20534E-06  2540   0.207E-03    0.243E-03
RMM:  11    -0.413162098351E+03   -0.11354E-04   -0.13618E-06  2514   0.160E-03    0.107E-03
RMM:  12    -0.413162107176E+03   -0.88250E-05   -0.96590E-07  2402   0.132E-03    0.561E-04
RMM:  13    -0.413162113189E+03   -0.60125E-05   -0.56291E-07  1992   0.100E-03    0.343E-04
RMM:  14    -0.413162116619E+03   -0.34304E-05   -0.29449E-07  1595   0.811E-04    0.239E-04
RMM:  15    -0.413162122471E+03   -0.58520E-05   -0.50630E-07  1917   0.905E-04    0.196E-04
RMM:  16    -0.413162124767E+03   -0.22957E-05   -0.20237E-07  1340   0.675E-04    0.133E-04
RMM:  17    -0.413162125405E+03   -0.63806E-06   -0.88214E-08  1002   0.566E-04
  139 T=    60. E= -.41286747E+03 F= -.41316213E+03 E0= -.41314141E+03  EK= 0.29466E+00 SP= 0.00E+00 SK= 0.00E+00
       N       E                     dE             d eps       ncg     rms          rms(c)
RMM:   1    -0.413157985911E+03    0.41389E-02   -0.88466E+00  4264   0.788E-01    0.809E-01
RMM:   2    -0.413164401976E+03   -0.64161E-02   -0.97975E-02  4295   0.915E-02    0.576E-01
RMM:   3    -0.413162501512E+03    0.19005E-02   -0.92988E-03  4703   0.413E-02    0.886E-02
RMM:   4    -0.413170413983E+03   -0.79125E-02   -0.82888E-03  5165   0.766E-02    0.375E-01
RMM:   5    -0.413162463891E+03    0.79501E-02   -0.40718E-03  4828   0.627E-02    0.397E-02
RMM:   6    -0.413162466061E+03   -0.21697E-05   -0.79022E-04  5599   0.279E-02    0.270E-02
RMM:   7    -0.413162495927E+03   -0.29866E-04   -0.18534E-04  5492   0.116E-02    0.118E-02
RMM:   8    -0.413162503412E+03   -0.74847E-05   -0.27275E-05  4732   0.572E-03    0.640E-03
RMM:   9    -0.413162508119E+03   -0.47076E-05   -0.29370E-06  2717   0.223E-03    0.348E-03
RMM:  10    -0.413162520799E+03   -0.12680E-04   -0.19172E-06  2545   0.192E-03    0.189E-03
RMM:  11    -0.413162529524E+03   -0.87249E-05   -0.10616E-06  2463   0.143E-03    0.936E-04
RMM:  12    -0.413162536819E+03   -0.72950E-05   -0.80058E-07  2174   0.115E-03    0.464E-04
RMM:  13    -0.413162543046E+03   -0.62275E-05   -0.62833E-07  1977   0.973E-04    0.289E-04
RMM:  14    -0.413162546143E+03   -0.30961E-05   -0.29848E-07  1461   0.775E-04    0.239E-04
RMM:  15    -0.413162550191E+03   -0.40489E-05   -0.40239E-07  1698   0.826E-04    0.123E-04
RMM:  16    -0.413162551875E+03   -0.16835E-05   -0.17212E-07  1248   0.655E-04    0.830E-05
RMM:  17    -0.413162552455E+03   -0.57964E-06   -0.83875E-08  1022   0.571E-04
  140 T=    60. E= -.41286732E+03 F= -.41316255E+03 E0= -.41314185E+03  EK= 0.29523E+00 SP= 0.00E+00 SK= 0.00E+00
       N       E                     dE             d eps       ncg     rms          rms(c)
RMM:   1    -0.413156325704E+03    0.62262E-02   -0.91839E+00  4264   0.804E-01    0.823E-01
RMM:   2    -0.413162734208E+03   -0.64085E-02   -0.10042E-01  4293   0.926E-02    0.567E-01
RMM:   3    -0.413161666049E+03    0.10682E-02   -0.79971E-03  4593   0.370E-02    0.108E-01
RMM:   4    -0.413163393944E+03   -0.17279E-02   -0.23049E-03  5171   0.416E-02    0.176E-01
RMM:   5    -0.413161693522E+03    0.17004E-02   -0.94927E-04  4839   0.309E-02    0.368E-02
RMM:   6    -0.413161683470E+03    0.10052E-04   -0.30119E-04  5380   0.182E-02    0.251E-02
RMM:   7    -0.413161698460E+03   -0.14990E-04   -0.11887E-04  5130   0.968E-03    0.109E-02
RMM:   8    -0.413161699659E+03   -0.11992E-05   -0.13805E-05  4073   0.456E-03    0.552E-03
RMM:   9    -0.413161703031E+03   -0.33719E-05   -0.24020E-06  2553   0.201E-03    0.252E-03
RMM:  10    -0.413161711889E+03   -0.88586E-05   -0.22182E-06  2549   0.189E-03    0.119E-03
RMM:  11    -0.413161716403E+03   -0.45135E-05   -0.10874E-06  2405   0.139E-03    0.575E-04
RMM:  12    -0.413161719670E+03   -0.32674E-05   -0.62991E-07  1995   0.104E-03    0.398E-04
RMM:  13    -0.413161723075E+03   -0.34043E-05   -0.66883E-07  1927   0.954E-04    0.253E-04
RMM:  14    -0.413161724665E+03   -0.15906E-05   -0.31902E-07  1412   0.740E-04    0.173E-04
RMM:  15    -0.413161726111E+03   -0.14459E-05   -0.24240E-07  1363   0.709E-04    0.786E-05
RMM:  16    -0.413161727169E+03   -0.10574E-05   -0.17529E-07  1283   0.659E-04    0.723E-05
RMM:  17    -0.413161727447E+03   -0.27892E-06   -0.63749E-08   874   0.534E-04
  141 T=    60. E= -.41286736E+03 F= -.41316173E+03 E0= -.41314103E+03  EK= 0.29437E+00 SP= 0.00E+00 SK= 0.00E+00
       N       E                     dE             d eps       ncg     rms          rms(c)
RMM:   1    -0.413155480851E+03    0.62463E-02   -0.93778E+00  4264   0.815E-01    0.800E-01
RMM:   2    -0.413163386206E+03   -0.79054E-02   -0.10506E-01  4298   0.918E-02    0.565E-01
RMM:   3    -0.413162377848E+03    0.10084E-02   -0.66178E-03  4672   0.342E-02    0.112E-01
RMM:   4    -0.413162814698E+03   -0.43685E-03   -0.10884E-03  5204   0.274E-02    0.876E-02
RMM:   5    -0.413162451608E+03    0.36309E-03   -0.28753E-04  4902   0.178E-02    0.353E-02
RMM:   6    -0.413162424720E+03    0.26889E-04   -0.17074E-04  5202   0.138E-02    0.205E-02
RMM:   7    -0.413162457376E+03   -0.32657E-04   -0.84012E-05  5073   0.793E-03    0.104E-02
RMM:   8    -0.413162459748E+03   -0.23712E-05   -0.96167E-06  3677   0.410E-03    0.544E-03
RMM:   9    -0.413162463364E+03   -0.36168E-05   -0.21455E-06  2512   0.208E-03    0.243E-03
RMM:  10    -0.413162473253E+03   -0.98886E-05   -0.20382E-06  2514   0.191E-03    0.117E-03
RMM:  11    -0.413162482252E+03   -0.89989E-05   -0.15870E-06  2383   0.157E-03    0.609E-04
RMM:  12    -0.413162485421E+03   -0.31688E-05   -0.51146E-07  1929   0.101E-03    0.427E-04
RMM:  13    -0.413162489239E+03   -0.38187E-05   -0.52140E-07  1938   0.916E-04    0.294E-04
RMM:  14    -0.413162492023E+03   -0.27840E-05   -0.42168E-07  1474   0.787E-04    0.138E-04
RMM:  15    -0.413162493067E+03   -0.10441E-05   -0.15615E-07  1112   0.632E-04    0.677E-05
RMM:  16    -0.413162493896E+03   -0.82823E-06   -0.12396E-07  1155   0.612E-04
  142 T=    60. E= -.41286764E+03 F= -.41316249E+03 E0= -.41314181E+03  EK= 0.29485E+00 SP= 0.00E+00 SK= 0.00E+00
       N       E                     dE             d eps       ncg     rms          rms(c)
RMM:   1    -0.413155427819E+03    0.70652E-02   -0.96409E+00  4264   0.826E-01    0.803E-01
RMM:   2    -0.413164587905E+03   -0.91601E-02   -0.10942E-01  4297   0.941E-02    0.574E-01
RMM:   3    -0.413163221180E+03    0.13667E-02   -0.59282E-03  4772   0.358E-02    0.122E-01
RMM:   4    -0.413169940915E+03   -0.67197E-02   -0.71740E-03  5173   0.723E-02    0.346E-01
RMM:   5    -0.413163184893E+03    0.67560E-02   -0.34549E-03  4832   0.576E-02    0.329E-02
RMM:   6    -0.413163169942E+03    0.14951E-04   -0.62770E-04  5603   0.245E-02    0.166E-02
RMM:   7    -0.413163201531E+03   -0.31590E-04   -0.97951E-05  5338   0.896E-03    0.861E-03
RMM:   8    -0.413163215614E+03   -0.14082E-04   -0.20742E-05  4354   0.493E-03    0.475E-03
RMM:   9    -0.413163223257E+03   -0.76427E-05   -0.22840E-06  2634   0.218E-03    0.242E-03
RMM:  10    -0.413163234824E+03   -0.11567E-04   -0.18159E-06  2552   0.182E-03    0.136E-03
RMM:  11    -0.413163244196E+03   -0.93723E-05   -0.14025E-06  2470   0.147E-03    0.577E-04
RMM:  12    -0.413163247990E+03   -0.37946E-05   -0.58145E-07  2016   0.100E-03    0.344E-04
RMM:  13    -0.413163251337E+03   -0.33463E-05   -0.47517E-07  1707   0.893E-04    0.216E-04
RMM:  14    -0.413163253983E+03   -0.26460E-05   -0.47519E-07  1765   0.870E-04    0.146E-04
RMM:  15    -0.413163254767E+03   -0.78414E-06   -0.18468E-07  1258   0.658E-04
  143 T=    60. E= -.41286745E+03 F= -.41316325E+03 E0= -.41314259E+03  EK= 0.29581E+00 SP= 0.00E+00 SK= 0.00E+00
       N       E                     dE             d eps       ncg     rms          rms(c)
RMM:   1    -0.413155115863E+03    0.81381E-02   -0.97676E+00  4264   0.834E-01    0.823E-01
RMM:   2    -0.413163196703E+03   -0.80808E-02   -0.10986E-01  4297   0.954E-02    0.566E-01
RMM:   3    -0.413163064499E+03    0.13220E-03   -0.59797E-03  4939   0.355E-02    0.141E-01
RMM:   4    -0.413178637736E+03   -0.15573E-01   -0.15934E-02  5163   0.106E-01    0.523E-01
RMM:   5    -0.413162942174E+03    0.15696E-01   -0.79507E-03  4830   0.866E-02    0.398E-02
RMM:   6    -0.413162939472E+03    0.27021E-05   -0.13394E-03  5710   0.343E-02    0.160E-02
RMM:   7    -0.413162963294E+03   -0.23823E-04   -0.16920E-04  5620   0.111E-02    0.994E-03
RMM:   8    -0.413162971516E+03   -0.82213E-05   -0.22942E-05  4139   0.480E-03    0.566E-03
RMM:   9    -0.413162977421E+03   -0.59051E-05   -0.39324E-06  2690   0.257E-03    0.254E-03
RMM:  10    -0.413162982475E+03   -0.50540E-05   -0.19948E-06  2563   0.184E-03    0.144E-03
RMM:  11    -0.413162985766E+03   -0.32908E-05   -0.13849E-06  2503   0.148E-03    0.671E-04
RMM:  12    -0.413162987020E+03   -0.12544E-05   -0.77091E-07  2199   0.112E-03    0.321E-04
RMM:  13    -0.413162987350E+03   -0.33006E-06   -0.48770E-07  1767   0.922E-04
  144 T=    60. E= -.41286759E+03 F= -.41316299E+03 E0= -.41314233E+03  EK= 0.29540E+00 SP= 0.00E+00 SK= 0.00E+00
       N       E                     dE             d eps       ncg     rms          rms(c)
RMM:   1    -0.413154607312E+03    0.83797E-02   -0.97084E+00  4264   0.834E-01    0.803E-01
RMM:   2    -0.413163503412E+03   -0.88961E-02   -0.11099E-01  4296   0.945E-02    0.563E-01
RMM:   3    -0.413163255510E+03    0.24790E-03   -0.55167E-03  4942   0.384E-02    0.149E-01
RMM:   4    -0.413186504382E+03   -0.23249E-01   -0.23880E-02  5148   0.129E-01    0.636E-01
RMM:   5    -0.413163030985E+03    0.23473E-01   -0.11770E-02  4820   0.106E-01    0.441E-02
RMM:   6    -0.413163049918E+03   -0.18933E-04   -0.19193E-03  5703   0.412E-02    0.134E-02
RMM:   7    -0.413163080341E+03   -0.30422E-04   -0.23391E-04  5747   0.124E-02    0.995E-03
RMM:   8    -0.413163089018E+03   -0.86774E-05   -0.26848E-05  4032   0.470E-03    0.632E-03
RMM:   9    -0.413163097794E+03   -0.87754E-05   -0.46833E-06  2726   0.271E-03    0.289E-03
RMM:  10    -0.413163104469E+03   -0.66750E-05   -0.23342E-06  2564   0.194E-03    0.145E-03
RMM:  11    -0.413163108565E+03   -0.40965E-05   -0.14149E-06  2502   0.149E-03    0.711E-04
RMM:  12    -0.413163110471E+03   -0.19062E-05   -0.88118E-07  2274   0.117E-03    0.334E-04
RMM:  13    -0.413163110970E+03   -0.49902E-06   -0.45904E-07  1782   0.916E-04
  145 T=    60. E= -.41286748E+03 F= -.41316311E+03 E0= -.41314246E+03  EK= 0.29563E+00 SP= 0.00E+00 SK= 0.00E+00
       N       E                     dE             d eps       ncg     rms          rms(c)
RMM:   1    -0.413155923805E+03    0.71867E-02   -0.96912E+00  4266   0.835E-01    0.795E-01
RMM:   2    -0.413165719768E+03   -0.97960E-02   -0.11379E-01  4293   0.989E-02    0.575E-01
RMM:   3    -0.413164791188E+03    0.92858E-03   -0.55626E-03  4986   0.419E-02    0.150E-01
RMM:   4    -0.413194216175E+03   -0.29425E-01   -0.30857E-02  5144   0.146E-01    0.714E-01
RMM:   5    -0.413164333268E+03    0.29883E-01   -0.14845E-02  4819   0.119E-01    0.481E-02
RMM:   6    -0.413164379626E+03   -0.46359E-04   -0.24103E-03  5689   0.463E-02    0.126E-02
RMM:   7    -0.413164419432E+03   -0.39805E-04   -0.29430E-04  5858   0.137E-02    0.103E-02
RMM:   8    -0.413164431983E+03   -0.12551E-04   -0.33405E-05  4281   0.526E-03    0.645E-03
RMM:   9    -0.413164444104E+03   -0.12121E-04   -0.60179E-06  2850   0.292E-03    0.312E-03
RMM:  10    -0.413164453184E+03   -0.90800E-05   -0.24720E-06  2582   0.199E-03    0.167E-03
RMM:  11    -0.413164459741E+03   -0.65575E-05   -0.15173E-06  2522   0.153E-03    0.889E-04
RMM:  12    -0.413164463582E+03   -0.38404E-05   -0.10705E-06  2330   0.124E-03    0.373E-04
RMM:  13    -0.413164464677E+03   -0.10949E-05   -0.46581E-07  1761   0.912E-04    0.272E-04
RMM:  14    -0.413164465218E+03   -0.54112E-06   -0.77770E-07  2145   0.105E-03
  146 T=    60. E= -.41286735E+03 F= -.41316447E+03 E0= -.41314383E+03  EK= 0.29711E+00 SP= 0.00E+00 SK= 0.00E+00
       N       E                     dE             d eps       ncg     rms          rms(c)
RMM:   1    -0.413157089405E+03    0.73753E-02   -0.95590E+00  4264   0.834E-01    0.814E-01
RMM:   2    -0.413165718062E+03   -0.86287E-02   -0.11113E-01  4294   0.984E-02    0.573E-01
RMM:   3    -0.413165279694E+03    0.43837E-03   -0.62910E-03  5025   0.434E-02    0.162E-01
RMM:   4    -0.413198047765E+03   -0.32768E-01   -0.35130E-02  5135   0.156E-01    0.754E-01
RMM:   5    -0.413164695571E+03    0.33352E-01   -0.16450E-02  4817   0.126E-01    0.536E-02
RMM:   6    -0.413164740040E+03   -0.44469E-04   -0.26886E-03  5662   0.490E-02    0.176E-02
RMM:   7    -0.413164776071E+03   -0.36032E-04   -0.34083E-04  5977   0.148E-02    0.124E-02
RMM:   8    -0.413164784498E+03   -0.84264E-05   -0.44193E-05  5027   0.642E-03    0.708E-03
RMM:   9    -0.413164787994E+03   -0.34961E-05   -0.83705E-06  3119   0.327E-03    0.322E-03
RMM:  10    -0.413164790669E+03   -0.26749E-05   -0.25586E-06  2573   0.211E-03    0.196E-03
RMM:  11    -0.413164792198E+03   -0.15296E-05   -0.15263E-06  2533   0.166E-03    0.119E-03
RMM:  12    -0.413164791724E+03    0.47451E-06   -0.10477E-06  2442   0.132E-03
  147 T=    60. E= -.41286765E+03 F= -.41316479E+03 E0= -.41314416E+03  EK= 0.29714E+00 SP= 0.00E+00 SK= 0.00E+00
       N       E                     dE             d eps       ncg     rms          rms(c)
RMM:   1    -0.413157197397E+03    0.75948E-02   -0.92579E+00  4272   0.823E-01    0.806E-01
RMM:   2    -0.413165217850E+03   -0.80205E-02   -0.10852E-01  4299   0.948E-02    0.569E-01
RMM:   3    -0.413164821459E+03    0.39639E-03   -0.70039E-03  5043   0.470E-02    0.169E-01
RMM:   4    -0.413198491263E+03   -0.33670E-01   -0.37307E-02  5126   0.160E-01    0.766E-01
RMM:   5    -0.413163988848E+03    0.34502E-01   -0.16793E-02  4811   0.128E-01    0.570E-02
RMM:   6    -0.413164018559E+03   -0.29711E-04   -0.27802E-03  5648   0.500E-02    0.210E-02
RMM:   7    -0.413164054579E+03   -0.36020E-04   -0.37062E-04  6037   0.155E-02    0.138E-02
RMM:   8    -0.413164061944E+03   -0.73650E-05   -0.55613E-05  5350   0.744E-03    0.780E-03
RMM:   9    -0.413164062752E+03   -0.80777E-06   -0.10254E-05  3412   0.362E-03    0.333E-03
RMM:  10    -0.413164063998E+03   -0.12464E-05   -0.28521E-06  2607   0.227E-03    0.221E-03
RMM:  11    -0.413164063864E+03    0.13443E-06   -0.17497E-06  2538   0.185E-03
  148 T=    60. E= -.41286734E+03 F= -.41316406E+03 E0= -.41314344E+03  EK= 0.29673E+00 SP= 0.00E+00 SK= 0.00E+00
       N       E                     dE             d eps       ncg     rms          rms(c)
RMM:   1    -0.413159581304E+03    0.44827E-02   -0.89682E+00  4264   0.814E-01    0.790E-01
RMM:   2    -0.413167760534E+03   -0.81792E-02   -0.10768E-01  4305   0.938E-02    0.579E-01
RMM:   3    -0.413167069000E+03    0.69153E-03   -0.84543E-03  5084   0.519E-02    0.183E-01
RMM:   4    -0.413201544446E+03   -0.34475E-01   -0.41197E-02  5117   0.169E-01    0.779E-01
RMM:   5    -0.413165716907E+03    0.35828E-01   -0.17037E-02  4806   0.130E-01    0.606E-02
RMM:   6    -0.413165717430E+03   -0.52266E-06   -0.27426E-03  5611   0.506E-02    0.227E-02
RMM:   7    -0.413165760574E+03   -0.43144E-04   -0.40144E-04  6089   0.166E-02    0.149E-02
RMM:   8    -0.413165771657E+03   -0.11083E-04   -0.68107E-05  5453   0.840E-03    0.838E-03
RMM:   9    -0.413165775339E+03   -0.36817E-05   -0.11876E-05  3602   0.397E-03    0.355E-03
RMM:  10    -0.413165778666E+03   -0.33269E-05   -0.28685E-06  2612   0.229E-03    0.228E-03
RMM:  11    -0.413165781729E+03   -0.30634E-05   -0.20785E-06  2552   0.206E-03    0.153E-03
RMM:  12    -0.413165781744E+03   -0.14723E-07   -0.11670E-06  2525   0.155E-03
  149 T=    61. E= -.41286758E+03 F= -.41316578E+03 E0= -.41314517E+03  EK= 0.29820E+00 SP= 0.00E+00 SK= 0.00E+00
       N       E                     dE             d eps       ncg     rms          rms(c)
RMM:   1    -0.413161662931E+03    0.41188E-02   -0.86377E+00  4270   0.803E-01    0.804E-01
RMM:   2    -0.413168457575E+03   -0.67946E-02   -0.10341E-01  4302   0.931E-02    0.583E-01
RMM:   3    -0.413167397308E+03    0.10603E-02   -0.99771E-03  5069   0.527E-02    0.171E-01
RMM:   4    -0.413200915422E+03   -0.33518E-01   -0.39663E-02  5116   0.166E-01    0.768E-01
RMM:   5    -0.413166173409E+03    0.34742E-01   -0.16557E-02  4806   0.128E-01    0.610E-02
RMM:   6    -0.413166177406E+03   -0.39974E-05   -0.27008E-03  5616   0.502E-02    0.259E-02
RMM:   7    -0.413166214806E+03   -0.37399E-04   -0.40856E-04  6063   0.168E-02    0.161E-02
RMM:   8    -0.413166220877E+03   -0.60713E-05   -0.72679E-05  5455   0.890E-03    0.873E-03
RMM:   9    -0.413166220337E+03    0.53958E-06   -0.11781E-05  3658   0.402E-03    0.373E-03
RMM:  10    -0.413166221521E+03   -0.11838E-05   -0.29564E-06  2630   0.236E-03    0.250E-03
RMM:  11    -0.413166221306E+03    0.21530E-06   -0.19789E-06  2532   0.205E-03
  150 T=    61. E= -.41286750E+03 F= -.41316622E+03 E0= -.41314561E+03  EK= 0.29872E+00 SP= 0.00E+00 SK= 0.00E+00
