       N       E                     dE             d eps       ncg     rms          rms(c)
RMM:   1     0.220126992444E+04    0.22013E+04   -0.52440E+04  2132   0.654E+02
RMM:   2     0.705517951390E+03   -0.14958E+04   -0.16260E+04  2132   0.177E+02
RMM:   3     0.137675931370E+03   -0.56784E+03   -0.65760E+03  2132   0.117E+02
RMM:   4    -0.159354918573E+03   -0.29703E+03   -0.27846E+03  2132   0.936E+01
RMM:   5    -0.287488272337E+03   -0.12813E+03   -0.11449E+03  2132   0.595E+01
RMM:   6    -0.349925859967E+03   -0.62438E+02   -0.55153E+02  2132   0.423E+01
RMM:   7    -0.382747657349E+03   -0.32822E+02   -0.30372E+02  2132   0.293E+01
RMM:   8    -0.404163267172E+03   -0.21416E+02   -0.18415E+02  2132   0.233E+01
RMM:   9    -0.436033659724E+03   -0.31870E+02   -0.30760E+02  6110   0.173E+01
RMM:  10    -0.441358469411E+03   -0.53248E+01   -0.63407E+01  6397   0.539E+00
RMM:  11    -0.442511618693E+03   -0.11531E+01   -0.10917E+01  6216   0.172E+00
RMM:  12    -0.442874374974E+03   -0.36276E+00   -0.24938E+00  6366   0.590E-01    0.134E+02
RMM:  13    -0.425597409899E+03    0.17277E+02   -0.81250E+01  4679   0.119E+01    0.712E+01
RMM:  14    -0.499359445241E+03   -0.73762E+02   -0.54097E+02  5423   0.232E+01    0.307E+01
RMM:  15    -0.415331628610E+03    0.84028E+02   -0.19779E+02  5071   0.163E+01    0.663E+00
RMM:  16    -0.414025321879E+03    0.13063E+01   -0.39112E+01  6074   0.607E+00    0.426E+00
RMM:  17    -0.413215654454E+03    0.80967E+00   -0.24548E+00  5379   0.185E+00    0.245E+00
RMM:  18    -0.413169486722E+03    0.46168E-01   -0.84335E-01  5977   0.937E-01    0.163E+00
RMM:  19    -0.413168373020E+03    0.11137E-02   -0.27508E-01  5700   0.560E-01    0.859E-01
RMM:  20    -0.413186105313E+03   -0.17732E-01   -0.24068E-01  5481   0.525E-01    0.581E-01
RMM:  21    -0.413167837680E+03    0.18268E-01   -0.33365E-02  4982   0.233E-01    0.266E-01
RMM:  22    -0.413165724975E+03    0.21127E-02   -0.16782E-02  6053   0.115E-01    0.142E-01
RMM:  23    -0.413164466728E+03    0.12582E-02   -0.68895E-03  5907   0.780E-02    0.920E-02
RMM:  24    -0.413163237421E+03    0.12293E-02   -0.16654E-03  5218   0.438E-02    0.458E-02
RMM:  25    -0.413162814909E+03    0.42251E-03   -0.83950E-04  5382   0.282E-02    0.322E-02
RMM:  26    -0.413162977174E+03   -0.16226E-03   -0.71808E-04  5877   0.272E-02    0.301E-02
RMM:  27    -0.413163402653E+03   -0.42548E-03   -0.17574E-04  4562   0.191E-02    0.185E-02
RMM:  28    -0.413163862128E+03   -0.45947E-03   -0.16376E-04  5191   0.186E-02    0.101E-02
RMM:  29    -0.413164271576E+03   -0.40945E-03   -0.11156E-04  4407   0.160E-02    0.384E-03
RMM:  30    -0.413164516148E+03   -0.24457E-03   -0.94955E-05  4426   0.112E-02    0.358E-03
RMM:  31    -0.413164602864E+03   -0.86716E-04   -0.42957E-05  3198   0.546E-03    0.336E-03
RMM:  32    -0.413164626625E+03   -0.23761E-04   -0.16113E-05  2916   0.285E-03    0.178E-03
RMM:  33    -0.413164634867E+03   -0.82414E-05   -0.74131E-06  2779   0.216E-03    0.529E-04
RMM:  34    -0.413164636728E+03   -0.18608E-05   -0.40242E-06  2636   0.165E-03    0.741E-04
RMM:  35    -0.413164636791E+03   -0.63290E-07   -0.44452E-06  2305   0.120E-03
    1 T=    61. E= -.41286682E+03 F= -.41316464E+03 E0= -.41314214E+03  EK= 0.29782E+00 SP= 0.00E+00 SK= 0.00E+00
       N       E                     dE             d eps       ncg     rms          rms(c)
RMM:   1    -0.413159232118E+03    0.54046E-02   -0.10012E+01  3992   0.655E-01    0.885E-01
RMM:   2    -0.413167282122E+03   -0.80500E-02   -0.12269E-01  3969   0.923E-02    0.646E-01
RMM:   3    -0.413164518750E+03    0.27634E-02   -0.10721E-02  4731   0.407E-02    0.108E-01
RMM:   4    -0.413182365516E+03   -0.17847E-01   -0.18800E-02  5204   0.114E-01    0.559E-01
RMM:   5    -0.413164231958E+03    0.18134E-01   -0.90212E-03  4852   0.937E-02    0.409E-02
RMM:   6    -0.413164355033E+03   -0.12308E-03   -0.15725E-03  5782   0.385E-02    0.283E-02
RMM:   7    -0.413164358629E+03   -0.35951E-05   -0.30015E-04  5683   0.157E-02    0.162E-02
RMM:   8    -0.413164359667E+03   -0.10388E-05   -0.34619E-05  4673   0.634E-03    0.689E-03
RMM:   9    -0.413164363423E+03   -0.37557E-05   -0.72994E-06  3173   0.291E-03    0.539E-03
RMM:  10    -0.413164368609E+03   -0.51861E-05   -0.15546E-06  2551   0.188E-03    0.328E-03
RMM:  11    -0.413164374764E+03   -0.61552E-05   -0.13028E-06  2525   0.167E-03    0.151E-03
RMM:  12    -0.413164381244E+03   -0.64796E-05   -0.11497E-06  2488   0.150E-03    0.677E-04
RMM:  13    -0.413164382132E+03   -0.88830E-06   -0.45205E-07  2092   0.100E-03
    2 T=    61. E= -.41286662E+03 F= -.41316438E+03 E0= -.41314188E+03  EK= 0.29776E+00 SP= 0.00E+00 SK= 0.00E+00
       N       E                     dE             d eps       ncg     rms          rms(c)
RMM:   1    -0.413160335781E+03    0.40455E-02   -0.10023E+01  4192   0.659E-01    0.907E-01
RMM:   2    -0.413167304200E+03   -0.69684E-02   -0.12074E-01  4006   0.917E-02    0.641E-01
RMM:   3    -0.413165113862E+03    0.21903E-02   -0.10589E-02  4780   0.408E-02    0.125E-01
RMM:   4    -0.413186766093E+03   -0.21652E-01   -0.22181E-02  5181   0.124E-01    0.616E-01
RMM:   5    -0.413164792749E+03    0.21973E-01   -0.10766E-02  4840   0.103E-01    0.429E-02
RMM:   6    -0.413164934886E+03   -0.14214E-03   -0.18437E-03  5800   0.417E-02    0.287E-02
RMM:   7    -0.413164932376E+03    0.25096E-05   -0.32267E-04  5688   0.169E-02    0.178E-02
RMM:   8    -0.413164925609E+03    0.67671E-05   -0.49705E-05  4972   0.768E-03    0.833E-03
RMM:   9    -0.413164924646E+03    0.96250E-06   -0.10003E-05  3605   0.357E-03    0.646E-03
RMM:  10    -0.413164925305E+03   -0.65844E-06   -0.15657E-06  2549   0.206E-03
    3 T=    61. E= -.41286696E+03 F= -.41316493E+03 E0= -.41314243E+03  EK= 0.29796E+00 SP= 0.00E+00 SK= 0.00E+00
       N       E                     dE             d eps       ncg     rms          rms(c)
RMM:   1    -0.413159805083E+03    0.51196E-02   -0.99406E+00  4220   0.661E-01    0.891E-01
RMM:   2    -0.413167093756E+03   -0.72887E-02   -0.12009E-01  4166   0.932E-02    0.635E-01
RMM:   3    -0.413167737051E+03   -0.64329E-03   -0.12596E-02  5129   0.658E-02    0.258E-01
RMM:   4    -0.413197772237E+03   -0.30035E-01   -0.43279E-02  5142   0.176E-01    0.751E-01
RMM:   5    -0.413164586649E+03    0.33186E-01   -0.14170E-02  4758   0.125E-01    0.591E-02
RMM:   6    -0.413164673926E+03   -0.87277E-04   -0.24846E-03  5583   0.499E-02    0.289E-02
RMM:   7    -0.413164696271E+03   -0.22344E-04   -0.40019E-04  6048   0.171E-02    0.180E-02
RMM:   8    -0.413164695482E+03    0.78935E-06   -0.68906E-05  5262   0.896E-03    0.799E-03
RMM:   9    -0.413164693520E+03    0.19620E-05   -0.10256E-05  3525   0.375E-03    0.399E-03
RMM:  10    -0.413164694963E+03   -0.14430E-05   -0.23574E-06  2606   0.224E-03    0.272E-03
RMM:  11    -0.413164696783E+03   -0.18203E-05   -0.14320E-06  2532   0.186E-03    0.152E-03
RMM:  12    -0.413164697861E+03   -0.10779E-05   -0.80032E-07  2496   0.144E-03    0.528E-04
RMM:  13    -0.413164698433E+03   -0.57235E-06   -0.39389E-07  2087   0.100E-03
    4 T=    61. E= -.41286673E+03 F= -.41316470E+03 E0= -.41314221E+03  EK= 0.29796E+00 SP= 0.00E+00 SK= 0.00E+00
       N       E                     dE             d eps       ncg     rms          rms(c)
RMM:   1    -0.413159771160E+03    0.49267E-02   -0.99922E+00  4235   0.667E-01    0.883E-01
RMM:   2    -0.413167677800E+03   -0.79066E-02   -0.12259E-01  4025   0.918E-02    0.645E-01
RMM:   3    -0.413165188844E+03    0.24890E-02   -0.10789E-02  4919   0.418E-02    0.121E-01
RMM:   4    -0.413192995524E+03   -0.27807E-01   -0.28772E-02  5156   0.141E-01    0.696E-01
RMM:   5    -0.413164681088E+03    0.28314E-01   -0.13621E-02  4814   0.116E-01    0.449E-02
RMM:   6    -0.413164864630E+03   -0.18354E-03   -0.23474E-03  5776   0.467E-02    0.289E-02
RMM:   7    -0.413164873404E+03   -0.87746E-05   -0.36706E-04  5764   0.172E-02    0.184E-02
RMM:   8    -0.413164873255E+03    0.14956E-06   -0.56366E-05  4999   0.792E-03    0.857E-03
RMM:   9    -0.413164874958E+03   -0.17031E-05   -0.11452E-05  3757   0.383E-03    0.648E-03
RMM:  10    -0.413164879145E+03   -0.41872E-05   -0.16542E-06  2567   0.204E-03    0.418E-03
RMM:  11    -0.413164884177E+03   -0.50317E-05   -0.13798E-06  2533   0.184E-03    0.203E-03
RMM:  12    -0.413164889989E+03   -0.58127E-05   -0.15424E-06  2562   0.179E-03    0.849E-04
RMM:  13    -0.413164890730E+03   -0.74056E-06   -0.41348E-07  2242   0.111E-03
    5 T=    61. E= -.41286680E+03 F= -.41316489E+03 E0= -.41314241E+03  EK= 0.29809E+00 SP= 0.00E+00 SK= 0.00E+00
       N       E                     dE             d eps       ncg     rms          rms(c)
RMM:   1    -0.413160684069E+03    0.42059E-02   -0.10016E+01  4248   0.675E-01    0.903E-01
RMM:   2    -0.413167687041E+03   -0.70030E-02   -0.12094E-01  4051   0.921E-02    0.643E-01
RMM:   3    -0.413165507394E+03    0.21796E-02   -0.10657E-02  4750   0.406E-02    0.120E-01
RMM:   4    -0.413185569137E+03   -0.20062E-01   -0.20381E-02  5157   0.119E-01    0.594E-01
RMM:   5    -0.413165198937E+03    0.20370E-01   -0.10007E-02  4833   0.985E-02    0.417E-02
RMM:   6    -0.413165328442E+03   -0.12951E-03   -0.16810E-03  5791   0.398E-02    0.270E-02
RMM:   7    -0.413165329018E+03   -0.57515E-06   -0.29249E-04  5683   0.163E-02    0.171E-02
RMM:   8    -0.413165321911E+03    0.71064E-05   -0.49038E-05  4894   0.761E-03    0.818E-03
RMM:   9    -0.413165320889E+03    0.10223E-05   -0.97746E-06  3605   0.356E-03    0.642E-03
RMM:  10    -0.413165321519E+03   -0.63037E-06   -0.14919E-06  2539   0.205E-03
    6 T=    61. E= -.41286700E+03 F= -.41316532E+03 E0= -.41314286E+03  EK= 0.29832E+00 SP= 0.00E+00 SK= 0.00E+00
       N       E                     dE             d eps       ncg     rms          rms(c)
RMM:   1    -0.413160355025E+03    0.49659E-02   -0.99594E+00  4258   0.676E-01    0.898E-01
RMM:   2    -0.413167421420E+03   -0.70664E-02   -0.12020E-01  4197   0.926E-02    0.636E-01
RMM:   3    -0.413167781075E+03   -0.35966E-03   -0.12420E-02  5095   0.633E-02    0.245E-01
RMM:   4    -0.413199728521E+03   -0.31947E-01   -0.43823E-02  5124   0.176E-01    0.769E-01
RMM:   5    -0.413164984869E+03    0.34744E-01   -0.15034E-02  4761   0.127E-01    0.584E-02
RMM:   6    -0.413165094044E+03   -0.10918E-03   -0.26292E-03  5608   0.508E-02    0.295E-02
RMM:   7    -0.413165111007E+03   -0.16963E-04   -0.40402E-04  6017   0.171E-02    0.182E-02
RMM:   8    -0.413165107922E+03    0.30852E-05   -0.68154E-05  5260   0.882E-03    0.803E-03
RMM:   9    -0.413165104348E+03    0.35738E-05   -0.10496E-05  3550   0.374E-03    0.411E-03
RMM:  10    -0.413165104435E+03   -0.86759E-07   -0.24953E-06  2615   0.226E-03
    7 T=    61. E= -.41286668E+03 F= -.41316510E+03 E0= -.41314266E+03  EK= 0.29843E+00 SP= 0.00E+00 SK= 0.00E+00
       N       E                     dE             d eps       ncg     rms          rms(c)
RMM:   1    -0.413160600882E+03    0.45035E-02   -0.99694E+00  4268   0.681E-01    0.881E-01
RMM:   2    -0.413168472874E+03   -0.78720E-02   -0.12204E-01  4147   0.931E-02    0.643E-01
RMM:   3    -0.413166661679E+03    0.18112E-02   -0.11242E-02  5019   0.514E-02    0.165E-01
RMM:   4    -0.413207740924E+03   -0.41079E-01   -0.45651E-02  5141   0.178E-01    0.845E-01
RMM:   5    -0.413165421453E+03    0.42319E-01   -0.19833E-02  4802   0.141E-01    0.529E-02
RMM:   6    -0.413165639729E+03   -0.21828E-03   -0.32822E-03  5743   0.565E-02    0.303E-02
RMM:   7    -0.413165654775E+03   -0.15046E-04   -0.47638E-04  5931   0.188E-02    0.201E-02
RMM:   8    -0.413165654698E+03    0.76987E-07   -0.75087E-05  5243   0.885E-03    0.945E-03
RMM:   9    -0.413165654324E+03    0.37467E-06   -0.14732E-05  4003   0.422E-03    0.596E-03
RMM:  10    -0.413165657618E+03   -0.32948E-05   -0.25687E-06  2629   0.222E-03    0.395E-03
RMM:  11    -0.413165660691E+03   -0.30728E-05   -0.12127E-06  2525   0.172E-03    0.208E-03
RMM:  12    -0.413165664621E+03   -0.39295E-05   -0.15137E-06  2555   0.178E-03    0.731E-04
RMM:  13    -0.413165665882E+03   -0.12615E-05   -0.58027E-07  2310   0.122E-03    0.599E-04
RMM:  14    -0.413165665707E+03    0.17504E-06   -0.23289E-07  1787   0.832E-04
    8 T=    61. E= -.41286687E+03 F= -.41316567E+03 E0= -.41314324E+03  EK= 0.29880E+00 SP= 0.00E+00 SK= 0.00E+00
       N       E                     dE             d eps       ncg     rms          rms(c)
RMM:   1    -0.413161081734E+03    0.45841E-02   -0.10016E+01  4284   0.690E-01    0.898E-01
RMM:   2    -0.413168570814E+03   -0.74891E-02   -0.12163E-01  4156   0.936E-02    0.645E-01
RMM:   3    -0.413166136462E+03    0.24344E-02   -0.10816E-02  4818   0.423E-02    0.122E-01
RMM:   4    -0.413190901865E+03   -0.24765E-01   -0.25436E-02  5148   0.133E-01    0.658E-01
RMM:   5    -0.413165699596E+03    0.25202E-01   -0.12260E-02  4809   0.109E-01    0.439E-02
RMM:   6    -0.413165864411E+03   -0.16482E-03   -0.21194E-03  5776   0.441E-02    0.290E-02
RMM:   7    -0.413165865473E+03   -0.10623E-05   -0.34200E-04  5693   0.171E-02    0.183E-02
RMM:   8    -0.413165859586E+03    0.58871E-05   -0.54247E-05  4974   0.787E-03    0.866E-03
RMM:   9    -0.413165858184E+03    0.14023E-05   -0.10763E-05  3691   0.374E-03    0.665E-03
RMM:  10    -0.413165858986E+03   -0.80222E-06   -0.15491E-06  2552   0.205E-03
    9 T=    61. E= -.41286682E+03 F= -.41316586E+03 E0= -.41314345E+03  EK= 0.29904E+00 SP= 0.00E+00 SK= 0.00E+00
       N       E                     dE             d eps       ncg     rms          rms(c)
RMM:   1    -0.413161424465E+03    0.44337E-02   -0.99860E+00  4300   0.688E-01    0.905E-01
RMM:   2    -0.413168276664E+03   -0.68522E-02   -0.12020E-01  4259   0.927E-02    0.638E-01
RMM:   3    -0.413169206241E+03   -0.92958E-03   -0.13079E-02  5095   0.683E-02    0.268E-01
RMM:   4    -0.413197419737E+03   -0.28213E-01   -0.42127E-02  5110   0.173E-01    0.734E-01
RMM:   5    -0.413165826218E+03    0.31594E-01   -0.13372E-02  4744   0.121E-01    0.581E-02
RMM:   6    -0.413165909429E+03   -0.83212E-04   -0.23599E-03  5574   0.484E-02    0.297E-02
RMM:   7    -0.413165921821E+03   -0.12392E-04   -0.37471E-04  6005   0.169E-02    0.182E-02
RMM:   8    -0.413165916980E+03    0.48406E-05   -0.66683E-05  5218   0.885E-03    0.792E-03
RMM:   9    -0.413165912108E+03    0.48723E-05   -0.97305E-06  3477   0.370E-03    0.399E-03
RMM:  10    -0.413165911079E+03    0.10294E-05   -0.22657E-06  2594   0.221E-03    0.270E-03
RMM:  11    -0.413165909385E+03    0.16937E-05   -0.13031E-06  2519   0.180E-03    0.146E-03
RMM:  12    -0.413165907614E+03    0.17713E-05   -0.76049E-07  2477   0.140E-03    0.499E-04
RMM:  13    -0.413165906694E+03    0.91980E-06   -0.36712E-07  2068   0.988E-04
   10 T=    61. E= -.41286668E+03 F= -.41316591E+03 E0= -.41314352E+03  EK= 0.29923E+00 SP= 0.00E+00 SK= 0.00E+00
       N       E                     dE             d eps       ncg     rms          rms(c)
RMM:   1    -0.413165406414E+03    0.50120E-03   -0.99796E+00  4291   0.721E-01    0.882E-01
RMM:   2    -0.413169338449E+03   -0.39320E-02   -0.12259E-01  4224   0.937E-02    0.641E-01
RMM:   3    -0.413167086212E+03    0.22522E-02   -0.10744E-02  4888   0.455E-02    0.132E-01
RMM:   4    -0.413198771024E+03   -0.31685E-01   -0.33119E-02  5134   0.151E-01    0.742E-01
RMM:   5    -0.413166457313E+03    0.32314E-01   -0.15572E-02  4792   0.124E-01    0.471E-02
RMM:   6    -0.413166661673E+03   -0.20436E-03   -0.26968E-03  5755   0.498E-02    0.303E-02
RMM:   7    -0.413166665628E+03   -0.39552E-05   -0.40369E-04  5751   0.180E-02    0.194E-02
RMM:   8    -0.413166661521E+03    0.41072E-05   -0.63370E-05  5080   0.832E-03    0.928E-03
RMM:   9    -0.413166659822E+03    0.16984E-05   -0.13084E-05  3953   0.407E-03    0.681E-03
RMM:  10    -0.413166661051E+03   -0.12287E-05   -0.18229E-06  2576   0.209E-03    0.438E-03
RMM:  11    -0.413166662514E+03   -0.14636E-05   -0.14408E-06  2535   0.185E-03    0.218E-03
RMM:  12    -0.413166664133E+03   -0.16184E-05   -0.16163E-06  2562   0.187E-03    0.865E-04
RMM:  13    -0.413166664303E+03   -0.17036E-06   -0.45382E-07  2285   0.117E-03
   11 T=    61. E= -.41286699E+03 F= -.41316666E+03 E0= -.41314430E+03  EK= 0.29968E+00 SP= 0.00E+00 SK= 0.00E+00
       N       E                     dE             d eps       ncg     rms          rms(c)
RMM:   1    -0.413161850205E+03    0.48139E-02   -0.10012E+01  4295   0.699E-01    0.893E-01
RMM:   2    -0.413169379096E+03   -0.75289E-02   -0.12231E-01  4231   0.946E-02    0.648E-01
RMM:   3    -0.413166909917E+03    0.24692E-02   -0.10902E-02  4815   0.425E-02    0.119E-01
RMM:   4    -0.413192117220E+03   -0.25207E-01   -0.25994E-02  5134   0.134E-01    0.663E-01
RMM:   5    -0.413166474394E+03    0.25643E-01   -0.12452E-02  4802   0.110E-01    0.437E-02
RMM:   6    -0.413166638774E+03   -0.16438E-03   -0.21509E-03  5793   0.441E-02    0.281E-02
RMM:   7    -0.413166643405E+03   -0.46310E-05   -0.32660E-04  5710   0.168E-02    0.179E-02
RMM:   8    -0.413166638022E+03    0.53830E-05   -0.59285E-05  4977   0.810E-03    0.890E-03
RMM:   9    -0.413166636348E+03    0.16736E-05   -0.11638E-05  3848   0.392E-03    0.680E-03
RMM:  10    -0.413166637271E+03   -0.92282E-06   -0.15798E-06  2549   0.205E-03
   12 T=    61. E= -.41286670E+03 F= -.41316664E+03 E0= -.41314431E+03  EK= 0.29993E+00 SP= 0.00E+00 SK= 0.00E+00
       N       E                     dE             d eps       ncg     rms          rms(c)
RMM:   1    -0.413162926220E+03    0.37101E-02   -0.10007E+01  4300   0.704E-01    0.910E-01
RMM:   2    -0.413169368147E+03   -0.64419E-02   -0.12048E-01  4269   0.926E-02    0.640E-01
RMM:   3    -0.413170702989E+03   -0.13348E-02   -0.13448E-02  5125   0.675E-02    0.275E-01
RMM:   4    -0.413197970640E+03   -0.27268E-01   -0.42142E-02  5097   0.173E-01    0.725E-01
RMM:   5    -0.413167096807E+03    0.30874E-01   -0.12904E-02  4720   0.119E-01    0.579E-02
RMM:   6    -0.413167180075E+03   -0.83268E-04   -0.23203E-03  5563   0.476E-02    0.299E-02
RMM:   7    -0.413167188476E+03   -0.84010E-05   -0.37076E-04  5997   0.168E-02    0.184E-02
RMM:   8    -0.413167181744E+03    0.67321E-05   -0.66768E-05  5216   0.886E-03    0.801E-03
RMM:   9    -0.413167175579E+03    0.61655E-05   -0.97501E-06  3494   0.372E-03    0.401E-03
RMM:  10    -0.413167173694E+03    0.18849E-05   -0.21743E-06  2584   0.219E-03    0.270E-03
RMM:  11    -0.413167170770E+03    0.29240E-05   -0.12643E-06  2517   0.179E-03    0.147E-03
RMM:  12    -0.413167167983E+03    0.27871E-05   -0.73274E-07  2466   0.139E-03    0.503E-04
RMM:  13    -0.413167166542E+03    0.14406E-05   -0.35902E-07  2072   0.988E-04    0.309E-04
RMM:  14    -0.413167165258E+03    0.12845E-05   -0.21507E-07  1609   0.794E-04    0.217E-04
RMM:  15    -0.413167163182E+03    0.20757E-05   -0.19664E-07  1491   0.746E-04    0.117E-04
RMM:  16    -0.413167161163E+03    0.20191E-05   -0.16114E-07  1437   0.701E-04    0.121E-04
RMM:  17    -0.413167159068E+03    0.20949E-05   -0.13800E-07  1337   0.662E-04    0.638E-05
RMM:  18    -0.413167157899E+03    0.11692E-05   -0.76826E-08  1053   0.583E-04    0.319E-05
RMM:  19    -0.413167157181E+03    0.71767E-06   -0.43781E-08   872   0.547E-04
   13 T=    61. E= -.41286679E+03 F= -.41316716E+03 E0= -.41314486E+03  EK= 0.30037E+00 SP= 0.00E+00 SK= 0.00E+00
       N       E                     dE             d eps       ncg     rms          rms(c)
RMM:   1    -0.413162924857E+03    0.42330E-02   -0.99303E+00  4293   0.705E-01    0.885E-01
RMM:   2    -0.413170413439E+03   -0.74886E-02   -0.12114E-01  4243   0.931E-02    0.639E-01
RMM:   3    -0.413168379381E+03    0.20341E-02   -0.10865E-02  4918   0.454E-02    0.139E-01
RMM:   4    -0.413202685427E+03   -0.34306E-01   -0.36329E-02  5132   0.158E-01    0.771E-01
RMM:   5    -0.413167655688E+03    0.35030E-01   -0.16886E-02  4792   0.128E-01    0.488E-02
RMM:   6    -0.413167867691E+03   -0.21200E-03   -0.28969E-03  5752   0.515E-02    0.312E-02
RMM:   7    -0.413167869987E+03   -0.22952E-05   -0.42391E-04  5731   0.184E-02    0.200E-02
RMM:   8    -0.413167864232E+03    0.57545E-05   -0.65933E-05  5126   0.852E-03    0.946E-03
RMM:   9    -0.413167861239E+03    0.29929E-05   -0.13776E-05  4028   0.416E-03    0.677E-03
RMM:  10    -0.413167861170E+03    0.69249E-07   -0.19152E-06  2566   0.210E-03
   14 T=    61. E= -.41286694E+03 F= -.41316786E+03 E0= -.41314559E+03  EK= 0.30092E+00 SP= 0.00E+00 SK= 0.00E+00
       N       E                     dE             d eps       ncg     rms          rms(c)
RMM:   1    -0.413163103535E+03    0.47577E-02   -0.10016E+01  4305   0.709E-01    0.891E-01
RMM:   2    -0.413170839293E+03   -0.77358E-02   -0.12280E-01  4293   0.947E-02    0.650E-01
RMM:   3    -0.413172948692E+03   -0.21094E-02   -0.14898E-02  5126   0.769E-02    0.317E-01
RMM:   4    -0.413196762631E+03   -0.23814E-01   -0.43502E-02  5087   0.177E-01    0.701E-01
RMM:   5    -0.413167795019E+03    0.28968E-01   -0.11453E-02  4695   0.115E-01    0.576E-02
RMM:   6    -0.413167850291E+03   -0.55272E-04   -0.21288E-03  5512   0.454E-02    0.280E-02
RMM:   7    -0.413167867873E+03   -0.17581E-04   -0.34356E-04  5987   0.165E-02    0.175E-02
RMM:   8    -0.413167867697E+03    0.17551E-06   -0.65737E-05  5205   0.883E-03    0.767E-03
RMM:   9    -0.413167865673E+03    0.20241E-05   -0.92827E-06  3430   0.375E-03    0.373E-03
RMM:  10    -0.413167866790E+03   -0.11173E-05   -0.19690E-06  2567   0.212E-03    0.245E-03
RMM:  11    -0.413167868380E+03   -0.15901E-05   -0.14518E-06  2533   0.185E-03    0.151E-03
RMM:  12    -0.413167868853E+03   -0.47278E-06   -0.70351E-07  2465   0.138E-03
   15 T=    61. E= -.41286655E+03 F= -.41316787E+03 E0= -.41314563E+03  EK= 0.30131E+00 SP= 0.00E+00 SK= 0.00E+00
       N       E                     dE             d eps       ncg     rms          rms(c)
RMM:   1    -0.413164576088E+03    0.32923E-02   -0.10023E+01  4299   0.712E-01    0.912E-01
RMM:   2    -0.413171432177E+03   -0.68561E-02   -0.12107E-01  4249   0.947E-02    0.644E-01
RMM:   3    -0.413169489792E+03    0.19424E-02   -0.11250E-02  4937   0.460E-02    0.147E-01
RMM:   4    -0.413205127370E+03   -0.35638E-01   -0.37953E-02  5134   0.162E-01    0.786E-01
RMM:   5    -0.413168705731E+03    0.36422E-01   -0.17506E-02  4783   0.131E-01    0.504E-02
RMM:   6    -0.413168928384E+03   -0.22265E-03   -0.30976E-03  5753   0.532E-02    0.325E-02
RMM:   7    -0.413168927023E+03    0.13604E-05   -0.45033E-04  5758   0.193E-02    0.210E-02
RMM:   8    -0.413168916444E+03    0.10579E-04   -0.73382E-05  5139   0.899E-03    0.104E-02
RMM:   9    -0.413168909731E+03    0.67125E-05   -0.14710E-05  4112   0.433E-03    0.741E-03
RMM:  10    -0.413168905869E+03    0.38622E-05   -0.20963E-06  2580   0.222E-03    0.471E-03
RMM:  11    -0.413168902680E+03    0.31892E-05   -0.13777E-06  2532   0.183E-03    0.257E-03
RMM:  12    -0.413168897154E+03    0.55261E-05   -0.17765E-06  2565   0.203E-03    0.951E-04
RMM:  13    -0.413168895151E+03    0.20029E-05   -0.56371E-07  2371   0.131E-03    0.717E-04
RMM:  14    -0.413168895293E+03   -0.14223E-06   -0.24619E-07  1921   0.868E-04
   16 T=    61. E= -.41286690E+03 F= -.41316890E+03 E0= -.41314670E+03  EK= 0.30200E+00 SP= 0.00E+00 SK= 0.00E+00
       N       E                     dE             d eps       ncg     rms          rms(c)
RMM:   1    -0.413164733818E+03    0.41613E-02   -0.99402E+00  4297   0.713E-01    0.892E-01
RMM:   2    -0.413172072598E+03   -0.73388E-02   -0.12097E-01  4254   0.940E-02    0.639E-01
RMM:   3    -0.413169715864E+03    0.23567E-02   -0.10778E-02  4835   0.437E-02    0.128E-01
RMM:   4    -0.413197592365E+03   -0.27877E-01   -0.28994E-02  5133   0.141E-01    0.697E-01
RMM:   5    -0.413169197324E+03    0.28395E-01   -0.13840E-02  4796   0.116E-01    0.459E-02
RMM:   6    -0.413169376114E+03   -0.17879E-03   -0.24208E-03  5794   0.468E-02    0.298E-02
RMM:   7    -0.413169376558E+03   -0.44335E-06   -0.35827E-04  5694   0.176E-02    0.188E-02
RMM:   8    -0.413169367251E+03    0.93069E-05   -0.64091E-05  5021   0.843E-03    0.946E-03
RMM:   9    -0.413169362420E+03    0.48306E-05   -0.12851E-05  3987   0.410E-03    0.711E-03
RMM:  10    -0.413169360210E+03    0.22103E-05   -0.16852E-06  2551   0.210E-03    0.453E-03
RMM:  11    -0.413169357892E+03    0.23174E-05   -0.13583E-06  2522   0.185E-03    0.232E-03
RMM:  12    -0.413169354472E+03    0.34201E-05   -0.14678E-06  2537   0.185E-03    0.846E-04
RMM:  13    -0.413169353478E+03    0.99387E-06   -0.44391E-07  2270   0.118E-03
   17 T=    62. E= -.41286680E+03 F= -.41316935E+03 E0= -.41314719E+03  EK= 0.30256E+00 SP= 0.00E+00 SK= 0.00E+00
       N       E                     dE             d eps       ncg     rms          rms(c)
RMM:   1    -0.413165203416E+03    0.41511E-02   -0.10014E+01  4300   0.723E-01    0.889E-01
RMM:   2    -0.413172849488E+03   -0.76461E-02   -0.12330E-01  4259   0.956E-02    0.651E-01
RMM:   3    -0.413170197334E+03    0.26522E-02   -0.11338E-02  4854   0.449E-02    0.121E-01
RMM:   4    -0.413199101886E+03   -0.28905E-01   -0.30152E-02  5127   0.144E-01    0.709E-01
RMM:   5    -0.413169651126E+03    0.29451E-01   -0.14331E-02  4792   0.118E-01    0.456E-02
RMM:   6    -0.413169833462E+03   -0.18234E-03   -0.24731E-03  5789   0.474E-02    0.289E-02
RMM:   7    -0.413169839548E+03   -0.60860E-05   -0.36156E-04  5732   0.175E-02    0.186E-02
RMM:   8    -0.413169833924E+03    0.56246E-05   -0.66289E-05  5024   0.846E-03    0.946E-03
RMM:   9    -0.413169830959E+03    0.29652E-05   -0.13298E-05  4041   0.416E-03    0.706E-03
RMM:  10    -0.413169831068E+03   -0.10973E-06   -0.17310E-06  2556   0.209E-03
   18 T=    62. E= -.41286666E+03 F= -.41316983E+03 E0= -.41314771E+03  EK= 0.30318E+00 SP= 0.00E+00 SK= 0.00E+00
       N       E                     dE             d eps       ncg     rms          rms(c)
RMM:   1    -0.413166801948E+03    0.30290E-02   -0.10036E+01  4302   0.724E-01    0.911E-01
RMM:   2    -0.413173590705E+03   -0.67888E-02   -0.12189E-01  4323   0.950E-02    0.647E-01
RMM:   3    -0.413175627590E+03   -0.20369E-02   -0.14534E-02  5112   0.746E-02    0.305E-01
RMM:   4    -0.413199503688E+03   -0.23876E-01   -0.41799E-02  5082   0.173E-01    0.696E-01
RMM:   5    -0.413171032044E+03    0.28472E-01   -0.11446E-02  4695   0.114E-01    0.572E-02
RMM:   6    -0.413171087726E+03   -0.55682E-04   -0.21332E-03  5530   0.454E-02    0.297E-02
RMM:   7    -0.413171095386E+03   -0.76594E-05   -0.34813E-04  5977   0.166E-02    0.183E-02
RMM:   8    -0.413171087925E+03    0.74606E-05   -0.65317E-05  5169   0.889E-03    0.787E-03
RMM:   9    -0.413171080917E+03    0.70080E-05   -0.92302E-06  3444   0.374E-03    0.388E-03
RMM:  10    -0.413171078504E+03    0.24129E-05   -0.20264E-06  2570   0.215E-03    0.257E-03
RMM:  11    -0.413171074526E+03    0.39781E-05   -0.12395E-06  2512   0.179E-03    0.146E-03
RMM:  12    -0.413171071067E+03    0.34590E-05   -0.65480E-07  2447   0.136E-03    0.498E-04
RMM:  13    -0.413171069089E+03    0.19777E-05   -0.32573E-07  2038   0.962E-04    0.297E-04
RMM:  14    -0.413171067365E+03    0.17244E-05   -0.18941E-07  1542   0.774E-04    0.207E-04
RMM:  15    -0.413171064561E+03    0.28038E-05   -0.16052E-07  1376   0.723E-04    0.109E-04
RMM:  16    -0.413171062054E+03    0.25069E-05   -0.12908E-07  1361   0.683E-04    0.113E-04
RMM:  17    -0.413171059223E+03    0.28313E-05   -0.11841E-07  1372   0.659E-04    0.627E-05
RMM:  18    -0.413171057731E+03    0.14917E-05   -0.61091E-08   991   0.574E-04    0.359E-05
RMM:  19    -0.413171056874E+03    0.85759E-06   -0.33741E-08   839   0.543E-04
   19 T=    62. E= -.41286699E+03 F= -.41317106E+03 E0= -.41314898E+03  EK= 0.30406E+00 SP= 0.00E+00 SK= 0.00E+00
       N       E                     dE             d eps       ncg     rms          rms(c)
RMM:   1    -0.413167035383E+03    0.40223E-02   -0.99711E+00  4298   0.724E-01    0.900E-01
RMM:   2    -0.413173778197E+03   -0.67428E-02   -0.12124E-01  4260   0.940E-02    0.641E-01
RMM:   3    -0.413172010360E+03    0.17678E-02   -0.11221E-02  4932   0.469E-02    0.147E-01
RMM:   4    -0.413207996286E+03   -0.35986E-01   -0.38506E-02  5136   0.163E-01    0.790E-01
RMM:   5    -0.413171210818E+03    0.36785E-01   -0.17891E-02  4789   0.132E-01    0.502E-02
RMM:   6    -0.413171414426E+03   -0.20361E-03   -0.30043E-03  5747   0.534E-02    0.325E-02
RMM:   7    -0.413171412972E+03    0.14543E-05   -0.45265E-04  5736   0.192E-02    0.208E-02
RMM:   8    -0.413171402860E+03    0.10112E-04   -0.73065E-05  5167   0.899E-03    0.101E-02
RMM:   9    -0.413171396251E+03    0.66091E-05   -0.14923E-05  4131   0.435E-03    0.710E-03
RMM:  10    -0.413171392650E+03    0.36012E-05   -0.20810E-06  2580   0.218E-03    0.455E-03
RMM:  11    -0.413171389538E+03    0.31120E-05   -0.12550E-06  2515   0.178E-03    0.245E-03
RMM:  12    -0.413171384605E+03    0.49330E-05   -0.15966E-06  2541   0.195E-03    0.921E-04
RMM:  13    -0.413171382757E+03    0.18479E-05   -0.51232E-07  2345   0.127E-03    0.693E-04
RMM:  14    -0.413171382919E+03   -0.16252E-06   -0.23366E-07  1876   0.848E-04
   20 T=    62. E= -.41286670E+03 F= -.41317138E+03 E0= -.41314935E+03  EK= 0.30469E+00 SP= 0.00E+00 SK= 0.00E+00
       N       E                     dE             d eps       ncg     rms          rms(c)
RMM:   1    -0.413167818312E+03    0.35644E-02   -0.10013E+01  4294   0.734E-01    0.889E-01
RMM:   2    -0.413175537865E+03   -0.77196E-02   -0.12384E-01  4273   0.960E-02    0.651E-01
RMM:   3    -0.413172882681E+03    0.26552E-02   -0.11445E-02  4835   0.460E-02    0.120E-01
RMM:   4    -0.413200793309E+03   -0.27911E-01   -0.29078E-02  5130   0.141E-01    0.697E-01
RMM:   5    -0.413172357623E+03    0.28436E-01   -0.13878E-02  4795   0.116E-01    0.454E-02
RMM:   6    -0.413172528507E+03   -0.17088E-03   -0.24258E-03  5813   0.465E-02    0.288E-02
RMM:   7    -0.413172532692E+03   -0.41854E-05   -0.34528E-04  5699   0.172E-02    0.181E-02
RMM:   8    -0.413172526100E+03    0.65921E-05   -0.67069E-05  5012   0.850E-03    0.963E-03
RMM:   9    -0.413172522055E+03    0.40456E-05   -0.13350E-05  4071   0.420E-03    0.716E-03
RMM:  10    -0.413172521261E+03    0.79385E-06   -0.17003E-06  2552   0.210E-03
   21 T=    62. E= -.41286689E+03 F= -.41317252E+03 E0= -.41315053E+03  EK= 0.30563E+00 SP= 0.00E+00 SK= 0.00E+00
       N       E                     dE             d eps       ncg     rms          rms(c)
RMM:   1    -0.413169532666E+03    0.29894E-02   -0.10059E+01  4296   0.746E-01    0.908E-01
RMM:   2    -0.413176436339E+03   -0.69037E-02   -0.12294E-01  4316   0.972E-02    0.652E-01
RMM:   3    -0.413178098513E+03   -0.16622E-02   -0.14670E-02  5109   0.749E-02    0.301E-01
RMM:   4    -0.413203714418E+03   -0.25616E-01   -0.43583E-02  5093   0.176E-01    0.715E-01
RMM:   5    -0.413173567807E+03    0.30147E-01   -0.12275E-02  4707   0.118E-01    0.571E-02
RMM:   6    -0.413173636963E+03   -0.69157E-04   -0.22441E-03  5558   0.471E-02    0.297E-02
RMM:   7    -0.413173643979E+03   -0.70159E-05   -0.36088E-04  5970   0.169E-02    0.185E-02
RMM:   8    -0.413173637326E+03    0.66530E-05   -0.67775E-05  5172   0.901E-03    0.802E-03
RMM:   9    -0.413173630466E+03    0.68602E-05   -0.10043E-05  3539   0.383E-03    0.396E-03
RMM:  10    -0.413173628067E+03    0.23992E-05   -0.20824E-06  2575   0.217E-03    0.266E-03
RMM:  11    -0.413173624274E+03    0.37925E-05   -0.12110E-06  2511   0.176E-03    0.146E-03
RMM:  12    -0.413173620601E+03    0.36730E-05   -0.66496E-07  2448   0.136E-03    0.468E-04
RMM:  13    -0.413173618576E+03    0.20258E-05   -0.32359E-07  2019   0.958E-04    0.273E-04
RMM:  14    -0.413173616560E+03    0.20157E-05   -0.19192E-07  1537   0.773E-04    0.179E-04
RMM:  15    -0.413173613954E+03    0.26060E-05   -0.14651E-07  1352   0.710E-04    0.105E-04
RMM:  16    -0.413173611424E+03    0.25299E-05   -0.11758E-07  1326   0.681E-04    0.112E-04
RMM:  17    -0.413173608545E+03    0.28788E-05   -0.10693E-07  1367   0.655E-04    0.613E-05
RMM:  18    -0.413173606845E+03    0.17004E-05   -0.58057E-08  1005   0.574E-04    0.269E-05
RMM:  19    -0.413173606040E+03    0.80438E-06   -0.30443E-08   824   0.539E-04
   22 T=    62. E= -.41286691E+03 F= -.41317361E+03 E0= -.41315166E+03  EK= 0.30669E+00 SP= 0.00E+00 SK= 0.00E+00
       N       E                     dE             d eps       ncg     rms          rms(c)
RMM:   1    -0.413170104756E+03    0.35021E-02   -0.10025E+01  4294   0.738E-01    0.910E-01
RMM:   2    -0.413177056292E+03   -0.69515E-02   -0.12212E-01  4274   0.965E-02    0.645E-01
RMM:   3    -0.413174832781E+03    0.22235E-02   -0.11469E-02  4887   0.478E-02    0.144E-01
RMM:   4    -0.413209277419E+03   -0.34445E-01   -0.36483E-02  5138   0.158E-01    0.772E-01
RMM:   5    -0.413174123181E+03    0.35154E-01   -0.17080E-02  4788   0.129E-01    0.500E-02
RMM:   6    -0.413174326210E+03   -0.20303E-03   -0.30250E-03  5790   0.521E-02    0.328E-02
RMM:   7    -0.413174323630E+03    0.25798E-05   -0.43402E-04  5700   0.191E-02    0.207E-02
RMM:   8    -0.413174312449E+03    0.11181E-04   -0.75899E-05  5128   0.914E-03    0.106E-02
RMM:   9    -0.413174304607E+03    0.78415E-05   -0.15420E-05  4184   0.447E-03    0.762E-03
RMM:  10    -0.413174299796E+03    0.48113E-05   -0.20740E-06  2583   0.224E-03    0.487E-03
RMM:  11    -0.413174295695E+03    0.41013E-05   -0.13479E-06  2519   0.185E-03    0.269E-03
RMM:  12    -0.413174288871E+03    0.68230E-05   -0.17414E-06  2553   0.206E-03    0.990E-04
RMM:  13    -0.413174286418E+03    0.24534E-05   -0.55977E-07  2362   0.133E-03    0.733E-04
RMM:  14    -0.413174286565E+03   -0.14735E-06   -0.25198E-07  1938   0.880E-04
   23 T=    63. E= -.41286663E+03 F= -.41317429E+03 E0= -.41315239E+03  EK= 0.30766E+00 SP= 0.00E+00 SK= 0.00E+00
       N       E                     dE             d eps       ncg     rms          rms(c)
RMM:   1    -0.413171783820E+03    0.25026E-02   -0.10031E+01  4292   0.763E-01    0.892E-01
RMM:   2    -0.413179148817E+03   -0.73650E-02   -0.12450E-01  4273   0.101E-01    0.651E-01
RMM:   3    -0.413176131064E+03    0.30178E-02   -0.11429E-02  4748   0.454E-02    0.115E-01
RMM:   4    -0.413198761550E+03   -0.22630E-01   -0.23260E-02  5137   0.127E-01    0.629E-01
RMM:   5    -0.413175744957E+03    0.23017E-01   -0.11368E-02  4801   0.104E-01    0.434E-02
RMM:   6    -0.413175870994E+03   -0.12604E-03   -0.19627E-03  5827   0.414E-02    0.267E-02
RMM:   7    -0.413175872548E+03   -0.15540E-05   -0.24181E-04  5669   0.151E-02    0.140E-02
RMM:   8    -0.413175869065E+03    0.34837E-05   -0.52764E-05  4988   0.741E-03    0.935E-03
RMM:   9    -0.413175864292E+03    0.47724E-05   -0.11330E-05  3925   0.387E-03    0.700E-03
RMM:  10    -0.413175862736E+03    0.15560E-05   -0.15568E-06  2539   0.211E-03    0.443E-03
RMM:  11    -0.413175860643E+03    0.20932E-05   -0.16835E-06  2548   0.204E-03    0.218E-03
RMM:  12    -0.413175857808E+03    0.28345E-05   -0.12495E-06  2496   0.178E-03    0.787E-04
RMM:  13    -0.413175857166E+03    0.64211E-06   -0.40363E-07  2202   0.111E-03
   24 T=    63. E= -.41286693E+03 F= -.41317586E+03 E0= -.41315401E+03  EK= 0.30893E+00 SP= 0.00E+00 SK= 0.00E+00
       N       E                     dE             d eps       ncg     rms          rms(c)
RMM:   1    -0.413173670670E+03    0.21871E-02   -0.10108E+01  4298   0.778E-01    0.907E-01
RMM:   2    -0.413179993096E+03   -0.63224E-02   -0.12561E-01  4277   0.102E-01    0.657E-01
RMM:   3    -0.413177004642E+03    0.29885E-02   -0.11593E-02  4679   0.460E-02    0.114E-01
RMM:   4    -0.413196152164E+03   -0.19148E-01   -0.19581E-02  5140   0.116E-01    0.580E-01
RMM:   5    -0.413176723551E+03    0.19429E-01   -0.96598E-03  4814   0.959E-02    0.421E-02
RMM:   6    -0.413176815805E+03   -0.92254E-04   -0.16331E-03  5818   0.378E-02    0.251E-02
RMM:   7    -0.413176813842E+03    0.19634E-05   -0.18782E-04  5575   0.136E-02    0.116E-02
RMM:   8    -0.413176808701E+03    0.51402E-05   -0.32157E-05  4744   0.585E-03    0.796E-03
RMM:   9    -0.413176805335E+03    0.33661E-05   -0.66268E-06  3209   0.297E-03    0.589E-03
RMM:  10    -0.413176803878E+03    0.14577E-05   -0.13724E-06  2535   0.194E-03    0.402E-03
RMM:  11    -0.413176799630E+03    0.42479E-05   -0.19620E-06  2568   0.221E-03    0.191E-03
RMM:  12    -0.413176795908E+03    0.37217E-05   -0.10552E-06  2474   0.168E-03    0.112E-03
RMM:  13    -0.413176795482E+03    0.42616E-06   -0.29984E-07  2185   0.101E-03
   25 T=    63. E= -.41286670E+03 F= -.41317680E+03 E0= -.41315500E+03  EK= 0.31009E+00 SP= 0.00E+00 SK= 0.00E+00
       N       E                     dE             d eps       ncg     rms          rms(c)
RMM:   1    -0.413175089286E+03    0.17066E-02   -0.10104E+01  4295   0.770E-01    0.919E-01
RMM:   2    -0.413180783462E+03   -0.56942E-02   -0.12306E-01  4277   0.986E-02    0.650E-01
RMM:   3    -0.413178292687E+03    0.24908E-02   -0.11573E-02  4603   0.448E-02    0.117E-01
RMM:   4    -0.413192103609E+03   -0.13811E-01   -0.14141E-02  5146   0.992E-02    0.494E-01
RMM:   5    -0.413178121219E+03    0.13982E-01   -0.70594E-03  4824   0.815E-02    0.413E-02
RMM:   6    -0.413178165690E+03   -0.44471E-04   -0.12003E-03  5824   0.323E-02    0.232E-02
RMM:   7    -0.413178158404E+03    0.72858E-05   -0.14243E-04  5553   0.123E-02    0.113E-02
RMM:   8    -0.413178149344E+03    0.90600E-05   -0.26377E-05  4627   0.540E-03    0.751E-03
RMM:   9    -0.413178146550E+03    0.27940E-05   -0.61341E-06  3211   0.299E-03    0.601E-03
RMM:  10    -0.413178141440E+03    0.51104E-05   -0.11100E-06  2503   0.191E-03    0.350E-03
RMM:  11    -0.413178134122E+03    0.73177E-05   -0.13325E-06  2513   0.187E-03    0.175E-03
RMM:  12    -0.413178127388E+03    0.67336E-05   -0.72481E-07  2397   0.141E-03    0.700E-04
RMM:  13    -0.413178125999E+03    0.13898E-05   -0.27698E-07  2014   0.915E-04    0.467E-04
RMM:  14    -0.413178124755E+03    0.12431E-05   -0.13074E-07  1418   0.699E-04    0.375E-04
RMM:  15    -0.413178119420E+03    0.53352E-05   -0.19332E-07  2051   0.810E-04    0.419E-04
RMM:  16    -0.413178117704E+03    0.17159E-05   -0.56131E-08  1011   0.577E-04    0.302E-04
RMM:  17    -0.413178114580E+03    0.31239E-05   -0.51006E-08   946   0.572E-04    0.208E-04
RMM:  18    -0.413178112113E+03    0.24669E-05   -0.46038E-08   959   0.578E-04    0.388E-05
RMM:  19    -0.413178110444E+03    0.16690E-05   -0.35043E-08   964   0.574E-04    0.102E-04
RMM:  20    -0.413178110319E+03    0.12535E-06   -0.11262E-08   685   0.523E-04
   26 T=    63. E= -.41286669E+03 F= -.41317811E+03 E0= -.41315636E+03  EK= 0.31142E+00 SP= 0.00E+00 SK= 0.00E+00
       N       E                     dE             d eps       ncg     rms          rms(c)
RMM:   1    -0.413180984972E+03   -0.28745E-02   -0.10112E+01  4291   0.813E-01    0.897E-01
RMM:   2    -0.413182817260E+03   -0.18323E-02   -0.12933E-01  4276   0.106E-01    0.653E-01
RMM:   3    -0.413180145336E+03    0.26719E-02   -0.11462E-02  4703   0.489E-02    0.122E-01
RMM:   4    -0.413202738738E+03   -0.22593E-01   -0.23139E-02  5145   0.127E-01    0.628E-01
RMM:   5    -0.413179806091E+03    0.22933E-01   -0.11468E-02  4812   0.104E-01    0.438E-02
RMM:   6    -0.413179926214E+03   -0.12012E-03   -0.18966E-03  5822   0.414E-02    0.272E-02
RMM:   7    -0.413179926899E+03   -0.68494E-06   -0.25277E-04  5664   0.157E-02    0.146E-02
RMM:   8    -0.413179922171E+03    0.47287E-05   -0.54716E-05  4984   0.763E-03    0.932E-03
RMM:   9    -0.413179916952E+03    0.52186E-05   -0.11164E-05  3916   0.390E-03    0.688E-03
RMM:  10    -0.413179914784E+03    0.21682E-05   -0.15678E-06  2545   0.209E-03    0.430E-03
RMM:  11    -0.413179912124E+03    0.26596E-05   -0.14591E-06  2523   0.194E-03    0.211E-03
RMM:  12    -0.413179908754E+03    0.33702E-05   -0.11863E-06  2489   0.172E-03    0.795E-04
RMM:  13    -0.413179907909E+03    0.84449E-06   -0.38760E-07  2198   0.110E-03
   27 T=    64. E= -.41286693E+03 F= -.41317991E+03 E0= -.41315821E+03  EK= 0.31297E+00 SP= 0.00E+00 SK= 0.00E+00
       N       E                     dE             d eps       ncg     rms          rms(c)
RMM:   1    -0.413177273428E+03    0.26353E-02   -0.10163E+01  4293   0.786E-01    0.907E-01
RMM:   2    -0.413184109412E+03   -0.68360E-02   -0.12715E-01  4272   0.105E-01    0.663E-01
RMM:   3    -0.413181157711E+03    0.29517E-02   -0.12086E-02  4493   0.481E-02    0.998E-02
RMM:   4    -0.413190297125E+03   -0.91394E-02   -0.94270E-03  5151   0.816E-02    0.403E-01
RMM:   5    -0.413181067658E+03    0.92295E-02   -0.46707E-03  4832   0.663E-02    0.385E-02
RMM:   6    -0.413181098083E+03   -0.30425E-04   -0.85428E-04  5816   0.272E-02    0.229E-02
RMM:   7    -0.413181100902E+03   -0.28188E-05   -0.21555E-04  5431   0.146E-02    0.162E-02
RMM:   8    -0.413181084212E+03    0.16690E-04   -0.24576E-05  4454   0.616E-03    0.679E-03
RMM:   9    -0.413181082614E+03    0.15978E-05   -0.55030E-06  3068   0.286E-03    0.491E-03
RMM:  10    -0.413181080437E+03    0.21775E-05   -0.14351E-06  2491   0.202E-03    0.275E-03
RMM:  11    -0.413181077761E+03    0.26761E-05   -0.97717E-07  2484   0.164E-03    0.134E-03
RMM:  12    -0.413181075366E+03    0.23945E-05   -0.47907E-07  2301   0.117E-03    0.613E-04
RMM:  13    -0.413181074295E+03    0.10717E-05   -0.23295E-07  1848   0.837E-04    0.296E-04
RMM:  14    -0.413181072698E+03    0.15968E-05   -0.13958E-07  1423   0.713E-04    0.208E-04
RMM:  15    -0.413181069595E+03    0.31029E-05   -0.12041E-07  1339   0.690E-04    0.106E-04
RMM:  16    -0.413181068751E+03    0.84403E-06   -0.47981E-08   912   0.594E-04
   28 T=    64. E= -.41286670E+03 F= -.41318107E+03 E0= -.41315942E+03  EK= 0.31437E+00 SP= 0.00E+00 SK= 0.00E+00
       N       E                     dE             d eps       ncg     rms          rms(c)
RMM:   1    -0.413179343764E+03    0.17258E-02   -0.10176E+01  4292   0.778E-01    0.927E-01
RMM:   2    -0.413185820314E+03   -0.64766E-02   -0.12514E-01  4272   0.105E-01    0.657E-01
RMM:   3    -0.413183200485E+03    0.26198E-02   -0.12120E-02  4598   0.498E-02    0.119E-01
RMM:   4    -0.413198856097E+03   -0.15656E-01   -0.15927E-02  5150   0.106E-01    0.525E-01
RMM:   5    -0.413183013579E+03    0.15843E-01   -0.80122E-03  4819   0.868E-02    0.424E-02
RMM:   6    -0.413183078166E+03   -0.64586E-04   -0.13504E-03  5838   0.346E-02    0.253E-02
RMM:   7    -0.413183075584E+03    0.25816E-05   -0.19757E-04  5570   0.143E-02    0.137E-02
RMM:   8    -0.413183063326E+03    0.12258E-04   -0.35522E-05  4794   0.639E-03    0.802E-03
RMM:   9    -0.413183060468E+03    0.28581E-05   -0.78092E-06  3463   0.336E-03    0.635E-03
RMM:  10    -0.413183055016E+03    0.54518E-05   -0.13004E-06  2510   0.206E-03    0.364E-03
RMM:  11    -0.413183049349E+03    0.56678E-05   -0.11262E-06  2505   0.174E-03    0.186E-03
RMM:  12    -0.413183042765E+03    0.65836E-05   -0.90888E-07  2458   0.154E-03    0.868E-04
RMM:  13    -0.413183040870E+03    0.18952E-05   -0.32851E-07  2142   0.101E-03    0.467E-04
RMM:  14    -0.413183039624E+03    0.12455E-05   -0.15355E-07  1516   0.735E-04    0.368E-04
RMM:  15    -0.413183035614E+03    0.40102E-05   -0.13637E-07  1640   0.734E-04    0.202E-04
RMM:  16    -0.413183033214E+03    0.23998E-05   -0.67032E-08  1133   0.620E-04    0.185E-04
RMM:  17    -0.413183030868E+03    0.23464E-05   -0.44212E-08   933   0.576E-04    0.145E-04
RMM:  18    -0.413183027412E+03    0.34554E-05   -0.53024E-08  1031   0.590E-04    0.475E-05
RMM:  19    -0.413183026201E+03    0.12115E-05   -0.25978E-08   811   0.549E-04    0.302E-05
RMM:  20    -0.413183025665E+03    0.53631E-06   -0.14183E-08   719   0.535E-04
   29 T=    64. E= -.41286689E+03 F= -.41318303E+03 E0= -.41316143E+03  EK= 0.31614E+00 SP= 0.00E+00 SK= 0.00E+00
       N       E                     dE             d eps       ncg     rms          rms(c)
RMM:   1    -0.413181628742E+03    0.13975E-02   -0.10133E+01  4289   0.808E-01    0.906E-01
RMM:   2    -0.413188209336E+03   -0.65806E-02   -0.12626E-01  4274   0.113E-01    0.655E-01
RMM:   3    -0.413185060759E+03    0.31486E-02   -0.12035E-02  4486   0.512E-02    0.107E-01
RMM:   4    -0.413194570956E+03   -0.95102E-02   -0.98283E-03  5152   0.833E-02    0.411E-01
RMM:   5    -0.413184972677E+03    0.95983E-02   -0.49041E-03  4830   0.677E-02    0.395E-02
RMM:   6    -0.413185002860E+03   -0.30182E-04   -0.89768E-04  5831   0.281E-02    0.246E-02
RMM:   7    -0.413185000676E+03    0.21835E-05   -0.22998E-04  5398   0.151E-02    0.164E-02
RMM:   8    -0.413184984047E+03    0.16629E-04   -0.25988E-05  4569   0.630E-03    0.713E-03
RMM:   9    -0.413184981882E+03    0.21644E-05   -0.48490E-06  2978   0.277E-03    0.509E-03
RMM:  10    -0.413184978385E+03    0.34977E-05   -0.14222E-06  2497   0.197E-03    0.280E-03
RMM:  11    -0.413184974721E+03    0.36637E-05   -0.93304E-07  2475   0.161E-03    0.140E-03
RMM:  12    -0.413184971386E+03    0.33348E-05   -0.52906E-07  2326   0.122E-03    0.702E-04
RMM:  13    -0.413184969849E+03    0.15369E-05   -0.24489E-07  1894   0.867E-04    0.305E-04
RMM:  14    -0.413184968020E+03    0.18295E-05   -0.13540E-07  1385   0.707E-04    0.185E-04
RMM:  15    -0.413184965291E+03    0.27290E-05   -0.92853E-08  1220   0.665E-04    0.885E-05
RMM:  16    -0.413184963585E+03    0.17056E-05   -0.55043E-08  1002   0.618E-04    0.704E-05
RMM:  17    -0.413184961757E+03    0.18285E-05   -0.44501E-08   973   0.598E-04    0.431E-05
RMM:  18    -0.413184959175E+03    0.25816E-05   -0.51123E-08  1097   0.605E-04    0.279E-05
RMM:  19    -0.413184958614E+03    0.56107E-06   -0.17707E-08   729   0.537E-04
   30 T=    65. E= -.41286691E+03 F= -.41318496E+03 E0= -.41316341E+03  EK= 0.31805E+00 SP= 0.00E+00 SK= 0.00E+00
       N       E                     dE             d eps       ncg     rms          rms(c)
RMM:   1    -0.413184945215E+03    0.13960E-04   -0.10264E+01  4293   0.825E-01    0.910E-01
RMM:   2    -0.413190458764E+03   -0.55135E-02   -0.13118E-01  4277   0.117E-01    0.668E-01
RMM:   3    -0.413186706203E+03    0.37526E-02   -0.12665E-02  4478   0.586E-02    0.103E-01
RMM:   4    -0.413198148863E+03   -0.11443E-01   -0.11665E-02  5148   0.906E-02    0.450E-01
RMM:   5    -0.413186599642E+03    0.11549E-01   -0.58332E-03  4825   0.740E-02    0.398E-02
RMM:   6    -0.413186643412E+03   -0.43771E-04   -0.10614E-03  5840   0.300E-02    0.246E-02
RMM:   7    -0.413186648651E+03   -0.52391E-05   -0.22729E-04  5461   0.149E-02    0.163E-02
RMM:   8    -0.413186632633E+03    0.16019E-04   -0.31504E-05  4677   0.660E-03    0.742E-03
RMM:   9    -0.413186631396E+03    0.12366E-05   -0.58880E-06  3110   0.303E-03    0.551E-03
RMM:  10    -0.413186629431E+03    0.19653E-05   -0.14111E-06  2498   0.201E-03    0.309E-03
RMM:  11    -0.413186627488E+03    0.19429E-05   -0.95168E-07  2481   0.162E-03    0.157E-03
RMM:  12    -0.413186625256E+03    0.22321E-05   -0.67135E-07  2414   0.133E-03    0.805E-04
RMM:  13    -0.413186624257E+03    0.99935E-06   -0.27584E-07  1993   0.917E-04
   31 T=    65. E= -.41286664E+03 F= -.41318662E+03 E0= -.41316513E+03  EK= 0.31998E+00 SP= 0.00E+00 SK= 0.00E+00
       N       E                     dE             d eps       ncg     rms          rms(c)
RMM:   1    -0.413185911639E+03    0.71362E-03   -0.10284E+01  4293   0.814E-01    0.933E-01
RMM:   2    -0.413192495384E+03   -0.65837E-02   -0.12849E-01  4287   0.123E-01    0.665E-01
RMM:   3    -0.413189241539E+03    0.32538E-02   -0.12606E-02  4247   0.560E-02    0.107E-01
RMM:   4    -0.413189942281E+03   -0.70074E-03   -0.13796E-03  5076   0.291E-02    0.112E-01
RMM:   5    -0.413189305212E+03    0.63707E-03   -0.38960E-04  4809   0.198E-02    0.392E-02
RMM:   6    -0.413189315660E+03   -0.10448E-04   -0.34593E-04  5379   0.182E-02    0.281E-02
RMM:   7    -0.413189272594E+03    0.43066E-04   -0.18165E-04  4874   0.138E-02    0.157E-02
RMM:   8    -0.413189268349E+03    0.42454E-05   -0.21451E-05  4236   0.493E-03    0.514E-03
RMM:   9    -0.413189266491E+03    0.18585E-05   -0.23460E-06  2511   0.208E-03    0.267E-03
RMM:  10    -0.413189258626E+03    0.78651E-05   -0.84843E-07  2424   0.147E-03    0.112E-03
RMM:  11    -0.413189253130E+03    0.54959E-05   -0.34033E-07  2034   0.933E-04    0.471E-04
RMM:  12    -0.413189248474E+03    0.46554E-05   -0.18508E-07  1635   0.767E-04    0.293E-04
RMM:  13    -0.413189244453E+03    0.40209E-05   -0.12208E-07  1414   0.691E-04    0.189E-04
RMM:  14    -0.413189239541E+03    0.49122E-05   -0.92784E-08  1256   0.648E-04    0.109E-04
RMM:  15    -0.413189235033E+03    0.45083E-05   -0.56238E-08   973   0.598E-04    0.809E-05
RMM:  16    -0.413189230893E+03    0.41403E-05   -0.55037E-08  1050   0.601E-04    0.586E-05
RMM:  17    -0.413189229615E+03    0.12781E-05   -0.21772E-08   749   0.537E-04    0.439E-05
RMM:  18    -0.413189228658E+03    0.95696E-06   -0.16509E-08   695   0.525E-04
   32 T=    66. E= -.41286701E+03 F= -.41318923E+03 E0= -.41316778E+03  EK= 0.32222E+00 SP= 0.00E+00 SK= 0.00E+00
       N       E                     dE             d eps       ncg     rms          rms(c)
RMM:   1    -0.413187593703E+03    0.16359E-02   -0.10239E+01  4287   0.825E-01    0.920E-01
RMM:   2    -0.413194416160E+03   -0.68225E-02   -0.12940E-01  4282   0.125E-01    0.661E-01
RMM:   3    -0.413191153821E+03    0.32623E-02   -0.12427E-02  4231   0.562E-02    0.106E-01
RMM:   4    -0.413191394479E+03   -0.24066E-03   -0.95006E-04  4975   0.218E-02    0.635E-02
RMM:   5    -0.413191253304E+03    0.14118E-03   -0.17171E-04  4794   0.130E-02    0.428E-02
RMM:   6    -0.413191247992E+03    0.53126E-05   -0.30753E-04  5280   0.171E-02    0.279E-02
RMM:   7    -0.413191207840E+03    0.40151E-04   -0.17663E-04  4838   0.134E-02    0.151E-02
RMM:   8    -0.413191203994E+03    0.38462E-05   -0.19897E-05  4173   0.479E-03    0.517E-03
RMM:   9    -0.413191202701E+03    0.12936E-05   -0.28238E-06  2443   0.206E-03    0.207E-03
RMM:  10    -0.413191195235E+03    0.74657E-05   -0.88335E-07  2348   0.142E-03    0.812E-04
RMM:  11    -0.413191191469E+03    0.37655E-05   -0.21876E-07  1643   0.801E-04    0.440E-04
RMM:  12    -0.413191188140E+03    0.33292E-05   -0.14248E-07  1417   0.712E-04    0.252E-04
RMM:  13    -0.413191184432E+03    0.37080E-05   -0.11882E-07  1325   0.676E-04    0.146E-04
RMM:  14    -0.413191179305E+03    0.51267E-05   -0.94824E-08  1096   0.645E-04    0.133E-04
RMM:  15    -0.413191177109E+03    0.21963E-05   -0.33446E-08   693   0.566E-04    0.832E-05
RMM:  16    -0.413191173800E+03    0.33094E-05   -0.39774E-08   818   0.580E-04    0.409E-05
RMM:  17    -0.413191172876E+03    0.92368E-06   -0.15706E-08   592   0.531E-04
   33 T=    66. E= -.41286686E+03 F= -.41319117E+03 E0= -.41316977E+03  EK= 0.32431E+00 SP= 0.00E+00 SK= 0.00E+00
       N       E                     dE             d eps       ncg     rms          rms(c)
RMM:   1    -0.413192846606E+03   -0.16728E-02   -0.10368E+01  4298   0.878E-01    0.915E-01
RMM:   2    -0.413196983742E+03   -0.41371E-02   -0.13662E-01  4282   0.131E-01    0.674E-01
RMM:   3    -0.413193522487E+03    0.34613E-02   -0.12873E-02  4234   0.614E-02    0.975E-02
RMM:   4    -0.413193766173E+03   -0.24369E-03   -0.92507E-04  5008   0.212E-02    0.651E-02
RMM:   5    -0.413193602660E+03    0.16351E-03   -0.16609E-04  4771   0.128E-02    0.408E-02
RMM:   6    -0.413193606309E+03   -0.36490E-05   -0.29755E-04  5285   0.167E-02    0.269E-02
RMM:   7    -0.413193572637E+03    0.33672E-04   -0.17421E-04  4811   0.133E-02    0.163E-02
RMM:   8    -0.413193568346E+03    0.42908E-05   -0.20390E-05  4024   0.467E-03    0.525E-03
RMM:   9    -0.413193567894E+03    0.45248E-06   -0.26515E-06  2407   0.205E-03
   34 T=    67. E= -.41286686E+03 F= -.41319357E+03 E0= -.41317222E+03  EK= 0.32671E+00 SP= 0.00E+00 SK= 0.00E+00
       N       E                     dE             d eps       ncg     rms          rms(c)
RMM:   1    -0.413199206917E+03   -0.56386E-02   -0.10465E+01  4303   0.928E-01    0.938E-01
RMM:   2    -0.413199396846E+03   -0.18993E-03   -0.13540E-01  4272   0.131E-01    0.674E-01
RMM:   3    -0.413196358023E+03    0.30388E-02   -0.12934E-02  4472   0.615E-02    0.114E-01
RMM:   4    -0.413205878949E+03   -0.95209E-02   -0.98593E-03  5171   0.843E-02    0.412E-01
RMM:   5    -0.413196342287E+03    0.95367E-02   -0.48894E-03  4823   0.686E-02    0.427E-02
RMM:   6    -0.413196336219E+03    0.60686E-05   -0.94660E-04  5752   0.306E-02    0.314E-02
RMM:   7    -0.413196322907E+03    0.13312E-04   -0.28416E-04  5344   0.162E-02    0.163E-02
RMM:   8    -0.413196310694E+03    0.12213E-04   -0.29255E-05  4692   0.624E-03    0.711E-03
RMM:   9    -0.413196307649E+03    0.30447E-05   -0.45794E-06  2889   0.261E-03    0.419E-03
RMM:  10    -0.413196301455E+03    0.61937E-05   -0.12129E-06  2502   0.186E-03    0.218E-03
RMM:  11    -0.413196295070E+03    0.63848E-05   -0.79088E-07  2462   0.143E-03    0.111E-03
RMM:  12    -0.413196289301E+03    0.57693E-05   -0.45158E-07  2252   0.111E-03    0.506E-04
RMM:  13    -0.413196286327E+03    0.29743E-05   -0.22327E-07  1744   0.818E-04    0.273E-04
RMM:  14    -0.413196282757E+03    0.35702E-05   -0.12455E-07  1220   0.690E-04    0.171E-04
RMM:  15    -0.413196276824E+03    0.59329E-05   -0.10725E-07  1231   0.678E-04    0.972E-05
RMM:  16    -0.413196273914E+03    0.29096E-05   -0.65617E-08  1075   0.620E-04    0.815E-05
RMM:  17    -0.413196269993E+03    0.39213E-05   -0.61760E-08  1159   0.617E-04    0.529E-05
RMM:  18    -0.413196267267E+03    0.27259E-05   -0.40408E-08   992   0.577E-04    0.235E-05
RMM:  19    -0.413196266732E+03    0.53499E-06   -0.19054E-08   732   0.527E-04
   35 T=    67. E= -.41286698E+03 F= -.41319627E+03 E0= -.41317496E+03  EK= 0.32928E+00 SP= 0.00E+00 SK= 0.00E+00
       N       E                     dE             d eps       ncg     rms          rms(c)
RMM:   1    -0.413195830992E+03    0.43627E-03   -0.10394E+01  4301   0.891E-01    0.936E-01
RMM:   2    -0.413201265620E+03   -0.54346E-02   -0.13392E-01  4260   0.131E-01    0.669E-01
RMM:   3    -0.413198451318E+03    0.28143E-02   -0.12922E-02  4500   0.620E-02    0.120E-01
RMM:   4    -0.413210975364E+03   -0.12524E-01   -0.12760E-02  5168   0.952E-02    0.472E-01
RMM:   5    -0.413198386989E+03    0.12588E-01   -0.64023E-03  4814   0.783E-02    0.432E-02
RMM:   6    -0.413198396402E+03   -0.94135E-05   -0.12097E-03  5799   0.336E-02    0.294E-02
RMM:   7    -0.413198394530E+03    0.18727E-05   -0.30692E-04  5416   0.171E-02    0.184E-02
RMM:   8    -0.413198376431E+03    0.18098E-04   -0.36763E-05  4863   0.719E-03    0.824E-03
RMM:   9    -0.413198373504E+03    0.29273E-05   -0.63847E-06  3130   0.314E-03    0.544E-03
RMM:  10    -0.413198367874E+03    0.56302E-05   -0.14564E-06  2513   0.210E-03    0.292E-03
RMM:  11    -0.413198362129E+03    0.57449E-05   -0.10446E-06  2493   0.168E-03    0.149E-03
RMM:  12    -0.413198355914E+03    0.62150E-05   -0.68264E-07  2420   0.137E-03    0.756E-04
RMM:  13    -0.413198353232E+03    0.26824E-05   -0.30053E-07  2042   0.952E-04    0.380E-04
RMM:  14    -0.413198351036E+03    0.21961E-05   -0.15056E-07  1456   0.726E-04    0.240E-04
RMM:  15    -0.413198346868E+03    0.41677E-05   -0.96682E-08  1230   0.669E-04    0.101E-04
RMM:  16    -0.413198343758E+03    0.31104E-05   -0.62098E-08  1027   0.627E-04    0.740E-05
RMM:  17    -0.413198341162E+03    0.25960E-05   -0.48493E-08  1023   0.606E-04    0.614E-05
RMM:  18    -0.413198337315E+03    0.38464E-05   -0.50399E-08  1134   0.611E-04    0.352E-05
RMM:  19    -0.413198336013E+03    0.13021E-05   -0.24710E-08   847   0.549E-04    0.263E-05
RMM:  20    -0.413198335634E+03    0.37892E-06   -0.12640E-08   691   0.526E-04
   36 T=    68. E= -.41286668E+03 F= -.41319834E+03 E0= -.41317707E+03  EK= 0.33165E+00 SP= 0.00E+00 SK= 0.00E+00
       N       E                     dE             d eps       ncg     rms          rms(c)
RMM:   1    -0.413209067472E+03   -0.10731E-01   -0.10561E+01  4302   0.986E-01    0.920E-01
RMM:   2    -0.413205136921E+03    0.39306E-02   -0.15591E-01  4260   0.137E-01    0.681E-01
RMM:   3    -0.413201525125E+03    0.36118E-02   -0.12035E-02  4629   0.585E-02    0.143E-01
RMM:   4    -0.413224142032E+03   -0.22617E-01   -0.23065E-02  5162   0.128E-01    0.629E-01
RMM:   5    -0.413201322658E+03    0.22819E-01   -0.11548E-02  4806   0.105E-01    0.463E-02
RMM:   6    -0.413201350553E+03   -0.27895E-04   -0.19636E-03  5847   0.418E-02    0.294E-02
RMM:   7    -0.413201363020E+03   -0.12467E-04   -0.30766E-04  5599   0.168E-02    0.172E-02
RMM:   8    -0.413201350076E+03    0.12944E-04   -0.58700E-05  4996   0.819E-03    0.923E-03
RMM:   9    -0.413201348817E+03    0.12587E-05   -0.13367E-05  4129   0.436E-03    0.660E-03
RMM:  10    -0.413201345437E+03    0.33800E-05   -0.18753E-06  2587   0.227E-03    0.380E-03
RMM:  11    -0.413201343352E+03    0.20853E-05   -0.95969E-07  2489   0.161E-03    0.233E-03
RMM:  12    -0.413201338421E+03    0.49305E-05   -0.14648E-06  2514   0.192E-03    0.116E-03
RMM:  13    -0.413201336036E+03    0.23854E-05   -0.52266E-07  2317   0.126E-03    0.653E-04
RMM:  14    -0.413201335675E+03    0.36058E-06   -0.22017E-07  1809   0.831E-04
   37 T=    68. E= -.41286701E+03 F= -.41320134E+03 E0= -.41318012E+03  EK= 0.33433E+00 SP= 0.00E+00 SK= 0.00E+00
       N       E                     dE             d eps       ncg     rms          rms(c)
RMM:   1    -0.413219145034E+03   -0.17809E-01   -0.10723E+01  4306   0.108E+00    0.941E-01
RMM:   2    -0.413207821543E+03    0.11323E-01   -0.15784E-01  4257   0.136E-01    0.686E-01
RMM:   3    -0.413204083168E+03    0.37384E-02   -0.12329E-02  4704   0.554E-02    0.151E-01
RMM:   4    -0.413231536523E+03   -0.27453E-01   -0.28019E-02  5153   0.140E-01    0.692E-01
RMM:   5    -0.413203772400E+03    0.27764E-01   -0.14081E-02  4805   0.115E-01    0.485E-02
RMM:   6    -0.413203810506E+03   -0.38107E-04   -0.22745E-03  5846   0.455E-02    0.309E-02
RMM:   7    -0.413203820734E+03   -0.10228E-04   -0.33862E-04  5663   0.175E-02    0.173E-02
RMM:   8    -0.413203808288E+03    0.12446E-04   -0.63330E-05  5035   0.841E-03    0.982E-03
RMM:   9    -0.413203805548E+03    0.27402E-05   -0.16092E-05  4325   0.467E-03    0.679E-03
RMM:  10    -0.413203800120E+03    0.54281E-05   -0.21722E-06  2617   0.239E-03    0.393E-03
RMM:  11    -0.413203796741E+03    0.33782E-05   -0.10571E-06  2487   0.169E-03    0.239E-03
RMM:  12    -0.413203788749E+03    0.79925E-05   -0.15693E-06  2530   0.199E-03    0.122E-03
RMM:  13    -0.413203784986E+03    0.37629E-05   -0.56143E-07  2349   0.131E-03    0.755E-04
RMM:  14    -0.413203784630E+03    0.35601E-06   -0.23326E-07  1889   0.859E-04
   38 T=    69. E= -.41286691E+03 F= -.41320378E+03 E0= -.41318261E+03  EK= 0.33687E+00 SP= 0.00E+00 SK= 0.00E+00
       N       E                     dE             d eps       ncg     rms          rms(c)
RMM:   1    -0.413208588074E+03   -0.48031E-02   -0.10599E+01  4307   0.100E+00    0.953E-01
RMM:   2    -0.413210086896E+03   -0.14988E-02   -0.13850E-01  4259   0.123E-01    0.679E-01
RMM:   3    -0.413206918676E+03    0.31682E-02   -0.13585E-02  4907   0.556E-02    0.156E-01
RMM:   4    -0.413246428883E+03   -0.39510E-01   -0.41716E-02  5136   0.170E-01    0.826E-01
RMM:   5    -0.413206240306E+03    0.40189E-01   -0.20028E-02  4795   0.138E-01    0.542E-02
RMM:   6    -0.413206334842E+03   -0.94536E-04   -0.32738E-03  5827   0.538E-02    0.338E-02
RMM:   7    -0.413206342457E+03   -0.76149E-05   -0.40827E-04  5690   0.187E-02    0.176E-02
RMM:   8    -0.413206331684E+03    0.10772E-04   -0.54918E-05  4905   0.758E-03    0.958E-03
RMM:   9    -0.413206329701E+03    0.19831E-05   -0.21993E-05  4578   0.482E-03    0.798E-03
RMM:  10    -0.413206321645E+03    0.80567E-05   -0.36758E-06  2798   0.284E-03    0.444E-03
RMM:  11    -0.413206316712E+03    0.49329E-05   -0.16729E-06  2524   0.206E-03    0.271E-03
RMM:  12    -0.413206305022E+03    0.11689E-04   -0.19365E-06  2540   0.227E-03    0.124E-03
RMM:  13    -0.413206300575E+03    0.44473E-05   -0.64630E-07  2425   0.147E-03    0.814E-04
RMM:  14    -0.413206300447E+03    0.12766E-06   -0.26496E-07  2050   0.925E-04
   39 T=    69. E= -.41286682E+03 F= -.41320630E+03 E0= -.41318516E+03  EK= 0.33948E+00 SP= 0.00E+00 SK= 0.00E+00
       N       E                     dE             d eps       ncg     rms          rms(c)
RMM:   1    -0.413229183999E+03   -0.22883E-01   -0.10786E+01  4310   0.116E+00    0.931E-01
RMM:   2    -0.413213668185E+03    0.15516E-01   -0.16725E-01  4261   0.136E-01    0.687E-01
RMM:   3    -0.413210245245E+03    0.34229E-02   -0.12287E-02  4972   0.581E-02    0.198E-01
RMM:   4    -0.413262644749E+03   -0.52400E-01   -0.56910E-02  5134   0.199E-01    0.948E-01
RMM:   5    -0.413209104661E+03    0.53540E-01   -0.26470E-02  4790   0.159E-01    0.591E-02
RMM:   6    -0.413209263472E+03   -0.15881E-03   -0.42959E-03  5825   0.615E-02    0.357E-02
RMM:   7    -0.413209273505E+03   -0.10033E-04   -0.50817E-04  5782   0.204E-02    0.200E-02
RMM:   8    -0.413209274961E+03   -0.14562E-05   -0.10294E-04  5212   0.991E-03    0.128E-02
RMM:   9    -0.413209263880E+03    0.11082E-04   -0.29054E-05  4756   0.591E-03    0.742E-03
RMM:  10    -0.413209259538E+03    0.43418E-05   -0.45305E-06  2824   0.299E-03    0.453E-03
RMM:  11    -0.413209256079E+03    0.34588E-05   -0.16846E-06  2512   0.213E-03    0.275E-03
RMM:  12    -0.413209248466E+03    0.76125E-05   -0.17010E-06  2532   0.213E-03    0.984E-04
RMM:  13    -0.413209244262E+03    0.42041E-05   -0.70115E-07  2434   0.146E-03    0.766E-04
RMM:  14    -0.413209243820E+03    0.44176E-06   -0.29302E-07  2098   0.963E-04
   40 T=    70. E= -.41286704E+03 F= -.41320924E+03 E0= -.41318814E+03  EK= 0.34220E+00 SP= 0.00E+00 SK= 0.00E+00
       N       E                     dE             d eps       ncg     rms          rms(c)
RMM:   1    -0.413223908036E+03   -0.14664E-01   -0.10824E+01  4311   0.115E+00    0.945E-01
RMM:   2    -0.413215803444E+03    0.81046E-02   -0.16051E-01  4264   0.140E-01    0.696E-01
RMM:   3    -0.413212871271E+03    0.29322E-02   -0.13812E-02  5008   0.636E-02    0.214E-01
RMM:   4    -0.413266697802E+03   -0.53827E-01   -0.61543E-02  5130   0.207E-01    0.964E-01
RMM:   5    -0.413211161918E+03    0.55536E-01   -0.26810E-02  4781   0.162E-01    0.610E-02
RMM:   6    -0.413211328802E+03   -0.16688E-03   -0.44635E-03  5819   0.626E-02    0.362E-02
RMM:   7    -0.413211342741E+03   -0.13939E-04   -0.54606E-04  5787   0.210E-02    0.219E-02
RMM:   8    -0.413211344154E+03   -0.14128E-05   -0.12414E-04  5249   0.109E-02    0.141E-02
RMM:   9    -0.413211330474E+03    0.13680E-04   -0.27905E-05  4723   0.612E-03    0.705E-03
RMM:  10    -0.413211326438E+03    0.40360E-05   -0.52586E-06  2950   0.305E-03    0.435E-03
RMM:  11    -0.413211323233E+03    0.32047E-05   -0.15806E-06  2509   0.209E-03    0.261E-03
RMM:  12    -0.413211316573E+03    0.66601E-05   -0.14680E-06  2509   0.201E-03    0.937E-04
RMM:  13    -0.413211312525E+03    0.40485E-05   -0.66661E-07  2422   0.141E-03    0.649E-04
RMM:  14    -0.413211311875E+03    0.65034E-06   -0.29512E-07  2084   0.957E-04
   41 T=    70. E= -.41286675E+03 F= -.41321131E+03 E0= -.41319024E+03  EK= 0.34456E+00 SP= 0.00E+00 SK= 0.00E+00
       N       E                     dE             d eps       ncg     rms          rms(c)
RMM:   1    -0.413217089140E+03   -0.57766E-02   -0.10736E+01  4312   0.116E+00    0.966E-01
RMM:   2    -0.413217625822E+03   -0.53668E-03   -0.14621E-01  4290   0.134E-01    0.689E-01
RMM:   3    -0.413216801046E+03    0.82478E-03   -0.15897E-02  5074   0.734E-02    0.264E-01
RMM:   4    -0.413258225881E+03   -0.41425E-01   -0.55192E-02  5097   0.197E-01    0.866E-01
RMM:   5    -0.413213729795E+03    0.44496E-01   -0.20140E-02  4756   0.144E-01    0.607E-02
RMM:   6    -0.413213827284E+03   -0.97489E-04   -0.35358E-03  5783   0.561E-02    0.359E-02
RMM:   7    -0.413213835893E+03   -0.86084E-05   -0.48197E-04  5758   0.201E-02    0.222E-02
RMM:   8    -0.413213832589E+03    0.33033E-05   -0.13019E-04  5216   0.115E-02    0.135E-02
RMM:   9    -0.413213816801E+03    0.15788E-04   -0.22631E-05  4530   0.588E-03    0.589E-03
RMM:  10    -0.413213810837E+03    0.59645E-05   -0.49938E-06  2957   0.287E-03    0.369E-03
RMM:  11    -0.413213805496E+03    0.53409E-05   -0.12793E-06  2497   0.194E-03    0.209E-03
RMM:  12    -0.413213796017E+03    0.94786E-05   -0.97032E-07  2471   0.170E-03    0.776E-04
RMM:  13    -0.413213790443E+03    0.55744E-05   -0.46055E-07  2333   0.119E-03    0.437E-04
RMM:  14    -0.413213788844E+03    0.15986E-05   -0.23235E-07  1895   0.852E-04    0.303E-04
RMM:  15    -0.413213784984E+03    0.38606E-05   -0.13170E-07  1426   0.710E-04    0.147E-04
RMM:  16    -0.413213779195E+03    0.57889E-05   -0.99079E-08  1273   0.675E-04    0.159E-04
RMM:  17    -0.413213776236E+03    0.29586E-05   -0.60627E-08  1068   0.619E-04    0.100E-04
RMM:  18    -0.413213772343E+03    0.38929E-05   -0.59054E-08  1221   0.626E-04    0.724E-05
RMM:  19    -0.413213769506E+03    0.28374E-05   -0.41243E-08  1098   0.591E-04    0.414E-05
RMM:  20    -0.413213768841E+03    0.66453E-06   -0.19903E-08   802   0.539E-04
   42 T=    71. E= -.41286684E+03 F= -.41321377E+03 E0= -.41319273E+03  EK= 0.34693E+00 SP= 0.00E+00 SK= 0.00E+00
       N       E                     dE             d eps       ncg     rms          rms(c)
RMM:   1    -0.413244543396E+03   -0.30774E-01   -0.10941E+01  4312   0.134E+00    0.943E-01
RMM:   2    -0.413219896360E+03    0.24647E-01   -0.17186E-01  4298   0.147E-01    0.692E-01
RMM:   3    -0.413220254896E+03   -0.35854E-03   -0.15433E-02  5081   0.805E-02    0.322E-01
RMM:   4    -0.413258502355E+03   -0.38247E-01   -0.56928E-02  5095   0.201E-01    0.851E-01
RMM:   5    -0.413215810695E+03    0.42692E-01   -0.18813E-02  4731   0.142E-01    0.628E-02
RMM:   6    -0.413215882137E+03   -0.71441E-04   -0.33428E-03  5739   0.548E-02    0.357E-02
RMM:   7    -0.413215889503E+03   -0.73663E-05   -0.49708E-04  5778   0.200E-02    0.237E-02
RMM:   8    -0.413215887042E+03    0.24604E-05   -0.12927E-04  5201   0.117E-02    0.125E-02
RMM:   9    -0.413215874451E+03    0.12592E-04   -0.21710E-05  4513   0.583E-03    0.494E-03
RMM:  10    -0.413215871192E+03    0.32586E-05   -0.45888E-06  2870   0.269E-03    0.315E-03
RMM:  11    -0.413215867429E+03    0.37634E-05   -0.13263E-06  2498   0.190E-03    0.173E-03
RMM:  12    -0.413215862216E+03    0.52128E-05   -0.77560E-07  2455   0.150E-03    0.647E-04
RMM:  13    -0.413215859067E+03    0.31495E-05   -0.38517E-07  2133   0.106E-03    0.307E-04
RMM:  14    -0.413215857042E+03    0.20247E-05   -0.20863E-07  1684   0.812E-04    0.204E-04
RMM:  15    -0.413215853306E+03    0.37359E-05   -0.14009E-07  1345   0.721E-04    0.111E-04
RMM:  16    -0.413215850944E+03    0.23619E-05   -0.88628E-08  1152   0.662E-04    0.838E-05
RMM:  17    -0.413215848495E+03    0.24488E-05   -0.70891E-08  1158   0.643E-04    0.506E-05
RMM:  18    -0.413215845992E+03    0.25028E-05   -0.57891E-08  1176   0.626E-04    0.353E-05
RMM:  19    -0.413215844307E+03    0.16852E-05   -0.36552E-08   985   0.578E-04    0.248E-05
RMM:  20    -0.413215843762E+03    0.54477E-06   -0.19209E-08   784   0.544E-04
   43 T=    71. E= -.41286689E+03 F= -.41321584E+03 E0= -.41319483E+03  EK= 0.34896E+00 SP= 0.00E+00 SK= 0.00E+00
       N       E                     dE             d eps       ncg     rms          rms(c)
RMM:   1    -0.413228390469E+03   -0.12546E-01   -0.10861E+01  4312   0.131E+00    0.949E-01
RMM:   2    -0.413221387868E+03    0.70026E-02   -0.15837E-01  4297   0.157E-01    0.702E-01
RMM:   3    -0.413222696796E+03   -0.13089E-02   -0.18306E-02  5078   0.910E-02    0.342E-01
RMM:   4    -0.413255954204E+03   -0.33257E-01   -0.55304E-02  5072   0.200E-01    0.811E-01
RMM:   5    -0.413217017057E+03    0.38937E-01   -0.16290E-02  4713   0.134E-01    0.608E-02
RMM:   6    -0.413217062866E+03   -0.45809E-04   -0.29815E-03  5727   0.518E-02    0.346E-02
RMM:   7    -0.413217065741E+03   -0.28758E-05   -0.44243E-04  5753   0.194E-02    0.227E-02
RMM:   8    -0.413217063413E+03    0.23283E-05   -0.11873E-04  5172   0.113E-02    0.117E-02
RMM:   9    -0.413217052840E+03    0.10573E-04   -0.19151E-05  4404   0.558E-03    0.471E-03
RMM:  10    -0.413217050414E+03    0.24256E-05   -0.38983E-06  2784   0.256E-03    0.296E-03
RMM:  11    -0.413217047568E+03    0.28458E-05   -0.12868E-06  2498   0.186E-03    0.160E-03
RMM:  12    -0.413217043554E+03    0.40147E-05   -0.78486E-07  2441   0.147E-03    0.626E-04
RMM:  13    -0.413217041084E+03    0.24699E-05   -0.38986E-07  2093   0.104E-03    0.293E-04
RMM:  14    -0.413217039331E+03    0.17527E-05   -0.21593E-07  1609   0.802E-04    0.188E-04
RMM:  15    -0.413217035792E+03    0.35389E-05   -0.16129E-07  1335   0.729E-04    0.118E-04
RMM:  16    -0.413217034121E+03    0.16712E-05   -0.95086E-08  1113   0.660E-04    0.814E-05
RMM:  17    -0.413217031930E+03    0.21907E-05   -0.78477E-08  1158   0.649E-04    0.490E-05
RMM:  18    -0.413217029738E+03    0.21919E-05   -0.61859E-08  1132   0.626E-04    0.353E-05
RMM:  19    -0.413217028397E+03    0.13413E-05   -0.39680E-08   959   0.584E-04    0.203E-05
RMM:  20    -0.413217027680E+03    0.71652E-06   -0.24163E-08   811   0.555E-04
   44 T=    71. E= -.41286664E+03 F= -.41321703E+03 E0= -.41319604E+03  EK= 0.35038E+00 SP= 0.00E+00 SK= 0.00E+00
       N       E                     dE             d eps       ncg     rms          rms(c)
RMM:   1    -0.413249646551E+03   -0.32618E-01   -0.11026E+01  4311   0.148E+00    0.973E-01
RMM:   2    -0.413222160088E+03    0.27486E-01   -0.16781E-01  4309   0.166E-01    0.699E-01
RMM:   3    -0.413227389905E+03   -0.52298E-02   -0.20563E-02  5116   0.105E-01    0.430E-01
RMM:   4    -0.413244811211E+03   -0.17421E-01   -0.46891E-02  5057   0.187E-01    0.676E-01
RMM:   5    -0.413218458215E+03    0.26353E-01   -0.10184E-02  4664   0.113E-01    0.593E-02
RMM:   6    -0.413218437828E+03    0.20386E-04   -0.20117E-03  5614   0.436E-02    0.344E-02
RMM:   7    -0.413218434522E+03    0.33064E-05   -0.34979E-04  5634   0.181E-02    0.226E-02
RMM:   8    -0.413218425962E+03    0.85595E-05   -0.11905E-04  5085   0.115E-02    0.107E-02
RMM:   9    -0.413218412682E+03    0.13280E-04   -0.16162E-05  4312   0.549E-03    0.432E-03
RMM:  10    -0.413218408812E+03    0.38700E-05   -0.30577E-06  2737   0.234E-03    0.255E-03
RMM:  11    -0.413218402968E+03    0.58445E-05   -0.11617E-06  2485   0.178E-03    0.138E-03
RMM:  12    -0.413218396827E+03    0.61407E-05   -0.61530E-07  2422   0.135E-03    0.625E-04
RMM:  13    -0.413218393171E+03    0.36562E-05   -0.29401E-07  1887   0.931E-04    0.293E-04
RMM:  14    -0.413218389866E+03    0.33044E-05   -0.16969E-07  1460   0.744E-04    0.166E-04
RMM:  15    -0.413218384796E+03    0.50704E-05   -0.12960E-07  1295   0.701E-04    0.122E-04
RMM:  16    -0.413218381984E+03    0.28120E-05   -0.82765E-08  1132   0.646E-04    0.918E-05
RMM:  17    -0.413218377315E+03    0.46689E-05   -0.85877E-08  1361   0.663E-04    0.641E-05
RMM:  18    -0.413218375336E+03    0.19788E-05   -0.47364E-08  1043   0.579E-04    0.418E-05
RMM:  19    -0.413218373790E+03    0.15462E-05   -0.32492E-08   918   0.550E-04    0.212E-05
RMM:  20    -0.413218373444E+03    0.34575E-06   -0.17439E-08   737   0.519E-04
   45 T=    72. E= -.41286700E+03 F= -.41321837E+03 E0= -.41319741E+03  EK= 0.35137E+00 SP= 0.00E+00 SK= 0.00E+00
       N       E                     dE             d eps       ncg     rms          rms(c)
RMM:   1    -0.413262853185E+03   -0.44479E-01   -0.11033E+01  4309   0.161E+00    0.952E-01
RMM:   2    -0.413222157179E+03    0.40696E-01   -0.18870E-01  4326   0.184E-01    0.696E-01
RMM:   3    -0.413228978596E+03   -0.68214E-02   -0.20363E-02  5118   0.111E-01    0.479E-01
RMM:   4    -0.413241719687E+03   -0.12741E-01   -0.45739E-02  5041   0.185E-01    0.645E-01
RMM:   5    -0.413218307041E+03    0.23413E-01   -0.91306E-03  4630   0.110E-01    0.602E-02
RMM:   6    -0.413218266720E+03    0.40321E-04   -0.18004E-03  5513   0.415E-02    0.339E-02
RMM:   7    -0.413218263707E+03    0.30128E-05   -0.32133E-04  5659   0.173E-02    0.232E-02
RMM:   8    -0.413218255296E+03    0.84111E-05   -0.12657E-04  5074   0.117E-02    0.107E-02
RMM:   9    -0.413218241537E+03    0.13759E-04   -0.17801E-05  4387   0.577E-03    0.426E-03
RMM:  10    -0.413218238445E+03    0.30927E-05   -0.30001E-06  2720   0.231E-03    0.246E-03
RMM:  11    -0.413218233002E+03    0.54422E-05   -0.13635E-06  2506   0.187E-03    0.138E-03
RMM:  12    -0.413218228515E+03    0.44877E-05   -0.60605E-07  2441   0.136E-03    0.711E-04
RMM:  13    -0.413218225067E+03    0.34479E-05   -0.29601E-07  1862   0.929E-04    0.330E-04
RMM:  14    -0.413218221615E+03    0.34521E-05   -0.17262E-07  1426   0.741E-04    0.177E-04
RMM:  15    -0.413218217938E+03    0.36769E-05   -0.12191E-07  1247   0.684E-04    0.116E-04
RMM:  16    -0.413218215004E+03    0.29341E-05   -0.87253E-08  1151   0.646E-04    0.101E-04
RMM:  17    -0.413218210962E+03    0.40414E-05   -0.85150E-08  1315   0.654E-04    0.641E-05
RMM:  18    -0.413218208897E+03    0.20651E-05   -0.49099E-08  1049   0.581E-04    0.515E-05
RMM:  19    -0.413218207765E+03    0.11318E-05   -0.29864E-08   871   0.539E-04    0.284E-05
RMM:  20    -0.413218207111E+03    0.65449E-06   -0.19434E-08   749   0.521E-04
   46 T=    72. E= -.41286694E+03 F= -.41321821E+03 E0= -.41319726E+03  EK= 0.35127E+00 SP= 0.00E+00 SK= 0.00E+00
       N       E                     dE             d eps       ncg     rms          rms(c)
RMM:   1    -0.413240399043E+03   -0.22191E-01   -0.10817E+01  4310   0.158E+00    0.942E-01
RMM:   2    -0.413221630262E+03    0.18769E-01   -0.17940E-01  4340   0.189E-01    0.706E-01
RMM:   3    -0.413230161290E+03   -0.85310E-02   -0.23101E-02  5105   0.122E-01    0.510E-01
RMM:   4    -0.413239819042E+03   -0.96578E-02   -0.47554E-02  5032   0.190E-01    0.627E-01
RMM:   5    -0.413217256943E+03    0.22562E-01   -0.82246E-03  4608   0.107E-01    0.597E-02
RMM:   6    -0.413217201219E+03    0.55724E-04   -0.16670E-03  5467   0.401E-02    0.325E-02
RMM:   7    -0.413217196456E+03    0.47631E-05   -0.29620E-04  5658   0.168E-02    0.225E-02
RMM:   8    -0.413217185746E+03    0.10710E-04   -0.12839E-04  5093   0.118E-02    0.104E-02
RMM:   9    -0.413217173592E+03    0.12155E-04   -0.16991E-05  4337   0.568E-03    0.420E-03
RMM:  10    -0.413217171534E+03    0.20572E-05   -0.29928E-06  2726   0.230E-03    0.242E-03
RMM:  11    -0.413217167865E+03    0.36698E-05   -0.13866E-06  2512   0.186E-03    0.133E-03
RMM:  12    -0.413217164891E+03    0.29735E-05   -0.61894E-07  2428   0.135E-03    0.707E-04
RMM:  13    -0.413217162325E+03    0.25663E-05   -0.31403E-07  1850   0.936E-04    0.335E-04
RMM:  14    -0.413217159784E+03    0.25412E-05   -0.18353E-07  1411   0.746E-04    0.172E-04
RMM:  15    -0.413217157082E+03    0.27018E-05   -0.13347E-07  1243   0.689E-04    0.110E-04
RMM:  16    -0.413217155006E+03    0.20757E-05   -0.91374E-08  1162   0.647E-04    0.913E-05
RMM:  17    -0.413217151945E+03    0.30610E-05   -0.90114E-08  1296   0.651E-04    0.542E-05
RMM:  18    -0.413217150328E+03    0.16171E-05   -0.47848E-08   979   0.576E-04    0.414E-05
RMM:  19    -0.413217149509E+03    0.81876E-06   -0.29020E-08   839   0.541E-04
   47 T=    71. E= -.41286701E+03 F= -.41321715E+03 E0= -.41319622E+03  EK= 0.35014E+00 SP= 0.00E+00 SK= 0.00E+00
       N       E                     dE             d eps       ncg     rms          rms(c)
RMM:   1    -0.413242386481E+03   -0.25236E-01   -0.10735E+01  4304   0.171E+00    0.963E-01
RMM:   2    -0.413219122930E+03    0.23264E-01   -0.17143E-01  4382   0.200E-01    0.700E-01
RMM:   3    -0.413235132444E+03   -0.16010E-01   -0.29754E-02  5137   0.143E-01    0.619E-01
RMM:   4    -0.413228598776E+03    0.65337E-02   -0.42509E-02  4986   0.184E-01    0.493E-01
RMM:   5    -0.413215188700E+03    0.13410E-01   -0.47633E-03  4543   0.908E-02    0.579E-02
RMM:   6    -0.413215081199E+03    0.10750E-03   -0.77636E-04  4948   0.309E-02    0.306E-02
RMM:   7    -0.413215065811E+03    0.15388E-04   -0.17395E-04  5743   0.130E-02    0.133E-02
RMM:   8    -0.413215066242E+03   -0.43078E-06   -0.82850E-05  5257   0.933E-03    0.109E-02
RMM:   9    -0.413215052975E+03    0.13267E-04   -0.20603E-05  4541   0.551E-03    0.458E-03
RMM:  10    -0.413215050577E+03    0.23984E-05   -0.26151E-06  2639   0.242E-03    0.241E-03
RMM:  11    -0.413215044721E+03    0.58558E-05   -0.17537E-06  2495   0.208E-03    0.145E-03
RMM:  12    -0.413215040710E+03    0.40106E-05   -0.67304E-07  2384   0.145E-03    0.864E-04
RMM:  13    -0.413215036733E+03    0.39778E-05   -0.30929E-07  1916   0.989E-04    0.465E-04
RMM:  14    -0.413215032152E+03    0.45801E-05   -0.18070E-07  1637   0.763E-04    0.299E-04
RMM:  15    -0.413215028018E+03    0.41347E-05   -0.10491E-07  1065   0.617E-04    0.151E-04
RMM:  16    -0.413215025507E+03    0.25109E-05   -0.69801E-08   966   0.586E-04    0.114E-04
RMM:  17    -0.413215021983E+03    0.35240E-05   -0.73545E-08  1153   0.611E-04    0.855E-05
RMM:  18    -0.413215019628E+03    0.23543E-05   -0.43203E-08   928   0.565E-04    0.604E-05
RMM:  19    -0.413215018463E+03    0.11650E-05   -0.24381E-08   742   0.524E-04    0.387E-05
RMM:  20    -0.413215017565E+03    0.89850E-06   -0.18628E-08   714   0.517E-04
   48 T=    71. E= -.41286730E+03 F= -.41321502E+03 E0= -.41319410E+03  EK= 0.34771E+00 SP= 0.00E+00 SK= 0.00E+00
       N       E                     dE             d eps       ncg     rms          rms(c)
RMM:   1    -0.413242514133E+03   -0.27496E-01   -0.10541E+01  4303   0.183E+00    0.951E-01
RMM:   2    -0.413214510855E+03    0.28003E-01   -0.17070E-01  4442   0.209E-01    0.690E-01
RMM:   3    -0.413237225721E+03   -0.22715E-01   -0.34953E-02  5150   0.160E-01    0.708E-01
RMM:   4    -0.413219900818E+03    0.17325E-01   -0.41260E-02  4968   0.184E-01    0.416E-01
RMM:   5    -0.413210766866E+03    0.91340E-02   -0.40982E-03  4573   0.876E-02    0.623E-02
RMM:   6    -0.413210599843E+03    0.16702E-03   -0.46700E-04  4698   0.287E-02    0.324E-02
RMM:   7    -0.413210605233E+03   -0.53900E-05   -0.30141E-04  5768   0.180E-02    0.233E-02
RMM:   8    -0.413210572677E+03    0.32556E-04   -0.10230E-04  5041   0.115E-02    0.957E-03
RMM:   9    -0.413210565853E+03    0.68241E-05   -0.18845E-05  4824   0.567E-03    0.480E-03
RMM:  10    -0.413210561856E+03    0.39971E-05   -0.23278E-06  2636   0.240E-03    0.256E-03
RMM:  11    -0.413210555986E+03    0.58698E-05   -0.14254E-06  2492   0.195E-03    0.184E-03
RMM:  12    -0.413210552355E+03    0.36308E-05   -0.44357E-07  2393   0.124E-03    0.958E-04
RMM:  13    -0.413210547940E+03    0.44148E-05   -0.27396E-07  2002   0.893E-04    0.454E-04
RMM:  14    -0.413210542568E+03    0.53726E-05   -0.22764E-07  1820   0.809E-04    0.377E-04
RMM:  15    -0.413210538024E+03    0.45439E-05   -0.11703E-07  1137   0.636E-04    0.148E-04
RMM:  16    -0.413210535384E+03    0.26397E-05   -0.69664E-08  1026   0.594E-04    0.879E-05
RMM:  17    -0.413210531744E+03    0.36403E-05   -0.72008E-08  1162   0.612E-04    0.725E-05
RMM:  18    -0.413210530319E+03    0.14252E-05   -0.37727E-08   923   0.552E-04    0.605E-05
RMM:  19    -0.413210528382E+03    0.19369E-05   -0.32846E-08   972   0.552E-04    0.394E-05
RMM:  20    -0.413210527386E+03    0.99538E-06   -0.22000E-08   806   0.514E-04
   49 T=    70. E= -.41286712E+03 F= -.41321053E+03 E0= -.41318962E+03  EK= 0.34340E+00 SP= 0.00E+00 SK= 0.00E+00
       N       E                     dE             d eps       ncg     rms          rms(c)
RMM:   1    -0.413232337144E+03   -0.21809E-01   -0.10310E+01  4304   0.189E+00    0.924E-01
RMM:   2    -0.413209422095E+03    0.22915E-01   -0.17136E-01  4472   0.218E-01    0.692E-01
[...]
RMM:  13    -0.413565639345E+03   -0.59505E-05   -0.34720E-06  2844   0.285E-03    0.252E-03
RMM:  14    -0.413565647318E+03   -0.79732E-05   -0.19469E-06  2651   0.224E-03    0.116E-03
RMM:  15    -0.413565653974E+03   -0.66565E-05   -0.13309E-06  2588   0.169E-03    0.794E-04
RMM:  16    -0.413565662457E+03   -0.84827E-05   -0.17633E-06  2659   0.174E-03    0.568E-04
RMM:  17    -0.413565669231E+03   -0.67745E-05   -0.16091E-06  2543   0.148E-03    0.366E-04
RMM:  18    -0.413565673387E+03   -0.41553E-05   -0.11391E-06  1976   0.113E-03    0.208E-04
RMM:  19    -0.413565676218E+03   -0.28317E-05   -0.70633E-07  1948   0.971E-04    0.160E-04
RMM:  20    -0.413565678283E+03   -0.20647E-05   -0.38463E-07  1551   0.764E-04    0.945E-05
RMM:  21    -0.413565679796E+03   -0.15129E-05   -0.22631E-07  1313   0.655E-04    0.712E-05
RMM:  22    -0.413565680977E+03   -0.11814E-05   -0.13450E-07  1128   0.592E-04    0.516E-05
RMM:  23    -0.413565681624E+03   -0.64700E-06   -0.76744E-08  1010   0.555E-04
  138 T=   136. E= -.41289772E+03 F= -.41356568E+03 E0= -.41354478E+03  EK= 0.66796E+00 SP= 0.00E+00 SK= 0.00E+00
       N       E                     dE             d eps       ncg     rms          rms(c)
RMM:   1    -0.413259194759E+03    0.30649E+00   -0.11453E+01  4271   0.603E+00    0.116E+00
RMM:   2    -0.413247631404E+03    0.11563E-01   -0.44772E-01  5278   0.677E-01    0.964E-01
RMM:   3    -0.413275852766E+03   -0.28221E-01   -0.76469E-02  5440   0.323E-01    0.818E-01
RMM:   4    -0.413283802940E+03   -0.79502E-02   -0.78543E-02  5129   0.283E-01    0.820E-01
RMM:   5    -0.413252500691E+03    0.31302E-01   -0.52764E-02  5223   0.266E-01    0.273E-01
RMM:   6    -0.413248571244E+03    0.39294E-02   -0.10463E-02  4928   0.135E-01    0.102E-01
RMM:   7    -0.413248284058E+03    0.28719E-03   -0.21759E-03  5370   0.592E-02    0.498E-02
RMM:   8    -0.413248280599E+03    0.34591E-05   -0.76655E-04  5893   0.314E-02    0.381E-02
RMM:   9    -0.413248247398E+03    0.33201E-04   -0.15158E-04  5305   0.154E-02    0.232E-02
RMM:  10    -0.413248232567E+03    0.14831E-04   -0.93787E-05  5725   0.116E-02    0.992E-03
RMM:  11    -0.413248230582E+03    0.19855E-05   -0.23909E-05  4904   0.540E-03    0.746E-03
RMM:  12    -0.413248228292E+03    0.22900E-05   -0.92061E-06  4051   0.437E-03    0.301E-03
RMM:  13    -0.413248229270E+03   -0.97863E-06   -0.20611E-06  2628   0.232E-03
  139 T=    85. E= -.41283093E+03 F= -.41324823E+03 E0= -.41322704E+03  EK= 0.41730E+00 SP= 0.00E+00 SK= 0.00E+00
       N       E                     dE             d eps       ncg     rms          rms(c)
RMM:   1    -0.413613503438E+03   -0.36528E+00   -0.10985E+01  4268   0.576E+00    0.138E+00
RMM:   2    -0.413630977657E+03   -0.17474E-01   -0.55817E-01  5397   0.856E-01    0.150E+00
RMM:   3    -0.413608380936E+03    0.22597E-01   -0.14776E-01  5343   0.425E-01    0.132E+00
RMM:   4    -0.413564498620E+03    0.43882E-01   -0.83367E-02  5165   0.350E-01    0.609E-01
RMM:   5    -0.413561932431E+03    0.25662E-02   -0.27145E-02  4644   0.236E-01    0.227E-01
RMM:   6    -0.413560231704E+03    0.17007E-02   -0.12073E-02  4925   0.137E-01    0.126E-01
RMM:   7    -0.413559552453E+03    0.67925E-03   -0.22047E-03  5059   0.642E-02    0.658E-02
RMM:   8    -0.413559518872E+03    0.33581E-04   -0.42943E-04  5203   0.267E-02    0.416E-02
RMM:   9    -0.413559503652E+03    0.15220E-04   -0.18933E-04  4710   0.184E-02    0.178E-02
RMM:  10    -0.413559497981E+03    0.56717E-05   -0.58645E-05  5325   0.899E-03    0.953E-03
RMM:  11    -0.413559496545E+03    0.14358E-05   -0.19392E-05  4880   0.523E-03    0.427E-03
RMM:  12    -0.413559496139E+03    0.40560E-06   -0.46627E-06  3009   0.308E-03
  140 T=   136. E= -.41288946E+03 F= -.41355950E+03 E0= -.41353799E+03  EK= 0.67004E+00 SP= 0.00E+00 SK= 0.00E+00
       N       E                     dE             d eps       ncg     rms          rms(c)
RMM:   1    -0.414168144962E+03   -0.60865E+00   -0.24114E+01  4284   0.839E+00    0.261E+00
RMM:   2    -0.413972430088E+03    0.19571E+00   -0.11038E+00  5414   0.130E+00    0.258E+00
RMM:   3    -0.414024728123E+03   -0.52298E-01   -0.35886E-01  5431   0.652E-01    0.252E+00
RMM:   4    -0.413886442664E+03    0.13829E+00   -0.24644E-01  5243   0.573E-01    0.126E+00
RMM:   5    -0.413869814223E+03    0.16628E-01   -0.89515E-02  4507   0.426E-01    0.355E-01
RMM:   6    -0.413866166741E+03    0.36475E-02   -0.31994E-02  5055   0.224E-01    0.207E-01
RMM:   7    -0.413863949819E+03    0.22169E-02   -0.56718E-03  4879   0.103E-01    0.105E-01
RMM:   8    -0.413863767192E+03    0.18263E-03   -0.10118E-03  4941   0.430E-02    0.656E-02
RMM:   9    -0.413863708502E+03    0.58689E-04   -0.61259E-04  4590   0.330E-02    0.274E-02
RMM:  10    -0.413863703737E+03    0.47654E-05   -0.17910E-04  5703   0.160E-02    0.159E-02
RMM:  11    -0.413863702272E+03    0.14648E-05   -0.49730E-05  5548   0.829E-03    0.798E-03
RMM:  12    -0.413863703581E+03   -0.13088E-05   -0.15417E-05  4368   0.503E-03    0.530E-03
RMM:  13    -0.413863703831E+03   -0.24984E-06   -0.46857E-06  2992   0.311E-03
  141 T=   194. E= -.41291108E+03 F= -.41386370E+03 E0= -.41384178E+03  EK= 0.95262E+00 SP= 0.00E+00 SK= 0.00E+00
       N       E                     dE             d eps       ncg     rms          rms(c)
RMM:   1    -0.414015727147E+03   -0.15202E+00   -0.25048E+01  4279   0.867E+00    0.192E+00
RMM:   2    -0.413762739546E+03    0.25299E+00   -0.91225E-01  5441   0.116E+00    0.191E+00
RMM:   3    -0.413812068255E+03   -0.49329E-01   -0.18120E-01  5676   0.468E-01    0.182E+00
RMM:   4    -0.413761919090E+03    0.50149E-01   -0.10825E-01  5235   0.355E-01    0.126E+00
RMM:   5    -0.413740211490E+03    0.21708E-01   -0.87591E-02  4314   0.416E-01    0.339E-01
RMM:   6    -0.413736242506E+03    0.39690E-02   -0.11029E-02  4698   0.154E-01    0.158E-01
RMM:   7    -0.413735908194E+03    0.33431E-03   -0.29483E-03  5579   0.680E-02    0.114E-01
RMM:   8    -0.413735618079E+03    0.29011E-03   -0.12160E-03  4923   0.435E-02    0.722E-02
RMM:   9    -0.413735503045E+03    0.11503E-03   -0.75332E-04  4435   0.369E-02    0.206E-02
RMM:  10    -0.413735516145E+03   -0.13100E-04   -0.21766E-04  5905   0.175E-02    0.167E-02
RMM:  11    -0.413735514842E+03    0.13028E-05   -0.41622E-05  4990   0.803E-03    0.824E-03
RMM:  12    -0.413735516987E+03   -0.21447E-05   -0.11031E-05  3714   0.415E-03    0.459E-03
RMM:  13    -0.413735519982E+03   -0.29952E-05   -0.31423E-06  2778   0.283E-03    0.253E-03
RMM:  14    -0.413735521354E+03   -0.13718E-05   -0.13423E-06  2551   0.192E-03    0.104E-03
RMM:  15    -0.413735522234E+03   -0.87990E-06   -0.80517E-07  2459   0.141E-03
  142 T=   174. E= -.41287843E+03 F= -.41373552E+03 E0= -.41371357E+03  EK= 0.85709E+00 SP= 0.00E+00 SK= 0.00E+00
       N       E                     dE             d eps       ncg     rms          rms(c)
RMM:   1    -0.413651922471E+03    0.83599E-01   -0.17704E+01  4279   0.761E+00    0.121E+00
RMM:   2    -0.413541472884E+03    0.11045E+00   -0.54044E-01  5468   0.852E-01    0.112E+00
RMM:   3    -0.413538794361E+03    0.26785E-02   -0.65696E-02  5543   0.300E-01    0.753E-01
RMM:   4    -0.413580042103E+03   -0.41248E-01   -0.78525E-02  4782   0.340E-01    0.891E-01
RMM:   5    -0.413542784284E+03    0.37258E-01   -0.41236E-02  5064   0.221E-01    0.401E-01
RMM:   6    -0.413534565164E+03    0.82191E-02   -0.10355E-02  5023   0.136E-01    0.120E-01
RMM:   7    -0.413534376506E+03    0.18866E-03   -0.18604E-03  5696   0.518E-02    0.791E-02
RMM:   8    -0.413534304043E+03    0.72463E-04   -0.79832E-04  4628   0.367E-02    0.304E-02
RMM:   9    -0.413534324821E+03   -0.20778E-04   -0.30336E-04  5595   0.208E-02    0.204E-02
RMM:  10    -0.413534329821E+03   -0.50004E-05   -0.80507E-05  5612   0.106E-02    0.109E-02
RMM:  11    -0.413534332958E+03   -0.31371E-05   -0.22731E-05  4677   0.564E-03    0.727E-03
RMM:  12    -0.413534336648E+03   -0.36901E-05   -0.79370E-06  3662   0.382E-03    0.366E-03
RMM:  13    -0.413534338997E+03   -0.23490E-05   -0.37951E-06  2908   0.282E-03    0.249E-03
RMM:  14    -0.413534342686E+03   -0.36889E-05   -0.14478E-06  2538   0.208E-03    0.137E-03
RMM:  15    -0.413534344707E+03   -0.20210E-05   -0.70660E-07  2465   0.134E-03    0.700E-04
RMM:  16    -0.413534345664E+03   -0.95620E-06   -0.34196E-07  1877   0.910E-04
  143 T=   137. E= -.41286179E+03 F= -.41353435E+03 E0= -.41351257E+03  EK= 0.67256E+00 SP= 0.00E+00 SK= 0.00E+00
       N       E                     dE             d eps       ncg     rms          rms(c)
RMM:   1    -0.413534696541E+03   -0.35183E-03   -0.13431E+01  4284   0.691E+00    0.101E+00
RMM:   2    -0.413486113376E+03    0.48583E-01   -0.35760E-01  5420   0.666E-01    0.797E-01
RMM:   3    -0.413545374481E+03   -0.59261E-01   -0.10176E-01  5664   0.327E-01    0.119E+00
RMM:   4    -0.413484197586E+03    0.61177E-01   -0.52971E-02  5041   0.262E-01    0.396E-01
RMM:   5    -0.413482667285E+03    0.15303E-02   -0.31769E-02  5110   0.221E-01    0.201E-01
RMM:   6    -0.413481390925E+03    0.12764E-02   -0.73992E-03  5215   0.109E-01    0.110E-01
RMM:   7    -0.413481044825E+03    0.34610E-03   -0.13360E-03  5104   0.480E-02    0.721E-02
RMM:   8    -0.413481008888E+03    0.35937E-04   -0.70535E-04  5349   0.331E-02    0.424E-02
RMM:   9    -0.413481017769E+03   -0.88809E-05   -0.26830E-04  5109   0.201E-02    0.247E-02
RMM:  10    -0.413481017618E+03    0.15036E-06   -0.86720E-05  5573   0.111E-02    0.120E-02
RMM:  11    -0.413481025543E+03   -0.79250E-05   -0.37497E-05  5214   0.709E-03    0.696E-03
RMM:  12    -0.413481034411E+03   -0.88679E-05   -0.89942E-06  3656   0.434E-03    0.320E-03
RMM:  13    -0.413481038711E+03   -0.43000E-05   -0.27425E-06  2748   0.240E-03    0.160E-03
RMM:  14    -0.413481043035E+03   -0.43234E-05   -0.15913E-06  2591   0.184E-03    0.793E-04
RMM:  15    -0.413481045684E+03   -0.26495E-05   -0.10402E-06  2377   0.138E-03    0.591E-04
RMM:  16    -0.413481047531E+03   -0.18470E-05   -0.84865E-07  2239   0.115E-03    0.328E-04
RMM:  17    -0.413481048328E+03   -0.79745E-06   -0.79312E-07  2182   0.109E-03
  144 T=   124. E= -.41286995E+03 F= -.41348105E+03 E0= -.41345942E+03  EK= 0.61110E+00 SP= 0.00E+00 SK= 0.00E+00
       N       E                     dE             d eps       ncg     rms          rms(c)
RMM:   1    -0.413519418523E+03   -0.38371E-01   -0.12788E+01  4290   0.685E+00    0.112E+00
RMM:   2    -0.413501288028E+03    0.18130E-01   -0.36153E-01  5393   0.672E-01    0.999E-01
RMM:   3    -0.413516860022E+03   -0.15572E-01   -0.88644E-02  5598   0.315E-01    0.109E+00
RMM:   4    -0.413485342888E+03    0.31517E-01   -0.47432E-02  5146   0.256E-01    0.460E-01
RMM:   5    -0.413485294349E+03    0.48539E-04   -0.43214E-02  5028   0.252E-01    0.269E-01
RMM:   6    -0.413482065016E+03    0.32293E-02   -0.13402E-02  5065   0.145E-01    0.131E-01
RMM:   7    -0.413481548215E+03    0.51680E-03   -0.13869E-03  4843   0.559E-02    0.733E-02
RMM:   8    -0.413481513819E+03    0.34396E-04   -0.73231E-04  5550   0.321E-02    0.424E-02
RMM:   9    -0.413481528277E+03   -0.14457E-04   -0.33203E-04  4870   0.221E-02    0.192E-02
RMM:  10    -0.413481541464E+03   -0.13187E-04   -0.84373E-05  5596   0.109E-02    0.122E-02
RMM:  11    -0.413481550999E+03   -0.95349E-05   -0.29578E-05  4936   0.677E-03    0.717E-03
RMM:  12    -0.413481564703E+03   -0.13705E-04   -0.11755E-05  3879   0.473E-03    0.379E-03
RMM:  13    -0.413481570754E+03   -0.60511E-05   -0.38347E-06  2866   0.272E-03    0.194E-03
RMM:  14    -0.413481575580E+03   -0.48251E-05   -0.20812E-06  2654   0.197E-03    0.105E-03
RMM:  15    -0.413481579227E+03   -0.36473E-05   -0.18518E-06  2556   0.171E-03    0.679E-04
RMM:  16    -0.413481580906E+03   -0.16795E-05   -0.15789E-06  2400   0.143E-03    0.430E-04
RMM:  17    -0.413481580602E+03    0.30422E-06   -0.15172E-06  2387   0.137E-03
  145 T=   123. E= -.41287616E+03 F= -.41348158E+03 E0= -.41346018E+03  EK= 0.60542E+00 SP= 0.00E+00 SK= 0.00E+00
       N       E                     dE             d eps       ncg     rms          rms(c)
RMM:   1    -0.413472008930E+03    0.95720E-02   -0.12169E+01  4295   0.664E+00    0.101E+00
RMM:   2    -0.413460307719E+03    0.11701E-01   -0.34607E-01  5404   0.660E-01    0.999E-01
RMM:   3    -0.413458559743E+03    0.17480E-02   -0.70518E-02  5583   0.289E-01    0.957E-01
RMM:   4    -0.413440316221E+03    0.18244E-01   -0.32225E-02  5207   0.215E-01    0.488E-01
RMM:   5    -0.413442044336E+03   -0.17281E-02   -0.39151E-02  5022   0.240E-01    0.285E-01
RMM:   6    -0.413438270286E+03    0.37741E-02   -0.15019E-02  5042   0.151E-01    0.127E-01
RMM:   7    -0.413437782219E+03    0.48807E-03   -0.16047E-03  5232   0.584E-02    0.758E-02
RMM:   8    -0.413437725525E+03    0.56695E-04   -0.54119E-04  5468   0.282E-02    0.461E-02
RMM:   9    -0.413437733157E+03   -0.76329E-05   -0.34568E-04  4537   0.227E-02    0.145E-02
RMM:  10    -0.413437757087E+03   -0.23930E-04   -0.99902E-05  5753   0.114E-02    0.121E-02
RMM:  11    -0.413437763795E+03   -0.67078E-05   -0.22265E-05  4566   0.595E-03    0.652E-03
RMM:  12    -0.413437777199E+03   -0.13405E-04   -0.12920E-05  3912   0.485E-03    0.358E-03
RMM:  13    -0.413437784129E+03   -0.69290E-05   -0.36818E-06  2834   0.280E-03    0.174E-03
RMM:  14    -0.413437788136E+03   -0.40074E-05   -0.23059E-06  2681   0.198E-03    0.114E-03
RMM:  15    -0.413437790754E+03   -0.26184E-05   -0.19812E-06  2561   0.173E-03    0.676E-04
RMM:  16    -0.413437791452E+03   -0.69792E-06   -0.20211E-06  2528   0.160E-03
  146 T=   115. E= -.41287474E+03 F= -.41343779E+03 E0= -.41341655E+03  EK= 0.56305E+00 SP= 0.00E+00 SK= 0.00E+00
       N       E                     dE             d eps       ncg     rms          rms(c)
RMM:   1    -0.413391066570E+03    0.46724E-01   -0.10357E+01  4296   0.597E+00    0.782E-01
RMM:   2    -0.413369053029E+03    0.22014E-01   -0.27686E-01  5406   0.587E-01    0.792E-01
RMM:   3    -0.413370857450E+03   -0.18044E-02   -0.46488E-02  5704   0.234E-01    0.776E-01
RMM:   4    -0.413359206177E+03    0.11651E-01   -0.17333E-02  5187   0.160E-01    0.438E-01
RMM:   5    -0.413360002779E+03   -0.79660E-03   -0.22875E-02  4757   0.194E-01    0.209E-01
RMM:   6    -0.413358157183E+03    0.18456E-02   -0.95502E-03  5031   0.119E-01    0.106E-01
RMM:   7    -0.413357723994E+03    0.43319E-03   -0.11018E-03  5105   0.482E-02    0.678E-02
RMM:   8    -0.413357663156E+03    0.60838E-04   -0.34571E-04  5029   0.236E-02    0.396E-02
RMM:   9    -0.413357669560E+03   -0.64043E-05   -0.30236E-04  4558   0.215E-02    0.120E-02
RMM:  10    -0.413357684307E+03   -0.14747E-04   -0.69591E-05  5650   0.949E-03    0.103E-02
RMM:  11    -0.413357688927E+03   -0.46201E-05   -0.16859E-05  4290   0.529E-03    0.495E-03
RMM:  12    -0.413357697976E+03   -0.90487E-05   -0.68317E-06  3317   0.375E-03    0.280E-03
RMM:  13    -0.413357702567E+03   -0.45913E-05   -0.25174E-06  2711   0.237E-03    0.150E-03
RMM:  14    -0.413357705049E+03   -0.24815E-05   -0.17972E-06  2580   0.178E-03    0.883E-04
RMM:  15    -0.413357705752E+03   -0.70271E-06   -0.12919E-06  2389   0.142E-03
  147 T=    99. E= -.41287093E+03 F= -.41335771E+03 E0= -.41333644E+03  EK= 0.48677E+00 SP= 0.00E+00 SK= 0.00E+00
       N       E                     dE             d eps       ncg     rms          rms(c)
RMM:   1    -0.413320896887E+03    0.36808E-01   -0.81937E+00  4294   0.514E+00    0.597E-01
RMM:   2    -0.413294939593E+03    0.25957E-01   -0.19537E-01  5377   0.496E-01    0.571E-01
RMM:   3    -0.413302838040E+03   -0.78984E-02   -0.30887E-02  5756   0.188E-01    0.620E-01
RMM:   4    -0.413293279856E+03    0.95582E-02   -0.11468E-02  5187   0.122E-01    0.362E-01
RMM:   5    -0.413292561288E+03    0.71857E-03   -0.12699E-02  4385   0.152E-01    0.123E-01
RMM:   6    -0.413292111919E+03    0.44937E-03   -0.30401E-03  5158   0.704E-02    0.749E-02
RMM:   7    -0.413291942429E+03    0.16949E-03   -0.57048E-04  5314   0.311E-02    0.531E-02
RMM:   8    -0.413291887393E+03    0.55036E-04   -0.20210E-04  4522   0.188E-02    0.284E-02
RMM:   9    -0.413291896229E+03   -0.88359E-05   -0.19279E-04  4582   0.171E-02    0.109E-02
RMM:  10    -0.413291900002E+03   -0.37731E-05   -0.32106E-05  4852   0.673E-03    0.719E-03
RMM:  11    -0.413291902590E+03   -0.25876E-05   -0.89268E-06  3612   0.410E-03    0.351E-03
RMM:  12    -0.413291906264E+03   -0.36742E-05   -0.22135E-06  2678   0.246E-03    0.171E-03
RMM:  13    -0.413291908458E+03   -0.21938E-05   -0.14854E-06  2554   0.181E-03    0.981E-04
RMM:  14    -0.413291909038E+03   -0.58046E-06   -0.10291E-06  2379   0.139E-03
  148 T=    86. E= -.41286840E+03 F= -.41329191E+03 E0= -.41327053E+03  EK= 0.42351E+00 SP= 0.00E+00 SK= 0.00E+00
       N       E                     dE             d eps       ncg     rms          rms(c)
RMM:   1    -0.413296602648E+03   -0.46942E-02   -0.68852E+00  4293   0.475E+00    0.502E-01
RMM:   2    -0.413277839410E+03    0.18763E-01   -0.14833E-01  5357   0.442E-01    0.462E-01
RMM:   3    -0.413278359316E+03   -0.51991E-03   -0.17938E-02  5647   0.150E-01    0.347E-01
RMM:   4    -0.413290456634E+03   -0.12097E-01   -0.16416E-02  5339   0.122E-01    0.537E-01
RMM:   5    -0.413277187221E+03    0.13269E-01   -0.12818E-02  4598   0.145E-01    0.100E-01
RMM:   6    -0.413276945313E+03    0.24191E-03   -0.23923E-03  5438   0.596E-02    0.560E-02
RMM:   7    -0.413276899743E+03    0.45571E-04   -0.60325E-04  5695   0.268E-02    0.427E-02
RMM:   8    -0.413276868873E+03    0.30870E-04   -0.18558E-04  4788   0.168E-02    0.232E-02
RMM:   9    -0.413276871017E+03   -0.21446E-05   -0.10569E-04  4640   0.130E-02    0.920E-03
RMM:  10    -0.413276874133E+03   -0.31154E-05   -0.24589E-05  4708   0.553E-03    0.661E-03
RMM:  11    -0.413276874888E+03   -0.75521E-06   -0.56856E-06  3219   0.342E-03
  149 T=    83. E= -.41286808E+03 F= -.41327687E+03 E0= -.41325543E+03  EK= 0.40879E+00 SP= 0.00E+00 SK= 0.00E+00
       N       E                     dE             d eps       ncg     rms          rms(c)
RMM:   1    -0.413324481494E+03   -0.47607E-01   -0.70430E+00  4295   0.508E+00    0.523E-01
RMM:   2    -0.413316080859E+03    0.84006E-02   -0.14116E-01  5328   0.456E-01    0.505E-01
RMM:   3    -0.413321795277E+03   -0.57144E-02   -0.24801E-02  5781   0.163E-01    0.545E-01
RMM:   4    -0.413314425198E+03    0.73701E-02   -0.77660E-03  5154   0.105E-01    0.306E-01
RMM:   5    -0.413314549867E+03   -0.12467E-03   -0.10786E-02  4400   0.144E-01    0.115E-01
RMM:   6    -0.413314016498E+03    0.53337E-03   -0.24171E-03  4941   0.636E-02    0.672E-02
RMM:   7    -0.413313831640E+03    0.18486E-03   -0.48381E-04  5161   0.295E-02    0.434E-02
RMM:   8    -0.413313792476E+03    0.39164E-04   -0.15276E-04  4483   0.168E-02    0.200E-02
RMM:   9    -0.413313793600E+03   -0.11238E-05   -0.10075E-04  4941   0.123E-02    0.758E-03
RMM:  10    -0.413313797349E+03   -0.37494E-05   -0.18899E-05  4430   0.512E-03    0.538E-03
RMM:  11    -0.413313800403E+03   -0.30533E-05   -0.42363E-06  2983   0.309E-03    0.260E-03
RMM:  12    -0.413313804769E+03   -0.43663E-05   -0.14440E-06  2562   0.203E-03    0.143E-03
RMM:  13    -0.413313809825E+03   -0.50564E-05   -0.12411E-06  2533   0.167E-03    0.682E-04
RMM:  14    -0.413313813157E+03   -0.33318E-05   -0.73356E-07  2277   0.120E-03    0.379E-04
RMM:  15    -0.413313815549E+03   -0.23918E-05   -0.51027E-07  2017   0.100E-03    0.254E-04
RMM:  16    -0.413313818968E+03   -0.34192E-05   -0.75542E-07  2302   0.112E-03    0.155E-04
RMM:  17    -0.413313820639E+03   -0.16711E-05   -0.31867E-07  1489   0.771E-04    0.771E-05
RMM:  18    -0.413313822361E+03   -0.17223E-05   -0.27117E-07  1619   0.774E-04    0.609E-05
RMM:  19    -0.413313823227E+03   -0.86600E-06   -0.12910E-07  1220   0.637E-04
  150 T=    90. E= -.41287133E+03 F= -.41331382E+03 E0= -.41329237E+03  EK= 0.44249E+00 SP= 0.00E+00 SK= 0.00E+00
