       N       E                     dE             d eps       ncg     rms          rms(c)
RMM:   1     0.220185423378E+04    0.22019E+04   -0.52443E+04  2132   0.654E+02
RMM:   2     0.705598308502E+03   -0.14963E+04   -0.16265E+04  2132   0.177E+02
RMM:   3     0.137596804803E+03   -0.56800E+03   -0.65714E+03  2132   0.117E+02
RMM:   4    -0.159277208169E+03   -0.29687E+03   -0.27861E+03  2132   0.936E+01
RMM:   5    -0.287525499696E+03   -0.12825E+03   -0.11449E+03  2132   0.595E+01
RMM:   6    -0.349815045126E+03   -0.62290E+02   -0.55123E+02  2132   0.423E+01
RMM:   7    -0.382646647950E+03   -0.32832E+02   -0.30395E+02  2132   0.293E+01
RMM:   8    -0.404197221313E+03   -0.21551E+02   -0.18447E+02  2132   0.233E+01
RMM:   9    -0.435985494359E+03   -0.31788E+02   -0.30643E+02  6101   0.173E+01
RMM:  10    -0.441269395824E+03   -0.52839E+01   -0.62799E+01  6396   0.539E+00
RMM:  11    -0.442505990686E+03   -0.12366E+01   -0.11296E+01  6201   0.173E+00
RMM:  12    -0.442869283427E+03   -0.36329E+00   -0.27225E+00  6364   0.603E-01    0.134E+02
RMM:  13    -0.425507532981E+03    0.17362E+02   -0.80540E+01  4670   0.119E+01    0.712E+01
RMM:  14    -0.498171492862E+03   -0.72664E+02   -0.53384E+02  5418   0.231E+01    0.305E+01
RMM:  15    -0.413909341517E+03    0.84262E+02   -0.19310E+02  5061   0.162E+01    0.587E+00
RMM:  16    -0.414089166257E+03   -0.17982E+00   -0.38753E+01  6070   0.598E+00    0.432E+00
RMM:  17    -0.413231174674E+03    0.85799E+00   -0.23037E+00  5314   0.179E+00    0.250E+00
RMM:  18    -0.413161255054E+03    0.69920E-01   -0.98862E-01  5940   0.102E+00    0.156E+00
RMM:  19    -0.413168772328E+03   -0.75173E-02   -0.29936E-01  5771   0.570E-01    0.863E-01
RMM:  20    -0.413181892154E+03   -0.13120E-01   -0.17500E-01  5270   0.471E-01    0.501E-01
RMM:  21    -0.413168433277E+03    0.13459E-01   -0.31811E-02  5022   0.215E-01    0.244E-01
RMM:  22    -0.413167006082E+03    0.14272E-02   -0.12669E-02  6123   0.914E-02    0.155E-01
RMM:  23    -0.413164947361E+03    0.20587E-02   -0.55027E-03  5789   0.697E-02    0.797E-02
RMM:  24    -0.413163256566E+03    0.16908E-02   -0.21672E-03  5720   0.451E-02    0.327E-02
RMM:  25    -0.413163021789E+03    0.23478E-03   -0.77643E-04  5821   0.225E-02    0.267E-02
RMM:  26    -0.413163217338E+03   -0.19555E-03   -0.46272E-04  5720   0.225E-02    0.274E-02
RMM:  27    -0.413163623842E+03   -0.40650E-03   -0.20088E-04  4571   0.194E-02    0.126E-02
RMM:  28    -0.413164124385E+03   -0.50054E-03   -0.17560E-04  5010   0.197E-02    0.880E-03
RMM:  29    -0.413164429817E+03   -0.30543E-03   -0.99641E-05  4388   0.133E-02    0.382E-03
RMM:  30    -0.413164632800E+03   -0.20298E-03   -0.76845E-05  3959   0.984E-03    0.226E-03
RMM:  31    -0.413164708106E+03   -0.75306E-04   -0.45301E-05  3129   0.537E-03    0.188E-03
RMM:  32    -0.413164725322E+03   -0.17216E-04   -0.21080E-05  2915   0.272E-03    0.101E-03
RMM:  33    -0.413164727782E+03   -0.24599E-05   -0.85256E-06  2703   0.168E-03    0.433E-04
RMM:  34    -0.413164726210E+03    0.15726E-05   -0.37202E-06  2477   0.132E-03    0.609E-04
RMM:  35    -0.413164723804E+03    0.24057E-05   -0.18449E-06  1637   0.926E-04    0.442E-04
RMM:  36    -0.413164722538E+03    0.12655E-05   -0.35882E-06  1372   0.787E-04    0.222E-04
RMM:  37    -0.413164722154E+03    0.38405E-06   -0.11036E-06  1549   0.773E-04
    1 T=    61. E= -.41286692E+03 F= -.41316472E+03 E0= -.41314222E+03  EK= 0.29780E+00 SP= 0.00E+00 SK= 0.00E+00
       N       E                     dE             d eps       ncg     rms          rms(c)
RMM:   1    -0.413174634651E+03   -0.99121E-02   -0.61080E+00  3976   0.482E-01    0.912E-01
RMM:   2    -0.413171775722E+03    0.28589E-02   -0.79540E-02  3907   0.713E-02    0.665E-01
RMM:   3    -0.413168827043E+03    0.29487E-02   -0.54481E-02  5093   0.833E-02    0.344E-01
RMM:   4    -0.413184626547E+03   -0.15800E-01   -0.28775E-02  5144   0.145E-01    0.605E-01
RMM:   5    -0.413164293019E+03    0.20334E-01   -0.10595E-02  4717   0.102E-01    0.441E-02
RMM:   6    -0.413164434524E+03   -0.14151E-03   -0.17295E-03  5656   0.403E-02    0.297E-02
RMM:   7    -0.413164442680E+03   -0.81559E-05   -0.30460E-04  5625   0.163E-02    0.202E-02
RMM:   8    -0.413164441768E+03    0.91252E-06   -0.41523E-05  4929   0.758E-03    0.741E-03
RMM:   9    -0.413164445371E+03   -0.36033E-05   -0.84312E-06  3232   0.326E-03    0.462E-03
RMM:  10    -0.413164451069E+03   -0.56983E-05   -0.16415E-06  2545   0.195E-03    0.282E-03
RMM:  11    -0.413164455279E+03   -0.42099E-05   -0.96102E-07  2483   0.141E-03    0.145E-03
RMM:  12    -0.413164461466E+03   -0.61863E-05   -0.10998E-06  2512   0.141E-03    0.739E-04
RMM:  13    -0.413164464094E+03   -0.26280E-05   -0.51473E-07  2077   0.102E-03    0.476E-04
RMM:  14    -0.413164464422E+03   -0.32802E-06   -0.27275E-07  1544   0.753E-04
    2 T=    61. E= -.41286670E+03 F= -.41316446E+03 E0= -.41314196E+03  EK= 0.29777E+00 SP= 0.00E+00 SK= 0.00E+00
       N       E                     dE             d eps       ncg     rms          rms(c)
RMM:   1    -0.413175838706E+03   -0.11375E-01   -0.60546E+00  4190   0.487E-01    0.928E-01
RMM:   2    -0.413171979395E+03    0.38593E-02   -0.79984E-02  3963   0.712E-02    0.664E-01
RMM:   3    -0.413169191386E+03    0.27880E-02   -0.50565E-02  5113   0.802E-02    0.316E-01
RMM:   4    -0.413185856618E+03   -0.16665E-01   -0.29304E-02  5125   0.147E-01    0.610E-01
RMM:   5    -0.413164877001E+03    0.20980E-01   -0.10154E-02  4715   0.102E-01    0.453E-02
RMM:   6    -0.413164998162E+03   -0.12116E-03   -0.17149E-03  5646   0.407E-02    0.309E-02
RMM:   7    -0.413164999319E+03   -0.11568E-05   -0.30474E-04  5624   0.166E-02    0.209E-02
RMM:   8    -0.413164994070E+03    0.52482E-05   -0.43096E-05  4992   0.761E-03    0.778E-03
RMM:   9    -0.413164993284E+03    0.78651E-06   -0.80697E-06  3215   0.327E-03
    3 T=    61. E= -.41286695E+03 F= -.41316499E+03 E0= -.41314250E+03  EK= 0.29804E+00 SP= 0.00E+00 SK= 0.00E+00
       N       E                     dE             d eps       ncg     rms          rms(c)
RMM:   1    -0.413175073268E+03   -0.10079E-01   -0.60177E+00  4218   0.494E-01    0.913E-01
RMM:   2    -0.413171687607E+03    0.33857E-02   -0.79518E-02  4230   0.708E-02    0.658E-01
RMM:   3    -0.413176048783E+03   -0.43612E-02   -0.55264E-02  5195   0.111E-01    0.473E-01
RMM:   4    -0.413176188565E+03   -0.13978E-03   -0.28085E-02  5059   0.148E-01    0.468E-01
RMM:   5    -0.413164751459E+03    0.11437E-01   -0.60826E-03  4540   0.788E-02    0.442E-02
RMM:   6    -0.413164760849E+03   -0.93897E-05   -0.84109E-04  5298   0.285E-02    0.283E-02
RMM:   7    -0.413164764830E+03   -0.39818E-05   -0.17470E-04  5364   0.131E-02    0.169E-02
RMM:   8    -0.413164763357E+03    0.14732E-05   -0.27161E-05  4602   0.643E-03    0.517E-03
RMM:   9    -0.413164764022E+03   -0.66450E-06   -0.35618E-06  2700   0.236E-03
    4 T=    61. E= -.41286667E+03 F= -.41316476E+03 E0= -.41314228E+03  EK= 0.29809E+00 SP= 0.00E+00 SK= 0.00E+00
       N       E                     dE             d eps       ncg     rms          rms(c)
RMM:   1    -0.413174960236E+03   -0.10197E-01   -0.61067E+00  4236   0.495E-01    0.909E-01
RMM:   2    -0.413172060856E+03    0.28994E-02   -0.79587E-02  4050   0.685E-02    0.663E-01
RMM:   3    -0.413171922258E+03    0.13860E-03   -0.55936E-02  5142   0.931E-02    0.404E-01
RMM:   4    -0.413181098489E+03   -0.91762E-02   -0.28181E-02  5091   0.146E-01    0.552E-01
RMM:   5    -0.413164835901E+03    0.16263E-01   -0.87343E-03  4642   0.924E-02    0.439E-02
RMM:   6    -0.413164913590E+03   -0.77689E-04   -0.12804E-03  5553   0.348E-02    0.283E-02
RMM:   7    -0.413164928154E+03   -0.14564E-04   -0.23598E-04  5536   0.147E-02    0.182E-02
RMM:   8    -0.413164929902E+03   -0.17478E-05   -0.32465E-05  4684   0.689E-03    0.592E-03
RMM:   9    -0.413164933048E+03   -0.31467E-05   -0.51211E-06  2910   0.272E-03    0.365E-03
RMM:  10    -0.413164937904E+03   -0.48552E-05   -0.12552E-06  2529   0.176E-03    0.222E-03
RMM:  11    -0.413164941204E+03   -0.33003E-05   -0.73516E-07  2379   0.128E-03    0.109E-03
RMM:  12    -0.413164945633E+03   -0.44290E-05   -0.86133E-07  2456   0.124E-03    0.560E-04
RMM:  13    -0.413164947957E+03   -0.23237E-05   -0.49269E-07  1908   0.946E-04    0.355E-04
RMM:  14    -0.413164948386E+03   -0.42931E-06   -0.21980E-07  1366   0.734E-04
    5 T=    61. E= -.41286673E+03 F= -.41316495E+03 E0= -.41314247E+03  EK= 0.29821E+00 SP= 0.00E+00 SK= 0.00E+00
       N       E                     dE             d eps       ncg     rms          rms(c)
RMM:   1    -0.413176077710E+03   -0.11130E-01   -0.60695E+00  4246   0.494E-01    0.925E-01
RMM:   2    -0.413172464199E+03    0.36135E-02   -0.79631E-02  4068   0.690E-02    0.665E-01
RMM:   3    -0.413170203744E+03    0.22605E-02   -0.51655E-02  5119   0.818E-02    0.337E-01
RMM:   4    -0.413185057381E+03   -0.14854E-01   -0.29053E-02  5106   0.146E-01    0.595E-01
RMM:   5    -0.413165304136E+03    0.19753E-01   -0.97044E-03  4685   0.991E-02    0.450E-02
RMM:   6    -0.413165413924E+03   -0.10979E-03   -0.15838E-03  5596   0.390E-02    0.302E-02
RMM:   7    -0.413165416949E+03   -0.30257E-05   -0.28213E-04  5605   0.159E-02    0.203E-02
RMM:   8    -0.413165410227E+03    0.67228E-05   -0.39750E-05  4912   0.749E-03    0.729E-03
RMM:   9    -0.413165410029E+03    0.19717E-06   -0.73347E-06  3114   0.315E-03
    6 T=    61. E= -.41286703E+03 F= -.41316541E+03 E0= -.41314295E+03  EK= 0.29838E+00 SP= 0.00E+00 SK= 0.00E+00
       N       E                     dE             d eps       ncg     rms          rms(c)
RMM:   1    -0.413175616772E+03   -0.10207E-01   -0.60248E+00  4268   0.499E-01    0.919E-01
RMM:   2    -0.413172145340E+03    0.34714E-02   -0.79413E-02  4240   0.704E-02    0.659E-01
RMM:   3    -0.413175355129E+03   -0.32098E-02   -0.53912E-02  5170   0.106E-01    0.450E-01
RMM:   4    -0.413177537054E+03   -0.21819E-02   -0.28118E-02  5055   0.147E-01    0.482E-01
RMM:   5    -0.413165181384E+03    0.12356E-01   -0.62657E-03  4560   0.805E-02    0.445E-02
RMM:   6    -0.413165201356E+03   -0.19972E-04   -0.92849E-04  5347   0.298E-02    0.287E-02
RMM:   7    -0.413165214891E+03   -0.13535E-04   -0.18407E-04  5425   0.133E-02    0.174E-02
RMM:   8    -0.413165211550E+03    0.33408E-05   -0.27939E-05  4647   0.654E-03    0.544E-03
RMM:   9    -0.413165210597E+03    0.95315E-06   -0.38268E-06  2739   0.243E-03
    7 T=    61. E= -.41286683E+03 F= -.41316521E+03 E0= -.41314276E+03  EK= 0.29838E+00 SP= 0.00E+00 SK= 0.00E+00
       N       E                     dE             d eps       ncg     rms          rms(c)
RMM:   1    -0.413175815494E+03   -0.10604E-01   -0.60903E+00  4271   0.508E-01    0.907E-01
RMM:   2    -0.413172987745E+03    0.28277E-02   -0.79469E-02  4135   0.719E-02    0.662E-01
RMM:   3    -0.413173151196E+03   -0.16345E-03   -0.55647E-02  5113   0.968E-02    0.409E-01
RMM:   4    -0.413181482538E+03   -0.83313E-02   -0.28024E-02  5067   0.146E-01    0.545E-01
RMM:   5    -0.413165695277E+03    0.15787E-01   -0.84297E-03  4629   0.903E-02    0.438E-02
RMM:   6    -0.413165758373E+03   -0.63095E-04   -0.12655E-03  5537   0.341E-02    0.283E-02
RMM:   7    -0.413165766115E+03   -0.77422E-05   -0.23321E-04  5528   0.146E-02    0.182E-02
RMM:   8    -0.413165766178E+03   -0.63261E-07   -0.31567E-05  4641   0.689E-03    0.592E-03
RMM:   9    -0.413165768190E+03   -0.20119E-05   -0.51234E-06  2884   0.268E-03    0.361E-03
RMM:  10    -0.413165771372E+03   -0.31823E-05   -0.12276E-06  2516   0.174E-03    0.218E-03
RMM:  11    -0.413165773500E+03   -0.21280E-05   -0.70589E-07  2361   0.126E-03    0.106E-03
RMM:  12    -0.413165776030E+03   -0.25294E-05   -0.79867E-07  2436   0.121E-03    0.553E-04
RMM:  13    -0.413165777037E+03   -0.10078E-05   -0.45024E-07  1865   0.926E-04    0.351E-04
RMM:  14    -0.413165776932E+03    0.10542E-06   -0.20294E-07  1350   0.726E-04
    8 T=    61. E= -.41286706E+03 F= -.41316578E+03 E0= -.41314335E+03  EK= 0.29871E+00 SP= 0.00E+00 SK= 0.00E+00
       N       E                     dE             d eps       ncg     rms          rms(c)
RMM:   1    -0.413176401552E+03   -0.10625E-01   -0.60913E+00  4281   0.509E-01    0.921E-01
RMM:   2    -0.413173158905E+03    0.32426E-02   -0.79630E-02  4154   0.729E-02    0.665E-01
RMM:   3    -0.413170992893E+03    0.21660E-02   -0.52915E-02  5070   0.868E-02    0.349E-01
RMM:   4    -0.413185255996E+03   -0.14263E-01   -0.28682E-02  5077   0.146E-01    0.591E-01
RMM:   5    -0.413165867928E+03    0.19388E-01   -0.97393E-03  4679   0.984E-02    0.443E-02
RMM:   6    -0.413165973297E+03   -0.10537E-03   -0.15643E-03  5593   0.384E-02    0.300E-02
RMM:   7    -0.413165975947E+03   -0.26496E-05   -0.27895E-04  5561   0.159E-02    0.200E-02
RMM:   8    -0.413165973512E+03    0.24347E-05   -0.38288E-05  4848   0.743E-03    0.707E-03
RMM:   9    -0.413165973348E+03    0.16356E-06   -0.70632E-06  3094   0.309E-03
    9 T=    61. E= -.41286699E+03 F= -.41316597E+03 E0= -.41314357E+03  EK= 0.29899E+00 SP= 0.00E+00 SK= 0.00E+00
       N       E                     dE             d eps       ncg     rms          rms(c)
RMM:   1    -0.413176614720E+03   -0.10641E-01   -0.60490E+00  4290   0.511E-01    0.925E-01
RMM:   2    -0.413172945398E+03    0.36693E-02   -0.79977E-02  4279   0.726E-02    0.662E-01
RMM:   3    -0.413176212446E+03   -0.32670E-02   -0.53894E-02  5151   0.108E-01    0.448E-01
RMM:   4    -0.413178403747E+03   -0.21913E-02   -0.28176E-02  5043   0.147E-01    0.482E-01
RMM:   5    -0.413166020204E+03    0.12384E-01   -0.61371E-03  4557   0.803E-02    0.446E-02
RMM:   6    -0.413166037168E+03   -0.16965E-04   -0.94739E-04  5358   0.298E-02    0.290E-02
RMM:   7    -0.413166033199E+03    0.39692E-05   -0.18673E-04  5398   0.136E-02    0.176E-02
RMM:   8    -0.413166025024E+03    0.81750E-05   -0.28353E-05  4629   0.668E-03    0.555E-03
RMM:   9    -0.413166023140E+03    0.18840E-05   -0.40544E-06  2748   0.244E-03    0.304E-03
RMM:  10    -0.413166021237E+03    0.19033E-05   -0.10934E-06  2499   0.162E-03    0.180E-03
RMM:  11    -0.413166019336E+03    0.19010E-05   -0.64993E-07  2276   0.119E-03    0.851E-04
RMM:  12    -0.413166016283E+03    0.30523E-05   -0.63440E-07  2300   0.110E-03    0.466E-04
RMM:  13    -0.413166013491E+03    0.27923E-05   -0.35343E-07  1724   0.851E-04    0.291E-04
RMM:  14    -0.413166011338E+03    0.21534E-05   -0.21154E-07  1368   0.725E-04    0.176E-04
RMM:  15    -0.413166007061E+03    0.42766E-05   -0.36156E-07  1829   0.831E-04    0.327E-04
RMM:  16    -0.413166003111E+03    0.39501E-05   -0.26107E-07  1357   0.697E-04    0.172E-04
RMM:  17    -0.413166002531E+03    0.57993E-06   -0.75948E-08   890   0.537E-04
   10 T=    61. E= -.41286673E+03 F= -.41316600E+03 E0= -.41314362E+03  EK= 0.29927E+00 SP= 0.00E+00 SK= 0.00E+00
       N       E                     dE             d eps       ncg     rms          rms(c)
RMM:   1    -0.413176887338E+03   -0.10884E-01   -0.60795E+00  4290   0.520E-01    0.908E-01
RMM:   2    -0.413173952915E+03    0.29344E-02   -0.79418E-02  4203   0.713E-02    0.660E-01
RMM:   3    -0.413171509717E+03    0.24432E-02   -0.53454E-02  5077   0.843E-02    0.349E-01
RMM:   4    -0.413186514725E+03   -0.15005E-01   -0.28622E-02  5082   0.145E-01    0.599E-01
RMM:   5    -0.413166649425E+03    0.19865E-01   -0.10179E-02  4690   0.993E-02    0.437E-02
RMM:   6    -0.413166766836E+03   -0.11741E-03   -0.16099E-03  5606   0.388E-02    0.299E-02
RMM:   7    -0.413166766107E+03    0.72864E-06   -0.28329E-04  5518   0.161E-02    0.200E-02
RMM:   8    -0.413166764019E+03    0.20886E-05   -0.38790E-05  4872   0.724E-03    0.720E-03
RMM:   9    -0.413166765438E+03   -0.14194E-05   -0.71547E-06  3103   0.311E-03    0.439E-03
RMM:  10    -0.413166768234E+03   -0.27962E-05   -0.13434E-06  2510   0.189E-03    0.265E-03
RMM:  11    -0.413166769921E+03   -0.16869E-05   -0.73350E-07  2454   0.134E-03    0.136E-03
RMM:  12    -0.413166771920E+03   -0.19993E-05   -0.83255E-07  2481   0.133E-03    0.719E-04
RMM:  13    -0.413166772281E+03   -0.36071E-06   -0.34088E-07  1986   0.954E-04
   11 T=    61. E= -.41286696E+03 F= -.41316677E+03 E0= -.41314441E+03  EK= 0.29981E+00 SP= 0.00E+00 SK= 0.00E+00
       N       E                     dE             d eps       ncg     rms          rms(c)
RMM:   1    -0.413177139144E+03   -0.10367E-01   -0.61281E+00  4291   0.525E-01    0.919E-01
RMM:   2    -0.413173919022E+03    0.32201E-02   -0.80022E-02  4238   0.710E-02    0.667E-01
RMM:   3    -0.413171464157E+03    0.24549E-02   -0.53751E-02  5078   0.827E-02    0.347E-01
RMM:   4    -0.413186804826E+03   -0.15341E-01   -0.28915E-02  5087   0.146E-01    0.603E-01
RMM:   5    -0.413166612694E+03    0.20192E-01   -0.10255E-02  4684   0.100E-01    0.437E-02
RMM:   6    -0.413166748319E+03   -0.13562E-03   -0.16633E-03  5646   0.392E-02    0.301E-02
RMM:   7    -0.413166744844E+03    0.34753E-05   -0.28972E-04  5536   0.164E-02    0.204E-02
RMM:   8    -0.413166743046E+03    0.17976E-05   -0.39398E-05  4834   0.760E-03    0.746E-03
RMM:   9    -0.413166743735E+03   -0.68872E-06   -0.76254E-06  3141   0.323E-03
   12 T=    61. E= -.41286672E+03 F= -.41316674E+03 E0= -.41314441E+03  EK= 0.30002E+00 SP= 0.00E+00 SK= 0.00E+00
       N       E                     dE             d eps       ncg     rms          rms(c)
RMM:   1    -0.413178109821E+03   -0.11367E-01   -0.60806E+00  4297   0.524E-01    0.930E-01
RMM:   2    -0.413174246479E+03    0.38633E-02   -0.80291E-02  4342   0.711E-02    0.664E-01
RMM:   3    -0.413179658376E+03   -0.54119E-02   -0.55258E-02  5172   0.114E-01    0.487E-01
RMM:   4    -0.413178075907E+03    0.15825E-02   -0.28581E-02  5030   0.149E-01    0.452E-01
RMM:   5    -0.413167330602E+03    0.10745E-01   -0.54613E-03  4503   0.765E-02    0.441E-02
RMM:   6    -0.413167338339E+03   -0.77366E-05   -0.78999E-04  5260   0.276E-02    0.290E-02
RMM:   7    -0.413167339544E+03   -0.12055E-05   -0.16785E-04  5279   0.130E-02    0.170E-02
RMM:   8    -0.413167335319E+03    0.42254E-05   -0.26328E-05  4536   0.634E-03    0.510E-03
RMM:   9    -0.413167333134E+03    0.21848E-05   -0.34112E-06  2661   0.234E-03    0.278E-03
RMM:  10    -0.413167330614E+03    0.25195E-05   -0.10326E-06  2465   0.154E-03    0.160E-03
RMM:  11    -0.413167328015E+03    0.25995E-05   -0.62265E-07  2119   0.113E-03    0.750E-04
RMM:  12    -0.413167323919E+03    0.40964E-05   -0.58345E-07  2237   0.105E-03    0.448E-04
RMM:  13    -0.413167320719E+03    0.31996E-05   -0.27410E-07  1533   0.796E-04    0.304E-04
RMM:  14    -0.413167317166E+03    0.35530E-05   -0.21558E-07  1357   0.736E-04    0.172E-04
RMM:  15    -0.413167312747E+03    0.44186E-05   -0.23843E-07  1590   0.754E-04    0.281E-04
RMM:  16    -0.413167307550E+03    0.51973E-05   -0.23314E-07  1386   0.699E-04    0.135E-04
RMM:  17    -0.413167306428E+03    0.11219E-05   -0.68938E-08   837   0.531E-04    0.760E-05
RMM:  18    -0.413167304946E+03    0.14827E-05   -0.50847E-08   817   0.535E-04    0.335E-05
RMM:  19    -0.413167304653E+03    0.29229E-06   -0.23432E-08   669   0.507E-04
   13 T=    61. E= -.41286690E+03 F= -.41316730E+03 E0= -.41314500E+03  EK= 0.30041E+00 SP= 0.00E+00 SK= 0.00E+00
       N       E                     dE             d eps       ncg     rms          rms(c)
RMM:   1    -0.413178144954E+03   -0.10840E-01   -0.60748E+00  4293   0.531E-01    0.910E-01
RMM:   2    -0.413175065647E+03    0.30793E-02   -0.79466E-02  4247   0.721E-02    0.660E-01
RMM:   3    -0.413173127383E+03    0.19383E-02   -0.52757E-02  5095   0.838E-02    0.351E-01
RMM:   4    -0.413187439936E+03   -0.14313E-01   -0.29059E-02  5080   0.146E-01    0.593E-01
RMM:   5    -0.413167915341E+03    0.19525E-01   -0.98027E-03  4683   0.983E-02    0.441E-02
RMM:   6    -0.413168037746E+03   -0.12241E-03   -0.15842E-03  5582   0.383E-02    0.300E-02
RMM:   7    -0.413168048927E+03   -0.11181E-04   -0.28041E-04  5516   0.161E-02    0.202E-02
RMM:   8    -0.413168045050E+03    0.38765E-05   -0.38117E-05  4850   0.742E-03    0.720E-03
RMM:   9    -0.413168044700E+03    0.35026E-06   -0.71642E-06  3085   0.312E-03
   14 T=    61. E= -.41286713E+03 F= -.41316804E+03 E0= -.41314578E+03  EK= 0.30091E+00 SP= 0.00E+00 SK= 0.00E+00
       N       E                     dE             d eps       ncg     rms          rms(c)
RMM:   1    -0.413178290112E+03   -0.10245E-01   -0.61622E+00  4298   0.537E-01    0.916E-01
RMM:   2    -0.413175358191E+03    0.29319E-02   -0.80300E-02  4324   0.725E-02    0.668E-01
RMM:   3    -0.413180429417E+03   -0.50712E-02   -0.59129E-02  5147   0.116E-01    0.502E-01
RMM:   4    -0.413179255866E+03    0.11736E-02   -0.28515E-02  5028   0.149E-01    0.473E-01
RMM:   5    -0.413168034191E+03    0.11222E-01   -0.66108E-03  4504   0.792E-02    0.428E-02
RMM:   6    -0.413168063926E+03   -0.29735E-04   -0.85088E-04  5284   0.278E-02    0.276E-02
RMM:   7    -0.413168065555E+03   -0.16289E-05   -0.17406E-04  5202   0.135E-02    0.162E-02
RMM:   8    -0.413168067378E+03   -0.18229E-05   -0.25798E-05  4377   0.652E-03    0.475E-03
RMM:   9    -0.413168068538E+03   -0.11605E-05   -0.34369E-06  2692   0.233E-03    0.293E-03
RMM:  10    -0.413168070630E+03   -0.20920E-05   -0.10343E-06  2464   0.155E-03    0.166E-03
RMM:  11    -0.413168071550E+03   -0.92014E-06   -0.55329E-07  2063   0.109E-03
   15 T=    61. E= -.41286682E+03 F= -.41316807E+03 E0= -.41314584E+03  EK= 0.30125E+00 SP= 0.00E+00 SK= 0.00E+00
       N       E                     dE             d eps       ncg     rms          rms(c)
RMM:   1    -0.413179916328E+03   -0.11846E-01   -0.61146E+00  4296   0.538E-01    0.932E-01
RMM:   2    -0.413176232758E+03    0.36836E-02   -0.80687E-02  4255   0.732E-02    0.667E-01
RMM:   3    -0.413173791880E+03    0.24409E-02   -0.50757E-02  5061   0.844E-02    0.327E-01
RMM:   4    -0.413189467275E+03   -0.15675E-01   -0.29676E-02  5078   0.148E-01    0.602E-01
RMM:   5    -0.413169037358E+03    0.20430E-01   -0.97968E-03  4687   0.100E-01    0.446E-02
RMM:   6    -0.413169152914E+03   -0.11556E-03   -0.16779E-03  5635   0.395E-02    0.313E-02
RMM:   7    -0.413169141787E+03    0.11127E-04   -0.29509E-04  5523   0.168E-02    0.211E-02
RMM:   8    -0.413169132278E+03    0.95088E-05   -0.41024E-05  4882   0.786E-03    0.789E-03
RMM:   9    -0.413169129237E+03    0.30403E-05   -0.82786E-06  3187   0.333E-03    0.464E-03
RMM:  10    -0.413169126402E+03    0.28352E-05   -0.14864E-06  2524   0.200E-03    0.277E-03
RMM:  11    -0.413169123757E+03    0.26450E-05   -0.81832E-07  2478   0.141E-03    0.145E-03
RMM:  12    -0.413169118463E+03    0.52942E-05   -0.10078E-06  2499   0.147E-03    0.790E-04
RMM:  13    -0.413169114548E+03    0.39152E-05   -0.43088E-07  2130   0.104E-03    0.538E-04
RMM:  14    -0.413169113912E+03    0.63631E-06   -0.17334E-07  1497   0.737E-04
   16 T=    61. E= -.41286713E+03 F= -.41316911E+03 E0= -.41314692E+03  EK= 0.30199E+00 SP= 0.00E+00 SK= 0.00E+00
       N       E                     dE             d eps       ncg     rms          rms(c)
RMM:   1    -0.413179875901E+03   -0.10761E-01   -0.60907E+00  4296   0.542E-01    0.915E-01
RMM:   2    -0.413176743092E+03    0.31328E-02   -0.80179E-02  4255   0.745E-02    0.661E-01
RMM:   3    -0.413174436521E+03    0.23066E-02   -0.51787E-02  5056   0.860E-02    0.339E-01
RMM:   4    -0.413189663805E+03   -0.15227E-01   -0.29360E-02  5071   0.147E-01    0.601E-01
RMM:   5    -0.413169447791E+03    0.20216E-01   -0.99397E-03  4687   0.996E-02    0.445E-02
RMM:   6    -0.413169559740E+03   -0.11195E-03   -0.16430E-03  5639   0.391E-02    0.306E-02
RMM:   7    -0.413169562205E+03   -0.24655E-05   -0.28800E-04  5519   0.165E-02    0.205E-02
RMM:   8    -0.413169555883E+03    0.63219E-05   -0.40118E-05  4878   0.764E-03    0.746E-03
RMM:   9    -0.413169554193E+03    0.16908E-05   -0.78450E-06  3137   0.322E-03    0.442E-03
RMM:  10    -0.413169553159E+03    0.10334E-05   -0.14311E-06  2520   0.195E-03    0.266E-03
RMM:  11    -0.413169551959E+03    0.12004E-05   -0.76652E-07  2459   0.137E-03    0.138E-03
RMM:  12    -0.413169549218E+03    0.27408E-05   -0.87404E-07  2488   0.138E-03    0.732E-04
RMM:  13    -0.413169546877E+03    0.23409E-05   -0.36324E-07  2011   0.977E-04    0.473E-04
RMM:  14    -0.413169546120E+03    0.75725E-06   -0.16099E-07  1419   0.724E-04
   17 T=    62. E= -.41286692E+03 F= -.41316955E+03 E0= -.41314739E+03  EK= 0.30263E+00 SP= 0.00E+00 SK= 0.00E+00
       N       E                     dE             d eps       ncg     rms          rms(c)
RMM:   1    -0.413180252589E+03   -0.10706E-01   -0.61989E+00  4291   0.551E-01    0.915E-01
RMM:   2    -0.413177473853E+03    0.27787E-02   -0.80863E-02  4259   0.750E-02    0.668E-01
RMM:   3    -0.413175242781E+03    0.22311E-02   -0.55202E-02  5053   0.880E-02    0.365E-01
RMM:   4    -0.413189575138E+03   -0.14332E-01   -0.28982E-02  5068   0.146E-01    0.598E-01
RMM:   5    -0.413169926505E+03    0.19649E-01   -0.10181E-02  4676   0.994E-02    0.437E-02
RMM:   6    -0.413170046060E+03   -0.11955E-03   -0.16337E-03  5638   0.382E-02    0.297E-02
RMM:   7    -0.413170043750E+03    0.23094E-05   -0.28212E-04  5518   0.163E-02    0.200E-02
RMM:   8    -0.413170043178E+03    0.57172E-06   -0.38405E-05  4792   0.762E-03    0.719E-03
RMM:   9    -0.413170043611E+03   -0.43303E-06   -0.75150E-06  3108   0.320E-03
   18 T=    62. E= -.41286675E+03 F= -.41317004E+03 E0= -.41314793E+03  EK= 0.30329E+00 SP= 0.00E+00 SK= 0.00E+00
       N       E                     dE             d eps       ncg     rms          rms(c)
RMM:   1    -0.413181983664E+03   -0.11940E-01   -0.61621E+00  4301   0.549E-01    0.933E-01
RMM:   2    -0.413178380169E+03    0.36035E-02   -0.81167E-02  4331   0.750E-02    0.669E-01
RMM:   3    -0.413183350185E+03   -0.49700E-02   -0.55960E-02  5146   0.114E-01    0.484E-01
RMM:   4    -0.413182710526E+03    0.63966E-03   -0.28948E-02  5031   0.150E-01    0.466E-01
RMM:   5    -0.413171321624E+03    0.11389E-01   -0.58504E-03  4514   0.787E-02    0.439E-02
RMM:   6    -0.413171340252E+03   -0.18629E-04   -0.85936E-04  5332   0.279E-02    0.290E-02
RMM:   7    -0.413171335244E+03    0.50078E-05   -0.17519E-04  5227   0.136E-02    0.172E-02
RMM:   8    -0.413171330771E+03    0.44734E-05   -0.26521E-05  4472   0.682E-03    0.512E-03
RMM:   9    -0.413171328538E+03    0.22326E-05   -0.36986E-06  2712   0.245E-03    0.287E-03
RMM:  10    -0.413171325801E+03    0.27374E-05   -0.10835E-06  2486   0.160E-03    0.163E-03
RMM:  11    -0.413171323197E+03    0.26041E-05   -0.59630E-07  2116   0.113E-03    0.781E-04
RMM:  12    -0.413171318453E+03    0.47435E-05   -0.60069E-07  2250   0.108E-03    0.463E-04
RMM:  13    -0.413171313877E+03    0.45760E-05   -0.30491E-07  1546   0.818E-04    0.284E-04
RMM:  14    -0.413171310597E+03    0.32805E-05   -0.16246E-07  1186   0.689E-04    0.164E-04
RMM:  15    -0.413171304809E+03    0.57876E-05   -0.19593E-07  1477   0.737E-04    0.280E-04
RMM:  16    -0.413171298747E+03    0.60626E-05   -0.16109E-07  1230   0.655E-04    0.159E-04
RMM:  17    -0.413171297717E+03    0.10296E-05   -0.56947E-08   820   0.540E-04    0.109E-04
RMM:  18    -0.413171295939E+03    0.17782E-05   -0.45158E-08   855   0.546E-04    0.392E-05
RMM:  19    -0.413171295078E+03    0.86067E-06   -0.27128E-08   761   0.531E-04
   19 T=    62. E= -.41286716E+03 F= -.41317130E+03 E0= -.41314922E+03  EK= 0.30414E+00 SP= 0.00E+00 SK= 0.00E+00
       N       E                     dE             d eps       ncg     rms          rms(c)
RMM:   1    -0.413182195879E+03   -0.10900E-01   -0.61314E+00  4295   0.556E-01    0.922E-01
RMM:   2    -0.413178727386E+03    0.34685E-02   -0.80837E-02  4265   0.756E-02    0.663E-01
RMM:   3    -0.413176552527E+03    0.21749E-02   -0.51033E-02  5093   0.827E-02    0.334E-01
RMM:   4    -0.413192076240E+03   -0.15524E-01   -0.30043E-02  5080   0.148E-01    0.603E-01
RMM:   5    -0.413171578937E+03    0.20497E-01   -0.99185E-03  4690   0.100E-01    0.447E-02
RMM:   6    -0.413171698158E+03   -0.11922E-03   -0.16687E-03  5634   0.392E-02    0.311E-02
RMM:   7    -0.413171700428E+03   -0.22704E-05   -0.29137E-04  5511   0.166E-02    0.211E-02
RMM:   8    -0.413171695031E+03    0.53973E-05   -0.40942E-05  4884   0.804E-03    0.782E-03
RMM:   9    -0.413171692778E+03    0.22534E-05   -0.86021E-06  3184   0.340E-03    0.455E-03
RMM:  10    -0.413171691274E+03    0.15037E-05   -0.14922E-06  2526   0.200E-03    0.274E-03
RMM:  11    -0.413171689654E+03    0.16199E-05   -0.78887E-07  2473   0.139E-03    0.144E-03
RMM:  12    -0.413171686219E+03    0.34348E-05   -0.94710E-07  2497   0.143E-03    0.783E-04
RMM:  13    -0.413171683498E+03    0.27216E-05   -0.39183E-07  2073   0.101E-03    0.507E-04
RMM:  14    -0.413171682847E+03    0.65116E-06   -0.16981E-07  1468   0.731E-04
   20 T=    62. E= -.41286695E+03 F= -.41317168E+03 E0= -.41314965E+03  EK= 0.30473E+00 SP= 0.00E+00 SK= 0.00E+00
       N       E                     dE             d eps       ncg     rms          rms(c)
RMM:   1    -0.413183034147E+03   -0.11351E-01   -0.62262E+00  4293   0.563E-01    0.916E-01
RMM:   2    -0.413180105070E+03    0.29291E-02   -0.81177E-02  4264   0.758E-02    0.669E-01
RMM:   3    -0.413177755820E+03    0.23492E-02   -0.54651E-02  5089   0.825E-02    0.355E-01
RMM:   4    -0.413193333564E+03   -0.15578E-01   -0.29557E-02  5082   0.147E-01    0.609E-01
RMM:   5    -0.413172713451E+03    0.20620E-01   -0.10597E-02  4694   0.102E-01    0.440E-02
RMM:   6    -0.413172840011E+03   -0.12656E-03   -0.16804E-03  5653   0.394E-02    0.299E-02
RMM:   7    -0.413172842816E+03   -0.28048E-05   -0.29274E-04  5536   0.164E-02    0.203E-02
RMM:   8    -0.413172841078E+03    0.17384E-05   -0.40223E-05  4858   0.784E-03    0.745E-03
RMM:   9    -0.413172840979E+03    0.98877E-07   -0.82457E-06  3198   0.341E-03
   21 T=    62. E= -.41286716E+03 F= -.41317284E+03 E0= -.41315085E+03  EK= 0.30568E+00 SP= 0.00E+00 SK= 0.00E+00
       N       E                     dE             d eps       ncg     rms          rms(c)
RMM:   1    -0.413184853367E+03   -0.12012E-01   -0.62239E+00  4298   0.568E-01    0.931E-01
RMM:   2    -0.413181081460E+03    0.37719E-02   -0.81697E-02  4335   0.759E-02    0.672E-01
RMM:   3    -0.413186042440E+03   -0.49610E-02   -0.56796E-02  5144   0.115E-01    0.487E-01
RMM:   4    -0.413185719805E+03    0.32264E-03   -0.29260E-02  5028   0.151E-01    0.474E-01
RMM:   5    -0.413173931809E+03    0.11788E-01   -0.61277E-03  4521   0.800E-02    0.438E-02
RMM:   6    -0.413173964477E+03   -0.32669E-04   -0.89577E-04  5347   0.286E-02    0.287E-02
RMM:   7    -0.413173963886E+03    0.59156E-06   -0.18352E-04  5246   0.138E-02    0.175E-02
RMM:   8    -0.413173962474E+03    0.14117E-05   -0.28408E-05  4503   0.717E-03    0.527E-03
RMM:   9    -0.413173960646E+03    0.18281E-05   -0.40197E-06  2725   0.252E-03    0.295E-03
RMM:  10    -0.413173958501E+03    0.21446E-05   -0.10436E-06  2489   0.159E-03    0.171E-03
RMM:  11    -0.413173956350E+03    0.21515E-05   -0.59786E-07  2132   0.114E-03    0.820E-04
RMM:  12    -0.413173952125E+03    0.42252E-05   -0.60271E-07  2252   0.107E-03    0.475E-04
RMM:  13    -0.413173948225E+03    0.38994E-05   -0.28770E-07  1526   0.801E-04    0.294E-04
RMM:  14    -0.413173945009E+03    0.32168E-05   -0.16076E-07  1192   0.681E-04    0.166E-04
RMM:  15    -0.413173939402E+03    0.56069E-05   -0.18129E-07  1280   0.707E-04    0.247E-04
RMM:  16    -0.413173933014E+03    0.63880E-05   -0.16438E-07  1242   0.671E-04    0.156E-04
RMM:  17    -0.413173931947E+03    0.10666E-05   -0.57333E-08   842   0.555E-04    0.115E-04
RMM:  18    -0.413173929921E+03    0.20255E-05   -0.43191E-08   865   0.553E-04    0.539E-05
RMM:  19    -0.413173928823E+03    0.10981E-05   -0.29384E-08   795   0.537E-04    0.239E-05
RMM:  20    -0.413173928518E+03    0.30569E-06   -0.12684E-08   622   0.512E-04
   22 T=    62. E= -.41286723E+03 F= -.41317393E+03 E0= -.41315199E+03  EK= 0.30670E+00 SP= 0.00E+00 SK= 0.00E+00
       N       E                     dE             d eps       ncg     rms          rms(c)
RMM:   1    -0.413185427589E+03   -0.11499E-01   -0.61949E+00  4292   0.566E-01    0.931E-01
RMM:   2    -0.413181794477E+03    0.36331E-02   -0.81821E-02  4274   0.765E-02    0.668E-01
RMM:   3    -0.413179074288E+03    0.27202E-02   -0.50524E-02  5043   0.838E-02    0.317E-01
RMM:   4    -0.413196490611E+03   -0.17416E-01   -0.30498E-02  5083   0.149E-01    0.621E-01
RMM:   5    -0.413174603461E+03    0.21887E-01   -0.10486E-02  4709   0.104E-01    0.449E-02
RMM:   6    -0.413174736223E+03   -0.13276E-03   -0.17841E-03  5674   0.410E-02    0.317E-02
RMM:   7    -0.413174729741E+03    0.64818E-05   -0.30931E-04  5508   0.174E-02    0.216E-02
RMM:   8    -0.413174720734E+03    0.90066E-05   -0.44327E-05  4933   0.815E-03    0.832E-03
RMM:   9    -0.413174717552E+03    0.31824E-05   -0.94130E-06  3293   0.352E-03    0.489E-03
RMM:  10    -0.413174715108E+03    0.24435E-05   -0.15372E-06  2531   0.204E-03    0.297E-03
RMM:  11    -0.413174712774E+03    0.23338E-05   -0.84462E-07  2491   0.144E-03    0.157E-03
RMM:  12    -0.413174708153E+03    0.46220E-05   -0.10562E-06  2505   0.151E-03    0.829E-04
RMM:  13    -0.413174704827E+03    0.33256E-05   -0.42957E-07  2140   0.104E-03    0.564E-04
RMM:  14    -0.413174704237E+03    0.59023E-06   -0.18207E-07  1517   0.742E-04
   23 T=    63. E= -.41286699E+03 F= -.41317470E+03 E0= -.41315281E+03  EK= 0.30771E+00 SP= 0.00E+00 SK= 0.00E+00
       N       E                     dE             d eps       ncg     rms          rms(c)
RMM:   1    -0.413186557342E+03   -0.11853E-01   -0.62626E+00  4293   0.575E-01    0.918E-01
RMM:   2    -0.413183694481E+03    0.28629E-02   -0.82081E-02  4289   0.793E-02    0.670E-01
RMM:   3    -0.413180562786E+03    0.31317E-02   -0.53816E-02  5008   0.851E-02    0.331E-01
RMM:   4    -0.413198497616E+03   -0.17935E-01   -0.29501E-02  5084   0.147E-01    0.629E-01
RMM:   5    -0.413176185461E+03    0.22312E-01   -0.11265E-02  4711   0.106E-01    0.441E-02
RMM:   6    -0.413176313440E+03   -0.12798E-03   -0.18567E-03  5710   0.416E-02    0.304E-02
RMM:   7    -0.413176316542E+03   -0.31015E-05   -0.31433E-04  5526   0.174E-02    0.210E-02
RMM:   8    -0.413176314877E+03    0.16650E-05   -0.45711E-05  4864   0.838E-03    0.829E-03
RMM:   9    -0.413176313909E+03    0.96786E-06   -0.10132E-05  3369   0.365E-03    0.514E-03
RMM:  10    -0.413176314168E+03   -0.25910E-06   -0.15222E-06  2530   0.204E-03
   24 T=    63. E= -.41286723E+03 F= -.41317631E+03 E0= -.41315447E+03  EK= 0.30908E+00 SP= 0.00E+00 SK= 0.00E+00
       N       E                     dE             d eps       ncg     rms          rms(c)
RMM:   1    -0.413187896074E+03   -0.11582E-01   -0.63090E+00  4303   0.578E-01    0.931E-01
RMM:   2    -0.413184775081E+03    0.31210E-02   -0.82824E-02  4311   0.816E-02    0.676E-01
RMM:   3    -0.413185555356E+03   -0.78028E-03   -0.55519E-02  5084   0.106E-01    0.419E-01
RMM:   4    -0.413193199290E+03   -0.76439E-02   -0.29237E-02  5044   0.149E-01    0.544E-01
RMM:   5    -0.413177214899E+03    0.15984E-01   -0.79398E-03  4602   0.904E-02    0.442E-02
RMM:   6    -0.413177292681E+03   -0.77782E-04   -0.13058E-03  5549   0.342E-02    0.294E-02
RMM:   7    -0.413177291637E+03    0.10433E-05   -0.23815E-04  5397   0.153E-02    0.193E-02
RMM:   8    -0.413177288059E+03    0.35783E-05   -0.33981E-05  4725   0.720E-03    0.640E-03
RMM:   9    -0.413177286681E+03    0.13783E-05   -0.56534E-06  2917   0.285E-03    0.367E-03
RMM:  10    -0.413177285422E+03    0.12585E-05   -0.11843E-06  2506   0.177E-03    0.224E-03
RMM:  11    -0.413177283771E+03    0.16513E-05   -0.65897E-07  2365   0.126E-03    0.113E-03
RMM:  12    -0.413177280264E+03    0.35068E-05   -0.71376E-07  2427   0.122E-03    0.600E-04
RMM:  13    -0.413177277720E+03    0.25436E-05   -0.29102E-07  1790   0.870E-04    0.405E-04
RMM:  14    -0.413177275513E+03    0.22071E-05   -0.14964E-07  1292   0.696E-04    0.213E-04
RMM:  15    -0.413177270525E+03    0.49880E-05   -0.16270E-07  1362   0.716E-04    0.256E-04
RMM:  16    -0.413177264263E+03    0.62627E-05   -0.15864E-07  1263   0.672E-04    0.205E-04
RMM:  17    -0.413177262526E+03    0.17372E-05   -0.60052E-08   945   0.569E-04    0.154E-04
RMM:  18    -0.413177259590E+03    0.29360E-05   -0.49405E-08   976   0.574E-04    0.684E-05
RMM:  19    -0.413177258435E+03    0.11546E-05   -0.27846E-08   837   0.546E-04    0.242E-05
RMM:  20    -0.413177258004E+03    0.43129E-06   -0.13591E-08   699   0.524E-04
   25 T=    63. E= -.41286696E+03 F= -.41317726E+03 E0= -.41315546E+03  EK= 0.31030E+00 SP= 0.00E+00 SK= 0.00E+00
       N       E                     dE             d eps       ncg     rms          rms(c)
RMM:   1    -0.413189695144E+03   -0.12437E-01   -0.62827E+00  4289   0.581E-01    0.941E-01
RMM:   2    -0.413185889617E+03    0.38055E-02   -0.83401E-02  4292   0.794E-02    0.673E-01
RMM:   3    -0.413182338615E+03    0.35510E-02   -0.50054E-02  5005   0.836E-02    0.295E-01
RMM:   4    -0.413202356343E+03   -0.20018E-01   -0.30917E-02  5090   0.150E-01    0.644E-01
RMM:   5    -0.413178558799E+03    0.23798E-01   -0.11385E-02  4724   0.108E-01    0.453E-02
RMM:   6    -0.413178702799E+03   -0.14400E-03   -0.19786E-03  5732   0.429E-02    0.323E-02
RMM:   7    -0.413178699360E+03    0.34390E-05   -0.32903E-04  5518   0.180E-02    0.223E-02
RMM:   8    -0.413178692116E+03    0.72442E-05   -0.48539E-05  4954   0.857E-03    0.919E-03
RMM:   9    -0.413178688275E+03    0.38415E-05   -0.10769E-05  3462   0.381E-03    0.551E-03
RMM:  10    -0.413178685185E+03    0.30901E-05   -0.17189E-06  2541   0.215E-03    0.330E-03
RMM:  11    -0.413178682210E+03    0.29750E-05   -0.97430E-07  2498   0.155E-03    0.174E-03
RMM:  12    -0.413178676828E+03    0.53813E-05   -0.12701E-06  2521   0.164E-03    0.926E-04
RMM:  13    -0.413178673580E+03    0.32486E-05   -0.45810E-07  2212   0.110E-03    0.622E-04
RMM:  14    -0.413178672996E+03    0.58406E-06   -0.19294E-07  1578   0.763E-04
   26 T=    63. E= -.41286701E+03 F= -.41317867E+03 E0= -.41315693E+03  EK= 0.31167E+00 SP= 0.00E+00 SK= 0.00E+00
       N       E                     dE             d eps       ncg     rms          rms(c)
RMM:   1    -0.413190962910E+03   -0.12289E-01   -0.63155E+00  4293   0.593E-01    0.922E-01
RMM:   2    -0.413187950710E+03    0.30122E-02   -0.83130E-02  4287   0.798E-02    0.671E-01
RMM:   3    -0.413184095635E+03    0.38551E-02   -0.52520E-02  5008   0.808E-02    0.309E-01
RMM:   4    -0.413203961067E+03   -0.19865E-01   -0.29721E-02  5098   0.147E-01    0.643E-01
RMM:   5    -0.413180349167E+03    0.23612E-01   -0.11668E-02  4733   0.109E-01    0.444E-02
RMM:   6    -0.413180506842E+03   -0.15768E-03   -0.19719E-03  5758   0.423E-02    0.308E-02
RMM:   7    -0.413180514652E+03   -0.78104E-05   -0.32076E-04  5541   0.178E-02    0.216E-02
RMM:   8    -0.413180511554E+03    0.30983E-05   -0.49382E-05  4883   0.858E-03    0.907E-03
RMM:   9    -0.413180509700E+03    0.18539E-05   -0.10887E-05  3450   0.388E-03    0.558E-03
RMM:  10    -0.413180508853E+03    0.84699E-06   -0.17364E-06  2547   0.217E-03
   27 T=    64. E= -.41286731E+03 F= -.41318051E+03 E0= -.41315881E+03  EK= 0.31320E+00 SP= 0.00E+00 SK= 0.00E+00
       N       E                     dE             d eps       ncg     rms          rms(c)
RMM:   1    -0.413192428157E+03   -0.11918E-01   -0.64133E+00  4297   0.601E-01    0.932E-01
RMM:   2    -0.413189173635E+03    0.32545E-02   -0.85747E-02  4313   0.843E-02    0.680E-01
RMM:   3    -0.413189655099E+03   -0.48146E-03   -0.56271E-02  5107   0.101E-01    0.416E-01
RMM:   4    -0.413198957454E+03   -0.93024E-02   -0.30732E-02  5047   0.152E-01    0.566E-01
RMM:   5    -0.413181641840E+03    0.17316E-01   -0.87330E-03  4629   0.945E-02    0.447E-02
RMM:   6    -0.413181715048E+03   -0.73208E-04   -0.14195E-03  5604   0.353E-02    0.294E-02
RMM:   7    -0.413181719753E+03   -0.47048E-05   -0.24944E-04  5421   0.157E-02    0.195E-02
RMM:   8    -0.413181718287E+03    0.14657E-05   -0.35950E-05  4735   0.769E-03    0.665E-03
RMM:   9    -0.413181716895E+03    0.13926E-05   -0.65378E-06  2996   0.310E-03    0.379E-03
RMM:  10    -0.413181715768E+03    0.11263E-05   -0.12867E-06  2516   0.184E-03    0.231E-03
RMM:  11    -0.413181714266E+03    0.15026E-05   -0.70719E-07  2391   0.130E-03    0.118E-03
RMM:  12    -0.413181710922E+03    0.33441E-05   -0.74598E-07  2427   0.124E-03    0.605E-04
RMM:  13    -0.413181708573E+03    0.23488E-05   -0.30470E-07  1857   0.892E-04    0.424E-04
RMM:  14    -0.413181706507E+03    0.20660E-05   -0.15185E-07  1305   0.703E-04    0.226E-04
RMM:  15    -0.413181701510E+03    0.49970E-05   -0.16270E-07  1369   0.720E-04    0.249E-04
RMM:  16    -0.413181695561E+03    0.59488E-05   -0.14715E-07  1248   0.673E-04    0.203E-04
RMM:  17    -0.413181693320E+03    0.22408E-05   -0.63086E-08   981   0.584E-04    0.150E-04
RMM:  18    -0.413181690314E+03    0.30060E-05   -0.49896E-08   997   0.581E-04    0.608E-05
RMM:  19    -0.413181689148E+03    0.11660E-05   -0.27936E-08   843   0.550E-04    0.264E-05
RMM:  20    -0.413181688702E+03    0.44642E-06   -0.14771E-08   710   0.528E-04
   28 T=    64. E= -.41286705E+03 F= -.41318169E+03 E0= -.41316004E+03  EK= 0.31464E+00 SP= 0.00E+00 SK= 0.00E+00
       N       E                     dE             d eps       ncg     rms          rms(c)
RMM:   1    -0.413194929034E+03   -0.13240E-01   -0.63843E+00  4293   0.600E-01    0.949E-01
RMM:   2    -0.413191126660E+03    0.38024E-02   -0.85083E-02  4292   0.849E-02    0.679E-01
RMM:   3    -0.413187075284E+03    0.40514E-02   -0.50117E-02  5030   0.774E-02    0.284E-01
RMM:   4    -0.413208603023E+03   -0.21528E-01   -0.31393E-02  5098   0.151E-01    0.659E-01
RMM:   5    -0.413183609044E+03    0.24994E-01   -0.11976E-02  4737   0.110E-01    0.457E-02
RMM:   6    -0.413183750578E+03   -0.14153E-03   -0.21262E-03  5788   0.435E-02    0.324E-02
RMM:   7    -0.413183755970E+03   -0.53923E-05   -0.33495E-04  5522   0.182E-02    0.226E-02
RMM:   8    -0.413183755143E+03    0.82696E-06   -0.53719E-05  4944   0.876E-03    0.993E-03
RMM:   9    -0.413183751456E+03    0.36871E-05   -0.11135E-05  3572   0.405E-03    0.592E-03
RMM:  10    -0.413183748386E+03    0.30701E-05   -0.19994E-06  2569   0.228E-03    0.350E-03
RMM:  11    -0.413183745287E+03    0.30988E-05   -0.10772E-06  2501   0.164E-03    0.184E-03
RMM:  12    -0.413183739810E+03    0.54770E-05   -0.14096E-06  2532   0.173E-03    0.103E-03
RMM:  13    -0.413183736866E+03    0.29447E-05   -0.47692E-07  2259   0.115E-03    0.695E-04
RMM:  14    -0.413183736067E+03    0.79895E-06   -0.20840E-07  1670   0.792E-04
   29 T=    64. E= -.41286726E+03 F= -.41318374E+03 E0= -.41316214E+03  EK= 0.31647E+00 SP= 0.00E+00 SK= 0.00E+00
       N       E                     dE             d eps       ncg     rms          rms(c)
RMM:   1    -0.413196293111E+03   -0.12556E-01   -0.63925E+00  4294   0.611E-01    0.930E-01
RMM:   2    -0.413193238650E+03    0.30545E-02   -0.84932E-02  4281   0.887E-02    0.675E-01
RMM:   3    -0.413188710132E+03    0.45285E-02   -0.51551E-02  4975   0.792E-02    0.288E-01
RMM:   4    -0.413210192540E+03   -0.21482E-01   -0.29953E-02  5106   0.147E-01    0.656E-01
RMM:   5    -0.413185464467E+03    0.24728E-01   -0.12201E-02  4747   0.111E-01    0.446E-02
RMM:   6    -0.413185614925E+03   -0.15046E-03   -0.21022E-03  5821   0.430E-02    0.312E-02
RMM:   7    -0.413185628907E+03   -0.13982E-04   -0.32072E-04  5536   0.181E-02    0.217E-02
RMM:   8    -0.413185627047E+03    0.18594E-05   -0.54611E-05  4872   0.901E-03    0.983E-03
RMM:   9    -0.413185624267E+03    0.27801E-05   -0.12138E-05  3593   0.415E-03    0.603E-03
RMM:  10    -0.413185622275E+03    0.19917E-05   -0.20467E-06  2572   0.235E-03    0.353E-03
RMM:  11    -0.413185619677E+03    0.25985E-05   -0.11648E-06  2501   0.172E-03    0.178E-03
RMM:  12    -0.413185615309E+03    0.43682E-05   -0.13165E-06  2514   0.171E-03    0.104E-03
RMM:  13    -0.413185613002E+03    0.23070E-05   -0.42621E-07  2234   0.112E-03    0.653E-04
RMM:  14    -0.413185612052E+03    0.94964E-06   -0.19447E-07  1615   0.775E-04
   30 T=    65. E= -.41286729E+03 F= -.41318561E+03 E0= -.41316406E+03  EK= 0.31832E+00 SP= 0.00E+00 SK= 0.00E+00
       N       E                     dE             d eps       ncg     rms          rms(c)
RMM:   1    -0.413197945651E+03   -0.12333E-01   -0.65227E+00  4300   0.622E-01    0.936E-01
RMM:   2    -0.413195316610E+03    0.26290E-02   -0.86978E-02  4285   0.946E-02    0.685E-01
RMM:   3    -0.413190382485E+03    0.49341E-02   -0.54561E-02  4937   0.840E-02    0.304E-01
RMM:   4    -0.413211364549E+03   -0.20982E-01   -0.29002E-02  5113   0.146E-01    0.651E-01
RMM:   5    -0.413187044863E+03    0.24320E-01   -0.12185E-02  4752   0.109E-01    0.440E-02
RMM:   6    -0.413187194947E+03   -0.15008E-03   -0.20437E-03  5841   0.424E-02    0.303E-02
RMM:   7    -0.413187211281E+03   -0.16334E-04   -0.30500E-04  5555   0.174E-02    0.208E-02
RMM:   8    -0.413187211030E+03    0.25094E-06   -0.53749E-05  4914   0.852E-03    0.943E-03
RMM:   9    -0.413187209527E+03    0.15032E-05   -0.10801E-05  3585   0.400E-03    0.582E-03
RMM:  10    -0.413187209530E+03   -0.33106E-08   -0.18847E-06  2554   0.225E-03
   31 T=    65. E= -.41286705E+03 F= -.41318721E+03 E0= -.41316571E+03  EK= 0.32016E+00 SP= 0.00E+00 SK= 0.00E+00
       N       E                     dE             d eps       ncg     rms          rms(c)
RMM:   1    -0.413201307897E+03   -0.14098E-01   -0.65065E+00  4301   0.642E-01    0.955E-01
RMM:   2    -0.413197552770E+03    0.37551E-02   -0.88013E-02  4299   0.999E-02    0.686E-01
RMM:   3    -0.413196540456E+03    0.10123E-02   -0.52996E-02  5036   0.106E-01    0.374E-01
RMM:   4    -0.413209492837E+03   -0.12952E-01   -0.31827E-02  5049   0.154E-01    0.593E-01
RMM:   5    -0.413189690468E+03    0.19802E-01   -0.91764E-03  4662   0.985E-02    0.458E-02
RMM:   6    -0.413189791241E+03   -0.10077E-03   -0.16480E-03  5686   0.378E-02    0.318E-02
RMM:   7    -0.413189802333E+03   -0.11091E-04   -0.28464E-04  5436   0.169E-02    0.214E-02
RMM:   8    -0.413189798074E+03    0.42590E-05   -0.41626E-05  4900   0.796E-03    0.792E-03
RMM:   9    -0.413189793585E+03    0.44889E-05   -0.82305E-06  3133   0.339E-03    0.428E-03
RMM:  10    -0.413189789099E+03    0.44857E-05   -0.15160E-06  2531   0.203E-03    0.261E-03
RMM:  11    -0.413189784957E+03    0.41423E-05   -0.80116E-07  2463   0.142E-03    0.136E-03
RMM:  12    -0.413189777539E+03    0.74179E-05   -0.87070E-07  2467   0.137E-03    0.685E-04
RMM:  13    -0.413189773584E+03    0.39548E-05   -0.36568E-07  2026   0.977E-04    0.504E-04
RMM:  14    -0.413189770744E+03    0.28402E-05   -0.17879E-07  1495   0.742E-04    0.287E-04
RMM:  15    -0.413189763229E+03    0.75151E-05   -0.17204E-07  1533   0.742E-04    0.295E-04
RMM:  16    -0.413189755396E+03    0.78329E-05   -0.12419E-07  1241   0.659E-04    0.250E-04
RMM:  17    -0.413189751450E+03    0.39458E-05   -0.70758E-08  1044   0.592E-04    0.181E-04
RMM:  18    -0.413189747756E+03    0.36938E-05   -0.55620E-08  1067   0.592E-04    0.477E-05
RMM:  19    -0.413189746435E+03    0.13208E-05   -0.31347E-08   892   0.552E-04    0.454E-05
RMM:  20    -0.413189746097E+03    0.33824E-06   -0.15939E-08   735   0.527E-04
   32 T=    66. E= -.41286733E+03 F= -.41318975E+03 E0= -.41316830E+03  EK= 0.32241E+00 SP= 0.00E+00 SK= 0.00E+00
       N       E                     dE             d eps       ncg     rms          rms(c)
RMM:   1    -0.413205127436E+03   -0.15381E-01   -0.65290E+00  4298   0.679E-01    0.940E-01
RMM:   2    -0.413199310826E+03    0.58166E-02   -0.95109E-02  4272   0.103E-01    0.683E-01
RMM:   3    -0.413193771864E+03    0.55390E-02   -0.48822E-02  4844   0.858E-02    0.244E-01
RMM:   4    -0.413217774496E+03   -0.24003E-01   -0.29409E-02  5115   0.147E-01    0.674E-01
RMM:   5    -0.413191329670E+03    0.26445E-01   -0.12897E-02  4769   0.113E-01    0.448E-02
RMM:   6    -0.413191509246E+03   -0.17958E-03   -0.22456E-03  5820   0.442E-02    0.317E-02
RMM:   7    -0.413191532666E+03   -0.23420E-04   -0.29804E-04  5572   0.178E-02    0.205E-02
RMM:   8    -0.413191533749E+03   -0.10825E-05   -0.61704E-05  4946   0.892E-03    0.107E-02
RMM:   9    -0.413191529597E+03    0.41521E-05   -0.12964E-05  3887   0.439E-03    0.666E-03
RMM:  10    -0.413191527671E+03    0.19259E-05   -0.23140E-06  2610   0.250E-03    0.392E-03
RMM:  11    -0.413191525082E+03    0.25886E-05   -0.14351E-06  2524   0.187E-03    0.200E-03
RMM:  12    -0.413191520822E+03    0.42606E-05   -0.14922E-06  2522   0.187E-03    0.116E-03
RMM:  13    -0.413191518645E+03    0.21763E-05   -0.46027E-07  2294   0.119E-03    0.726E-04
RMM:  14    -0.413191517792E+03    0.85384E-06   -0.20932E-07  1727   0.802E-04
   33 T=    66. E= -.41286702E+03 F= -.41319152E+03 E0= -.41317012E+03  EK= 0.32450E+00 SP= 0.00E+00 SK= 0.00E+00
       N       E                     dE             d eps       ncg     rms          rms(c)
RMM:   1    -0.413205010492E+03   -0.13492E-01   -0.66410E+00  4308   0.663E-01    0.940E-01
RMM:   2    -0.413201771985E+03    0.32385E-02   -0.91394E-02  4267   0.105E-01    0.690E-01
RMM:   3    -0.413195948101E+03    0.58239E-02   -0.54148E-02  4692   0.861E-02    0.268E-01
RMM:   4    -0.413210821393E+03   -0.14873E-01   -0.18989E-02  5123   0.118E-01    0.545E-01
RMM:   5    -0.413193741421E+03    0.17080E-01   -0.84813E-03  4789   0.909E-02    0.401E-02
RMM:   6    -0.413193855930E+03   -0.11451E-03   -0.14735E-03  5839   0.354E-02    0.271E-02
RMM:   7    -0.413193872540E+03   -0.16610E-04   -0.15457E-04  5388   0.141E-02    0.137E-02
RMM:   8    -0.413193872518E+03    0.22279E-07   -0.26606E-05  4279   0.561E-03    0.697E-03
RMM:   9    -0.413193873462E+03   -0.94457E-06   -0.48604E-06  2820   0.280E-03
   34 T=    67. E= -.41286715E+03 F= -.41319387E+03 E0= -.41317252E+03  EK= 0.32673E+00 SP= 0.00E+00 SK= 0.00E+00
       N       E                     dE             d eps       ncg     rms          rms(c)
RMM:   1    -0.413209443869E+03   -0.15571E-01   -0.66590E+00  4306   0.682E-01    0.961E-01
RMM:   2    -0.413203980118E+03    0.54638E-02   -0.91493E-02  4295   0.114E-01    0.693E-01
RMM:   3    -0.413201929917E+03    0.20502E-02   -0.52699E-02  4971   0.111E-01    0.340E-01
RMM:   4    -0.413220014984E+03   -0.18085E-01   -0.33194E-02  5050   0.157E-01    0.643E-01
RMM:   5    -0.413196439427E+03    0.23576E-01   -0.11007E-02  4697   0.107E-01    0.457E-02
RMM:   6    -0.413196578415E+03   -0.13899E-03   -0.20105E-03  5774   0.411E-02    0.319E-02
RMM:   7    -0.413196591289E+03   -0.12874E-04   -0.29983E-04  5496   0.174E-02    0.219E-02
RMM:   8    -0.413196589962E+03    0.13267E-05   -0.58941E-05  4937   0.915E-03    0.996E-03
RMM:   9    -0.413196584842E+03    0.51203E-05   -0.11311E-05  3557   0.424E-03    0.534E-03
RMM:  10    -0.413196580955E+03    0.38865E-05   -0.20274E-06  2587   0.238E-03    0.319E-03
RMM:  11    -0.413196577023E+03    0.39321E-05   -0.98755E-07  2495   0.161E-03    0.171E-03
RMM:  12    -0.413196569352E+03    0.76713E-05   -0.12345E-06  2496   0.170E-03    0.100E-03
RMM:  13    -0.413196565285E+03    0.40673E-05   -0.44511E-07  2249   0.113E-03    0.707E-04
RMM:  14    -0.413196563617E+03    0.16673E-05   -0.19842E-07  1661   0.784E-04    0.425E-04
RMM:  15    -0.413196556385E+03    0.72320E-05   -0.20522E-07  1864   0.803E-04    0.425E-04
RMM:  16    -0.413196549047E+03    0.73386E-05   -0.13825E-07  1434   0.673E-04    0.464E-04
RMM:  17    -0.413196542674E+03    0.63726E-05   -0.88439E-08  1072   0.596E-04    0.367E-04
RMM:  18    -0.413196540144E+03    0.25299E-05   -0.51353E-08   939   0.567E-04    0.161E-04
RMM:  19    -0.413196537079E+03    0.30653E-05   -0.59632E-08  1264   0.614E-04    0.182E-04
RMM:  20    -0.413196536976E+03    0.10322E-06   -0.18162E-08   712   0.508E-04
   35 T=    67. E= -.41286748E+03 F= -.41319654E+03 E0= -.41317523E+03  EK= 0.32906E+00 SP= 0.00E+00 SK= 0.00E+00
       N       E                     dE             d eps       ncg     rms          rms(c)
RMM:   1    -0.413210041735E+03   -0.13505E-01   -0.66386E+00  4306   0.698E-01    0.958E-01
RMM:   2    -0.413205956666E+03    0.40851E-02   -0.91348E-02  4261   0.120E-01    0.690E-01
RMM:   3    -0.413199760175E+03    0.61965E-02   -0.50489E-02  4404   0.921E-02    0.207E-01
RMM:   4    -0.413201960805E+03   -0.22006E-02   -0.48044E-03  5101   0.599E-02    0.248E-01
RMM:   5    -0.413198557139E+03    0.34037E-02   -0.17150E-03  4791   0.412E-02    0.370E-02
RMM:   6    -0.413198612121E+03   -0.54982E-04   -0.54158E-04  5568   0.227E-02    0.312E-02
RMM:   7    -0.413198614594E+03   -0.24730E-05   -0.19108E-04  5055   0.155E-02    0.197E-02
RMM:   8    -0.413198605872E+03    0.87225E-05   -0.27985E-05  4390   0.581E-03    0.603E-03
RMM:   9    -0.413198604646E+03    0.12257E-05   -0.38616E-06  2659   0.238E-03    0.312E-03
RMM:  10    -0.413198601483E+03    0.31631E-05   -0.10795E-06  2492   0.172E-03    0.154E-03
RMM:  11    -0.413198598152E+03    0.33308E-05   -0.54637E-07  2301   0.118E-03    0.720E-04
RMM:  12    -0.413198594746E+03    0.34057E-05   -0.31220E-07  1882   0.895E-04    0.349E-04
RMM:  13    -0.413198591650E+03    0.30964E-05   -0.15532E-07  1303   0.714E-04    0.211E-04
RMM:  14    -0.413198587261E+03    0.43893E-05   -0.10918E-07  1107   0.660E-04    0.181E-04
RMM:  15    -0.413198580128E+03    0.71323E-05   -0.10997E-07  1163   0.663E-04    0.112E-04
RMM:  16    -0.413198576939E+03    0.31894E-05   -0.59172E-08  1009   0.608E-04    0.112E-04
RMM:  17    -0.413198572772E+03    0.41672E-05   -0.48316E-08  1027   0.598E-04    0.470E-05
RMM:  18    -0.413198570706E+03    0.20660E-05   -0.29884E-08   877   0.560E-04    0.277E-05
RMM:  19    -0.413198570086E+03    0.61994E-06   -0.14746E-08   699   0.531E-04
   36 T=    67. E= -.41286723E+03 F= -.41319857E+03 E0= -.41317731E+03  EK= 0.33134E+00 SP= 0.00E+00 SK= 0.00E+00
       N       E                     dE             d eps       ncg     rms          rms(c)
RMM:   1    -0.413213200866E+03   -0.14630E-01   -0.67573E+00  4312   0.718E-01    0.947E-01
RMM:   2    -0.413209421922E+03    0.37789E-02   -0.95572E-02  4259   0.121E-01    0.695E-01
RMM:   3    -0.413203116896E+03    0.63050E-02   -0.53615E-02  4343   0.955E-02    0.237E-01
RMM:   4    -0.413202119967E+03    0.99693E-03   -0.28590E-03  4908   0.363E-02    0.914E-02
RMM:   5    -0.413201745230E+03    0.37474E-03   -0.30171E-04  4704   0.171E-02    0.373E-02
RMM:   6    -0.413201778632E+03   -0.33402E-04   -0.32817E-04  5236   0.175E-02    0.300E-02
RMM:   7    -0.413201786973E+03   -0.83407E-05   -0.15282E-04  4758   0.139E-02    0.202E-02
RMM:   8    -0.413201778827E+03    0.81454E-05   -0.28270E-05  4371   0.532E-03    0.558E-03
RMM:   9    -0.413201779756E+03   -0.92857E-06   -0.69507E-06  2431   0.228E-03
   37 T=    68. E= -.41286762E+03 F= -.41320178E+03 E0= -.41318056E+03  EK= 0.33416E+00 SP= 0.00E+00 SK= 0.00E+00
       N       E                     dE             d eps       ncg     rms          rms(c)
RMM:   1    -0.413216484120E+03   -0.14705E-01   -0.68183E+00  4310   0.743E-01    0.965E-01
RMM:   2    -0.413212334647E+03    0.41495E-02   -0.95606E-02  4264   0.115E-01    0.701E-01
RMM:   3    -0.413205634553E+03    0.67001E-02   -0.52383E-02  4370   0.874E-02    0.221E-01
RMM:   4    -0.413204397732E+03    0.12368E-02   -0.21778E-03  4596   0.298E-02    0.431E-02
RMM:   5    -0.413204504181E+03   -0.10645E-03   -0.27701E-04  4983   0.144E-02    0.567E-02
RMM:   6    -0.413204413339E+03    0.90841E-04   -0.26660E-04  5125   0.154E-02    0.331E-02
RMM:   7    -0.413204418531E+03   -0.51921E-05   -0.16983E-04  4826   0.145E-02    0.224E-02
RMM:   8    -0.413204406876E+03    0.11655E-04   -0.27388E-05  4311   0.550E-03    0.724E-03
RMM:   9    -0.413204406465E+03    0.41112E-06   -0.11928E-05  2419   0.234E-03    0.405E-03
RMM:  10    -0.413204401348E+03    0.51171E-05   -0.16601E-06  2334   0.147E-03    0.160E-03
RMM:  11    -0.413204397936E+03    0.34119E-05   -0.57620E-07  1533   0.843E-04    0.516E-04
RMM:  12    -0.413204393465E+03    0.44708E-05   -0.20067E-07  1188   0.702E-04    0.308E-04
RMM:  13    -0.413204386856E+03    0.66097E-05   -0.17946E-07  1211   0.693E-04    0.225E-04
RMM:  14    -0.413204379604E+03    0.72517E-05   -0.13208E-07  1018   0.639E-04    0.206E-04
RMM:  15    -0.413204371675E+03    0.79290E-05   -0.91852E-08  1079   0.629E-04    0.124E-04
RMM:  16    -0.413204367634E+03    0.40411E-05   -0.45540E-08   836   0.549E-04    0.650E-05
RMM:  17    -0.413204366581E+03    0.10522E-05   -0.16873E-08   576   0.491E-04    0.428E-05
RMM:  18    -0.413204364295E+03    0.22859E-05   -0.20583E-08   687   0.519E-04    0.214E-05
RMM:  19    -0.413204363877E+03    0.41872E-06   -0.73588E-09   479   0.474E-04
   38 T=    69. E= -.41286746E+03 F= -.41320436E+03 E0= -.41318319E+03  EK= 0.33691E+00 SP= 0.00E+00 SK= 0.00E+00
       N       E                     dE             d eps       ncg     rms          rms(c)
RMM:   1    -0.413219554966E+03   -0.15191E-01   -0.68155E+00  4309   0.779E-01    0.975E-01
RMM:   2    -0.413214932379E+03    0.46226E-02   -0.95905E-02  4260   0.113E-01    0.700E-01
RMM:   3    -0.413208411023E+03    0.65214E-02   -0.50299E-02  4605   0.845E-02    0.204E-01
RMM:   4    -0.413219826483E+03   -0.11415E-01   -0.14079E-02  5134   0.101E-01    0.475E-01
RMM:   5    -0.413207073011E+03    0.12753E-01   -0.63552E-03  4801   0.791E-02    0.414E-02
RMM:   6    -0.413207096885E+03   -0.23874E-04   -0.11704E-03  5705   0.337E-02    0.312E-02
RMM:   7    -0.413207113547E+03   -0.16662E-04   -0.27686E-04  5405   0.170E-02    0.209E-02
RMM:   8    -0.413207102379E+03    0.11168E-04   -0.41684E-05  5016   0.753E-03    0.909E-03
RMM:   9    -0.413207100990E+03    0.13892E-05   -0.80759E-06  3104   0.334E-03    0.454E-03
RMM:  10    -0.413207098121E+03    0.28687E-05   -0.15488E-06  2523   0.206E-03    0.247E-03
RMM:  11    -0.413207094187E+03    0.39339E-05   -0.10150E-06  2490   0.158E-03    0.122E-03
RMM:  12    -0.413207089823E+03    0.43643E-05   -0.59919E-07  2309   0.123E-03    0.739E-04
RMM:  13    -0.413207087171E+03    0.26524E-05   -0.25534E-07  1885   0.875E-04    0.385E-04
RMM:  14    -0.413207084339E+03    0.28312E-05   -0.13924E-07  1275   0.703E-04    0.203E-04
RMM:  15    -0.413207078385E+03    0.59545E-05   -0.11594E-07  1238   0.689E-04    0.157E-04
RMM:  16    -0.413207073915E+03    0.44699E-05   -0.76984E-08  1087   0.638E-04    0.129E-04
RMM:  17    -0.413207069521E+03    0.43936E-05   -0.60227E-08  1092   0.620E-04    0.972E-05
RMM:  18    -0.413207065303E+03    0.42181E-05   -0.53954E-08  1174   0.606E-04    0.444E-05
RMM:  19    -0.413207064360E+03    0.94307E-06   -0.24728E-08   789   0.534E-04
   39 T=    69. E= -.41286731E+03 F= -.41320706E+03 E0= -.41318592E+03  EK= 0.33975E+00 SP= 0.00E+00 SK= 0.00E+00
       N       E                     dE             d eps       ncg     rms          rms(c)
RMM:   1    -0.413222826011E+03   -0.15761E-01   -0.68986E+00  4310   0.810E-01    0.959E-01
RMM:   2    -0.413218528198E+03    0.42978E-02   -0.98487E-02  4261   0.115E-01    0.701E-01
RMM:   3    -0.413212254311E+03    0.62739E-02   -0.53104E-02  4717   0.905E-02    0.244E-01
RMM:   4    -0.413230588473E+03   -0.18334E-01   -0.22478E-02  5114   0.128E-01    0.595E-01
RMM:   5    -0.413210294430E+03    0.20294E-01   -0.99751E-03  4794   0.997E-02    0.437E-02
RMM:   6    -0.413210328231E+03   -0.33801E-04   -0.17082E-03  5765   0.397E-02    0.299E-02
RMM:   7    -0.413210360730E+03   -0.32499E-04   -0.30670E-04  5556   0.169E-02    0.206E-02
RMM:   8    -0.413210351649E+03    0.90809E-05   -0.54967E-05  5063   0.816E-03    0.981E-03
RMM:   9    -0.413210352513E+03   -0.86440E-06   -0.10935E-05  3583   0.402E-03    0.526E-03
RMM:  10    -0.413210352266E+03    0.24699E-06   -0.19529E-06  2573   0.223E-03
   40 T=    70. E= -.41286760E+03 F= -.41321035E+03 E0= -.41318925E+03  EK= 0.34276E+00 SP= 0.00E+00 SK= 0.00E+00
       N       E                     dE             d eps       ncg     rms          rms(c)
RMM:   1    -0.413225832438E+03   -0.15480E-01   -0.70109E+00  4316   0.837E-01    0.970E-01
RMM:   2    -0.413221054284E+03    0.47782E-02   -0.10324E-01  4291   0.115E-01    0.711E-01
RMM:   3    -0.413216808366E+03    0.42459E-02   -0.54147E-02  4961   0.100E-01    0.309E-01
RMM:   4    -0.413243255300E+03   -0.26447E-01   -0.38734E-02  5085   0.168E-01    0.729E-01
RMM:   5    -0.413212593424E+03    0.30662E-01   -0.14412E-02  4754   0.122E-01    0.492E-02
RMM:   6    -0.413212667645E+03   -0.74221E-04   -0.24776E-03  5783   0.466E-02    0.307E-02
RMM:   7    -0.413212690675E+03   -0.23030E-04   -0.29100E-04  5681   0.164E-02    0.188E-02
RMM:   8    -0.413212695799E+03   -0.51247E-05   -0.67327E-05  5068   0.834E-03    0.110E-02
RMM:   9    -0.413212689561E+03    0.62386E-05   -0.17195E-05  4301   0.481E-03    0.589E-03
RMM:  10    -0.413212687495E+03    0.20655E-05   -0.28038E-06  2656   0.259E-03    0.340E-03
RMM:  11    -0.413212685269E+03    0.22261E-05   -0.12273E-06  2503   0.178E-03    0.196E-03
RMM:  12    -0.413212679623E+03    0.56463E-05   -0.13209E-06  2508   0.173E-03    0.100E-03
RMM:  13    -0.413212675078E+03    0.45450E-05   -0.52460E-07  2320   0.119E-03    0.649E-04
RMM:  14    -0.413212673538E+03    0.15397E-05   -0.21527E-07  1692   0.800E-04    0.357E-04
RMM:  15    -0.413212667419E+03    0.61192E-05   -0.17029E-07  1488   0.753E-04    0.281E-04
RMM:  16    -0.413212661529E+03    0.58899E-05   -0.12564E-07  1429   0.697E-04    0.348E-04
RMM:  17    -0.413212658612E+03    0.29172E-05   -0.64176E-08  1026   0.585E-04    0.250E-04
RMM:  18    -0.413212652836E+03    0.57759E-05   -0.74633E-08  1327   0.632E-04    0.154E-04
RMM:  19    -0.413212651007E+03    0.18285E-05   -0.36231E-08   918   0.547E-04    0.429E-05
RMM:  20    -0.413212649840E+03    0.11672E-05   -0.26116E-08   881   0.540E-04    0.781E-05
RMM:  21    -0.413212649570E+03    0.27019E-06   -0.13517E-08   701   0.508E-04
   41 T=    70. E= -.41286731E+03 F= -.41321265E+03 E0= -.41319158E+03  EK= 0.34534E+00 SP= 0.00E+00 SK= 0.00E+00
       N       E                     dE             d eps       ncg     rms          rms(c)
RMM:   1    -0.413231606762E+03   -0.18957E-01   -0.70182E+00  4316   0.917E-01    0.986E-01
RMM:   2    -0.413223468242E+03    0.81385E-02   -0.10702E-01  4314   0.125E-01    0.710E-01
RMM:   3    -0.413217809351E+03    0.56589E-02   -0.48839E-02  4913   0.887E-02    0.233E-01
RMM:   4    -0.413247949672E+03   -0.30140E-01   -0.37437E-02  5111   0.164E-01    0.748E-01
RMM:   5    -0.413215295773E+03    0.32654E-01   -0.15517E-02  4777   0.125E-01    0.500E-02
RMM:   6    -0.413215379997E+03   -0.84224E-04   -0.26306E-03  5785   0.481E-02    0.315E-02
RMM:   7    -0.413215410486E+03   -0.30488E-04   -0.31734E-04  5686   0.168E-02    0.187E-02
RMM:   8    -0.413215408392E+03    0.20938E-05   -0.49718E-05  4935   0.735E-03    0.954E-03
RMM:   9    -0.413215408857E+03   -0.46561E-06   -0.19361E-05  4432   0.472E-03    0.673E-03
RMM:  10    -0.413215403980E+03    0.48771E-05   -0.30135E-06  2671   0.274E-03    0.366E-03
RMM:  11    -0.413215401410E+03    0.25700E-05   -0.13351E-06  2499   0.187E-03    0.216E-03
RMM:  12    -0.413215394855E+03    0.65552E-05   -0.14098E-06  2494   0.190E-03    0.119E-03
RMM:  13    -0.413215391011E+03    0.38438E-05   -0.52820E-07  2364   0.128E-03    0.776E-04
RMM:  14    -0.413215389821E+03    0.11902E-05   -0.21905E-07  1829   0.841E-04    0.441E-04
RMM:  15    -0.413215385301E+03    0.45198E-05   -0.13080E-07  1479   0.730E-04    0.217E-04
RMM:  16    -0.413215380398E+03    0.49029E-05   -0.93624E-08  1377   0.668E-04    0.341E-04
RMM:  17    -0.413215377599E+03    0.27992E-05   -0.47548E-08   967   0.574E-04    0.286E-04
RMM:  18    -0.413215371271E+03    0.63277E-05   -0.59851E-08  1195   0.613E-04    0.153E-04
RMM:  19    -0.413215369341E+03    0.19303E-05   -0.30072E-08   904   0.549E-04    0.574E-05
RMM:  20    -0.413215368190E+03    0.11505E-05   -0.21294E-08   839   0.538E-04    0.457E-05
RMM:  21    -0.413215367835E+03    0.35496E-06   -0.13358E-08   731   0.519E-04
   42 T=    71. E= -.41286740E+03 F= -.41321537E+03 E0= -.41319433E+03  EK= 0.34796E+00 SP= 0.00E+00 SK= 0.00E+00
       N       E                     dE             d eps       ncg     rms          rms(c)
RMM:   1    -0.413232477593E+03   -0.17109E-01   -0.70313E+00  4316   0.944E-01    0.970E-01
RMM:   2    -0.413225873363E+03    0.66042E-02   -0.10350E-01  4373   0.121E-01    0.707E-01
RMM:   3    -0.413220687275E+03    0.51861E-02   -0.52143E-02  4941   0.941E-02    0.273E-01
RMM:   4    -0.413249130458E+03   -0.28443E-01   -0.37862E-02  5102   0.166E-01    0.739E-01
RMM:   5    -0.413217439092E+03    0.31691E-01   -0.15018E-02  4772   0.124E-01    0.497E-02
RMM:   6    -0.413217509892E+03   -0.70800E-04   -0.25269E-03  5768   0.471E-02    0.304E-02
RMM:   7    -0.413217541247E+03   -0.31355E-04   -0.29911E-04  5707   0.164E-02    0.179E-02
RMM:   8    -0.413217539991E+03    0.12557E-05   -0.47116E-05  4909   0.716E-03    0.889E-03
RMM:   9    -0.413217542246E+03   -0.22547E-05   -0.18020E-05  4328   0.457E-03    0.634E-03
RMM:  10    -0.413217538854E+03    0.33914E-05   -0.29373E-06  2664   0.269E-03    0.349E-03
RMM:  11    -0.413217537232E+03    0.16224E-05   -0.12827E-06  2502   0.182E-03    0.203E-03
RMM:  12    -0.413217532688E+03    0.45439E-05   -0.13902E-06  2504   0.182E-03    0.114E-03
RMM:  13    -0.413217529675E+03    0.30130E-05   -0.51134E-07  2357   0.123E-03    0.727E-04
RMM:  14    -0.413217528485E+03    0.11897E-05   -0.20928E-07  1725   0.814E-04    0.396E-04
RMM:  15    -0.413217524110E+03    0.43748E-05   -0.14377E-07  1497   0.740E-04    0.237E-04
RMM:  16    -0.413217520314E+03    0.37963E-05   -0.85402E-08  1202   0.648E-04    0.259E-04
RMM:  17    -0.413217516950E+03    0.33636E-05   -0.58198E-08  1044   0.601E-04    0.217E-04
RMM:  18    -0.413217512390E+03    0.45606E-05   -0.56192E-08  1138   0.611E-04    0.107E-04
RMM:  19    -0.413217510016E+03    0.23740E-05   -0.35586E-08   997   0.570E-04    0.401E-05
RMM:  20    -0.413217509308E+03    0.70819E-06   -0.17244E-08   768   0.528E-04
   43 T=    71. E= -.41286740E+03 F= -.41321751E+03 E0= -.41319650E+03  EK= 0.35011E+00 SP= 0.00E+00 SK= 0.00E+00
       N       E                     dE             d eps       ncg     rms          rms(c)
RMM:   1    -0.413234865516E+03   -0.17356E-01   -0.71622E+00  4316   0.102E+00    0.973E-01
RMM:   2    -0.413227352520E+03    0.75130E-02   -0.10993E-01  4407   0.133E-01    0.717E-01
RMM:   3    -0.413222728543E+03    0.46240E-02   -0.53407E-02  4960   0.999E-02    0.302E-01
RMM:   4    -0.413252082906E+03   -0.29354E-01   -0.41887E-02  5091   0.175E-01    0.760E-01
RMM:   5    -0.413218548646E+03    0.33534E-01   -0.15585E-02  4760   0.127E-01    0.509E-02
RMM:   6    -0.413218621147E+03   -0.72500E-04   -0.26171E-03  5772   0.479E-02    0.297E-02
RMM:   7    -0.413218648108E+03   -0.26961E-04   -0.28874E-04  5707   0.160E-02    0.173E-02
RMM:   8    -0.413218653840E+03   -0.57317E-05   -0.48506E-05  4959   0.710E-03    0.858E-03
RMM:   9    -0.413218651795E+03    0.20449E-05   -0.16353E-05  4253   0.440E-03    0.580E-03
RMM:  10    -0.413218651382E+03    0.41235E-06   -0.35069E-06  2753   0.269E-03
   44 T=    72. E= -.41286723E+03 F= -.41321865E+03 E0= -.41319766E+03  EK= 0.35142E+00 SP= 0.00E+00 SK= 0.00E+00
       N       E                     dE             d eps       ncg     rms          rms(c)
RMM:   1    -0.413237663372E+03   -0.19012E-01   -0.71152E+00  4316   0.106E+00    0.992E-01
RMM:   2    -0.413228434965E+03    0.92284E-02   -0.10899E-01  4454   0.136E-01    0.716E-01
RMM:   3    -0.413230266688E+03   -0.18317E-02   -0.54879E-02  5081   0.125E-01    0.435E-01
RMM:   4    -0.413240725791E+03   -0.10459E-01   -0.39149E-02  5040   0.173E-01    0.605E-01
RMM:   5    -0.413219910593E+03    0.20815E-01   -0.83238E-03  4635   0.101E-01    0.493E-02
RMM:   6    -0.413219911816E+03   -0.12234E-05   -0.15847E-03  5623   0.380E-02    0.296E-02
RMM:   7    -0.413219924433E+03   -0.12617E-04   -0.25630E-04  5506   0.162E-02    0.210E-02
RMM:   8    -0.413219922085E+03    0.23480E-05   -0.77948E-05  5044   0.969E-03    0.100E-02
RMM:   9    -0.413219915188E+03    0.68973E-05   -0.97360E-06  3554   0.434E-03    0.426E-03
RMM:  10    -0.413219910266E+03    0.49217E-05   -0.19453E-06  2597   0.216E-03    0.242E-03
RMM:  11    -0.413219905030E+03    0.52360E-05   -0.10021E-06  2477   0.156E-03    0.124E-03
RMM:  12    -0.413219896544E+03    0.84859E-05   -0.75127E-07  2384   0.131E-03    0.642E-04
RMM:  13    -0.413219891746E+03    0.47983E-05   -0.30441E-07  1901   0.917E-04    0.365E-04
RMM:  14    -0.413219887583E+03    0.41633E-05   -0.16285E-07  1291   0.718E-04    0.179E-04
RMM:  15    -0.413219876235E+03    0.11348E-04   -0.18394E-07  1607   0.773E-04    0.242E-04
RMM:  16    -0.413219871794E+03    0.44408E-05   -0.95355E-08  1275   0.639E-04    0.143E-04
RMM:  17    -0.413219866273E+03    0.55217E-05   -0.78451E-08  1284   0.628E-04    0.645E-05
RMM:  18    -0.413219862281E+03    0.39913E-05   -0.52037E-08  1141   0.583E-04    0.654E-05
RMM:  19    -0.413219861933E+03    0.34803E-06   -0.26221E-08   812   0.515E-04
   45 T=    72. E= -.41286770E+03 F= -.41321986E+03 E0= -.41319890E+03  EK= 0.35216E+00 SP= 0.00E+00 SK= 0.00E+00
       N       E                     dE             d eps       ncg     rms          rms(c)
RMM:   1    -0.413237212933E+03   -0.17351E-01   -0.70624E+00  4316   0.114E+00    0.974E-01
RMM:   2    -0.413227634121E+03    0.95788E-02   -0.11004E-01  4438   0.143E-01    0.709E-01
RMM:   3    -0.413225666156E+03    0.19680E-02   -0.51217E-02  5015   0.115E-01    0.350E-01
RMM:   4    -0.413247844732E+03   -0.22179E-01   -0.41855E-02  5068   0.177E-01    0.704E-01
RMM:   5    -0.413219181060E+03    0.28664E-01   -0.12397E-02  4719   0.118E-01    0.513E-02
RMM:   6    -0.413219205120E+03   -0.24060E-04   -0.21225E-03  5706   0.440E-02    0.290E-02
RMM:   7    -0.413219234099E+03   -0.28979E-04   -0.25691E-04  5717   0.158E-02    0.179E-02
RMM:   8    -0.413219242364E+03   -0.82650E-05   -0.81032E-05  5145   0.925E-03    0.113E-02
RMM:   9    -0.413219233912E+03    0.84516E-05   -0.17300E-05  4315   0.513E-03    0.481E-03
RMM:  10    -0.413219231285E+03    0.26279E-05   -0.32062E-06  2731   0.262E-03    0.298E-03
RMM:  11    -0.413219228542E+03    0.27430E-05   -0.11935E-06  2492   0.178E-03    0.157E-03
RMM:  12    -0.413219223156E+03    0.53855E-05   -0.81496E-07  2460   0.145E-03    0.802E-04
RMM:  13    -0.413219218572E+03    0.45845E-05   -0.35697E-07  2067   0.993E-04    0.374E-04
RMM:  14    -0.413219216000E+03    0.25718E-05   -0.17415E-07  1429   0.741E-04    0.186E-04
RMM:  15    -0.413219209825E+03    0.61750E-05   -0.13698E-07  1275   0.711E-04    0.160E-04
RMM:  16    -0.413219205927E+03    0.38979E-05   -0.91314E-08  1223   0.661E-04    0.124E-04
RMM:  17    -0.413219201858E+03    0.40689E-05   -0.76899E-08  1316   0.644E-04    0.718E-05
RMM:  18    -0.413219198167E+03    0.36907E-05   -0.52165E-08  1128   0.589E-04    0.372E-05
RMM:  19    -0.413219196334E+03    0.18328E-05   -0.32365E-08   924   0.551E-04    0.312E-05
RMM:  20    -0.413219196091E+03    0.24317E-06   -0.17616E-08   729   0.518E-04
   46 T=    72. E= -.41286764E+03 F= -.41321920E+03 E0= -.41319825E+03  EK= 0.35155E+00 SP= 0.00E+00 SK= 0.00E+00
       N       E                     dE             d eps       ncg     rms          rms(c)
RMM:   1    -0.413239200290E+03   -0.20004E-01   -0.71549E+00  4316   0.127E+00    0.964E-01
RMM:   2    -0.413226591717E+03    0.12609E-01   -0.11488E-01  4474   0.158E-01    0.715E-01
RMM:   3    -0.413227698695E+03   -0.11070E-02   -0.55721E-02  5042   0.132E-01    0.434E-01
RMM:   4    -0.413242207814E+03   -0.14509E-01   -0.42574E-02  5044   0.181E-01    0.657E-01
RMM:   5    -0.413217609282E+03    0.24599E-01   -0.10392E-02  4668   0.112E-01    0.508E-02
RMM:   6    -0.413217599212E+03    0.10069E-04   -0.17639E-03  5621   0.405E-02    0.267E-02
RMM:   7    -0.413217621187E+03   -0.21974E-04   -0.23750E-04  5676   0.154E-02    0.179E-02
RMM:   8    -0.413217629559E+03   -0.83719E-05   -0.87423E-05  5120   0.989E-03    0.102E-02
RMM:   9    -0.413217624634E+03    0.49244E-05   -0.12471E-05  3944   0.485E-03    0.425E-03
RMM:  10    -0.413217623214E+03    0.14200E-05   -0.29936E-06  2721   0.240E-03    0.263E-03
RMM:  11    -0.413217621094E+03    0.21200E-05   -0.12463E-06  2494   0.173E-03    0.126E-03
RMM:  12    -0.413217617556E+03    0.35381E-05   -0.76983E-07  2384   0.134E-03    0.643E-04
RMM:  13    -0.413217614418E+03    0.31380E-05   -0.35437E-07  1834   0.944E-04    0.282E-04
RMM:  14    -0.413217611556E+03    0.28617E-05   -0.20296E-07  1435   0.767E-04    0.153E-04
RMM:  15    -0.413217606869E+03    0.46869E-05   -0.17192E-07  1409   0.739E-04    0.121E-04
RMM:  16    -0.413217603431E+03    0.34380E-05   -0.12090E-07  1323   0.670E-04    0.899E-05
RMM:  17    -0.413217598167E+03    0.52640E-05   -0.11206E-07  1445   0.672E-04    0.547E-05
RMM:  18    -0.413217596290E+03    0.18777E-05   -0.53688E-08   981   0.555E-04    0.340E-05
RMM:  19    -0.413217595391E+03    0.89865E-06   -0.31722E-08   835   0.529E-04
   47 T=    71. E= -.41286776E+03 F= -.41321760E+03 E0= -.41319666E+03  EK= 0.34983E+00 SP= 0.00E+00 SK= 0.00E+00
       N       E                     dE             d eps       ncg     rms          rms(c)
RMM:   1    -0.413238594890E+03   -0.20999E-01   -0.70551E+00  4314   0.133E+00    0.977E-01
RMM:   2    -0.413223471847E+03    0.15123E-01   -0.11476E-01  4514   0.168E-01    0.713E-01
RMM:   3    -0.413228901681E+03   -0.54298E-02   -0.54317E-02  5084   0.143E-01    0.498E-01
RMM:   4    -0.413233467567E+03   -0.45659E-02   -0.40722E-02  5015   0.180E-01    0.571E-01
RMM:   5    -0.413214932925E+03    0.18535E-01   -0.71387E-03  4611   0.989E-02    0.510E-02
RMM:   6    -0.413214893442E+03    0.39483E-04   -0.12272E-03  5351   0.350E-02    0.263E-02
RMM:   7    -0.413214917092E+03   -0.23649E-04   -0.18013E-04  5631   0.137E-02    0.160E-02
RMM:   8    -0.413214923071E+03   -0.59792E-05   -0.84382E-05  5180   0.958E-03    0.105E-02
RMM:   9    -0.413214913201E+03    0.98701E-05   -0.12150E-05  3947   0.482E-03    0.399E-03
RMM:  10    -0.413214910367E+03    0.28342E-05   -0.28648E-06  2700   0.242E-03    0.239E-03
RMM:  11    -0.413214906136E+03    0.42309E-05   -0.12672E-06  2488   0.182E-03    0.122E-03
RMM:  12    -0.413214901663E+03    0.44726E-05   -0.59458E-07  2342   0.129E-03    0.666E-04
RMM:  13    -0.413214897636E+03    0.40276E-05   -0.27730E-07  1767   0.902E-04    0.308E-04
RMM:  14    -0.413214893056E+03    0.45794E-05   -0.16718E-07  1424   0.741E-04    0.161E-04
RMM:  15    -0.413214888201E+03    0.48548E-05   -0.11801E-07  1282   0.690E-04    0.117E-04
RMM:  16    -0.413214884194E+03    0.40071E-05   -0.84525E-08  1220   0.645E-04    0.847E-05
RMM:  17    -0.413214877148E+03    0.70457E-05   -0.90556E-08  1482   0.666E-04    0.709E-05
RMM:  18    -0.413214875984E+03    0.11644E-05   -0.32826E-08   846   0.524E-04    0.497E-05
RMM:  19    -0.413214874225E+03    0.17593E-05   -0.28227E-08   880   0.527E-04    0.199E-05
RMM:  20    -0.413214873631E+03    0.59358E-06   -0.15577E-08   694   0.498E-04
   48 T=    71. E= -.41286807E+03 F= -.41321487E+03 E0= -.41319395E+03  EK= 0.34680E+00 SP= 0.00E+00 SK= 0.00E+00
       N       E                     dE             d eps       ncg     rms          rms(c)
RMM:   1    -0.413233602548E+03   -0.18728E-01   -0.68990E+00  4312   0.142E+00    0.962E-01
RMM:   2    -0.413217973593E+03    0.15629E-01   -0.11508E-01  4592   0.174E-01    0.702E-01
RMM:   3    -0.413231099491E+03   -0.13126E-01   -0.56565E-02  5108   0.163E-01    0.610E-01
RMM:   4    -0.413222290349E+03    0.88091E-02   -0.40638E-02  4975   0.183E-01    0.474E-01
RMM:   5    -0.413209636815E+03    0.12654E-01   -0.49442E-03  4573   0.892E-02    0.516E-02
RMM:   6    -0.413209550486E+03    0.86328E-04   -0.68041E-04  4876   0.291E-02    0.263E-02
RMM:   7    -0.413209575862E+03   -0.25375E-04   -0.14549E-04  5689   0.132E-02    0.123E-02
RMM:   8    -0.413209575596E+03    0.26526E-06   -0.31194E-05  5102   0.689E-03    0.675E-03
RMM:   9    -0.413209573539E+03    0.20570E-05   -0.78749E-06  3462   0.335E-03    0.336E-03
RMM:  10    -0.413209569903E+03    0.36360E-05   -0.16701E-06  2528   0.211E-03    0.237E-03
RMM:  11    -0.413209565216E+03    0.46878E-05   -0.97750E-07  2464   0.168E-03    0.147E-03
RMM:  12    -0.413209561766E+03    0.34497E-05   -0.40552E-07  2344   0.112E-03    0.789E-04
RMM:  13    -0.413209557327E+03    0.44392E-05   -0.25506E-07  1806   0.869E-04    0.364E-04
RMM:  14    -0.413209551331E+03    0.59959E-05   -0.20107E-07  1710   0.784E-04    0.421E-04
RMM:  15    -0.413209547041E+03    0.42893E-05   -0.88800E-08  1013   0.601E-04    0.197E-04
RMM:  16    -0.413209542951E+03    0.40903E-05   -0.69966E-08  1080   0.607E-04    0.942E-05
RMM:  17    -0.413209538581E+03    0.43706E-05   -0.59774E-08  1128   0.604E-04    0.116E-04
RMM:  18    -0.413209537258E+03    0.13224E-05   -0.28597E-08   806   0.538E-04    0.812E-05
RMM:  19    -0.413209533019E+03    0.42393E-05   -0.39542E-08  1063   0.581E-04    0.399E-05
RMM:  20    -0.413209531699E+03    0.13196E-05   -0.18244E-08   735   0.511E-04    0.324E-05
RMM:  21    -0.413209531489E+03    0.21024E-06   -0.99769E-09   594   0.483E-04
   49 T=    70. E= -.41286779E+03 F= -.41320953E+03 E0= -.41318861E+03  EK= 0.34174E+00 SP= 0.00E+00 SK= 0.00E+00
       N       E                     dE             d eps       ncg     rms          rms(c)
RMM:   1    -0.413228957865E+03   -0.19426E-01   -0.68449E+00  4310   0.156E+00    0.932E-01
RMM:   2    -0.413211636387E+03    0.17321E-01   -0.12246E-01  4701   0.187E-01    0.699E-01
RMM:   3    -0.413236151550E+03   -0.24515E-01   -0.63928E-02  5123   0.191E-01    0.751E-01
RMM:   4    -0.413212673606E+03    0.23478E-01   -0.45707E-02  4937   0.198E-01    0.418E-01
RMM:   5    -0.413203175368E+03    0.94982E-02   -0.50396E-03  4650   0.923E-02    0.565E-02
RMM:   6    -0.413203036423E+03    0.13895E-03   -0.50798E-04  4717   0.287E-02    0.269E-02
RMM:   7    -0.413203070965E+03   -0.34542E-04   -0.23580E-04  5660   0.173E-02    0.198E-02
RMM:   8    -0.413203054508E+03    0.16457E-04   -0.59586E-05  5038   0.897E-03    0.971E-03
RMM:   9    -0.413203053135E+03    0.13726E-05   -0.17774E-05  4769   0.533E-03    0.427E-03
RMM:  10    -0.413203050342E+03    0.27934E-05   -0.24540E-06  2695   0.245E-03    0.261E-03
RMM:  11    -0.413203046384E+03    0.39573E-05   -0.12232E-06  2499   0.186E-03    0.190E-03
RMM:  12    -0.413203043136E+03    0.32487E-05   -0.47253E-07  2330   0.116E-03    0.959E-04
RMM:  13    -0.413203039894E+03    0.32415E-05   -0.31922E-07  2042   0.914E-04    0.374E-04
RMM:  14    -0.413203035801E+03    0.40932E-05   -0.23807E-07  1735   0.794E-04    0.328E-04
RMM:  15    -0.413203030828E+03    0.49728E-05   -0.16073E-07  1245   0.679E-04    0.141E-04
RMM:  16    -0.413203027661E+03    0.31674E-05   -0.10222E-07  1172   0.626E-04    0.864E-05
RMM:  17    -0.413203023854E+03    0.38067E-05   -0.90009E-08  1261   0.624E-04    0.733E-05
RMM:  18    -0.413203021197E+03    0.26566E-05   -0.60543E-08  1108   0.576E-04    0.600E-05
RMM:  19    -0.413203019321E+03    0.18764E-05   -0.36862E-08   932   0.536E-04    0.324E-05
RMM:  20    -0.413203017991E+03    0.13299E-05   -0.28465E-08   871   0.517E-04    0.264E-05
RMM:  21    -0.413203017767E+03    0.22378E-06   -0.12305E-08   687   0.483E-04
[...]
RMM:   4    -0.413174898114E+03   -0.95447E-02   -0.24449E-02  5063   0.135E-01    0.519E-01
RMM:   5    -0.413160226066E+03    0.14672E-01   -0.76324E-03  4674   0.889E-02    0.449E-02
RMM:   6    -0.413160202947E+03    0.23118E-04   -0.11258E-03  5355   0.329E-02    0.251E-02
RMM:   7    -0.413160226951E+03   -0.24003E-04   -0.20041E-04  5816   0.135E-02    0.173E-02
RMM:   8    -0.413160230073E+03   -0.31221E-05   -0.44544E-05  5117   0.774E-03    0.716E-03
RMM:   9    -0.413160232639E+03   -0.25662E-05   -0.66342E-06  2911   0.319E-03    0.345E-03
RMM:  10    -0.413160235352E+03   -0.27130E-05   -0.12902E-06  2517   0.178E-03    0.226E-03
RMM:  11    -0.413160239533E+03   -0.41809E-05   -0.17100E-06  2510   0.159E-03    0.110E-03
RMM:  12    -0.413160240995E+03   -0.14623E-05   -0.59335E-07  2081   0.111E-03    0.524E-04
RMM:  13    -0.413160242468E+03   -0.14728E-05   -0.52733E-07  2007   0.963E-04    0.308E-04
RMM:  14    -0.413160243260E+03   -0.79266E-06   -0.40350E-07  1440   0.807E-04
  139 T=    60. E= -.41286753E+03 F= -.41316024E+03 E0= -.41313951E+03  EK= 0.29271E+00 SP= 0.00E+00 SK= 0.00E+00
       N       E                     dE             d eps       ncg     rms          rms(c)
RMM:   1    -0.413171316745E+03   -0.11074E-01   -0.51949E+00  4264   0.616E-01    0.861E-01
RMM:   2    -0.413167465460E+03    0.38513E-02   -0.68244E-02  4323   0.730E-02    0.619E-01
RMM:   3    -0.413166248553E+03    0.12169E-02   -0.53967E-02  5121   0.840E-02    0.359E-01
RMM:   4    -0.413174771520E+03   -0.85230E-02   -0.22208E-02  5056   0.129E-01    0.510E-01
RMM:   5    -0.413161068606E+03    0.13703E-01   -0.81082E-03  4675   0.869E-02    0.424E-02
RMM:   6    -0.413161057650E+03    0.10956E-04   -0.10543E-03  5351   0.315E-02    0.229E-02
RMM:   7    -0.413161108329E+03   -0.50680E-04   -0.17983E-04  5784   0.125E-02    0.157E-02
RMM:   8    -0.413161121412E+03   -0.13082E-04   -0.40502E-05  5085   0.724E-03    0.631E-03
RMM:   9    -0.413161128267E+03   -0.68555E-05   -0.55552E-06  2843   0.298E-03    0.359E-03
RMM:  10    -0.413161134318E+03   -0.60511E-05   -0.13115E-06  2523   0.170E-03    0.238E-03
RMM:  11    -0.413161144062E+03   -0.97434E-05   -0.17969E-06  2495   0.153E-03    0.990E-04
RMM:  12    -0.413161148113E+03   -0.40511E-05   -0.61377E-07  1949   0.107E-03    0.480E-04
RMM:  13    -0.413161152120E+03   -0.40073E-05   -0.50374E-07  1913   0.937E-04    0.285E-04
RMM:  14    -0.413161155036E+03   -0.29162E-05   -0.40869E-07  1455   0.797E-04    0.197E-04
RMM:  15    -0.413161157345E+03   -0.23081E-05   -0.43425E-07  1513   0.801E-04    0.138E-04
RMM:  16    -0.413161158209E+03   -0.86468E-06   -0.25868E-07  1385   0.709E-04
  140 T=    60. E= -.41286781E+03 F= -.41316116E+03 E0= -.41314043E+03  EK= 0.29335E+00 SP= 0.00E+00 SK= 0.00E+00
       N       E                     dE             d eps       ncg     rms          rms(c)
RMM:   1    -0.413172161043E+03   -0.11004E-01   -0.51316E+00  4264   0.613E-01    0.870E-01
RMM:   2    -0.413167707675E+03    0.44534E-02   -0.67443E-02  4323   0.730E-02    0.624E-01
RMM:   3    -0.413165873878E+03    0.18338E-02   -0.55544E-02  5086   0.826E-02    0.351E-01
RMM:   4    -0.413175251849E+03   -0.93780E-02   -0.21494E-02  5058   0.127E-01    0.516E-01
RMM:   5    -0.413161240013E+03    0.14012E-01   -0.84508E-03  4696   0.883E-02    0.414E-02
RMM:   6    -0.413161227367E+03    0.12646E-04   -0.10698E-03  5407   0.318E-02    0.222E-02
RMM:   7    -0.413161265268E+03   -0.37901E-04   -0.17671E-04  5726   0.128E-02    0.152E-02
RMM:   8    -0.413161279980E+03   -0.14712E-04   -0.39572E-05  5020   0.727E-03    0.614E-03
RMM:   9    -0.413161287243E+03   -0.72624E-05   -0.58402E-06  2873   0.296E-03    0.361E-03
RMM:  10    -0.413161293878E+03   -0.66354E-05   -0.13770E-06  2524   0.172E-03    0.238E-03
RMM:  11    -0.413161303944E+03   -0.10066E-04   -0.17956E-06  2482   0.151E-03    0.934E-04
RMM:  12    -0.413161308721E+03   -0.47771E-05   -0.65991E-07  1986   0.109E-03    0.444E-04
RMM:  13    -0.413161312547E+03   -0.38261E-05   -0.44378E-07  1760   0.901E-04    0.276E-04
RMM:  14    -0.413161315946E+03   -0.33985E-05   -0.44366E-07  1636   0.841E-04    0.193E-04
RMM:  15    -0.413161318359E+03   -0.24134E-05   -0.39855E-07  1501   0.787E-04    0.137E-04
RMM:  16    -0.413161319515E+03   -0.11558E-05   -0.27959E-07  1352   0.710E-04    0.914E-05
RMM:  17    -0.413161320005E+03   -0.49006E-06   -0.15594E-07  1153   0.623E-04
  141 T=    60. E= -.41286757E+03 F= -.41316132E+03 E0= -.41314060E+03  EK= 0.29375E+00 SP= 0.00E+00 SK= 0.00E+00
       N       E                     dE             d eps       ncg     rms          rms(c)
RMM:   1    -0.413172475948E+03   -0.11156E-01   -0.50565E+00  4264   0.612E-01    0.880E-01
RMM:   2    -0.413167470709E+03    0.50052E-02   -0.67201E-02  4322   0.732E-02    0.622E-01
RMM:   3    -0.413164753666E+03    0.27170E-02   -0.52480E-02  5066   0.779E-02    0.308E-01
RMM:   4    -0.413176695262E+03   -0.11942E-01   -0.21934E-02  5069   0.128E-01    0.533E-01
RMM:   5    -0.413161140376E+03    0.15555E-01   -0.86039E-03  4727   0.913E-02    0.419E-02
RMM:   6    -0.413161133208E+03    0.71678E-05   -0.11678E-03  5479   0.336E-02    0.227E-02
RMM:   7    -0.413161167613E+03   -0.34405E-04   -0.18725E-04  5738   0.128E-02    0.160E-02
RMM:   8    -0.413161173370E+03   -0.57572E-05   -0.40985E-05  5049   0.733E-03    0.662E-03
RMM:   9    -0.413161176605E+03   -0.32350E-05   -0.67320E-06  2944   0.313E-03    0.349E-03
RMM:  10    -0.413161180192E+03   -0.35865E-05   -0.15804E-06  2533   0.181E-03    0.228E-03
RMM:  11    -0.413161185165E+03   -0.49737E-05   -0.17923E-06  2497   0.156E-03    0.950E-04
RMM:  12    -0.413161187827E+03   -0.26612E-05   -0.73895E-07  2083   0.114E-03    0.454E-04
RMM:  13    -0.413161189479E+03   -0.16527E-05   -0.41008E-07  1775   0.893E-04    0.314E-04
RMM:  14    -0.413161191007E+03   -0.15281E-05   -0.44499E-07  1602   0.839E-04    0.189E-04
RMM:  15    -0.413161191870E+03   -0.86256E-06   -0.41453E-07  1550   0.798E-04
  142 T=    60. E= -.41286760E+03 F= -.41316119E+03 E0= -.41314049E+03  EK= 0.29359E+00 SP= 0.00E+00 SK= 0.00E+00
       N       E                     dE             d eps       ncg     rms          rms(c)
RMM:   1    -0.413172372539E+03   -0.11182E-01   -0.50997E+00  4264   0.629E-01    0.859E-01
RMM:   2    -0.413167941527E+03    0.44310E-02   -0.67059E-02  4318   0.741E-02    0.617E-01
RMM:   3    -0.413164611032E+03    0.33305E-02   -0.52865E-02  5034   0.743E-02    0.306E-01
RMM:   4    -0.413177928886E+03   -0.13318E-01   -0.21448E-02  5078   0.126E-01    0.547E-01
RMM:   5    -0.413161461193E+03    0.16468E-01   -0.91872E-03  4758   0.936E-02    0.418E-02
RMM:   6    -0.413161466114E+03   -0.49203E-05   -0.12642E-03  5540   0.349E-02    0.229E-02
RMM:   7    -0.413161509677E+03   -0.43563E-04   -0.19751E-04  5699   0.129E-02    0.155E-02
RMM:   8    -0.413161520833E+03   -0.11156E-04   -0.40930E-05  5000   0.707E-03    0.645E-03
RMM:   9    -0.413161526765E+03   -0.59324E-05   -0.64683E-06  2975   0.304E-03    0.351E-03
RMM:  10    -0.413161533860E+03   -0.70948E-05   -0.18487E-06  2544   0.187E-03    0.225E-03
RMM:  11    -0.413161542018E+03   -0.81582E-05   -0.15909E-06  2478   0.150E-03    0.900E-04
RMM:  12    -0.413161547603E+03   -0.55852E-05   -0.80679E-07  2100   0.114E-03    0.433E-04
RMM:  13    -0.413161550558E+03   -0.29554E-05   -0.38823E-07  1643   0.870E-04    0.300E-04
RMM:  14    -0.413161553775E+03   -0.32166E-05   -0.46613E-07  1710   0.867E-04    0.185E-04
RMM:  15    -0.413161556015E+03   -0.22395E-05   -0.40938E-07  1632   0.814E-04    0.164E-04
RMM:  16    -0.413161557420E+03   -0.14051E-05   -0.38649E-07  1511   0.767E-04    0.979E-05
RMM:  17    -0.413161557605E+03   -0.18569E-06   -0.11216E-07  1033   0.581E-04
  143 T=    60. E= -.41286756E+03 F= -.41316156E+03 E0= -.41314086E+03  EK= 0.29399E+00 SP= 0.00E+00 SK= 0.00E+00
       N       E                     dE             d eps       ncg     rms          rms(c)
RMM:   1    -0.413172106649E+03   -0.10549E-01   -0.52841E+00  4264   0.633E-01    0.857E-01
RMM:   2    -0.413168388005E+03    0.37186E-02   -0.67794E-02  4319   0.741E-02    0.622E-01
RMM:   3    -0.413164223016E+03    0.41650E-02   -0.52494E-02  4940   0.684E-02    0.293E-01
RMM:   4    -0.413176481502E+03   -0.12258E-01   -0.18011E-02  5102   0.114E-01    0.511E-01
RMM:   5    -0.413161862807E+03    0.14619E-01   -0.78270E-03  4791   0.875E-02    0.401E-02
RMM:   6    -0.413161880950E+03   -0.18144E-04   -0.11858E-03  5586   0.340E-02    0.234E-02
RMM:   7    -0.413161918418E+03   -0.37467E-04   -0.19197E-04  5648   0.127E-02    0.148E-02
RMM:   8    -0.413161931987E+03   -0.13569E-04   -0.36648E-05  4830   0.677E-03    0.620E-03
RMM:   9    -0.413161939041E+03   -0.70538E-05   -0.58054E-06  2964   0.291E-03    0.343E-03
RMM:  10    -0.413161949611E+03   -0.10571E-04   -0.18479E-06  2540   0.187E-03    0.217E-03
RMM:  11    -0.413161959473E+03   -0.98621E-05   -0.13502E-06  2472   0.144E-03    0.846E-04
RMM:  12    -0.413161966715E+03   -0.72419E-05   -0.75626E-07  2119   0.111E-03    0.446E-04
RMM:  13    -0.413161971302E+03   -0.45870E-05   -0.43862E-07  1707   0.890E-04    0.286E-04
RMM:  14    -0.413161975265E+03   -0.39627E-05   -0.40374E-07  1678   0.846E-04    0.191E-04
RMM:  15    -0.413161978582E+03   -0.33173E-05   -0.42341E-07  1675   0.823E-04    0.175E-04
RMM:  16    -0.413161980611E+03   -0.20286E-05   -0.31305E-07  1510   0.756E-04    0.104E-04
RMM:  17    -0.413161980741E+03   -0.13060E-06   -0.96896E-08  1004   0.561E-04
  144 T=    60. E= -.41286724E+03 F= -.41316198E+03 E0= -.41314129E+03  EK= 0.29474E+00 SP= 0.00E+00 SK= 0.00E+00
       N       E                     dE             d eps       ncg     rms          rms(c)
RMM:   1    -0.413171989860E+03   -0.10009E-01   -0.54341E+00  4264   0.644E-01    0.866E-01
RMM:   2    -0.413168338627E+03    0.36512E-02   -0.69600E-02  4322   0.749E-02    0.620E-01
RMM:   3    -0.413163597270E+03    0.47414E-02   -0.45320E-02  4871   0.607E-02    0.227E-01
RMM:   4    -0.413172734149E+03   -0.91369E-02   -0.12519E-02  5110   0.957E-02    0.431E-01
RMM:   5    -0.413162206715E+03    0.10527E-01   -0.53388E-03  4814   0.732E-02    0.389E-02
RMM:   6    -0.413162217831E+03   -0.11116E-04   -0.94080E-04  5574   0.308E-02    0.258E-02
RMM:   7    -0.413162241589E+03   -0.23758E-04   -0.18608E-04  5507   0.128E-02    0.159E-02
RMM:   8    -0.413162246872E+03   -0.52837E-05   -0.33793E-05  4746   0.660E-03    0.647E-03
RMM:   9    -0.413162250331E+03   -0.34589E-05   -0.56578E-06  2868   0.274E-03    0.336E-03
RMM:  10    -0.413162256640E+03   -0.63084E-05   -0.19729E-06  2544   0.193E-03    0.197E-03
RMM:  11    -0.413162261295E+03   -0.46554E-05   -0.11833E-06  2462   0.143E-03    0.806E-04
RMM:  12    -0.413162264766E+03   -0.34705E-05   -0.71558E-07  2137   0.111E-03    0.466E-04
RMM:  13    -0.413162267535E+03   -0.27691E-05   -0.54035E-07  1855   0.941E-04    0.290E-04
RMM:  14    -0.413162269177E+03   -0.16418E-05   -0.36247E-07  1557   0.813E-04    0.194E-04
RMM:  15    -0.413162270745E+03   -0.15681E-05   -0.47276E-07  1751   0.848E-04    0.177E-04
RMM:  16    -0.413162271447E+03   -0.70189E-06   -0.31422E-07  1429   0.734E-04
  145 T=    60. E= -.41286741E+03 F= -.41316227E+03 E0= -.41314159E+03  EK= 0.29487E+00 SP= 0.00E+00 SK= 0.00E+00
       N       E                     dE             d eps       ncg     rms          rms(c)
RMM:   1    -0.413170511412E+03   -0.82407E-02   -0.56593E+00  4264   0.661E-01    0.847E-01
RMM:   2    -0.413167961801E+03    0.25496E-02   -0.71069E-02  4318   0.764E-02    0.614E-01
RMM:   3    -0.413163178539E+03    0.47833E-02   -0.41634E-02  4749   0.577E-02    0.207E-01
RMM:   4    -0.413165882516E+03   -0.27040E-02   -0.55151E-03  5103   0.634E-02    0.260E-01
RMM:   5    -0.413162124135E+03    0.37584E-02   -0.19399E-03  4818   0.448E-02    0.373E-02
RMM:   6    -0.413162133745E+03   -0.96104E-05   -0.48297E-04  5422   0.228E-02    0.263E-02
RMM:   7    -0.413162148460E+03   -0.14715E-04   -0.13867E-04  5086   0.120E-02    0.150E-02
RMM:   8    -0.413162151269E+03   -0.28085E-05   -0.23084E-05  4519   0.562E-03    0.607E-03
RMM:   9    -0.413162156056E+03   -0.47876E-05   -0.49311E-06  2701   0.231E-03    0.280E-03
RMM:  10    -0.413162165110E+03   -0.90535E-05   -0.17996E-06  2538   0.176E-03    0.148E-03
RMM:  11    -0.413162170439E+03   -0.53292E-05   -0.92583E-07  2352   0.129E-03    0.622E-04
RMM:  12    -0.413162174620E+03   -0.41809E-05   -0.59416E-07  2014   0.101E-03    0.393E-04
RMM:  13    -0.413162178960E+03   -0.43400E-05   -0.61442E-07  1785   0.931E-04    0.241E-04
RMM:  14    -0.413162181393E+03   -0.24331E-05   -0.39935E-07  1579   0.812E-04    0.195E-04
RMM:  15    -0.413162183344E+03   -0.19507E-05   -0.42311E-07  1679   0.805E-04    0.125E-04
RMM:  16    -0.413162184189E+03   -0.84573E-06   -0.23531E-07  1253   0.669E-04
  146 T=    60. E= -.41286722E+03 F= -.41316218E+03 E0= -.41314151E+03  EK= 0.29496E+00 SP= 0.00E+00 SK= 0.00E+00
       N       E                     dE             d eps       ncg     rms          rms(c)
RMM:   1    -0.413170125219E+03   -0.79419E-02   -0.60350E+00  4264   0.683E-01    0.841E-01
RMM:   2    -0.413168543598E+03    0.15816E-02   -0.73771E-02  4311   0.794E-02    0.617E-01
RMM:   3    -0.413163895986E+03    0.46476E-02   -0.39679E-02  4591   0.579E-02    0.206E-01
RMM:   4    -0.413163013491E+03    0.88249E-03   -0.20535E-03  4835   0.328E-02    0.533E-02
RMM:   5    -0.413163014974E+03   -0.14836E-05   -0.23181E-04  4963   0.147E-02    0.490E-02
RMM:   6    -0.413162966595E+03    0.48380E-04   -0.23938E-04  5111   0.154E-02    0.270E-02
RMM:   7    -0.413162987225E+03   -0.20630E-04   -0.12232E-04  4655   0.107E-02    0.155E-02
RMM:   8    -0.413162987772E+03   -0.54733E-06   -0.12810E-05  3768   0.433E-03    0.603E-03
RMM:   9    -0.413162996481E+03   -0.87093E-05   -0.87042E-06  2559   0.240E-03    0.315E-03
RMM:  10    -0.413163010826E+03   -0.14344E-04   -0.19519E-06  2484   0.162E-03    0.125E-03
RMM:  11    -0.413163018701E+03   -0.78754E-05   -0.88920E-07  2119   0.110E-03    0.507E-04
RMM:  12    -0.413163024965E+03   -0.62645E-05   -0.46386E-07  1661   0.863E-04    0.325E-04
RMM:  13    -0.413163032701E+03   -0.77360E-05   -0.76043E-07  1964   0.966E-04    0.294E-04
RMM:  14    -0.413163034495E+03   -0.17937E-05   -0.20411E-07  1176   0.618E-04    0.170E-04
RMM:  15    -0.413163037229E+03   -0.27338E-05   -0.33934E-07  1445   0.747E-04    0.902E-05
RMM:  16    -0.413163037598E+03   -0.36870E-06   -0.83235E-08   959   0.553E-04
  147 T=    60. E= -.41286722E+03 F= -.41316304E+03 E0= -.41314237E+03  EK= 0.29582E+00 SP= 0.00E+00 SK= 0.00E+00
       N       E                     dE             d eps       ncg     rms          rms(c)
RMM:   1    -0.413169439952E+03   -0.64027E-02   -0.63781E+00  4264   0.701E-01    0.850E-01
RMM:   2    -0.413168434449E+03    0.10055E-02   -0.77011E-02  4310   0.819E-02    0.615E-01
RMM:   3    -0.413164026875E+03    0.44076E-02   -0.32152E-02  4718   0.560E-02    0.150E-01
RMM:   4    -0.413169010821E+03   -0.49839E-02   -0.65891E-03  5126   0.717E-02    0.319E-01
RMM:   5    -0.413163349994E+03    0.56608E-02   -0.28298E-03  4823   0.534E-02    0.417E-02
RMM:   6    -0.413163355107E+03   -0.51127E-05   -0.68737E-04  5497   0.266E-02    0.297E-02
RMM:   7    -0.413163364034E+03   -0.89264E-05   -0.18981E-04  5277   0.132E-02    0.160E-02
RMM:   8    -0.413163365421E+03   -0.13873E-05   -0.29132E-05  4890   0.601E-03    0.691E-03
RMM:   9    -0.413163369373E+03   -0.39523E-05   -0.52228E-06  2771   0.260E-03    0.310E-03
RMM:  10    -0.413163376458E+03   -0.70849E-05   -0.17206E-06  2525   0.189E-03    0.161E-03
RMM:  11    -0.413163383101E+03   -0.66425E-05   -0.11685E-06  2488   0.149E-03    0.862E-04
RMM:  12    -0.413163387257E+03   -0.41565E-05   -0.66637E-07  2212   0.113E-03    0.438E-04
RMM:  13    -0.413163390496E+03   -0.32384E-05   -0.49580E-07  1966   0.943E-04    0.315E-04
RMM:  14    -0.413163393251E+03   -0.27554E-05   -0.44077E-07  1717   0.863E-04    0.254E-04
RMM:  15    -0.413163395270E+03   -0.20193E-05   -0.40937E-07  1674   0.817E-04    0.127E-04
RMM:  16    -0.413163396128E+03   -0.85826E-06   -0.21719E-07  1340   0.680E-04
  148 T=    60. E= -.41286734E+03 F= -.41316340E+03 E0= -.41314273E+03  EK= 0.29605E+00 SP= 0.00E+00 SK= 0.00E+00
       N       E                     dE             d eps       ncg     rms          rms(c)
RMM:   1    -0.413167463458E+03   -0.40682E-02   -0.67409E+00  4264   0.723E-01    0.842E-01
RMM:   2    -0.413167573192E+03   -0.10973E-03   -0.79929E-02  4308   0.844E-02    0.608E-01
RMM:   3    -0.413163605741E+03    0.39675E-02   -0.26961E-02  4867   0.568E-02    0.132E-01
RMM:   4    -0.413179088683E+03   -0.15483E-01   -0.17292E-02  5122   0.112E-01    0.531E-01
RMM:   5    -0.413162912941E+03    0.16176E-01   -0.79196E-03  4828   0.876E-02    0.490E-02
RMM:   6    -0.413162932825E+03   -0.19883E-04   -0.14719E-03  5625   0.372E-02    0.316E-02
RMM:   7    -0.413162946344E+03   -0.13520E-04   -0.28101E-04  5670   0.152E-02    0.171E-02
RMM:   8    -0.413162949750E+03   -0.34058E-05   -0.43824E-05  5233   0.716E-03    0.773E-03
RMM:   9    -0.413162951902E+03   -0.21520E-05   -0.64753E-06  3091   0.307E-03    0.401E-03
RMM:  10    -0.413162957535E+03   -0.56329E-05   -0.21637E-06  2566   0.215E-03    0.236E-03
RMM:  11    -0.413162961946E+03   -0.44110E-05   -0.11585E-06  2510   0.160E-03    0.123E-03
RMM:  12    -0.413162966072E+03   -0.41265E-05   -0.91055E-07  2424   0.132E-03    0.655E-04
RMM:  13    -0.413162968368E+03   -0.22951E-05   -0.48377E-07  2048   0.100E-03    0.370E-04
RMM:  14    -0.413162969947E+03   -0.15795E-05   -0.30643E-07  1651   0.831E-04    0.272E-04
RMM:  15    -0.413162971894E+03   -0.19467E-05   -0.41424E-07  1765   0.856E-04    0.186E-04
RMM:  16    -0.413162972953E+03   -0.10597E-05   -0.31317E-07  1566   0.763E-04    0.126E-04
RMM:  17    -0.413162973189E+03   -0.23545E-06   -0.11712E-07  1086   0.600E-04
  149 T=    60. E= -.41286705E+03 F= -.41316297E+03 E0= -.41314231E+03  EK= 0.29592E+00 SP= 0.00E+00 SK= 0.00E+00
       N       E                     dE             d eps       ncg     rms          rms(c)
RMM:   1    -0.413166805087E+03   -0.38321E-02   -0.71917E+00  4264   0.747E-01    0.832E-01
RMM:   2    -0.413168474419E+03   -0.16693E-02   -0.83668E-02  4308   0.873E-02    0.609E-01
RMM:   3    -0.413164850329E+03    0.36241E-02   -0.24702E-02  4897   0.604E-02    0.143E-01
RMM:   4    -0.413185622000E+03   -0.20772E-01   -0.23567E-02  5119   0.129E-01    0.612E-01
RMM:   5    -0.413163963646E+03    0.21658E-01   -0.10457E-02  4819   0.101E-01    0.527E-02
RMM:   6    -0.413163992490E+03   -0.28844E-04   -0.18465E-03  5641   0.415E-02    0.313E-02
RMM:   7    -0.413164021575E+03   -0.29085E-04   -0.32192E-04  5781   0.159E-02    0.171E-02
RMM:   8    -0.413164028999E+03   -0.74238E-05   -0.49826E-05  5278   0.766E-03    0.785E-03
RMM:   9    -0.413164033212E+03   -0.42131E-05   -0.76228E-06  3228   0.327E-03    0.410E-03
RMM:  10    -0.413164042454E+03   -0.92420E-05   -0.23252E-06  2576   0.222E-03    0.254E-03
RMM:  11    -0.413164049807E+03   -0.73526E-05   -0.11698E-06  2509   0.164E-03    0.134E-03
RMM:  12    -0.413164057189E+03   -0.73818E-05   -0.98631E-07  2482   0.140E-03    0.702E-04
RMM:  13    -0.413164060811E+03   -0.36222E-05   -0.47388E-07  2091   0.102E-03    0.393E-04
RMM:  14    -0.413164063436E+03   -0.26253E-05   -0.30315E-07  1676   0.844E-04    0.263E-04
RMM:  15    -0.413164066557E+03   -0.31213E-05   -0.34497E-07  1781   0.840E-04    0.194E-04
RMM:  16    -0.413164068872E+03   -0.23151E-05   -0.29683E-07  1534   0.760E-04    0.134E-04
RMM:  17    -0.413164069316E+03   -0.44319E-06   -0.11009E-07  1085   0.600E-04
  150 T=    60. E= -.41286722E+03 F= -.41316407E+03 E0= -.41314341E+03  EK= 0.29685E+00 SP= 0.00E+00 SK= 0.00E+00
