       N       E                     dE             d eps       ncg     rms          rms(c)
RMM:   1     0.220130531810E+04    0.22013E+04   -0.52438E+04  2132   0.654E+02
RMM:   2     0.705411129172E+03   -0.14959E+04   -0.16260E+04  2132   0.177E+02
RMM:   3     0.137392616143E+03   -0.56802E+03   -0.65703E+03  2132   0.117E+02
RMM:   4    -0.159192575389E+03   -0.29659E+03   -0.27835E+03  2132   0.936E+01
RMM:   5    -0.287463214934E+03   -0.12827E+03   -0.11442E+03  2132   0.595E+01
RMM:   6    -0.349834282940E+03   -0.62371E+02   -0.55140E+02  2132   0.423E+01
RMM:   7    -0.382764468470E+03   -0.32930E+02   -0.30429E+02  2132   0.293E+01
RMM:   8    -0.404230166163E+03   -0.21466E+02   -0.18438E+02  2132   0.233E+01
RMM:   9    -0.436035701126E+03   -0.31806E+02   -0.30744E+02  6111   0.173E+01
RMM:  10    -0.441303299139E+03   -0.52676E+01   -0.62788E+01  6395   0.538E+00
RMM:  11    -0.442517086592E+03   -0.12138E+01   -0.10974E+01  6222   0.172E+00
RMM:  12    -0.442897690073E+03   -0.38060E+00   -0.27204E+00  6374   0.598E-01    0.134E+02
RMM:  13    -0.425663595844E+03    0.17234E+02   -0.81151E+01  4675   0.119E+01    0.712E+01
RMM:  14    -0.500074646290E+03   -0.74411E+02   -0.54570E+02  5420   0.233E+01    0.308E+01
RMM:  15    -0.413993826855E+03    0.86081E+02   -0.19620E+02  5050   0.163E+01    0.596E+00
RMM:  16    -0.414080913789E+03   -0.87087E-01   -0.39431E+01  6075   0.604E+00    0.431E+00
RMM:  17    -0.413231800624E+03    0.84911E+00   -0.22840E+00  5332   0.180E+00    0.249E+00
RMM:  18    -0.413163384701E+03    0.68416E-01   -0.93101E-01  5937   0.100E+00    0.157E+00
RMM:  19    -0.413167893621E+03   -0.45089E-02   -0.29168E-01  5763   0.569E-01    0.856E-01
RMM:  20    -0.413180950014E+03   -0.13056E-01   -0.17878E-01  5288   0.478E-01    0.511E-01
RMM:  21    -0.413166558250E+03    0.14392E-01   -0.31694E-02  4999   0.220E-01    0.237E-01
RMM:  22    -0.413165586782E+03    0.97147E-03   -0.11968E-02  6136   0.896E-02    0.156E-01
RMM:  23    -0.413163879267E+03    0.17075E-02   -0.57109E-03  5765   0.715E-02    0.798E-02
RMM:  24    -0.413162676553E+03    0.12027E-02   -0.18801E-03  5657   0.421E-02    0.328E-02
RMM:  25    -0.413162571228E+03    0.10533E-03   -0.74783E-04  5788   0.224E-02    0.277E-02
RMM:  26    -0.413162827113E+03   -0.25589E-03   -0.49719E-04  5759   0.234E-02    0.279E-02
RMM:  27    -0.413163266862E+03   -0.43975E-03   -0.18294E-04  4536   0.188E-02    0.146E-02
RMM:  28    -0.413163776911E+03   -0.51005E-03   -0.18378E-04  5131   0.197E-02    0.878E-03
RMM:  29    -0.413164097971E+03   -0.32106E-03   -0.97036E-05  4388   0.131E-02    0.362E-03
RMM:  30    -0.413164308845E+03   -0.21087E-03   -0.71629E-05  3987   0.946E-03    0.239E-03
RMM:  31    -0.413164399976E+03   -0.91131E-04   -0.42577E-05  3103   0.528E-03    0.198E-03
RMM:  32    -0.413164424856E+03   -0.24880E-04   -0.16820E-05  2904   0.270E-03    0.101E-03
RMM:  33    -0.413164434268E+03   -0.94126E-05   -0.75965E-06  2729   0.188E-03    0.557E-04
RMM:  34    -0.413164437486E+03   -0.32182E-05   -0.34950E-06  2543   0.142E-03    0.759E-04
RMM:  35    -0.413164437888E+03   -0.40165E-06   -0.40959E-06  1755   0.971E-04
    1 T=    61. E= -.41286665E+03 F= -.41316444E+03 E0= -.41314194E+03  EK= 0.29779E+00 SP= 0.00E+00 SK= 0.00E+00
       N       E                     dE             d eps       ncg     rms          rms(c)
RMM:   1    -0.413154758673E+03    0.96788E-02   -0.11093E+01  4019   0.696E-01    0.886E-01
RMM:   2    -0.413165679996E+03   -0.10921E-01   -0.13675E-01  3913   0.100E-01    0.641E-01
RMM:   3    -0.413164213418E+03    0.14666E-02   -0.66364E-03  4858   0.381E-02    0.158E-01
RMM:   4    -0.413191380200E+03   -0.27167E-01   -0.28639E-02  5210   0.140E-01    0.686E-01
RMM:   5    -0.413163746368E+03    0.27634E-01   -0.13751E-02  4849   0.116E-01    0.348E-02
RMM:   6    -0.413163922208E+03   -0.17584E-03   -0.21858E-03  5835   0.453E-02    0.182E-02
RMM:   7    -0.413163940883E+03   -0.18674E-04   -0.27696E-04  5912   0.137E-02    0.138E-02
RMM:   8    -0.413163946940E+03   -0.60577E-05   -0.38544E-05  4597   0.559E-03    0.810E-03
RMM:   9    -0.413163952289E+03   -0.53486E-05   -0.76065E-06  3109   0.298E-03    0.536E-03
RMM:  10    -0.413163959406E+03   -0.71170E-05   -0.22272E-06  2578   0.200E-03    0.305E-03
RMM:  11    -0.413163966970E+03   -0.75639E-05   -0.16555E-06  2553   0.179E-03    0.150E-03
RMM:  12    -0.413163972080E+03   -0.51105E-05   -0.94943E-07  2447   0.139E-03    0.482E-04
RMM:  13    -0.413163973385E+03   -0.13044E-05   -0.45440E-07  2021   0.950E-04    0.307E-04
RMM:  14    -0.413163974628E+03   -0.12433E-05   -0.29880E-07  1504   0.762E-04    0.188E-04
RMM:  15    -0.413163977706E+03   -0.30780E-05   -0.32653E-07  1601   0.783E-04    0.154E-04
RMM:  16    -0.413163977967E+03   -0.26095E-06   -0.16902E-07  1066   0.626E-04
    2 T=    61. E= -.41286631E+03 F= -.41316398E+03 E0= -.41314148E+03  EK= 0.29767E+00 SP= 0.00E+00 SK= 0.00E+00
       N       E                     dE             d eps       ncg     rms          rms(c)
RMM:   1    -0.413155994280E+03    0.79834E-02   -0.11128E+01  4194   0.701E-01    0.911E-01
RMM:   2    -0.413165724765E+03   -0.97305E-02   -0.13402E-01  3974   0.970E-02    0.634E-01
RMM:   3    -0.413164886382E+03    0.83838E-03   -0.70270E-03  4858   0.385E-02    0.166E-01
RMM:   4    -0.413192894673E+03   -0.28008E-01   -0.28508E-02  5183   0.141E-01    0.697E-01
RMM:   5    -0.413164503557E+03    0.28391E-01   -0.13850E-02  4830   0.117E-01    0.373E-02
RMM:   6    -0.413164677899E+03   -0.17434E-03   -0.22416E-03  5801   0.457E-02    0.200E-02
RMM:   7    -0.413164689147E+03   -0.11248E-04   -0.27458E-04  5895   0.139E-02    0.142E-02
RMM:   8    -0.413164689460E+03   -0.31302E-06   -0.36730E-05  4550   0.556E-03    0.807E-03
RMM:   9    -0.413164688768E+03    0.69218E-06   -0.69329E-06  3112   0.295E-03
    3 T=    61. E= -.41286677E+03 F= -.41316469E+03 E0= -.41314219E+03  EK= 0.29792E+00 SP= 0.00E+00 SK= 0.00E+00
       N       E                     dE             d eps       ncg     rms          rms(c)
RMM:   1    -0.413155484949E+03    0.92045E-02   -0.11040E+01  4227   0.701E-01    0.894E-01
RMM:   2    -0.413165746608E+03   -0.10262E-01   -0.13283E-01  4212   0.977E-02    0.628E-01
RMM:   3    -0.413168992293E+03   -0.32457E-02   -0.10298E-02  5180   0.717E-02    0.324E-01
RMM:   4    -0.413189719527E+03   -0.20727E-01   -0.38026E-02  5124   0.166E-01    0.664E-01
RMM:   5    -0.413164368212E+03    0.25351E-01   -0.10240E-02  4722   0.111E-01    0.535E-02
RMM:   6    -0.413164383602E+03   -0.15390E-04   -0.17714E-03  5522   0.422E-02    0.183E-02
RMM:   7    -0.413164403511E+03   -0.19909E-04   -0.26858E-04  6025   0.147E-02    0.126E-02
RMM:   8    -0.413164405820E+03   -0.23092E-05   -0.37326E-05  4908   0.592E-03    0.705E-03
RMM:   9    -0.413164407101E+03   -0.12813E-05   -0.82162E-06  3323   0.374E-03    0.361E-03
RMM:  10    -0.413164408592E+03   -0.14911E-05   -0.15483E-06  2540   0.204E-03    0.218E-03
RMM:  11    -0.413164410748E+03   -0.21562E-05   -0.11827E-06  2548   0.166E-03    0.121E-03
RMM:  12    -0.413164411773E+03   -0.10243E-05   -0.53071E-07  2334   0.116E-03    0.473E-04
RMM:  13    -0.413164412796E+03   -0.10232E-05   -0.37805E-07  1707   0.877E-04    0.238E-04
RMM:  14    -0.413164413258E+03   -0.46215E-06   -0.21516E-07  1404   0.740E-04
    4 T=    61. E= -.41286650E+03 F= -.41316441E+03 E0= -.41314193E+03  EK= 0.29791E+00 SP= 0.00E+00 SK= 0.00E+00
       N       E                     dE             d eps       ncg     rms          rms(c)
RMM:   1    -0.413155280285E+03    0.91325E-02   -0.11081E+01  4235   0.708E-01    0.884E-01
RMM:   2    -0.413166020434E+03   -0.10740E-01   -0.13694E-01  3895   0.942E-02    0.640E-01
RMM:   3    -0.413164819057E+03    0.12014E-02   -0.65930E-03  4920   0.365E-02    0.160E-01
RMM:   4    -0.413194131981E+03   -0.29313E-01   -0.29978E-02  5164   0.144E-01    0.714E-01
RMM:   5    -0.413164322923E+03    0.29809E-01   -0.14501E-02  4815   0.119E-01    0.363E-02
RMM:   6    -0.413164506817E+03   -0.18389E-03   -0.23363E-03  5790   0.465E-02    0.182E-02
RMM:   7    -0.413164524615E+03   -0.17799E-04   -0.27903E-04  5865   0.138E-02    0.136E-02
RMM:   8    -0.413164529964E+03   -0.53490E-05   -0.36887E-05  4537   0.552E-03    0.790E-03
RMM:   9    -0.413164534237E+03   -0.42724E-05   -0.69774E-06  3093   0.296E-03    0.527E-03
RMM:  10    -0.413164539852E+03   -0.56153E-05   -0.18830E-06  2550   0.199E-03    0.296E-03
RMM:  11    -0.413164545744E+03   -0.58923E-05   -0.14592E-06  2548   0.176E-03    0.146E-03
RMM:  12    -0.413164549617E+03   -0.38730E-05   -0.80072E-07  2437   0.136E-03    0.484E-04
RMM:  13    -0.413164550568E+03   -0.95067E-06   -0.31847E-07  2001   0.927E-04
    5 T=    61. E= -.41286647E+03 F= -.41316455E+03 E0= -.41314207E+03  EK= 0.29808E+00 SP= 0.00E+00 SK= 0.00E+00
       N       E                     dE             d eps       ncg     rms          rms(c)
RMM:   1    -0.413156240167E+03    0.83095E-02   -0.11134E+01  4251   0.713E-01    0.906E-01
RMM:   2    -0.413166296333E+03   -0.10056E-01   -0.13406E-01  3964   0.954E-02    0.636E-01
RMM:   3    -0.413165344741E+03    0.95159E-03   -0.68354E-03  4837   0.373E-02    0.164E-01
RMM:   4    -0.413192515647E+03   -0.27171E-01   -0.27511E-02  5158   0.138E-01    0.687E-01
RMM:   5    -0.413164941228E+03    0.27574E-01   -0.13455E-02  4819   0.114E-01    0.362E-02
RMM:   6    -0.413165110941E+03   -0.16971E-03   -0.21638E-03  5797   0.448E-02    0.194E-02
RMM:   7    -0.413165121794E+03   -0.10853E-04   -0.26271E-04  5873   0.135E-02    0.140E-02
RMM:   8    -0.413165122242E+03   -0.44852E-06   -0.35243E-05  4560   0.552E-03    0.805E-03
RMM:   9    -0.413165121685E+03    0.55678E-06   -0.67035E-06  3079   0.296E-03
    6 T=    61. E= -.41286668E+03 F= -.41316512E+03 E0= -.41314266E+03  EK= 0.29844E+00 SP= 0.00E+00 SK= 0.00E+00
       N       E                     dE             d eps       ncg     rms          rms(c)
RMM:   1    -0.413155905907E+03    0.92163E-02   -0.11079E+01  4268   0.718E-01    0.902E-01
RMM:   2    -0.413165680190E+03   -0.97743E-02   -0.13340E-01  4262   0.101E-01    0.629E-01
RMM:   3    -0.413169202091E+03   -0.35219E-02   -0.10447E-02  5160   0.712E-02    0.323E-01
RMM:   4    -0.413189910664E+03   -0.20709E-01   -0.37704E-02  5116   0.165E-01    0.663E-01
RMM:   5    -0.413164673171E+03    0.25237E-01   -0.10249E-02  4724   0.110E-01    0.531E-02
RMM:   6    -0.413164689322E+03   -0.16152E-04   -0.17659E-03  5516   0.419E-02    0.185E-02
RMM:   7    -0.413164707353E+03   -0.18031E-04   -0.26547E-04  6020   0.146E-02    0.127E-02
RMM:   8    -0.413164708221E+03   -0.86742E-06   -0.37614E-05  4890   0.596E-03    0.709E-03
RMM:   9    -0.413164706494E+03    0.17267E-05   -0.79392E-06  3243   0.374E-03    0.358E-03
RMM:  10    -0.413164706642E+03   -0.14828E-06   -0.15591E-06  2539   0.204E-03
    7 T=    61. E= -.41286623E+03 F= -.41316471E+03 E0= -.41314226E+03  EK= 0.29848E+00 SP= 0.00E+00 SK= 0.00E+00
       N       E                     dE             d eps       ncg     rms          rms(c)
RMM:   1    -0.413156010452E+03    0.86960E-02   -0.11074E+01  4269   0.720E-01    0.883E-01
RMM:   2    -0.413166894032E+03   -0.10884E-01   -0.13621E-01  4039   0.947E-02    0.637E-01
RMM:   3    -0.413165803362E+03    0.10907E-02   -0.66914E-03  4977   0.392E-02    0.170E-01
RMM:   4    -0.413202375366E+03   -0.36572E-01   -0.37812E-02  5150   0.162E-01    0.794E-01
RMM:   5    -0.413165195170E+03    0.37180E-01   -0.17976E-02  4805   0.133E-01    0.418E-02
RMM:   6    -0.413165401473E+03   -0.20630E-03   -0.28911E-03  5770   0.519E-02    0.184E-02
RMM:   7    -0.413165425272E+03   -0.23799E-04   -0.35202E-04  5934   0.151E-02    0.141E-02
RMM:   8    -0.413165429799E+03   -0.45264E-05   -0.41395E-05  4537   0.572E-03    0.794E-03
RMM:   9    -0.413165433196E+03   -0.33974E-05   -0.78792E-06  3128   0.302E-03    0.523E-03
RMM:  10    -0.413165437721E+03   -0.45248E-05   -0.22009E-06  2561   0.208E-03    0.286E-03
RMM:  11    -0.413165442007E+03   -0.42862E-05   -0.14676E-06  2544   0.176E-03    0.137E-03
RMM:  12    -0.413165444574E+03   -0.25676E-05   -0.82084E-07  2452   0.136E-03    0.419E-04
RMM:  13    -0.413165445446E+03   -0.87177E-06   -0.35834E-07  2003   0.946E-04
    8 T=    61. E= -.41286667E+03 F= -.41316545E+03 E0= -.41314302E+03  EK= 0.29877E+00 SP= 0.00E+00 SK= 0.00E+00
       N       E                     dE             d eps       ncg     rms          rms(c)
RMM:   1    -0.413156530677E+03    0.89139E-02   -0.11138E+01  4285   0.727E-01    0.901E-01
RMM:   2    -0.413166791586E+03   -0.10261E-01   -0.13537E-01  4130   0.101E-01    0.639E-01
RMM:   3    -0.413165700880E+03    0.10907E-02   -0.67393E-03  4766   0.372E-02    0.159E-01
RMM:   4    -0.413188531634E+03   -0.22831E-01   -0.23105E-02  5155   0.127E-01    0.632E-01
RMM:   5    -0.413165314655E+03    0.23217E-01   -0.11419E-02  4821   0.105E-01    0.328E-02
RMM:   6    -0.413165458934E+03   -0.14428E-03   -0.18080E-03  5793   0.410E-02    0.182E-02
RMM:   7    -0.413165468156E+03   -0.92221E-05   -0.22015E-04  5821   0.126E-02    0.131E-02
RMM:   8    -0.413165469379E+03   -0.12227E-05   -0.30830E-05  4459   0.531E-03    0.754E-03
RMM:   9    -0.413165469240E+03    0.13867E-06   -0.59281E-06  2997   0.292E-03
    9 T=    61. E= -.41286654E+03 F= -.41316547E+03 E0= -.41314306E+03  EK= 0.29893E+00 SP= 0.00E+00 SK= 0.00E+00
       N       E                     dE             d eps       ncg     rms          rms(c)
RMM:   1    -0.413157033225E+03    0.84362E-02   -0.11121E+01  4288   0.732E-01    0.909E-01
RMM:   2    -0.413166495314E+03   -0.94621E-02   -0.13346E-01  4275   0.984E-02    0.630E-01
RMM:   3    -0.413170168421E+03   -0.36731E-02   -0.10648E-02  5154   0.721E-02    0.326E-01
RMM:   4    -0.413190185774E+03   -0.20017E-01   -0.37121E-02  5103   0.163E-01    0.655E-01
RMM:   5    -0.413165635798E+03    0.24550E-01   -0.99393E-03  4715   0.109E-01    0.524E-02
RMM:   6    -0.413165653139E+03   -0.17341E-04   -0.17261E-03  5536   0.410E-02    0.189E-02
RMM:   7    -0.413165668256E+03   -0.15117E-04   -0.25538E-04  6017   0.143E-02    0.128E-02
RMM:   8    -0.413165667528E+03    0.72812E-06   -0.36432E-05  4888   0.589E-03    0.705E-03
RMM:   9    -0.413165663024E+03    0.45039E-05   -0.76571E-06  3162   0.364E-03    0.353E-03
RMM:  10    -0.413165662060E+03    0.96367E-06   -0.15225E-06  2535   0.201E-03
   10 T=    61. E= -.41286649E+03 F= -.41316566E+03 E0= -.41314328E+03  EK= 0.29918E+00 SP= 0.00E+00 SK= 0.00E+00
       N       E                     dE             d eps       ncg     rms          rms(c)
RMM:   1    -0.413157154647E+03    0.85084E-02   -0.11070E+01  4298   0.732E-01    0.884E-01
RMM:   2    -0.413167920476E+03   -0.10766E-01   -0.13515E-01  4180   0.969E-02    0.634E-01
RMM:   3    -0.413166925334E+03    0.99514E-03   -0.66472E-03  4950   0.422E-02    0.173E-01
RMM:   4    -0.413204685328E+03   -0.37760E-01   -0.39220E-02  5146   0.164E-01    0.808E-01
RMM:   5    -0.413166165522E+03    0.38520E-01   -0.18741E-02  4805   0.135E-01    0.420E-02
RMM:   6    -0.413166374579E+03   -0.20906E-03   -0.29191E-03  5752   0.528E-02    0.190E-02
RMM:   7    -0.413166394183E+03   -0.19603E-04   -0.36453E-04  5945   0.155E-02    0.145E-02
RMM:   8    -0.413166396063E+03   -0.18796E-05   -0.42891E-05  4598   0.587E-03    0.829E-03
RMM:   9    -0.413166396668E+03   -0.60531E-06   -0.81899E-06  3159   0.310E-03
   11 T=    61. E= -.41286674E+03 F= -.41316640E+03 E0= -.41314404E+03  EK= 0.29966E+00 SP= 0.00E+00 SK= 0.00E+00
       N       E                     dE             d eps       ncg     rms          rms(c)
RMM:   1    -0.413157220070E+03    0.91760E-02   -0.11151E+01  4298   0.742E-01    0.895E-01
RMM:   2    -0.413167610821E+03   -0.10391E-01   -0.13685E-01  4267   0.994E-02    0.642E-01
RMM:   3    -0.413170374592E+03   -0.27638E-02   -0.99323E-03  5146   0.693E-02    0.312E-01
RMM:   4    -0.413196737525E+03   -0.26363E-01   -0.43216E-02  5112   0.175E-01    0.725E-01
RMM:   5    -0.413166137416E+03    0.30600E-01   -0.12708E-02  4724   0.120E-01    0.541E-02
RMM:   6    -0.413166191893E+03   -0.54477E-04   -0.21837E-03  5572   0.459E-02    0.169E-02
RMM:   7    -0.413166216396E+03   -0.24504E-04   -0.30176E-04  6037   0.151E-02    0.124E-02
RMM:   8    -0.413166219622E+03   -0.32257E-05   -0.41162E-05  4943   0.604E-03    0.707E-03
RMM:   9    -0.413166221133E+03   -0.15104E-05   -0.79617E-06  3117   0.361E-03    0.363E-03
RMM:  10    -0.413166222712E+03   -0.15795E-05   -0.18770E-06  2554   0.208E-03    0.214E-03
RMM:  11    -0.413166224494E+03   -0.17818E-05   -0.12363E-06  2548   0.165E-03    0.121E-03
RMM:  12    -0.413166225175E+03   -0.68085E-06   -0.56364E-07  2325   0.116E-03
   12 T=    61. E= -.41286630E+03 F= -.41316623E+03 E0= -.41314389E+03  EK= 0.29993E+00 SP= 0.00E+00 SK= 0.00E+00
       N       E                     dE             d eps       ncg     rms          rms(c)
RMM:   1    -0.413158197104E+03    0.80274E-02   -0.11174E+01  4294   0.745E-01    0.914E-01
RMM:   2    -0.413167801808E+03   -0.96047E-02   -0.13376E-01  4202   0.934E-02    0.632E-01
RMM:   3    -0.413167353089E+03    0.44872E-03   -0.71872E-03  5003   0.390E-02    0.178E-01
RMM:   4    -0.413204287339E+03   -0.36934E-01   -0.38337E-02  5155   0.162E-01    0.799E-01
RMM:   5    -0.413166697687E+03    0.37590E-01   -0.18241E-02  4796   0.134E-01    0.428E-02
RMM:   6    -0.413166913709E+03   -0.21602E-03   -0.29855E-03  5771   0.523E-02    0.215E-02
RMM:   7    -0.413166926413E+03   -0.12705E-04   -0.35564E-04  5919   0.155E-02    0.157E-02
RMM:   8    -0.413166923494E+03    0.29191E-05   -0.46724E-05  4801   0.620E-03    0.944E-03
RMM:   9    -0.413166918009E+03    0.54847E-05   -0.85614E-06  3225   0.321E-03    0.612E-03
RMM:  10    -0.413166914103E+03    0.39068E-05   -0.22029E-06  2556   0.215E-03    0.335E-03
RMM:  11    -0.413166910604E+03    0.34986E-05   -0.16557E-06  2545   0.193E-03    0.160E-03
RMM:  12    -0.413166907651E+03    0.29532E-05   -0.90471E-07  2476   0.150E-03    0.492E-04
RMM:  13    -0.413166906893E+03    0.75742E-06   -0.35526E-07  2137   0.100E-03
   13 T=    61. E= -.41286641E+03 F= -.41316691E+03 E0= -.41314461E+03  EK= 0.30049E+00 SP= 0.00E+00 SK= 0.00E+00
       N       E                     dE             d eps       ncg     rms          rms(c)
RMM:   1    -0.413158243282E+03    0.86644E-02   -0.11091E+01  4294   0.744E-01    0.888E-01
RMM:   2    -0.413168685727E+03   -0.10442E-01   -0.13554E-01  4218   0.950E-02    0.633E-01
RMM:   3    -0.413167782886E+03    0.90284E-03   -0.66290E-03  4879   0.382E-02    0.166E-01
RMM:   4    -0.413198175379E+03   -0.30392E-01   -0.31127E-02  5147   0.147E-01    0.727E-01
RMM:   5    -0.413167230053E+03    0.30945E-01   -0.15138E-02  4805   0.121E-01    0.370E-02
RMM:   6    -0.413167417659E+03   -0.18761E-03   -0.24392E-03  5791   0.472E-02    0.193E-02
RMM:   7    -0.413167428730E+03   -0.11071E-04   -0.28409E-04  5877   0.141E-02    0.141E-02
RMM:   8    -0.413167428149E+03    0.58168E-06   -0.39459E-05  4660   0.579E-03    0.857E-03
RMM:   9    -0.413167425803E+03    0.23459E-05   -0.74719E-06  3155   0.312E-03    0.575E-03
RMM:  10    -0.413167425092E+03    0.71040E-06   -0.19499E-06  2555   0.206E-03
   14 T=    61. E= -.41286639E+03 F= -.41316743E+03 E0= -.41314516E+03  EK= 0.30103E+00 SP= 0.00E+00 SK= 0.00E+00
       N       E                     dE             d eps       ncg     rms          rms(c)
RMM:   1    -0.413158290845E+03    0.91350E-02   -0.11182E+01  4306   0.754E-01    0.892E-01
RMM:   2    -0.413169418239E+03   -0.11127E-01   -0.13804E-01  4288   0.988E-02    0.644E-01
RMM:   3    -0.413171041418E+03   -0.16232E-02   -0.92737E-03  5130   0.650E-02    0.290E-01
RMM:   4    -0.413202671067E+03   -0.31630E-01   -0.46409E-02  5111   0.181E-01    0.775E-01
RMM:   5    -0.413167515318E+03    0.35156E-01   -0.15035E-02  4734   0.128E-01    0.513E-02
RMM:   6    -0.413167620321E+03   -0.10500E-03   -0.24755E-03  5637   0.490E-02    0.163E-02
RMM:   7    -0.413167645926E+03   -0.25604E-04   -0.32433E-04  6011   0.151E-02    0.125E-02
RMM:   8    -0.413167649211E+03   -0.32853E-05   -0.42833E-05  4880   0.606E-03    0.699E-03
RMM:   9    -0.413167650134E+03   -0.92265E-06   -0.74950E-06  3003   0.331E-03
   15 T=    61. E= -.41286624E+03 F= -.41316765E+03 E0= -.41314542E+03  EK= 0.30141E+00 SP= 0.00E+00 SK= 0.00E+00
       N       E                     dE             d eps       ncg     rms          rms(c)
RMM:   1    -0.413160158303E+03    0.74909E-02   -0.11223E+01  4299   0.766E-01    0.916E-01
RMM:   2    -0.413169656377E+03   -0.94981E-02   -0.13510E-01  4245   0.100E-01    0.636E-01
RMM:   3    -0.413168694164E+03    0.96221E-03   -0.68981E-03  4580   0.350E-02    0.158E-01
RMM:   4    -0.413179023401E+03   -0.10329E-01   -0.10557E-02  5150   0.870E-02    0.429E-01
RMM:   5    -0.413168540616E+03    0.10483E-01   -0.52060E-03  4834   0.701E-02    0.262E-02
RMM:   6    -0.413168576594E+03   -0.35978E-04   -0.80356E-04  5866   0.265E-02    0.151E-02
RMM:   7    -0.413168574151E+03    0.24428E-05   -0.80900E-05  5335   0.856E-03    0.849E-03
RMM:   8    -0.413168571985E+03    0.21663E-05   -0.18417E-05  4128   0.437E-03    0.559E-03
RMM:   9    -0.413168567576E+03    0.44086E-05   -0.31327E-06  2723   0.248E-03    0.382E-03
RMM:  10    -0.413168565328E+03    0.22476E-05   -0.81557E-07  2499   0.153E-03    0.242E-03
RMM:  11    -0.413168560773E+03    0.45549E-05   -0.12095E-06  2525   0.164E-03    0.117E-03
RMM:  12    -0.413168557940E+03    0.28336E-05   -0.53305E-07  2250   0.112E-03    0.516E-04
RMM:  13    -0.413168557282E+03    0.65786E-06   -0.18373E-07  1485   0.739E-04
   16 T=    61. E= -.41286652E+03 F= -.41316856E+03 E0= -.41314636E+03  EK= 0.30204E+00 SP= 0.00E+00 SK= 0.00E+00
       N       E                     dE             d eps       ncg     rms          rms(c)
RMM:   1    -0.413159980280E+03    0.85777E-02   -0.11134E+01  4296   0.757E-01    0.895E-01
RMM:   2    -0.413170338262E+03   -0.10358E-01   -0.13576E-01  4240   0.993E-02    0.632E-01
RMM:   3    -0.413169300209E+03    0.10381E-02   -0.67543E-03  4892   0.419E-02    0.172E-01
RMM:   4    -0.413203335810E+03   -0.34036E-01   -0.34947E-02  5144   0.155E-01    0.767E-01
RMM:   5    -0.413168769439E+03    0.34566E-01   -0.16986E-02  4800   0.128E-01    0.393E-02
RMM:   6    -0.413168965689E+03   -0.19625E-03   -0.26582E-03  5798   0.497E-02    0.204E-02
RMM:   7    -0.413168975876E+03   -0.10188E-04   -0.31420E-04  5898   0.149E-02    0.148E-02
RMM:   8    -0.413168973387E+03    0.24895E-05   -0.42760E-05  4719   0.597E-03    0.891E-03
RMM:   9    -0.413168968820E+03    0.45673E-05   -0.81594E-06  3199   0.316E-03    0.589E-03
RMM:  10    -0.413168965716E+03    0.31039E-05   -0.20401E-06  2547   0.209E-03    0.326E-03
RMM:  11    -0.413168962750E+03    0.29656E-05   -0.16759E-06  2548   0.192E-03    0.154E-03
RMM:  12    -0.413168960295E+03    0.24549E-05   -0.81838E-07  2453   0.145E-03    0.498E-04
RMM:  13    -0.413168959684E+03    0.61143E-06   -0.32592E-07  2100   0.963E-04
   17 T=    62. E= -.41286641E+03 F= -.41316896E+03 E0= -.41314680E+03  EK= 0.30255E+00 SP= 0.00E+00 SK= 0.00E+00
       N       E                     dE             d eps       ncg     rms          rms(c)
RMM:   1    -0.413160208496E+03    0.87518E-02   -0.11210E+01  4299   0.767E-01    0.890E-01
RMM:   2    -0.413171333166E+03   -0.11125E-01   -0.13836E-01  4252   0.101E-01    0.644E-01
RMM:   3    -0.413169953831E+03    0.13793E-02   -0.66768E-03  4921   0.402E-02    0.169E-01
RMM:   4    -0.413205359043E+03   -0.35405E-01   -0.36678E-02  5147   0.159E-01    0.782E-01
RMM:   5    -0.413169286653E+03    0.36072E-01   -0.17701E-02  4798   0.131E-01    0.394E-02
RMM:   6    -0.413169491414E+03   -0.20476E-03   -0.27949E-03  5786   0.511E-02    0.197E-02
RMM:   7    -0.413169507024E+03   -0.15610E-04   -0.32661E-04  5912   0.152E-02    0.146E-02
RMM:   8    -0.413169507921E+03   -0.89680E-06   -0.44739E-05  4750   0.606E-03    0.892E-03
RMM:   9    -0.413169506383E+03    0.15380E-05   -0.85693E-06  3249   0.323E-03    0.591E-03
RMM:  10    -0.413169506733E+03   -0.35041E-06   -0.22112E-06  2552   0.216E-03
   18 T=    62. E= -.41286635E+03 F= -.41316951E+03 E0= -.41314739E+03  EK= 0.30316E+00 SP= 0.00E+00 SK= 0.00E+00
       N       E                     dE             d eps       ncg     rms          rms(c)
RMM:   1    -0.413161848181E+03    0.76582E-02   -0.11264E+01  4303   0.769E-01    0.914E-01
RMM:   2    -0.413171715188E+03   -0.98670E-02   -0.13685E-01  4309   0.982E-02    0.640E-01
RMM:   3    -0.413174654141E+03   -0.29390E-02   -0.10065E-02  5127   0.687E-02    0.310E-01
RMM:   4    -0.413199567849E+03   -0.24914E-01   -0.41181E-02  5090   0.171E-01    0.708E-01
RMM:   5    -0.413170546570E+03    0.29021E-01   -0.12027E-02  4706   0.117E-01    0.502E-02
RMM:   6    -0.413170611819E+03   -0.65249E-04   -0.20558E-03  5592   0.441E-02    0.182E-02
RMM:   7    -0.413170625238E+03   -0.13419E-04   -0.27257E-04  5993   0.142E-02    0.127E-02
RMM:   8    -0.413170622631E+03    0.26072E-05   -0.38078E-05  4863   0.591E-03    0.690E-03
RMM:   9    -0.413170614955E+03    0.76760E-05   -0.68445E-06  2926   0.327E-03    0.314E-03
RMM:  10    -0.413170612044E+03    0.29108E-05   -0.17614E-06  2545   0.192E-03    0.182E-03
RMM:  11    -0.413170608197E+03    0.38467E-05   -0.95571E-07  2516   0.148E-03    0.103E-03
RMM:  12    -0.413170605653E+03    0.25447E-05   -0.47309E-07  2110   0.108E-03    0.505E-04
RMM:  13    -0.413170603016E+03    0.26368E-05   -0.31565E-07  1808   0.893E-04    0.224E-04
RMM:  14    -0.413170601359E+03    0.16571E-05   -0.18798E-07  1424   0.737E-04    0.141E-04
RMM:  15    -0.413170598202E+03    0.31572E-05   -0.22650E-07  1661   0.767E-04    0.133E-04
RMM:  16    -0.413170596562E+03    0.16398E-05   -0.11828E-07  1239   0.631E-04    0.119E-04
RMM:  17    -0.413170594717E+03    0.18446E-05   -0.93802E-08  1172   0.607E-04    0.478E-05
RMM:  18    -0.413170593194E+03    0.15228E-05   -0.64940E-08  1015   0.566E-04    0.304E-05
RMM:  19    -0.413170592522E+03    0.67256E-06   -0.35141E-08   841   0.531E-04
   19 T=    62. E= -.41286659E+03 F= -.41317059E+03 E0= -.41314852E+03  EK= 0.30400E+00 SP= 0.00E+00 SK= 0.00E+00
       N       E                     dE             d eps       ncg     rms          rms(c)
RMM:   1    -0.413164095587E+03    0.64976E-02   -0.11230E+01  4295   0.797E-01    0.905E-01
RMM:   2    -0.413172314016E+03   -0.82184E-02   -0.13645E-01  4248   0.100E-01    0.633E-01
RMM:   3    -0.413171676179E+03    0.63784E-03   -0.69650E-03  4970   0.415E-02    0.183E-01
RMM:   4    -0.413211255403E+03   -0.39579E-01   -0.41617E-02  5144   0.169E-01    0.826E-01
RMM:   5    -0.413170920411E+03    0.40335E-01   -0.19654E-02  4795   0.138E-01    0.438E-02
RMM:   6    -0.413171141454E+03   -0.22104E-03   -0.31864E-03  5776   0.539E-02    0.214E-02
RMM:   7    -0.413171153332E+03   -0.11878E-04   -0.37611E-04  5880   0.160E-02    0.158E-02
RMM:   8    -0.413171149640E+03    0.36919E-05   -0.49945E-05  4871   0.640E-03    0.948E-03
RMM:   9    -0.413171143129E+03    0.65115E-05   -0.93086E-06  3315   0.332E-03    0.615E-03
RMM:  10    -0.413171138096E+03    0.50323E-05   -0.22649E-06  2545   0.219E-03    0.335E-03
RMM:  11    -0.413171133892E+03    0.42040E-05   -0.15721E-06  2529   0.191E-03    0.163E-03
RMM:  12    -0.413171130503E+03    0.33897E-05   -0.82761E-07  2464   0.148E-03    0.492E-04
RMM:  13    -0.413171129598E+03    0.90478E-06   -0.34779E-07  2140   0.101E-03
   20 T=    62. E= -.41286638E+03 F= -.41317113E+03 E0= -.41314910E+03  EK= 0.30475E+00 SP= 0.00E+00 SK= 0.00E+00
       N       E                     dE             d eps       ncg     rms          rms(c)
RMM:   1    -0.413163134407E+03    0.79961E-02   -0.11256E+01  4298   0.787E-01    0.890E-01
RMM:   2    -0.413173755614E+03   -0.10621E-01   -0.13975E-01  4257   0.101E-01    0.645E-01
RMM:   3    -0.413172570257E+03    0.11854E-02   -0.67604E-03  4942   0.414E-02    0.173E-01
RMM:   4    -0.413210515928E+03   -0.37946E-01   -0.39589E-02  5142   0.165E-01    0.809E-01
RMM:   5    -0.413171816021E+03    0.38700E-01   -0.18926E-02  4795   0.136E-01    0.412E-02
RMM:   6    -0.413172040007E+03   -0.22399E-03   -0.31015E-03  5798   0.527E-02    0.202E-02
RMM:   7    -0.413172054539E+03   -0.14531E-04   -0.35061E-04  5910   0.156E-02    0.151E-02
RMM:   8    -0.413172053867E+03    0.67176E-06   -0.48599E-05  4833   0.630E-03    0.937E-03
RMM:   9    -0.413172050606E+03    0.32607E-05   -0.92770E-06  3317   0.335E-03    0.622E-03
RMM:  10    -0.413172049314E+03    0.12920E-05   -0.23345E-06  2554   0.223E-03    0.343E-03
RMM:  11    -0.413172048263E+03    0.10508E-05   -0.18839E-06  2562   0.203E-03    0.167E-03
RMM:  12    -0.413172047179E+03    0.10841E-05   -0.87680E-07  2472   0.151E-03    0.536E-04
RMM:  13    -0.413172046877E+03    0.30244E-06   -0.34920E-07  2131   0.999E-04
   21 T=    62. E= -.41286642E+03 F= -.41317205E+03 E0= -.41315006E+03  EK= 0.30562E+00 SP= 0.00E+00 SK= 0.00E+00
       N       E                     dE             d eps       ncg     rms          rms(c)
RMM:   1    -0.413164010923E+03    0.80363E-02   -0.11325E+01  4298   0.780E-01    0.912E-01
RMM:   2    -0.413174529524E+03   -0.10519E-01   -0.13858E-01  4258   0.993E-02    0.644E-01
RMM:   3    -0.413173601455E+03    0.92807E-03   -0.69491E-03  4908   0.403E-02    0.175E-01
RMM:   4    -0.413208840755E+03   -0.35239E-01   -0.36395E-02  5144   0.158E-01    0.780E-01
RMM:   5    -0.413173021702E+03    0.35819E-01   -0.17574E-02  4796   0.130E-01    0.404E-02
RMM:   6    -0.413173224835E+03   -0.20313E-03   -0.28680E-03  5800   0.507E-02    0.210E-02
RMM:   7    -0.413173234815E+03   -0.99802E-05   -0.32380E-04  5883   0.152E-02    0.151E-02
RMM:   8    -0.413173231581E+03    0.32337E-05   -0.46125E-05  4811   0.624E-03    0.932E-03
RMM:   9    -0.413173225162E+03    0.64188E-05   -0.89630E-06  3331   0.333E-03    0.615E-03
RMM:  10    -0.413173220611E+03    0.45518E-05   -0.20940E-06  2546   0.215E-03    0.345E-03
RMM:  11    -0.413173216030E+03    0.45808E-05   -0.17238E-06  2541   0.200E-03    0.167E-03
RMM:  12    -0.413173212422E+03    0.36075E-05   -0.84583E-07  2469   0.151E-03    0.525E-04
RMM:  13    -0.413173211543E+03    0.87900E-06   -0.33471E-07  2138   0.993E-04
   22 T=    62. E= -.41286667E+03 F= -.41317321E+03 E0= -.41315127E+03  EK= 0.30655E+00 SP= 0.00E+00 SK= 0.00E+00
       N       E                     dE             d eps       ncg     rms          rms(c)
RMM:   1    -0.413165142417E+03    0.80700E-02   -0.11316E+01  4298   0.791E-01    0.915E-01
RMM:   2    -0.413174992538E+03   -0.98501E-02   -0.13715E-01  4269   0.107E-01    0.636E-01
RMM:   3    -0.413174269399E+03    0.72314E-03   -0.70784E-03  4879   0.432E-02    0.177E-01
RMM:   4    -0.413209123126E+03   -0.34854E-01   -0.35883E-02  5149   0.158E-01    0.776E-01
RMM:   5    -0.413173676705E+03    0.35446E-01   -0.17425E-02  4801   0.130E-01    0.403E-02
RMM:   6    -0.413173861999E+03   -0.18529E-03   -0.27744E-03  5810   0.504E-02    0.217E-02
RMM:   7    -0.413173868384E+03   -0.63846E-05   -0.31515E-04  5893   0.152E-02    0.153E-02
RMM:   8    -0.413173862925E+03    0.54594E-05   -0.46665E-05  4848   0.632E-03    0.948E-03
RMM:   9    -0.413173854250E+03    0.86746E-05   -0.91367E-06  3362   0.340E-03    0.620E-03
RMM:  10    -0.413173847406E+03    0.68439E-05   -0.21001E-06  2554   0.218E-03    0.348E-03
RMM:  11    -0.413173840045E+03    0.73614E-05   -0.18163E-06  2551   0.206E-03    0.166E-03
RMM:  12    -0.413173834632E+03    0.54131E-05   -0.84118E-07  2471   0.153E-03    0.547E-04
RMM:  13    -0.413173833421E+03    0.12109E-05   -0.33530E-07  2133   0.992E-04    0.378E-04
RMM:  14    -0.413173831979E+03    0.14419E-05   -0.17051E-07  1567   0.756E-04    0.227E-04
RMM:  15    -0.413173827278E+03    0.47005E-05   -0.21628E-07  1906   0.812E-04    0.291E-04
RMM:  16    -0.413173826695E+03    0.58363E-06   -0.68339E-08  1002   0.585E-04
   23 T=    63. E= -.41286639E+03 F= -.41317383E+03 E0= -.41315193E+03  EK= 0.30743E+00 SP= 0.00E+00 SK= 0.00E+00
       N       E                     dE             d eps       ncg     rms          rms(c)
RMM:   1    -0.413165998949E+03    0.78283E-02   -0.11306E+01  4297   0.790E-01    0.893E-01
RMM:   2    -0.413177161582E+03   -0.11163E-01   -0.14036E-01  4272   0.103E-01    0.644E-01
RMM:   3    -0.413175700503E+03    0.14611E-02   -0.66392E-03  4820   0.410E-02    0.167E-01
RMM:   4    -0.413204771039E+03   -0.29071E-01   -0.29697E-02  5153   0.143E-01    0.710E-01
RMM:   5    -0.413175261875E+03    0.29509E-01   -0.14586E-02  4806   0.118E-01    0.359E-02
RMM:   6    -0.413175424542E+03   -0.16267E-03   -0.23480E-03  5809   0.457E-02    0.194E-02
RMM:   7    -0.413175433209E+03   -0.86667E-05   -0.25637E-04  5835   0.137E-02    0.135E-02
RMM:   8    -0.413175431504E+03    0.17053E-05   -0.40260E-05  4750   0.588E-03    0.870E-03
RMM:   9    -0.413175426588E+03    0.49159E-05   -0.83526E-06  3334   0.330E-03    0.578E-03
RMM:  10    -0.413175424205E+03    0.23828E-05   -0.18388E-06  2541   0.207E-03    0.334E-03
RMM:  11    -0.413175421704E+03    0.25008E-05   -0.17094E-06  2547   0.198E-03    0.162E-03
RMM:  12    -0.413175419661E+03    0.20429E-05   -0.78713E-07  2454   0.147E-03    0.542E-04
RMM:  13    -0.413175419237E+03    0.42436E-06   -0.29705E-07  2073   0.943E-04
   24 T=    63. E= -.41286674E+03 F= -.41317542E+03 E0= -.41315357E+03  EK= 0.30868E+00 SP= 0.00E+00 SK= 0.00E+00
       N       E                     dE             d eps       ncg     rms          rms(c)
RMM:   1    -0.413167226149E+03    0.81935E-02   -0.11414E+01  4297   0.799E-01    0.909E-01
RMM:   2    -0.413178168795E+03   -0.10943E-01   -0.14033E-01  4274   0.107E-01    0.649E-01
RMM:   3    -0.413176758303E+03    0.14105E-02   -0.68106E-03  4837   0.425E-02    0.170E-01
RMM:   4    -0.413207830340E+03   -0.31072E-01   -0.31646E-02  5150   0.148E-01    0.733E-01
RMM:   5    -0.413176274587E+03    0.31556E-01   -0.15637E-02  4808   0.122E-01    0.368E-02
RMM:   6    -0.413176438342E+03   -0.16376E-03   -0.24516E-03  5819   0.475E-02    0.201E-02
RMM:   7    -0.413176446465E+03   -0.81229E-05   -0.26500E-04  5839   0.141E-02    0.136E-02
RMM:   8    -0.413176443956E+03    0.25094E-05   -0.43007E-05  4813   0.605E-03    0.910E-03
RMM:   9    -0.413176437602E+03    0.63542E-05   -0.91287E-06  3429   0.344E-03    0.598E-03
RMM:  10    -0.413176433815E+03    0.37868E-05   -0.19640E-06  2546   0.216E-03    0.343E-03
RMM:  11    -0.413176429672E+03    0.41425E-05   -0.18275E-06  2551   0.205E-03    0.166E-03
RMM:  12    -0.413176426457E+03    0.32156E-05   -0.78809E-07  2463   0.149E-03    0.541E-04
RMM:  13    -0.413176425735E+03    0.72156E-06   -0.30876E-07  2088   0.956E-04
   25 T=    63. E= -.41286661E+03 F= -.41317643E+03 E0= -.41315463E+03  EK= 0.30982E+00 SP= 0.00E+00 SK= 0.00E+00
       N       E                     dE             d eps       ncg     rms          rms(c)
RMM:   1    -0.413168810003E+03    0.76165E-02   -0.11441E+01  4296   0.808E-01    0.924E-01
RMM:   2    -0.413178639372E+03   -0.98294E-02   -0.13934E-01  4271   0.109E-01    0.641E-01
RMM:   3    -0.413177826716E+03    0.81266E-03   -0.70862E-03  4800   0.416E-02    0.173E-01
RMM:   4    -0.413206081224E+03   -0.28255E-01   -0.28630E-02  5153   0.141E-01    0.700E-01
RMM:   5    -0.413177448020E+03    0.28633E-01   -0.14237E-02  4804   0.117E-01    0.369E-02
RMM:   6    -0.413177593599E+03   -0.14558E-03   -0.22734E-03  5817   0.452E-02    0.206E-02
RMM:   7    -0.413177597195E+03   -0.35966E-05   -0.23592E-04  5772   0.133E-02    0.130E-02
RMM:   8    -0.413177591582E+03    0.56138E-05   -0.39710E-05  4781   0.581E-03    0.898E-03
RMM:   9    -0.413177582686E+03    0.88955E-05   -0.93360E-06  3511   0.345E-03    0.601E-03
RMM:  10    -0.413177575893E+03    0.67926E-05   -0.18027E-06  2539   0.215E-03    0.355E-03
RMM:  11    -0.413177567395E+03    0.84982E-05   -0.18740E-06  2563   0.209E-03    0.170E-03
RMM:  12    -0.413177560837E+03    0.65583E-05   -0.77568E-07  2465   0.152E-03    0.546E-04
RMM:  13    -0.413177559575E+03    0.12622E-05   -0.29600E-07  2105   0.957E-04    0.397E-04
RMM:  14    -0.413177558075E+03    0.14994E-05   -0.13831E-07  1458   0.721E-04    0.242E-04
RMM:  15    -0.413177552608E+03    0.54675E-05   -0.18983E-07  1953   0.804E-04    0.365E-04
RMM:  16    -0.413177551935E+03    0.67314E-06   -0.53265E-08   959   0.566E-04
   26 T=    63. E= -.41286645E+03 F= -.41317755E+03 E0= -.41315580E+03  EK= 0.31111E+00 SP= 0.00E+00 SK= 0.00E+00
       N       E                     dE             d eps       ncg     rms          rms(c)
RMM:   1    -0.413171367988E+03    0.61846E-02   -0.11417E+01  4293   0.824E-01    0.899E-01
RMM:   2    -0.413180832339E+03   -0.94644E-02   -0.14085E-01  4269   0.103E-01    0.644E-01
RMM:   3    -0.413179753922E+03    0.10784E-02   -0.67260E-03  4780   0.422E-02    0.170E-01
RMM:   4    -0.413207975537E+03   -0.28222E-01   -0.28597E-02  5153   0.141E-01    0.699E-01
RMM:   5    -0.413179359825E+03    0.28616E-01   -0.14228E-02  4805   0.117E-01    0.357E-02
RMM:   6    -0.413179505808E+03   -0.14598E-03   -0.22720E-03  5808   0.453E-02    0.198E-02
RMM:   7    -0.413179512270E+03   -0.64623E-05   -0.24699E-04  5830   0.135E-02    0.133E-02
RMM:   8    -0.413179509163E+03    0.31074E-05   -0.40607E-05  4791   0.595E-03    0.876E-03
RMM:   9    -0.413179502608E+03    0.65552E-05   -0.88330E-06  3418   0.343E-03    0.579E-03
RMM:  10    -0.413179498646E+03    0.39613E-05   -0.17999E-06  2538   0.211E-03    0.338E-03
RMM:  11    -0.413179494329E+03    0.43179E-05   -0.16968E-06  2535   0.200E-03    0.165E-03
RMM:  12    -0.413179490822E+03    0.35064E-05   -0.77729E-07  2454   0.148E-03    0.528E-04
RMM:  13    -0.413179490134E+03    0.68823E-06   -0.29179E-07  2050   0.941E-04
   27 T=    64. E= -.41286680E+03 F= -.41317949E+03 E0= -.41315779E+03  EK= 0.31269E+00 SP= 0.00E+00 SK= 0.00E+00
       N       E                     dE             d eps       ncg     rms          rms(c)
RMM:   1    -0.413174191730E+03    0.52991E-02   -0.11560E+01  4295   0.856E-01    0.908E-01
RMM:   2    -0.413182037268E+03   -0.78455E-02   -0.14454E-01  4267   0.109E-01    0.655E-01
RMM:   3    -0.413180748620E+03    0.12886E-02   -0.68551E-03  4700   0.436E-02    0.166E-01
RMM:   4    -0.413203522564E+03   -0.22774E-01   -0.23133E-02  5162   0.128E-01    0.631E-01
RMM:   5    -0.413180346000E+03    0.23177E-01   -0.11512E-02  4806   0.105E-01    0.323E-02
RMM:   6    -0.413180459027E+03   -0.11303E-03   -0.18351E-03  5828   0.405E-02    0.181E-02
RMM:   7    -0.413180463899E+03   -0.48728E-05   -0.17798E-04  5619   0.117E-02    0.107E-02
RMM:   8    -0.413180460114E+03    0.37853E-05   -0.26664E-05  4294   0.489E-03    0.716E-03
RMM:   9    -0.413180455575E+03    0.45395E-05   -0.72918E-06  3242   0.310E-03    0.505E-03
RMM:  10    -0.413180453373E+03    0.22017E-05   -0.16638E-06  2548   0.204E-03    0.320E-03
RMM:  11    -0.413180448993E+03    0.43800E-05   -0.17173E-06  2555   0.200E-03    0.153E-03
RMM:  12    -0.413180445747E+03    0.32456E-05   -0.70495E-07  2437   0.142E-03    0.608E-04
RMM:  13    -0.413180445066E+03    0.68167E-06   -0.24099E-07  1998   0.893E-04
   28 T=    64. E= -.41286634E+03 F= -.41318045E+03 E0= -.41315880E+03  EK= 0.31411E+00 SP= 0.00E+00 SK= 0.00E+00
       N       E                     dE             d eps       ncg     rms          rms(c)
RMM:   1    -0.413174022882E+03    0.64229E-02   -0.11603E+01  4294   0.840E-01    0.932E-01
RMM:   2    -0.413183750353E+03   -0.97275E-02   -0.14226E-01  4269   0.110E-01    0.648E-01
RMM:   3    -0.413182759226E+03    0.99113E-03   -0.72107E-03  4507   0.425E-02    0.168E-01
RMM:   4    -0.413194231538E+03   -0.11472E-01   -0.11619E-02  5164   0.910E-02    0.448E-01
RMM:   5    -0.413182749787E+03    0.11482E-01   -0.57199E-03  4828   0.734E-02    0.281E-02
RMM:   6    -0.413182787890E+03   -0.38103E-04   -0.92509E-04  5861   0.282E-02    0.176E-02
RMM:   7    -0.413182785348E+03    0.25419E-05   -0.11628E-04  5562   0.102E-02    0.109E-02
RMM:   8    -0.413182774089E+03    0.11259E-04   -0.19619E-05  4229   0.482E-03    0.544E-03
RMM:   9    -0.413182768252E+03    0.58369E-05   -0.40788E-06  2837   0.268E-03    0.399E-03
RMM:  10    -0.413182762389E+03    0.58638E-05   -0.81577E-07  2493   0.159E-03    0.247E-03
RMM:  11    -0.413182754614E+03    0.77748E-05   -0.73976E-07  2477   0.142E-03    0.119E-03
RMM:  12    -0.413182748050E+03    0.65642E-05   -0.44183E-07  2236   0.109E-03    0.430E-04
RMM:  13    -0.413182746109E+03    0.19405E-05   -0.17031E-07  1506   0.749E-04    0.237E-04
RMM:  14    -0.413182743973E+03    0.21361E-05   -0.96921E-08  1176   0.657E-04    0.147E-04
RMM:  15    -0.413182738389E+03    0.55840E-05   -0.11267E-07  1430   0.704E-04    0.174E-04
RMM:  16    -0.413182737862E+03    0.52730E-06   -0.43682E-08   900   0.574E-04
   29 T=    64. E= -.41286675E+03 F= -.41318274E+03 E0= -.41316114E+03  EK= 0.31599E+00 SP= 0.00E+00 SK= 0.00E+00
       N       E                     dE             d eps       ncg     rms          rms(c)
RMM:   1    -0.413174992833E+03    0.77456E-02   -0.11551E+01  4292   0.836E-01    0.910E-01
RMM:   2    -0.413185816681E+03   -0.10824E-01   -0.14409E-01  4269   0.109E-01    0.647E-01
RMM:   3    -0.413184523554E+03    0.12931E-02   -0.68837E-03  4449   0.450E-02    0.165E-01
RMM:   4    -0.413193050940E+03   -0.85274E-02   -0.89642E-03  5148   0.820E-02    0.389E-01
RMM:   5    -0.413184436690E+03    0.86143E-02   -0.42722E-03  4824   0.637E-02    0.253E-02
RMM:   6    -0.413184458380E+03   -0.21690E-04   -0.67577E-04  5829   0.245E-02    0.169E-02
RMM:   7    -0.413184455131E+03    0.32493E-05   -0.99451E-05  5426   0.970E-03    0.100E-02
RMM:   8    -0.413184445740E+03    0.93914E-05   -0.13926E-05  3859   0.437E-03    0.438E-03
RMM:   9    -0.413184442002E+03    0.37379E-05   -0.27968E-06  2705   0.234E-03    0.319E-03
RMM:  10    -0.413184438053E+03    0.39488E-05   -0.72055E-07  2468   0.145E-03    0.198E-03
RMM:  11    -0.413184432774E+03    0.52787E-05   -0.60349E-07  2438   0.126E-03    0.885E-04
RMM:  12    -0.413184429028E+03    0.37464E-05   -0.32056E-07  1996   0.939E-04    0.332E-04
RMM:  13    -0.413184427533E+03    0.14952E-05   -0.14093E-07  1312   0.703E-04    0.180E-04
RMM:  14    -0.413184425306E+03    0.22261E-05   -0.99623E-08  1171   0.663E-04    0.957E-05
RMM:  15    -0.413184422072E+03    0.32349E-05   -0.91585E-08  1268   0.667E-04    0.113E-04
RMM:  16    -0.413184421417E+03    0.65496E-06   -0.43384E-08   911   0.581E-04
   30 T=    65. E= -.41286667E+03 F= -.41318442E+03 E0= -.41316287E+03  EK= 0.31775E+00 SP= 0.00E+00 SK= 0.00E+00
       N       E                     dE             d eps       ncg     rms          rms(c)
RMM:   1    -0.413177704320E+03    0.67178E-02   -0.11693E+01  4293   0.886E-01    0.910E-01
RMM:   2    -0.413188351967E+03   -0.10648E-01   -0.14950E-01  4268   0.123E-01    0.661E-01
RMM:   3    -0.413186108010E+03    0.22440E-02   -0.67655E-03  4292   0.415E-02    0.161E-01
RMM:   4    -0.413188214764E+03   -0.21068E-02   -0.29471E-03  5126   0.454E-02    0.194E-01
RMM:   5    -0.413186101174E+03    0.21136E-02   -0.10380E-03  4802   0.320E-02    0.210E-02
RMM:   6    -0.413186098380E+03    0.27940E-05   -0.19800E-04  5675   0.142E-02    0.158E-02
RMM:   7    -0.413186092134E+03    0.62465E-05   -0.54494E-05  4891   0.746E-03    0.582E-03
RMM:   8    -0.413186088162E+03    0.39712E-05   -0.56713E-06  3016   0.311E-03    0.325E-03
RMM:   9    -0.413186087089E+03    0.10736E-05   -0.75567E-07  2473   0.161E-03    0.214E-03
RMM:  10    -0.413186083738E+03    0.33504E-05   -0.69311E-07  2394   0.123E-03    0.103E-03
RMM:  11    -0.413186081772E+03    0.19663E-05   -0.29850E-07  1779   0.877E-04    0.437E-04
RMM:  12    -0.413186079614E+03    0.21577E-05   -0.20348E-07  1537   0.783E-04    0.203E-04
RMM:  13    -0.413186077831E+03    0.17834E-05   -0.12824E-07  1251   0.690E-04    0.113E-04
RMM:  14    -0.413186076099E+03    0.17322E-05   -0.92293E-08  1175   0.646E-04    0.835E-05
RMM:  15    -0.413186074095E+03    0.20038E-05   -0.80304E-08  1208   0.622E-04    0.451E-05
RMM:  16    -0.413186072865E+03    0.12302E-05   -0.45468E-08   926   0.558E-04    0.356E-05
RMM:  17    -0.413186072092E+03    0.77272E-06   -0.25696E-08   756   0.528E-04
   31 T=    65. E= -.41286653E+03 F= -.41318607E+03 E0= -.41316457E+03  EK= 0.31954E+00 SP= 0.00E+00 SK= 0.00E+00
       N       E                     dE             d eps       ncg     rms          rms(c)
RMM:   1    -0.413198389086E+03   -0.12316E-01   -0.11965E+01  4289   0.956E-01    0.937E-01
RMM:   2    -0.413190072500E+03    0.83166E-02   -0.16758E-01  4263   0.125E-01    0.658E-01
RMM:   3    -0.413188712704E+03    0.13598E-02   -0.70672E-03  4124   0.456E-02    0.191E-01
RMM:   4    -0.413188821372E+03   -0.10867E-03   -0.13184E-03  4439   0.303E-02    0.250E-02
RMM:   5    -0.413188855152E+03   -0.33780E-04   -0.86785E-05  4952   0.930E-03    0.361E-02
RMM:   6    -0.413188803488E+03    0.51664E-04   -0.63159E-05  5103   0.815E-03    0.174E-02
RMM:   7    -0.413188782623E+03    0.20865E-04   -0.46915E-05  4651   0.731E-03    0.455E-03
RMM:   8    -0.413188777190E+03    0.54326E-05   -0.40901E-06  2871   0.295E-03    0.284E-03
RMM:   9    -0.413188774951E+03    0.22393E-05   -0.52758E-07  2336   0.147E-03    0.156E-03
RMM:  10    -0.413188767968E+03    0.69824E-05   -0.36564E-07  1980   0.962E-04    0.675E-04
RMM:  11    -0.413188762089E+03    0.58792E-05   -0.16688E-07  1282   0.694E-04    0.338E-04
RMM:  12    -0.413188758885E+03    0.32041E-05   -0.69155E-08  1016   0.597E-04    0.169E-04
RMM:  13    -0.413188754183E+03    0.47023E-05   -0.77416E-08  1129   0.618E-04    0.130E-04
RMM:  14    -0.413188750716E+03    0.34668E-05   -0.39179E-08   829   0.548E-04    0.105E-04
RMM:  15    -0.413188749741E+03    0.97461E-06   -0.13534E-08   565   0.491E-04
   32 T=    66. E= -.41286699E+03 F= -.41318875E+03 E0= -.41316730E+03  EK= 0.32176E+00 SP= 0.00E+00 SK= 0.00E+00
       N       E                     dE             d eps       ncg     rms          rms(c)
RMM:   1    -0.413191082383E+03   -0.23317E-02   -0.11845E+01  4284   0.947E-01    0.924E-01
RMM:   2    -0.413192274080E+03   -0.11917E-02   -0.15451E-01  4268   0.132E-01    0.652E-01
RMM:   3    -0.413190730597E+03    0.15435E-02   -0.68566E-03  4304   0.411E-02    0.175E-01
RMM:   4    -0.413192606584E+03   -0.18760E-02   -0.27675E-03  5109   0.458E-02    0.185E-01
RMM:   5    -0.413190711749E+03    0.18948E-02   -0.92764E-04  4794   0.307E-02    0.237E-02
RMM:   6    -0.413190699437E+03    0.12312E-04   -0.19618E-04  5613   0.145E-02    0.174E-02
RMM:   7    -0.413190685921E+03    0.13517E-04   -0.57952E-05  4882   0.766E-03    0.621E-03
RMM:   8    -0.413190679325E+03    0.65958E-05   -0.73164E-06  3318   0.347E-03    0.346E-03
RMM:   9    -0.413190676888E+03    0.24368E-05   -0.77676E-07  2479   0.166E-03    0.204E-03
RMM:  10    -0.413190669758E+03    0.71298E-05   -0.58996E-07  2367   0.121E-03    0.970E-04
RMM:  11    -0.413190664848E+03    0.49101E-05   -0.28264E-07  1853   0.882E-04    0.424E-04
RMM:  12    -0.413190660335E+03    0.45130E-05   -0.17274E-07  1486   0.759E-04    0.192E-04
RMM:  13    -0.413190657433E+03    0.29018E-05   -0.95858E-08  1084   0.653E-04    0.116E-04
RMM:  14    -0.413190653523E+03    0.39098E-05   -0.82569E-08  1168   0.647E-04    0.852E-05
RMM:  15    -0.413190648538E+03    0.49855E-05   -0.83255E-08  1273   0.645E-04    0.603E-05
RMM:  16    -0.413190647183E+03    0.13547E-05   -0.38322E-08   817   0.534E-04    0.502E-05
RMM:  17    -0.413190645452E+03    0.17313E-05   -0.28459E-08   766   0.526E-04    0.223E-05
RMM:  18    -0.413190644818E+03    0.63362E-06   -0.16741E-08   600   0.501E-04
   33 T=    66. E= -.41286677E+03 F= -.41319064E+03 E0= -.41316924E+03  EK= 0.32388E+00 SP= 0.00E+00 SK= 0.00E+00
       N       E                     dE             d eps       ncg     rms          rms(c)
RMM:   1    -0.413185582676E+03    0.50628E-02   -0.11882E+01  4294   0.936E-01    0.915E-01
RMM:   2    -0.413195033175E+03   -0.94505E-02   -0.15482E-01  4262   0.130E-01    0.665E-01
RMM:   3    -0.413193332051E+03    0.17011E-02   -0.68230E-03  4435   0.467E-02    0.169E-01
RMM:   4    -0.413200660911E+03   -0.73289E-02   -0.78142E-03  5145   0.775E-02    0.361E-01
RMM:   5    -0.413193323604E+03    0.73373E-02   -0.35912E-03  4807   0.591E-02    0.255E-02
RMM:   6    -0.413193312246E+03    0.11358E-04   -0.57162E-04  5788   0.240E-02    0.172E-02
RMM:   7    -0.413193311665E+03    0.58061E-06   -0.93951E-05  5341   0.957E-03    0.904E-03
RMM:   8    -0.413193305295E+03    0.63708E-05   -0.14816E-05  3906   0.441E-03    0.418E-03
RMM:   9    -0.413193303413E+03    0.18815E-05   -0.25058E-06  2686   0.226E-03    0.273E-03
RMM:  10    -0.413193300525E+03    0.28884E-05   -0.68857E-07  2432   0.139E-03    0.164E-03
RMM:  11    -0.413193296656E+03    0.38689E-05   -0.55610E-07  2382   0.117E-03    0.726E-04
RMM:  12    -0.413193293895E+03    0.27609E-05   -0.29322E-07  1772   0.877E-04    0.292E-04
RMM:  13    -0.413193292471E+03    0.14240E-05   -0.14237E-07  1227   0.700E-04    0.161E-04
RMM:  14    -0.413193290868E+03    0.16026E-05   -0.10144E-07  1099   0.662E-04    0.841E-05
RMM:  15    -0.413193288392E+03    0.24766E-05   -0.96634E-08  1223   0.670E-04    0.903E-05
RMM:  16    -0.413193287878E+03    0.51341E-06   -0.44709E-08   888   0.592E-04
   34 T=    66. E= -.41286693E+03 F= -.41319329E+03 E0= -.41317193E+03  EK= 0.32635E+00 SP= 0.00E+00 SK= 0.00E+00
       N       E                     dE             d eps       ncg     rms          rms(c)
RMM:   1    -0.413186795280E+03    0.64931E-02   -0.11988E+01  4299   0.924E-01    0.941E-01
RMM:   2    -0.413197497843E+03   -0.10703E-01   -0.15503E-01  4256   0.133E-01    0.665E-01
RMM:   3    -0.413196048178E+03    0.14497E-02   -0.70858E-03  4429   0.444E-02    0.175E-01
RMM:   4    -0.413200679361E+03   -0.46312E-02   -0.53914E-03  5158   0.625E-02    0.291E-01
RMM:   5    -0.413195937549E+03    0.47418E-02   -0.23812E-03  4814   0.481E-02    0.258E-02
RMM:   6    -0.413195926242E+03    0.11308E-04   -0.42088E-04  5732   0.202E-02    0.182E-02
RMM:   7    -0.413195917609E+03    0.86327E-05   -0.83227E-05  5217   0.890E-03    0.776E-03
RMM:   8    -0.413195909438E+03    0.81708E-05   -0.11501E-05  3570   0.394E-03    0.385E-03
RMM:   9    -0.413195906174E+03    0.32642E-05   -0.15659E-06  2577   0.197E-03    0.241E-03
RMM:  10    -0.413195900080E+03    0.60941E-05   -0.63973E-07  2411   0.130E-03    0.134E-03
RMM:  11    -0.413195893433E+03    0.66467E-05   -0.42948E-07  2228   0.105E-03    0.542E-04
RMM:  12    -0.413195888462E+03    0.49707E-05   -0.22437E-07  1654   0.820E-04    0.213E-04
RMM:  13    -0.413195885944E+03    0.25182E-05   -0.12061E-07  1174   0.682E-04    0.132E-04
RMM:  14    -0.413195882744E+03    0.31997E-05   -0.88619E-08  1149   0.652E-04    0.831E-05
RMM:  15    -0.413195876651E+03    0.60931E-05   -0.10389E-07  1460   0.690E-04    0.896E-05
RMM:  16    -0.413195875768E+03    0.88319E-06   -0.42306E-08   906   0.562E-04
   35 T=    67. E= -.41286696E+03 F= -.41319588E+03 E0= -.41317457E+03  EK= 0.32891E+00 SP= 0.00E+00 SK= 0.00E+00
       N       E                     dE             d eps       ncg     rms          rms(c)
RMM:   1    -0.413190035608E+03    0.58410E-02   -0.12020E+01  4298   0.960E-01    0.942E-01
RMM:   2    -0.413199350807E+03   -0.93152E-02   -0.15467E-01  4249   0.122E-01    0.659E-01
RMM:   3    -0.413198278010E+03    0.10728E-02   -0.73847E-03  4797   0.458E-02    0.189E-01
RMM:   4    -0.413227912101E+03   -0.29634E-01   -0.29894E-02  5158   0.145E-01    0.718E-01
RMM:   5    -0.413197959176E+03    0.29953E-01   -0.15087E-02  4799   0.120E-01    0.391E-02
RMM:   6    -0.413198001578E+03   -0.42402E-04   -0.24118E-03  5853   0.459E-02    0.217E-02
RMM:   7    -0.413198011282E+03   -0.97037E-05   -0.25813E-04  5803   0.140E-02    0.138E-02
RMM:   8    -0.413198002638E+03    0.86433E-05   -0.41117E-05  4846   0.622E-03    0.877E-03
RMM:   9    -0.413197997031E+03    0.56077E-05   -0.12585E-05  3935   0.403E-03    0.569E-03
RMM:  10    -0.413197989011E+03    0.80194E-05   -0.21336E-06  2561   0.235E-03    0.316E-03
RMM:  11    -0.413197982189E+03    0.68227E-05   -0.14273E-06  2512   0.188E-03    0.173E-03
RMM:  12    -0.413197972910E+03    0.92784E-05   -0.90234E-07  2471   0.164E-03    0.639E-04
RMM:  13    -0.413197970183E+03    0.27267E-05   -0.33425E-07  2192   0.105E-03    0.465E-04
RMM:  14    -0.413197969036E+03    0.11475E-05   -0.14286E-07  1496   0.734E-04    0.296E-04
RMM:  15    -0.413197962279E+03    0.67566E-05   -0.14331E-07  1795   0.762E-04    0.317E-04
RMM:  16    -0.413197961625E+03    0.65463E-06   -0.47885E-08   938   0.563E-04
   36 T=    67. E= -.41286668E+03 F= -.41319796E+03 E0= -.41317670E+03  EK= 0.33128E+00 SP= 0.00E+00 SK= 0.00E+00
       N       E                     dE             d eps       ncg     rms          rms(c)
RMM:   1    -0.413192511076E+03    0.54512E-02   -0.12080E+01  4303   0.985E-01    0.924E-01
RMM:   2    -0.413203043207E+03   -0.10532E-01   -0.16100E-01  4250   0.135E-01    0.670E-01
RMM:   3    -0.413201432925E+03    0.16103E-02   -0.71239E-03  4778   0.523E-02    0.193E-01
RMM:   4    -0.413238618985E+03   -0.37186E-01   -0.37770E-02  5161   0.163E-01    0.802E-01
RMM:   5    -0.413200880330E+03    0.37739E-01   -0.19059E-02  4799   0.134E-01    0.411E-02
RMM:   6    -0.413200957998E+03   -0.77668E-04   -0.29482E-03  5861   0.510E-02    0.218E-02
RMM:   7    -0.413200973002E+03   -0.15004E-04   -0.29931E-04  5756   0.148E-02    0.137E-02
RMM:   8    -0.413200967501E+03    0.55008E-05   -0.39053E-05  4621   0.580E-03    0.842E-03
RMM:   9    -0.413200965288E+03    0.22136E-05   -0.15636E-05  4124   0.414E-03    0.615E-03
RMM:  10    -0.413200959294E+03    0.59931E-05   -0.29963E-06  2649   0.260E-03    0.320E-03
RMM:  11    -0.413200954742E+03    0.45527E-05   -0.19638E-06  2562   0.211E-03    0.181E-03
RMM:  12    -0.413200949244E+03    0.54981E-05   -0.98569E-07  2480   0.169E-03    0.719E-04
RMM:  13    -0.413200947867E+03    0.13763E-05   -0.35543E-07  2257   0.108E-03    0.517E-04
RMM:  14    -0.413200947172E+03    0.69530E-06   -0.14907E-07  1544   0.747E-04
   37 T=    68. E= -.41286687E+03 F= -.41320095E+03 E0= -.41317973E+03  EK= 0.33407E+00 SP= 0.00E+00 SK= 0.00E+00
       N       E                     dE             d eps       ncg     rms          rms(c)
RMM:   1    -0.413195055976E+03    0.58919E-02   -0.12231E+01  4305   0.102E+00    0.944E-01
RMM:   2    -0.413205823257E+03   -0.10767E-01   -0.16084E-01  4252   0.129E-01    0.675E-01
RMM:   3    -0.413203921415E+03    0.19018E-02   -0.74018E-03  4765   0.508E-02    0.193E-01
RMM:   4    -0.413236942110E+03   -0.33021E-01   -0.33333E-02  5148   0.153E-01    0.757E-01
RMM:   5    -0.413203491046E+03    0.33451E-01   -0.16970E-02  4806   0.126E-01    0.398E-02
RMM:   6    -0.413203546876E+03   -0.55829E-04   -0.25718E-03  5846   0.480E-02    0.217E-02
RMM:   7    -0.413203557611E+03   -0.10735E-04   -0.27103E-04  5748   0.143E-02    0.133E-02
RMM:   8    -0.413203550623E+03    0.69879E-05   -0.36997E-05  4659   0.573E-03    0.807E-03
RMM:   9    -0.413203547453E+03    0.31697E-05   -0.14535E-05  4078   0.402E-03    0.584E-03
RMM:  10    -0.413203540623E+03    0.68300E-05   -0.24614E-06  2584   0.244E-03    0.314E-03
RMM:  11    -0.413203535020E+03    0.56026E-05   -0.16710E-06  2525   0.199E-03    0.173E-03
RMM:  12    -0.413203527820E+03    0.71999E-05   -0.92921E-07  2477   0.165E-03    0.685E-04
RMM:  13    -0.413203525943E+03    0.18774E-05   -0.34231E-07  2231   0.106E-03    0.493E-04
RMM:  14    -0.413203525058E+03    0.88552E-06   -0.14402E-07  1505   0.736E-04
   38 T=    69. E= -.41286695E+03 F= -.41320353E+03 E0= -.41318235E+03  EK= 0.33658E+00 SP= 0.00E+00 SK= 0.00E+00
       N       E                     dE             d eps       ncg     rms          rms(c)
RMM:   1    -0.413200833297E+03    0.26926E-02   -0.12310E+01  4304   0.107E+00    0.958E-01
RMM:   2    -0.413207414712E+03   -0.65814E-02   -0.16289E-01  4258   0.125E-01    0.669E-01
RMM:   3    -0.413206626228E+03    0.78848E-03   -0.80126E-03  4995   0.541E-02    0.223E-01
RMM:   4    -0.413257015603E+03   -0.50389E-01   -0.53859E-02  5133   0.193E-01    0.932E-01
RMM:   5    -0.413205572025E+03    0.51444E-01   -0.25482E-02  4788   0.157E-01    0.505E-02
RMM:   6    -0.413205709994E+03   -0.13797E-03   -0.40678E-03  5830   0.598E-02    0.252E-02
RMM:   7    -0.413205727364E+03   -0.17370E-04   -0.42690E-04  5863   0.176E-02    0.167E-02
RMM:   8    -0.413205724601E+03    0.27633E-05   -0.70493E-05  5118   0.753E-03    0.115E-02
RMM:   9    -0.413205712488E+03    0.12112E-04   -0.18148E-05  4274   0.465E-03    0.641E-03
RMM:  10    -0.413205703403E+03    0.90852E-05   -0.39529E-06  2691   0.282E-03    0.341E-03
RMM:  11    -0.413205696476E+03    0.69268E-05   -0.16002E-06  2500   0.205E-03    0.197E-03
RMM:  12    -0.413205687056E+03    0.94198E-05   -0.92456E-07  2478   0.169E-03    0.668E-04
RMM:  13    -0.413205682887E+03    0.41693E-05   -0.40200E-07  2299   0.114E-03    0.418E-04
RMM:  14    -0.413205680163E+03    0.27243E-05   -0.18753E-07  1795   0.808E-04    0.275E-04
RMM:  15    -0.413205672258E+03    0.79050E-05   -0.15056E-07  1721   0.765E-04    0.275E-04
RMM:  16    -0.413205671472E+03    0.78580E-06   -0.61770E-08  1024   0.586E-04
   39 T=    69. E= -.41286673E+03 F= -.41320567E+03 E0= -.41318453E+03  EK= 0.33894E+00 SP= 0.00E+00 SK= 0.00E+00
       N       E                     dE             d eps       ncg     rms          rms(c)
RMM:   1    -0.413202128673E+03    0.35436E-02   -0.12301E+01  4308   0.111E+00    0.935E-01
RMM:   2    -0.413211005068E+03   -0.88764E-02   -0.16511E-01  4253   0.131E-01    0.674E-01
RMM:   3    -0.413210007714E+03    0.99735E-03   -0.78266E-03  5010   0.553E-02    0.233E-01
RMM:   4    -0.413263841297E+03   -0.53834E-01   -0.59006E-02  5127   0.202E-01    0.963E-01
RMM:   5    -0.413208648349E+03    0.55193E-01   -0.27148E-02  4786   0.162E-01    0.516E-02
RMM:   6    -0.413208798987E+03   -0.15064E-03   -0.42775E-03  5821   0.614E-02    0.247E-02
RMM:   7    -0.413208820391E+03   -0.21403E-04   -0.45633E-04  5889   0.181E-02    0.169E-02
RMM:   8    -0.413208820083E+03    0.30789E-06   -0.75518E-05  5164   0.774E-03    0.117E-02
RMM:   9    -0.413208810024E+03    0.10058E-04   -0.17924E-05  4252   0.466E-03    0.623E-03
RMM:  10    -0.413208804031E+03    0.59937E-05   -0.41513E-06  2689   0.281E-03    0.329E-03
RMM:  11    -0.413208799615E+03    0.44156E-05   -0.16204E-06  2504   0.204E-03    0.188E-03
RMM:  12    -0.413208793787E+03    0.58275E-05   -0.87593E-07  2472   0.161E-03    0.669E-04
RMM:  13    -0.413208790923E+03    0.28641E-05   -0.39225E-07  2273   0.111E-03    0.388E-04
RMM:  14    -0.413208788658E+03    0.22650E-05   -0.19650E-07  1781   0.807E-04    0.242E-04
RMM:  15    -0.413208783605E+03    0.50533E-05   -0.14816E-07  1512   0.739E-04    0.197E-04
RMM:  16    -0.413208782837E+03    0.76808E-06   -0.70035E-08  1049   0.607E-04
   40 T=    70. E= -.41286723E+03 F= -.41320878E+03 E0= -.41318768E+03  EK= 0.34155E+00 SP= 0.00E+00 SK= 0.00E+00
       N       E                     dE             d eps       ncg     rms          rms(c)
RMM:   1    -0.413215336686E+03   -0.65531E-02   -0.12567E+01  4304   0.123E+00    0.946E-01
RMM:   2    -0.413212551678E+03    0.27850E-02   -0.17477E-01  4261   0.139E-01    0.685E-01
RMM:   3    -0.413211969050E+03    0.58263E-03   -0.82562E-03  5043   0.584E-02    0.255E-01
RMM:   4    -0.413267826762E+03   -0.55858E-01   -0.63224E-02  5124   0.209E-01    0.984E-01
RMM:   5    -0.413210170481E+03    0.57656E-01   -0.28032E-02  4776   0.166E-01    0.541E-02
RMM:   6    -0.413210336093E+03   -0.16561E-03   -0.44428E-03  5814   0.627E-02    0.249E-02
RMM:   7    -0.413210358736E+03   -0.22643E-04   -0.48162E-04  5925   0.186E-02    0.177E-02
RMM:   8    -0.413210358742E+03   -0.66939E-08   -0.81895E-05  5247   0.812E-03    0.120E-02
RMM:   9    -0.413210348562E+03    0.10181E-04   -0.17246E-05  4171   0.470E-03    0.584E-03
RMM:  10    -0.413210342959E+03    0.56026E-05   -0.44126E-06  2714   0.285E-03    0.312E-03
RMM:  11    -0.413210338817E+03    0.41418E-05   -0.15568E-06  2513   0.199E-03    0.173E-03
RMM:  12    -0.413210333621E+03    0.51967E-05   -0.80614E-07  2461   0.154E-03    0.661E-04
RMM:  13    -0.413210330757E+03    0.28632E-05   -0.37641E-07  2224   0.107E-03    0.356E-04
RMM:  14    -0.413210328057E+03    0.27008E-05   -0.20389E-07  1686   0.807E-04    0.219E-04
RMM:  15    -0.413210323930E+03    0.41265E-05   -0.14555E-07  1407   0.728E-04    0.141E-04
RMM:  16    -0.413210322725E+03    0.12047E-05   -0.81097E-08  1110   0.634E-04    0.699E-05
RMM:  17    -0.413210320675E+03    0.20503E-05   -0.65439E-08  1101   0.627E-04    0.504E-05
RMM:  18    -0.413210317508E+03    0.31667E-05   -0.70535E-08  1292   0.641E-04    0.371E-05
RMM:  19    -0.413210316853E+03    0.65548E-06   -0.32104E-08   900   0.563E-04
   41 T=    70. E= -.41286677E+03 F= -.41321032E+03 E0= -.41318925E+03  EK= 0.34354E+00 SP= 0.00E+00 SK= 0.00E+00
       N       E                     dE             d eps       ncg     rms          rms(c)
RMM:   1    -0.413225203714E+03   -0.14886E-01   -0.12701E+01  4309   0.129E+00    0.972E-01
RMM:   2    -0.413214402163E+03    0.10802E-01   -0.17917E-01  4281   0.145E-01    0.678E-01
RMM:   3    -0.413216505848E+03   -0.21037E-02   -0.10392E-02  5112   0.721E-02    0.326E-01
RMM:   4    -0.413252910090E+03   -0.36404E-01   -0.51806E-02  5092   0.191E-01    0.832E-01
RMM:   5    -0.413212858895E+03    0.40051E-01   -0.18139E-02  4736   0.139E-01    0.531E-02
RMM:   6    -0.413212915961E+03   -0.57067E-04   -0.29955E-03  5750   0.518E-02    0.238E-02
RMM:   7    -0.413212928805E+03   -0.12844E-04   -0.36893E-04  5881   0.166E-02    0.174E-02
RMM:   8    -0.413212925220E+03    0.35853E-05   -0.70687E-05  5173   0.786E-03    0.104E-02
RMM:   9    -0.413212911892E+03    0.13329E-04   -0.14384E-05  3924   0.462E-03    0.421E-03
RMM:  10    -0.413212905178E+03    0.67132E-05   -0.33236E-06  2657   0.244E-03    0.239E-03
RMM:  11    -0.413212898205E+03    0.69738E-05   -0.11480E-06  2504   0.171E-03    0.120E-03
RMM:  12    -0.413212891932E+03    0.62729E-05   -0.49947E-07  2363   0.123E-03    0.542E-04
RMM:  13    -0.413212887467E+03    0.44646E-05   -0.26447E-07  1764   0.884E-04    0.249E-04
RMM:  14    -0.413212883374E+03    0.40934E-05   -0.16458E-07  1380   0.747E-04    0.142E-04
RMM:  15    -0.413212876892E+03    0.64816E-05   -0.14358E-07  1518   0.737E-04    0.102E-04
RMM:  16    -0.413212875247E+03    0.16447E-05   -0.84190E-08  1161   0.629E-04    0.752E-05
RMM:  17    -0.413212870743E+03    0.45045E-05   -0.78812E-08  1295   0.640E-04    0.523E-05
RMM:  18    -0.413212868456E+03    0.22872E-05   -0.52086E-08  1094   0.585E-04    0.450E-05
RMM:  19    -0.413212867934E+03    0.52141E-06   -0.29295E-08   822   0.534E-04
   42 T=    70. E= -.41286712E+03 F= -.41321287E+03 E0= -.41319183E+03  EK= 0.34575E+00 SP= 0.00E+00 SK= 0.00E+00
       N       E                     dE             d eps       ncg     rms          rms(c)
RMM:   1    -0.413222703136E+03   -0.98347E-02   -0.12613E+01  4310   0.134E+00    0.947E-01
RMM:   2    -0.413216388539E+03    0.63146E-02   -0.17020E-01  4289   0.151E-01    0.677E-01
RMM:   3    -0.413219516050E+03   -0.31275E-02   -0.11225E-02  5102   0.803E-02    0.351E-01
RMM:   4    -0.413249965257E+03   -0.30449E-01   -0.49057E-02  5069   0.187E-01    0.781E-01
RMM:   5    -0.413214793075E+03    0.35172E-01   -0.15375E-02  4708   0.131E-01    0.509E-02
RMM:   6    -0.413214826741E+03   -0.33666E-04   -0.25776E-03  5742   0.483E-02    0.228E-02
RMM:   7    -0.413214834247E+03   -0.75060E-05   -0.30904E-04  5854   0.157E-02    0.169E-02
RMM:   8    -0.413214830684E+03    0.35626E-05   -0.62590E-05  5134   0.756E-03    0.969E-03
RMM:   9    -0.413214819590E+03    0.11094E-04   -0.13486E-05  3832   0.455E-03    0.390E-03
RMM:  10    -0.413214814906E+03    0.46838E-05   -0.28559E-06  2642   0.233E-03    0.219E-03
RMM:  11    -0.413214809578E+03    0.53283E-05   -0.11571E-06  2506   0.168E-03    0.114E-03
RMM:  12    -0.413214805182E+03    0.43963E-05   -0.49671E-07  2359   0.121E-03    0.513E-04
RMM:  13    -0.413214801888E+03    0.32939E-05   -0.26929E-07  1654   0.861E-04    0.239E-04
RMM:  14    -0.413214798965E+03    0.29231E-05   -0.17277E-07  1317   0.741E-04    0.131E-04
RMM:  15    -0.413214794047E+03    0.49172E-05   -0.15572E-07  1386   0.734E-04    0.875E-05
RMM:  16    -0.413214792536E+03    0.15116E-05   -0.91271E-08  1139   0.645E-04    0.662E-05
RMM:  17    -0.413214789519E+03    0.30165E-05   -0.81739E-08  1249   0.639E-04    0.490E-05
RMM:  18    -0.413214787176E+03    0.23431E-05   -0.58767E-08  1085   0.591E-04    0.413E-05
RMM:  19    -0.413214786706E+03    0.47055E-06   -0.31793E-08   812   0.538E-04
   43 T=    71. E= -.41286715E+03 F= -.41321479E+03 E0= -.41319378E+03  EK= 0.34763E+00 SP= 0.00E+00 SK= 0.00E+00
       N       E                     dE             d eps       ncg     rms          rms(c)
RMM:   1    -0.413250030620E+03   -0.35243E-01   -0.13000E+01  4311   0.153E+00    0.947E-01
RMM:   2    -0.413217735991E+03    0.32295E-01   -0.20909E-01  4290   0.173E-01    0.697E-01
RMM:   3    -0.413221843647E+03   -0.41077E-02   -0.11883E-02  5096   0.883E-02    0.409E-01
RMM:   4    -0.413250649780E+03   -0.28806E-01   -0.51399E-02  5060   0.192E-01    0.785E-01
RMM:   5    -0.413215780100E+03    0.34870E-01   -0.15469E-02  4702   0.133E-01    0.552E-02
RMM:   6    -0.413215791966E+03   -0.11866E-04   -0.25657E-03  5694   0.484E-02    0.236E-02
RMM:   7    -0.413215800785E+03   -0.88196E-05   -0.31914E-04  5905   0.161E-02    0.177E-02
RMM:   8    -0.413215797106E+03    0.36788E-05   -0.61135E-05  5137   0.755E-03    0.100E-02
RMM:   9    -0.413215787437E+03    0.96690E-05   -0.15703E-05  3954   0.495E-03    0.429E-03
RMM:  10    -0.413215783993E+03    0.34438E-05   -0.31760E-06  2665   0.241E-03    0.246E-03
RMM:  11    -0.413215780223E+03    0.37706E-05   -0.15962E-06  2542   0.189E-03    0.130E-03
RMM:  12    -0.413215777475E+03    0.27484E-05   -0.55930E-07  2443   0.131E-03    0.623E-04
RMM:  13    -0.413215774719E+03    0.27560E-05   -0.32908E-07  1662   0.913E-04    0.320E-04
RMM:  14    -0.413215772481E+03    0.22371E-05   -0.21386E-07  1401   0.785E-04    0.171E-04
RMM:  15    -0.413215769998E+03    0.24830E-05   -0.16053E-07  1351   0.729E-04    0.907E-05
RMM:  16    -0.413215767629E+03    0.23693E-05   -0.12198E-07  1277   0.683E-04    0.541E-05
RMM:  17    -0.413215765903E+03    0.17262E-05   -0.86554E-08  1169   0.632E-04    0.487E-05
RMM:  18    -0.413215764073E+03    0.18303E-05   -0.67200E-08  1103   0.595E-04    0.337E-05
RMM:  19    -0.413215763232E+03    0.84095E-06   -0.40289E-08   887   0.552E-04
   44 T=    71. E= -.41286686E+03 F= -.41321576E+03 E0= -.41319478E+03  EK= 0.34890E+00 SP= 0.00E+00 SK= 0.00E+00
       N       E                     dE             d eps       ncg     rms          rms(c)
RMM:   1    -0.413229788190E+03   -0.14024E-01   -0.12829E+01  4308   0.153E+00    0.978E-01
RMM:   2    -0.413218395716E+03    0.11392E-01   -0.18021E-01  4344   0.179E-01    0.686E-01
RMM:   3    -0.413229470331E+03   -0.11075E-01   -0.18345E-02  5139   0.114E-01    0.511E-01
RMM:   4    -0.413234560636E+03   -0.50903E-02   -0.38915E-02  5017   0.171E-01    0.565E-01
RMM:   5    -0.413217474977E+03    0.17086E-01   -0.65233E-03  4586   0.973E-02    0.462E-02
RMM:   6    -0.413217436115E+03    0.38862E-04   -0.12108E-03  5416   0.338E-02    0.217E-02
RMM:   7    -0.413217434190E+03    0.19258E-05   -0.15053E-04  5655   0.119E-02    0.158E-02
RMM:   8    -0.413217427272E+03    0.69176E-05   -0.54913E-05  5064   0.750E-03    0.843E-03
RMM:   9    -0.413217412721E+03    0.14551E-04   -0.12408E-05  3843   0.467E-03    0.356E-03
RMM:  10    -0.413217408555E+03    0.41657E-05   -0.18158E-06  2575   0.204E-03    0.190E-03
RMM:  11    -0.413217401368E+03    0.71877E-05   -0.11044E-06  2500   0.163E-03    0.112E-03
RMM:  12    -0.413217395970E+03    0.53977E-05   -0.44451E-07  2361   0.117E-03    0.517E-04
RMM:  13    -0.413217391902E+03    0.40677E-05   -0.22466E-07  1548   0.799E-04    0.238E-04
RMM:  14    -0.413217388329E+03    0.35729E-05   -0.14205E-07  1264   0.693E-04    0.134E-04
RMM:  15    -0.413217381899E+03    0.64301E-05   -0.13873E-07  1379   0.712E-04    0.113E-04
RMM:  16    -0.413217379861E+03    0.20381E-05   -0.71514E-08  1016   0.604E-04    0.936E-05
RMM:  17    -0.413217376594E+03    0.32671E-05   -0.62946E-08  1090   0.601E-04    0.587E-05
RMM:  18    -0.413217373876E+03    0.27179E-05   -0.51291E-08  1074   0.581E-04    0.479E-05
RMM:  19    -0.413217373440E+03    0.43592E-06   -0.25241E-08   749   0.513E-04
   45 T=    71. E= -.41286730E+03 F= -.41321737E+03 E0= -.41319641E+03  EK= 0.35008E+00 SP= 0.00E+00 SK= 0.00E+00
       N       E                     dE             d eps       ncg     rms          rms(c)
RMM:   1    -0.413232575905E+03   -0.15202E-01   -0.12756E+01  4307   0.162E+00    0.959E-01
RMM:   2    -0.413218419694E+03    0.14156E-01   -0.18277E-01  4372   0.188E-01    0.682E-01
RMM:   3    -0.413232067143E+03   -0.13647E-01   -0.20440E-02  5129   0.124E-01    0.557E-01
RMM:   4    -0.413231862423E+03    0.20472E-03   -0.38013E-02  5003   0.171E-01    0.525E-01
RMM:   5    -0.413217487578E+03    0.14375E-01   -0.55276E-03  4554   0.930E-02    0.461E-02
RMM:   6    -0.413217430390E+03    0.57188E-04   -0.93993E-04  5225   0.307E-02    0.211E-02
RMM:   7    -0.413217427631E+03    0.27589E-05   -0.12056E-04  5681   0.106E-02    0.140E-02
RMM:   8    -0.413217424999E+03    0.26323E-05   -0.62705E-05  5185   0.789E-03    0.934E-03
RMM:   9    -0.413217410027E+03    0.14972E-04   -0.17082E-05  4272   0.525E-03    0.387E-03
RMM:  10    -0.413217406724E+03    0.33032E-05   -0.21984E-06  2611   0.216E-03    0.205E-03
RMM:  11    -0.413217400734E+03    0.59893E-05   -0.13366E-06  2490   0.182E-03    0.124E-03
RMM:  12    -0.413217396165E+03    0.45696E-05   -0.49951E-07  2392   0.128E-03    0.641E-04
RMM:  13    -0.413217392339E+03    0.38257E-05   -0.23193E-07  1623   0.849E-04    0.304E-04
RMM:  14    -0.413217388652E+03    0.36869E-05   -0.13261E-07  1238   0.702E-04    0.149E-04
RMM:  15    -0.413217383413E+03    0.52392E-05   -0.12455E-07  1335   0.692E-04    0.145E-04
RMM:  16    -0.413217381663E+03    0.17496E-05   -0.59222E-08   896   0.569E-04    0.115E-04
RMM:  17    -0.413217377995E+03    0.36684E-05   -0.63935E-08  1059   0.590E-04    0.735E-05
RMM:  18    -0.413217375743E+03    0.22518E-05   -0.43621E-08   921   0.554E-04    0.544E-05
RMM:  19    -0.413217375108E+03    0.63497E-06   -0.20657E-08   672   0.507E-04
   46 T=    71. E= -.41286714E+03 F= -.41321738E+03 E0= -.41319643E+03  EK= 0.35023E+00 SP= 0.00E+00 SK= 0.00E+00
       N       E                     dE             d eps       ncg     rms          rms(c)
RMM:   1    -0.413252010004E+03   -0.34634E-01   -0.12986E+01  4311   0.177E+00    0.945E-01
RMM:   2    -0.413218508899E+03    0.33501E-01   -0.21056E-01  4360   0.211E-01    0.698E-01
RMM:   3    -0.413231575700E+03   -0.13067E-01   -0.19998E-02  5131   0.125E-01    0.574E-01
RMM:   4    -0.413233334557E+03   -0.17589E-02   -0.40842E-02  5013   0.177E-01    0.565E-01
RMM:   5    -0.413216892803E+03    0.16442E-01   -0.68339E-03  4560   0.101E-01    0.502E-02
RMM:   6    -0.413216826974E+03    0.65830E-04   -0.11204E-03  5294   0.338E-02    0.227E-02
RMM:   7    -0.413216824277E+03    0.26963E-05   -0.14993E-04  5743   0.118E-02    0.165E-02
RMM:   8    -0.413216819178E+03    0.50989E-05   -0.59663E-05  5182   0.772E-03    0.942E-03
RMM:   9    -0.413216806171E+03    0.13007E-04   -0.16370E-05  4162   0.524E-03    0.415E-03
RMM:  10    -0.413216803567E+03    0.26035E-05   -0.22485E-06  2598   0.217E-03    0.221E-03
RMM:  11    -0.413216799726E+03    0.38412E-05   -0.15716E-06  2532   0.190E-03    0.139E-03
RMM:  12    -0.413216796838E+03    0.28878E-05   -0.52530E-07  2433   0.132E-03    0.684E-04
RMM:  13    -0.413216794016E+03    0.28228E-05   -0.27373E-07  1673   0.876E-04    0.302E-04
RMM:  14    -0.413216791694E+03    0.23220E-05   -0.17361E-07  1334   0.738E-04    0.159E-04
RMM:  15    -0.413216788318E+03    0.33758E-05   -0.16717E-07  1375   0.719E-04    0.107E-04
RMM:  16    -0.413216786726E+03    0.15917E-05   -0.88715E-08  1000   0.608E-04    0.811E-05
RMM:  17    -0.413216784655E+03    0.20713E-05   -0.76898E-08  1038   0.598E-04    0.451E-05
RMM:  18    -0.413216783478E+03    0.11769E-05   -0.50684E-08   914   0.561E-04    0.285E-05
RMM:  19    -0.413216782991E+03    0.48678E-06   -0.28893E-08   722   0.527E-04
   47 T=    71. E= -.41286722E+03 F= -.41321678E+03 E0= -.41319586E+03  EK= 0.34956E+00 SP= 0.00E+00 SK= 0.00E+00
       N       E                     dE             d eps       ncg     rms          rms(c)
RMM:   1    -0.413273473786E+03   -0.56690E-01   -0.13182E+01  4306   0.196E+00    0.972E-01
RMM:   2    -0.413216471841E+03    0.57002E-01   -0.21103E-01  4467   0.212E-01    0.693E-01
RMM:   3    -0.413238163578E+03   -0.21692E-01   -0.27817E-02  5148   0.149E-01    0.685E-01
RMM:   4    -0.413225037508E+03    0.13126E-01   -0.37980E-02  4968   0.175E-01    0.455E-01
RMM:   5    -0.413215552963E+03    0.94845E-02   -0.47383E-03  4539   0.901E-02    0.544E-02
RMM:   6    -0.413215408864E+03    0.14410E-03   -0.49626E-04  4777   0.280E-02    0.243E-02
RMM:   7    -0.413215410458E+03   -0.15941E-05   -0.15504E-04  5934   0.125E-02    0.168E-02
RMM:   8    -0.413215396134E+03    0.14323E-04   -0.55488E-05  5085   0.810E-03    0.102E-02
RMM:   9    -0.413215383151E+03    0.12983E-04   -0.13349E-05  3912   0.470E-03    0.503E-03
RMM:  10    -0.413215378103E+03    0.50484E-05   -0.23799E-06  2575   0.247E-03    0.243E-03
RMM:  11    -0.413215372849E+03    0.52540E-05   -0.18999E-06  2529   0.212E-03    0.163E-03
RMM:  12    -0.413215368213E+03    0.46355E-05   -0.64405E-07  2414   0.147E-03    0.839E-04
RMM:  13    -0.413215363798E+03    0.44151E-05   -0.31182E-07  2024   0.955E-04    0.452E-04
RMM:  14    -0.413215359020E+03    0.47779E-05   -0.18999E-07  1551   0.746E-04    0.221E-04
RMM:  15    -0.413215354381E+03    0.46387E-05   -0.14443E-07  1339   0.673E-04    0.145E-04
RMM:  16    -0.413215351838E+03    0.25433E-05   -0.85642E-08  1085   0.594E-04    0.112E-04
RMM:  17    -0.413215349208E+03    0.26297E-05   -0.66381E-08  1027   0.576E-04    0.570E-05
RMM:  18    -0.413215347404E+03    0.18042E-05   -0.46479E-08   927   0.553E-04    0.482E-05
RMM:  19    -0.413215346657E+03    0.74709E-06   -0.24708E-08   731   0.517E-04
   48 T=    71. E= -.41286749E+03 F= -.41321535E+03 E0= -.41319443E+03  EK= 0.34786E+00 SP= 0.00E+00 SK= 0.00E+00
       N       E                     dE             d eps       ncg     rms          rms(c)
RMM:   1    -0.413272039150E+03   -0.56692E-01   -0.13015E+01  4305   0.208E+00    0.964E-01
RMM:   2    -0.413212416277E+03    0.59623E-01   -0.20793E-01  4476   0.225E-01    0.682E-01
RMM:   3    -0.413240199571E+03   -0.27783E-01   -0.33300E-02  5157   0.164E-01    0.758E-01
RMM:   4    -0.413218154594E+03    0.22045E-01   -0.37547E-02  4937   0.176E-01    0.399E-01
RMM:   5    -0.413211679372E+03    0.64752E-02   -0.47531E-03  4701   0.906E-02    0.648E-02
RMM:   6    -0.413211444610E+03    0.23476E-03   -0.47367E-04  4668   0.302E-02    0.283E-02
RMM:   7    -0.413211440840E+03    0.37699E-05   -0.14433E-04  5779   0.127E-02    0.189E-02
RMM:   8    -0.413211423444E+03    0.17396E-04   -0.39145E-05  4940   0.688E-03    0.975E-03
RMM:   9    -0.413211409667E+03    0.13777E-04   -0.12777E-05  3456   0.429E-03    0.434E-03
RMM:  10    -0.413211403910E+03    0.57567E-05   -0.23222E-06  2610   0.241E-03    0.236E-03
RMM:  11    -0.413211396919E+03    0.69918E-05   -0.12163E-06  2495   0.178E-03    0.146E-03
RMM:  12    -0.413211392001E+03    0.49177E-05   -0.49428E-07  2423   0.124E-03    0.686E-04
RMM:  13    -0.413211386934E+03    0.50673E-05   -0.29572E-07  1754   0.883E-04    0.359E-04
RMM:  14    -0.413211382402E+03    0.45318E-05   -0.20963E-07  1539   0.780E-04    0.257E-04
RMM:  15    -0.413211377060E+03    0.53414E-05   -0.18005E-07  1456   0.731E-04    0.150E-04
RMM:  16    -0.413211375203E+03    0.18576E-05   -0.96026E-08  1158   0.621E-04    0.107E-04
RMM:  17    -0.413211372259E+03    0.29440E-05   -0.86329E-08  1211   0.620E-04    0.565E-05
RMM:  18    -0.413211371184E+03    0.10751E-05   -0.46030E-08   928   0.560E-04    0.465E-05
RMM:  19    -0.413211370549E+03    0.63457E-06   -0.30548E-08   838   0.541E-04
   49 T=    70. E= -.41286713E+03 F= -.41321137E+03 E0= -.41319047E+03  EK= 0.34424E+00 SP= 0.00E+00 SK= 0.00E+00
       N       E                     dE             d eps       ncg     rms          rms(c)
RMM:   1    -0.413242780559E+03   -0.31409E-01   -0.12590E+01  4305   0.209E+00    0.931E-01
RMM:   2    -0.413207982723E+03    0.34798E-01   -0.21948E-01  4495   0.237E-01    0.690E-01
RMM:   3    -0.413232836240E+03   -0.24854E-01   -0.30537E-02  5156   0.160E-01    0.742E-01
RMM:   4    -0.413214316580E+03    0.18520E-01   -0.37829E-02  4942   0.177E-01    0.430E-01
RMM:   5    -0.413206540603E+03    0.77760E-02   -0.54707E-03  4645   0.954E-02    0.667E-02
RMM:   6    -0.413206301425E+03    0.23918E-03   -0.51621E-04  4664   0.313E-02    0.290E-02
RMM:   7    -0.413206299613E+03    0.18120E-05   -0.16315E-04  5856   0.133E-02    0.195E-02
RMM:   8    -0.413206282818E+03    0.16795E-04   -0.45530E-05  5017   0.726E-03    0.104E-02
RMM:   9    -0.413206271154E+03    0.11664E-04   -0.15593E-05  3730   0.473E-03    0.467E-03
RMM:  10    -0.413206266370E+03    0.47840E-05   -0.29999E-06  2670   0.264E-03    0.255E-03
RMM:  11    -0.413206261780E+03    0.45901E-05   -0.15042E-06  2504   0.198E-03    0.166E-03
RMM:  12    -0.413206258301E+03    0.34784E-05   -0.57568E-07  2445   0.136E-03    0.813E-04
RMM:  13    -0.413206254785E+03    0.35159E-05   -0.34080E-07  1897   0.942E-04    0.408E-04
RMM:  14    -0.413206251378E+03    0.34076E-05   -0.26260E-07  1761   0.824E-04    0.322E-04
RMM:  15    -0.413206248171E+03    0.32067E-05   -0.21456E-07  1465   0.741E-04    0.146E-04
RMM:  16    -0.413206246690E+03    0.14814E-05   -0.11551E-07  1178   0.632E-04    0.886E-05
RMM:  17    -0.413206245448E+03    0.12418E-05   -0.88550E-08  1114   0.607E-04    0.509E-05
RMM:  18    -0.413206244700E+03    0.74829E-06   -0.60123E-08  1025   0.577E-04
   50 T=    69. E= -.41286730E+03 F= -.41320624E+03 E0= -.41318535E+03  EK= 0.33894E+00 SP= 0.00E+00 SK= 0.00E+00
       N       E                     dE             d eps       ncg     rms          rms(c)
RMM:   1    -0.413235653857E+03   -0.29408E-01   -0.12392E+01  4301   0.221E+00    0.943E-01
RMM:   2    -0.413200209905E+03    0.35444E-01   -0.21218E-01  4545   0.249E-01    0.685E-01
RMM:   3    -0.413233937763E+03   -0.33728E-01   -0.39278E-02  5170   0.181E-01    0.839E-01
RMM:   4    -0.413203696263E+03    0.30241E-01   -0.39083E-02  4925   0.183E-01    0.372E-01
RMM:   5    -0.413199022230E+03    0.46740E-02   -0.63907E-03  5014   0.101E-01    0.860E-02
RMM:   6    -0.413198585703E+03    0.43653E-03   -0.79877E-04  4698   0.387E-02    0.339E-02
RMM:   7    -0.413198578848E+03    0.68550E-05   -0.20630E-04  5732   0.155E-02    0.215E-02
RMM:   8    -0.413198560017E+03    0.18831E-04   -0.40017E-05  4935   0.707E-03    0.110E-02
RMM:   9    -0.413198546618E+03    0.13399E-04   -0.16290E-05  3772   0.478E-03    0.458E-03
[...]
RMM:  16    -0.413491154544E+03   -0.75555E-06   -0.41760E-07  1959   0.943E-04
  138 T=   128. E= -.41286224E+03 F= -.41349115E+03 E0= -.41347188E+03  EK= 0.62891E+00 SP= 0.00E+00 SK= 0.00E+00
       N       E                     dE             d eps       ncg     rms          rms(c)
RMM:   1    -0.413692607013E+03   -0.20145E+00   -0.13952E+01  4299   0.703E+00    0.107E+00
RMM:   2    -0.413646208137E+03    0.46399E-01   -0.32188E-01  5378   0.710E-01    0.104E+00
RMM:   3    -0.413641200725E+03    0.50074E-02   -0.79321E-02  5611   0.310E-01    0.981E-01
RMM:   4    -0.413622358065E+03    0.18843E-01   -0.37067E-02  5133   0.228E-01    0.485E-01
RMM:   5    -0.413623481132E+03   -0.11231E-02   -0.40581E-02  4961   0.247E-01    0.275E-01
RMM:   6    -0.413619841817E+03    0.36393E-02   -0.13308E-02  4991   0.145E-01    0.126E-01
RMM:   7    -0.413619344397E+03    0.49742E-03   -0.13765E-03  4964   0.552E-02    0.650E-02
RMM:   8    -0.413619310350E+03    0.34047E-04   -0.60386E-04  5577   0.289E-02    0.381E-02
RMM:   9    -0.413619321221E+03   -0.10871E-04   -0.27571E-04  4928   0.206E-02    0.154E-02
RMM:  10    -0.413619331229E+03   -0.10007E-04   -0.59339E-05  5517   0.936E-03    0.922E-03
RMM:  11    -0.413619340315E+03   -0.90859E-05   -0.17371E-05  4413   0.550E-03    0.576E-03
RMM:  12    -0.413619350162E+03   -0.98471E-05   -0.68103E-06  3391   0.388E-03    0.360E-03
RMM:  13    -0.413619354316E+03   -0.41547E-05   -0.25552E-06  2737   0.246E-03    0.171E-03
RMM:  14    -0.413619356572E+03   -0.22558E-05   -0.13945E-06  2565   0.174E-03    0.981E-04
RMM:  15    -0.413619358188E+03   -0.16159E-05   -0.12247E-06  2463   0.151E-03    0.588E-04
RMM:  16    -0.413619358380E+03   -0.19187E-06   -0.11824E-06  2393   0.136E-03
  139 T=   150. E= -.41288422E+03 F= -.41361936E+03 E0= -.41360007E+03  EK= 0.73514E+00 SP= 0.00E+00 SK= 0.00E+00
       N       E                     dE             d eps       ncg     rms          rms(c)
RMM:   1    -0.413738928479E+03   -0.11957E+00   -0.16558E+01  4299   0.789E+00    0.143E+00
RMM:   2    -0.413710396285E+03    0.28532E-01   -0.43184E-01  5374   0.831E-01    0.140E+00
RMM:   3    -0.413699559493E+03    0.10837E-01   -0.12878E-01  5512   0.392E-01    0.130E+00
RMM:   4    -0.413664488570E+03    0.35071E-01   -0.73804E-02  5169   0.315E-01    0.626E-01
RMM:   5    -0.413664575948E+03   -0.87377E-04   -0.63295E-02  4984   0.307E-01    0.341E-01
RMM:   6    -0.413659282936E+03    0.52930E-02   -0.22631E-02  5038   0.186E-01    0.160E-01
RMM:   7    -0.413658348895E+03    0.93404E-03   -0.20239E-03  4617   0.701E-02    0.740E-02
RMM:   8    -0.413658318479E+03    0.30416E-04   -0.94071E-04  5601   0.356E-02    0.451E-02
RMM:   9    -0.413658328098E+03   -0.96193E-05   -0.35236E-04  4912   0.232E-02    0.189E-02
RMM:  10    -0.413658337143E+03   -0.90446E-05   -0.79179E-05  5568   0.107E-02    0.108E-02
RMM:  11    -0.413658347779E+03   -0.10636E-04   -0.28359E-05  4881   0.674E-03    0.707E-03
RMM:  12    -0.413658358977E+03   -0.11198E-04   -0.93731E-06  3671   0.444E-03    0.417E-03
RMM:  13    -0.413658363332E+03   -0.43554E-05   -0.39396E-06  2894   0.291E-03    0.201E-03
RMM:  14    -0.413658365514E+03   -0.21818E-05   -0.19246E-06  2645   0.202E-03    0.123E-03
RMM:  15    -0.413658366358E+03   -0.84399E-06   -0.16215E-06  2566   0.175E-03
  140 T=   158. E= -.41288301E+03 F= -.41365837E+03 E0= -.41363902E+03  EK= 0.77536E+00 SP= 0.00E+00 SK= 0.00E+00
       N       E                     dE             d eps       ncg     rms          rms(c)
RMM:   1    -0.413633595449E+03    0.24770E-01   -0.15160E+01  4296   0.758E+00    0.993E-01
RMM:   2    -0.413604828084E+03    0.28767E-01   -0.36540E-01  5369   0.762E-01    0.106E+00
RMM:   3    -0.413590316067E+03    0.14512E-01   -0.78950E-02  5627   0.310E-01    0.935E-01
RMM:   4    -0.413573617561E+03    0.16699E-01   -0.28213E-02  5167   0.203E-01    0.520E-01
RMM:   5    -0.413576074169E+03   -0.24566E-02   -0.35489E-02  4950   0.230E-01    0.312E-01
RMM:   6    -0.413572529667E+03    0.35445E-02   -0.18099E-02  5012   0.162E-01    0.143E-01
RMM:   7    -0.413571812608E+03    0.71706E-03   -0.22350E-03  5147   0.672E-02    0.735E-02
RMM:   8    -0.413571751479E+03    0.61129E-04   -0.65277E-04  5601   0.301E-02    0.451E-02
RMM:   9    -0.413571744472E+03    0.70067E-05   -0.36577E-04  4610   0.239E-02    0.143E-02
RMM:  10    -0.413571757160E+03   -0.12688E-04   -0.77150E-05  5597   0.104E-02    0.101E-02
RMM:  11    -0.413571762904E+03   -0.57444E-05   -0.17795E-05  4360   0.559E-03    0.599E-03
RMM:  12    -0.413571771321E+03   -0.84171E-05   -0.81198E-06  3541   0.407E-03    0.397E-03
RMM:  13    -0.413571774879E+03   -0.35583E-05   -0.33189E-06  2821   0.277E-03    0.176E-03
RMM:  14    -0.413571775619E+03   -0.73951E-06   -0.15180E-06  2584   0.178E-03
  141 T=   142. E= -.41287363E+03 F= -.41357178E+03 E0= -.41355231E+03  EK= 0.69815E+00 SP= 0.00E+00 SK= 0.00E+00
       N       E                     dE             d eps       ncg     rms          rms(c)
RMM:   1    -0.413524370566E+03    0.47404E-01   -0.12465E+01  4284   0.678E+00    0.696E-01
RMM:   2    -0.413490116718E+03    0.34254E-01   -0.26545E-01  5318   0.656E-01    0.725E-01
RMM:   3    -0.413487425249E+03    0.26915E-02   -0.45481E-02  5754   0.234E-01    0.677E-01
RMM:   4    -0.413479428241E+03    0.79970E-02   -0.11097E-02  5101   0.133E-01    0.407E-01
RMM:   5    -0.413481455657E+03   -0.20274E-02   -0.19737E-02  4877   0.175E-01    0.225E-01
RMM:   6    -0.413479285588E+03    0.21701E-02   -0.10039E-02  4923   0.122E-01    0.963E-02
RMM:   7    -0.413478952145E+03    0.33344E-03   -0.14378E-03  5389   0.514E-02    0.547E-02
RMM:   8    -0.413478896889E+03    0.55256E-04   -0.29368E-04  5211   0.213E-02    0.316E-02
RMM:   9    -0.413478889050E+03    0.78393E-05   -0.22282E-04  4585   0.187E-02    0.112E-02
RMM:  10    -0.413478892347E+03   -0.32974E-05   -0.39818E-05  5177   0.734E-03    0.737E-03
RMM:  11    -0.413478893752E+03   -0.14048E-05   -0.93315E-06  3792   0.419E-03    0.415E-03
RMM:  12    -0.413478895979E+03   -0.22268E-05   -0.27514E-06  2741   0.268E-03    0.217E-03
RMM:  13    -0.413478896880E+03   -0.90067E-06   -0.13856E-06  2567   0.181E-03
  142 T=   124. E= -.41286958E+03 F= -.41347890E+03 E0= -.41345927E+03  EK= 0.60932E+00 SP= 0.00E+00 SK= 0.00E+00
       N       E                     dE             d eps       ncg     rms          rms(c)
RMM:   1    -0.413482889216E+03   -0.39932E-02   -0.10737E+01  4264   0.619E+00    0.648E-01
RMM:   2    -0.413446953331E+03    0.35936E-01   -0.21289E-01  5200   0.588E-01    0.583E-01
RMM:   3    -0.413455093794E+03   -0.81405E-02   -0.39041E-02  5782   0.212E-01    0.649E-01
RMM:   4    -0.413444954493E+03    0.10139E-01   -0.11071E-02  5042   0.132E-01    0.327E-01
RMM:   5    -0.413446156797E+03   -0.12023E-02   -0.12892E-02  4907   0.146E-01    0.150E-01
RMM:   6    -0.413444959404E+03    0.11974E-02   -0.50243E-03  4901   0.876E-02    0.667E-02
RMM:   7    -0.413444772662E+03    0.18674E-03   -0.84911E-04  5444   0.384E-02    0.349E-02
RMM:   8    -0.413444745034E+03    0.27628E-04   -0.17013E-04  5339   0.160E-02    0.189E-02
RMM:   9    -0.413444737832E+03    0.72021E-05   -0.92011E-05  4750   0.122E-02    0.872E-03
RMM:  10    -0.413444737173E+03    0.65841E-06   -0.18560E-05  4385   0.500E-03    0.579E-03
RMM:  11    -0.413444736310E+03    0.86319E-06   -0.37037E-06  2880   0.306E-03
  143 T=   117. E= -.41286776E+03 F= -.41344474E+03 E0= -.41342490E+03  EK= 0.57698E+00 SP= 0.00E+00 SK= 0.00E+00
       N       E                     dE             d eps       ncg     rms          rms(c)
RMM:   1    -0.413527734672E+03   -0.82997E-01   -0.10750E+01  4264   0.628E+00    0.637E-01
RMM:   2    -0.413498142951E+03    0.29592E-01   -0.22680E-01  5128   0.588E-01    0.525E-01
RMM:   3    -0.413513987131E+03   -0.15844E-01   -0.45373E-02  5672   0.228E-01    0.690E-01
RMM:   4    -0.413497916589E+03    0.16071E-01   -0.17668E-02  5212   0.159E-01    0.323E-01
RMM:   5    -0.413497586407E+03    0.33018E-03   -0.80385E-03  4807   0.124E-01    0.996E-02
RMM:   6    -0.413497494141E+03    0.92266E-04   -0.25795E-03  5348   0.628E-02    0.630E-02
RMM:   7    -0.413497307706E+03    0.18644E-03   -0.68419E-04  5113   0.320E-02    0.279E-02
RMM:   8    -0.413497289405E+03    0.18300E-04   -0.21313E-04  5842   0.171E-02    0.170E-02
RMM:   9    -0.413497280110E+03    0.92956E-05   -0.63685E-05  5247   0.100E-02    0.112E-02
RMM:  10    -0.413497277425E+03    0.26847E-05   -0.23826E-05  5010   0.614E-03    0.505E-03
RMM:  11    -0.413497279465E+03   -0.20394E-05   -0.61710E-06  3212   0.329E-03    0.385E-03
RMM:  12    -0.413497282217E+03   -0.27523E-05   -0.19418E-06  2632   0.246E-03    0.156E-03
RMM:  13    -0.413497285537E+03   -0.33204E-05   -0.10291E-06  2509   0.162E-03    0.967E-04
RMM:  14    -0.413497290334E+03   -0.47968E-05   -0.94163E-07  2472   0.144E-03    0.567E-04
RMM:  15    -0.413497294668E+03   -0.43344E-05   -0.80537E-07  2266   0.121E-03    0.389E-04
RMM:  16    -0.413497299028E+03   -0.43597E-05   -0.82530E-07  2250   0.115E-03    0.230E-04
RMM:  17    -0.413497302224E+03   -0.31964E-05   -0.57112E-07  1883   0.942E-04    0.172E-04
RMM:  18    -0.413497304846E+03   -0.26214E-05   -0.43040E-07  1807   0.855E-04    0.120E-04
RMM:  19    -0.413497306502E+03   -0.16566E-05   -0.21652E-07  1363   0.681E-04    0.698E-05
RMM:  20    -0.413497307737E+03   -0.12345E-05   -0.12417E-07  1156   0.613E-04    0.401E-05
RMM:  21    -0.413497308507E+03   -0.76963E-06   -0.70902E-08  1032   0.575E-04
  144 T=   128. E= -.41286631E+03 F= -.41349731E+03 E0= -.41347717E+03  EK= 0.63100E+00 SP= 0.00E+00 SK= 0.00E+00
       N       E                     dE             d eps       ncg     rms          rms(c)
RMM:   1    -0.413683708520E+03   -0.18640E+00   -0.13205E+01  4264   0.702E+00    0.731E-01
RMM:   2    -0.413652154734E+03    0.31554E-01   -0.32680E-01  5239   0.691E-01    0.621E-01
RMM:   3    -0.413671379563E+03   -0.19225E-01   -0.62536E-02  5540   0.272E-01    0.787E-01
RMM:   4    -0.413648806281E+03    0.22573E-01   -0.27993E-02  5227   0.198E-01    0.369E-01
RMM:   5    -0.413647862503E+03    0.94378E-03   -0.67608E-03  4573   0.125E-01    0.125E-01
RMM:   6    -0.413648154477E+03   -0.29197E-03   -0.42480E-03  5431   0.776E-02    0.861E-02
RMM:   7    -0.413647786232E+03    0.36825E-03   -0.13922E-03  5172   0.446E-02    0.380E-02
RMM:   8    -0.413647743954E+03    0.42278E-04   -0.31499E-04  5745   0.216E-02    0.207E-02
RMM:   9    -0.413647731085E+03    0.12869E-04   -0.12262E-04  5637   0.134E-02    0.162E-02
RMM:  10    -0.413647724469E+03    0.66162E-05   -0.32313E-05  5006   0.756E-03    0.603E-03
RMM:  11    -0.413647728245E+03   -0.37761E-05   -0.14511E-05  4339   0.451E-03    0.526E-03
RMM:  12    -0.413647732600E+03   -0.43555E-05   -0.31720E-06  2809   0.300E-03    0.198E-03
RMM:  13    -0.413647738447E+03   -0.58469E-05   -0.17857E-06  2620   0.204E-03    0.115E-03
RMM:  14    -0.413647746788E+03   -0.83407E-05   -0.15019E-06  2607   0.185E-03    0.634E-04
RMM:  15    -0.413647753834E+03   -0.70456E-05   -0.13817E-06  2540   0.157E-03    0.515E-04
RMM:  16    -0.413647760179E+03   -0.63457E-05   -0.12111E-06  2341   0.135E-03    0.382E-04
RMM:  17    -0.413647764171E+03   -0.39915E-05   -0.73954E-07  2010   0.103E-03    0.275E-04
RMM:  18    -0.413647767848E+03   -0.36773E-05   -0.60732E-07  2079   0.973E-04    0.152E-04
RMM:  19    -0.413647769928E+03   -0.20803E-05   -0.27754E-07  1424   0.706E-04    0.929E-05
RMM:  20    -0.413647771674E+03   -0.17459E-05   -0.16661E-07  1226   0.635E-04    0.579E-05
RMM:  21    -0.413647772635E+03   -0.96029E-06   -0.90036E-08  1074   0.587E-04
  145 T=   158. E= -.41286985E+03 F= -.41364777E+03 E0= -.41362731E+03  EK= 0.77793E+00 SP= 0.00E+00 SK= 0.00E+00
       N       E                     dE             d eps       ncg     rms          rms(c)
RMM:   1    -0.413913388867E+03   -0.26562E+00   -0.18016E+01  4266   0.805E+00    0.107E+00
RMM:   2    -0.413849803190E+03    0.63586E-01   -0.52057E-01  5314   0.870E-01    0.935E-01
RMM:   3    -0.413884514099E+03   -0.34711E-01   -0.10689E-01  5446   0.361E-01    0.112E+00
RMM:   4    -0.413841682139E+03    0.42832E-01   -0.56247E-02  5205   0.280E-01    0.517E-01
RMM:   5    -0.413838743035E+03    0.29391E-02   -0.14962E-02  4550   0.184E-01    0.154E-01
RMM:   6    -0.413838982861E+03   -0.23983E-03   -0.67663E-03  5435   0.970E-02    0.110E-01
RMM:   7    -0.413838443778E+03    0.53908E-03   -0.22960E-03  5130   0.570E-02    0.536E-02
RMM:   8    -0.413838352924E+03    0.90854E-04   -0.47465E-04  5579   0.282E-02    0.283E-02
RMM:   9    -0.413838338774E+03    0.14151E-04   -0.20916E-04  5707   0.174E-02    0.205E-02
RMM:  10    -0.413838328032E+03    0.10742E-04   -0.51253E-05  5185   0.939E-03    0.786E-03
RMM:  11    -0.413838331909E+03   -0.38779E-05   -0.25009E-05  4972   0.564E-03    0.690E-03
RMM:  12    -0.413838335652E+03   -0.37422E-05   -0.52509E-06  3106   0.357E-03    0.265E-03
RMM:  13    -0.413838341544E+03   -0.58919E-05   -0.29280E-06  2752   0.254E-03    0.143E-03
RMM:  14    -0.413838350387E+03   -0.88433E-05   -0.18955E-06  2634   0.219E-03    0.743E-04
RMM:  15    -0.413838357127E+03   -0.67401E-05   -0.15125E-06  2588   0.172E-03    0.612E-04
RMM:  16    -0.413838363212E+03   -0.60851E-05   -0.13513E-06  2449   0.148E-03    0.476E-04
RMM:  17    -0.413838367172E+03   -0.39601E-05   -0.91351E-07  2201   0.115E-03    0.343E-04
RMM:  18    -0.413838370296E+03   -0.31239E-05   -0.64264E-07  2023   0.995E-04    0.165E-04
RMM:  19    -0.413838372218E+03   -0.19216E-05   -0.35718E-07  1607   0.775E-04    0.100E-04
RMM:  20    -0.413838373416E+03   -0.11979E-05   -0.17302E-07  1240   0.640E-04    0.743E-05
RMM:  21    -0.413838374679E+03   -0.12631E-05   -0.12090E-07  1171   0.605E-04    0.505E-05
RMM:  22    -0.413838375364E+03   -0.68532E-06   -0.69713E-08  1037   0.562E-04
  146 T=   195. E= -.41287851E+03 F= -.41383838E+03 E0= -.41381771E+03  EK= 0.95987E+00 SP= 0.00E+00 SK= 0.00E+00
       N       E                     dE             d eps       ncg     rms          rms(c)
RMM:   1    -0.414080398271E+03   -0.24202E+00   -0.22702E+01  4264   0.878E+00    0.135E+00
RMM:   2    -0.413969217349E+03    0.11118E+00   -0.75872E-01  5355   0.101E+00    0.117E+00
RMM:   3    -0.414025313667E+03   -0.56096E-01   -0.15704E-01  5424   0.439E-01    0.141E+00
RMM:   4    -0.413959720895E+03    0.65593E-01   -0.88570E-02  5193   0.352E-01    0.661E-01
RMM:   5    -0.413953846194E+03    0.58747E-02   -0.26781E-02  4572   0.240E-01    0.176E-01
RMM:   6    -0.413953962278E+03   -0.11608E-03   -0.83227E-03  5529   0.108E-01    0.118E-01
RMM:   7    -0.413953506835E+03    0.45544E-03   -0.29889E-03  5209   0.637E-02    0.695E-02
RMM:   8    -0.413953330208E+03    0.17663E-03   -0.66172E-04  5351   0.345E-02    0.353E-02
RMM:   9    -0.413953325916E+03    0.42920E-05   -0.33628E-04  5825   0.217E-02    0.272E-02
RMM:  10    -0.413953306154E+03    0.19762E-04   -0.83614E-05  5195   0.120E-02    0.981E-03
RMM:  11    -0.413953309389E+03   -0.32356E-05   -0.41764E-05  5495   0.698E-03    0.870E-03
RMM:  12    -0.413953309956E+03   -0.56700E-06   -0.76434E-06  3589   0.406E-03
  147 T=   219. E= -.41288005E+03 F= -.41395331E+03 E0= -.41393246E+03  EK= 0.10733E+01 SP= 0.00E+00 SK= 0.00E+00
       N       E                     dE             d eps       ncg     rms          rms(c)
RMM:   1    -0.414127992218E+03   -0.17468E+00   -0.24690E+01  4264   0.882E+00    0.132E+00
RMM:   2    -0.413995290547E+03    0.13270E+00   -0.92562E-01  5398   0.105E+00    0.118E+00
RMM:   3    -0.414036358259E+03   -0.41068E-01   -0.16224E-01  5420   0.450E-01    0.135E+00
RMM:   4    -0.413978735758E+03    0.57623E-01   -0.84723E-02  5186   0.351E-01    0.674E-01
RMM:   5    -0.413973326634E+03    0.54091E-02   -0.24203E-02  4397   0.233E-01    0.187E-01
RMM:   6    -0.413973639913E+03   -0.31328E-03   -0.88370E-03  5461   0.113E-01    0.117E-01
RMM:   7    -0.413973204656E+03    0.43526E-03   -0.34329E-03  5274   0.679E-02    0.712E-02
RMM:   8    -0.413973027782E+03    0.17687E-03   -0.63487E-04  5147   0.343E-02    0.365E-02
RMM:   9    -0.413973032243E+03   -0.44609E-05   -0.35502E-04  5686   0.228E-02    0.267E-02
RMM:  10    -0.413973016965E+03    0.15278E-04   -0.74618E-05  5117   0.114E-02    0.110E-02
RMM:  11    -0.413973021691E+03   -0.47261E-05   -0.44595E-05  5547   0.729E-03    0.825E-03
RMM:  12    -0.413973023118E+03   -0.14273E-05   -0.65916E-06  3312   0.382E-03    0.332E-03
RMM:  13    -0.413973026067E+03   -0.29491E-05   -0.43293E-06  2955   0.290E-03    0.160E-03
RMM:  14    -0.413973029601E+03   -0.35335E-05   -0.14509E-06  2559   0.201E-03    0.828E-04
RMM:  15    -0.413973031592E+03   -0.19917E-05   -0.80928E-07  2383   0.135E-03    0.520E-04
RMM:  16    -0.413973033820E+03   -0.22280E-05   -0.86069E-07  2317   0.127E-03    0.391E-04
RMM:  17    -0.413973035362E+03   -0.15417E-05   -0.70229E-07  2113   0.105E-03    0.255E-04
RMM:  18    -0.413973036008E+03   -0.64635E-06   -0.36511E-07  1540   0.797E-04
  148 T=   224. E= -.41287452E+03 F= -.41397304E+03 E0= -.41395178E+03  EK= 0.10985E+01 SP= 0.00E+00 SK= 0.00E+00
       N       E                     dE             d eps       ncg     rms          rms(c)
RMM:   1    -0.414133923171E+03   -0.16089E+00   -0.25427E+01  4265   0.862E+00    0.144E+00
RMM:   2    -0.413989110482E+03    0.14481E+00   -0.10255E+00  5406   0.109E+00    0.134E+00
RMM:   3    -0.414028104166E+03   -0.38994E-01   -0.18111E-01  5448   0.473E-01    0.145E+00
RMM:   4    -0.413965815998E+03    0.62288E-01   -0.93566E-02  5180   0.367E-01    0.710E-01
RMM:   5    -0.413959336457E+03    0.64795E-02   -0.28303E-02  4334   0.252E-01    0.189E-01
RMM:   6    -0.413959478970E+03   -0.14251E-03   -0.84291E-03  5426   0.112E-01    0.114E-01
RMM:   7    -0.413959113053E+03    0.36592E-03   -0.31996E-03  5263   0.655E-02    0.714E-02
RMM:   8    -0.413958943201E+03    0.16985E-03   -0.59247E-04  4847   0.330E-02    0.363E-02
RMM:   9    -0.413958941922E+03    0.12797E-05   -0.31900E-04  5345   0.226E-02    0.222E-02
RMM:  10    -0.413958933923E+03    0.79983E-05   -0.63323E-05  5237   0.100E-02    0.110E-02
RMM:  11    -0.413958935328E+03   -0.14042E-05   -0.32712E-05  5216   0.659E-03    0.684E-03
RMM:  12    -0.413958935001E+03    0.32698E-06   -0.48690E-06  2981   0.327E-03
  149 T=   219. E= -.41288484E+03 F= -.41395894E+03 E0= -.41393754E+03  EK= 0.10741E+01 SP= 0.00E+00 SK= 0.00E+00
       N       E                     dE             d eps       ncg     rms          rms(c)
RMM:   1    -0.413976420686E+03   -0.17485E-01   -0.24458E+01  4269   0.821E+00    0.190E+00
RMM:   2    -0.413835052795E+03    0.14137E+00   -0.98268E-01  5386   0.107E+00    0.165E+00
RMM:   3    -0.413954024402E+03   -0.11897E+00   -0.25178E-01  5434   0.541E-01    0.193E+00
RMM:   4    -0.413833835186E+03    0.12019E+00   -0.16910E-01  5183   0.462E-01    0.876E-01
RMM:   5    -0.413815965309E+03    0.17870E-01   -0.57440E-02  4465   0.337E-01    0.183E-01
RMM:   6    -0.413815480706E+03    0.48460E-03   -0.84093E-03  5562   0.115E-01    0.107E-01
RMM:   7    -0.413815270367E+03    0.21034E-03   -0.18451E-03  5072   0.541E-02    0.635E-02
RMM:   8    -0.413815184292E+03    0.86075E-04   -0.96913E-04  5406   0.374E-02    0.398E-02
RMM:   9    -0.413815170777E+03    0.13515E-04   -0.35290E-04  5630   0.227E-02    0.300E-02
RMM:  10    -0.413815148388E+03    0.22389E-04   -0.89844E-05  5271   0.124E-02    0.119E-02
RMM:  11    -0.413815153033E+03   -0.46455E-05   -0.62181E-05  5715   0.841E-03    0.942E-03
RMM:  12    -0.413815150520E+03    0.25130E-05   -0.83074E-06  3692   0.412E-03    0.386E-03
RMM:  13    -0.413815150630E+03   -0.11034E-06   -0.41670E-06  2957   0.279E-03
  150 T=   189. E= -.41288741E+03 F= -.41381515E+03 E0= -.41379376E+03  EK= 0.92774E+00 SP= 0.00E+00 SK= 0.00E+00
