       N       E                     dE             d eps       ncg     rms          rms(c)
RMM:   1     0.220102248195E+04    0.22010E+04   -0.52445E+04  2132   0.654E+02
RMM:   2     0.705664079337E+03   -0.14954E+04   -0.16262E+04  2132   0.177E+02
RMM:   3     0.137636299721E+03   -0.56803E+03   -0.65722E+03  2132   0.117E+02
RMM:   4    -0.159213122114E+03   -0.29685E+03   -0.27856E+03  2132   0.936E+01
RMM:   5    -0.287485628784E+03   -0.12827E+03   -0.11437E+03  2132   0.595E+01
RMM:   6    -0.349755607942E+03   -0.62270E+02   -0.55135E+02  2132   0.423E+01
RMM:   7    -0.382664454550E+03   -0.32909E+02   -0.30447E+02  2132   0.293E+01
RMM:   8    -0.404205589210E+03   -0.21541E+02   -0.18451E+02  2132   0.234E+01
RMM:   9    -0.436001094497E+03   -0.31796E+02   -0.30763E+02  6101   0.173E+01
RMM:  10    -0.441232783190E+03   -0.52317E+01   -0.62514E+01  6386   0.538E+00
RMM:  11    -0.442516169021E+03   -0.12834E+01   -0.11247E+01  6228   0.174E+00
RMM:  12    -0.442900212287E+03   -0.38404E+00   -0.28406E+00  6367   0.609E-01    0.134E+02
RMM:  13    -0.425622310345E+03    0.17278E+02   -0.80982E+01  4677   0.119E+01    0.712E+01
RMM:  14    -0.499624361856E+03   -0.74002E+02   -0.54103E+02  5411   0.232E+01    0.307E+01
RMM:  15    -0.416906639335E+03    0.82718E+02   -0.20226E+02  5114   0.164E+01    0.765E+00
RMM:  16    -0.414018848618E+03    0.28878E+01   -0.39976E+01  6086   0.615E+00    0.430E+00
RMM:  17    -0.413206494514E+03    0.81235E+00   -0.26767E+00  5406   0.192E+00    0.243E+00
RMM:  18    -0.413179038039E+03    0.27456E-01   -0.73812E-01  5988   0.880E-01    0.171E+00
RMM:  19    -0.413172439244E+03    0.65988E-02   -0.25878E-01  5679   0.555E-01    0.907E-01
RMM:  20    -0.413192246001E+03   -0.19807E-01   -0.31403E-01  5592   0.577E-01    0.661E-01
RMM:  21    -0.413168734957E+03    0.23511E-01   -0.36163E-02  4993   0.250E-01    0.306E-01
RMM:  22    -0.413164986434E+03    0.37485E-02   -0.25215E-02  5863   0.154E-01    0.135E-01
RMM:  23    -0.413164243451E+03    0.74298E-03   -0.53185E-03  5990   0.647E-02    0.842E-02
RMM:  24    -0.413163163569E+03    0.10799E-02   -0.16639E-03  5340   0.408E-02    0.545E-02
RMM:  25    -0.413162603327E+03    0.56024E-03   -0.88083E-04  5043   0.297E-02    0.416E-02
RMM:  26    -0.413162750844E+03   -0.14752E-03   -0.11840E-03  5808   0.348E-02    0.364E-02
RMM:  27    -0.413163171674E+03   -0.42083E-03   -0.21171E-04  4587   0.203E-02    0.207E-02
RMM:  28    -0.413163619573E+03   -0.44790E-03   -0.17010E-04  5167   0.178E-02    0.950E-03
RMM:  29    -0.413164017914E+03   -0.39834E-03   -0.11555E-04  4703   0.154E-02    0.464E-03
RMM:  30    -0.413164266768E+03   -0.24885E-03   -0.82945E-05  4412   0.108E-02    0.481E-03
RMM:  31    -0.413164414571E+03   -0.14780E-03   -0.59735E-05  3274   0.755E-03    0.384E-03
RMM:  32    -0.413164443524E+03   -0.28953E-04   -0.23478E-05  2999   0.327E-03    0.215E-03
RMM:  33    -0.413164456803E+03   -0.13278E-04   -0.96416E-06  2824   0.236E-03    0.700E-04
RMM:  34    -0.413164460056E+03   -0.32537E-05   -0.50813E-06  2642   0.170E-03    0.525E-04
RMM:  35    -0.413164460813E+03   -0.75635E-06   -0.24116E-06  2436   0.137E-03
    1 T=    61. E= -.41286666E+03 F= -.41316446E+03 E0= -.41314196E+03  EK= 0.29780E+00 SP= 0.00E+00 SK= 0.00E+00
       N       E                     dE             d eps       ncg     rms          rms(c)
RMM:   1    -0.413157964617E+03    0.64954E-02   -0.10468E+01  4002   0.686E-01    0.885E-01
RMM:   2    -0.413166698711E+03   -0.87341E-02   -0.12953E-01  3985   0.981E-02    0.644E-01
RMM:   3    -0.413164307464E+03    0.23912E-02   -0.86520E-03  4690   0.395E-02    0.126E-01
RMM:   4    -0.413180428309E+03   -0.16121E-01   -0.16939E-02  5214   0.108E-01    0.532E-01
RMM:   5    -0.413164057633E+03    0.16371E-01   -0.81620E-03  4859   0.891E-02    0.363E-02
RMM:   6    -0.413164163590E+03   -0.10596E-03   -0.13727E-03  5804   0.358E-02    0.245E-02
RMM:   7    -0.413164171930E+03   -0.83398E-05   -0.24065E-04  5738   0.140E-02    0.144E-02
RMM:   8    -0.413164175259E+03   -0.33293E-05   -0.30988E-05  4528   0.588E-03    0.611E-03
RMM:   9    -0.413164179425E+03   -0.41660E-05   -0.66783E-06  3104   0.283E-03    0.486E-03
RMM:  10    -0.413164184401E+03   -0.49761E-05   -0.13646E-06  2539   0.175E-03    0.309E-03
RMM:  11    -0.413164191244E+03   -0.68428E-05   -0.12923E-06  2522   0.163E-03    0.137E-03
RMM:  12    -0.413164197344E+03   -0.61003E-05   -0.10189E-06  2447   0.138E-03    0.648E-04
RMM:  13    -0.413164197956E+03   -0.61229E-06   -0.41266E-07  1963   0.912E-04
    2 T=    61. E= -.41286641E+03 F= -.41316420E+03 E0= -.41314170E+03  EK= 0.29779E+00 SP= 0.00E+00 SK= 0.00E+00
       N       E                     dE             d eps       ncg     rms          rms(c)
RMM:   1    -0.413158538692E+03    0.56587E-02   -0.10488E+01  4193   0.683E-01    0.908E-01
RMM:   2    -0.413166687271E+03   -0.81486E-02   -0.12601E-01  4044   0.949E-02    0.638E-01
RMM:   3    -0.413164873471E+03    0.18138E-02   -0.88510E-03  4799   0.393E-02    0.141E-01
RMM:   4    -0.413187356369E+03   -0.22483E-01   -0.22874E-02  5189   0.126E-01    0.626E-01
RMM:   5    -0.413164592880E+03    0.22763E-01   -0.11135E-02  4838   0.105E-01    0.402E-02
RMM:   6    -0.413164740265E+03   -0.14739E-03   -0.18690E-03  5809   0.417E-02    0.261E-02
RMM:   7    -0.413164742562E+03   -0.22968E-05   -0.28874E-04  5771   0.156E-02    0.164E-02
RMM:   8    -0.413164739231E+03    0.33314E-05   -0.46756E-05  4937   0.714E-03    0.771E-03
RMM:   9    -0.413164738299E+03    0.93148E-06   -0.95631E-06  3538   0.349E-03
    3 T=    61. E= -.41286666E+03 F= -.41316474E+03 E0= -.41314224E+03  EK= 0.29807E+00 SP= 0.00E+00 SK= 0.00E+00
       N       E                     dE             d eps       ncg     rms          rms(c)
RMM:   1    -0.413160153329E+03    0.45859E-02   -0.10426E+01  4223   0.704E-01    0.892E-01
RMM:   2    -0.413166439462E+03   -0.62861E-02   -0.12504E-01  4343   0.952E-02    0.632E-01
RMM:   3    -0.413172530041E+03   -0.60906E-02   -0.15104E-02  5192   0.893E-02    0.401E-01
RMM:   4    -0.413182010561E+03   -0.94805E-02   -0.34416E-02  5097   0.161E-01    0.552E-01
RMM:   5    -0.413164544713E+03    0.17466E-01   -0.62176E-03  4651   0.926E-02    0.561E-02
RMM:   6    -0.413164476502E+03    0.68211E-04   -0.11909E-03  5313   0.351E-02    0.255E-02
RMM:   7    -0.413164493783E+03   -0.17281E-04   -0.25643E-04  5990   0.157E-02    0.161E-02
RMM:   8    -0.413164492690E+03    0.10923E-05   -0.49283E-05  5229   0.795E-03    0.673E-03
RMM:   9    -0.413164491895E+03    0.79560E-06   -0.10346E-05  3846   0.401E-03    0.363E-03
RMM:  10    -0.413164492898E+03   -0.10031E-05   -0.12493E-06  2528   0.194E-03    0.224E-03
RMM:  11    -0.413164494907E+03   -0.20092E-05   -0.12201E-06  2527   0.176E-03    0.139E-03
RMM:  12    -0.413164495959E+03   -0.10519E-05   -0.56286E-07  2404   0.122E-03    0.476E-04
RMM:  13    -0.413164496699E+03   -0.73952E-06   -0.29199E-07  1649   0.812E-04
    4 T=    61. E= -.41286643E+03 F= -.41316450E+03 E0= -.41314201E+03  EK= 0.29806E+00 SP= 0.00E+00 SK= 0.00E+00
       N       E                     dE             d eps       ncg     rms          rms(c)
RMM:   1    -0.413157785986E+03    0.67100E-02   -0.10450E+01  4235   0.687E-01    0.883E-01
RMM:   2    -0.413166980558E+03   -0.91946E-02   -0.12839E-01  4010   0.926E-02    0.643E-01
RMM:   3    -0.413164939800E+03    0.20408E-02   -0.87641E-03  4914   0.401E-02    0.138E-01
RMM:   4    -0.413194213704E+03   -0.29274E-01   -0.30220E-02  5169   0.145E-01    0.713E-01
RMM:   5    -0.413164452820E+03    0.29761E-01   -0.14449E-02  4818   0.119E-01    0.424E-02
RMM:   6    -0.413164636018E+03   -0.18320E-03   -0.23635E-03  5771   0.472E-02    0.260E-02
RMM:   7    -0.413164649118E+03   -0.13100E-04   -0.33729E-04  5836   0.160E-02    0.168E-02
RMM:   8    -0.413164652201E+03   -0.30834E-05   -0.52125E-05  5005   0.733E-03    0.793E-03
RMM:   9    -0.413164654563E+03   -0.23616E-05   -0.11212E-05  3689   0.372E-03    0.573E-03
RMM:  10    -0.413164658951E+03   -0.43877E-05   -0.16774E-06  2570   0.195E-03    0.378E-03
RMM:  11    -0.413164664855E+03   -0.59042E-05   -0.15099E-06  2558   0.185E-03    0.168E-03
RMM:  12    -0.413164670068E+03   -0.52127E-05   -0.12163E-06  2510   0.161E-03    0.714E-04
RMM:  13    -0.413164670480E+03   -0.41221E-06   -0.35351E-07  2098   0.101E-03
    5 T=    61. E= -.41286646E+03 F= -.41316467E+03 E0= -.41314219E+03  EK= 0.29821E+00 SP= 0.00E+00 SK= 0.00E+00
       N       E                     dE             d eps       ncg     rms          rms(c)
RMM:   1    -0.413158887116E+03    0.57830E-02   -0.10488E+01  4251   0.694E-01    0.904E-01
RMM:   2    -0.413167108211E+03   -0.82211E-02   -0.12617E-01  4112   0.954E-02    0.640E-01
RMM:   3    -0.413165346523E+03    0.17617E-02   -0.88151E-03  4751   0.403E-02    0.138E-01
RMM:   4    -0.413186932256E+03   -0.21586E-01   -0.21895E-02  5158   0.123E-01    0.615E-01
RMM:   5    -0.413165005666E+03    0.21927E-01   -0.10788E-02  4830   0.102E-01    0.392E-02
RMM:   6    -0.413165139827E+03   -0.13416E-03   -0.17553E-03  5819   0.404E-02    0.251E-02
RMM:   7    -0.413165143568E+03   -0.37408E-05   -0.26748E-04  5753   0.151E-02    0.158E-02
RMM:   8    -0.413165139854E+03    0.37137E-05   -0.46852E-05  4897   0.716E-03    0.758E-03
RMM:   9    -0.413165138703E+03    0.11511E-05   -0.93897E-06  3537   0.353E-03    0.585E-03
RMM:  10    -0.413165139300E+03   -0.59715E-06   -0.13456E-06  2539   0.191E-03
    6 T=    61. E= -.41286663E+03 F= -.41316514E+03 E0= -.41314268E+03  EK= 0.29851E+00 SP= 0.00E+00 SK= 0.00E+00
       N       E                     dE             d eps       ncg     rms          rms(c)
RMM:   1    -0.413158480676E+03    0.66580E-02   -0.10430E+01  4256   0.692E-01    0.899E-01
RMM:   2    -0.413166816046E+03   -0.83354E-02   -0.12544E-01  4219   0.959E-02    0.633E-01
RMM:   3    -0.413166891910E+03   -0.75864E-04   -0.10170E-02  5097   0.573E-02    0.229E-01
RMM:   4    -0.413203241492E+03   -0.36350E-01   -0.45686E-02  5133   0.179E-01    0.809E-01
RMM:   5    -0.413164762300E+03    0.38479E-01   -0.17274E-02  4781   0.135E-01    0.557E-02
RMM:   6    -0.413164897938E+03   -0.13564E-03   -0.28631E-03  5653   0.530E-02    0.265E-02
RMM:   7    -0.413164919202E+03   -0.21264E-04   -0.40415E-04  6031   0.168E-02    0.173E-02
RMM:   8    -0.413164917865E+03    0.13374E-05   -0.64595E-05  5268   0.825E-03    0.795E-03
RMM:   9    -0.413164914448E+03    0.34164E-05   -0.11308E-05  3570   0.373E-03    0.398E-03
RMM:  10    -0.413164914355E+03    0.93791E-07   -0.26131E-06  2622   0.221E-03
    7 T=    61. E= -.41286637E+03 F= -.41316491E+03 E0= -.41314247E+03  EK= 0.29855E+00 SP= 0.00E+00 SK= 0.00E+00
       N       E                     dE             d eps       ncg     rms          rms(c)
RMM:   1    -0.413158742259E+03    0.61722E-02   -0.10430E+01  4268   0.703E-01    0.882E-01
RMM:   2    -0.413167840518E+03   -0.90983E-02   -0.12775E-01  4214   0.963E-02    0.640E-01
RMM:   3    -0.413166974782E+03    0.86574E-03   -0.96906E-03  5080   0.541E-02    0.204E-01
RMM:   4    -0.413209274445E+03   -0.42300E-01   -0.49764E-02  5146   0.186E-01    0.862E-01
RMM:   5    -0.413165235746E+03    0.44039E-01   -0.20269E-02  4797   0.144E-01    0.533E-02
RMM:   6    -0.413165430661E+03   -0.19491E-03   -0.32972E-03  5730   0.565E-02    0.262E-02
RMM:   7    -0.413165455255E+03   -0.24594E-04   -0.44828E-04  6011   0.177E-02    0.183E-02
RMM:   8    -0.413165459160E+03   -0.39053E-05   -0.71412E-05  5244   0.842E-03    0.894E-03
RMM:   9    -0.413165459412E+03   -0.25218E-06   -0.13555E-05  3798   0.404E-03    0.474E-03
RMM:  10    -0.413165462819E+03   -0.34072E-05   -0.28146E-06  2632   0.222E-03    0.325E-03
RMM:  11    -0.413165466238E+03   -0.34184E-05   -0.11982E-06  2517   0.168E-03    0.163E-03
RMM:  12    -0.413165469598E+03   -0.33599E-05   -0.10399E-06  2517   0.149E-03    0.429E-04
RMM:  13    -0.413165470825E+03   -0.12272E-05   -0.46557E-07  2126   0.107E-03    0.350E-04
RMM:  14    -0.413165470990E+03   -0.16517E-06   -0.21774E-07  1596   0.795E-04
    8 T=    61. E= -.41286662E+03 F= -.41316547E+03 E0= -.41314304E+03  EK= 0.29885E+00 SP= 0.00E+00 SK= 0.00E+00
       N       E                     dE             d eps       ncg     rms          rms(c)
RMM:   1    -0.413159230893E+03    0.62399E-02   -0.10484E+01  4282   0.710E-01    0.899E-01
RMM:   2    -0.413167859027E+03   -0.86281E-02   -0.12706E-01  4203   0.970E-02    0.643E-01
RMM:   3    -0.413166012965E+03    0.18461E-02   -0.89531E-03  4893   0.419E-02    0.144E-01
RMM:   4    -0.413196409243E+03   -0.30396E-01   -0.31462E-02  5150   0.147E-01    0.727E-01
RMM:   5    -0.413165456763E+03    0.30952E-01   -0.15129E-02  4813   0.121E-01    0.437E-02
RMM:   6    -0.413165640002E+03   -0.18324E-03   -0.24239E-03  5767   0.480E-02    0.271E-02
RMM:   7    -0.413165646912E+03   -0.69093E-05   -0.35105E-04  5797   0.164E-02    0.174E-02
RMM:   8    -0.413165645210E+03    0.17012E-05   -0.53907E-05  5041   0.750E-03    0.823E-03
RMM:   9    -0.413165643782E+03    0.14282E-05   -0.11502E-05  3725   0.378E-03    0.589E-03
RMM:  10    -0.413165644607E+03   -0.82457E-06   -0.16772E-06  2562   0.196E-03
    9 T=    61. E= -.41286650E+03 F= -.41316564E+03 E0= -.41314324E+03  EK= 0.29914E+00 SP= 0.00E+00 SK= 0.00E+00
       N       E                     dE             d eps       ncg     rms          rms(c)
RMM:   1    -0.413159436251E+03    0.62075E-02   -0.10463E+01  4292   0.707E-01    0.907E-01
RMM:   2    -0.413167580676E+03   -0.81444E-02   -0.12555E-01  4274   0.961E-02    0.635E-01
RMM:   3    -0.413168223864E+03   -0.64319E-03   -0.10759E-02  5090   0.629E-02    0.250E-01
RMM:   4    -0.413200796898E+03   -0.32573E-01   -0.43982E-02  5123   0.176E-01    0.775E-01
RMM:   5    -0.413165593728E+03    0.35203E-01   -0.15491E-02  4761   0.129E-01    0.553E-02
RMM:   6    -0.413165709247E+03   -0.11552E-03   -0.25877E-03  5626   0.504E-02    0.267E-02
RMM:   7    -0.413165725917E+03   -0.16670E-04   -0.37695E-04  6021   0.164E-02    0.172E-02
RMM:   8    -0.413165723202E+03    0.27154E-05   -0.63448E-05  5256   0.831E-03    0.786E-03
RMM:   9    -0.413165718311E+03    0.48905E-05   -0.10506E-05  3490   0.370E-03    0.380E-03
RMM:  10    -0.413165717117E+03    0.11939E-05   -0.24197E-06  2606   0.218E-03    0.265E-03
RMM:  11    -0.413165715312E+03    0.18053E-05   -0.11898E-06  2515   0.171E-03    0.137E-03
RMM:  12    -0.413165713442E+03    0.18703E-05   -0.72891E-07  2460   0.134E-03    0.424E-04
RMM:  13    -0.413165712591E+03    0.85076E-06   -0.35013E-07  1995   0.956E-04
   10 T=    61. E= -.41286630E+03 F= -.41316571E+03 E0= -.41314333E+03  EK= 0.29942E+00 SP= 0.00E+00 SK= 0.00E+00
       N       E                     dE             d eps       ncg     rms          rms(c)
RMM:   1    -0.413159671570E+03    0.60419E-02   -0.10415E+01  4285   0.709E-01    0.883E-01
RMM:   2    -0.413168695500E+03   -0.90239E-02   -0.12701E-01  4235   0.966E-02    0.638E-01
RMM:   3    -0.413166836127E+03    0.18594E-02   -0.87326E-03  4867   0.429E-02    0.143E-01
RMM:   4    -0.413197518992E+03   -0.30683E-01   -0.31822E-02  5146   0.148E-01    0.730E-01
RMM:   5    -0.413166269006E+03    0.31250E-01   -0.15316E-02  4807   0.122E-01    0.432E-02
RMM:   6    -0.413166450557E+03   -0.18155E-03   -0.24423E-03  5787   0.479E-02    0.268E-02
RMM:   7    -0.413166457864E+03   -0.73073E-05   -0.34615E-04  5792   0.164E-02    0.173E-02
RMM:   8    -0.413166456585E+03    0.12792E-05   -0.56350E-05  5009   0.764E-03    0.845E-03
RMM:   9    -0.413166455287E+03    0.12984E-05   -0.12128E-05  3801   0.390E-03    0.605E-03
RMM:  10    -0.413166456594E+03   -0.13068E-05   -0.17252E-06  2558   0.199E-03    0.397E-03
RMM:  11    -0.413166458442E+03   -0.18481E-05   -0.16489E-06  2563   0.196E-03    0.173E-03
RMM:  12    -0.413166459755E+03   -0.13130E-05   -0.11843E-06  2508   0.164E-03    0.716E-04
RMM:  13    -0.413166459844E+03   -0.89320E-07   -0.35846E-07  2132   0.102E-03
   11 T=    61. E= -.41286661E+03 F= -.41316646E+03 E0= -.41314410E+03  EK= 0.29985E+00 SP= 0.00E+00 SK= 0.00E+00
       N       E                     dE             d eps       ncg     rms          rms(c)
RMM:   1    -0.413159817057E+03    0.66427E-02   -0.10487E+01  4295   0.721E-01    0.894E-01
RMM:   2    -0.413168677792E+03   -0.88607E-02   -0.12818E-01  4233   0.957E-02    0.645E-01
RMM:   3    -0.413166625605E+03    0.20522E-02   -0.88761E-03  4812   0.408E-02    0.137E-01
RMM:   4    -0.413192547259E+03   -0.25922E-01   -0.26614E-02  5145   0.136E-01    0.672E-01
RMM:   5    -0.413166225632E+03    0.26322E-01   -0.12920E-02  4810   0.111E-01    0.407E-02
RMM:   6    -0.413166386478E+03   -0.16085E-03   -0.21005E-03  5810   0.440E-02    0.255E-02
RMM:   7    -0.413166394509E+03   -0.80304E-05   -0.30011E-04  5782   0.156E-02    0.164E-02
RMM:   8    -0.413166392708E+03    0.18003E-05   -0.53520E-05  4976   0.749E-03    0.819E-03
RMM:   9    -0.413166391396E+03    0.13126E-05   -0.11028E-05  3724   0.380E-03    0.608E-03
RMM:  10    -0.413166392533E+03   -0.11376E-05   -0.15749E-06  2555   0.196E-03    0.398E-03
RMM:  11    -0.413166394117E+03   -0.15834E-05   -0.16769E-06  2562   0.199E-03    0.176E-03
RMM:  12    -0.413166395113E+03   -0.99677E-06   -0.10796E-06  2480   0.159E-03
   12 T=    61. E= -.41286633E+03 F= -.41316640E+03 E0= -.41314406E+03  EK= 0.30007E+00 SP= 0.00E+00 SK= 0.00E+00
       N       E                     dE             d eps       ncg     rms          rms(c)
RMM:   1    -0.413160909518E+03    0.54846E-02   -0.10490E+01  4297   0.720E-01    0.911E-01
RMM:   2    -0.413168731072E+03   -0.78216E-02   -0.12571E-01  4235   0.923E-02    0.637E-01
RMM:   3    -0.413167209916E+03    0.15212E-02   -0.90264E-03  4879   0.374E-02    0.144E-01
RMM:   4    -0.413191779880E+03   -0.24570E-01   -0.25240E-02  5148   0.132E-01    0.655E-01
RMM:   5    -0.413166824252E+03    0.24956E-01   -0.12321E-02  4811   0.109E-01    0.414E-02
RMM:   6    -0.413166969063E+03   -0.14481E-03   -0.19872E-03  5826   0.428E-02    0.258E-02
RMM:   7    -0.413166970826E+03   -0.17636E-05   -0.28138E-04  5780   0.155E-02    0.161E-02
RMM:   8    -0.413166963925E+03    0.69019E-05   -0.55491E-05  4967   0.761E-03    0.847E-03
RMM:   9    -0.413166959046E+03    0.48782E-05   -0.10933E-05  3799   0.383E-03    0.636E-03
RMM:  10    -0.413166956383E+03    0.26633E-05   -0.15129E-06  2549   0.198E-03    0.408E-03
RMM:  11    -0.413166952762E+03    0.36209E-05   -0.15382E-06  2545   0.195E-03    0.190E-03
RMM:  12    -0.413166948975E+03    0.37871E-05   -0.10995E-06  2492   0.162E-03    0.701E-04
RMM:  13    -0.413166948329E+03    0.64652E-06   -0.36067E-07  2134   0.103E-03
   13 T=    61. E= -.41286640E+03 F= -.41316695E+03 E0= -.41314465E+03  EK= 0.30055E+00 SP= 0.00E+00 SK= 0.00E+00
       N       E                     dE             d eps       ncg     rms          rms(c)
RMM:   1    -0.413160988746E+03    0.59602E-02   -0.10408E+01  4295   0.720E-01    0.886E-01
RMM:   2    -0.413169766322E+03   -0.87776E-02   -0.12674E-01  4243   0.933E-02    0.636E-01
RMM:   3    -0.413167905811E+03    0.18605E-02   -0.87170E-03  4848   0.397E-02    0.139E-01
RMM:   4    -0.413193355661E+03   -0.25450E-01   -0.26213E-02  5145   0.134E-01    0.666E-01
RMM:   5    -0.413167485487E+03    0.25870E-01   -0.12754E-02  4810   0.111E-01    0.409E-02
RMM:   6    -0.413167638461E+03   -0.15297E-03   -0.20652E-03  5813   0.435E-02    0.257E-02
RMM:   7    -0.413167643798E+03   -0.53365E-05   -0.29592E-04  5755   0.157E-02    0.163E-02
RMM:   8    -0.413167639767E+03    0.40307E-05   -0.54735E-05  4967   0.758E-03    0.824E-03
RMM:   9    -0.413167636943E+03    0.28243E-05   -0.11217E-05  3766   0.384E-03    0.615E-03
RMM:  10    -0.413167636606E+03    0.33660E-06   -0.15321E-06  2549   0.195E-03
   14 T=    61. E= -.41286657E+03 F= -.41316764E+03 E0= -.41314537E+03  EK= 0.30106E+00 SP= 0.00E+00 SK= 0.00E+00
       N       E                     dE             d eps       ncg     rms          rms(c)
RMM:   1    -0.413163705710E+03    0.39312E-02   -0.10519E+01  4306   0.756E-01    0.890E-01
RMM:   2    -0.413170276843E+03   -0.65711E-02   -0.13408E-01  4281   0.101E-01    0.648E-01
RMM:   3    -0.413169830616E+03    0.44623E-03   -0.10268E-02  5090   0.584E-02    0.234E-01
RMM:   4    -0.413210707895E+03   -0.40877E-01   -0.51344E-02  5124   0.189E-01    0.854E-01
RMM:   5    -0.413167476733E+03    0.43231E-01   -0.19507E-02  4775   0.142E-01    0.561E-02
RMM:   6    -0.413167631164E+03   -0.15443E-03   -0.31461E-03  5676   0.553E-02    0.259E-02
RMM:   7    -0.413167656028E+03   -0.24864E-04   -0.43493E-04  6008   0.174E-02    0.176E-02
RMM:   8    -0.413167658106E+03   -0.20778E-05   -0.69770E-05  5261   0.848E-03    0.833E-03
RMM:   9    -0.413167656234E+03    0.18715E-05   -0.13095E-05  3720   0.398E-03    0.396E-03
RMM:  10    -0.413167657611E+03   -0.13768E-05   -0.29043E-06  2640   0.226E-03    0.281E-03
RMM:  11    -0.413167658740E+03   -0.11293E-05   -0.11806E-06  2508   0.169E-03    0.143E-03
RMM:  12    -0.413167659436E+03   -0.69558E-06   -0.80340E-07  2456   0.137E-03
   15 T=    61. E= -.41286626E+03 F= -.41316766E+03 E0= -.41314542E+03  EK= 0.30140E+00 SP= 0.00E+00 SK= 0.00E+00
       N       E                     dE             d eps       ncg     rms          rms(c)
RMM:   1    -0.413162643662E+03    0.50151E-02   -0.10511E+01  4301   0.730E-01    0.913E-01
RMM:   2    -0.413170767161E+03   -0.81235E-02   -0.12641E-01  4257   0.980E-02    0.640E-01
RMM:   3    -0.413169155798E+03    0.16114E-02   -0.93025E-03  4921   0.442E-02    0.155E-01
RMM:   4    -0.413203347185E+03   -0.34191E-01   -0.35742E-02  5143   0.157E-01    0.770E-01
RMM:   5    -0.413168498597E+03    0.34849E-01   -0.16964E-02  4800   0.128E-01    0.464E-02
RMM:   6    -0.413168695491E+03   -0.19689E-03   -0.28028E-03  5784   0.510E-02    0.290E-02
RMM:   7    -0.413168697360E+03   -0.18693E-05   -0.38935E-04  5805   0.176E-02    0.188E-02
RMM:   8    -0.413168689835E+03    0.75250E-05   -0.64368E-05  5068   0.817E-03    0.945E-03
RMM:   9    -0.413168683668E+03    0.61667E-05   -0.13490E-05  3949   0.411E-03    0.665E-03
RMM:  10    -0.413168680102E+03    0.35658E-05   -0.19570E-06  2574   0.210E-03    0.428E-03
RMM:  11    -0.413168676014E+03    0.40887E-05   -0.15531E-06  2533   0.194E-03    0.202E-03
RMM:  12    -0.413168671080E+03    0.49333E-05   -0.13861E-06  2527   0.180E-03    0.773E-04
RMM:  13    -0.413168670218E+03    0.86238E-06   -0.41376E-07  2246   0.113E-03
   16 T=    62. E= -.41286655E+03 F= -.41316867E+03 E0= -.41314647E+03  EK= 0.30212E+00 SP= 0.00E+00 SK= 0.00E+00
       N       E                     dE             d eps       ncg     rms          rms(c)
RMM:   1    -0.413162664963E+03    0.60061E-02   -0.10426E+01  4301   0.731E-01    0.893E-01
RMM:   2    -0.413171361422E+03   -0.86965E-02   -0.12667E-01  4267   0.975E-02    0.636E-01
RMM:   3    -0.413169434173E+03    0.19272E-02   -0.88603E-03  4868   0.427E-02    0.147E-01
RMM:   4    -0.413199624686E+03   -0.30191E-01   -0.31216E-02  5147   0.147E-01    0.724E-01
RMM:   5    -0.413168951205E+03    0.30673E-01   -0.15086E-02  4802   0.121E-01    0.435E-02
RMM:   6    -0.413169129420E+03   -0.17821E-03   -0.24484E-03  5805   0.476E-02    0.272E-02
RMM:   7    -0.413169132989E+03   -0.35693E-05   -0.33883E-04  5783   0.166E-02    0.174E-02
RMM:   8    -0.413169127138E+03    0.58512E-05   -0.61680E-05  5036   0.794E-03    0.901E-03
RMM:   9    -0.413169122157E+03    0.49813E-05   -0.12934E-05  3954   0.406E-03    0.651E-03
RMM:  10    -0.413169119935E+03    0.22222E-05   -0.17691E-06  2560   0.204E-03    0.422E-03
RMM:  11    -0.413169116966E+03    0.29688E-05   -0.16984E-06  2551   0.203E-03    0.191E-03
RMM:  12    -0.413169113836E+03    0.31297E-05   -0.11650E-06  2498   0.169E-03    0.703E-04
RMM:  13    -0.413169113325E+03    0.51128E-06   -0.37387E-07  2185   0.106E-03
   17 T=    62. E= -.41286642E+03 F= -.41316911E+03 E0= -.41314695E+03  EK= 0.30270E+00 SP= 0.00E+00 SK= 0.00E+00
       N       E                     dE             d eps       ncg     rms          rms(c)
RMM:   1    -0.413163076133E+03    0.60377E-02   -0.10498E+01  4298   0.742E-01    0.889E-01
RMM:   2    -0.413172171270E+03   -0.90951E-02   -0.12920E-01  4271   0.984E-02    0.648E-01
RMM:   3    -0.413169969786E+03    0.22015E-02   -0.91140E-03  4866   0.433E-02    0.138E-01
RMM:   4    -0.413200057183E+03   -0.30087E-01   -0.31244E-02  5141   0.146E-01    0.723E-01
RMM:   5    -0.413169416868E+03    0.30640E-01   -0.15073E-02  4799   0.120E-01    0.429E-02
RMM:   6    -0.413169595994E+03   -0.17913E-03   -0.24345E-03  5805   0.473E-02    0.264E-02
RMM:   7    -0.413169603916E+03   -0.79224E-05   -0.33343E-04  5774   0.164E-02    0.170E-02
RMM:   8    -0.413169601337E+03    0.25787E-05   -0.61033E-05  5030   0.790E-03    0.883E-03
RMM:   9    -0.413169598540E+03    0.27973E-05   -0.12878E-05  3940   0.406E-03    0.632E-03
RMM:  10    -0.413169598751E+03   -0.21141E-06   -0.17863E-06  2560   0.202E-03
   18 T=    62. E= -.41286630E+03 F= -.41316960E+03 E0= -.41314748E+03  EK= 0.30330E+00 SP= 0.00E+00 SK= 0.00E+00
       N       E                     dE             d eps       ncg     rms          rms(c)
RMM:   1    -0.413164684747E+03    0.49138E-02   -0.10530E+01  4303   0.742E-01    0.912E-01
RMM:   2    -0.413172873541E+03   -0.81888E-02   -0.12757E-01  4305   0.955E-02    0.644E-01
RMM:   3    -0.413173796564E+03   -0.92302E-03   -0.11358E-02  5096   0.645E-02    0.264E-01
RMM:   4    -0.413205698306E+03   -0.31902E-01   -0.45256E-02  5103   0.178E-01    0.772E-01
RMM:   5    -0.413170712891E+03    0.34985E-01   -0.15236E-02  4741   0.128E-01    0.551E-02
RMM:   6    -0.413170824226E+03   -0.11134E-03   -0.25716E-03  5628   0.500E-02    0.271E-02
RMM:   7    -0.413170835739E+03   -0.11512E-04   -0.37201E-04  6000   0.165E-02    0.175E-02
RMM:   8    -0.413170830441E+03    0.52976E-05   -0.63793E-05  5222   0.835E-03    0.798E-03
RMM:   9    -0.413170823411E+03    0.70301E-05   -0.10856E-05  3550   0.379E-03    0.380E-03
RMM:  10    -0.413170820676E+03    0.27354E-05   -0.23834E-06  2593   0.218E-03    0.265E-03
RMM:  11    -0.413170816816E+03    0.38595E-05   -0.11255E-06  2509   0.169E-03    0.137E-03
RMM:  12    -0.413170813010E+03    0.38063E-05   -0.65041E-07  2428   0.132E-03    0.421E-04
RMM:  13    -0.413170811248E+03    0.17622E-05   -0.32156E-07  1983   0.945E-04    0.271E-04
RMM:  14    -0.413170809802E+03    0.14458E-05   -0.18607E-07  1487   0.766E-04    0.188E-04
RMM:  15    -0.413170807076E+03    0.27259E-05   -0.16134E-07  1322   0.725E-04    0.879E-05
RMM:  16    -0.413170805040E+03    0.20359E-05   -0.12152E-07  1300   0.681E-04    0.918E-05
RMM:  17    -0.413170802492E+03    0.25478E-05   -0.11577E-07  1366   0.668E-04    0.578E-05
RMM:  18    -0.413170800765E+03    0.17269E-05   -0.73162E-08  1102   0.593E-04    0.244E-05
RMM:  19    -0.413170800224E+03    0.54162E-06   -0.35084E-08   838   0.539E-04
   19 T=    62. E= -.41286663E+03 F= -.41317080E+03 E0= -.41314872E+03  EK= 0.30417E+00 SP= 0.00E+00 SK= 0.00E+00
       N       E                     dE             d eps       ncg     rms          rms(c)
RMM:   1    -0.413164974457E+03    0.58263E-02   -0.10467E+01  4296   0.742E-01    0.902E-01
RMM:   2    -0.413173169657E+03   -0.81952E-02   -0.12679E-01  4263   0.964E-02    0.638E-01
RMM:   3    -0.413171751229E+03    0.14184E-02   -0.92310E-03  4956   0.440E-02    0.161E-01
RMM:   4    -0.413208968113E+03   -0.37217E-01   -0.39488E-02  5138   0.165E-01    0.802E-01
RMM:   5    -0.413170965266E+03    0.38003E-01   -0.18514E-02  4794   0.134E-01    0.482E-02
RMM:   6    -0.413171173646E+03   -0.20838E-03   -0.30105E-03  5776   0.530E-02    0.295E-02
RMM:   7    -0.413171176422E+03   -0.27760E-05   -0.42021E-04  5795   0.179E-02    0.192E-02
RMM:   8    -0.413171169321E+03    0.71008E-05   -0.68808E-05  5160   0.838E-03    0.956E-03
RMM:   9    -0.413171162621E+03    0.67008E-05   -0.14829E-05  4090   0.426E-03    0.646E-03
RMM:  10    -0.413171159044E+03    0.35767E-05   -0.21071E-06  2580   0.211E-03    0.420E-03
RMM:  11    -0.413171155280E+03    0.37639E-05   -0.13474E-06  2514   0.184E-03    0.206E-03
RMM:  12    -0.413171150575E+03    0.47046E-05   -0.12823E-06  2515   0.176E-03    0.724E-04
RMM:  13    -0.413171149416E+03    0.11596E-05   -0.41605E-07  2262   0.114E-03    0.505E-04
RMM:  14    -0.413171149312E+03    0.10397E-06   -0.19642E-07  1725   0.794E-04
   20 T=    62. E= -.41286628E+03 F= -.41317115E+03 E0= -.41314912E+03  EK= 0.30487E+00 SP= 0.00E+00 SK= 0.00E+00
       N       E                     dE             d eps       ncg     rms          rms(c)
RMM:   1    -0.413165940601E+03    0.52088E-02   -0.10508E+01  4295   0.761E-01    0.889E-01
RMM:   2    -0.413174927297E+03   -0.89867E-02   -0.13007E-01  4273   0.984E-02    0.648E-01
RMM:   3    -0.413172634685E+03    0.22926E-02   -0.91878E-03  4871   0.425E-02    0.139E-01
RMM:   4    -0.413202260626E+03   -0.29626E-01   -0.30745E-02  5137   0.146E-01    0.717E-01
RMM:   5    -0.413172114815E+03    0.30146E-01   -0.14864E-02  4801   0.119E-01    0.432E-02
RMM:   6    -0.413172287310E+03   -0.17249E-03   -0.23868E-03  5801   0.471E-02    0.269E-02
RMM:   7    -0.413172295175E+03   -0.78652E-05   -0.33915E-04  5753   0.165E-02    0.172E-02
RMM:   8    -0.413172291725E+03    0.34499E-05   -0.60081E-05  5027   0.790E-03    0.872E-03
RMM:   9    -0.413172288130E+03    0.35949E-05   -0.12637E-05  3885   0.402E-03    0.622E-03
RMM:  10    -0.413172287614E+03    0.51592E-06   -0.17313E-06  2563   0.199E-03
   21 T=    62. E= -.41286646E+03 F= -.41317229E+03 E0= -.41315030E+03  EK= 0.30583E+00 SP= 0.00E+00 SK= 0.00E+00
       N       E                     dE             d eps       ncg     rms          rms(c)
RMM:   1    -0.413169357212E+03    0.29309E-02   -0.10581E+01  4300   0.766E-01    0.909E-01
RMM:   2    -0.413175749742E+03   -0.63925E-02   -0.12943E-01  4303   0.987E-02    0.649E-01
RMM:   3    -0.413175740333E+03    0.94090E-05   -0.10966E-02  5076   0.611E-02    0.243E-01
RMM:   4    -0.413213037607E+03   -0.37297E-01   -0.48668E-02  5111   0.184E-01    0.821E-01
RMM:   5    -0.413173192114E+03    0.39845E-01   -0.17823E-02  4759   0.136E-01    0.552E-02
RMM:   6    -0.413173337617E+03   -0.14550E-03   -0.29411E-03  5672   0.534E-02    0.277E-02
RMM:   7    -0.413173349549E+03   -0.11932E-04   -0.41464E-04  5988   0.174E-02    0.184E-02
RMM:   8    -0.413173344621E+03    0.49276E-05   -0.69078E-05  5214   0.858E-03    0.850E-03
RMM:   9    -0.413173337583E+03    0.70386E-05   -0.12593E-05  3735   0.400E-03    0.419E-03
RMM:  10    -0.413173334718E+03    0.28650E-05   -0.26880E-06  2620   0.223E-03    0.293E-03
RMM:  11    -0.413173331146E+03    0.35712E-05   -0.10534E-06  2491   0.166E-03    0.148E-03
RMM:  12    -0.413173327026E+03    0.41202E-05   -0.71707E-07  2448   0.137E-03    0.417E-04
RMM:  13    -0.413173324989E+03    0.20373E-05   -0.34293E-07  2039   0.981E-04    0.289E-04
RMM:  14    -0.413173323876E+03    0.11123E-05   -0.18340E-07  1538   0.767E-04    0.188E-04
RMM:  15    -0.413173321235E+03    0.26416E-05   -0.14621E-07  1330   0.719E-04    0.958E-05
RMM:  16    -0.413173318954E+03    0.22811E-05   -0.11366E-07  1322   0.679E-04    0.113E-04
RMM:  17    -0.413173317328E+03    0.16262E-05   -0.77408E-08  1176   0.624E-04    0.680E-05
RMM:  18    -0.413173314859E+03    0.24681E-05   -0.79130E-08  1241   0.621E-04    0.557E-05
RMM:  19    -0.413173314047E+03    0.81288E-06   -0.33247E-08   849   0.541E-04
   22 T=    62. E= -.41286652E+03 F= -.41317331E+03 E0= -.41315137E+03  EK= 0.30679E+00 SP= 0.00E+00 SK= 0.00E+00
       N       E                     dE             d eps       ncg     rms          rms(c)
RMM:   1    -0.413168009210E+03    0.53056E-02   -0.10530E+01  4295   0.757E-01    0.912E-01
RMM:   2    -0.413176286672E+03   -0.82775E-02   -0.12782E-01  4282   0.102E-01    0.642E-01
RMM:   3    -0.413174492214E+03    0.17945E-02   -0.94876E-03  4881   0.467E-02    0.156E-01
RMM:   4    -0.413209031934E+03   -0.34540E-01   -0.36155E-02  5142   0.158E-01    0.773E-01
RMM:   5    -0.413173851840E+03    0.35180E-01   -0.17287E-02  4797   0.129E-01    0.469E-02
RMM:   6    -0.413174043685E+03   -0.19184E-03   -0.28401E-03  5797   0.511E-02    0.296E-02
RMM:   7    -0.413174045015E+03   -0.13300E-05   -0.38549E-04  5743   0.178E-02    0.187E-02
RMM:   8    -0.413174036654E+03    0.83613E-05   -0.69789E-05  5109   0.847E-03    0.986E-03
RMM:   9    -0.413174028603E+03    0.80508E-05   -0.14578E-05  4125   0.431E-03    0.685E-03
RMM:  10    -0.413174023762E+03    0.48409E-05   -0.20178E-06  2572   0.212E-03    0.443E-03
RMM:  11    -0.413174018558E+03    0.52045E-05   -0.14823E-06  2522   0.192E-03    0.217E-03
RMM:  12    -0.413174012141E+03    0.64172E-05   -0.13387E-06  2510   0.182E-03    0.768E-04
RMM:  13    -0.413174010685E+03    0.14561E-05   -0.43345E-07  2273   0.117E-03    0.536E-04
RMM:  14    -0.413174010468E+03    0.21636E-06   -0.20394E-07  1755   0.809E-04
   23 T=    63. E= -.41286629E+03 F= -.41317401E+03 E0= -.41315211E+03  EK= 0.30772E+00 SP= 0.00E+00 SK= 0.00E+00
       N       E                     dE             d eps       ncg     rms          rms(c)
RMM:   1    -0.413170873711E+03    0.31370E-02   -0.10539E+01  4293   0.791E-01    0.892E-01
RMM:   2    -0.413178397029E+03   -0.75233E-02   -0.13156E-01  4276   0.105E-01    0.648E-01
RMM:   3    -0.413175808964E+03    0.25881E-02   -0.91698E-03  4761   0.446E-02    0.138E-01
RMM:   4    -0.413201622670E+03   -0.25814E-01   -0.26425E-02  5137   0.136E-01    0.670E-01
RMM:   5    -0.413175457289E+03    0.26165E-01   -0.12946E-02  4804   0.111E-01    0.417E-02
RMM:   6    -0.413175600484E+03   -0.14319E-03   -0.21201E-03  5816   0.436E-02    0.262E-02
RMM:   7    -0.413175604459E+03   -0.39747E-05   -0.29062E-04  5734   0.158E-02    0.161E-02
RMM:   8    -0.413175599667E+03    0.47925E-05   -0.59202E-05  4996   0.788E-03    0.874E-03
RMM:   9    -0.413175594833E+03    0.48334E-05   -0.12139E-05  3923   0.402E-03    0.633E-03
RMM:  10    -0.413175593109E+03    0.17242E-05   -0.15429E-06  2545   0.200E-03    0.412E-03
RMM:  11    -0.413175590466E+03    0.26428E-05   -0.18058E-06  2551   0.212E-03    0.179E-03
RMM:  12    -0.413175588010E+03    0.24559E-05   -0.96022E-07  2455   0.159E-03    0.658E-04
RMM:  13    -0.413175587610E+03    0.40010E-06   -0.32941E-07  2092   0.990E-04
   24 T=    63. E= -.41286659E+03 F= -.41317559E+03 E0= -.41315374E+03  EK= 0.30899E+00 SP= 0.00E+00 SK= 0.00E+00
       N       E                     dE             d eps       ncg     rms          rms(c)
RMM:   1    -0.413171338667E+03    0.42493E-02   -0.10613E+01  4297   0.794E-01    0.907E-01
RMM:   2    -0.413179276741E+03   -0.79381E-02   -0.13139E-01  4278   0.106E-01    0.654E-01
RMM:   3    -0.413176790288E+03    0.24865E-02   -0.94074E-03  4734   0.443E-02    0.135E-01
RMM:   4    -0.413199267659E+03   -0.22477E-01   -0.22984E-02  5140   0.126E-01    0.627E-01
RMM:   5    -0.413176444638E+03    0.22823E-01   -0.11311E-02  4811   0.104E-01    0.406E-02
RMM:   6    -0.413176562420E+03   -0.11778E-03   -0.18548E-03  5816   0.405E-02    0.245E-02
RMM:   7    -0.413176564253E+03   -0.18331E-05   -0.21577E-04  5695   0.139E-02    0.122E-02
RMM:   8    -0.413176560895E+03    0.33574E-05   -0.43869E-05  4933   0.666E-03    0.832E-03
RMM:   9    -0.413176556370E+03    0.45254E-05   -0.10526E-05  3808   0.364E-03    0.635E-03
RMM:  10    -0.413176554235E+03    0.21349E-05   -0.15242E-06  2544   0.206E-03    0.415E-03
RMM:  11    -0.413176550613E+03    0.36224E-05   -0.18087E-06  2554   0.209E-03    0.198E-03
RMM:  12    -0.413176546281E+03    0.43319E-05   -0.10414E-06  2471   0.168E-03    0.740E-04
RMM:  13    -0.413176545650E+03    0.63123E-06   -0.33637E-07  2130   0.102E-03
   25 T=    63. E= -.41286641E+03 F= -.41317655E+03 E0= -.41315475E+03  EK= 0.31013E+00 SP= 0.00E+00 SK= 0.00E+00
       N       E                     dE             d eps       ncg     rms          rms(c)
RMM:   1    -0.413172151307E+03    0.43950E-02   -0.10610E+01  4296   0.776E-01    0.921E-01
RMM:   2    -0.413180066023E+03   -0.79147E-02   -0.12904E-01  4278   0.102E-01    0.647E-01
RMM:   3    -0.413178109695E+03    0.19563E-02   -0.95509E-03  4715   0.435E-02    0.141E-01
RMM:   4    -0.413198672842E+03   -0.20563E-01   -0.20938E-02  5148   0.121E-01    0.600E-01
RMM:   5    -0.413177852860E+03    0.20820E-01   -0.10376E-02  4814   0.992E-02    0.410E-02
RMM:   6    -0.413177951726E+03   -0.98866E-04   -0.17098E-03  5822   0.388E-02    0.248E-02
RMM:   7    -0.413177945361E+03    0.63651E-05   -0.20101E-04  5693   0.138E-02    0.123E-02
RMM:   8    -0.413177939168E+03    0.61932E-05   -0.43101E-05  4929   0.666E-03    0.853E-03
RMM:   9    -0.413177932749E+03    0.64193E-05   -0.93935E-06  3667   0.354E-03    0.644E-03
RMM:  10    -0.413177928119E+03    0.46300E-05   -0.13470E-06  2527   0.201E-03    0.411E-03
RMM:  11    -0.413177920771E+03    0.73475E-05   -0.16536E-06  2537   0.205E-03    0.196E-03
RMM:  12    -0.413177912669E+03    0.81019E-05   -0.94346E-07  2451   0.161E-03    0.646E-04
RMM:  13    -0.413177911549E+03    0.11205E-05   -0.32533E-07  2098   0.997E-04    0.471E-04
RMM:  14    -0.413177910677E+03    0.87161E-06   -0.15624E-07  1543   0.742E-04
   26 T=    63. E= -.41286644E+03 F= -.41317791E+03 E0= -.41315616E+03  EK= 0.31147E+00 SP= 0.00E+00 SK= 0.00E+00
       N       E                     dE             d eps       ncg     rms          rms(c)
RMM:   1    -0.413173645589E+03    0.42660E-02   -0.10565E+01  4294   0.791E-01    0.898E-01
RMM:   2    -0.413182096625E+03   -0.84510E-02   -0.13040E-01  4277   0.103E-01    0.649E-01
RMM:   3    -0.413179913523E+03    0.21831E-02   -0.94052E-03  4736   0.439E-02    0.135E-01
RMM:   4    -0.413201874714E+03   -0.21961E-01   -0.22448E-02  5147   0.125E-01    0.620E-01
RMM:   5    -0.413179591741E+03    0.22283E-01   -0.11129E-02  4816   0.103E-01    0.408E-02
RMM:   6    -0.413179705136E+03   -0.11340E-03   -0.18285E-03  5818   0.403E-02    0.258E-02
RMM:   7    -0.413179704109E+03    0.10275E-05   -0.25460E-04  5717   0.152E-02    0.150E-02
RMM:   8    -0.413179698461E+03    0.56476E-05   -0.54413E-05  4964   0.759E-03    0.864E-03
RMM:   9    -0.413179692767E+03    0.56936E-05   -0.10683E-05  3829   0.387E-03    0.628E-03
RMM:  10    -0.413179689815E+03    0.29529E-05   -0.14359E-06  2542   0.197E-03    0.401E-03
RMM:  11    -0.413179685757E+03    0.40574E-05   -0.14199E-06  2515   0.193E-03    0.184E-03
RMM:  12    -0.413179681584E+03    0.41730E-05   -0.94987E-07  2447   0.157E-03    0.623E-04
RMM:  13    -0.413179680739E+03    0.84502E-06   -0.33879E-07  2117   0.101E-03
   27 T=    64. E= -.41286664E+03 F= -.41317968E+03 E0= -.41315798E+03  EK= 0.31304E+00 SP= 0.00E+00 SK= 0.00E+00
       N       E                     dE             d eps       ncg     rms          rms(c)
RMM:   1    -0.413177870963E+03    0.18106E-02   -0.10703E+01  4294   0.836E-01    0.906E-01
RMM:   2    -0.413183451215E+03   -0.55803E-02   -0.13636E-01  4274   0.109E-01    0.660E-01
RMM:   3    -0.413180971433E+03    0.24798E-02   -0.95856E-03  4608   0.438E-02    0.130E-01
RMM:   4    -0.413194718851E+03   -0.13747E-01   -0.14124E-02  5151   0.999E-02    0.493E-01
RMM:   5    -0.413180801666E+03    0.13917E-01   -0.69832E-03  4819   0.811E-02    0.370E-02
RMM:   6    -0.413180851488E+03   -0.49821E-04   -0.11580E-03  5848   0.315E-02    0.220E-02
RMM:   7    -0.413180855903E+03   -0.44153E-05   -0.17585E-04  5618   0.129E-02    0.129E-02
RMM:   8    -0.413180844481E+03    0.11423E-04   -0.34637E-05  4771   0.635E-03    0.684E-03
RMM:   9    -0.413180843137E+03    0.13432E-05   -0.71358E-06  3359   0.328E-03    0.549E-03
RMM:  10    -0.413180840612E+03    0.25253E-05   -0.10417E-06  2503   0.185E-03    0.331E-03
RMM:  11    -0.413180837511E+03    0.31015E-05   -0.97822E-07  2492   0.162E-03    0.165E-03
RMM:  12    -0.413180833928E+03    0.35827E-05   -0.68478E-07  2375   0.131E-03    0.536E-04
RMM:  13    -0.413180833005E+03    0.92322E-06   -0.25200E-07  1887   0.875E-04
   28 T=    64. E= -.41286635E+03 F= -.41318083E+03 E0= -.41315918E+03  EK= 0.31449E+00 SP= 0.00E+00 SK= 0.00E+00
       N       E                     dE             d eps       ncg     rms          rms(c)
RMM:   1    -0.413177254351E+03    0.35796E-02   -0.10704E+01  4291   0.797E-01    0.929E-01
RMM:   2    -0.413185092442E+03   -0.78381E-02   -0.13119E-01  4272   0.105E-01    0.654E-01
RMM:   3    -0.413182954323E+03    0.21381E-02   -0.10001E-02  4474   0.464E-02    0.134E-01
RMM:   4    -0.413191418391E+03   -0.84641E-02   -0.88895E-03  5157   0.789E-02    0.388E-01
RMM:   5    -0.413182888449E+03    0.85299E-02   -0.43743E-03  4833   0.640E-02    0.366E-02
RMM:   6    -0.413182906378E+03   -0.17929E-04   -0.76401E-04  5824   0.260E-02    0.215E-02
RMM:   7    -0.413182903042E+03    0.33369E-05   -0.18418E-04  5442   0.136E-02    0.145E-02
RMM:   8    -0.413182886868E+03    0.16174E-04   -0.22562E-05  4429   0.581E-03    0.620E-03
RMM:   9    -0.413182883184E+03    0.36843E-05   -0.46155E-06  2971   0.271E-03    0.462E-03
RMM:  10    -0.413182877470E+03    0.57141E-05   -0.12933E-06  2491   0.193E-03    0.256E-03
RMM:  11    -0.413182870738E+03    0.67319E-05   -0.82826E-07  2464   0.157E-03    0.124E-03
RMM:  12    -0.413182865038E+03    0.56992E-05   -0.43603E-07  2259   0.114E-03    0.572E-04
RMM:  13    -0.413182862756E+03    0.22829E-05   -0.20904E-07  1763   0.816E-04    0.272E-04
RMM:  14    -0.413182859704E+03    0.30513E-05   -0.12642E-07  1417   0.701E-04    0.180E-04
RMM:  15    -0.413182854236E+03    0.54683E-05   -0.11016E-07  1358   0.687E-04    0.107E-04
RMM:  16    -0.413182852916E+03    0.13202E-05   -0.45977E-08   931   0.592E-04    0.796E-05
RMM:  17    -0.413182848105E+03    0.48105E-05   -0.78412E-08  1278   0.646E-04    0.516E-05
RMM:  18    -0.413182846454E+03    0.16514E-05   -0.35767E-08   927   0.554E-04    0.243E-05
RMM:  19    -0.413182846042E+03    0.41202E-06   -0.14800E-08   712   0.516E-04
   29 T=    64. E= -.41286655E+03 F= -.41318285E+03 E0= -.41316125E+03  EK= 0.31630E+00 SP= 0.00E+00 SK= 0.00E+00
       N       E                     dE             d eps       ncg     rms          rms(c)
RMM:   1    -0.413178579372E+03    0.42671E-02   -0.10644E+01  4286   0.803E-01    0.908E-01
RMM:   2    -0.413187395169E+03   -0.88158E-02   -0.13229E-01  4266   0.111E-01    0.652E-01
RMM:   3    -0.413184806217E+03    0.25890E-02   -0.97815E-03  4443   0.477E-02    0.128E-01
RMM:   4    -0.413192065271E+03   -0.72591E-02   -0.77466E-03  5156   0.744E-02    0.360E-01
RMM:   5    -0.413184749132E+03    0.73161E-02   -0.37295E-03  4829   0.592E-02    0.355E-02
RMM:   6    -0.413184765520E+03   -0.16388E-04   -0.67090E-04  5792   0.248E-02    0.232E-02
RMM:   7    -0.413184759884E+03    0.56354E-05   -0.19961E-04  5350   0.139E-02    0.142E-02
RMM:   8    -0.413184746862E+03    0.13022E-04   -0.17672E-05  4221   0.545E-03    0.597E-03
RMM:   9    -0.413184744554E+03    0.23082E-05   -0.32897E-06  2786   0.241E-03    0.415E-03
RMM:  10    -0.413184740806E+03    0.37475E-05   -0.12437E-06  2487   0.182E-03    0.223E-03
RMM:  11    -0.413184736849E+03    0.39578E-05   -0.75011E-07  2446   0.146E-03    0.106E-03
RMM:  12    -0.413184733629E+03    0.32198E-05   -0.39106E-07  2164   0.107E-03    0.487E-04
RMM:  13    -0.413184732020E+03    0.16088E-05   -0.19439E-07  1646   0.785E-04    0.231E-04
RMM:  14    -0.413184729753E+03    0.22674E-05   -0.11192E-07  1230   0.683E-04    0.137E-04
RMM:  15    -0.413184726755E+03    0.29975E-05   -0.90119E-08  1201   0.661E-04    0.691E-05
RMM:  16    -0.413184725514E+03    0.12410E-05   -0.48485E-08   952   0.600E-04    0.555E-05
RMM:  17    -0.413184722661E+03    0.28530E-05   -0.61394E-08  1148   0.619E-04    0.348E-05
RMM:  18    -0.413184721340E+03    0.13210E-05   -0.31981E-08   881   0.561E-04    0.207E-05
RMM:  19    -0.413184720922E+03    0.41778E-06   -0.16402E-08   723   0.534E-04
   30 T=    65. E= -.41286663E+03 F= -.41318472E+03 E0= -.41316317E+03  EK= 0.31809E+00 SP= 0.00E+00 SK= 0.00E+00
       N       E                     dE             d eps       ncg     rms          rms(c)
RMM:   1    -0.413182972788E+03    0.17486E-02   -0.10782E+01  4289   0.865E-01    0.908E-01
RMM:   2    -0.413189760650E+03   -0.67879E-02   -0.14062E-01  4280   0.123E-01    0.666E-01
RMM:   3    -0.413186331755E+03    0.34289E-02   -0.10006E-02  4333   0.522E-02    0.125E-01
RMM:   4    -0.413188931964E+03   -0.26002E-02   -0.32845E-03  5138   0.482E-02    0.214E-01
RMM:   5    -0.413186390794E+03    0.25412E-02   -0.12853E-03  4817   0.356E-02    0.334E-02
RMM:   6    -0.413186398725E+03   -0.79305E-05   -0.34242E-04  5641   0.184E-02    0.234E-02
RMM:   7    -0.413186385875E+03    0.12850E-04   -0.16910E-04  5088   0.126E-02    0.133E-02
RMM:   8    -0.413186379376E+03    0.64981E-05   -0.12023E-05  3731   0.449E-03    0.543E-03
RMM:   9    -0.413186378507E+03    0.86984E-06   -0.18021E-06  2517   0.196E-03
   31 T=    65. E= -.41286644E+03 F= -.41318638E+03 E0= -.41316488E+03  EK= 0.31994E+00 SP= 0.00E+00 SK= 0.00E+00
       N       E                     dE             d eps       ncg     rms          rms(c)
RMM:   1    -0.413183584224E+03    0.27952E-02   -0.10809E+01  4292   0.834E-01    0.934E-01
RMM:   2    -0.413191722385E+03   -0.81382E-02   -0.13493E-01  4287   0.125E-01    0.662E-01
RMM:   3    -0.413189012125E+03    0.27103E-02   -0.10394E-02  4339   0.538E-02    0.130E-01
RMM:   4    -0.413190246692E+03   -0.12346E-02   -0.20608E-03  5097   0.387E-02    0.148E-01
RMM:   5    -0.413189072312E+03    0.11744E-02   -0.63104E-04  4804   0.254E-02    0.370E-02
RMM:   6    -0.413189063463E+03    0.88493E-05   -0.27305E-04  5445   0.170E-02    0.278E-02
RMM:   7    -0.413189036627E+03    0.26835E-04   -0.17013E-04  4869   0.119E-02    0.141E-02
RMM:   8    -0.413189031653E+03    0.49744E-05   -0.13711E-05  3895   0.443E-03    0.561E-03
RMM:   9    -0.413189029770E+03    0.18833E-05   -0.25932E-06  2502   0.198E-03    0.259E-03
RMM:  10    -0.413189020457E+03    0.93122E-05   -0.95307E-07  2437   0.153E-03    0.104E-03
RMM:  11    -0.413189014902E+03    0.55557E-05   -0.42710E-07  2115   0.104E-03    0.371E-04
RMM:  12    -0.413189010654E+03    0.42482E-05   -0.22496E-07  1785   0.829E-04    0.233E-04
RMM:  13    -0.413189006857E+03    0.37964E-05   -0.12069E-07  1270   0.683E-04    0.155E-04
RMM:  14    -0.413189000243E+03    0.66139E-05   -0.11499E-07  1299   0.682E-04    0.123E-04
RMM:  15    -0.413188995192E+03    0.50516E-05   -0.89046E-08  1284   0.637E-04    0.960E-05
RMM:  16    -0.413188992829E+03    0.23627E-05   -0.47191E-08   956   0.558E-04    0.609E-05
RMM:  17    -0.413188990381E+03    0.24481E-05   -0.41638E-08   907   0.546E-04    0.314E-05
RMM:  18    -0.413188989895E+03    0.48611E-06   -0.16883E-08   655   0.504E-04
   32 T=    66. E= -.41286675E+03 F= -.41318899E+03 E0= -.41316754E+03  EK= 0.32224E+00 SP= 0.00E+00 SK= 0.00E+00
       N       E                     dE             d eps       ncg     rms          rms(c)
RMM:   1    -0.413186504832E+03    0.24855E-02   -0.10780E+01  4285   0.861E-01    0.922E-01
RMM:   2    -0.413193679703E+03   -0.71749E-02   -0.13550E-01  4273   0.127E-01    0.658E-01
RMM:   3    -0.413190870892E+03    0.28088E-02   -0.10137E-02  4308   0.489E-02    0.131E-01
RMM:   4    -0.413192749234E+03   -0.18783E-02   -0.25832E-03  5119   0.441E-02    0.181E-01
RMM:   5    -0.413190971671E+03    0.17776E-02   -0.90507E-04  4793   0.303E-02    0.352E-02
RMM:   6    -0.413190969393E+03    0.22780E-05   -0.30728E-04  5561   0.180E-02    0.255E-02
RMM:   7    -0.413190949118E+03    0.20275E-04   -0.17627E-04  4989   0.127E-02    0.142E-02
RMM:   8    -0.413190942498E+03    0.66199E-05   -0.14233E-05  3953   0.468E-03    0.565E-03
RMM:   9    -0.413190940742E+03    0.17567E-05   -0.23140E-06  2495   0.201E-03    0.282E-03
RMM:  10    -0.413190934718E+03    0.60235E-05   -0.84928E-07  2426   0.150E-03    0.140E-03
RMM:  11    -0.413190930652E+03    0.40664E-05   -0.41187E-07  2099   0.104E-03    0.676E-04
RMM:  12    -0.413190926056E+03    0.45952E-05   -0.25425E-07  1805   0.861E-04    0.249E-04
RMM:  13    -0.413190922947E+03    0.31096E-05   -0.12262E-07  1206   0.686E-04    0.166E-04
RMM:  14    -0.413190919216E+03    0.37309E-05   -0.84553E-08  1004   0.639E-04    0.130E-04
RMM:  15    -0.413190914611E+03    0.46049E-05   -0.77681E-08  1051   0.637E-04    0.637E-05
RMM:  16    -0.413190912888E+03    0.17227E-05   -0.45276E-08   857   0.578E-04    0.565E-05
RMM:  17    -0.413190910519E+03    0.23697E-05   -0.35949E-08   805   0.564E-04    0.243E-05
RMM:  18    -0.413190909455E+03    0.10636E-05   -0.22080E-08   651   0.533E-04    0.164E-05
RMM:  19    -0.413190909211E+03    0.24375E-06   -0.97673E-09   499   0.509E-04
   33 T=    66. E= -.41286648E+03 F= -.41319091E+03 E0= -.41316951E+03  EK= 0.32443E+00 SP= 0.00E+00 SK= 0.00E+00
       N       E                     dE             d eps       ncg     rms          rms(c)
RMM:   1    -0.413199086472E+03   -0.81770E-02   -0.10976E+01  4297   0.963E-01    0.913E-01
RMM:   2    -0.413196319547E+03    0.27669E-02   -0.15563E-01  4272   0.139E-01    0.673E-01
RMM:   3    -0.413193434373E+03    0.28852E-02   -0.97604E-03  4272   0.551E-02    0.144E-01
RMM:   4    -0.413194881578E+03   -0.14472E-02   -0.24589E-03  5089   0.420E-02    0.161E-01
RMM:   5    -0.413193488165E+03    0.13934E-02   -0.71073E-04  4771   0.270E-02    0.345E-02
RMM:   6    -0.413193488494E+03   -0.32924E-06   -0.26801E-04  5545   0.167E-02    0.243E-02
RMM:   7    -0.413193472960E+03    0.15534E-04   -0.17311E-04  4954   0.125E-02    0.145E-02
RMM:   8    -0.413193467004E+03    0.59569E-05   -0.12795E-05  3632   0.438E-03    0.527E-03
RMM:   9    -0.413193466220E+03    0.78397E-06   -0.20327E-06  2483   0.195E-03
   34 T=    67. E= -.41286652E+03 F= -.41319347E+03 E0= -.41317211E+03  EK= 0.32694E+00 SP= 0.00E+00 SK= 0.00E+00
       N       E                     dE             d eps       ncg     rms          rms(c)
RMM:   1    -0.413191522596E+03    0.19444E-02   -0.10949E+01  4303   0.889E-01    0.938E-01
RMM:   2    -0.413198975814E+03   -0.74532E-02   -0.14063E-01  4274   0.130E-01    0.672E-01
RMM:   3    -0.413196193595E+03    0.27822E-02   -0.10483E-02  4312   0.541E-02    0.131E-01
RMM:   4    -0.413196276701E+03   -0.83107E-04   -0.10983E-03  4776   0.221E-02    0.368E-02
RMM:   5    -0.413196291561E+03   -0.14860E-04   -0.17986E-04  5008   0.141E-02    0.400E-02
RMM:   6    -0.413196314449E+03   -0.22888E-04   -0.15996E-04  5304   0.119E-02    0.417E-02
RMM:   7    -0.413196224119E+03    0.90330E-04   -0.18705E-04  4908   0.129E-02    0.131E-02
RMM:   8    -0.413196220429E+03    0.36893E-05   -0.17304E-05  4168   0.485E-03    0.485E-03
RMM:   9    -0.413196218826E+03    0.16031E-05   -0.27949E-06  2447   0.200E-03    0.179E-03
RMM:  10    -0.413196210102E+03    0.87242E-05   -0.79124E-07  2302   0.140E-03    0.842E-04
RMM:  11    -0.413196204372E+03    0.57300E-05   -0.28982E-07  1746   0.875E-04    0.429E-04
RMM:  12    -0.413196200349E+03    0.40235E-05   -0.14865E-07  1314   0.709E-04    0.243E-04
RMM:  13    -0.413196195571E+03    0.47773E-05   -0.11824E-07  1203   0.678E-04    0.147E-04
RMM:  14    -0.413196188473E+03    0.70980E-05   -0.12269E-07  1316   0.681E-04    0.164E-04
RMM:  15    -0.413196187492E+03    0.98157E-06   -0.32065E-08   601   0.539E-04
   35 T=    67. E= -.41286667E+03 F= -.41319619E+03 E0= -.41317488E+03  EK= 0.32951E+00 SP= 0.00E+00 SK= 0.00E+00
       N       E                     dE             d eps       ncg     rms          rms(c)
RMM:   1    -0.413193478574E+03    0.27099E-02   -0.10934E+01  4300   0.911E-01    0.938E-01
RMM:   2    -0.413200784129E+03   -0.73056E-02   -0.14058E-01  4252   0.130E-01    0.666E-01
RMM:   3    -0.413198349881E+03    0.24342E-02   -0.10635E-02  4547   0.560E-02    0.144E-01
RMM:   4    -0.413212942936E+03   -0.14593E-01   -0.14864E-02  5171   0.103E-01    0.508E-01
RMM:   5    -0.413198276477E+03    0.14666E-01   -0.74324E-03  4812   0.844E-02    0.415E-02
RMM:   6    -0.413198275647E+03    0.83035E-06   -0.12966E-03  5813   0.346E-02    0.278E-02
RMM:   7    -0.413198276395E+03   -0.74841E-06   -0.28375E-04  5493   0.161E-02    0.168E-02
RMM:   8    -0.413198259489E+03    0.16906E-04   -0.39326E-05  4880   0.717E-03    0.740E-03
RMM:   9    -0.413198256263E+03    0.32265E-05   -0.70997E-06  3220   0.328E-03    0.514E-03
RMM:  10    -0.413198250319E+03    0.59443E-05   -0.12641E-06  2514   0.199E-03    0.291E-03
RMM:  11    -0.413198244053E+03    0.62653E-05   -0.91846E-07  2491   0.158E-03    0.150E-03
RMM:  12    -0.413198236680E+03    0.73734E-05   -0.68544E-07  2420   0.136E-03    0.727E-04
RMM:  13    -0.413198233750E+03    0.29294E-05   -0.27988E-07  2019   0.928E-04    0.380E-04
RMM:  14    -0.413198231880E+03    0.18709E-05   -0.13396E-07  1362   0.699E-04    0.249E-04
RMM:  15    -0.413198227271E+03    0.46090E-05   -0.94769E-08  1233   0.666E-04    0.985E-05
RMM:  16    -0.413198224532E+03    0.27382E-05   -0.60003E-08  1033   0.622E-04    0.743E-05
RMM:  17    -0.413198221434E+03    0.30979E-05   -0.50529E-08  1067   0.611E-04    0.794E-05
RMM:  18    -0.413198218059E+03    0.33759E-05   -0.46701E-08  1111   0.600E-04    0.505E-05
RMM:  19    -0.413198216602E+03    0.14565E-05   -0.26040E-08   859   0.543E-04    0.310E-05
RMM:  20    -0.413198216291E+03    0.31069E-06   -0.12962E-08   681   0.513E-04
   36 T=    68. E= -.41286633E+03 F= -.41319822E+03 E0= -.41317695E+03  EK= 0.33189E+00 SP= 0.00E+00 SK= 0.00E+00
       N       E                     dE             d eps       ncg     rms          rms(c)
RMM:   1    -0.413218517217E+03   -0.20301E-01   -0.11207E+01  4302   0.107E+00    0.921E-01
RMM:   2    -0.413204720387E+03    0.13797E-01   -0.16614E-01  4250   0.142E-01    0.678E-01
RMM:   3    -0.413201558745E+03    0.31616E-02   -0.98302E-03  4670   0.557E-02    0.172E-01
RMM:   4    -0.413228949174E+03   -0.27390E-01   -0.27831E-02  5164   0.140E-01    0.691E-01
RMM:   5    -0.413201288305E+03    0.27661E-01   -0.13964E-02  4803   0.115E-01    0.458E-02
RMM:   6    -0.413201327057E+03   -0.38752E-04   -0.23069E-03  5860   0.450E-02    0.286E-02
RMM:   7    -0.413201336386E+03   -0.93290E-05   -0.29165E-04  5678   0.159E-02    0.150E-02
RMM:   8    -0.413201328835E+03    0.75514E-05   -0.54765E-05  4984   0.766E-03    0.912E-03
RMM:   9    -0.413201327640E+03    0.11954E-05   -0.17511E-05  4423   0.465E-03    0.677E-03
RMM:  10    -0.413201323508E+03    0.41318E-05   -0.21422E-06  2602   0.237E-03    0.399E-03
RMM:  11    -0.413201321141E+03    0.23668E-05   -0.12122E-06  2500   0.176E-03    0.244E-03
RMM:  12    -0.413201315467E+03    0.56736E-05   -0.15781E-06  2521   0.202E-03    0.110E-03
RMM:  13    -0.413201313032E+03    0.24355E-05   -0.53734E-07  2343   0.130E-03    0.674E-04
RMM:  14    -0.413201312871E+03    0.16134E-06   -0.22123E-07  1863   0.841E-04
   37 T=    68. E= -.41286667E+03 F= -.41320131E+03 E0= -.41318009E+03  EK= 0.33465E+00 SP= 0.00E+00 SK= 0.00E+00
       N       E                     dE             d eps       ncg     rms          rms(c)
RMM:   1    -0.413215842034E+03   -0.14529E-01   -0.11256E+01  4307   0.108E+00    0.942E-01
RMM:   2    -0.413207286299E+03    0.85557E-02   -0.15674E-01  4255   0.133E-01    0.683E-01
RMM:   3    -0.413203898997E+03    0.33873E-02   -0.10675E-02  4726   0.540E-02    0.161E-01
RMM:   4    -0.413233018301E+03   -0.29119E-01   -0.29660E-02  5156   0.144E-01    0.712E-01
RMM:   5    -0.413203569209E+03    0.29449E-01   -0.14882E-02  4799   0.119E-01    0.473E-02
RMM:   6    -0.413203618826E+03   -0.49617E-04   -0.24589E-03  5841   0.466E-02    0.298E-02
RMM:   7    -0.413203632113E+03   -0.13287E-04   -0.34285E-04  5701   0.170E-02    0.169E-02
RMM:   8    -0.413203620600E+03    0.11514E-04   -0.66686E-05  5049   0.849E-03    0.977E-03
RMM:   9    -0.413203617314E+03    0.32857E-05   -0.16413E-05  4321   0.473E-03    0.638E-03
RMM:  10    -0.413203612016E+03    0.52977E-05   -0.23306E-06  2632   0.236E-03    0.386E-03
RMM:  11    -0.413203608277E+03    0.37390E-05   -0.11066E-06  2489   0.172E-03    0.230E-03
RMM:  12    -0.413203600084E+03    0.81935E-05   -0.13984E-06  2508   0.192E-03    0.106E-03
RMM:  13    -0.413203596190E+03    0.38942E-05   -0.52118E-07  2331   0.127E-03    0.684E-04
RMM:  14    -0.413203595930E+03    0.25935E-06   -0.22312E-07  1846   0.841E-04
   38 T=    69. E= -.41286647E+03 F= -.41320360E+03 E0= -.41318241E+03  EK= 0.33713E+00 SP= 0.00E+00 SK= 0.00E+00
       N       E                     dE             d eps       ncg     rms          rms(c)
RMM:   1    -0.413203557266E+03    0.38923E-04   -0.11118E+01  4304   0.102E+00    0.955E-01
RMM:   2    -0.413209412587E+03   -0.58553E-02   -0.14624E-01  4263   0.124E-01    0.676E-01
RMM:   3    -0.413206918837E+03    0.24937E-02   -0.11481E-02  4953   0.558E-02    0.185E-01
RMM:   4    -0.413252829835E+03   -0.45911E-01   -0.49109E-02  5137   0.185E-01    0.889E-01
RMM:   5    -0.413206042376E+03    0.46787E-01   -0.23093E-02  4788   0.149E-01    0.554E-02
RMM:   6    -0.413206175479E+03   -0.13310E-03   -0.38489E-03  5828   0.579E-02    0.332E-02
RMM:   7    -0.413206185235E+03   -0.97565E-05   -0.43404E-04  5727   0.188E-02    0.177E-02
RMM:   8    -0.413206178601E+03    0.66337E-05   -0.63629E-05  5005   0.775E-03    0.999E-03
RMM:   9    -0.413206171064E+03    0.75377E-05   -0.21287E-05  4485   0.478E-03    0.724E-03
RMM:  10    -0.413206165626E+03    0.54376E-05   -0.48124E-06  2950   0.295E-03    0.434E-03
RMM:  11    -0.413206159883E+03    0.57433E-05   -0.17101E-06  2515   0.214E-03    0.262E-03
RMM:  12    -0.413206147737E+03    0.12146E-04   -0.16200E-06  2509   0.215E-03    0.958E-04
RMM:  13    -0.413206143083E+03    0.46537E-05   -0.58629E-07  2405   0.139E-03    0.773E-04
RMM:  14    -0.413206143030E+03    0.53238E-07   -0.25376E-07  2020   0.907E-04
   39 T=    69. E= -.41286650E+03 F= -.41320614E+03 E0= -.41318500E+03  EK= 0.33964E+00 SP= 0.00E+00 SK= 0.00E+00
       N       E                     dE             d eps       ncg     rms          rms(c)
RMM:   1    -0.413218676802E+03   -0.12534E-01   -0.11231E+01  4310   0.115E+00    0.932E-01
RMM:   2    -0.413212895263E+03    0.57815E-02   -0.16189E-01  4270   0.133E-01    0.682E-01
RMM:   3    -0.413210164899E+03    0.27304E-02   -0.10993E-02  4996   0.577E-02    0.207E-01
RMM:   4    -0.413262930970E+03   -0.52766E-01   -0.57873E-02  5133   0.200E-01    0.952E-01
RMM:   5    -0.413208889884E+03    0.54041E-01   -0.26444E-02  4781   0.160E-01    0.584E-02
RMM:   6    -0.413209060021E+03   -0.17014E-03   -0.44182E-03  5816   0.619E-02    0.338E-02
RMM:   7    -0.413209077072E+03   -0.17051E-04   -0.51199E-04  5816   0.200E-02    0.200E-02
RMM:   8    -0.413209078211E+03   -0.11381E-05   -0.11072E-04  5234   0.101E-02    0.132E-02
RMM:   9    -0.413209065474E+03    0.12736E-04   -0.28369E-05  4729   0.596E-03    0.695E-03
RMM:  10    -0.413209060820E+03    0.46539E-05   -0.48681E-06  2868   0.297E-03    0.428E-03
RMM:  11    -0.413209056969E+03    0.38517E-05   -0.16611E-06  2505   0.211E-03    0.256E-03
RMM:  12    -0.413209049393E+03    0.75759E-05   -0.14468E-06  2505   0.201E-03    0.879E-04
RMM:  13    -0.413209045568E+03    0.38244E-05   -0.60986E-07  2403   0.138E-03    0.618E-04
RMM:  14    -0.413209044724E+03    0.84407E-06   -0.26854E-07  2009   0.920E-04
   40 T=    70. E= -.41286675E+03 F= -.41320904E+03 E0= -.41318794E+03  EK= 0.34229E+00 SP= 0.00E+00 SK= 0.00E+00
       N       E                     dE             d eps       ncg     rms          rms(c)
RMM:   1    -0.413230308813E+03   -0.21263E-01   -0.11443E+01  4311   0.122E+00    0.943E-01
RMM:   2    -0.413215134736E+03    0.15174E-01   -0.17982E-01  4273   0.143E-01    0.695E-01
RMM:   3    -0.413212951016E+03    0.21837E-02   -0.11255E-02  5045   0.626E-02    0.252E-01
RMM:   4    -0.413270096473E+03   -0.57145E-01   -0.66027E-02  5127   0.214E-01    0.995E-01
RMM:   5    -0.413210948439E+03    0.59148E-01   -0.28544E-02  4770   0.168E-01    0.624E-02
RMM:   6    -0.413211125093E+03   -0.17665E-03   -0.47066E-03  5795   0.646E-02    0.346E-02
RMM:   7    -0.413211144075E+03   -0.18983E-04   -0.57592E-04  5857   0.210E-02    0.226E-02
RMM:   8    -0.413211144950E+03   -0.87445E-06   -0.13016E-04  5275   0.112E-02    0.139E-02
RMM:   9    -0.413211131254E+03    0.13696E-04   -0.27152E-05  4652   0.610E-03    0.614E-03
RMM:  10    -0.413211127186E+03    0.40679E-05   -0.59638E-06  3020   0.303E-03    0.387E-03
RMM:  11    -0.413211123690E+03    0.34956E-05   -0.15333E-06  2507   0.204E-03    0.226E-03
RMM:  12    -0.413211117515E+03    0.61756E-05   -0.11051E-06  2481   0.178E-03    0.755E-04
RMM:  13    -0.413211114078E+03    0.34367E-05   -0.52297E-07  2362   0.125E-03    0.444E-04
RMM:  14    -0.413211112711E+03    0.13667E-05   -0.25427E-07  1937   0.887E-04    0.313E-04
RMM:  15    -0.413211110012E+03    0.26998E-05   -0.14184E-07  1419   0.720E-04    0.134E-04
RMM:  16    -0.413211106743E+03    0.32681E-05   -0.98763E-08  1190   0.668E-04    0.112E-04
RMM:  17    -0.413211104690E+03    0.20529E-05   -0.64387E-08  1065   0.628E-04    0.743E-05
RMM:  18    -0.413211101933E+03    0.27573E-05   -0.58574E-08  1146   0.630E-04    0.483E-05
RMM:  19    -0.413211099777E+03    0.21562E-05   -0.44871E-08  1106   0.613E-04    0.332E-05
RMM:  20    -0.413211099211E+03    0.56579E-06   -0.22948E-08   838   0.556E-04
   41 T=    70. E= -.41286648E+03 F= -.41321110E+03 E0= -.41319003E+03  EK= 0.34462E+00 SP= 0.00E+00 SK= 0.00E+00
       N       E                     dE             d eps       ncg     rms          rms(c)
RMM:   1    -0.413222207274E+03   -0.11107E-01   -0.11352E+01  4312   0.122E+00    0.969E-01
RMM:   2    -0.413217084218E+03    0.51231E-02   -0.15085E-01  4303   0.135E-01    0.686E-01
RMM:   3    -0.413217438565E+03   -0.35435E-03   -0.14468E-02  5080   0.757E-02    0.295E-01
RMM:   4    -0.413253837654E+03   -0.36399E-01   -0.52426E-02  5091   0.193E-01    0.826E-01
RMM:   5    -0.413213702747E+03    0.40135E-01   -0.17778E-02  4736   0.137E-01    0.588E-02
RMM:   6    -0.413213771233E+03   -0.68486E-04   -0.31193E-03  5753   0.531E-02    0.337E-02
RMM:   7    -0.413213777538E+03   -0.63045E-05   -0.43842E-04  5752   0.191E-02    0.217E-02
RMM:   8    -0.413213773642E+03    0.38956E-05   -0.11768E-04  5197   0.110E-02    0.122E-02
RMM:   9    -0.413213759777E+03    0.13866E-04   -0.19777E-05  4424   0.553E-03    0.507E-03
RMM:  10    -0.413213754514E+03    0.52627E-05   -0.41827E-06  2828   0.263E-03    0.321E-03
RMM:  11    -0.413213749137E+03    0.53765E-05   -0.11918E-06  2492   0.185E-03    0.174E-03
RMM:  12    -0.413213741058E+03    0.80793E-05   -0.77997E-07  2460   0.153E-03    0.658E-04
RMM:  13    -0.413213736639E+03    0.44186E-05   -0.37691E-07  2183   0.107E-03    0.324E-04
RMM:  14    -0.413213734442E+03    0.21972E-05   -0.19891E-07  1700   0.800E-04    0.217E-04
RMM:  15    -0.413213729288E+03    0.51546E-05   -0.12832E-07  1342   0.709E-04    0.128E-04
RMM:  16    -0.413213726476E+03    0.28114E-05   -0.81489E-08  1133   0.648E-04    0.966E-05
RMM:  17    -0.413213723424E+03    0.30522E-05   -0.64058E-08  1122   0.633E-04    0.654E-05
RMM:  18    -0.413213720305E+03    0.31188E-05   -0.55058E-08  1162   0.620E-04    0.417E-05
RMM:  19    -0.413213718147E+03    0.21583E-05   -0.39624E-08  1048   0.587E-04    0.292E-05
RMM:  20    -0.413213717653E+03    0.49410E-06   -0.18921E-08   762   0.540E-04
   42 T=    71. E= -.41286671E+03 F= -.41321372E+03 E0= -.41319267E+03  EK= 0.34701E+00 SP= 0.00E+00 SK= 0.00E+00
       N       E                     dE             d eps       ncg     rms          rms(c)
RMM:   1    -0.413239030878E+03   -0.25313E-01   -0.11437E+01  4312   0.136E+00    0.946E-01
RMM:   2    -0.413219291149E+03    0.19740E-01   -0.16615E-01  4304   0.148E-01    0.687E-01
RMM:   3    -0.413220332188E+03   -0.10410E-02   -0.14400E-02  5092   0.808E-02    0.326E-01
RMM:   4    -0.413255663471E+03   -0.35331E-01   -0.54034E-02  5088   0.196E-01    0.824E-01
RMM:   5    -0.413215793940E+03    0.39870E-01   -0.17450E-02  4726   0.137E-01    0.597E-02
RMM:   6    -0.413215856325E+03   -0.62385E-04   -0.30625E-03  5754   0.527E-02    0.334E-02
RMM:   7    -0.413215861998E+03   -0.56726E-05   -0.43320E-04  5782   0.189E-02    0.221E-02
RMM:   8    -0.413215858583E+03    0.34149E-05   -0.11609E-04  5196   0.110E-02    0.117E-02
RMM:   9    -0.413215846535E+03    0.12048E-04   -0.20157E-05  4439   0.556E-03    0.461E-03
RMM:  10    -0.413215843044E+03    0.34903E-05   -0.40536E-06  2802   0.257E-03    0.293E-03
RMM:  11    -0.413215838770E+03    0.42749E-05   -0.12577E-06  2495   0.184E-03    0.158E-03
RMM:  12    -0.413215833242E+03    0.55279E-05   -0.71773E-07  2439   0.144E-03    0.585E-04
RMM:  13    -0.413215830125E+03    0.31162E-05   -0.35243E-07  2059   0.101E-03    0.282E-04
RMM:  14    -0.413215827992E+03    0.21340E-05   -0.19298E-07  1562   0.783E-04    0.179E-04
RMM:  15    -0.413215823717E+03    0.42741E-05   -0.13743E-07  1292   0.713E-04    0.110E-04
RMM:  16    -0.413215821828E+03    0.18899E-05   -0.85571E-08  1120   0.655E-04    0.766E-05
RMM:  17    -0.413215819181E+03    0.26467E-05   -0.70606E-08  1158   0.648E-04    0.507E-05
RMM:  18    -0.413215816728E+03    0.24532E-05   -0.57602E-08  1142   0.621E-04    0.368E-05
RMM:  19    -0.413215815333E+03    0.13950E-05   -0.35586E-08   934   0.576E-04    0.208E-05
RMM:  20    -0.413215814741E+03    0.59167E-06   -0.20478E-08   776   0.548E-04
   43 T=    71. E= -.41286679E+03 F= -.41321581E+03 E0= -.41319480E+03  EK= 0.34902E+00 SP= 0.00E+00 SK= 0.00E+00
       N       E                     dE             d eps       ncg     rms          rms(c)
RMM:   1    -0.413234964099E+03   -0.19149E-01   -0.11478E+01  4312   0.138E+00    0.948E-01
RMM:   2    -0.413220961172E+03    0.14003E-01   -0.17220E-01  4299   0.163E-01    0.701E-01
RMM:   3    -0.413222728308E+03   -0.17671E-02   -0.15661E-02  5079   0.892E-02    0.357E-01
RMM:   4    -0.413256117057E+03   -0.33389E-01   -0.55392E-02  5070   0.200E-01    0.815E-01
RMM:   5    -0.413217091387E+03    0.39026E-01   -0.16652E-02  4717   0.136E-01    0.603E-02
RMM:   6    -0.413217135060E+03   -0.43673E-04   -0.29282E-03  5726   0.516E-02    0.330E-02
RMM:   7    -0.413217139977E+03   -0.49174E-05   -0.41372E-04  5797   0.187E-02    0.221E-02
RMM:   8    -0.413217138327E+03    0.16502E-05   -0.10993E-04  5174   0.108E-02    0.112E-02
RMM:   9    -0.413217128418E+03    0.99091E-05   -0.20048E-05  4431   0.554E-03    0.436E-03
RMM:  10    -0.413217126100E+03    0.23182E-05   -0.37849E-06  2773   0.251E-03    0.271E-03
RMM:  11    -0.413217122867E+03    0.32327E-05   -0.13499E-06  2511   0.185E-03    0.148E-03
RMM:  12    -0.413217119052E+03    0.38145E-05   -0.69061E-07  2432   0.140E-03    0.587E-04
RMM:  13    -0.413217116724E+03    0.23286E-05   -0.34305E-07  1970   0.973E-04    0.271E-04
RMM:  14    -0.413217114772E+03    0.19517E-05   -0.19645E-07  1494   0.775E-04    0.163E-04
RMM:  15    -0.413217111531E+03    0.32414E-05   -0.14632E-07  1300   0.714E-04    0.979E-05
RMM:  16    -0.413217109866E+03    0.16642E-05   -0.90744E-08  1116   0.657E-04    0.711E-05
RMM:  17    -0.413217107362E+03    0.25043E-05   -0.80568E-08  1211   0.653E-04    0.447E-05
RMM:  18    -0.413217105538E+03    0.18245E-05   -0.53124E-08  1029   0.608E-04    0.343E-05
RMM:  19    -0.413217104398E+03    0.11394E-05   -0.34333E-08   911   0.578E-04    0.216E-05
RMM:  20    -0.413217103949E+03    0.44958E-06   -0.20724E-08   763   0.551E-04
   44 T=    71. E= -.41286657E+03 F= -.41321710E+03 E0= -.41319611E+03  EK= 0.35053E+00 SP= 0.00E+00 SK= 0.00E+00
       N       E                     dE             d eps       ncg     rms          rms(c)
RMM:   1    -0.413251734754E+03   -0.34630E-01   -0.11613E+01  4311   0.153E+00    0.975E-01
RMM:   2    -0.413221919958E+03    0.29815E-01   -0.16897E-01  4341   0.170E-01    0.696E-01
RMM:   3    -0.413228615769E+03   -0.66958E-02   -0.19983E-02  5119   0.108E-01    0.454E-01
RMM:   4    -0.413241871711E+03   -0.13256E-01   -0.44233E-02  5039   0.182E-01    0.638E-01
RMM:   5    -0.413218722431E+03    0.23149E-01   -0.87123E-03  4640   0.107E-01    0.564E-02
RMM:   6    -0.413218697972E+03    0.24459E-04   -0.17869E-03  5571   0.407E-02    0.320E-02
RMM:   7    -0.413218695353E+03    0.26189E-05   -0.30058E-04  5609   0.168E-02    0.213E-02
RMM:   8    -0.413218687802E+03    0.75511E-05   -0.11010E-04  5070   0.109E-02    0.997E-03
RMM:   9    -0.413218675182E+03    0.12620E-04   -0.15152E-05  4241   0.530E-03    0.408E-03
RMM:  10    -0.413218671328E+03    0.38542E-05   -0.25684E-06  2682   0.224E-03    0.238E-03
RMM:  11    -0.413218664979E+03    0.63486E-05   -0.11310E-06  2482   0.175E-03    0.129E-03
RMM:  12    -0.413218658876E+03    0.61034E-05   -0.57024E-07  2408   0.131E-03    0.602E-04
RMM:  13    -0.413218655353E+03    0.35224E-05   -0.26841E-07  1832   0.896E-04    0.289E-04
RMM:  14    -0.413218651986E+03    0.33672E-05   -0.15260E-07  1355   0.719E-04    0.156E-04
RMM:  15    -0.413218646887E+03    0.50993E-05   -0.12313E-07  1277   0.694E-04    0.121E-04
RMM:  16    -0.413218644362E+03    0.25245E-05   -0.76998E-08  1093   0.635E-04    0.959E-05
RMM:  17    -0.413218639791E+03    0.45709E-05   -0.79148E-08  1284   0.650E-04    0.659E-05
RMM:  18    -0.413218637595E+03    0.21963E-05   -0.47298E-08  1041   0.581E-04    0.420E-05
RMM:  19    -0.413218636532E+03    0.10628E-05   -0.29911E-08   863   0.541E-04    0.257E-05
RMM:  20    -0.413218635950E+03    0.58188E-06   -0.18709E-08   736   0.521E-04
   45 T=    72. E= -.41286688E+03 F= -.41321864E+03 E0= -.41319767E+03  EK= 0.35176E+00 SP= 0.00E+00 SK= 0.00E+00
       N       E                     dE             d eps       ncg     rms          rms(c)
RMM:   1    -0.413256049866E+03   -0.37413E-01   -0.11532E+01  4309   0.162E+00    0.957E-01
RMM:   2    -0.413222027559E+03    0.34022E-01   -0.17920E-01  4377   0.184E-01    0.692E-01
RMM:   3    -0.413231386437E+03   -0.93589E-02   -0.21497E-02  5121   0.117E-01    0.512E-01
RMM:   4    -0.413238008897E+03   -0.66225E-02   -0.42726E-02  5026   0.180E-01    0.587E-01
RMM:   5    -0.413218802557E+03    0.19206E-01   -0.71663E-03  4596   0.101E-01    0.561E-02
RMM:   6    -0.413218754660E+03    0.47898E-04   -0.14214E-03  5425   0.371E-02    0.310E-02
RMM:   7    -0.413218752882E+03    0.17780E-05   -0.24697E-04  5590   0.155E-02    0.209E-02
RMM:   8    -0.413218745632E+03    0.72501E-05   -0.12002E-04  5081   0.113E-02    0.101E-02
RMM:   9    -0.413218732226E+03    0.13406E-04   -0.16027E-05  4314   0.551E-03    0.406E-03
RMM:  10    -0.413218729135E+03    0.30907E-05   -0.27288E-06  2693   0.221E-03    0.233E-03
RMM:  11    -0.413218723093E+03    0.60422E-05   -0.12215E-06  2485   0.180E-03    0.126E-03
RMM:  12    -0.413218718416E+03    0.46766E-05   -0.55407E-07  2411   0.130E-03    0.665E-04
RMM:  13    -0.413218714971E+03    0.34457E-05   -0.25906E-07  1773   0.886E-04    0.323E-04
RMM:  14    -0.413218711577E+03    0.33942E-05   -0.14149E-07  1300   0.704E-04    0.168E-04
RMM:  15    -0.413218707571E+03    0.40053E-05   -0.10770E-07  1217   0.668E-04    0.116E-04
RMM:  16    -0.413218705086E+03    0.24857E-05   -0.69924E-08  1065   0.620E-04    0.101E-04
RMM:  17    -0.413218701480E+03    0.36052E-05   -0.66729E-08  1180   0.627E-04    0.610E-05
RMM:  18    -0.413218698974E+03    0.25068E-05   -0.46967E-08  1050   0.586E-04    0.481E-05
RMM:  19    -0.413218698222E+03    0.75130E-06   -0.23253E-08   789   0.532E-04
   46 T=    72. E= -.41286667E+03 F= -.41321870E+03 E0= -.41319774E+03  EK= 0.35203E+00 SP= 0.00E+00 SK= 0.00E+00
       N       E                     dE             d eps       ncg     rms          rms(c)
RMM:   1    -0.413242366950E+03   -0.23668E-01   -0.11404E+01  4310   0.164E+00    0.943E-01
RMM:   2    -0.413222019172E+03    0.20348E-01   -0.18913E-01  4370   0.197E-01    0.705E-01
RMM:   3    -0.413232058866E+03   -0.10040E-01   -0.22165E-02  5119   0.124E-01    0.536E-01
RMM:   4    -0.413238686767E+03   -0.66279E-02   -0.45713E-02  5023   0.187E-01    0.604E-01
RMM:   5    -0.413218236606E+03    0.20450E-01   -0.77075E-03  4589   0.105E-01    0.583E-02
RMM:   6    -0.413218176641E+03    0.59965E-04   -0.14812E-03  5417   0.380E-02    0.313E-02
RMM:   7    -0.413218174340E+03    0.23009E-05   -0.25306E-04  5637   0.156E-02    0.218E-02
RMM:   8    -0.413218167977E+03    0.63627E-05   -0.12330E-04  5119   0.114E-02    0.102E-02
RMM:   9    -0.413218155949E+03    0.12028E-04   -0.17905E-05  4377   0.573E-03    0.408E-03
RMM:  10    -0.413218153936E+03    0.20132E-05   -0.29985E-06  2736   0.226E-03    0.236E-03
RMM:  11    -0.413218149819E+03    0.41167E-05   -0.13627E-06  2503   0.186E-03    0.132E-03
RMM:  12    -0.413218146833E+03    0.29867E-05   -0.58324E-07  2429   0.134E-03    0.707E-04
RMM:  13    -0.413218144170E+03    0.26624E-05   -0.29228E-07  1825   0.927E-04    0.340E-04
RMM:  14    -0.413218141690E+03    0.24807E-05   -0.16276E-07  1366   0.735E-04    0.175E-04
RMM:  15    -0.413218139052E+03    0.26374E-05   -0.11955E-07  1229   0.682E-04    0.109E-04
RMM:  16    -0.413218137068E+03    0.19847E-05   -0.82155E-08  1142   0.636E-04    0.969E-05
RMM:  17    -0.413218134754E+03    0.23136E-05   -0.70656E-08  1182   0.620E-04    0.519E-05
RMM:  18    -0.413218132681E+03    0.20734E-05   -0.50759E-08  1017   0.585E-04    0.418E-05
RMM:  19    -0.413218132171E+03    0.50935E-06   -0.24452E-08   768   0.533E-04
   47 T=    72. E= -.41286665E+03 F= -.41321813E+03 E0= -.41319719E+03  EK= 0.35149E+00 SP= 0.00E+00 SK= 0.00E+00
       N       E                     dE             d eps       ncg     rms          rms(c)
RMM:   1    -0.413248347131E+03   -0.30214E-01   -0.11390E+01  4305   0.177E+00    0.967E-01
RMM:   2    -0.413220284650E+03    0.28062E-01   -0.18306E-01  4422   0.204E-01    0.701E-01
RMM:   3    -0.413238372761E+03   -0.18088E-01   -0.29525E-02  5143   0.147E-01    0.650E-01
RMM:   4    -0.413228888144E+03    0.94846E-02   -0.41691E-02  4984   0.182E-01    0.475E-01
RMM:   5    -0.413216871029E+03    0.12017E-01   -0.47144E-03  4528   0.907E-02    0.577E-02
RMM:   6    -0.413216754279E+03    0.11675E-03   -0.65608E-04  4873   0.296E-02    0.302E-02
RMM:   7    -0.413216745224E+03    0.90552E-05   -0.17449E-04  5913   0.130E-02    0.128E-02
RMM:   8    -0.413216737670E+03    0.75537E-05   -0.54441E-05  5169   0.882E-03    0.933E-03
RMM:   9    -0.413216733120E+03    0.45501E-05   -0.13964E-05  4149   0.450E-03    0.392E-03
RMM:  10    -0.413216729643E+03    0.34772E-05   -0.20714E-06  2567   0.232E-03    0.234E-03
RMM:  11    -0.413216724105E+03    0.55376E-05   -0.15534E-06  2476   0.204E-03    0.149E-03
RMM:  12    -0.413216720222E+03    0.38830E-05   -0.58374E-07  2395   0.141E-03    0.877E-04
RMM:  13    -0.413216716472E+03    0.37504E-05   -0.25824E-07  1945   0.920E-04    0.475E-04
RMM:  14    -0.413216710806E+03    0.56662E-05   -0.22704E-07  1853   0.838E-04    0.460E-04
RMM:  15    -0.413216706998E+03    0.38073E-05   -0.10048E-07  1035   0.610E-04    0.176E-04
RMM:  16    -0.413216705175E+03    0.18236E-05   -0.63993E-08   960   0.582E-04    0.916E-05
RMM:  17    -0.413216701805E+03    0.33693E-05   -0.65873E-08  1069   0.605E-04    0.106E-04
RMM:  18    -0.413216700492E+03    0.13136E-05   -0.33127E-08   814   0.545E-04    0.717E-05
RMM:  19    -0.413216699764E+03    0.72770E-06   -0.20260E-08   701   0.518E-04
   48 T=    71. E= -.41286688E+03 F= -.41321670E+03 E0= -.41319577E+03  EK= 0.34982E+00 SP= 0.00E+00 SK= 0.00E+00
       N       E                     dE             d eps       ncg     rms          rms(c)
RMM:   1    -0.413250392125E+03   -0.33692E-01   -0.11229E+01  4304   0.190E+00    0.959E-01
RMM:   2    -0.413216515217E+03    0.33877E-01   -0.18339E-01  4482   0.217E-01    0.691E-01
RMM:   3    -0.413241886604E+03   -0.25371E-01   -0.35574E-02  5156   0.164E-01    0.741E-01
RMM:   4    -0.413221300305E+03    0.20586E-01   -0.40837E-02  4951   0.183E-01    0.403E-01
RMM:   5    -0.413213282759E+03    0.80175E-02   -0.44091E-03  4626   0.892E-02    0.651E-02
RMM:   6    -0.413213090839E+03    0.19192E-03   -0.46750E-04  4669   0.293E-02    0.333E-02
RMM:   7    -0.413213101212E+03   -0.10373E-04   -0.28514E-04  5742   0.177E-02    0.244E-02
RMM:   8    -0.413213067499E+03    0.33713E-04   -0.98325E-05  5005   0.113E-02    0.925E-03
RMM:   9    -0.413213060588E+03    0.69117E-05   -0.19088E-05  4731   0.552E-03    0.468E-03
RMM:  10    -0.413213056281E+03    0.43065E-05   -0.23600E-06  2634   0.241E-03    0.260E-03
RMM:  11    -0.413213050128E+03    0.61532E-05   -0.12621E-06  2496   0.187E-03    0.175E-03
RMM:  12    -0.413213046406E+03    0.37214E-05   -0.40979E-07  2384   0.119E-03    0.911E-04
RMM:  13    -0.413213041582E+03    0.48242E-05   -0.28689E-07  2037   0.904E-04    0.445E-04
RMM:  14    -0.413213036702E+03    0.48800E-05   -0.19650E-07  1663   0.761E-04    0.342E-04
RMM:  15    -0.413213031994E+03    0.47083E-05   -0.12569E-07  1176   0.649E-04    0.140E-04
RMM:  16    -0.413213029434E+03    0.25598E-05   -0.75978E-08  1093   0.603E-04    0.909E-05
RMM:  17    -0.413213025841E+03    0.35931E-05   -0.76753E-08  1210   0.618E-04    0.776E-05
RMM:  18    -0.413213024760E+03    0.10811E-05   -0.37228E-08   921   0.545E-04    0.608E-05
RMM:  19    -0.413213023186E+03    0.15742E-05   -0.31759E-08   919   0.541E-04    0.298E-05
RMM:  20    -0.413213022341E+03    0.84517E-06   -0.21934E-08   809   0.514E-04
   49 T=    71. E= -.41286659E+03 F= -.41321302E+03 E0= -.41319210E+03  EK= 0.34643E+00 SP= 0.00E+00 SK= 0.00E+00
       N       E                     dE             d eps       ncg     rms          rms(c)
RMM:   1    -0.413236130925E+03   -0.23108E-01   -0.10962E+01  4303   0.195E+00    0.930E-01
RMM:   2    -0.413212548610E+03    0.23582E-01   -0.18349E-01  4506   0.224E-01    0.695E-01
RMM:   3    -0.413238594676E+03   -0.26046E-01   -0.36168E-02  5155   0.168E-01    0.758E-01
RMM:   4    -0.413216955284E+03    0.21639E-01   -0.42211E-02  4950   0.188E-01    0.404E-01
RMM:   5    -0.413208759661E+03    0.81956E-02   -0.48652E-03  4689   0.931E-02    0.695E-02
RMM:   6    -0.413208527158E+03    0.23250E-03   -0.49619E-04  4645   0.310E-02    0.341E-02
RMM:   7    -0.413208533895E+03   -0.67370E-05   -0.28405E-04  5754   0.178E-02    0.245E-02
RMM:   8    -0.413208502102E+03    0.31793E-04   -0.95946E-05  5041   0.110E-02    0.993E-03
RMM:   9    -0.413208496279E+03    0.58234E-05   -0.19905E-05  4753   0.565E-03    0.463E-03
RMM:  10    -0.413208492810E+03    0.34692E-05   -0.27326E-06  2661   0.249E-03    0.266E-03
RMM:  11    -0.413208488495E+03    0.43149E-05   -0.11277E-06  2492   0.179E-03    0.171E-03
RMM:  12    -0.413208485784E+03    0.27106E-05   -0.40062E-07  2376   0.115E-03    0.897E-04
RMM:  13    -0.413208482107E+03    0.36771E-05   -0.35776E-07  2210   0.965E-04    0.499E-04
RMM:  14    -0.413208479206E+03    0.29009E-05   -0.19437E-07  1476   0.742E-04    0.318E-04
RMM:  15    -0.413208475836E+03    0.33706E-05   -0.16270E-07  1250   0.697E-04    0.148E-04
RMM:  16    -0.413208474009E+03    0.18261E-05   -0.96398E-08  1182   0.638E-04    0.960E-05
RMM:  17    -0.413208471411E+03    0.25984E-05   -0.11028E-07  1354   0.654E-04    0.819E-05
RMM:  18    -0.413208470674E+03    0.73703E-06   -0.48225E-08   966   0.545E-04
   50 T=    70. E= -.41286692E+03 F= -.41320847E+03 E0= -.41318755E+03  EK= 0.34155E+00 SP= 0.00E+00 SK= 0.00E+00
       N       E                     dE             d eps       ncg     rms          rms(c)
[...]
RMM:   7    -0.413916970323E+03    0.50468E-03   -0.25254E-03  5260   0.658E-02    0.747E-02
RMM:   8    -0.413916947028E+03    0.23295E-04   -0.84112E-04  5385   0.369E-02    0.451E-02
RMM:   9    -0.413916940677E+03    0.63517E-05   -0.24965E-04  5197   0.196E-02    0.234E-02
RMM:  10    -0.413916938619E+03    0.20574E-05   -0.95008E-05  5717   0.112E-02    0.106E-02
RMM:  11    -0.413916944041E+03   -0.54213E-05   -0.28767E-05  5043   0.624E-03    0.661E-03
RMM:  12    -0.413916949231E+03   -0.51901E-05   -0.65688E-06  3300   0.375E-03    0.370E-03
RMM:  13    -0.413916951257E+03   -0.20266E-05   -0.16587E-06  2604   0.212E-03    0.141E-03
RMM:  14    -0.413916953957E+03   -0.26992E-05   -0.11072E-06  2532   0.159E-03    0.669E-04
RMM:  15    -0.413916956134E+03   -0.21776E-05   -0.65622E-07  2250   0.119E-03    0.428E-04
RMM:  16    -0.413916957559E+03   -0.14250E-05   -0.39304E-07  1765   0.906E-04    0.232E-04
RMM:  17    -0.413916958923E+03   -0.13642E-05   -0.34632E-07  1708   0.859E-04    0.144E-04
RMM:  18    -0.413916960146E+03   -0.12228E-05   -0.31235E-07  1668   0.801E-04    0.133E-04
RMM:  19    -0.413916960617E+03   -0.47081E-06   -0.14802E-07  1218   0.636E-04
  140 T=   210. E= -.41288698E+03 F= -.41391696E+03 E0= -.41389442E+03  EK= 0.10300E+01 SP= 0.00E+00 SK= 0.00E+00
       N       E                     dE             d eps       ncg     rms          rms(c)
RMM:   1    -0.414228580367E+03   -0.31162E+00   -0.26351E+01  4293   0.921E+00    0.159E+00
RMM:   2    -0.413995731556E+03    0.23285E+00   -0.71643E-01  5419   0.992E-01    0.137E+00
RMM:   3    -0.414053787882E+03   -0.58056E-01   -0.19595E-01  5568   0.476E-01    0.161E+00
RMM:   4    -0.413971866602E+03    0.81921E-01   -0.10555E-01  5127   0.379E-01    0.668E-01
RMM:   5    -0.413968902146E+03    0.29645E-02   -0.74113E-02  4958   0.345E-01    0.358E-01
RMM:   6    -0.413965696201E+03    0.32059E-02   -0.26878E-02  5205   0.202E-01    0.217E-01
RMM:   7    -0.413963854718E+03    0.18415E-02   -0.32511E-03  4528   0.865E-02    0.100E-01
RMM:   8    -0.413963818748E+03    0.35971E-04   -0.27101E-03  5629   0.610E-02    0.519E-02
RMM:   9    -0.413963799789E+03    0.18958E-04   -0.50072E-04  5334   0.276E-02    0.330E-02
RMM:  10    -0.413963781358E+03    0.18431E-04   -0.14481E-04  5573   0.151E-02    0.139E-02
RMM:  11    -0.413963792221E+03   -0.10863E-04   -0.55379E-05  5569   0.857E-03    0.896E-03
RMM:  12    -0.413963801041E+03   -0.88204E-05   -0.12392E-05  4104   0.485E-03    0.391E-03
RMM:  13    -0.413963805566E+03   -0.45246E-05   -0.31923E-06  2795   0.257E-03    0.175E-03
RMM:  14    -0.413963809613E+03   -0.40467E-05   -0.16359E-06  2597   0.188E-03    0.881E-04
RMM:  15    -0.413963812271E+03   -0.26580E-05   -0.10630E-06  2478   0.148E-03    0.577E-04
RMM:  16    -0.413963813988E+03   -0.17172E-05   -0.83211E-07  2163   0.117E-03    0.347E-04
RMM:  17    -0.413963814565E+03   -0.57767E-06   -0.70123E-07  2022   0.106E-03
  141 T=   220. E= -.41288524E+03 F= -.41396381E+03 E0= -.41394200E+03  EK= 0.10786E+01 SP= 0.00E+00 SK= 0.00E+00
       N       E                     dE             d eps       ncg     rms          rms(c)
RMM:   1    -0.414059733883E+03   -0.95920E-01   -0.23941E+01  4297   0.903E+00    0.119E+00
RMM:   2    -0.413899024399E+03    0.16071E+00   -0.66587E-01  5397   0.963E-01    0.115E+00
RMM:   3    -0.413919519655E+03   -0.20495E-01   -0.13114E-01  5689   0.392E-01    0.123E+00
RMM:   4    -0.413878657187E+03    0.40862E-01   -0.46017E-02  5158   0.253E-01    0.660E-01
RMM:   5    -0.413878876919E+03   -0.21973E-03   -0.47778E-02  4923   0.273E-01    0.407E-01
RMM:   6    -0.413876817836E+03    0.20591E-02   -0.33100E-02  5162   0.214E-01    0.224E-01
RMM:   7    -0.413874844551E+03    0.19733E-02   -0.46786E-03  5019   0.976E-02    0.130E-01
RMM:   8    -0.413874514068E+03    0.33048E-03   -0.18994E-03  5556   0.521E-02    0.651E-02
RMM:   9    -0.413874490823E+03    0.23244E-04   -0.10770E-03  4762   0.383E-02    0.233E-02
RMM:  10    -0.413874499171E+03   -0.83479E-05   -0.12817E-04  5643   0.148E-02    0.137E-02
RMM:  11    -0.413874513258E+03   -0.14087E-04   -0.40495E-05  4863   0.843E-03    0.877E-03
RMM:  12    -0.413874526085E+03   -0.12827E-04   -0.11216E-05  3746   0.455E-03    0.463E-03
RMM:  13    -0.413874533207E+03   -0.71224E-05   -0.63492E-06  3223   0.333E-03    0.214E-03
RMM:  14    -0.413874537905E+03   -0.46978E-05   -0.24715E-06  2698   0.232E-03    0.150E-03
RMM:  15    -0.413874540899E+03   -0.29938E-05   -0.17140E-06  2588   0.177E-03    0.887E-04
RMM:  16    -0.413874542186E+03   -0.12869E-05   -0.13730E-06  2399   0.144E-03    0.434E-04
RMM:  17    -0.413874541640E+03    0.54533E-06   -0.12646E-06  2334   0.132E-03
  142 T=   203. E= -.41287517E+03 F= -.41387454E+03 E0= -.41385337E+03  EK= 0.99937E+00 SP= 0.00E+00 SK= 0.00E+00
       N       E                     dE             d eps       ncg     rms          rms(c)
RMM:   1    -0.413884390894E+03   -0.98487E-02   -0.20832E+01  4297   0.861E+00    0.107E+00
RMM:   2    -0.413783623318E+03    0.10077E+00   -0.57599E-01  5374   0.887E-01    0.102E+00
RMM:   3    -0.413809668111E+03   -0.26045E-01   -0.10848E-01  5771   0.349E-01    0.113E+00
RMM:   4    -0.413774466173E+03    0.35202E-01   -0.38281E-02  5166   0.224E-01    0.629E-01
RMM:   5    -0.413773142318E+03    0.13239E-02   -0.39197E-02  4875   0.246E-01    0.359E-01
RMM:   6    -0.413772354907E+03    0.78741E-03   -0.26848E-02  5294   0.188E-01    0.203E-01
RMM:   7    -0.413770731537E+03    0.16234E-02   -0.39340E-03  5232   0.858E-02    0.137E-01
RMM:   8    -0.413770299547E+03    0.43199E-03   -0.15836E-03  5289   0.470E-02    0.697E-02
RMM:   9    -0.413770296245E+03    0.33017E-05   -0.13919E-03  4917   0.407E-02    0.227E-02
RMM:  10    -0.413770308384E+03   -0.12139E-04   -0.11546E-04  5527   0.141E-02    0.125E-02
RMM:  11    -0.413770324696E+03   -0.16312E-04   -0.40270E-05  4841   0.823E-03    0.775E-03
RMM:  12    -0.413770337648E+03   -0.12952E-04   -0.10736E-05  3639   0.436E-03    0.403E-03
RMM:  13    -0.413770345372E+03   -0.77242E-05   -0.59767E-06  3188   0.320E-03    0.221E-03
RMM:  14    -0.413770350421E+03   -0.50488E-05   -0.26623E-06  2730   0.237E-03    0.162E-03
RMM:  15    -0.413770353443E+03   -0.30219E-05   -0.19467E-06  2621   0.183E-03    0.971E-04
RMM:  16    -0.413770354569E+03   -0.11261E-05   -0.15605E-06  2430   0.150E-03    0.478E-04
RMM:  17    -0.413770353585E+03    0.98396E-06   -0.17477E-06  2529   0.152E-03
  143 T=   183. E= -.41287300E+03 F= -.41377035E+03 E0= -.41374956E+03  EK= 0.89736E+00 SP= 0.00E+00 SK= 0.00E+00
       N       E                     dE             d eps       ncg     rms          rms(c)
RMM:   1    -0.413775227194E+03   -0.48726E-02   -0.18474E+01  4296   0.818E+00    0.961E-01
RMM:   2    -0.413695630213E+03    0.79597E-01   -0.47627E-01  5365   0.817E-01    0.901E-01
RMM:   3    -0.413716472025E+03   -0.20842E-01   -0.82380E-02  5802   0.303E-01    0.944E-01
RMM:   4    -0.413695664182E+03    0.20808E-01   -0.32195E-02  5279   0.192E-01    0.609E-01
RMM:   5    -0.413691680882E+03    0.39833E-02   -0.31236E-02  4613   0.226E-01    0.280E-01
RMM:   6    -0.413691274523E+03    0.40636E-03   -0.13784E-02  5221   0.141E-01    0.159E-01
RMM:   7    -0.413690486999E+03    0.78752E-03   -0.22152E-03  5418   0.622E-02    0.120E-01
RMM:   8    -0.413690112549E+03    0.37445E-03   -0.10350E-03  4647   0.392E-02    0.603E-02
RMM:   9    -0.413690120444E+03   -0.78947E-05   -0.12147E-03  4990   0.382E-02    0.245E-02
RMM:  10    -0.413690115875E+03    0.45689E-05   -0.90304E-05  5079   0.134E-02    0.114E-02
RMM:  11    -0.413690127253E+03   -0.11378E-04   -0.37177E-05  4965   0.759E-03    0.646E-03
RMM:  12    -0.413690135911E+03   -0.86580E-05   -0.80588E-06  3356   0.375E-03    0.292E-03
RMM:  13    -0.413690140769E+03   -0.48580E-05   -0.35736E-06  2865   0.256E-03    0.228E-03
RMM:  14    -0.413690143787E+03   -0.30175E-05   -0.19658E-06  2637   0.207E-03    0.136E-03
RMM:  15    -0.413690145513E+03   -0.17260E-05   -0.13554E-06  2466   0.157E-03    0.753E-04
RMM:  16    -0.413690145939E+03   -0.42604E-06   -0.98603E-07  2304   0.130E-03
  144 T=   167. E= -.41287142E+03 F= -.41369015E+03 E0= -.41366941E+03  EK= 0.81873E+00 SP= 0.00E+00 SK= 0.00E+00
       N       E                     dE             d eps       ncg     rms          rms(c)
RMM:   1    -0.413727023389E+03   -0.36878E-01   -0.16908E+01  4294   0.787E+00    0.796E-01
RMM:   2    -0.413658334432E+03    0.68689E-01   -0.39281E-01  5348   0.763E-01    0.759E-01
RMM:   3    -0.413662299895E+03   -0.39655E-02   -0.54459E-02  5844   0.248E-01    0.626E-01
RMM:   4    -0.413670261493E+03   -0.79616E-02   -0.26659E-02  5435   0.157E-01    0.655E-01
RMM:   5    -0.413657181742E+03    0.13080E-01   -0.25606E-02  4523   0.206E-01    0.215E-01
RMM:   6    -0.413656801781E+03    0.37996E-03   -0.73572E-03  5181   0.109E-01    0.118E-01
RMM:   7    -0.413656563594E+03    0.23819E-03   -0.14141E-03  5750   0.447E-02    0.914E-02
RMM:   8    -0.413656363782E+03    0.19981E-03   -0.66049E-04  4888   0.314E-02    0.492E-02
RMM:   9    -0.413656345958E+03    0.17824E-04   -0.59168E-04  4761   0.291E-02    0.178E-02
RMM:  10    -0.413656353341E+03   -0.73826E-05   -0.76872E-05  5589   0.109E-02    0.113E-02
RMM:  11    -0.413656355684E+03   -0.23440E-05   -0.19037E-05  4479   0.587E-03    0.546E-03
RMM:  12    -0.413656359199E+03   -0.35146E-05   -0.44094E-06  3003   0.300E-03    0.303E-03
RMM:  13    -0.413656362699E+03   -0.34998E-05   -0.14063E-06  2571   0.193E-03    0.220E-03
RMM:  14    -0.413656364539E+03   -0.18403E-05   -0.15235E-06  2550   0.174E-03    0.809E-04
RMM:  15    -0.413656366092E+03   -0.15531E-05   -0.96507E-07  2343   0.142E-03    0.470E-04
RMM:  16    -0.413656366902E+03   -0.80968E-06   -0.63071E-07  2211   0.115E-03
  145 T=   160. E= -.41286997E+03 F= -.41365637E+03 E0= -.41363558E+03  EK= 0.78640E+00 SP= 0.00E+00 SK= 0.00E+00
       N       E                     dE             d eps       ncg     rms          rms(c)
RMM:   1    -0.413748726260E+03   -0.92360E-01   -0.16701E+01  4291   0.787E+00    0.718E-01
RMM:   2    -0.413686318767E+03    0.62407E-01   -0.35465E-01  5313   0.750E-01    0.681E-01
RMM:   3    -0.413687710937E+03   -0.13922E-02   -0.46893E-02  5827   0.228E-01    0.529E-01
RMM:   4    -0.413711873034E+03   -0.24162E-01   -0.34846E-02  5303   0.179E-01    0.733E-01
RMM:   5    -0.413686697754E+03    0.25175E-01   -0.28809E-02  4773   0.204E-01    0.205E-01
RMM:   6    -0.413685656180E+03    0.10416E-02   -0.64225E-03  5315   0.107E-01    0.100E-01
RMM:   7    -0.413685474675E+03    0.18150E-03   -0.10846E-03  5789   0.377E-02    0.666E-02
RMM:   8    -0.413685392965E+03    0.81710E-04   -0.58317E-04  4735   0.302E-02    0.252E-02
RMM:   9    -0.413685412522E+03   -0.19557E-04   -0.29241E-04  5580   0.194E-02    0.173E-02
RMM:  10    -0.413685403679E+03    0.88433E-05   -0.51422E-05  5383   0.898E-03    0.109E-02
RMM:  11    -0.413685405619E+03   -0.19404E-05   -0.15099E-05  4275   0.493E-03    0.598E-03
RMM:  12    -0.413685409414E+03   -0.37946E-05   -0.48160E-06  3047   0.318E-03    0.288E-03
RMM:  13    -0.413685412985E+03   -0.35713E-05   -0.15444E-06  2560   0.204E-03    0.155E-03
RMM:  14    -0.413685417056E+03   -0.40705E-05   -0.14775E-06  2542   0.184E-03    0.885E-04
RMM:  15    -0.413685420634E+03   -0.35786E-05   -0.80749E-07  2353   0.137E-03    0.529E-04
RMM:  16    -0.413685422212E+03   -0.15780E-05   -0.36675E-07  1881   0.948E-04    0.278E-04
RMM:  17    -0.413685424434E+03   -0.22221E-05   -0.31615E-07  1711   0.867E-04    0.158E-04
RMM:  18    -0.413685427010E+03   -0.25760E-05   -0.34579E-07  1851   0.853E-04    0.166E-04
RMM:  19    -0.413685427554E+03   -0.54380E-06   -0.13061E-07  1167   0.626E-04
  146 T=   166. E= -.41287109E+03 F= -.41368543E+03 E0= -.41366463E+03  EK= 0.81433E+00 SP= 0.00E+00 SK= 0.00E+00
       N       E                     dE             d eps       ncg     rms          rms(c)
RMM:   1    -0.413827486172E+03   -0.14206E+00   -0.18103E+01  4282   0.818E+00    0.775E-01
RMM:   2    -0.413753665955E+03    0.73820E-01   -0.37642E-01  5280   0.798E-01    0.718E-01
RMM:   3    -0.413756598878E+03   -0.29329E-02   -0.48422E-02  5836   0.239E-01    0.569E-01
RMM:   4    -0.413776669148E+03   -0.20070E-01   -0.34318E-02  5326   0.178E-01    0.730E-01
RMM:   5    -0.413754844361E+03    0.21825E-01   -0.30000E-02  4703   0.220E-01    0.204E-01
RMM:   6    -0.413753574860E+03    0.12695E-02   -0.62341E-03  5231   0.106E-01    0.939E-02
RMM:   7    -0.413753459864E+03    0.11500E-03   -0.14136E-03  5868   0.410E-02    0.658E-02
RMM:   8    -0.413753387125E+03    0.72740E-04   -0.51254E-04  5122   0.262E-02    0.371E-02
RMM:   9    -0.413753356451E+03    0.30673E-04   -0.33528E-04  4841   0.235E-02    0.160E-02
RMM:  10    -0.413753362156E+03   -0.57053E-05   -0.59237E-05  5524   0.966E-03    0.110E-02
RMM:  11    -0.413753364201E+03   -0.20445E-05   -0.15966E-05  4431   0.517E-03    0.643E-03
RMM:  12    -0.413753370926E+03   -0.67247E-05   -0.55011E-06  3193   0.341E-03    0.378E-03
RMM:  13    -0.413753377167E+03   -0.62416E-05   -0.18580E-06  2629   0.227E-03    0.179E-03
RMM:  14    -0.413753383339E+03   -0.61715E-05   -0.14150E-06  2545   0.178E-03    0.922E-04
RMM:  15    -0.413753391364E+03   -0.80255E-05   -0.12203E-06  2484   0.156E-03    0.590E-04
RMM:  16    -0.413753394943E+03   -0.35793E-05   -0.51905E-07  1945   0.998E-04    0.358E-04
RMM:  17    -0.413753400626E+03   -0.56831E-05   -0.66704E-07  2258   0.109E-03    0.252E-04
RMM:  18    -0.413753405275E+03   -0.46491E-05   -0.54114E-07  1760   0.900E-04    0.154E-04
RMM:  19    -0.413753407598E+03   -0.23224E-05   -0.25776E-07  1416   0.716E-04    0.894E-05
RMM:  20    -0.413753410241E+03   -0.26429E-05   -0.21275E-07  1441   0.686E-04    0.627E-05
RMM:  21    -0.413753411312E+03   -0.10715E-05   -0.97464E-08  1076   0.580E-04    0.389E-05
RMM:  22    -0.413753412566E+03   -0.12536E-05   -0.70469E-08  1062   0.562E-04    0.265E-05
RMM:  23    -0.413753412966E+03   -0.39980E-06   -0.36064E-08   919   0.533E-04
  147 T=   178. E= -.41287727E+03 F= -.41375341E+03 E0= -.41373257E+03  EK= 0.87614E+00 SP= 0.00E+00 SK= 0.00E+00
       N       E                     dE             d eps       ncg     rms          rms(c)
RMM:   1    -0.413871037133E+03   -0.11762E+00   -0.19885E+01  4274   0.852E+00    0.106E+00
RMM:   2    -0.413769581262E+03    0.10146E+00   -0.45037E-01  5239   0.871E-01    0.945E-01
RMM:   3    -0.413774767902E+03   -0.51866E-02   -0.56462E-02  5728   0.273E-01    0.676E-01
RMM:   4    -0.413838885088E+03   -0.64117E-01   -0.90107E-02  5243   0.283E-01    0.110E+00
RMM:   5    -0.413772564042E+03    0.66321E-01   -0.57051E-02  4945   0.284E-01    0.262E-01
RMM:   6    -0.413770119727E+03    0.24443E-02   -0.10991E-02  5312   0.134E-01    0.891E-02
RMM:   7    -0.413770150681E+03   -0.30954E-04   -0.29881E-03  6000   0.554E-02    0.657E-02
RMM:   8    -0.413770054011E+03    0.96670E-04   -0.64536E-04  5440   0.285E-02    0.374E-02
RMM:   9    -0.413770016691E+03    0.37320E-04   -0.28506E-04  4893   0.221E-02    0.140E-02
RMM:  10    -0.413770021012E+03   -0.43211E-05   -0.64435E-05  5708   0.944E-03    0.107E-02
RMM:  11    -0.413770023013E+03   -0.20005E-05   -0.16466E-05  4521   0.520E-03    0.611E-03
RMM:  12    -0.413770030589E+03   -0.75766E-05   -0.73994E-06  3565   0.378E-03    0.428E-03
RMM:  13    -0.413770037632E+03   -0.70430E-05   -0.22126E-06  2676   0.255E-03    0.166E-03
RMM:  14    -0.413770043457E+03   -0.58243E-05   -0.12977E-06  2553   0.172E-03    0.937E-04
RMM:  15    -0.413770051277E+03   -0.78203E-05   -0.12742E-06  2540   0.158E-03    0.617E-04
RMM:  16    -0.413770056059E+03   -0.47815E-05   -0.75311E-07  2122   0.112E-03    0.365E-04
RMM:  17    -0.413770060025E+03   -0.39665E-05   -0.57352E-07  1991   0.997E-04    0.239E-04
RMM:  18    -0.413770064399E+03   -0.43742E-05   -0.67140E-07  2108   0.999E-04    0.180E-04
RMM:  19    -0.413770067451E+03   -0.30515E-05   -0.40863E-07  1525   0.795E-04    0.919E-05
RMM:  20    -0.413770069491E+03   -0.20404E-05   -0.22532E-07  1376   0.699E-04    0.622E-05
RMM:  21    -0.413770070755E+03   -0.12642E-05   -0.11728E-07  1138   0.608E-04    0.420E-05
RMM:  22    -0.413770071688E+03   -0.93291E-06   -0.68331E-08  1019   0.572E-04
  148 T=   180. E= -.41288418E+03 F= -.41377007E+03 E0= -.41374919E+03  EK= 0.88589E+00 SP= 0.00E+00 SK= 0.00E+00
       N       E                     dE             d eps       ncg     rms          rms(c)
RMM:   1    -0.413756083170E+03    0.13988E-01   -0.18942E+01  4264   0.826E+00    0.125E+00
RMM:   2    -0.413660295831E+03    0.95787E-01   -0.49291E-01  5215   0.853E-01    0.106E+00
RMM:   3    -0.413705932926E+03   -0.45637E-01   -0.96819E-02  5619   0.347E-01    0.105E+00
RMM:   4    -0.413679363794E+03    0.26569E-01   -0.72123E-02  5165   0.280E-01    0.665E-01
RMM:   5    -0.413665161428E+03    0.14202E-01   -0.39883E-02  5222   0.252E-01    0.274E-01
RMM:   6    -0.413662186585E+03    0.29748E-02   -0.49148E-03  4473   0.108E-01    0.867E-02
RMM:   7    -0.413662222781E+03   -0.36196E-04   -0.35211E-03  5779   0.653E-02    0.477E-02
RMM:   8    -0.413662183199E+03    0.39582E-04   -0.45680E-04  5540   0.251E-02    0.334E-02
RMM:   9    -0.413662150995E+03    0.32204E-04   -0.18916E-04  5676   0.163E-02    0.145E-02
RMM:  10    -0.413662154116E+03   -0.31208E-05   -0.61984E-05  5855   0.844E-03    0.106E-02
RMM:  11    -0.413662151454E+03    0.26620E-05   -0.13875E-05  4282   0.521E-03    0.468E-03
RMM:  12    -0.413662155254E+03   -0.38002E-05   -0.54340E-06  3195   0.326E-03    0.331E-03
RMM:  13    -0.413662160310E+03   -0.50565E-05   -0.15664E-06  2581   0.226E-03    0.132E-03
RMM:  14    -0.413662164201E+03   -0.38909E-05   -0.79874E-07  2492   0.142E-03    0.726E-04
RMM:  15    -0.413662169456E+03   -0.52554E-05   -0.10059E-06  2459   0.141E-03    0.448E-04
RMM:  16    -0.413662172757E+03   -0.33001E-05   -0.59452E-07  1812   0.999E-04    0.261E-04
RMM:  17    -0.413662175928E+03   -0.31717E-05   -0.65593E-07  2257   0.108E-03    0.223E-04
RMM:  18    -0.413662177407E+03   -0.14789E-05   -0.28183E-07  1373   0.714E-04    0.194E-04
RMM:  19    -0.413662179295E+03   -0.18876E-05   -0.28540E-07  1495   0.754E-04    0.103E-04
RMM:  20    -0.413662179864E+03   -0.56884E-06   -0.11436E-07  1140   0.606E-04
  149 T=   161. E= -.41287190E+03 F= -.41366218E+03 E0= -.41364132E+03  EK= 0.79028E+00 SP= 0.00E+00 SK= 0.00E+00
       N       E                     dE             d eps       ncg     rms          rms(c)
RMM:   1    -0.413675963795E+03   -0.13785E-01   -0.15701E+01  4264   0.747E+00    0.952E-01
RMM:   2    -0.413617117072E+03    0.58847E-01   -0.44459E-01  5328   0.763E-01    0.797E-01
RMM:   3    -0.413643599151E+03   -0.26482E-01   -0.93931E-02  5568   0.329E-01    0.100E+00
RMM:   4    -0.413610636538E+03    0.32963E-01   -0.43840E-02  5203   0.254E-01    0.490E-01
RMM:   5    -0.413608787719E+03    0.18488E-02   -0.13592E-02  4686   0.164E-01    0.156E-01
RMM:   6    -0.413609464802E+03   -0.67708E-03   -0.98820E-03  5461   0.114E-01    0.133E-01
RMM:   7    -0.413608411955E+03    0.10528E-02   -0.26507E-03  5044   0.646E-02    0.481E-02
RMM:   8    -0.413608422335E+03   -0.10380E-04   -0.81187E-04  5865   0.323E-02    0.300E-02
RMM:   9    -0.413608416497E+03    0.58373E-05   -0.19163E-04  5531   0.168E-02    0.220E-02
RMM:  10    -0.413608401892E+03    0.14606E-04   -0.63169E-05  5236   0.102E-02    0.738E-03
RMM:  11    -0.413608403420E+03   -0.15286E-05   -0.27274E-05  5161   0.565E-03    0.696E-03
RMM:  12    -0.413608402073E+03    0.13475E-05   -0.40332E-06  2944   0.312E-03    0.272E-03
RMM:  13    -0.413608402481E+03   -0.40823E-06   -0.26330E-06  2733   0.233E-03
  150 T=   153. E= -.41285865E+03 F= -.41360840E+03 E0= -.41358759E+03  EK= 0.74975E+00 SP= 0.00E+00 SK= 0.00E+00
