       N       E                     dE             d eps       ncg     rms          rms(c)
RMM:   1     0.220131773535E+04    0.22013E+04   -0.52442E+04  2132   0.654E+02
RMM:   2     0.705302846305E+03   -0.14960E+04   -0.16260E+04  2132   0.177E+02
RMM:   3     0.137526408824E+03   -0.56778E+03   -0.65717E+03  2132   0.117E+02
RMM:   4    -0.159418581377E+03   -0.29694E+03   -0.27868E+03  2132   0.936E+01
RMM:   5    -0.287546062891E+03   -0.12813E+03   -0.11468E+03  2132   0.595E+01
RMM:   6    -0.349797476652E+03   -0.62251E+02   -0.55097E+02  2132   0.423E+01
RMM:   7    -0.382669807220E+03   -0.32872E+02   -0.30398E+02  2132   0.293E+01
RMM:   8    -0.404091379623E+03   -0.21422E+02   -0.18443E+02  2132   0.233E+01
RMM:   9    -0.435997008921E+03   -0.31906E+02   -0.30838E+02  6108   0.173E+01
RMM:  10    -0.441311261912E+03   -0.53143E+01   -0.63339E+01  6396   0.540E+00
RMM:  11    -0.442496779999E+03   -0.11855E+01   -0.11130E+01  6219   0.173E+00
RMM:  12    -0.442871204274E+03   -0.37442E+00   -0.26226E+00  6367   0.600E-01    0.134E+02
RMM:  13    -0.425630075156E+03    0.17241E+02   -0.81516E+01  4675   0.120E+01    0.712E+01
RMM:  14    -0.499704559059E+03   -0.74074E+02   -0.54505E+02  5420   0.233E+01    0.306E+01
RMM:  15    -0.413613921580E+03    0.86091E+02   -0.19449E+02  5052   0.163E+01    0.573E+00
RMM:  16    -0.414076101777E+03   -0.46218E+00   -0.39244E+01  6079   0.601E+00    0.429E+00
RMM:  17    -0.413230338666E+03    0.84576E+00   -0.22188E+00  5318   0.178E+00    0.249E+00
RMM:  18    -0.413160245393E+03    0.70093E-01   -0.99797E-01  5931   0.103E+00    0.155E+00
RMM:  19    -0.413168364619E+03   -0.81192E-02   -0.30800E-01  5747   0.577E-01    0.859E-01
RMM:  20    -0.413181210931E+03   -0.12846E-01   -0.16971E-01  5199   0.473E-01    0.505E-01
RMM:  21    -0.413167532434E+03    0.13678E-01   -0.35665E-02  5012   0.225E-01    0.237E-01
RMM:  22    -0.413166791130E+03    0.74130E-03   -0.12561E-02  6105   0.870E-02    0.166E-01
RMM:  23    -0.413164574300E+03    0.22168E-02   -0.66630E-03  5721   0.767E-02    0.811E-02
RMM:  24    -0.413163091473E+03    0.14828E-02   -0.24986E-03  5807   0.464E-02    0.351E-02
RMM:  25    -0.413162923131E+03    0.16834E-03   -0.80482E-04  5646   0.226E-02    0.282E-02
RMM:  26    -0.413163093481E+03   -0.17035E-03   -0.41700E-04  5593   0.214E-02    0.225E-02
RMM:  27    -0.413163575090E+03   -0.48161E-03   -0.19598E-04  4467   0.191E-02    0.136E-02
RMM:  28    -0.413164099561E+03   -0.52447E-03   -0.16420E-04  4637   0.196E-02    0.909E-03
RMM:  29    -0.413164434593E+03   -0.33503E-03   -0.11645E-04  4423   0.144E-02    0.335E-03
RMM:  30    -0.413164598461E+03   -0.16387E-03   -0.70180E-05  4255   0.860E-03    0.301E-03
RMM:  31    -0.413164676057E+03   -0.77596E-04   -0.37190E-05  3038   0.523E-03    0.172E-03
RMM:  32    -0.413164691804E+03   -0.15746E-04   -0.16658E-05  2911   0.256E-03    0.936E-04
RMM:  33    -0.413164695684E+03   -0.38807E-05   -0.76118E-06  2704   0.173E-03    0.646E-04
RMM:  34    -0.413164695887E+03   -0.20231E-06   -0.31717E-06  2307   0.125E-03
    1 T=    61. E= -.41286688E+03 F= -.41316470E+03 E0= -.41314220E+03  EK= 0.29781E+00 SP= 0.00E+00 SK= 0.00E+00
       N       E                     dE             d eps       ncg     rms          rms(c)
RMM:   1    -0.413168476789E+03   -0.37811E-02   -0.76499E+00  3980   0.558E-01    0.892E-01
RMM:   2    -0.413170093166E+03   -0.16164E-02   -0.95400E-02  3978   0.816E-02    0.658E-01
RMM:   3    -0.413165722615E+03    0.43706E-02   -0.30169E-02  4970   0.636E-02    0.181E-01
RMM:   4    -0.413193030609E+03   -0.27308E-01   -0.32847E-02  5180   0.151E-01    0.700E-01
RMM:   5    -0.413164183801E+03    0.28847E-01   -0.13645E-02  4821   0.118E-01    0.513E-02
RMM:   6    -0.413164385194E+03   -0.20139E-03   -0.25602E-03  5735   0.494E-02    0.353E-02
RMM:   7    -0.413164383354E+03    0.18397E-05   -0.46392E-04  5694   0.195E-02    0.224E-02
RMM:   8    -0.413164379548E+03    0.38066E-05   -0.57637E-05  5265   0.841E-03    0.946E-03
RMM:   9    -0.413164381681E+03   -0.21329E-05   -0.12312E-05  3704   0.369E-03    0.672E-03
RMM:  10    -0.413164386847E+03   -0.51663E-05   -0.24228E-06  2606   0.230E-03    0.399E-03
RMM:  11    -0.413164390445E+03   -0.35977E-05   -0.12103E-06  2517   0.163E-03    0.227E-03
RMM:  12    -0.413164396928E+03   -0.64834E-05   -0.16689E-06  2562   0.181E-03    0.105E-03
RMM:  13    -0.413164400536E+03   -0.36084E-05   -0.78361E-07  2414   0.131E-03    0.818E-04
RMM:  14    -0.413164400464E+03    0.72687E-07   -0.37109E-07  1930   0.874E-04
    2 T=    61. E= -.41286666E+03 F= -.41316440E+03 E0= -.41314190E+03  EK= 0.29774E+00 SP= 0.00E+00 SK= 0.00E+00
       N       E                     dE             d eps       ncg     rms          rms(c)
RMM:   1    -0.413169436181E+03   -0.50356E-02   -0.76191E+00  4191   0.559E-01    0.908E-01
RMM:   2    -0.413170291355E+03   -0.85517E-03   -0.95149E-02  4006   0.811E-02    0.655E-01
RMM:   3    -0.413166089697E+03    0.42017E-02   -0.27774E-02  4968   0.581E-02    0.155E-01
RMM:   4    -0.413193915846E+03   -0.27826E-01   -0.31721E-02  5151   0.150E-01    0.705E-01
RMM:   5    -0.413164813228E+03    0.29103E-01   -0.13603E-02  4811   0.118E-01    0.504E-02
RMM:   6    -0.413165012158E+03   -0.19893E-03   -0.25341E-03  5747   0.494E-02    0.367E-02
RMM:   7    -0.413164992693E+03    0.19465E-04   -0.45739E-04  5620   0.204E-02    0.231E-02
RMM:   8    -0.413164982253E+03    0.10441E-04   -0.60964E-05  5207   0.903E-03    0.106E-02
RMM:   9    -0.413164980463E+03    0.17899E-05   -0.12477E-05  3799   0.392E-03    0.754E-03
RMM:  10    -0.413164980689E+03   -0.22647E-06   -0.23025E-06  2598   0.244E-03
    3 T=    61. E= -.41286702E+03 F= -.41316498E+03 E0= -.41314249E+03  EK= 0.29796E+00 SP= 0.00E+00 SK= 0.00E+00
       N       E                     dE             d eps       ncg     rms          rms(c)
RMM:   1    -0.413168869839E+03   -0.38894E-02   -0.75630E+00  4220   0.563E-01    0.894E-01
RMM:   2    -0.413169886185E+03   -0.10163E-02   -0.94695E-02  4241   0.803E-02    0.650E-01
RMM:   3    -0.413173857825E+03   -0.39716E-02   -0.33338E-02  5176   0.100E-01    0.407E-01
RMM:   4    -0.413181777269E+03   -0.79194E-02   -0.35096E-02  5082   0.163E-01    0.543E-01
RMM:   5    -0.413164754501E+03    0.17023E-01   -0.61280E-03  4618   0.907E-02    0.557E-02
RMM:   6    -0.413164743040E+03    0.11461E-04   -0.13006E-03  5333   0.364E-02    0.320E-02
RMM:   7    -0.413164747718E+03   -0.46786E-05   -0.27434E-04  5827   0.158E-02    0.184E-02
RMM:   8    -0.413164743061E+03    0.46570E-05   -0.45598E-05  5041   0.808E-03    0.722E-03
RMM:   9    -0.413164741952E+03    0.11087E-05   -0.51643E-06  2979   0.308E-03    0.371E-03
RMM:  10    -0.413164742965E+03   -0.10130E-05   -0.14087E-06  2527   0.199E-03    0.225E-03
RMM:  11    -0.413164744076E+03   -0.11106E-05   -0.10655E-06  2500   0.161E-03    0.116E-03
RMM:  12    -0.413164744755E+03   -0.67840E-06   -0.72108E-07  2446   0.130E-03
    4 T=    61. E= -.41286681E+03 F= -.41316474E+03 E0= -.41314226E+03  EK= 0.29794E+00 SP= 0.00E+00 SK= 0.00E+00
       N       E                     dE             d eps       ncg     rms          rms(c)
RMM:   1    -0.413168925660E+03   -0.41816E-02   -0.76357E+00  4234   0.570E-01    0.890E-01
RMM:   2    -0.413170334964E+03   -0.14093E-02   -0.95540E-02  4022   0.789E-02    0.657E-01
RMM:   3    -0.413166551464E+03    0.37835E-02   -0.30396E-02  5007   0.629E-02    0.195E-01
RMM:   4    -0.413195350754E+03   -0.28799E-01   -0.34696E-02  5131   0.157E-01    0.724E-01
RMM:   5    -0.413164694221E+03    0.30657E-01   -0.14154E-02  4785   0.121E-01    0.509E-02
RMM:   6    -0.413164901951E+03   -0.20773E-03   -0.25907E-03  5724   0.501E-02    0.352E-02
RMM:   7    -0.413164897364E+03    0.45871E-05   -0.45540E-04  5685   0.199E-02    0.226E-02
RMM:   8    -0.413164892439E+03    0.49256E-05   -0.59322E-05  5161   0.884E-03    0.101E-02
RMM:   9    -0.413164893251E+03   -0.81252E-06   -0.11808E-05  3749   0.387E-03    0.701E-03
RMM:  10    -0.413164897645E+03   -0.43935E-05   -0.20783E-06  2576   0.232E-03    0.416E-03
RMM:  11    -0.413164900870E+03   -0.32252E-05   -0.11096E-06  2525   0.169E-03    0.234E-03
RMM:  12    -0.413164906491E+03   -0.56213E-05   -0.17374E-06  2573   0.192E-03    0.109E-03
RMM:  13    -0.413164909301E+03   -0.28101E-05   -0.73074E-07  2426   0.135E-03    0.885E-04
RMM:  14    -0.413164909015E+03    0.28678E-06   -0.26220E-07  1930   0.877E-04
    5 T=    61. E= -.41286686E+03 F= -.41316491E+03 E0= -.41314243E+03  EK= 0.29805E+00 SP= 0.00E+00 SK= 0.00E+00
       N       E                     dE             d eps       ncg     rms          rms(c)
RMM:   1    -0.413169763606E+03   -0.48543E-02   -0.76220E+00  4246   0.572E-01    0.905E-01
RMM:   2    -0.413170557282E+03   -0.79368E-03   -0.95259E-02  4036   0.782E-02    0.657E-01
RMM:   3    -0.413166534531E+03    0.40228E-02   -0.28260E-02  4957   0.570E-02    0.159E-01
RMM:   4    -0.413194056877E+03   -0.27522E-01   -0.31342E-02  5134   0.149E-01    0.702E-01
RMM:   5    -0.413165222116E+03    0.28835E-01   -0.13523E-02  4800   0.117E-01    0.500E-02
RMM:   6    -0.413165424396E+03   -0.20228E-03   -0.24819E-03  5735   0.488E-02    0.361E-02
RMM:   7    -0.413165404542E+03    0.19854E-04   -0.44337E-04  5610   0.203E-02    0.228E-02
RMM:   8    -0.413165394688E+03    0.98544E-05   -0.59103E-05  5134   0.890E-03    0.105E-02
RMM:   9    -0.413165392220E+03    0.24675E-05   -0.11931E-05  3739   0.385E-03    0.746E-03
RMM:  10    -0.413165392215E+03    0.50277E-08   -0.21325E-06  2571   0.237E-03
    6 T=    61. E= -.41286708E+03 F= -.41316539E+03 E0= -.41314293E+03  EK= 0.29831E+00 SP= 0.00E+00 SK= 0.00E+00
       N       E                     dE             d eps       ncg     rms          rms(c)
RMM:   1    -0.413169448308E+03   -0.40561E-02   -0.75750E+00  4261   0.576E-01    0.900E-01
RMM:   2    -0.413170289765E+03   -0.84146E-03   -0.94802E-02  4293   0.797E-02    0.651E-01
RMM:   3    -0.413173645927E+03   -0.33562E-02   -0.32707E-02  5155   0.974E-02    0.393E-01
RMM:   4    -0.413182926707E+03   -0.92808E-02   -0.35202E-02  5072   0.163E-01    0.554E-01
RMM:   5    -0.413165135432E+03    0.17791E-01   -0.64401E-03  4634   0.922E-02    0.558E-02
RMM:   6    -0.413165137236E+03   -0.18043E-05   -0.13678E-03  5362   0.371E-02    0.324E-02
RMM:   7    -0.413165142493E+03   -0.52569E-05   -0.28066E-04  5813   0.158E-02    0.187E-02
RMM:   8    -0.413165136754E+03    0.57388E-05   -0.46270E-05  5033   0.819E-03    0.731E-03
RMM:   9    -0.413165134332E+03    0.24219E-05   -0.53910E-06  2978   0.313E-03    0.379E-03
RMM:  10    -0.413165133941E+03    0.39059E-06   -0.14459E-06  2521   0.201E-03
    7 T=    61. E= -.41286673E+03 F= -.41316513E+03 E0= -.41314269E+03  EK= 0.29840E+00 SP= 0.00E+00 SK= 0.00E+00
       N       E                     dE             d eps       ncg     rms          rms(c)
RMM:   1    -0.413169646313E+03   -0.45120E-02   -0.76184E+00  4270   0.582E-01    0.888E-01
RMM:   2    -0.413171377361E+03   -0.17310E-02   -0.95149E-02  4142   0.812E-02    0.655E-01
RMM:   3    -0.413167638773E+03    0.37386E-02   -0.30186E-02  4992   0.669E-02    0.204E-01
RMM:   4    -0.413197096714E+03   -0.29458E-01   -0.36336E-02  5124   0.161E-01    0.733E-01
RMM:   5    -0.413165546901E+03    0.31550E-01   -0.14457E-02  4784   0.122E-01    0.517E-02
RMM:   6    -0.413165753767E+03   -0.20687E-03   -0.26159E-03  5706   0.506E-02    0.353E-02
RMM:   7    -0.413165747827E+03    0.59396E-05   -0.45988E-04  5688   0.199E-02    0.227E-02
RMM:   8    -0.413165741600E+03    0.62271E-05   -0.60764E-05  5193   0.887E-03    0.100E-02
RMM:   9    -0.413165740666E+03    0.93415E-06   -0.11705E-05  3739   0.384E-03    0.680E-03
RMM:  10    -0.413165743237E+03   -0.25706E-05   -0.21038E-06  2572   0.231E-03    0.405E-03
RMM:  11    -0.413165745098E+03   -0.18615E-05   -0.10634E-06  2518   0.166E-03    0.228E-03
RMM:  12    -0.413165748280E+03   -0.31820E-05   -0.16328E-06  2559   0.188E-03    0.106E-03
RMM:  13    -0.413165749751E+03   -0.14713E-05   -0.75694E-07  2429   0.136E-03    0.890E-04
RMM:  14    -0.413165749517E+03    0.23461E-06   -0.26478E-07  1946   0.882E-04
    8 T=    61. E= -.41286697E+03 F= -.41316575E+03 E0= -.41314332E+03  EK= 0.29878E+00 SP= 0.00E+00 SK= 0.00E+00
       N       E                     dE             d eps       ncg     rms          rms(c)
RMM:   1    -0.413170239682E+03   -0.44899E-02   -0.76369E+00  4279   0.585E-01    0.902E-01
RMM:   2    -0.413171451428E+03   -0.12117E-02   -0.95159E-02  4170   0.816E-02    0.658E-01
RMM:   3    -0.413167214719E+03    0.42367E-02   -0.29078E-02  4942   0.621E-02    0.172E-01
RMM:   4    -0.413195540947E+03   -0.28326E-01   -0.32723E-02  5128   0.152E-01    0.713E-01
RMM:   5    -0.413165731456E+03    0.29809E-01   -0.13978E-02  4797   0.119E-01    0.500E-02
RMM:   6    -0.413165929894E+03   -0.19844E-03   -0.25047E-03  5734   0.494E-02    0.359E-02
RMM:   7    -0.413165914926E+03    0.14969E-04   -0.44125E-04  5622   0.201E-02    0.227E-02
RMM:   8    -0.413165906130E+03    0.87957E-05   -0.59530E-05  5152   0.887E-03    0.103E-02
RMM:   9    -0.413165904014E+03    0.21157E-05   -0.11815E-05  3748   0.388E-03    0.729E-03
RMM:  10    -0.413165904499E+03   -0.48520E-06   -0.21104E-06  2574   0.236E-03
    9 T=    61. E= -.41286690E+03 F= -.41316590E+03 E0= -.41314350E+03  EK= 0.29900E+00 SP= 0.00E+00 SK= 0.00E+00
       N       E                     dE             d eps       ncg     rms          rms(c)
RMM:   1    -0.413172947928E+03   -0.70439E-02   -0.76230E+00  4288   0.616E-01    0.905E-01
RMM:   2    -0.413171320286E+03    0.16276E-02   -0.10159E-01  4324   0.867E-02    0.654E-01
RMM:   3    -0.413173741269E+03   -0.24210E-02   -0.31269E-02  5133   0.955E-02    0.375E-01
RMM:   4    -0.413186025657E+03   -0.12284E-01   -0.37061E-02  5075   0.166E-01    0.586E-01
RMM:   5    -0.413165983977E+03    0.20042E-01   -0.73910E-03  4651   0.967E-02    0.571E-02
RMM:   6    -0.413165991162E+03   -0.71849E-05   -0.15154E-03  5396   0.392E-02    0.329E-02
RMM:   7    -0.413165993867E+03   -0.27046E-05   -0.30423E-04  5861   0.163E-02    0.195E-02
RMM:   8    -0.413165985553E+03    0.83136E-05   -0.51779E-05  5075   0.852E-03    0.765E-03
RMM:   9    -0.413165981663E+03    0.38900E-05   -0.62917E-06  3123   0.330E-03    0.391E-03
RMM:  10    -0.413165980252E+03    0.14113E-05   -0.15410E-06  2523   0.207E-03    0.243E-03
RMM:  11    -0.413165978249E+03    0.20031E-05   -0.10973E-06  2497   0.165E-03    0.126E-03
RMM:  12    -0.413165976067E+03    0.21816E-05   -0.74683E-07  2455   0.134E-03    0.539E-04
RMM:  13    -0.413165974701E+03    0.13657E-05   -0.37435E-07  2051   0.983E-04    0.323E-04
RMM:  14    -0.413165973179E+03    0.15226E-05   -0.24741E-07  1607   0.798E-04    0.200E-04
RMM:  15    -0.413165970791E+03    0.23872E-05   -0.27495E-07  1649   0.787E-04    0.217E-04
RMM:  16    -0.413165968467E+03    0.23246E-05   -0.20832E-07  1413   0.704E-04    0.165E-04
RMM:  17    -0.413165966688E+03    0.17786E-05   -0.13677E-07  1221   0.640E-04    0.771E-05
RMM:  18    -0.413165965320E+03    0.13679E-05   -0.90879E-08  1057   0.590E-04    0.444E-05
RMM:  19    -0.413165964812E+03    0.50790E-06   -0.43376E-08   838   0.539E-04
   10 T=    61. E= -.41286676E+03 F= -.41316596E+03 E0= -.41314358E+03  EK= 0.29920E+00 SP= 0.00E+00 SK= 0.00E+00
       N       E                     dE             d eps       ncg     rms          rms(c)
RMM:   1    -0.413170771244E+03   -0.48059E-02   -0.75972E+00  4290   0.594E-01    0.889E-01
RMM:   2    -0.413172120498E+03   -0.13493E-02   -0.95058E-02  4228   0.824E-02    0.653E-01
RMM:   3    -0.413168546615E+03    0.35739E-02   -0.29695E-02  4993   0.645E-02    0.197E-01
RMM:   4    -0.413198177380E+03   -0.29631E-01   -0.36428E-02  5117   0.160E-01    0.734E-01
RMM:   5    -0.413166559921E+03    0.31617E-01   -0.14609E-02  4771   0.122E-01    0.517E-02
RMM:   6    -0.413166760411E+03   -0.20049E-03   -0.26242E-03  5698   0.505E-02    0.358E-02
RMM:   7    -0.413166752911E+03    0.75000E-05   -0.45637E-04  5607   0.200E-02    0.227E-02
RMM:   8    -0.413166746663E+03    0.62475E-05   -0.61386E-05  5216   0.887E-03    0.100E-02
RMM:   9    -0.413166745155E+03    0.15076E-05   -0.11950E-05  3811   0.391E-03    0.682E-03
RMM:  10    -0.413166746774E+03   -0.16183E-05   -0.20659E-06  2567   0.230E-03    0.407E-03
RMM:  11    -0.413166747854E+03   -0.10799E-05   -0.96680E-07  2493   0.161E-03    0.234E-03
RMM:  12    -0.413166749668E+03   -0.18143E-05   -0.14528E-06  2533   0.183E-03    0.109E-03
RMM:  13    -0.413166750352E+03   -0.68409E-06   -0.65555E-07  2406   0.133E-03
   11 T=    61. E= -.41286711E+03 F= -.41316675E+03 E0= -.41314439E+03  EK= 0.29964E+00 SP= 0.00E+00 SK= 0.00E+00
       N       E                     dE             d eps       ncg     rms          rms(c)
RMM:   1    -0.413171021017E+03   -0.42713E-02   -0.76510E+00  4290   0.599E-01    0.899E-01
RMM:   2    -0.413172097374E+03   -0.10764E-02   -0.95643E-02  4236   0.806E-02    0.660E-01
RMM:   3    -0.413168144115E+03    0.39533E-02   -0.29915E-02  4952   0.613E-02    0.181E-01
RMM:   4    -0.413196595527E+03   -0.28451E-01   -0.33450E-02  5118   0.153E-01    0.716E-01
RMM:   5    -0.413166518836E+03    0.30077E-01   -0.14054E-02  4783   0.119E-01    0.499E-02
RMM:   6    -0.413166717597E+03   -0.19876E-03   -0.25448E-03  5747   0.493E-02    0.352E-02
RMM:   7    -0.413166709052E+03    0.85446E-05   -0.43464E-04  5640   0.200E-02    0.226E-02
RMM:   8    -0.413166699775E+03    0.92776E-05   -0.61103E-05  5086   0.885E-03    0.105E-02
RMM:   9    -0.413166697729E+03    0.20452E-05   -0.11852E-05  3759   0.393E-03    0.738E-03
RMM:  10    -0.413166698612E+03   -0.88245E-06   -0.20935E-06  2567   0.234E-03
   12 T=    61. E= -.41286685E+03 F= -.41316670E+03 E0= -.41314437E+03  EK= 0.29985E+00 SP= 0.00E+00 SK= 0.00E+00
       N       E                     dE             d eps       ncg     rms          rms(c)
RMM:   1    -0.413171890362E+03   -0.51926E-02   -0.76193E+00  4303   0.603E-01    0.911E-01
RMM:   2    -0.413172369031E+03   -0.47867E-03   -0.95564E-02  4333   0.797E-02    0.656E-01
RMM:   3    -0.413176168757E+03   -0.37997E-02   -0.33202E-02  5149   0.986E-02    0.400E-01
RMM:   4    -0.413184767856E+03   -0.85991E-02   -0.35463E-02  5063   0.163E-01    0.548E-01
RMM:   5    -0.413167326562E+03    0.17441E-01   -0.62260E-03  4608   0.914E-02    0.555E-02
RMM:   6    -0.413167331117E+03   -0.45551E-05   -0.13761E-03  5352   0.366E-02    0.328E-02
RMM:   7    -0.413167328257E+03    0.28599E-05   -0.27716E-04  5735   0.162E-02    0.187E-02
RMM:   8    -0.413167318338E+03    0.99194E-05   -0.45729E-05  5013   0.826E-03    0.727E-03
RMM:   9    -0.413167313483E+03    0.48546E-05   -0.55850E-06  2984   0.311E-03    0.381E-03
RMM:  10    -0.413167310971E+03    0.25121E-05   -0.14159E-06  2509   0.199E-03    0.230E-03
RMM:  11    -0.413167307862E+03    0.31091E-05   -0.97626E-07  2475   0.157E-03    0.117E-03
RMM:  12    -0.413167304555E+03    0.33069E-05   -0.67899E-07  2431   0.129E-03    0.527E-04
RMM:  13    -0.413167302595E+03    0.19603E-05   -0.34050E-07  1990   0.954E-04    0.334E-04
RMM:  14    -0.413167300602E+03    0.19927E-05   -0.20609E-07  1509   0.766E-04    0.208E-04
RMM:  15    -0.413167296720E+03    0.38824E-05   -0.27159E-07  1733   0.800E-04    0.270E-04
RMM:  16    -0.413167293539E+03    0.31810E-05   -0.17751E-07  1285   0.673E-04    0.150E-04
RMM:  17    -0.413167291664E+03    0.18744E-05   -0.10582E-07  1107   0.614E-04    0.736E-05
RMM:  18    -0.413167289969E+03    0.16950E-05   -0.75664E-08  1026   0.590E-04    0.580E-05
RMM:  19    -0.413167289275E+03    0.69398E-06   -0.37113E-08   799   0.544E-04
   13 T=    61. E= -.41286698E+03 F= -.41316729E+03 E0= -.41314499E+03  EK= 0.30031E+00 SP= 0.00E+00 SK= 0.00E+00
       N       E                     dE             d eps       ncg     rms          rms(c)
RMM:   1    -0.413172064842E+03   -0.47749E-02   -0.75878E+00  4295   0.605E-01    0.891E-01
RMM:   2    -0.413173225720E+03   -0.11609E-02   -0.94929E-02  4246   0.791E-02    0.652E-01
RMM:   3    -0.413169780982E+03    0.34447E-02   -0.29243E-02  5004   0.636E-02    0.197E-01
RMM:   4    -0.413199712900E+03   -0.29932E-01   -0.37145E-02  5117   0.162E-01    0.737E-01
RMM:   5    -0.413167750824E+03    0.31962E-01   -0.14705E-02  4763   0.123E-01    0.520E-02
RMM:   6    -0.413167945428E+03   -0.19460E-03   -0.26422E-03  5697   0.508E-02    0.361E-02
RMM:   7    -0.413167930591E+03    0.14837E-04   -0.45835E-04  5614   0.201E-02    0.230E-02
RMM:   8    -0.413167922343E+03    0.82478E-05   -0.63032E-05  5217   0.896E-03    0.102E-02
RMM:   9    -0.413167919667E+03    0.26763E-05   -0.12119E-05  3809   0.393E-03    0.686E-03
RMM:  10    -0.413167919645E+03    0.21828E-07   -0.21290E-06  2565   0.232E-03
   14 T=    61. E= -.41286709E+03 F= -.41316792E+03 E0= -.41314565E+03  EK= 0.30083E+00 SP= 0.00E+00 SK= 0.00E+00
       N       E                     dE             d eps       ncg     rms          rms(c)
RMM:   1    -0.413172230733E+03   -0.43111E-02   -0.76736E+00  4302   0.614E-01    0.898E-01
RMM:   2    -0.413173661289E+03   -0.14306E-02   -0.95882E-02  4317   0.818E-02    0.661E-01
RMM:   3    -0.413177157630E+03   -0.34963E-02   -0.35835E-02  5127   0.102E-01    0.411E-01
RMM:   4    -0.413186457684E+03   -0.93001E-02   -0.36859E-02  5060   0.166E-01    0.568E-01
RMM:   5    -0.413167985641E+03    0.18472E-01   -0.69924E-03  4607   0.952E-02    0.543E-02
RMM:   6    -0.413168006707E+03   -0.21066E-04   -0.14444E-03  5366   0.372E-02    0.315E-02
RMM:   7    -0.413168009804E+03   -0.30964E-05   -0.27912E-04  5761   0.157E-02    0.184E-02
RMM:   8    -0.413168005420E+03    0.43837E-05   -0.45591E-05  5009   0.810E-03    0.708E-03
RMM:   9    -0.413168004058E+03    0.13619E-05   -0.52859E-06  2953   0.304E-03    0.378E-03
RMM:  10    -0.413168005120E+03   -0.10623E-05   -0.13954E-06  2506   0.195E-03    0.230E-03
RMM:  11    -0.413168006021E+03   -0.90034E-06   -0.91606E-07  2461   0.153E-03
   15 T=    61. E= -.41286680E+03 F= -.41316801E+03 E0= -.41314577E+03  EK= 0.30121E+00 SP= 0.00E+00 SK= 0.00E+00
       N       E                     dE             d eps       ncg     rms          rms(c)
RMM:   1    -0.413173755600E+03   -0.57505E-02   -0.76462E+00  4297   0.615E-01    0.913E-01
RMM:   2    -0.413174451608E+03   -0.69601E-03   -0.95628E-02  4268   0.857E-02    0.658E-01
RMM:   3    -0.413171074591E+03    0.33770E-02   -0.28680E-02  5009   0.662E-02    0.200E-01
RMM:   4    -0.413201719795E+03   -0.30645E-01   -0.38808E-02  5113   0.165E-01    0.746E-01
RMM:   5    -0.413168894530E+03    0.32825E-01   -0.14902E-02  4768   0.124E-01    0.533E-02
RMM:   6    -0.413169082690E+03   -0.18816E-03   -0.27540E-03  5701   0.518E-02    0.373E-02
RMM:   7    -0.413169059205E+03    0.23485E-04   -0.47779E-04  5670   0.206E-02    0.239E-02
RMM:   8    -0.413169044470E+03    0.14736E-04   -0.65908E-05  5207   0.939E-03    0.107E-02
RMM:   9    -0.413169038712E+03    0.57578E-05   -0.12644E-05  3811   0.404E-03    0.708E-03
RMM:  10    -0.413169034751E+03    0.39610E-05   -0.22409E-06  2578   0.242E-03    0.417E-03
RMM:  11    -0.413169032204E+03    0.25465E-05   -0.10267E-06  2499   0.167E-03    0.243E-03
RMM:  12    -0.413169026839E+03    0.53655E-05   -0.16281E-06  2549   0.194E-03    0.114E-03
RMM:  13    -0.413169022839E+03    0.39994E-05   -0.74214E-07  2430   0.140E-03    0.961E-04
RMM:  14    -0.413169022833E+03    0.68685E-08   -0.27679E-07  2015   0.918E-04
   16 T=    61. E= -.41286710E+03 F= -.41316902E+03 E0= -.41314683E+03  EK= 0.30192E+00 SP= 0.00E+00 SK= 0.00E+00
       N       E                     dE             d eps       ncg     rms          rms(c)
RMM:   1    -0.413173797293E+03   -0.47745E-02   -0.76005E+00  4295   0.618E-01    0.896E-01
RMM:   2    -0.413174978167E+03   -0.11809E-02   -0.95366E-02  4273   0.835E-02    0.653E-01
RMM:   3    -0.413171021506E+03    0.39567E-02   -0.28754E-02  4967   0.632E-02    0.180E-01
RMM:   4    -0.413200829300E+03   -0.29808E-01   -0.35534E-02  5113   0.158E-01    0.732E-01
RMM:   5    -0.413169336750E+03    0.31493E-01   -0.14690E-02  4778   0.122E-01    0.511E-02
RMM:   6    -0.413169526276E+03   -0.18953E-03   -0.26594E-03  5728   0.506E-02    0.364E-02
RMM:   7    -0.413169505671E+03    0.20605E-04   -0.45532E-04  5610   0.204E-02    0.232E-02
RMM:   8    -0.413169492418E+03    0.13253E-04   -0.64103E-05  5172   0.911E-03    0.107E-02
RMM:   9    -0.413169487988E+03    0.44300E-05   -0.12400E-05  3810   0.401E-03    0.738E-03
RMM:  10    -0.413169485715E+03    0.22724E-05   -0.21915E-06  2573   0.239E-03    0.435E-03
RMM:  11    -0.413169484137E+03    0.15783E-05   -0.10490E-06  2494   0.169E-03    0.252E-03
RMM:  12    -0.413169480832E+03    0.33055E-05   -0.16857E-06  2554   0.197E-03    0.118E-03
RMM:  13    -0.413169478194E+03    0.26377E-05   -0.67329E-07  2418   0.138E-03    0.100E-03
RMM:  14    -0.413169478247E+03   -0.53165E-07   -0.25640E-07  1979   0.895E-04
   17 T=    62. E= -.41286697E+03 F= -.41316948E+03 E0= -.41314732E+03  EK= 0.30251E+00 SP= 0.00E+00 SK= 0.00E+00
       N       E                     dE             d eps       ncg     rms          rms(c)
RMM:   1    -0.413174553051E+03   -0.50749E-02   -0.76934E+00  4294   0.629E-01    0.897E-01
RMM:   2    -0.413175640280E+03   -0.10872E-02   -0.96755E-02  4273   0.846E-02    0.662E-01
RMM:   3    -0.413171677334E+03    0.39629E-02   -0.30982E-02  4958   0.649E-02    0.195E-01
RMM:   4    -0.413200958641E+03   -0.29281E-01   -0.35289E-02  5111   0.157E-01    0.728E-01
RMM:   5    -0.413169840041E+03    0.31119E-01   -0.14602E-02  4773   0.121E-01    0.504E-02
RMM:   6    -0.413170031759E+03   -0.19172E-03   -0.26263E-03  5728   0.501E-02    0.352E-02
RMM:   7    -0.413170020180E+03    0.11579E-04   -0.44176E-04  5617   0.202E-02    0.227E-02
RMM:   8    -0.413170011173E+03    0.90074E-05   -0.63458E-05  5122   0.917E-03    0.105E-02
RMM:   9    -0.413170008168E+03    0.30053E-05   -0.12525E-05  3805   0.406E-03    0.725E-03
RMM:  10    -0.413170008519E+03   -0.35119E-06   -0.21360E-06  2575   0.236E-03
   18 T=    62. E= -.41286688E+03 F= -.41317001E+03 E0= -.41314789E+03  EK= 0.30312E+00 SP= 0.00E+00 SK= 0.00E+00
       N       E                     dE             d eps       ncg     rms          rms(c)
RMM:   1    -0.413175874541E+03   -0.58664E-02   -0.76760E+00  4304   0.628E-01    0.913E-01
RMM:   2    -0.413176507206E+03   -0.63266E-03   -0.96487E-02  4324   0.838E-02    0.661E-01
RMM:   3    -0.413180182563E+03   -0.36754E-02   -0.34158E-02  5129   0.999E-02    0.404E-01
RMM:   4    -0.413189174466E+03   -0.89919E-02   -0.36349E-02  5051   0.165E-01    0.557E-01
RMM:   5    -0.413171200349E+03    0.17974E-01   -0.65062E-03  4602   0.923E-02    0.548E-02
RMM:   6    -0.413171210090E+03   -0.97414E-05   -0.14365E-03  5368   0.369E-02    0.328E-02
RMM:   7    -0.413171195332E+03    0.14758E-04   -0.28102E-04  5701   0.162E-02    0.190E-02
RMM:   8    -0.413171187406E+03    0.79268E-05   -0.45631E-05  5003   0.815E-03    0.732E-03
RMM:   9    -0.413171182977E+03    0.44286E-05   -0.55388E-06  2984   0.312E-03    0.388E-03
RMM:  10    -0.413171180199E+03    0.27779E-05   -0.14444E-06  2510   0.200E-03    0.232E-03
RMM:  11    -0.413171176890E+03    0.33093E-05   -0.91177E-07  2467   0.155E-03    0.117E-03
RMM:  12    -0.413171172917E+03    0.39730E-05   -0.65847E-07  2430   0.128E-03    0.506E-04
RMM:  13    -0.413171170535E+03    0.23822E-05   -0.32169E-07  1967   0.942E-04    0.317E-04
RMM:  14    -0.413171168290E+03    0.22448E-05   -0.18534E-07  1479   0.749E-04    0.197E-04
RMM:  15    -0.413171163736E+03    0.45538E-05   -0.21018E-07  1598   0.759E-04    0.248E-04
RMM:  16    -0.413171160283E+03    0.34532E-05   -0.12518E-07  1143   0.641E-04    0.163E-04
RMM:  17    -0.413171157919E+03    0.23639E-05   -0.86031E-08  1079   0.609E-04    0.769E-05
RMM:  18    -0.413171155401E+03    0.25176E-05   -0.70686E-08  1063   0.598E-04    0.464E-05
RMM:  19    -0.413171154654E+03    0.74781E-06   -0.29420E-08   790   0.546E-04
   19 T=    62. E= -.41286718E+03 F= -.41317115E+03 E0= -.41314908E+03  EK= 0.30398E+00 SP= 0.00E+00 SK= 0.00E+00
       N       E                     dE             d eps       ncg     rms          rms(c)
RMM:   1    -0.413176084630E+03   -0.49292E-02   -0.76337E+00  4293   0.633E-01    0.903E-01
RMM:   2    -0.413176766807E+03   -0.68218E-03   -0.96122E-02  4267   0.823E-02    0.655E-01
RMM:   3    -0.413173453809E+03    0.33130E-02   -0.28700E-02  5022   0.629E-02    0.192E-01
RMM:   4    -0.413204212434E+03   -0.30759E-01   -0.38218E-02  5113   0.164E-01    0.746E-01
RMM:   5    -0.413171448904E+03    0.32764E-01   -0.15139E-02  4769   0.124E-01    0.528E-02
RMM:   6    -0.413171647359E+03   -0.19846E-03   -0.27404E-03  5708   0.516E-02    0.370E-02
RMM:   7    -0.413171640509E+03    0.68500E-05   -0.47397E-04  5589   0.210E-02    0.236E-02
RMM:   8    -0.413171627974E+03    0.12536E-04   -0.68395E-05  5212   0.958E-03    0.107E-02
RMM:   9    -0.413171622094E+03    0.58801E-05   -0.13432E-05  3884   0.419E-03    0.714E-03
RMM:  10    -0.413171618667E+03    0.34265E-05   -0.22483E-06  2578   0.243E-03    0.424E-03
RMM:  11    -0.413171616696E+03    0.19711E-05   -0.10090E-06  2501   0.165E-03    0.250E-03
RMM:  12    -0.413171612517E+03    0.41795E-05   -0.15466E-06  2537   0.192E-03    0.117E-03
RMM:  13    -0.413171609616E+03    0.29003E-05   -0.69876E-07  2409   0.139E-03    0.943E-04
RMM:  14    -0.413171609402E+03    0.21470E-06   -0.27600E-07  2016   0.921E-04
   20 T=    62. E= -.41286695E+03 F= -.41317161E+03 E0= -.41314958E+03  EK= 0.30466E+00 SP= 0.00E+00 SK= 0.00E+00
       N       E                     dE             d eps       ncg     rms          rms(c)
RMM:   1    -0.413176962430E+03   -0.53528E-02   -0.77065E+00  4295   0.634E-01    0.897E-01
RMM:   2    -0.413178259720E+03   -0.12973E-02   -0.96707E-02  4272   0.823E-02    0.662E-01
RMM:   3    -0.413174236644E+03    0.40231E-02   -0.30916E-02  4959   0.623E-02    0.187E-01
RMM:   4    -0.413202695739E+03   -0.28459E-01   -0.33786E-02  5111   0.154E-01    0.717E-01
RMM:   5    -0.413172535933E+03    0.30160E-01   -0.14248E-02  4778   0.120E-01    0.498E-02
RMM:   6    -0.413172719354E+03   -0.18342E-03   -0.25532E-03  5740   0.494E-02    0.346E-02
RMM:   7    -0.413172710139E+03    0.92154E-05   -0.42532E-04  5596   0.200E-02    0.224E-02
RMM:   8    -0.413172701766E+03    0.83727E-05   -0.64383E-05  5097   0.917E-03    0.106E-02
RMM:   9    -0.413172698920E+03    0.28462E-05   -0.12460E-05  3808   0.408E-03    0.743E-03
RMM:  10    -0.413172698824E+03    0.95835E-07   -0.21259E-06  2569   0.237E-03
   21 T=    62. E= -.41286707E+03 F= -.41317270E+03 E0= -.41315071E+03  EK= 0.30563E+00 SP= 0.00E+00 SK= 0.00E+00
       N       E                     dE             d eps       ncg     rms          rms(c)
RMM:   1    -0.413178411503E+03   -0.57126E-02   -0.77211E+00  4300   0.636E-01    0.913E-01
RMM:   2    -0.413179432722E+03   -0.10212E-02   -0.96787E-02  4346   0.846E-02    0.665E-01
RMM:   3    -0.413182598799E+03   -0.31661E-02   -0.34663E-02  5132   0.100E-01    0.399E-01
RMM:   4    -0.413192765901E+03   -0.10167E-01   -0.37077E-02  5055   0.166E-01    0.572E-01
RMM:   5    -0.413173828459E+03    0.18937E-01   -0.69690E-03  4618   0.955E-02    0.543E-02
RMM:   6    -0.413173858617E+03   -0.30158E-04   -0.15086E-03  5399   0.379E-02    0.327E-02
RMM:   7    -0.413173853177E+03    0.54403E-05   -0.28825E-04  5687   0.162E-02    0.191E-02
RMM:   8    -0.413173845387E+03    0.77903E-05   -0.46423E-05  5013   0.821E-03    0.734E-03
RMM:   9    -0.413173840791E+03    0.45960E-05   -0.57964E-06  3000   0.317E-03    0.395E-03
RMM:  10    -0.413173838167E+03    0.26242E-05   -0.14694E-06  2514   0.200E-03    0.240E-03
RMM:  11    -0.413173835145E+03    0.30214E-05   -0.87687E-07  2467   0.153E-03    0.121E-03
RMM:  12    -0.413173831274E+03    0.38713E-05   -0.66339E-07  2427   0.128E-03    0.522E-04
RMM:  13    -0.413173828970E+03    0.23037E-05   -0.32324E-07  1982   0.945E-04    0.331E-04
RMM:  14    -0.413173827020E+03    0.19497E-05   -0.17918E-07  1473   0.744E-04    0.213E-04
RMM:  15    -0.413173822518E+03    0.45020E-05   -0.19316E-07  1573   0.749E-04    0.248E-04
RMM:  16    -0.413173818708E+03    0.38105E-05   -0.11880E-07  1115   0.640E-04    0.175E-04
RMM:  17    -0.413173816337E+03    0.23713E-05   -0.78470E-08  1032   0.601E-04    0.853E-05
RMM:  18    -0.413173813544E+03    0.27928E-05   -0.67315E-08  1050   0.597E-04    0.450E-05
RMM:  19    -0.413173812628E+03    0.91577E-06   -0.31025E-08   812   0.552E-04
   22 T=    62. E= -.41286714E+03 F= -.41317381E+03 E0= -.41315187E+03  EK= 0.30667E+00 SP= 0.00E+00 SK= 0.00E+00
       N       E                     dE             d eps       ncg     rms          rms(c)
RMM:   1    -0.413179408931E+03   -0.55954E-02   -0.76924E+00  4295   0.650E-01    0.912E-01
RMM:   2    -0.413180051809E+03   -0.64288E-03   -0.97213E-02  4291   0.847E-02    0.660E-01
RMM:   3    -0.413176130073E+03    0.39217E-02   -0.28609E-02  4979   0.638E-02    0.180E-01
RMM:   4    -0.413207288159E+03   -0.31158E-01   -0.37459E-02  5107   0.162E-01    0.747E-01
RMM:   5    -0.413174376990E+03    0.32911E-01   -0.15363E-02  4776   0.125E-01    0.524E-02
RMM:   6    -0.413174571141E+03   -0.19415E-03   -0.27895E-03  5722   0.517E-02    0.374E-02
RMM:   7    -0.413174551414E+03    0.19728E-04   -0.47591E-04  5590   0.209E-02    0.239E-02
RMM:   8    -0.413174538268E+03    0.13145E-04   -0.69298E-05  5215   0.951E-03    0.111E-02
RMM:   9    -0.413174532130E+03    0.61388E-05   -0.13093E-05  3903   0.416E-03    0.755E-03
RMM:  10    -0.413174527764E+03    0.43656E-05   -0.22918E-06  2582   0.243E-03    0.448E-03
RMM:  11    -0.413174525007E+03    0.27573E-05   -0.10648E-06  2501   0.169E-03    0.264E-03
RMM:  12    -0.413174519415E+03    0.55919E-05   -0.17143E-06  2558   0.200E-03    0.122E-03
RMM:  13    -0.413174515681E+03    0.37339E-05   -0.71429E-07  2418   0.142E-03    0.982E-04
RMM:  14    -0.413174515501E+03    0.17997E-06   -0.28088E-07  2039   0.927E-04
   23 T=    63. E= -.41286686E+03 F= -.41317452E+03 E0= -.41315262E+03  EK= 0.30766E+00 SP= 0.00E+00 SK= 0.00E+00
       N       E                     dE             d eps       ncg     rms          rms(c)
RMM:   1    -0.413180520325E+03   -0.60046E-02   -0.77331E+00  4298   0.651E-01    0.899E-01
RMM:   2    -0.413182023608E+03   -0.15033E-02   -0.97496E-02  4291   0.864E-02    0.663E-01
RMM:   3    -0.413177422809E+03    0.46008E-02   -0.30691E-02  4888   0.649E-02    0.175E-01
RMM:   4    -0.413204722145E+03   -0.27299E-01   -0.31419E-02  5116   0.149E-01    0.701E-01
RMM:   5    -0.413175957128E+03    0.28765E-01   -0.13661E-02  4782   0.117E-01    0.491E-02
RMM:   6    -0.413176137186E+03   -0.18006E-03   -0.25002E-03  5787   0.479E-02    0.336E-02
RMM:   7    -0.413176132566E+03    0.46202E-05   -0.38634E-04  5619   0.194E-02    0.216E-02
RMM:   8    -0.413176121362E+03    0.11204E-04   -0.66083E-05  5020   0.907E-03    0.110E-02
RMM:   9    -0.413176117013E+03    0.43493E-05   -0.12720E-05  3895   0.415E-03    0.777E-03
RMM:  10    -0.413176115663E+03    0.13497E-05   -0.20881E-06  2562   0.238E-03    0.459E-03
RMM:  11    -0.413176114497E+03    0.11664E-05   -0.13579E-06  2518   0.186E-03    0.246E-03
RMM:  12    -0.413176112474E+03    0.20232E-05   -0.16367E-06  2539   0.197E-03    0.115E-03
RMM:  13    -0.413176111132E+03    0.13418E-05   -0.52896E-07  2354   0.129E-03    0.750E-04
RMM:  14    -0.413176110774E+03    0.35833E-06   -0.23789E-07  1907   0.854E-04
   24 T=    63. E= -.41286711E+03 F= -.41317611E+03 E0= -.41315426E+03  EK= 0.30900E+00 SP= 0.00E+00 SK= 0.00E+00
       N       E                     dE             d eps       ncg     rms          rms(c)
RMM:   1    -0.413181994847E+03   -0.58837E-02   -0.77870E+00  4294   0.659E-01    0.913E-01
RMM:   2    -0.413182948706E+03   -0.95386E-03   -0.98336E-02  4293   0.880E-02    0.669E-01
RMM:   3    -0.413178425175E+03    0.45235E-02   -0.30455E-02  4891   0.654E-02    0.171E-01
RMM:   4    -0.413206544111E+03   -0.28119E-01   -0.32226E-02  5114   0.151E-01    0.710E-01
RMM:   5    -0.413176990290E+03    0.29554E-01   -0.13969E-02  4784   0.118E-01    0.500E-02
RMM:   6    -0.413177175005E+03   -0.18472E-03   -0.25893E-03  5787   0.488E-02    0.353E-02
RMM:   7    -0.413177163649E+03    0.11357E-04   -0.42505E-04  5595   0.202E-02    0.227E-02
RMM:   8    -0.413177151009E+03    0.12639E-04   -0.64294E-05  5064   0.924E-03    0.110E-02
RMM:   9    -0.413177145913E+03    0.50957E-05   -0.12635E-05  3844   0.411E-03    0.772E-03
RMM:  10    -0.413177143221E+03    0.26922E-05   -0.21588E-06  2571   0.240E-03    0.454E-03
RMM:  11    -0.413177141243E+03    0.19781E-05   -0.12449E-06  2507   0.180E-03    0.251E-03
RMM:  12    -0.413177137700E+03    0.35429E-05   -0.16858E-06  2542   0.199E-03    0.116E-03
RMM:  13    -0.413177135415E+03    0.22856E-05   -0.58090E-07  2373   0.134E-03    0.837E-04
RMM:  14    -0.413177135142E+03    0.27275E-06   -0.25362E-07  1954   0.878E-04
   25 T=    63. E= -.41286692E+03 F= -.41317714E+03 E0= -.41315534E+03  EK= 0.31021E+00 SP= 0.00E+00 SK= 0.00E+00
       N       E                     dE             d eps       ncg     rms          rms(c)
RMM:   1    -0.413187791851E+03   -0.10656E-01   -0.78099E+00  4293   0.696E-01    0.920E-01
RMM:   2    -0.413184022841E+03    0.37690E-02   -0.10813E-01  4289   0.930E-02    0.666E-01
RMM:   3    -0.413179256132E+03    0.47667E-02   -0.26750E-02  4871   0.584E-02    0.130E-01
RMM:   4    -0.413206816314E+03   -0.27560E-01   -0.30091E-02  5125   0.145E-01    0.697E-01
RMM:   5    -0.413178328076E+03    0.28488E-01   -0.13786E-02  4790   0.116E-01    0.498E-02
RMM:   6    -0.413178487349E+03   -0.15927E-03   -0.25052E-03  5815   0.478E-02    0.350E-02
RMM:   7    -0.413178481445E+03    0.59043E-05   -0.38705E-04  5615   0.196E-02    0.219E-02
RMM:   8    -0.413178468460E+03    0.12985E-04   -0.67392E-05  5013   0.917E-03    0.115E-02
RMM:   9    -0.413178461602E+03    0.68584E-05   -0.13064E-05  3938   0.420E-03    0.817E-03
RMM:  10    -0.413178456213E+03    0.53889E-05   -0.22161E-06  2579   0.245E-03    0.477E-03
RMM:  11    -0.413178451623E+03    0.45894E-05   -0.14653E-06  2530   0.193E-03    0.259E-03
RMM:  12    -0.413178444348E+03    0.72757E-05   -0.17925E-06  2564   0.205E-03    0.117E-03
RMM:  13    -0.413178440659E+03    0.36884E-05   -0.57678E-07  2370   0.134E-03    0.784E-04
RMM:  14    -0.413178440287E+03    0.37287E-06   -0.25950E-07  1954   0.883E-04
   26 T=    63. E= -.41286685E+03 F= -.41317844E+03 E0= -.41315669E+03  EK= 0.31159E+00 SP= 0.00E+00 SK= 0.00E+00
       N       E                     dE             d eps       ncg     rms          rms(c)
RMM:   1    -0.413184796734E+03   -0.63561E-02   -0.77731E+00  4295   0.662E-01    0.904E-01
RMM:   2    -0.413185897639E+03   -0.11009E-02   -0.98455E-02  4289   0.919E-02    0.664E-01
RMM:   3    -0.413181413971E+03    0.44837E-02   -0.30159E-02  4890   0.624E-02    0.161E-01
RMM:   4    -0.413207630102E+03   -0.26216E-01   -0.29536E-02  5118   0.145E-01    0.685E-01
RMM:   5    -0.413180184723E+03    0.27445E-01   -0.13116E-02  4781   0.114E-01    0.487E-02
RMM:   6    -0.413180335438E+03   -0.15072E-03   -0.24002E-03  5815   0.467E-02    0.337E-02
RMM:   7    -0.413180328610E+03    0.68284E-05   -0.37627E-04  5612   0.193E-02    0.215E-02
RMM:   8    -0.413180317942E+03    0.10668E-04   -0.62992E-05  5003   0.904E-03    0.109E-02
RMM:   9    -0.413180312949E+03    0.49932E-05   -0.12237E-05  3851   0.409E-03    0.772E-03
RMM:  10    -0.413180310081E+03    0.28676E-05   -0.20868E-06  2562   0.239E-03    0.449E-03
RMM:  11    -0.413180307681E+03    0.24004E-05   -0.13463E-06  2519   0.186E-03    0.241E-03
RMM:  12    -0.413180303701E+03    0.39800E-05   -0.15936E-06  2532   0.195E-03    0.112E-03
RMM:  13    -0.413180301433E+03    0.22677E-05   -0.53504E-07  2343   0.129E-03    0.743E-04
RMM:  14    -0.413180301002E+03    0.43145E-06   -0.23994E-07  1890   0.859E-04
   27 T=    64. E= -.41286711E+03 F= -.41318030E+03 E0= -.41315860E+03  EK= 0.31319E+00 SP= 0.00E+00 SK= 0.00E+00
       N       E                     dE             d eps       ncg     rms          rms(c)
RMM:   1    -0.413186203177E+03   -0.59017E-02   -0.78682E+00  4295   0.671E-01    0.915E-01
RMM:   2    -0.413187146736E+03   -0.94356E-03   -0.99885E-02  4286   0.927E-02    0.674E-01
RMM:   3    -0.413182502671E+03    0.46441E-02   -0.31480E-02  4871   0.631E-02    0.166E-01
RMM:   4    -0.413207824528E+03   -0.25322E-01   -0.28391E-02  5124   0.142E-01    0.675E-01
RMM:   5    -0.413181215075E+03    0.26609E-01   -0.12709E-02  4779   0.112E-01    0.482E-02
RMM:   6    -0.413181371448E+03   -0.15637E-03   -0.23288E-03  5821   0.460E-02    0.332E-02
RMM:   7    -0.413181370474E+03    0.97429E-06   -0.35659E-04  5604   0.190E-02    0.210E-02
RMM:   8    -0.413181362226E+03    0.82480E-05   -0.62011E-05  4982   0.897E-03    0.109E-02
RMM:   9    -0.413181358206E+03    0.40202E-05   -0.12010E-05  3829   0.413E-03    0.768E-03
RMM:  10    -0.413181356522E+03    0.16840E-05   -0.22172E-06  2594   0.250E-03    0.443E-03
RMM:  11    -0.413181354856E+03    0.16656E-05   -0.14024E-06  2525   0.191E-03    0.236E-03
RMM:  12    -0.413181352060E+03    0.27965E-05   -0.15922E-06  2526   0.198E-03    0.112E-03
RMM:  13    -0.413181350365E+03    0.16947E-05   -0.52575E-07  2338   0.129E-03    0.717E-04
RMM:  14    -0.413181349861E+03    0.50452E-06   -0.23848E-07  1882   0.856E-04
   28 T=    64. E= -.41286676E+03 F= -.41318135E+03 E0= -.41315970E+03  EK= 0.31459E+00 SP= 0.00E+00 SK= 0.00E+00
       N       E                     dE             d eps       ncg     rms          rms(c)
RMM:   1    -0.413189049256E+03   -0.76989E-02   -0.78620E+00  4294   0.696E-01    0.930E-01
RMM:   2    -0.413189176006E+03   -0.12675E-03   -0.10115E-01  4286   0.965E-02    0.672E-01
RMM:   3    -0.413184100810E+03    0.50752E-02   -0.28917E-02  4762   0.602E-02    0.126E-01
RMM:   4    -0.413204972054E+03   -0.20871E-01   -0.22207E-02  5132   0.126E-01    0.610E-01
RMM:   5    -0.413183325555E+03    0.21646E-01   -0.10511E-02  4796   0.101E-01    0.471E-02
RMM:   6    -0.413183436334E+03   -0.11078E-03   -0.19275E-03  5842   0.415E-02    0.319E-02
RMM:   7    -0.413183429594E+03    0.67397E-05   -0.25334E-04  5578   0.170E-02    0.175E-02
RMM:   8    -0.413183422159E+03    0.74352E-05   -0.51446E-05  4954   0.776E-03    0.106E-02
RMM:   9    -0.413183415923E+03    0.62359E-05   -0.10032E-05  3658   0.376E-03    0.753E-03
RMM:  10    -0.413183410900E+03    0.50227E-05   -0.20241E-06  2567   0.242E-03    0.420E-03
RMM:  11    -0.413183405822E+03    0.50777E-05   -0.15753E-06  2538   0.198E-03    0.218E-03
RMM:  12    -0.413183399070E+03    0.67525E-05   -0.13758E-06  2515   0.186E-03    0.111E-03
RMM:  13    -0.413183396509E+03    0.25609E-05   -0.49265E-07  2310   0.122E-03    0.683E-04
RMM:  14    -0.413183395355E+03    0.11544E-05   -0.22892E-07  1816   0.835E-04    0.500E-04
RMM:  15    -0.413183390731E+03    0.46236E-05   -0.20538E-07  2007   0.824E-04    0.403E-04
RMM:  16    -0.413183386109E+03    0.46217E-05   -0.14230E-07  1600   0.704E-04    0.458E-04
RMM:  17    -0.413183384259E+03    0.18504E-05   -0.47987E-08   890   0.547E-04    0.358E-04
RMM:  18    -0.413183379732E+03    0.45264E-05   -0.76668E-08  1115   0.624E-04    0.789E-05
RMM:  19    -0.413183377880E+03    0.18521E-05   -0.36586E-08   890   0.575E-04    0.113E-04
RMM:  20    -0.413183377826E+03    0.54173E-07   -0.13847E-08   696   0.541E-04
   29 T=    64. E= -.41286697E+03 F= -.41318338E+03 E0= -.41316178E+03  EK= 0.31640E+00 SP= 0.00E+00 SK= 0.00E+00
       N       E                     dE             d eps       ncg     rms          rms(c)
RMM:   1    -0.413191885196E+03   -0.85073E-02   -0.78581E+00  4291   0.711E-01    0.913E-01
RMM:   2    -0.413191313619E+03    0.57158E-03   -0.10002E-01  4282   0.988E-02    0.668E-01
RMM:   3    -0.413186072910E+03    0.52407E-02   -0.30138E-02  4759   0.647E-02    0.141E-01
RMM:   4    -0.413207327253E+03   -0.21254E-01   -0.22904E-02  5127   0.128E-01    0.618E-01
RMM:   5    -0.413185141632E+03    0.22186E-01   -0.10764E-02  4793   0.102E-01    0.466E-02
RMM:   6    -0.413185262572E+03   -0.12094E-03   -0.19410E-03  5843   0.415E-02    0.308E-02
RMM:   7    -0.413185261477E+03    0.10951E-05   -0.22885E-04  5595   0.158E-02    0.159E-02
RMM:   8    -0.413185257640E+03    0.38374E-05   -0.41983E-05  4883   0.690E-03    0.100E-02
RMM:   9    -0.413185253295E+03    0.43449E-05   -0.98215E-06  3664   0.357E-03    0.728E-03
RMM:  10    -0.413185251083E+03    0.22117E-05   -0.18584E-06  2547   0.233E-03    0.416E-03
RMM:  11    -0.413185248691E+03    0.23923E-05   -0.14984E-06  2535   0.192E-03    0.221E-03
RMM:  12    -0.413185244900E+03    0.37903E-05   -0.13952E-06  2506   0.186E-03    0.115E-03
RMM:  13    -0.413185243398E+03    0.15029E-05   -0.46406E-07  2314   0.121E-03    0.714E-04
RMM:  14    -0.413185242767E+03    0.63097E-06   -0.20432E-07  1776   0.810E-04
   30 T=    65. E= -.41286700E+03 F= -.41318524E+03 E0= -.41316369E+03  EK= 0.31824E+00 SP= 0.00E+00 SK= 0.00E+00
       N       E                     dE             d eps       ncg     rms          rms(c)
RMM:   1    -0.413194010870E+03   -0.87675E-02   -0.79818E+00  4295   0.712E-01    0.918E-01
RMM:   2    -0.413193402085E+03    0.60879E-03   -0.10377E-01  4279   0.103E-01    0.679E-01
RMM:   3    -0.413187622411E+03    0.57797E-02   -0.31954E-02  4650   0.670E-02    0.142E-01
RMM:   4    -0.413202617837E+03   -0.14995E-01   -0.16043E-02  5133   0.109E-01    0.524E-01
RMM:   5    -0.413186836360E+03    0.15781E-01   -0.77471E-03  4805   0.860E-02    0.438E-02
RMM:   6    -0.413186920484E+03   -0.84124E-04   -0.14249E-03  5850   0.353E-02    0.283E-02
RMM:   7    -0.413186924034E+03   -0.35493E-05   -0.17639E-04  5489   0.145E-02    0.146E-02
RMM:   8    -0.413186916542E+03    0.74912E-05   -0.29073E-05  4611   0.585E-03    0.842E-03
RMM:   9    -0.413186916631E+03   -0.88698E-07   -0.76462E-06  3400   0.324E-03
   31 T=    65. E= -.41286686E+03 F= -.41318692E+03 E0= -.41316542E+03  EK= 0.32006E+00 SP= 0.00E+00 SK= 0.00E+00
       N       E                     dE             d eps       ncg     rms          rms(c)
RMM:   1    -0.413196890028E+03   -0.99735E-02   -0.79773E+00  4296   0.735E-01    0.937E-01
RMM:   2    -0.413195730281E+03    0.11597E-02   -0.10409E-01  4319   0.107E-01    0.679E-01
RMM:   3    -0.413194934211E+03    0.79607E-03   -0.32856E-02  5042   0.974E-02    0.315E-01
RMM:   4    -0.413217130694E+03   -0.22196E-01   -0.40945E-02  5060   0.173E-01    0.686E-01
RMM:   5    -0.413189410426E+03    0.27720E-01   -0.11239E-02  4698   0.112E-01    0.551E-02
RMM:   6    -0.413189529333E+03   -0.11891E-03   -0.23432E-03  5699   0.463E-02    0.362E-02
RMM:   7    -0.413189525087E+03    0.42460E-05   -0.41407E-04  5617   0.194E-02    0.233E-02
RMM:   8    -0.413189517860E+03    0.72268E-05   -0.67748E-05  5137   0.978E-03    0.101E-02
RMM:   9    -0.413189510340E+03    0.75201E-05   -0.10547E-05  3575   0.405E-03    0.543E-03
RMM:  10    -0.413189504943E+03    0.53969E-05   -0.21761E-06  2585   0.238E-03    0.333E-03
RMM:  11    -0.413189499971E+03    0.49724E-05   -0.11183E-06  2498   0.173E-03    0.174E-03
RMM:  12    -0.413189492050E+03    0.79206E-05   -0.10622E-06  2485   0.161E-03    0.720E-04
RMM:  13    -0.413189488046E+03    0.40038E-05   -0.49783E-07  2295   0.117E-03    0.495E-04
RMM:  14    -0.413189486010E+03    0.20360E-05   -0.24933E-07  1841   0.851E-04    0.364E-04
RMM:  15    -0.413189480797E+03    0.52138E-05   -0.17511E-07  1617   0.761E-04    0.231E-04
RMM:  16    -0.413189474658E+03    0.61389E-05   -0.13247E-07  1375   0.687E-04    0.293E-04
RMM:  17    -0.413189470061E+03    0.45970E-05   -0.83349E-08  1053   0.608E-04    0.202E-04
RMM:  18    -0.413189466370E+03    0.36905E-05   -0.69629E-08  1114   0.607E-04    0.558E-05
RMM:  19    -0.413189464127E+03    0.22435E-05   -0.50408E-08  1064   0.588E-04    0.689E-05
RMM:  20    -0.413189463831E+03    0.29598E-06   -0.20027E-08   744   0.533E-04
   32 T=    66. E= -.41286721E+03 F= -.41318946E+03 E0= -.41316801E+03  EK= 0.32226E+00 SP= 0.00E+00 SK= 0.00E+00
       N       E                     dE             d eps       ncg     rms          rms(c)
RMM:   1    -0.413201192390E+03   -0.11728E-01   -0.79829E+00  4300   0.759E-01    0.925E-01
RMM:   2    -0.413197345444E+03    0.38469E-02   -0.10681E-01  4282   0.111E-01    0.675E-01
RMM:   3    -0.413191901824E+03    0.54436E-02   -0.29443E-02  4593   0.715E-02    0.113E-01
RMM:   4    -0.413206471924E+03   -0.14570E-01   -0.15115E-02  5133   0.104E-01    0.513E-01
RMM:   5    -0.413191331139E+03    0.15141E-01   -0.75627E-03  4814   0.842E-02    0.446E-02
RMM:   6    -0.413191410371E+03   -0.79232E-04   -0.14085E-03  5828   0.350E-02    0.298E-02
RMM:   7    -0.413191413607E+03   -0.32364E-05   -0.22355E-04  5466   0.158E-02    0.175E-02
RMM:   8    -0.413191399169E+03    0.14438E-04   -0.35916E-05  4781   0.679E-03    0.897E-03
RMM:   9    -0.413191397333E+03    0.18358E-05   -0.72878E-06  3278   0.331E-03    0.653E-03
RMM:  10    -0.413191393473E+03    0.38600E-05   -0.16814E-06  2518   0.223E-03    0.350E-03
RMM:  11    -0.413191389943E+03    0.35302E-05   -0.11882E-06  2506   0.176E-03    0.183E-03
RMM:  12    -0.413191385635E+03    0.43078E-05   -0.92154E-07  2464   0.153E-03    0.101E-03
RMM:  13    -0.413191383679E+03    0.19558E-05   -0.35500E-07  2166   0.104E-03    0.494E-04
RMM:  14    -0.413191382311E+03    0.13686E-05   -0.17542E-07  1586   0.758E-04    0.330E-04
RMM:  15    -0.413191378432E+03    0.38787E-05   -0.13982E-07  1585   0.726E-04    0.190E-04
RMM:  16    -0.413191375370E+03    0.30619E-05   -0.73794E-08  1112   0.628E-04    0.168E-04
RMM:  17    -0.413191372513E+03    0.28571E-05   -0.46933E-08   901   0.586E-04    0.115E-04
RMM:  18    -0.413191368067E+03    0.44463E-05   -0.56256E-08  1047   0.607E-04    0.395E-05
RMM:  19    -0.413191366916E+03    0.11508E-05   -0.24132E-08   810   0.558E-04    0.341E-05
RMM:  20    -0.413191366374E+03    0.54215E-06   -0.11767E-08   694   0.543E-04
   33 T=    66. E= -.41286705E+03 F= -.41319137E+03 E0= -.41316996E+03  EK= 0.32432E+00 SP= 0.00E+00 SK= 0.00E+00
       N       E                     dE             d eps       ncg     rms          rms(c)
RMM:   1    -0.413200356697E+03   -0.89898E-02   -0.80677E+00  4305   0.744E-01    0.924E-01
RMM:   2    -0.413199908520E+03    0.44818E-03   -0.10613E-01  4274   0.114E-01    0.684E-01
RMM:   3    -0.413194364250E+03    0.55443E-02   -0.32643E-02  4529   0.771E-02    0.135E-01
RMM:   4    -0.413204411908E+03   -0.10048E-01   -0.10762E-02  5133   0.893E-02    0.434E-01
RMM:   5    -0.413193706888E+03    0.10705E-01   -0.53629E-03  4828   0.711E-02    0.423E-02
RMM:   6    -0.413193769189E+03   -0.62301E-04   -0.10726E-03  5811   0.304E-02    0.287E-02
RMM:   7    -0.413193773610E+03   -0.44206E-05   -0.23872E-04  5353   0.161E-02    0.187E-02
RMM:   8    -0.413193758458E+03    0.15152E-04   -0.27801E-05  4632   0.657E-03    0.813E-03
RMM:   9    -0.413193757827E+03    0.63085E-06   -0.52949E-06  2958   0.289E-03
   34 T=    67. E= -.41286707E+03 F= -.41319376E+03 E0= -.41317240E+03  EK= 0.32669E+00 SP= 0.00E+00 SK= 0.00E+00
       N       E                     dE             d eps       ncg     rms          rms(c)
RMM:   1    -0.413202616782E+03   -0.88583E-02   -0.80853E+00  4304   0.762E-01    0.944E-01
RMM:   2    -0.413202180832E+03    0.43595E-03   -0.10603E-01  4290   0.120E-01    0.687E-01
RMM:   3    -0.413199140355E+03    0.30405E-02   -0.32457E-02  4906   0.962E-02    0.226E-01
RMM:   4    -0.413232206083E+03   -0.33066E-01   -0.42542E-02  5086   0.174E-01    0.778E-01
RMM:   5    -0.413196310559E+03    0.35896E-01   -0.16280E-02  4774   0.129E-01    0.540E-02
RMM:   6    -0.413196495915E+03   -0.18536E-03   -0.30877E-03  5794   0.523E-02    0.368E-02
RMM:   7    -0.413196499019E+03   -0.31045E-05   -0.42744E-04  5631   0.201E-02    0.228E-02
RMM:   8    -0.413196491273E+03    0.77462E-05   -0.87737E-05  5160   0.102E-02    0.128E-02
RMM:   9    -0.413196481403E+03    0.98707E-05   -0.15086E-05  4102   0.471E-03    0.757E-03
RMM:  10    -0.413196476001E+03    0.54010E-05   -0.30103E-06  2704   0.271E-03    0.449E-03
RMM:  11    -0.413196472190E+03    0.38118E-05   -0.12411E-06  2507   0.186E-03    0.261E-03
RMM:  12    -0.413196464289E+03    0.79003E-05   -0.17645E-06  2541   0.208E-03    0.118E-03
RMM:  13    -0.413196459609E+03    0.46807E-05   -0.70016E-07  2402   0.143E-03    0.825E-04
RMM:  14    -0.413196458547E+03    0.10621E-05   -0.29955E-07  2078   0.955E-04    0.541E-04
RMM:  15    -0.413196456491E+03    0.20554E-05   -0.14851E-07  1504   0.730E-04    0.347E-04
RMM:  16    -0.413196449155E+03    0.73360E-05   -0.21562E-07  2148   0.833E-04    0.655E-04
RMM:  17    -0.413196446804E+03    0.23510E-05   -0.69448E-08  1076   0.578E-04    0.535E-04
RMM:  18    -0.413196440767E+03    0.60373E-05   -0.69944E-08   988   0.586E-04    0.334E-04
RMM:  19    -0.413196439399E+03    0.13678E-05   -0.43930E-08   973   0.574E-04    0.891E-05
RMM:  20    -0.413196437115E+03    0.22837E-05   -0.48530E-08  1189   0.604E-04    0.247E-04
RMM:  21    -0.413196436903E+03    0.21240E-06   -0.18326E-08   791   0.529E-04
   35 T=    67. E= -.41286712E+03 F= -.41319644E+03 E0= -.41317513E+03  EK= 0.32931E+00 SP= 0.00E+00 SK= 0.00E+00
       N       E                     dE             d eps       ncg     rms          rms(c)
RMM:   1    -0.413207699889E+03   -0.11263E-01   -0.81072E+00  4305   0.820E-01    0.940E-01
RMM:   2    -0.413204199520E+03    0.35004E-02   -0.11314E-01  4269   0.132E-01    0.684E-01
RMM:   3    -0.413198785058E+03    0.54145E-02   -0.29453E-02  4297   0.813E-02    0.830E-02
RMM:   4    -0.413198598489E+03    0.18657E-03   -0.27756E-04  4716   0.149E-02    0.447E-02
RMM:   5    -0.413198860042E+03   -0.26155E-03   -0.38006E-04  5109   0.175E-02    0.771E-02
RMM:   6    -0.413198650597E+03    0.20944E-03   -0.43545E-04  5206   0.199E-02    0.380E-02
RMM:   7    -0.413198585775E+03    0.64823E-04   -0.22055E-04  4928   0.165E-02    0.189E-02
RMM:   8    -0.413198579243E+03    0.65312E-05   -0.39352E-05  4728   0.593E-03    0.568E-03
RMM:   9    -0.413198577536E+03    0.17074E-05   -0.67397E-06  2560   0.242E-03    0.279E-03
RMM:  10    -0.413198571589E+03    0.59470E-05   -0.12983E-06  2429   0.164E-03    0.917E-04
RMM:  11    -0.413198567220E+03    0.43691E-05   -0.39633E-07  1912   0.101E-03    0.522E-04
RMM:  12    -0.413198562837E+03    0.43826E-05   -0.18015E-07  1524   0.762E-04    0.494E-04
RMM:  13    -0.413198559366E+03    0.34713E-05   -0.91954E-08  1099   0.637E-04    0.341E-04
RMM:  14    -0.413198552546E+03    0.68206E-05   -0.13767E-07  1404   0.700E-04    0.234E-04
RMM:  15    -0.413198550449E+03    0.20962E-05   -0.41257E-08   787   0.572E-04    0.174E-04
RMM:  16    -0.413198545660E+03    0.47898E-05   -0.46734E-08   977   0.596E-04    0.110E-04
RMM:  17    -0.413198542627E+03    0.30328E-05   -0.31273E-08   897   0.561E-04    0.647E-05
RMM:  18    -0.413198541872E+03    0.75510E-06   -0.11043E-08   628   0.508E-04
   36 T=    68. E= -.41286677E+03 F= -.41319854E+03 E0= -.41317728E+03  EK= 0.33177E+00 SP= 0.00E+00 SK= 0.00E+00
       N       E                     dE             d eps       ncg     rms          rms(c)
RMM:   1    -0.413207445587E+03   -0.89030E-02   -0.81677E+00  4312   0.804E-01    0.932E-01
RMM:   2    -0.413207732228E+03   -0.28664E-03   -0.10934E-01  4265   0.125E-01    0.689E-01
RMM:   3    -0.413201969639E+03    0.57626E-02   -0.32925E-02  4408   0.827E-02    0.122E-01
RMM:   4    -0.413205605055E+03   -0.36354E-02   -0.43814E-03  5159   0.588E-02    0.274E-01
RMM:   5    -0.413201489218E+03    0.41158E-02   -0.20698E-03  4809   0.451E-02    0.414E-02
RMM:   6    -0.413201530013E+03   -0.40795E-04   -0.68252E-04  5549   0.259E-02    0.328E-02
RMM:   7    -0.413201516923E+03    0.13091E-04   -0.24950E-04  5090   0.169E-02    0.190E-02
RMM:   8    -0.413201508626E+03    0.82962E-05   -0.30825E-05  4874   0.637E-03    0.795E-03
RMM:   9    -0.413201508040E+03    0.58695E-06   -0.44954E-06  2755   0.253E-03
   37 T=    68. E= -.41286697E+03 F= -.41320151E+03 E0= -.41318029E+03  EK= 0.33454E+00 SP= 0.00E+00 SK= 0.00E+00
       N       E                     dE             d eps       ncg     rms          rms(c)
RMM:   1    -0.413214201259E+03   -0.12693E-01   -0.82717E+00  4312   0.862E-01    0.948E-01
RMM:   2    -0.413210685784E+03    0.35155E-02   -0.11970E-01  4271   0.126E-01    0.698E-01
RMM:   3    -0.413205696524E+03    0.49893E-02   -0.31293E-02  4854   0.831E-02    0.174E-01
RMM:   4    -0.413242598049E+03   -0.36902E-01   -0.42150E-02  5120   0.172E-01    0.809E-01
RMM:   5    -0.413204033589E+03    0.38564E-01   -0.18367E-02  4783   0.134E-01    0.545E-02
RMM:   6    -0.413204139995E+03   -0.10641E-03   -0.32531E-03  5826   0.536E-02    0.355E-02
RMM:   7    -0.413204157160E+03   -0.17165E-04   -0.37969E-04  5597   0.190E-02    0.192E-02
RMM:   8    -0.413204152635E+03    0.45247E-05   -0.51485E-05  4826   0.732E-03    0.103E-02
RMM:   9    -0.413204148301E+03    0.43348E-05   -0.16013E-05  4184   0.431E-03    0.696E-03
RMM:  10    -0.413204145454E+03    0.28465E-05   -0.45982E-06  2959   0.287E-03    0.422E-03
RMM:  11    -0.413204141830E+03    0.36243E-05   -0.14791E-06  2495   0.205E-03    0.257E-03
RMM:  12    -0.413204133663E+03    0.81664E-05   -0.17616E-06  2520   0.212E-03    0.112E-03
RMM:  13    -0.413204129911E+03    0.37528E-05   -0.62133E-07  2421   0.140E-03    0.831E-04
RMM:  14    -0.413204129322E+03    0.58823E-06   -0.26807E-07  2062   0.913E-04
   38 T=    69. E= -.41286691E+03 F= -.41320413E+03 E0= -.41318295E+03  EK= 0.33722E+00 SP= 0.00E+00 SK= 0.00E+00
       N       E                     dE             d eps       ncg     rms          rms(c)
RMM:   1    -0.413221397942E+03   -0.17268E-01   -0.83109E+00  4312   0.932E-01    0.956E-01
RMM:   2    -0.413213311009E+03    0.80869E-02   -0.12398E-01  4261   0.123E-01    0.694E-01
RMM:   3    -0.413207233237E+03    0.60778E-02   -0.28252E-02  4709   0.684E-02    0.105E-01
RMM:   4    -0.413229353086E+03   -0.22120E-01   -0.23011E-02  5135   0.128E-01    0.627E-01
RMM:   5    -0.413206712088E+03    0.22641E-01   -0.11288E-02  4814   0.103E-01    0.490E-02
RMM:   6    -0.413206750698E+03   -0.38610E-04   -0.19962E-03  5799   0.428E-02    0.342E-02
RMM:   7    -0.413206759379E+03   -0.86812E-05   -0.37232E-04  5529   0.190E-02    0.217E-02
RMM:   8    -0.413206740812E+03    0.18568E-04   -0.59242E-05  5123   0.860E-03    0.108E-02
RMM:   9    -0.413206737562E+03    0.32496E-05   -0.11130E-05  3720   0.407E-03    0.678E-03
RMM:  10    -0.413206731276E+03    0.62858E-05   -0.22398E-06  2610   0.245E-03    0.370E-03
RMM:  11    -0.413206726383E+03    0.48933E-05   -0.10650E-06  2494   0.172E-03    0.206E-03
RMM:  12    -0.413206718043E+03    0.83403E-05   -0.12243E-06  2505   0.175E-03    0.111E-03
RMM:  13    -0.413206713579E+03    0.44640E-05   -0.45956E-07  2293   0.119E-03    0.622E-04
RMM:  14    -0.413206712178E+03    0.14008E-05   -0.21596E-07  1816   0.823E-04    0.405E-04
RMM:  15    -0.413206705950E+03    0.62279E-05   -0.15157E-07  1632   0.751E-04    0.243E-04
RMM:  16    -0.413206701108E+03    0.48417E-05   -0.92726E-08  1324   0.658E-04    0.272E-04
RMM:  17    -0.413206696709E+03    0.43989E-05   -0.59738E-08  1086   0.600E-04    0.234E-04
RMM:  18    -0.413206691041E+03    0.56687E-05   -0.57588E-08  1163   0.611E-04    0.866E-05
RMM:  19    -0.413206689956E+03    0.10852E-05   -0.28576E-08   883   0.550E-04    0.456E-05
RMM:  20    -0.413206688765E+03    0.11909E-05   -0.23249E-08   880   0.544E-04    0.592E-05
RMM:  21    -0.413206688677E+03    0.87832E-07   -0.96873E-09   663   0.505E-04
   39 T=    69. E= -.41286683E+03 F= -.41320669E+03 E0= -.41318555E+03  EK= 0.33985E+00 SP= 0.00E+00 SK= 0.00E+00
       N       E                     dE             d eps       ncg     rms          rms(c)
RMM:   1    -0.413220849090E+03   -0.14160E-01   -0.83221E+00  4309   0.936E-01    0.940E-01
RMM:   2    -0.413216802909E+03    0.40462E-02   -0.12303E-01  4265   0.126E-01    0.696E-01
RMM:   3    -0.413211502613E+03    0.53003E-02   -0.31052E-02  4907   0.790E-02    0.177E-01
RMM:   4    -0.413249935031E+03   -0.38432E-01   -0.44398E-02  5121   0.176E-01    0.825E-01
RMM:   5    -0.413209780555E+03    0.40154E-01   -0.19112E-02  4784   0.137E-01    0.552E-02
RMM:   6    -0.413209895585E+03   -0.11503E-03   -0.33272E-03  5819   0.541E-02    0.354E-02
RMM:   7    -0.413209909387E+03   -0.13801E-04   -0.40441E-04  5668   0.191E-02    0.196E-02
RMM:   8    -0.413209909932E+03   -0.54576E-06   -0.65415E-05  5041   0.816E-03    0.114E-02
RMM:   9    -0.413209904914E+03    0.50182E-05   -0.20031E-05  4456   0.480E-03    0.760E-03
RMM:  10    -0.413209903124E+03    0.17900E-05   -0.37954E-06  2780   0.290E-03    0.434E-03
RMM:  11    -0.413209901465E+03    0.16592E-05   -0.14881E-06  2499   0.202E-03    0.266E-03
RMM:  12    -0.413209897118E+03    0.43470E-05   -0.17340E-06  2530   0.210E-03    0.115E-03
RMM:  13    -0.413209894092E+03    0.30258E-05   -0.69961E-07  2433   0.144E-03    0.831E-04
RMM:  14    -0.413209893534E+03    0.55828E-06   -0.28741E-07  2083   0.946E-04
   40 T=    70. E= -.41286723E+03 F= -.41320989E+03 E0= -.41318879E+03  EK= 0.34266E+00 SP= 0.00E+00 SK= 0.00E+00
       N       E                     dE             d eps       ncg     rms          rms(c)
RMM:   1    -0.413221606039E+03   -0.11712E-01   -0.84056E+00  4307   0.944E-01    0.956E-01
RMM:   2    -0.413219232746E+03    0.23733E-02   -0.11718E-01  4264   0.125E-01    0.705E-01
RMM:   3    -0.413213758130E+03    0.54746E-02   -0.33451E-02  4884   0.789E-02    0.177E-01
RMM:   4    -0.413249016167E+03   -0.35258E-01   -0.40451E-02  5125   0.169E-01    0.792E-01
RMM:   5    -0.413212120636E+03    0.36896E-01   -0.17639E-02  4793   0.131E-01    0.543E-02
RMM:   6    -0.413212219530E+03   -0.98893E-04   -0.30440E-03  5809   0.517E-02    0.342E-02
RMM:   7    -0.413212235486E+03   -0.15956E-04   -0.37904E-04  5657   0.184E-02    0.190E-02
RMM:   8    -0.413212228733E+03    0.67522E-05   -0.54568E-05  4944   0.769E-03    0.100E-02
RMM:   9    -0.413212229464E+03   -0.73045E-06   -0.21091E-05  4523   0.482E-03    0.773E-03
RMM:  10    -0.413212224444E+03    0.50197E-05   -0.33407E-06  2733   0.283E-03    0.420E-03
RMM:  11    -0.413212222115E+03    0.23293E-05   -0.14426E-06  2501   0.195E-03    0.254E-03
RMM:  12    -0.413212216149E+03    0.59657E-05   -0.18579E-06  2544   0.214E-03    0.129E-03
RMM:  13    -0.413212212937E+03    0.32118E-05   -0.66237E-07  2415   0.143E-03    0.843E-04
RMM:  14    -0.413212212274E+03    0.66349E-06   -0.26608E-07  2011   0.920E-04
   41 T=    70. E= -.41286705E+03 F= -.41321221E+03 E0= -.41319114E+03  EK= 0.34516E+00 SP= 0.00E+00 SK= 0.00E+00
       N       E                     dE             d eps       ncg     rms          rms(c)
RMM:   1    -0.413232845668E+03   -0.20633E-01   -0.84738E+00  4312   0.106E+00    0.971E-01
RMM:   2    -0.413221610491E+03    0.11235E-01   -0.12712E-01  4300   0.131E-01    0.704E-01
RMM:   3    -0.413217117499E+03    0.44930E-02   -0.30253E-02  4998   0.787E-02    0.202E-01
RMM:   4    -0.413258282983E+03   -0.41165E-01   -0.50745E-02  5117   0.189E-01    0.856E-01
RMM:   5    -0.413214784523E+03    0.43498E-01   -0.20121E-02  4775   0.142E-01    0.587E-02
RMM:   6    -0.413214917190E+03   -0.13267E-03   -0.35908E-03  5796   0.560E-02    0.367E-02
RMM:   7    -0.413214928377E+03   -0.11187E-04   -0.44147E-04  5725   0.198E-02    0.212E-02
RMM:   8    -0.413214927777E+03    0.59998E-06   -0.90931E-05  5180   0.961E-03    0.133E-02
RMM:   9    -0.413214916945E+03    0.10831E-04   -0.22757E-05  4557   0.541E-03    0.745E-03
RMM:  10    -0.413214911643E+03    0.53023E-05   -0.40094E-06  2791   0.296E-03    0.435E-03
RMM:  11    -0.413214907772E+03    0.38710E-05   -0.13808E-06  2502   0.199E-03    0.263E-03
RMM:  12    -0.413214898840E+03    0.89326E-05   -0.14661E-06  2506   0.200E-03    0.116E-03
RMM:  13    -0.413214892689E+03    0.61504E-05   -0.65799E-07  2430   0.141E-03    0.747E-04
RMM:  14    -0.413214891633E+03    0.10561E-05   -0.28806E-07  2093   0.946E-04    0.479E-04
RMM:  15    -0.413214889325E+03    0.23077E-05   -0.14049E-07  1477   0.718E-04    0.329E-04
RMM:  16    -0.413214881106E+03    0.82197E-05   -0.16183E-07  1907   0.781E-04    0.511E-04
RMM:  17    -0.413214879286E+03    0.18198E-05   -0.53541E-08   961   0.566E-04    0.391E-04
RMM:  18    -0.413214872529E+03    0.67566E-05   -0.64673E-08  1160   0.609E-04    0.267E-04
RMM:  19    -0.413214871506E+03    0.10231E-05   -0.31748E-08   866   0.548E-04    0.105E-04
RMM:  20    -0.413214869227E+03    0.22791E-05   -0.49244E-08  1218   0.611E-04    0.230E-04
RMM:  21    -0.413214868916E+03    0.31094E-06   -0.14942E-08   719   0.527E-04
   42 T=    71. E= -.41286723E+03 F= -.41321487E+03 E0= -.41319383E+03  EK= 0.34764E+00 SP= 0.00E+00 SK= 0.00E+00
       N       E                     dE             d eps       ncg     rms          rms(c)
RMM:   1    -0.413228581622E+03   -0.13712E-01   -0.84018E+00  4315   0.107E+00    0.953E-01
RMM:   2    -0.413223975843E+03    0.46058E-02   -0.12299E-01  4342   0.131E-01    0.702E-01
RMM:   3    -0.413220771278E+03    0.32046E-02   -0.33277E-02  5026   0.896E-02    0.258E-01
RMM:   4    -0.413256975262E+03   -0.36204E-01   -0.50733E-02  5101   0.191E-01    0.821E-01
RMM:   5    -0.413217017660E+03    0.39958E-01   -0.17646E-02  4754   0.136E-01    0.581E-02
RMM:   6    -0.413217118186E+03   -0.10053E-03   -0.32081E-03  5763   0.533E-02    0.356E-02
RMM:   7    -0.413217129515E+03   -0.11329E-04   -0.42476E-04  5693   0.198E-02    0.218E-02
RMM:   8    -0.413217130553E+03   -0.10382E-05   -0.10834E-04  5206   0.107E-02    0.133E-02
RMM:   9    -0.413217119885E+03    0.10669E-04   -0.19033E-05  4395   0.539E-03    0.636E-03
RMM:  10    -0.413217117053E+03    0.28315E-05   -0.39155E-06  2806   0.278E-03    0.381E-03
RMM:  11    -0.413217114764E+03    0.22890E-05   -0.12192E-06  2495   0.187E-03    0.220E-03
RMM:  12    -0.413217109601E+03    0.51632E-05   -0.12049E-06  2493   0.179E-03    0.101E-03
RMM:  13    -0.413217105747E+03    0.38537E-05   -0.55593E-07  2362   0.127E-03    0.577E-04
RMM:  14    -0.413217104739E+03    0.10079E-05   -0.25838E-07  1930   0.880E-04    0.367E-04
RMM:  15    -0.413217102316E+03    0.24238E-05   -0.13851E-07  1396   0.711E-04    0.188E-04
RMM:  16    -0.413217097774E+03    0.45419E-05   -0.11201E-07  1347   0.688E-04    0.203E-04
RMM:  17    -0.413217095426E+03    0.23473E-05   -0.59491E-08   970   0.609E-04    0.128E-04
RMM:  18    -0.413217091288E+03    0.41382E-05   -0.66045E-08  1218   0.634E-04    0.119E-04
RMM:  19    -0.413217089255E+03    0.20329E-05   -0.36266E-08   934   0.574E-04    0.409E-05
RMM:  20    -0.413217088212E+03    0.10434E-05   -0.24687E-08   838   0.556E-04    0.255E-05
RMM:  21    -0.413217087877E+03    0.33523E-06   -0.15404E-08   731   0.536E-04
   43 T=    71. E= -.41286737E+03 F= -.41321709E+03 E0= -.41319607E+03  EK= 0.34971E+00 SP= 0.00E+00 SK= 0.00E+00
       N       E                     dE             d eps       ncg     rms          rms(c)
RMM:   1    -0.413230309614E+03   -0.13221E-01   -0.85066E+00  4316   0.110E+00    0.958E-01
RMM:   2    -0.413225542830E+03    0.47668E-02   -0.12563E-01  4357   0.139E-01    0.712E-01
RMM:   3    -0.413222989127E+03    0.25537E-02   -0.35555E-02  5033   0.962E-02    0.292E-01
RMM:   4    -0.413257023631E+03   -0.34035E-01   -0.51769E-02  5099   0.194E-01    0.810E-01
RMM:   5    -0.413218206781E+03    0.38817E-01   -0.16655E-02  4738   0.134E-01    0.581E-02
RMM:   6    -0.413218291552E+03   -0.84772E-04   -0.30802E-03  5762   0.523E-02    0.344E-02
RMM:   7    -0.413218305754E+03   -0.14202E-04   -0.42005E-04  5695   0.196E-02    0.217E-02
RMM:   8    -0.413218308263E+03   -0.25086E-05   -0.11147E-04  5199   0.109E-02    0.129E-02
RMM:   9    -0.413218299373E+03    0.88899E-05   -0.17859E-05  4324   0.537E-03    0.588E-03
RMM:  10    -0.413218297568E+03    0.18044E-05   -0.38335E-06  2796   0.272E-03    0.356E-03
RMM:  11    -0.413218295922E+03    0.16461E-05   -0.12278E-06  2500   0.185E-03    0.200E-03
RMM:  12    -0.413218292092E+03    0.38302E-05   -0.11249E-06  2493   0.170E-03    0.911E-04
RMM:  13    -0.413218289097E+03    0.29946E-05   -0.51788E-07  2323   0.121E-03    0.493E-04
RMM:  14    -0.413218287968E+03    0.11296E-05   -0.24117E-07  1816   0.845E-04    0.307E-04
RMM:  15    -0.413218284918E+03    0.30500E-05   -0.14905E-07  1379   0.723E-04    0.152E-04
RMM:  16    -0.413218281761E+03    0.31573E-05   -0.10495E-07  1228   0.671E-04    0.153E-04
RMM:  17    -0.413218279294E+03    0.24664E-05   -0.72095E-08  1119   0.627E-04    0.109E-04
RMM:  18    -0.413218276746E+03    0.25484E-05   -0.55435E-08  1087   0.608E-04    0.748E-05
RMM:  19    -0.413218273903E+03    0.28430E-05   -0.44828E-08  1067   0.594E-04    0.351E-05
RMM:  20    -0.413218273346E+03    0.55718E-06   -0.21615E-08   783   0.539E-04
   44 T=    71. E= -.41286716E+03 F= -.41321827E+03 E0= -.41319728E+03  EK= 0.35111E+00 SP= 0.00E+00 SK= 0.00E+00
       N       E                     dE             d eps       ncg     rms          rms(c)
RMM:   1    -0.413236244500E+03   -0.17971E-01   -0.84956E+00  4314   0.122E+00    0.977E-01
RMM:   2    -0.413226584745E+03    0.96598E-02   -0.12893E-01  4361   0.149E-01    0.711E-01
RMM:   3    -0.413226106925E+03    0.47782E-03   -0.34554E-02  5062   0.105E-01    0.341E-01
RMM:   4    -0.413252134740E+03   -0.26028E-01   -0.49158E-02  5067   0.191E-01    0.742E-01
RMM:   5    -0.413219549892E+03    0.32585E-01   -0.12954E-02  4712   0.122E-01    0.586E-02
RMM:   6    -0.413219584641E+03   -0.34749E-04   -0.25182E-03  5710   0.479E-02    0.345E-02
RMM:   7    -0.413219592289E+03   -0.76479E-05   -0.39227E-04  5645   0.193E-02    0.226E-02
RMM:   8    -0.413219588938E+03    0.33508E-05   -0.11368E-04  5147   0.113E-02    0.123E-02
RMM:   9    -0.413219578274E+03    0.10664E-04   -0.14784E-05  4174   0.519E-03    0.520E-03
RMM:  10    -0.413219574027E+03    0.42472E-05   -0.33976E-06  2774   0.253E-03    0.313E-03
RMM:  11    -0.413219570190E+03    0.38369E-05   -0.10764E-06  2490   0.175E-03    0.169E-03
RMM:  12    -0.413219563413E+03    0.67767E-05   -0.83208E-07  2457   0.151E-03    0.786E-04
RMM:  13    -0.413219559158E+03    0.42551E-05   -0.38115E-07  2151   0.107E-03    0.364E-04
RMM:  14    -0.413219556965E+03    0.21935E-05   -0.19699E-07  1633   0.791E-04    0.227E-04
RMM:  15    -0.413219550845E+03    0.61192E-05   -0.13961E-07  1372   0.727E-04    0.173E-04
RMM:  16    -0.413219548122E+03    0.27238E-05   -0.82429E-08  1104   0.646E-04    0.116E-04
RMM:  17    -0.413219544911E+03    0.32110E-05   -0.66260E-08  1134   0.634E-04    0.774E-05
RMM:  18    -0.413219541067E+03    0.38433E-05   -0.60679E-08  1245   0.627E-04    0.448E-05
RMM:  19    -0.413219538875E+03    0.21920E-05   -0.37081E-08  1007   0.571E-04    0.353E-05
RMM:  20    -0.413219538256E+03    0.61888E-06   -0.21564E-08   796   0.535E-04
   45 T=    72. E= -.41286741E+03 F= -.41321954E+03 E0= -.41319857E+03  EK= 0.35213E+00 SP= 0.00E+00 SK= 0.00E+00
       N       E                     dE             d eps       ncg     rms          rms(c)
RMM:   1    -0.413241375728E+03   -0.21837E-01   -0.84688E+00  4312   0.132E+00    0.958E-01
RMM:   2    -0.413226291860E+03    0.15084E-01   -0.13877E-01  4382   0.159E-01    0.706E-01
RMM:   3    -0.413227997125E+03   -0.17053E-02   -0.33713E-02  5079   0.114E-01    0.396E-01
RMM:   4    -0.413248370546E+03   -0.20373E-01   -0.49513E-02  5063   0.193E-01    0.703E-01
RMM:   5    -0.413219198955E+03    0.29172E-01   -0.10898E-02  4679   0.115E-01    0.590E-02
RMM:   6    -0.413219204988E+03   -0.60334E-05   -0.22224E-03  5650   0.451E-02    0.333E-02
RMM:   7    -0.413219216057E+03   -0.11069E-04   -0.36858E-04  5629   0.188E-02    0.228E-02
RMM:   8    -0.413219212293E+03    0.37639E-05   -0.11426E-04  5106   0.115E-02    0.113E-02
RMM:   9    -0.413219202716E+03    0.95779E-05   -0.13597E-05  4101   0.517E-03    0.463E-03
RMM:  10    -0.413219199214E+03    0.35012E-05   -0.30874E-06  2748   0.240E-03    0.277E-03
RMM:  11    -0.413219195257E+03    0.39572E-05   -0.10790E-06  2487   0.171E-03    0.144E-03
RMM:  12    -0.413219189710E+03    0.55469E-05   -0.70805E-07  2419   0.138E-03    0.701E-04
RMM:  13    -0.413219185977E+03    0.37336E-05   -0.33869E-07  1985   0.988E-04    0.304E-04
RMM:  14    -0.413219183143E+03    0.28333E-05   -0.18633E-07  1501   0.766E-04    0.178E-04
RMM:  15    -0.413219177720E+03    0.54232E-05   -0.14272E-07  1310   0.724E-04    0.130E-04
RMM:  16    -0.413219175103E+03    0.26176E-05   -0.90150E-08  1167   0.659E-04    0.884E-05
RMM:  17    -0.413219170323E+03    0.47795E-05   -0.91675E-08  1428   0.674E-04    0.614E-05
RMM:  18    -0.413219168003E+03    0.23202E-05   -0.50178E-08  1044   0.581E-04    0.349E-05
RMM:  19    -0.413219166231E+03    0.17719E-05   -0.34480E-08   932   0.556E-04    0.242E-05
RMM:  20    -0.413219165960E+03    0.27078E-06   -0.19751E-08   743   0.523E-04
   46 T=    72. E= -.41286711E+03 F= -.41321917E+03 E0= -.41319821E+03  EK= 0.35205E+00 SP= 0.00E+00 SK= 0.00E+00
       N       E                     dE             d eps       ncg     rms          rms(c)
RMM:   1    -0.413236471236E+03   -0.17305E-01   -0.84653E+00  4314   0.136E+00    0.951E-01
RMM:   2    -0.413225343359E+03    0.11128E-01   -0.13487E-01  4400   0.168E-01    0.712E-01
RMM:   3    -0.413229851621E+03   -0.45083E-02   -0.38657E-02  5077   0.128E-01    0.457E-01
RMM:   4    -0.413242735590E+03   -0.12884E-01   -0.48121E-02  5040   0.192E-01    0.649E-01
RMM:   5    -0.413217954212E+03    0.24781E-01   -0.86918E-03  4643   0.108E-01    0.571E-02
RMM:   6    -0.413217932927E+03    0.21284E-04   -0.18506E-03  5554   0.413E-02    0.307E-02
RMM:   7    -0.413217943335E+03   -0.10408E-04   -0.31304E-04  5598   0.175E-02    0.213E-02
RMM:   8    -0.413217938655E+03    0.46801E-05   -0.11189E-04  5071   0.113E-02    0.103E-02
RMM:   9    -0.413217931341E+03    0.73141E-05   -0.12059E-05  3969   0.496E-03    0.436E-03
RMM:  10    -0.413217929111E+03    0.22295E-05   -0.26735E-06  2693   0.230E-03    0.257E-03
RMM:  11    -0.413217926278E+03    0.28331E-05   -0.11302E-06  2489   0.170E-03    0.130E-03
RMM:  12    -0.413217922577E+03    0.37017E-05   -0.69281E-07  2381   0.133E-03    0.667E-04
RMM:  13    -0.413217919785E+03    0.27917E-05   -0.33262E-07  1891   0.951E-04    0.295E-04
RMM:  14    -0.413217917189E+03    0.25956E-05   -0.19149E-07  1403   0.755E-04    0.164E-04
RMM:  15    -0.413217913229E+03    0.39605E-05   -0.15869E-07  1385   0.730E-04    0.119E-04
RMM:  16    -0.413217910777E+03    0.24518E-05   -0.10071E-07  1178   0.655E-04    0.811E-05
RMM:  17    -0.413217906059E+03    0.47181E-05   -0.11105E-07  1481   0.688E-04    0.565E-05
RMM:  18    -0.413217904402E+03    0.16564E-05   -0.50679E-08   999   0.559E-04    0.306E-05
RMM:  19    -0.413217903192E+03    0.12104E-05   -0.31455E-08   837   0.534E-04    0.173E-05
RMM:  20    -0.413217902843E+03    0.34902E-06   -0.19272E-08   731   0.517E-04
   47 T=    71. E= -.41286697E+03 F= -.41321790E+03 E0= -.41319696E+03  EK= 0.35093E+00 SP= 0.00E+00 SK= 0.00E+00
       N       E                     dE             d eps       ncg     rms          rms(c)
RMM:   1    -0.413234731577E+03   -0.16828E-01   -0.83507E+00  4312   0.143E+00    0.967E-01
RMM:   2    -0.413222773819E+03    0.11958E-01   -0.13220E-01  4445   0.176E-01    0.710E-01
RMM:   3    -0.413233651239E+03   -0.10877E-01   -0.42336E-02  5105   0.146E-01    0.561E-01
RMM:   4    -0.413232200822E+03    0.14504E-02   -0.44455E-02  5000   0.188E-01    0.531E-01
RMM:   5    -0.413215706358E+03    0.16494E-01   -0.51520E-03  4582   0.920E-02    0.561E-02
RMM:   6    -0.413215634810E+03    0.71548E-04   -0.10311E-03  5171   0.331E-02    0.290E-02
RMM:   7    -0.413215647061E+03   -0.12251E-04   -0.19235E-04  5526   0.141E-02    0.164E-02
RMM:   8    -0.413215649506E+03   -0.24452E-05   -0.10477E-04  5181   0.105E-02    0.109E-02
RMM:   9    -0.413215637014E+03    0.12492E-04   -0.13395E-05  4129   0.511E-03    0.422E-03
RMM:  10    -0.413215634042E+03    0.29716E-05   -0.28843E-06  2708   0.235E-03    0.234E-03
RMM:  11    -0.413215629045E+03    0.49971E-05   -0.12068E-06  2459   0.180E-03    0.123E-03
RMM:  12    -0.413215624834E+03    0.42106E-05   -0.56256E-07  2311   0.128E-03    0.701E-04
RMM:  13    -0.413215620599E+03    0.42350E-05   -0.27571E-07  1753   0.914E-04    0.325E-04
RMM:  14    -0.413215616214E+03    0.43855E-05   -0.15208E-07  1321   0.727E-04    0.169E-04
RMM:  15    -0.413215611863E+03    0.43503E-05   -0.11153E-07  1233   0.684E-04    0.121E-04
RMM:  16    -0.413215608797E+03    0.30659E-05   -0.74481E-08  1104   0.632E-04    0.924E-05
RMM:  17    -0.413215603123E+03    0.56749E-05   -0.84336E-08  1366   0.656E-04    0.665E-05
RMM:  18    -0.413215601655E+03    0.14678E-05   -0.32423E-08   843   0.531E-04    0.506E-05
RMM:  19    -0.413215600171E+03    0.14840E-05   -0.23022E-08   759   0.522E-04    0.254E-05
RMM:  20    -0.413215599353E+03    0.81786E-06   -0.17344E-08   708   0.512E-04
   48 T=    71. E= -.41286710E+03 F= -.41321560E+03 E0= -.41319467E+03  EK= 0.34850E+00 SP= 0.00E+00 SK= 0.00E+00
       N       E                     dE             d eps       ncg     rms          rms(c)
RMM:   1    -0.413232727714E+03   -0.17128E-01   -0.81919E+00  4306   0.154E+00    0.955E-01
RMM:   2    -0.413217988032E+03    0.14740E-01   -0.13301E-01  4512   0.189E-01    0.699E-01
RMM:   3    -0.413236967934E+03   -0.18980E-01   -0.46838E-02  5137   0.165E-01    0.673E-01
RMM:   4    -0.413222029668E+03    0.14938E-01   -0.43832E-02  4969   0.191E-01    0.435E-01
RMM:   5    -0.413211070391E+03    0.10959E-01   -0.36445E-03  4571   0.846E-02    0.581E-02
RMM:   6    -0.413210943854E+03    0.12654E-03   -0.52681E-04  4780   0.280E-02    0.295E-02
RMM:   7    -0.413210953868E+03   -0.10014E-04   -0.19763E-04  5808   0.152E-02    0.160E-02
RMM:   8    -0.413210942410E+03    0.11457E-04   -0.67625E-05  5146   0.921E-03    0.937E-03
RMM:   9    -0.413210937136E+03    0.52746E-05   -0.11707E-05  4089   0.457E-03    0.411E-03
RMM:  10    -0.413210933648E+03    0.34877E-05   -0.17839E-06  2594   0.221E-03    0.232E-03
RMM:  11    -0.413210927841E+03    0.58070E-05   -0.10946E-06  2479   0.173E-03    0.146E-03
RMM:  12    -0.413210924341E+03    0.35001E-05   -0.45361E-07  2314   0.117E-03    0.773E-04
RMM:  13    -0.413210919108E+03    0.52325E-05   -0.34502E-07  2146   0.973E-04    0.460E-04
RMM:  14    -0.413210914295E+03    0.48130E-05   -0.17174E-07  1432   0.736E-04    0.296E-04
RMM:  15    -0.413210909791E+03    0.45045E-05   -0.11142E-07  1130   0.653E-04    0.136E-04
RMM:  16    -0.413210906604E+03    0.31874E-05   -0.79423E-08  1123   0.625E-04    0.870E-05
RMM:  17    -0.413210900625E+03    0.59782E-05   -0.92450E-08  1423   0.664E-04    0.131E-04
RMM:  18    -0.413210899417E+03    0.12083E-05   -0.38415E-08   892   0.533E-04    0.992E-05
RMM:  19    -0.413210897771E+03    0.16463E-05   -0.31766E-08   882   0.527E-04    0.378E-05
RMM:  20    -0.413210896254E+03    0.15170E-05   -0.23419E-08   810   0.516E-04    0.308E-05
RMM:  21    -0.413210896075E+03    0.17902E-06   -0.12171E-08   637   0.484E-04
   49 T=    70. E= -.41286678E+03 F= -.41321090E+03 E0= -.41318997E+03  EK= 0.34411E+00 SP= 0.00E+00 SK= 0.00E+00
[...]
RMM:  12    -0.413633962958E+03   -0.10385E-06   -0.26309E-06  2704   0.266E-03
  139 T=   157. E= -.41286260E+03 F= -.41363396E+03 E0= -.41361030E+03  EK= 0.77136E+00 SP= 0.00E+00 SK= 0.00E+00
       N       E                     dE             d eps       ncg     rms          rms(c)
RMM:   1    -0.413849229628E+03   -0.21527E+00   -0.17950E+01  4266   0.726E+00    0.108E+00
RMM:   2    -0.413748052025E+03    0.10118E+00   -0.59006E-01  5370   0.796E-01    0.917E-01
RMM:   3    -0.413781876608E+03   -0.33825E-01   -0.10109E-01  5555   0.340E-01    0.111E+00
RMM:   4    -0.413744464109E+03    0.37412E-01   -0.41548E-02  4981   0.254E-01    0.398E-01
RMM:   5    -0.413744334822E+03    0.12929E-03   -0.25541E-02  4963   0.208E-01    0.198E-01
RMM:   6    -0.413743299820E+03    0.10350E-02   -0.77219E-03  5220   0.107E-01    0.110E-01
RMM:   7    -0.413742789815E+03    0.51000E-03   -0.15317E-03  4985   0.513E-02    0.489E-02
RMM:   8    -0.413742815044E+03   -0.25228E-04   -0.68120E-04  5892   0.298E-02    0.305E-02
RMM:   9    -0.413742809180E+03    0.58635E-05   -0.13087E-04  5427   0.145E-02    0.173E-02
RMM:  10    -0.413742803744E+03    0.54366E-05   -0.56939E-05  5607   0.875E-03    0.724E-03
RMM:  11    -0.413742805494E+03   -0.17499E-05   -0.12565E-05  4023   0.423E-03    0.444E-03
RMM:  12    -0.413742806404E+03   -0.91027E-06   -0.27858E-06  2738   0.265E-03
  140 T=   179. E= -.41286475E+03 F= -.41374281E+03 E0= -.41371947E+03  EK= 0.87806E+00 SP= 0.00E+00 SK= 0.00E+00
       N       E                     dE             d eps       ncg     rms          rms(c)
RMM:   1    -0.414042345029E+03   -0.29954E+00   -0.21464E+01  4277   0.793E+00    0.105E+00
RMM:   2    -0.413898227596E+03    0.14412E+00   -0.69599E-01  5379   0.868E-01    0.952E-01
RMM:   3    -0.413916283886E+03   -0.18056E-01   -0.10268E-01  5626   0.349E-01    0.102E+00
RMM:   4    -0.413890579909E+03    0.25704E-01   -0.40460E-02  5116   0.247E-01    0.480E-01
RMM:   5    -0.413890404951E+03    0.17496E-03   -0.28385E-02  4861   0.226E-01    0.250E-01
RMM:   6    -0.413889279145E+03    0.11258E-02   -0.10480E-02  5184   0.124E-01    0.139E-01
RMM:   7    -0.413888431037E+03    0.84811E-03   -0.20961E-03  4852   0.622E-02    0.602E-02
RMM:   8    -0.413888464193E+03   -0.33156E-04   -0.11809E-03  5909   0.384E-02    0.402E-02
RMM:   9    -0.413888451152E+03    0.13041E-04   -0.26560E-04  5434   0.197E-02    0.278E-02
RMM:  10    -0.413888430131E+03    0.21021E-04   -0.95830E-05  5485   0.122E-02    0.946E-03
RMM:  11    -0.413888433576E+03   -0.34446E-05   -0.30929E-05  5223   0.596E-03    0.638E-03
RMM:  12    -0.413888436025E+03   -0.24497E-05   -0.53199E-06  3123   0.343E-03    0.246E-03
RMM:  13    -0.413888437317E+03   -0.12918E-05   -0.98643E-07  2513   0.180E-03    0.104E-03
RMM:  14    -0.413888438639E+03   -0.13216E-05   -0.46453E-07  2313   0.115E-03    0.452E-04
RMM:  15    -0.413888439772E+03   -0.11336E-05   -0.27711E-07  1650   0.866E-04    0.245E-04
RMM:  16    -0.413888441071E+03   -0.12990E-05   -0.22392E-07  1476   0.794E-04    0.116E-04
RMM:  17    -0.413888441781E+03   -0.70956E-06   -0.15198E-07  1274   0.708E-04
  141 T=   208. E= -.41286751E+03 F= -.41388844E+03 E0= -.41386555E+03  EK= 0.10209E+01 SP= 0.00E+00 SK= 0.00E+00
       N       E                     dE             d eps       ncg     rms          rms(c)
RMM:   1    -0.414276301581E+03   -0.38786E+00   -0.25970E+01  4285   0.866E+00    0.113E+00
RMM:   2    -0.414040648353E+03    0.23565E+00   -0.78590E-01  5394   0.970E-01    0.107E+00
RMM:   3    -0.414061488328E+03   -0.20840E-01   -0.12792E-01  5673   0.390E-01    0.113E+00
RMM:   4    -0.414031197391E+03    0.30291E-01   -0.47889E-02  5180   0.262E-01    0.603E-01
RMM:   5    -0.414030084015E+03    0.11134E-02   -0.34374E-02  4657   0.255E-01    0.296E-01
RMM:   6    -0.414028857501E+03    0.12265E-02   -0.14487E-02  5123   0.148E-01    0.163E-01
RMM:   7    -0.414027619579E+03    0.12379E-02   -0.31214E-03  4886   0.759E-02    0.748E-02
RMM:   8    -0.414027604180E+03    0.15399E-04   -0.15019E-03  5852   0.449E-02    0.502E-02
RMM:   9    -0.414027582354E+03    0.21826E-04   -0.46393E-04  5313   0.265E-02    0.329E-02
RMM:  10    -0.414027554429E+03    0.27926E-04   -0.11672E-04  5479   0.141E-02    0.118E-02
RMM:  11    -0.414027559175E+03   -0.47464E-05   -0.49234E-05  5612   0.772E-03    0.809E-03
RMM:  12    -0.414027562433E+03   -0.32578E-05   -0.79765E-06  3606   0.406E-03    0.308E-03
RMM:  13    -0.414027564172E+03   -0.17395E-05   -0.18067E-06  2658   0.205E-03    0.139E-03
RMM:  14    -0.414027566074E+03   -0.19016E-05   -0.66954E-07  2427   0.137E-03    0.559E-04
RMM:  15    -0.414027567513E+03   -0.14396E-05   -0.39411E-07  2026   0.999E-04    0.320E-04
RMM:  16    -0.414027569242E+03   -0.17290E-05   -0.29878E-07  1564   0.858E-04    0.148E-04
RMM:  17    -0.414027570264E+03   -0.10217E-05   -0.19820E-07  1361   0.757E-04    0.111E-04
RMM:  18    -0.414027571665E+03   -0.14006E-05   -0.19025E-07  1434   0.740E-04    0.690E-05
RMM:  19    -0.414027572388E+03   -0.72364E-06   -0.11821E-07  1189   0.644E-04
  142 T=   234. E= -.41287727E+03 F= -.41402757E+03 E0= -.41400521E+03  EK= 0.11503E+01 SP= 0.00E+00 SK= 0.00E+00
       N       E                     dE             d eps       ncg     rms          rms(c)
RMM:   1    -0.414379891598E+03   -0.35232E+00   -0.29531E+01  4289   0.916E+00    0.143E+00
RMM:   2    -0.414047909399E+03    0.33198E+00   -0.88367E-01  5404   0.108E+00    0.132E+00
RMM:   3    -0.414092156451E+03   -0.44247E-01   -0.16355E-01  5736   0.439E-01    0.135E+00
RMM:   4    -0.414056942368E+03    0.35214E-01   -0.76586E-02  5250   0.298E-01    0.888E-01
RMM:   5    -0.414046250077E+03    0.10692E-01   -0.69938E-02  4623   0.354E-01    0.354E-01
RMM:   6    -0.414042518919E+03    0.37312E-02   -0.15806E-02  4977   0.165E-01    0.168E-01
RMM:   7    -0.414041318247E+03    0.12007E-02   -0.34330E-03  4949   0.807E-02    0.920E-02
RMM:   8    -0.414041161626E+03    0.15662E-03   -0.15742E-03  5709   0.483E-02    0.581E-02
RMM:   9    -0.414041140591E+03    0.21035E-04   -0.72527E-04  5129   0.334E-02    0.334E-02
RMM:  10    -0.414041119948E+03    0.20644E-04   -0.13331E-04  5551   0.153E-02    0.155E-02
RMM:  11    -0.414041124519E+03   -0.45713E-05   -0.62040E-05  5601   0.929E-03    0.951E-03
RMM:  12    -0.414041128872E+03   -0.43530E-05   -0.11671E-05  4027   0.476E-03    0.378E-03
RMM:  13    -0.414041131801E+03   -0.29295E-05   -0.38033E-06  2895   0.261E-03    0.236E-03
RMM:  14    -0.414041134634E+03   -0.28322E-05   -0.10449E-06  2496   0.179E-03    0.105E-03
RMM:  15    -0.414041136845E+03   -0.22115E-05   -0.60077E-07  2330   0.125E-03    0.562E-04
RMM:  16    -0.414041139181E+03   -0.23358E-05   -0.39130E-07  1811   0.964E-04    0.256E-04
RMM:  17    -0.414041140849E+03   -0.16682E-05   -0.26383E-07  1583   0.820E-04    0.154E-04
RMM:  18    -0.414041142642E+03   -0.17929E-05   -0.23953E-07  1569   0.768E-04    0.123E-04
RMM:  19    -0.414041143867E+03   -0.12249E-05   -0.16264E-07  1326   0.669E-04    0.938E-05
RMM:  20    -0.414041144927E+03   -0.10601E-05   -0.11345E-07  1169   0.614E-04    0.644E-05
RMM:  21    -0.414041146043E+03   -0.11155E-05   -0.91717E-08  1154   0.596E-04    0.485E-05
RMM:  22    -0.414041146313E+03   -0.27043E-06   -0.43772E-08   922   0.543E-04
  143 T=   235. E= -.41288880E+03 F= -.41404115E+03 E0= -.41401938E+03  EK= 0.11523E+01 SP= 0.00E+00 SK= 0.00E+00
       N       E                     dE             d eps       ncg     rms          rms(c)
RMM:   1    -0.414104117442E+03   -0.62971E-01   -0.27157E+01  4288   0.891E+00    0.169E+00
RMM:   2    -0.413835738252E+03    0.26838E+00   -0.83764E-01  5413   0.107E+00    0.161E+00
RMM:   3    -0.413875689851E+03   -0.39952E-01   -0.16426E-01  5743   0.424E-01    0.150E+00
RMM:   4    -0.413854137146E+03    0.21553E-01   -0.91142E-02  5189   0.317E-01    0.110E+00
RMM:   5    -0.413836847328E+03    0.17290E-01   -0.10548E-01  4492   0.430E-01    0.452E-01
RMM:   6    -0.413828651746E+03    0.81956E-02   -0.12481E-02  4497   0.171E-01    0.162E-01
RMM:   7    -0.413828038476E+03    0.61327E-03   -0.33955E-03  5483   0.757E-02    0.102E-01
RMM:   8    -0.413827830135E+03    0.20834E-03   -0.17182E-03  5473   0.497E-02    0.609E-02
RMM:   9    -0.413827792077E+03    0.38058E-04   -0.74238E-04  4846   0.344E-02    0.275E-02
RMM:  10    -0.413827791075E+03    0.10025E-05   -0.14244E-04  5752   0.148E-02    0.150E-02
RMM:  11    -0.413827796364E+03   -0.52892E-05   -0.45373E-05  5354   0.804E-03    0.857E-03
RMM:  12    -0.413827801248E+03   -0.48844E-05   -0.83410E-06  3359   0.378E-03    0.412E-03
RMM:  13    -0.413827806051E+03   -0.48026E-05   -0.28045E-06  2738   0.252E-03    0.275E-03
RMM:  14    -0.413827809945E+03   -0.38944E-05   -0.14454E-06  2581   0.195E-03    0.124E-03
RMM:  15    -0.413827812720E+03   -0.27747E-05   -0.81801E-07  2412   0.141E-03    0.531E-04
RMM:  16    -0.413827815107E+03   -0.23870E-05   -0.48583E-07  2127   0.107E-03    0.299E-04
RMM:  17    -0.413827817535E+03   -0.24280E-05   -0.37105E-07  1778   0.901E-04    0.188E-04
RMM:  18    -0.413827819384E+03   -0.18490E-05   -0.25817E-07  1494   0.778E-04    0.122E-04
RMM:  19    -0.413827821397E+03   -0.20136E-05   -0.24127E-07  1574   0.753E-04    0.727E-05
RMM:  20    -0.413827822845E+03   -0.14477E-05   -0.15950E-07  1310   0.660E-04    0.535E-05
RMM:  21    -0.413827824145E+03   -0.12997E-05   -0.11407E-07  1179   0.614E-04    0.374E-05
RMM:  22    -0.413827824785E+03   -0.63982E-06   -0.64208E-08  1003   0.565E-04
  144 T=   194. E= -.41287283E+03 F= -.41382782E+03 E0= -.41380706E+03  EK= 0.95500E+00 SP= 0.00E+00 SK= 0.00E+00
       N       E                     dE             d eps       ncg     rms          rms(c)
RMM:   1    -0.413750288805E+03    0.77535E-01   -0.19217E+01  4290   0.783E+00    0.108E+00
RMM:   2    -0.413636468370E+03    0.11382E+00   -0.51790E-01  5421   0.831E-01    0.104E+00
RMM:   3    -0.413655631112E+03   -0.19163E-01   -0.95844E-02  5904   0.310E-01    0.108E+00
RMM:   4    -0.413633182155E+03    0.22449E-01   -0.23367E-02  5026   0.181E-01    0.671E-01
RMM:   5    -0.413634486652E+03   -0.13045E-02   -0.53168E-02  4424   0.307E-01    0.294E-01
RMM:   6    -0.413630697565E+03    0.37891E-02   -0.83080E-03  4629   0.130E-01    0.137E-01
RMM:   7    -0.413630301672E+03    0.39589E-03   -0.19867E-03  5650   0.573E-02    0.988E-02
RMM:   8    -0.413630083427E+03    0.21825E-03   -0.82959E-04  4499   0.387E-02    0.418E-02
RMM:   9    -0.413630095690E+03   -0.12263E-04   -0.50445E-04  4766   0.285E-02    0.221E-02
RMM:  10    -0.413630097465E+03   -0.17747E-05   -0.83956E-05  5559   0.108E-02    0.132E-02
RMM:  11    -0.413630102842E+03   -0.53774E-05   -0.22223E-05  4528   0.602E-03    0.635E-03
RMM:  12    -0.413630108674E+03   -0.58322E-05   -0.51143E-06  3066   0.318E-03    0.287E-03
RMM:  13    -0.413630113513E+03   -0.48384E-05   -0.18384E-06  2635   0.205E-03    0.167E-03
RMM:  14    -0.413630117186E+03   -0.36732E-05   -0.12428E-06  2541   0.171E-03    0.703E-04
RMM:  15    -0.413630119938E+03   -0.27523E-05   -0.69439E-07  2335   0.125E-03    0.344E-04
RMM:  16    -0.413630121489E+03   -0.15506E-05   -0.39950E-07  1896   0.964E-04    0.242E-04
RMM:  17    -0.413630124234E+03   -0.27451E-05   -0.45971E-07  1880   0.960E-04    0.171E-04
RMM:  18    -0.413630125373E+03   -0.11395E-05   -0.22725E-07  1424   0.753E-04    0.872E-05
RMM:  19    -0.413630126724E+03   -0.13509E-05   -0.19669E-07  1468   0.731E-04    0.532E-05
RMM:  20    -0.413630127658E+03   -0.93351E-06   -0.12948E-07  1274   0.647E-04
  145 T=   158. E= -.41285204E+03 F= -.41363013E+03 E0= -.41361080E+03  EK= 0.77809E+00 SP= 0.00E+00 SK= 0.00E+00
       N       E                     dE             d eps       ncg     rms          rms(c)
RMM:   1    -0.413781094803E+03   -0.15097E+00   -0.17122E+01  4298   0.777E+00    0.116E+00
RMM:   2    -0.413688074282E+03    0.93021E-01   -0.37172E-01  5357   0.726E-01    0.863E-01
RMM:   3    -0.413777429486E+03   -0.89355E-01   -0.14411E-01  5629   0.387E-01    0.139E+00
RMM:   4    -0.413685851502E+03    0.91578E-01   -0.70179E-02  4989   0.298E-01    0.375E-01
RMM:   5    -0.413685653588E+03    0.19791E-03   -0.41280E-02  5235   0.245E-01    0.241E-01
RMM:   6    -0.413683563747E+03    0.20898E-02   -0.99667E-03  5252   0.124E-01    0.127E-01
RMM:   7    -0.413683199186E+03    0.36456E-03   -0.14716E-03  5174   0.505E-02    0.714E-02
RMM:   8    -0.413683152975E+03    0.46211E-04   -0.77501E-04  5457   0.344E-02    0.329E-02
RMM:   9    -0.413683170202E+03   -0.17227E-04   -0.25355E-04  5495   0.189E-02    0.207E-02
RMM:  10    -0.413683174695E+03   -0.44931E-05   -0.63862E-05  5358   0.980E-03    0.110E-02
RMM:  11    -0.413683186027E+03   -0.11332E-04   -0.25258E-05  4825   0.621E-03    0.649E-03
RMM:  12    -0.413683194926E+03   -0.88987E-05   -0.68392E-06  3304   0.372E-03    0.302E-03
RMM:  13    -0.413683199188E+03   -0.42619E-05   -0.22263E-06  2691   0.225E-03    0.137E-03
RMM:  14    -0.413683203741E+03   -0.45531E-05   -0.15721E-06  2586   0.185E-03    0.726E-04
RMM:  15    -0.413683206862E+03   -0.31208E-05   -0.10784E-06  2424   0.142E-03    0.512E-04
RMM:  16    -0.413683208616E+03   -0.17541E-05   -0.75367E-07  2123   0.112E-03    0.293E-04
RMM:  17    -0.413683209494E+03   -0.87812E-06   -0.76121E-07  2239   0.111E-03
  146 T=   164. E= -.41287700E+03 F= -.41368321E+03 E0= -.41366479E+03  EK= 0.80621E+00 SP= 0.00E+00 SK= 0.00E+00
       N       E                     dE             d eps       ncg     rms          rms(c)
RMM:   1    -0.413813132153E+03   -0.12992E+00   -0.18470E+01  4301   0.836E+00    0.146E+00
RMM:   2    -0.413726105656E+03    0.87026E-01   -0.45129E-01  5354   0.826E-01    0.124E+00
RMM:   3    -0.413776612944E+03   -0.50507E-01   -0.15369E-01  5561   0.412E-01    0.146E+00
RMM:   4    -0.413706380375E+03    0.70233E-01   -0.78890E-02  5062   0.325E-01    0.586E-01
RMM:   5    -0.413704682154E+03    0.16982E-02   -0.53549E-02  4988   0.291E-01    0.311E-01
RMM:   6    -0.413702404923E+03    0.22772E-02   -0.19359E-02  5282   0.168E-01    0.172E-01
RMM:   7    -0.413701237582E+03    0.11673E-02   -0.24744E-03  4696   0.717E-02    0.891E-02
RMM:   8    -0.413701172394E+03    0.65189E-04   -0.11780E-03  5685   0.404E-02    0.524E-02
RMM:   9    -0.413701174691E+03   -0.22972E-05   -0.51310E-04  4900   0.273E-02    0.218E-02
RMM:  10    -0.413701187324E+03   -0.12633E-04   -0.10564E-04  5679   0.123E-02    0.135E-02
RMM:  11    -0.413701202907E+03   -0.15584E-04   -0.44091E-05  5040   0.834E-03    0.861E-03
RMM:  12    -0.413701222699E+03   -0.19792E-04   -0.11802E-05  3753   0.500E-03    0.385E-03
RMM:  13    -0.413701231484E+03   -0.87846E-05   -0.51593E-06  3017   0.303E-03    0.195E-03
RMM:  14    -0.413701237907E+03   -0.64231E-05   -0.29603E-06  2758   0.237E-03    0.111E-03
RMM:  15    -0.413701241502E+03   -0.35948E-05   -0.21864E-06  2643   0.191E-03    0.796E-04
RMM:  16    -0.413701243276E+03   -0.17746E-05   -0.20597E-06  2549   0.170E-03    0.458E-04
RMM:  17    -0.413701242296E+03    0.98097E-06   -0.14948E-06  2351   0.140E-03
  147 T=   167. E= -.41288039E+03 F= -.41370124E+03 E0= -.41368311E+03  EK= 0.82085E+00 SP= 0.00E+00 SK= 0.00E+00
       N       E                     dE             d eps       ncg     rms          rms(c)
RMM:   1    -0.413653822645E+03    0.47421E-01   -0.16225E+01  4301   0.797E+00    0.978E-01
RMM:   2    -0.413607071232E+03    0.46751E-01   -0.39798E-01  5345   0.764E-01    0.934E-01
RMM:   3    -0.413618590744E+03   -0.11520E-01   -0.84919E-02  5633   0.311E-01    0.996E-01
RMM:   4    -0.413590267539E+03    0.28323E-01   -0.27296E-02  5044   0.198E-01    0.527E-01
RMM:   5    -0.413590834851E+03   -0.56731E-03   -0.30142E-02  4973   0.212E-01    0.317E-01
RMM:   6    -0.413589619393E+03    0.12155E-02   -0.21298E-02  5319   0.167E-01    0.175E-01
RMM:   7    -0.413588571580E+03    0.10478E-02   -0.30724E-03  5339   0.742E-02    0.117E-01
RMM:   8    -0.413588298890E+03    0.27269E-03   -0.91629E-04  5156   0.372E-02    0.645E-02
RMM:   9    -0.413588292502E+03    0.63885E-05   -0.97866E-04  4910   0.342E-02    0.168E-02
RMM:  10    -0.413588322951E+03   -0.30449E-04   -0.11569E-04  5685   0.127E-02    0.125E-02
RMM:  11    -0.413588335882E+03   -0.12932E-04   -0.31184E-05  4386   0.721E-03    0.659E-03
RMM:  12    -0.413588358137E+03   -0.22255E-04   -0.11902E-05  3559   0.496E-03    0.344E-03
RMM:  13    -0.413588367965E+03   -0.98280E-05   -0.50675E-06  3008   0.297E-03    0.178E-03
RMM:  14    -0.413588374696E+03   -0.67311E-05   -0.38581E-06  2878   0.252E-03    0.132E-03
RMM:  15    -0.413588377676E+03   -0.29791E-05   -0.34092E-06  2789   0.222E-03    0.827E-04
RMM:  16    -0.413588377303E+03    0.37206E-06   -0.25531E-06  2595   0.180E-03
  148 T=   146. E= -.41287049E+03 F= -.41358838E+03 E0= -.41357034E+03  EK= 0.71789E+00 SP= 0.00E+00 SK= 0.00E+00
       N       E                     dE             d eps       ncg     rms          rms(c)
RMM:   1    -0.413491226981E+03    0.97151E-01   -0.12728E+01  4295   0.708E+00    0.670E-01
RMM:   2    -0.413467955887E+03    0.23271E-01   -0.28610E-01  5328   0.650E-01    0.639E-01
RMM:   3    -0.413478472114E+03   -0.10516E-01   -0.47565E-02  5661   0.233E-01    0.719E-01
RMM:   4    -0.413463290956E+03    0.15181E-01   -0.13543E-02  5076   0.138E-01    0.406E-01
RMM:   5    -0.413463187256E+03    0.10370E-03   -0.14582E-02  4900   0.150E-01    0.221E-01
RMM:   6    -0.413463073670E+03    0.11359E-03   -0.11300E-02  5327   0.122E-01    0.128E-01
RMM:   7    -0.413462557513E+03    0.51616E-03   -0.17391E-03  5532   0.535E-02    0.957E-02
RMM:   8    -0.413462355551E+03    0.20196E-03   -0.59675E-04  4575   0.303E-02    0.463E-02
RMM:   9    -0.413462388047E+03   -0.32495E-04   -0.70182E-04  5253   0.279E-02    0.159E-02
RMM:  10    -0.413462394399E+03   -0.63522E-05   -0.53004E-05  5106   0.932E-03    0.872E-03
RMM:  11    -0.413462404475E+03   -0.10077E-04   -0.18163E-05  4156   0.543E-03    0.451E-03
RMM:  12    -0.413462415820E+03   -0.11344E-04   -0.59647E-06  3132   0.358E-03    0.228E-03
RMM:  13    -0.413462420806E+03   -0.49866E-05   -0.32476E-06  2813   0.239E-03    0.159E-03
RMM:  14    -0.413462422947E+03   -0.21404E-05   -0.25684E-06  2677   0.202E-03    0.908E-04
RMM:  15    -0.413462422763E+03    0.18397E-06   -0.24032E-06  2644   0.184E-03
  149 T=   121. E= -.41286600E+03 F= -.41346242E+03 E0= -.41344443E+03  EK= 0.59642E+00 SP= 0.00E+00 SK= 0.00E+00
       N       E                     dE             d eps       ncg     rms          rms(c)
RMM:   1    -0.413413057264E+03    0.49366E-01   -0.10313E+01  4272   0.619E+00    0.644E-01
RMM:   2    -0.413392634488E+03    0.20423E-01   -0.23958E-01  5234   0.583E-01    0.562E-01
RMM:   3    -0.413402571127E+03   -0.99366E-02   -0.32908E-02  5643   0.202E-01    0.566E-01
RMM:   4    -0.413395919084E+03    0.66520E-02   -0.16211E-02  5250   0.136E-01    0.387E-01
RMM:   5    -0.413393372083E+03    0.25470E-02   -0.99055E-03  4625   0.137E-01    0.126E-01
RMM:   6    -0.413393004553E+03    0.36753E-03   -0.17406E-03  4857   0.587E-02    0.532E-02
RMM:   7    -0.413392986361E+03    0.18192E-04   -0.45102E-04  5736   0.253E-02    0.384E-02
RMM:   8    -0.413392971078E+03    0.15283E-04   -0.27195E-04  5243   0.190E-02    0.229E-02
RMM:   9    -0.413392971973E+03   -0.89468E-06   -0.11393E-04  5107   0.130E-02    0.111E-02
RMM:  10    -0.413392971948E+03    0.25142E-07   -0.21928E-05  4789   0.586E-03    0.632E-03
RMM:  11    -0.413392973187E+03   -0.12390E-05   -0.70008E-06  3427   0.358E-03    0.319E-03
RMM:  12    -0.413392975126E+03   -0.19396E-05   -0.17533E-06  2591   0.227E-03    0.178E-03
RMM:  13    -0.413392976055E+03   -0.92852E-06   -0.12880E-06  2506   0.167E-03
  150 T=   107. E= -.41286516E+03 F= -.41339298E+03 E0= -.41337505E+03  EK= 0.52781E+00 SP= 0.00E+00 SK= 0.00E+00
