       N       E                     dE             d eps       ncg     rms          rms(c)
RMM:   1     0.220146914667E+04    0.22015E+04   -0.52443E+04  2132   0.654E+02
RMM:   2     0.705876584216E+03   -0.14956E+04   -0.16264E+04  2132   0.177E+02
RMM:   3     0.137904650531E+03   -0.56797E+03   -0.65707E+03  2132   0.117E+02
RMM:   4    -0.159199433784E+03   -0.29710E+03   -0.27861E+03  2132   0.936E+01
RMM:   5    -0.287409951224E+03   -0.12821E+03   -0.11451E+03  2132   0.595E+01
RMM:   6    -0.349815184876E+03   -0.62405E+02   -0.55175E+02  2132   0.423E+01
RMM:   7    -0.382695659217E+03   -0.32880E+02   -0.30435E+02  2132   0.293E+01
RMM:   8    -0.404236719237E+03   -0.21541E+02   -0.18433E+02  2132   0.233E+01
RMM:   9    -0.436005899967E+03   -0.31769E+02   -0.30672E+02  6104   0.173E+01
RMM:  10    -0.441319106974E+03   -0.53132E+01   -0.63029E+01  6396   0.540E+00
RMM:  11    -0.442531156730E+03   -0.12120E+01   -0.11227E+01  6229   0.173E+00
RMM:  12    -0.442902955241E+03   -0.37180E+00   -0.27147E+00  6375   0.601E-01    0.134E+02
RMM:  13    -0.425637603904E+03    0.17265E+02   -0.81190E+01  4669   0.119E+01    0.712E+01
RMM:  14    -0.499700704973E+03   -0.74063E+02   -0.54250E+02  5418   0.233E+01    0.307E+01
RMM:  15    -0.414778100723E+03    0.84923E+02   -0.19700E+02  5060   0.163E+01    0.636E+00
RMM:  16    -0.414048621650E+03    0.72948E+00   -0.39648E+01  6078   0.607E+00    0.428E+00
RMM:  17    -0.413220669311E+03    0.82795E+00   -0.23202E+00  5360   0.182E+00    0.245E+00
RMM:  18    -0.413167450335E+03    0.53219E-01   -0.85506E-01  5958   0.957E-01    0.160E+00
RMM:  19    -0.413167849968E+03   -0.39963E-03   -0.28618E-01  5741   0.568E-01    0.843E-01
RMM:  20    -0.413181425905E+03   -0.13576E-01   -0.18912E-01  5380   0.477E-01    0.501E-01
RMM:  21    -0.413168235796E+03    0.13190E-01   -0.31326E-02  5031   0.215E-01    0.243E-01
RMM:  22    -0.413166457851E+03    0.17779E-02   -0.13695E-02  6106   0.976E-02    0.142E-01
RMM:  23    -0.413164803445E+03    0.16544E-02   -0.49324E-03  5826   0.637E-02    0.795E-02
RMM:  24    -0.413163115847E+03    0.16876E-02   -0.17659E-03  5560   0.412E-02    0.362E-02
RMM:  25    -0.413162794084E+03    0.32176E-03   -0.82985E-04  5763   0.243E-02    0.293E-02
RMM:  26    -0.413162956965E+03   -0.16288E-03   -0.63429E-04  5822   0.262E-02    0.324E-02
RMM:  27    -0.413163338940E+03   -0.38197E-03   -0.19883E-04  4597   0.201E-02    0.158E-02
RMM:  28    -0.413163813996E+03   -0.47506E-03   -0.20482E-04  5279   0.204E-02    0.916E-03
RMM:  29    -0.413164134471E+03   -0.32048E-03   -0.95472E-05  4368   0.138E-02    0.450E-03
RMM:  30    -0.413164348954E+03   -0.21448E-03   -0.75783E-05  3997   0.100E-02    0.270E-03
RMM:  31    -0.413164439208E+03   -0.90254E-04   -0.45916E-05  3149   0.571E-03    0.262E-03
RMM:  32    -0.413164459491E+03   -0.20283E-04   -0.18311E-05  2923   0.293E-03    0.106E-03
RMM:  33    -0.413164464866E+03   -0.53748E-05   -0.78992E-06  2722   0.189E-03    0.483E-04
RMM:  34    -0.413164465507E+03   -0.64029E-06   -0.39434E-06  2652   0.163E-03
    1 T=    61. E= -.41286665E+03 F= -.41316447E+03 E0= -.41314197E+03  EK= 0.29781E+00 SP= 0.00E+00 SK= 0.00E+00
       N       E                     dE             d eps       ncg     rms          rms(c)
RMM:   1    -0.413170666509E+03   -0.62016E-02   -0.70138E+00  3983   0.528E-01    0.898E-01
RMM:   2    -0.413170625389E+03    0.41120E-04   -0.88747E-02  3961   0.788E-02    0.661E-01
RMM:   3    -0.413166668449E+03    0.39569E-02   -0.39167E-02  5044   0.736E-02    0.251E-01
RMM:   4    -0.413191667516E+03   -0.24999E-01   -0.34146E-02  5177   0.156E-01    0.689E-01
RMM:   5    -0.413163955908E+03    0.27712E-01   -0.13039E-02  4786   0.117E-01    0.512E-02
RMM:   6    -0.413164137775E+03   -0.18187E-03   -0.23997E-03  5698   0.481E-02    0.334E-02
RMM:   7    -0.413164156328E+03   -0.18552E-04   -0.42977E-04  5777   0.184E-02    0.218E-02
RMM:   8    -0.413164156146E+03    0.18154E-06   -0.53577E-05  5212   0.811E-03    0.858E-03
RMM:   9    -0.413164158232E+03   -0.20856E-05   -0.11080E-05  3525   0.352E-03    0.573E-03
RMM:  10    -0.413164163619E+03   -0.53875E-05   -0.23451E-06  2600   0.222E-03    0.343E-03
RMM:  11    -0.413164167444E+03   -0.38246E-05   -0.11592E-06  2510   0.157E-03    0.183E-03
RMM:  12    -0.413164173432E+03   -0.59878E-05   -0.13060E-06  2519   0.161E-03    0.873E-04
RMM:  13    -0.413164176646E+03   -0.32146E-05   -0.68632E-07  2328   0.118E-03    0.611E-04
RMM:  14    -0.413164176828E+03   -0.18211E-06   -0.35473E-07  1830   0.827E-04
    2 T=    61. E= -.41286638E+03 F= -.41316418E+03 E0= -.41314168E+03  EK= 0.29780E+00 SP= 0.00E+00 SK= 0.00E+00
       N       E                     dE             d eps       ncg     rms          rms(c)
RMM:   1    -0.413171733634E+03   -0.75570E-02   -0.69774E+00  4186   0.528E-01    0.913E-01
RMM:   2    -0.413170863774E+03    0.86986E-03   -0.88843E-02  3957   0.778E-02    0.659E-01
RMM:   3    -0.413166719806E+03    0.41440E-02   -0.35818E-02  5045   0.658E-02    0.213E-01
RMM:   4    -0.413193192992E+03   -0.26473E-01   -0.33285E-02  5146   0.154E-01    0.700E-01
RMM:   5    -0.413164559802E+03    0.28633E-01   -0.13136E-02  4788   0.117E-01    0.501E-02
RMM:   6    -0.413164757104E+03   -0.19730E-03   -0.24679E-03  5713   0.488E-02    0.359E-02
RMM:   7    -0.413164745913E+03    0.11191E-04   -0.44013E-04  5649   0.197E-02    0.233E-02
RMM:   8    -0.413164737561E+03    0.83516E-05   -0.57500E-05  5232   0.875E-03    0.101E-02
RMM:   9    -0.413164736129E+03    0.14320E-05   -0.11569E-05  3723   0.383E-03    0.677E-03
RMM:  10    -0.413164736518E+03   -0.38817E-06   -0.21814E-06  2593   0.234E-03
    3 T=    61. E= -.41286669E+03 F= -.41316474E+03 E0= -.41314224E+03  EK= 0.29804E+00 SP= 0.00E+00 SK= 0.00E+00
       N       E                     dE             d eps       ncg     rms          rms(c)
RMM:   1    -0.413171136054E+03   -0.63999E-02   -0.69301E+00  4219   0.533E-01    0.899E-01
RMM:   2    -0.413170457448E+03    0.67861E-03   -0.88342E-02  4213   0.755E-02    0.653E-01
RMM:   3    -0.413173832702E+03   -0.33753E-02   -0.40746E-02  5174   0.102E-01    0.417E-01
RMM:   4    -0.413180361178E+03   -0.65285E-02   -0.33015E-02  5084   0.159E-01    0.530E-01
RMM:   5    -0.413164495819E+03    0.15865E-01   -0.62844E-03  4600   0.886E-02    0.519E-02
RMM:   6    -0.413164508998E+03   -0.13179E-04   -0.11986E-03  5338   0.348E-02    0.312E-02
RMM:   7    -0.413164522815E+03   -0.13816E-04   -0.24601E-04  5717   0.149E-02    0.181E-02
RMM:   8    -0.413164519866E+03    0.29485E-05   -0.38251E-05  4973   0.742E-03    0.675E-03
RMM:   9    -0.413164519453E+03    0.41289E-06   -0.44761E-06  2853   0.278E-03
    4 T=    61. E= -.41286651E+03 F= -.41316452E+03 E0= -.41314203E+03  EK= 0.29801E+00 SP= 0.00E+00 SK= 0.00E+00
       N       E                     dE             d eps       ncg     rms          rms(c)
RMM:   1    -0.413171119593E+03   -0.65997E-02   -0.70111E+00  4238   0.541E-01    0.896E-01
RMM:   2    -0.413170851892E+03    0.26770E-03   -0.88986E-02  4035   0.733E-02    0.659E-01
RMM:   3    -0.413170369739E+03    0.48215E-03   -0.41002E-02  5125   0.866E-02    0.344E-01
RMM:   4    -0.413187039416E+03   -0.16670E-01   -0.34799E-02  5100   0.160E-01    0.629E-01
RMM:   5    -0.413164557313E+03    0.22482E-01   -0.97685E-03  4689   0.105E-01    0.514E-02
RMM:   6    -0.413164659776E+03   -0.10246E-03   -0.17566E-03  5592   0.419E-02    0.314E-02
RMM:   7    -0.413164681486E+03   -0.21710E-04   -0.32848E-04  5766   0.164E-02    0.197E-02
RMM:   8    -0.413164682571E+03   -0.10850E-05   -0.43550E-05  5045   0.774E-03    0.746E-03
RMM:   9    -0.413164684803E+03   -0.22325E-05   -0.66366E-06  3126   0.310E-03    0.438E-03
RMM:  10    -0.413164689555E+03   -0.47512E-05   -0.16266E-06  2543   0.204E-03    0.268E-03
RMM:  11    -0.413164693212E+03   -0.36572E-05   -0.92206E-07  2501   0.151E-03    0.134E-03
RMM:  12    -0.413164697832E+03   -0.46207E-05   -0.97777E-07  2505   0.140E-03    0.652E-04
RMM:  13    -0.413164700146E+03   -0.23132E-05   -0.51853E-07  2123   0.106E-03    0.385E-04
RMM:  14    -0.413164700665E+03   -0.51981E-06   -0.23605E-07  1606   0.787E-04
    5 T=    61. E= -.41286658E+03 F= -.41316470E+03 E0= -.41314222E+03  EK= 0.29812E+00 SP= 0.00E+00 SK= 0.00E+00
       N       E                     dE             d eps       ncg     rms          rms(c)
RMM:   1    -0.413172020399E+03   -0.73203E-02   -0.69909E+00  4245   0.542E-01    0.911E-01
RMM:   2    -0.413171145659E+03    0.87474E-03   -0.88881E-02  3974   0.733E-02    0.660E-01
RMM:   3    -0.413167696322E+03    0.34493E-02   -0.36681E-02  5064   0.675E-02    0.238E-01
RMM:   4    -0.413193632123E+03   -0.25936E-01   -0.34777E-02  5124   0.158E-01    0.701E-01
RMM:   5    -0.413164980817E+03    0.28651E-01   -0.13007E-02  4757   0.117E-01    0.511E-02
RMM:   6    -0.413165164562E+03   -0.18375E-03   -0.23757E-03  5663   0.484E-02    0.349E-02
RMM:   7    -0.413165164996E+03   -0.43335E-06   -0.42245E-04  5671   0.190E-02    0.226E-02
RMM:   8    -0.413165157598E+03    0.73975E-05   -0.56227E-05  5216   0.862E-03    0.955E-03
RMM:   9    -0.413165156376E+03    0.12221E-05   -0.10597E-05  3612   0.372E-03    0.615E-03
RMM:  10    -0.413165157058E+03   -0.68141E-06   -0.19542E-06  2560   0.225E-03
    6 T=    61. E= -.41286678E+03 F= -.41316516E+03 E0= -.41314269E+03  EK= 0.29838E+00 SP= 0.00E+00 SK= 0.00E+00
       N       E                     dE             d eps       ncg     rms          rms(c)
RMM:   1    -0.413171636879E+03   -0.64805E-02   -0.69469E+00  4257   0.547E-01    0.905E-01
RMM:   2    -0.413170920699E+03    0.71618E-03   -0.88544E-02  4207   0.749E-02    0.654E-01
RMM:   3    -0.413172429183E+03   -0.15085E-02   -0.39055E-02  5144   0.943E-02    0.376E-01
RMM:   4    -0.413183290915E+03   -0.10862E-01   -0.33607E-02  5080   0.159E-01    0.568E-01
RMM:   5    -0.413164888618E+03    0.18402E-01   -0.73747E-03  4642   0.948E-02    0.521E-02
RMM:   6    -0.413164931327E+03   -0.42709E-04   -0.14125E-03  5422   0.377E-02    0.320E-02
RMM:   7    -0.413164944042E+03   -0.12715E-04   -0.27922E-04  5735   0.159E-02    0.192E-02
RMM:   8    -0.413164937579E+03    0.64630E-05   -0.43380E-05  5002   0.791E-03    0.731E-03
RMM:   9    -0.413164935540E+03    0.20392E-05   -0.56052E-06  2991   0.300E-03    0.391E-03
RMM:  10    -0.413164935151E+03    0.38934E-06   -0.14570E-06  2525   0.195E-03
    7 T=    61. E= -.41286651E+03 F= -.41316494E+03 E0= -.41314249E+03  EK= 0.29843E+00 SP= 0.00E+00 SK= 0.00E+00
       N       E                     dE             d eps       ncg     rms          rms(c)
RMM:   1    -0.413171862920E+03   -0.69274E-02   -0.70005E+00  4268   0.555E-01    0.894E-01
RMM:   2    -0.413171872332E+03   -0.94121E-05   -0.88644E-02  4069   0.763E-02    0.658E-01
RMM:   3    -0.413168937460E+03    0.29349E-02   -0.39173E-02  5053   0.771E-02    0.279E-01
RMM:   4    -0.413192486413E+03   -0.23549E-01   -0.34997E-02  5110   0.159E-01    0.685E-01
RMM:   5    -0.413165338280E+03    0.27148E-01   -0.12265E-02  4735   0.115E-01    0.505E-02
RMM:   6    -0.413165511606E+03   -0.17333E-03   -0.22558E-03  5655   0.468E-02    0.335E-02
RMM:   7    -0.413165516141E+03   -0.45348E-05   -0.39789E-04  5660   0.186E-02    0.219E-02
RMM:   8    -0.413165510866E+03    0.52754E-05   -0.53872E-05  5141   0.851E-03    0.902E-03
RMM:   9    -0.413165510459E+03    0.40615E-06   -0.98052E-06  3481   0.359E-03
    8 T=    61. E= -.41286672E+03 F= -.41316551E+03 E0= -.41314308E+03  EK= 0.29879E+00 SP= 0.00E+00 SK= 0.00E+00
       N       E                     dE             d eps       ncg     rms          rms(c)
RMM:   1    -0.413172340892E+03   -0.68300E-02   -0.70127E+00  4290   0.556E-01    0.907E-01
RMM:   2    -0.413171970844E+03    0.37005E-03   -0.88832E-02  4296   0.798E-02    0.661E-01
RMM:   3    -0.413176726834E+03   -0.47560E-02   -0.43118E-02  5142   0.111E-01    0.454E-01
RMM:   4    -0.413180094309E+03   -0.33675E-02   -0.33072E-02  5051   0.159E-01    0.509E-01
RMM:   5    -0.413165670614E+03    0.14424E-01   -0.57772E-03  4572   0.856E-02    0.510E-02
RMM:   6    -0.413165672415E+03   -0.18015E-05   -0.10762E-03  5330   0.328E-02    0.308E-02
RMM:   7    -0.413165684262E+03   -0.11846E-04   -0.22524E-04  5617   0.145E-02    0.175E-02
RMM:   8    -0.413165682580E+03    0.16818E-05   -0.35970E-05  4885   0.732E-03    0.631E-03
RMM:   9    -0.413165682045E+03    0.53508E-06   -0.39762E-06  2800   0.270E-03
    9 T=    61. E= -.41286661E+03 F= -.41316568E+03 E0= -.41314327E+03  EK= 0.29907E+00 SP= 0.00E+00 SK= 0.00E+00
       N       E                     dE             d eps       ncg     rms          rms(c)
RMM:   1    -0.413172606339E+03   -0.69238E-02   -0.69766E+00  4291   0.559E-01    0.911E-01
RMM:   2    -0.413171849683E+03    0.75666E-03   -0.89105E-02  4215   0.787E-02    0.657E-01
RMM:   3    -0.413170697756E+03    0.11519E-02   -0.37187E-02  5089   0.846E-02    0.310E-01
RMM:   4    -0.413189155306E+03   -0.18458E-01   -0.35083E-02  5091   0.160E-01    0.637E-01
RMM:   5    -0.413165655496E+03    0.23500E-01   -0.98573E-03  4701   0.105E-01    0.522E-02
RMM:   6    -0.413165766437E+03   -0.11094E-03   -0.18980E-03  5600   0.430E-02    0.336E-02
RMM:   7    -0.413165766332E+03    0.10495E-06   -0.34682E-04  5724   0.172E-02    0.210E-02
RMM:   8    -0.413165759295E+03    0.70376E-05   -0.46695E-05  5077   0.817E-03    0.817E-03
RMM:   9    -0.413165756317E+03    0.29781E-05   -0.76703E-06  3207   0.328E-03    0.477E-03
RMM:  10    -0.413165754503E+03    0.18132E-05   -0.17546E-06  2543   0.213E-03    0.287E-03
RMM:  11    -0.413165752890E+03    0.16129E-05   -0.93423E-07  2484   0.155E-03    0.147E-03
RMM:  12    -0.413165750051E+03    0.28396E-05   -0.10023E-06  2497   0.147E-03    0.715E-04
RMM:  13    -0.413165747839E+03    0.22122E-05   -0.52463E-07  2224   0.110E-03    0.449E-04
RMM:  14    -0.413165747077E+03    0.76180E-06   -0.22829E-07  1663   0.799E-04
   10 T=    61. E= -.41286646E+03 F= -.41316575E+03 E0= -.41314336E+03  EK= 0.29929E+00 SP= 0.00E+00 SK= 0.00E+00
       N       E                     dE             d eps       ncg     rms          rms(c)
RMM:   1    -0.413172967161E+03   -0.72193E-02   -0.69908E+00  4293   0.565E-01    0.894E-01
RMM:   2    -0.413172718712E+03    0.24845E-03   -0.88803E-02  4198   0.772E-02    0.656E-01
RMM:   3    -0.413169299210E+03    0.34195E-02   -0.38075E-02  5045   0.707E-02    0.254E-01
RMM:   4    -0.413194502805E+03   -0.25204E-01   -0.34616E-02  5114   0.157E-01    0.696E-01
RMM:   5    -0.413166346853E+03    0.28156E-01   -0.13012E-02  4748   0.116E-01    0.500E-02
RMM:   6    -0.413166529128E+03   -0.18228E-03   -0.22896E-03  5663   0.475E-02    0.342E-02
RMM:   7    -0.413166532277E+03   -0.31492E-05   -0.40824E-04  5625   0.188E-02    0.221E-02
RMM:   8    -0.413166527732E+03    0.45458E-05   -0.55087E-05  5199   0.848E-03    0.923E-03
RMM:   9    -0.413166526879E+03    0.85235E-06   -0.10342E-05  3582   0.367E-03    0.595E-03
RMM:  10    -0.413166528557E+03   -0.16775E-05   -0.18885E-06  2550   0.220E-03    0.352E-03
RMM:  11    -0.413166529575E+03   -0.10188E-05   -0.89775E-07  2489   0.155E-03    0.192E-03
RMM:  12    -0.413166530939E+03   -0.13639E-05   -0.12214E-06  2508   0.165E-03    0.968E-04
RMM:  13    -0.413166531167E+03   -0.22795E-06   -0.53344E-07  2330   0.120E-03
   11 T=    61. E= -.41286680E+03 F= -.41316653E+03 E0= -.41314417E+03  EK= 0.29973E+00 SP= 0.00E+00 SK= 0.00E+00
       N       E                     dE             d eps       ncg     rms          rms(c)
RMM:   1    -0.413173221692E+03   -0.66908E-02   -0.70444E+00  4294   0.570E-01    0.905E-01
RMM:   2    -0.413172665336E+03    0.55636E-03   -0.89363E-02  4213   0.780E-02    0.663E-01
RMM:   3    -0.413168867060E+03    0.37983E-02   -0.38179E-02  5020   0.679E-02    0.240E-01
RMM:   4    -0.413194694746E+03   -0.25828E-01   -0.33661E-02  5116   0.155E-01    0.698E-01
RMM:   5    -0.413166320120E+03    0.28375E-01   -0.13199E-02  4762   0.117E-01    0.489E-02
RMM:   6    -0.413166517057E+03   -0.19694E-03   -0.23717E-03  5717   0.478E-02    0.345E-02
RMM:   7    -0.413166510295E+03    0.67616E-05   -0.41439E-04  5625   0.194E-02    0.225E-02
RMM:   8    -0.413166505924E+03    0.43716E-05   -0.56354E-05  5116   0.864E-03    0.990E-03
RMM:   9    -0.413166504795E+03    0.11281E-05   -0.10962E-05  3637   0.380E-03    0.663E-03
RMM:  10    -0.413166506044E+03   -0.12488E-05   -0.19507E-06  2559   0.226E-03    0.388E-03
RMM:  11    -0.413166506865E+03   -0.82040E-06   -0.10132E-06  2491   0.164E-03
   12 T=    61. E= -.41286654E+03 F= -.41316651E+03 E0= -.41314418E+03  EK= 0.29997E+00 SP= 0.00E+00 SK= 0.00E+00
       N       E                     dE             d eps       ncg     rms          rms(c)
RMM:   1    -0.413174123634E+03   -0.76176E-02   -0.70104E+00  4294   0.573E-01    0.916E-01
RMM:   2    -0.413172957005E+03    0.11666E-02   -0.89450E-02  4231   0.752E-02    0.659E-01
RMM:   3    -0.413168779658E+03    0.41773E-02   -0.35147E-02  5024   0.600E-02    0.197E-01
RMM:   4    -0.413195185119E+03   -0.26405E-01   -0.31994E-02  5124   0.151E-01    0.695E-01
RMM:   5    -0.413166920544E+03    0.28265E-01   -0.13189E-02  4777   0.116E-01    0.489E-02
RMM:   6    -0.413167118896E+03   -0.19835E-03   -0.23961E-03  5732   0.483E-02    0.356E-02
RMM:   7    -0.413167104557E+03    0.14339E-04   -0.42317E-04  5633   0.198E-02    0.232E-02
RMM:   8    -0.413167092809E+03    0.11749E-04   -0.56728E-05  5098   0.869E-03    0.105E-02
RMM:   9    -0.413167088011E+03    0.47973E-05   -0.11355E-05  3665   0.386E-03    0.722E-03
RMM:  10    -0.413167084730E+03    0.32809E-05   -0.21224E-06  2569   0.236E-03    0.415E-03
RMM:  11    -0.413167082367E+03    0.23630E-05   -0.11466E-06  2503   0.173E-03    0.229E-03
RMM:  12    -0.413167077860E+03    0.45070E-05   -0.16418E-06  2559   0.191E-03    0.112E-03
RMM:  13    -0.413167074785E+03    0.30755E-05   -0.60327E-07  2399   0.131E-03    0.852E-04
RMM:  14    -0.413167074773E+03    0.12202E-07   -0.23759E-07  1878   0.850E-04
   13 T=    61. E= -.41286664E+03 F= -.41316707E+03 E0= -.41314477E+03  EK= 0.30043E+00 SP= 0.00E+00 SK= 0.00E+00
       N       E                     dE             d eps       ncg     rms          rms(c)
RMM:   1    -0.413174482000E+03   -0.74072E-02   -0.69942E+00  4296   0.589E-01    0.896E-01
RMM:   2    -0.413173815081E+03    0.66692E-03   -0.89878E-02  4229   0.770E-02    0.656E-01
RMM:   3    -0.413169990119E+03    0.38250E-02   -0.36756E-02  5030   0.656E-02    0.230E-01
RMM:   4    -0.413196360031E+03   -0.26370E-01   -0.33937E-02  5122   0.155E-01    0.702E-01
RMM:   5    -0.413167569792E+03    0.28790E-01   -0.13379E-02  4763   0.117E-01    0.493E-02
RMM:   6    -0.413167763596E+03   -0.19380E-03   -0.23896E-03  5699   0.481E-02    0.349E-02
RMM:   7    -0.413167758016E+03    0.55804E-05   -0.42098E-04  5591   0.195E-02    0.227E-02
RMM:   8    -0.413167750403E+03    0.76128E-05   -0.57165E-05  5160   0.873E-03    0.989E-03
RMM:   9    -0.413167747700E+03    0.27029E-05   -0.11140E-05  3670   0.381E-03    0.659E-03
RMM:  10    -0.413167747305E+03    0.39568E-06   -0.19461E-06  2550   0.227E-03
   14 T=    61. E= -.41286679E+03 F= -.41316775E+03 E0= -.41314548E+03  EK= 0.30096E+00 SP= 0.00E+00 SK= 0.00E+00
       N       E                     dE             d eps       ncg     rms          rms(c)
RMM:   1    -0.413174288671E+03   -0.65410E-02   -0.70796E+00  4306   0.583E-01    0.903E-01
RMM:   2    -0.413174187339E+03    0.10133E-03   -0.89638E-02  4302   0.775E-02    0.664E-01
RMM:   3    -0.413177892833E+03   -0.37055E-02   -0.43924E-02  5132   0.106E-01    0.439E-01
RMM:   4    -0.413183816309E+03   -0.59235E-02   -0.34062E-02  5053   0.161E-01    0.537E-01
RMM:   5    -0.413167761809E+03    0.16054E-01   -0.67125E-03  4586   0.905E-02    0.506E-02
RMM:   6    -0.413167789671E+03   -0.27862E-04   -0.12396E-03  5364   0.343E-02    0.307E-02
RMM:   7    -0.413167795387E+03   -0.57153E-05   -0.24219E-04  5567   0.152E-02    0.177E-02
RMM:   8    -0.413167792990E+03    0.23967E-05   -0.36524E-05  4888   0.751E-03    0.637E-03
RMM:   9    -0.413167792537E+03    0.45292E-06   -0.44757E-06  2840   0.281E-03
   15 T=    61. E= -.41286641E+03 F= -.41316779E+03 E0= -.41314556E+03  EK= 0.30138E+00 SP= 0.00E+00 SK= 0.00E+00
       N       E                     dE             d eps       ncg     rms          rms(c)
RMM:   1    -0.413176037819E+03   -0.82448E-02   -0.70506E+00  4298   0.594E-01    0.918E-01
RMM:   2    -0.413175017043E+03    0.10208E-02   -0.89828E-02  4254   0.806E-02    0.662E-01
RMM:   3    -0.413174357577E+03    0.65947E-03   -0.37858E-02  5092   0.878E-02    0.326E-01
RMM:   4    -0.413191341965E+03   -0.16984E-01   -0.35338E-02  5077   0.161E-01    0.625E-01
RMM:   5    -0.413168732671E+03    0.22609E-01   -0.94069E-03  4680   0.104E-01    0.521E-02
RMM:   6    -0.413168831379E+03   -0.98708E-04   -0.18243E-03  5580   0.418E-02    0.335E-02
RMM:   7    -0.413168827798E+03    0.35811E-05   -0.33519E-04  5676   0.174E-02    0.209E-02
RMM:   8    -0.413168820723E+03    0.70749E-05   -0.46110E-05  5057   0.816E-03    0.805E-03
RMM:   9    -0.413168816790E+03    0.39332E-05   -0.73973E-06  3163   0.326E-03    0.463E-03
RMM:  10    -0.413168813673E+03    0.31174E-05   -0.17114E-06  2534   0.213E-03    0.280E-03
RMM:  11    -0.413168810874E+03    0.27989E-05   -0.91048E-07  2481   0.154E-03    0.142E-03
RMM:  12    -0.413168806237E+03    0.46369E-05   -0.90861E-07  2488   0.144E-03    0.694E-04
RMM:  13    -0.413168802649E+03    0.35879E-05   -0.45867E-07  2201   0.108E-03    0.429E-04
RMM:  14    -0.413168801465E+03    0.11835E-05   -0.20632E-07  1629   0.776E-04    0.284E-04
RMM:  15    -0.413168795825E+03    0.56402E-05   -0.30789E-07  1935   0.861E-04    0.448E-04
RMM:  16    -0.413168791898E+03    0.39274E-05   -0.16517E-07  1257   0.659E-04    0.344E-04
RMM:  17    -0.413168790375E+03    0.15230E-05   -0.77553E-08   942   0.569E-04    0.236E-04
RMM:  18    -0.413168788216E+03    0.21591E-05   -0.71338E-08  1003   0.585E-04    0.101E-04
RMM:  19    -0.413168786473E+03    0.17423E-05   -0.65814E-08  1139   0.606E-04    0.119E-04
RMM:  20    -0.413168786503E+03   -0.29708E-07   -0.18693E-08   707   0.535E-04
   16 T=    62. E= -.41286665E+03 F= -.41316879E+03 E0= -.41314659E+03  EK= 0.30214E+00 SP= 0.00E+00 SK= 0.00E+00
       N       E                     dE             d eps       ncg     rms          rms(c)
RMM:   1    -0.413175889947E+03   -0.71035E-02   -0.70145E+00  4296   0.588E-01    0.901E-01
RMM:   2    -0.413175523423E+03    0.36652E-03   -0.89487E-02  4244   0.809E-02    0.656E-01
RMM:   3    -0.413172000618E+03    0.35228E-02   -0.36689E-02  5018   0.730E-02    0.245E-01
RMM:   4    -0.413197983788E+03   -0.25983E-01   -0.35529E-02  5106   0.159E-01    0.703E-01
RMM:   5    -0.413169123369E+03    0.28860E-01   -0.13197E-02  4745   0.117E-01    0.503E-02
RMM:   6    -0.413169305802E+03   -0.18243E-03   -0.23883E-03  5687   0.478E-02    0.353E-02
RMM:   7    -0.413169292767E+03    0.13034E-04   -0.41774E-04  5567   0.194E-02    0.228E-02
RMM:   8    -0.413169285261E+03    0.75069E-05   -0.57065E-05  5171   0.879E-03    0.974E-03
RMM:   9    -0.413169281969E+03    0.32919E-05   -0.10964E-05  3658   0.383E-03    0.629E-03
RMM:  10    -0.413169281011E+03    0.95761E-06   -0.19600E-06  2548   0.229E-03
   17 T=    62. E= -.41286659E+03 F= -.41316928E+03 E0= -.41314712E+03  EK= 0.30270E+00 SP= 0.00E+00 SK= 0.00E+00
       N       E                     dE             d eps       ncg     rms          rms(c)
RMM:   1    -0.413176345063E+03   -0.70631E-02   -0.71138E+00  4303   0.596E-01    0.902E-01
RMM:   2    -0.413176194879E+03    0.15018E-03   -0.90387E-02  4297   0.808E-02    0.665E-01
RMM:   3    -0.413179308685E+03   -0.31138E-02   -0.43742E-02  5128   0.105E-01    0.428E-01
RMM:   4    -0.413186817173E+03   -0.75085E-02   -0.34441E-02  5054   0.161E-01    0.553E-01
RMM:   5    -0.413169749411E+03    0.17068E-01   -0.71473E-03  4593   0.919E-02    0.506E-02
RMM:   6    -0.413169793093E+03   -0.43682E-04   -0.13268E-03  5392   0.352E-02    0.307E-02
RMM:   7    -0.413169799283E+03   -0.61899E-05   -0.25576E-04  5615   0.152E-02    0.182E-02
RMM:   8    -0.413169796626E+03    0.26564E-05   -0.39081E-05  4929   0.745E-03    0.668E-03
RMM:   9    -0.413169795857E+03    0.76956E-06   -0.47199E-06  2876   0.284E-03
   18 T=    62. E= -.41286651E+03 F= -.41316980E+03 E0= -.41314768E+03  EK= 0.30328E+00 SP= 0.00E+00 SK= 0.00E+00
       N       E                     dE             d eps       ncg     rms          rms(c)
RMM:   1    -0.413177975240E+03   -0.81786E-02   -0.70926E+00  4298   0.596E-01    0.918E-01
RMM:   2    -0.413177085896E+03    0.88934E-03   -0.90590E-02  4289   0.773E-02    0.664E-01
RMM:   3    -0.413177060525E+03    0.25371E-04   -0.38692E-02  5116   0.882E-02    0.341E-01
RMM:   4    -0.413192879424E+03   -0.15819E-01   -0.35589E-02  5076   0.162E-01    0.617E-01
RMM:   5    -0.413170938800E+03    0.21941E-01   -0.90444E-03  4672   0.102E-01    0.520E-02
RMM:   6    -0.413171024922E+03   -0.86123E-04   -0.17549E-03  5574   0.408E-02    0.331E-02
RMM:   7    -0.413171022211E+03    0.27116E-05   -0.32578E-04  5687   0.170E-02    0.207E-02
RMM:   8    -0.413171015310E+03    0.69012E-05   -0.44944E-05  5021   0.812E-03    0.793E-03
RMM:   9    -0.413171011156E+03    0.41537E-05   -0.69033E-06  3125   0.324E-03    0.446E-03
RMM:  10    -0.413171008086E+03    0.30694E-05   -0.16696E-06  2536   0.211E-03    0.267E-03
RMM:  11    -0.413171005237E+03    0.28492E-05   -0.90003E-07  2477   0.153E-03    0.136E-03
RMM:  12    -0.413171000424E+03    0.48137E-05   -0.87251E-07  2481   0.142E-03    0.655E-04
RMM:  13    -0.413170996876E+03    0.35476E-05   -0.42457E-07  2133   0.104E-03    0.398E-04
RMM:  14    -0.413170995512E+03    0.13640E-05   -0.20082E-07  1556   0.771E-04    0.267E-04
RMM:  15    -0.413170989945E+03    0.55668E-05   -0.25360E-07  1763   0.817E-04    0.365E-04
RMM:  16    -0.413170985217E+03    0.47281E-05   -0.17004E-07  1308   0.675E-04    0.307E-04
RMM:  17    -0.413170983650E+03    0.15672E-05   -0.72392E-08   939   0.566E-04    0.202E-04
RMM:  18    -0.413170980986E+03    0.26638E-05   -0.72074E-08  1029   0.590E-04    0.758E-05
RMM:  19    -0.413170979415E+03    0.15716E-05   -0.50471E-08  1006   0.584E-04    0.701E-05
RMM:  20    -0.413170979168E+03    0.24649E-06   -0.18901E-08   717   0.537E-04
   19 T=    62. E= -.41286683E+03 F= -.41317098E+03 E0= -.41314890E+03  EK= 0.30415E+00 SP= 0.00E+00 SK= 0.00E+00
       N       E                     dE             d eps       ncg     rms          rms(c)
RMM:   1    -0.413181908407E+03   -0.10929E-01   -0.70968E+00  4295   0.635E-01    0.909E-01
RMM:   2    -0.413177355066E+03    0.45533E-02   -0.90086E-02  4252   0.778E-02    0.659E-01
RMM:   3    -0.413174096231E+03    0.32588E-02   -0.36318E-02  5056   0.690E-02    0.240E-01
RMM:   4    -0.413200291937E+03   -0.26196E-01   -0.35875E-02  5104   0.160E-01    0.705E-01
RMM:   5    -0.413171232782E+03    0.29059E-01   -0.13271E-02  4751   0.118E-01    0.507E-02
RMM:   6    -0.413171418925E+03   -0.18614E-03   -0.24085E-03  5679   0.481E-02    0.358E-02
RMM:   7    -0.413171408087E+03    0.10838E-04   -0.42518E-04  5575   0.197E-02    0.232E-02
RMM:   8    -0.413171398012E+03    0.10075E-04   -0.60064E-05  5176   0.902E-03    0.100E-02
RMM:   9    -0.413171393750E+03    0.42620E-05   -0.11366E-05  3697   0.392E-03    0.642E-03
RMM:  10    -0.413171391376E+03    0.23741E-05   -0.20739E-06  2563   0.234E-03    0.379E-03
RMM:  11    -0.413171389687E+03    0.16892E-05   -0.93781E-07  2495   0.160E-03    0.215E-03
RMM:  12    -0.413171386138E+03    0.35490E-05   -0.13628E-06  2519   0.179E-03    0.106E-03
RMM:  13    -0.413171383161E+03    0.29764E-05   -0.61128E-07  2389   0.129E-03    0.843E-04
RMM:  14    -0.413171382962E+03    0.19952E-06   -0.24287E-07  1893   0.860E-04
   20 T=    62. E= -.41286655E+03 F= -.41317138E+03 E0= -.41314935E+03  EK= 0.30483E+00 SP= 0.00E+00 SK= 0.00E+00
       N       E                     dE             d eps       ncg     rms          rms(c)
RMM:   1    -0.413178978419E+03   -0.75953E-02   -0.71446E+00  4295   0.609E-01    0.902E-01
RMM:   2    -0.413178752986E+03    0.22543E-03   -0.90677E-02  4251   0.778E-02    0.665E-01
RMM:   3    -0.413174937888E+03    0.38151E-02   -0.38922E-02  5018   0.681E-02    0.245E-01
RMM:   4    -0.413201035082E+03   -0.26097E-01   -0.34058E-02  5109   0.156E-01    0.702E-01
RMM:   5    -0.413172317196E+03    0.28718E-01   -0.13505E-02  4761   0.118E-01    0.489E-02
RMM:   6    -0.413172512023E+03   -0.19483E-03   -0.24119E-03  5729   0.475E-02    0.342E-02
RMM:   7    -0.413172511724E+03    0.29886E-06   -0.40669E-04  5583   0.196E-02    0.224E-02
RMM:   8    -0.413172506862E+03    0.48622E-05   -0.58941E-05  5074   0.915E-03    0.100E-02
RMM:   9    -0.413172504367E+03    0.24946E-05   -0.11703E-05  3696   0.397E-03    0.669E-03
RMM:  10    -0.413172504652E+03   -0.28477E-06   -0.19591E-06  2552   0.230E-03
   21 T=    62. E= -.41286672E+03 F= -.41317250E+03 E0= -.41315052E+03  EK= 0.30579E+00 SP= 0.00E+00 SK= 0.00E+00
       N       E                     dE             d eps       ncg     rms          rms(c)
RMM:   1    -0.413180593899E+03   -0.80895E-02   -0.71546E+00  4297   0.617E-01    0.918E-01
RMM:   2    -0.413179915110E+03    0.67879E-03   -0.91462E-02  4326   0.813E-02    0.668E-01
RMM:   3    -0.413182390492E+03   -0.24754E-02   -0.41220E-02  5124   0.101E-01    0.405E-01
RMM:   4    -0.413191678814E+03   -0.92883E-02   -0.34952E-02  5053   0.162E-01    0.563E-01
RMM:   5    -0.413173602450E+03    0.18076E-01   -0.71887E-03  4614   0.949E-02    0.515E-02
RMM:   6    -0.413173662544E+03   -0.60094E-04   -0.14308E-03  5425   0.368E-02    0.321E-02
RMM:   7    -0.413173673798E+03   -0.11254E-04   -0.27297E-04  5609   0.161E-02    0.192E-02
RMM:   8    -0.413173663082E+03    0.10716E-04   -0.41645E-05  4920   0.822E-03    0.711E-03
RMM:   9    -0.413173658917E+03    0.41652E-05   -0.59927E-06  2971   0.314E-03    0.388E-03
RMM:  10    -0.413173656533E+03    0.23841E-05   -0.14036E-06  2518   0.195E-03    0.234E-03
RMM:  11    -0.413173653955E+03    0.25779E-05   -0.80235E-07  2455   0.145E-03    0.117E-03
RMM:  12    -0.413173650008E+03    0.39472E-05   -0.68733E-07  2450   0.127E-03    0.547E-04
RMM:  13    -0.413173647402E+03    0.26054E-05   -0.32033E-07  1929   0.926E-04    0.335E-04
RMM:  14    -0.413173645456E+03    0.19459E-05   -0.17320E-07  1425   0.730E-04    0.212E-04
RMM:  15    -0.413173640522E+03    0.49340E-05   -0.20335E-07  1603   0.756E-04    0.286E-04
RMM:  16    -0.413173635985E+03    0.45368E-05   -0.13480E-07  1155   0.644E-04    0.200E-04
RMM:  17    -0.413173634122E+03    0.18634E-05   -0.69521E-08   963   0.579E-04    0.114E-04
RMM:  18    -0.413173631111E+03    0.30116E-05   -0.66209E-08  1045   0.594E-04    0.398E-05
RMM:  19    -0.413173630195E+03    0.91588E-06   -0.30806E-08   809   0.549E-04
   22 T=    62. E= -.41286676E+03 F= -.41317363E+03 E0= -.41315169E+03  EK= 0.30687E+00 SP= 0.00E+00 SK= 0.00E+00
       N       E                     dE             d eps       ncg     rms          rms(c)
RMM:   1    -0.413181329673E+03   -0.76986E-02   -0.71301E+00  4295   0.620E-01    0.917E-01
RMM:   2    -0.413180551014E+03    0.77866E-03   -0.91222E-02  4258   0.804E-02    0.663E-01
RMM:   3    -0.413176488712E+03    0.40623E-02   -0.35666E-02  4974   0.719E-02    0.218E-01
RMM:   4    -0.413204309801E+03   -0.27821E-01   -0.35344E-02  5108   0.159E-01    0.717E-01
RMM:   5    -0.413174156629E+03    0.30153E-01   -0.13968E-02  4770   0.120E-01    0.503E-02
RMM:   6    -0.413174352810E+03   -0.19618E-03   -0.25404E-03  5727   0.491E-02    0.363E-02
RMM:   7    -0.413174342291E+03    0.10520E-04   -0.43499E-04  5572   0.200E-02    0.235E-02
RMM:   8    -0.413174333123E+03    0.91680E-05   -0.61475E-05  5165   0.911E-03    0.106E-02
RMM:   9    -0.413174328127E+03    0.49954E-05   -0.11961E-05  3768   0.398E-03    0.696E-03
RMM:  10    -0.413174324704E+03    0.34232E-05   -0.21160E-06  2563   0.237E-03    0.410E-03
RMM:  11    -0.413174322259E+03    0.24449E-05   -0.10277E-06  2505   0.165E-03    0.234E-03
RMM:  12    -0.413174317314E+03    0.49451E-05   -0.15218E-06  2539   0.189E-03    0.112E-03
RMM:  13    -0.413174313501E+03    0.38130E-05   -0.65729E-07  2394   0.134E-03    0.921E-04
RMM:  14    -0.413174313342E+03    0.15853E-06   -0.25762E-07  1936   0.883E-04
   23 T=    63. E= -.41286640E+03 F= -.41317431E+03 E0= -.41315242E+03  EK= 0.30791E+00 SP= 0.00E+00 SK= 0.00E+00
       N       E                     dE             d eps       ncg     rms          rms(c)
RMM:   1    -0.413183511049E+03   -0.91975E-02   -0.71973E+00  4294   0.633E-01    0.904E-01
RMM:   2    -0.413182483054E+03    0.10280E-02   -0.92688E-02  4270   0.838E-02    0.666E-01
RMM:   3    -0.413177892853E+03    0.45902E-02   -0.38087E-02  4931   0.718E-02    0.223E-01
RMM:   4    -0.413204045441E+03   -0.26153E-01   -0.32020E-02  5111   0.151E-01    0.696E-01
RMM:   5    -0.413175742632E+03    0.28303E-01   -0.13431E-02  4774   0.117E-01    0.481E-02
RMM:   6    -0.413175927639E+03   -0.18501E-03   -0.24279E-03  5791   0.471E-02    0.336E-02
RMM:   7    -0.413175925956E+03    0.16824E-05   -0.38662E-04  5603   0.191E-02    0.222E-02
RMM:   8    -0.413175917436E+03    0.85204E-05   -0.60826E-05  5012   0.891E-03    0.105E-02
RMM:   9    -0.413175914362E+03    0.30742E-05   -0.11869E-05  3765   0.405E-03    0.717E-03
RMM:  10    -0.413175913653E+03    0.70901E-06   -0.20519E-06  2569   0.235E-03
   24 T=    63. E= -.41286666E+03 F= -.41317591E+03 E0= -.41315407E+03  EK= 0.30925E+00 SP= 0.00E+00 SK= 0.00E+00
       N       E                     dE             d eps       ncg     rms          rms(c)
RMM:   1    -0.413184032540E+03   -0.81182E-02   -0.72414E+00  4300   0.629E-01    0.918E-01
RMM:   2    -0.413183504895E+03    0.52764E-03   -0.92549E-02  4338   0.841E-02    0.672E-01
RMM:   3    -0.413186664682E+03   -0.31598E-02   -0.42853E-02  5109   0.108E-01    0.427E-01
RMM:   4    -0.413194305600E+03   -0.76409E-02   -0.34946E-02  5048   0.163E-01    0.554E-01
RMM:   5    -0.413176926093E+03    0.17380E-01   -0.68312E-03  4594   0.923E-02    0.508E-02
RMM:   6    -0.413176966596E+03   -0.40503E-04   -0.13938E-03  5467   0.357E-02    0.319E-02
RMM:   7    -0.413176966946E+03   -0.34952E-06   -0.26416E-04  5533   0.157E-02    0.188E-02
RMM:   8    -0.413176963092E+03    0.38537E-05   -0.39371E-05  4925   0.765E-03    0.690E-03
RMM:   9    -0.413176960363E+03    0.27286E-05   -0.52569E-06  2911   0.294E-03    0.379E-03
RMM:  10    -0.413176958455E+03    0.19077E-05   -0.12933E-06  2499   0.189E-03    0.226E-03
RMM:  11    -0.413176956320E+03    0.21357E-05   -0.74221E-07  2434   0.139E-03    0.113E-03
RMM:  12    -0.413176952893E+03    0.34271E-05   -0.65176E-07  2397   0.122E-03    0.547E-04
RMM:  13    -0.413176950435E+03    0.24576E-05   -0.30870E-07  1889   0.908E-04    0.344E-04
RMM:  14    -0.413176948568E+03    0.18672E-05   -0.16346E-07  1403   0.716E-04    0.215E-04
RMM:  15    -0.413176943856E+03    0.47116E-05   -0.17523E-07  1455   0.729E-04    0.257E-04
RMM:  16    -0.413176939381E+03    0.44750E-05   -0.12577E-07  1127   0.645E-04    0.191E-04
RMM:  17    -0.413176937261E+03    0.21206E-05   -0.65610E-08   944   0.583E-04    0.107E-04
RMM:  18    -0.413176934523E+03    0.27378E-05   -0.54113E-08   967   0.587E-04    0.393E-05
RMM:  19    -0.413176933368E+03    0.11552E-05   -0.28806E-08   825   0.557E-04    0.280E-05
RMM:  20    -0.413176932869E+03    0.49863E-06   -0.15300E-08   707   0.539E-04
   25 T=    63. E= -.41286650E+03 F= -.41317693E+03 E0= -.41315514E+03  EK= 0.31043E+00 SP= 0.00E+00 SK= 0.00E+00
       N       E                     dE             d eps       ncg     rms          rms(c)
RMM:   1    -0.413186550284E+03   -0.96169E-02   -0.72317E+00  4295   0.648E-01    0.926E-01
RMM:   2    -0.413184614690E+03    0.19356E-02   -0.93828E-02  4280   0.848E-02    0.669E-01
RMM:   3    -0.413180468307E+03    0.41464E-02   -0.35468E-02  4977   0.718E-02    0.214E-01
RMM:   4    -0.413209234864E+03   -0.28767E-01   -0.36253E-02  5108   0.160E-01    0.727E-01
RMM:   5    -0.413178167549E+03    0.31067E-01   -0.14400E-02  4768   0.121E-01    0.509E-02
RMM:   6    -0.413178351881E+03   -0.18433E-03   -0.26392E-03  5741   0.499E-02    0.365E-02
RMM:   7    -0.413178345817E+03    0.60636E-05   -0.44419E-04  5590   0.202E-02    0.239E-02
RMM:   8    -0.413178336588E+03    0.92289E-05   -0.64077E-05  5145   0.932E-03    0.110E-02
RMM:   9    -0.413178331202E+03    0.53867E-05   -0.12516E-05  3805   0.413E-03    0.718E-03
RMM:  10    -0.413178327117E+03    0.40844E-05   -0.22846E-06  2589   0.245E-03    0.419E-03
RMM:  11    -0.413178324341E+03    0.27758E-05   -0.10918E-06  2506   0.169E-03    0.242E-03
RMM:  12    -0.413178318629E+03    0.57128E-05   -0.16653E-06  2560   0.195E-03    0.116E-03
RMM:  13    -0.413178314413E+03    0.42160E-05   -0.68778E-07  2406   0.137E-03    0.942E-04
RMM:  14    -0.413178314258E+03    0.15455E-06   -0.26699E-07  1959   0.898E-04
   26 T=    63. E= -.41286652E+03 F= -.41317831E+03 E0= -.41315657E+03  EK= 0.31179E+00 SP= 0.00E+00 SK= 0.00E+00
       N       E                     dE             d eps       ncg     rms          rms(c)
RMM:   1    -0.413186811623E+03   -0.84972E-02   -0.72429E+00  4296   0.641E-01    0.909E-01
RMM:   2    -0.413186488259E+03    0.32336E-03   -0.92929E-02  4275   0.860E-02    0.667E-01
RMM:   3    -0.413181956332E+03    0.45319E-02   -0.37406E-02  4963   0.674E-02    0.213E-01
RMM:   4    -0.413208213960E+03   -0.26258E-01   -0.31684E-02  5119   0.150E-01    0.695E-01
RMM:   5    -0.413180001079E+03    0.28213E-01   -0.13381E-02  4773   0.116E-01    0.482E-02
RMM:   6    -0.413180163896E+03   -0.16282E-03   -0.24239E-03  5794   0.473E-02    0.332E-02
RMM:   7    -0.413180166888E+03   -0.29923E-05   -0.37153E-04  5618   0.191E-02    0.218E-02
RMM:   8    -0.413180158648E+03    0.82402E-05   -0.63470E-05  4996   0.909E-03    0.108E-02
RMM:   9    -0.413180154666E+03    0.39827E-05   -0.12388E-05  3837   0.419E-03    0.738E-03
RMM:  10    -0.413180152496E+03    0.21695E-05   -0.21243E-06  2575   0.241E-03    0.429E-03
RMM:  11    -0.413180150633E+03    0.18631E-05   -0.12321E-06  2507   0.179E-03    0.236E-03
RMM:  12    -0.413180147123E+03    0.35103E-05   -0.16171E-06  2534   0.195E-03    0.116E-03
RMM:  13    -0.413180144621E+03    0.25013E-05   -0.53845E-07  2350   0.128E-03    0.789E-04
RMM:  14    -0.413180144317E+03    0.30456E-06   -0.23484E-07  1845   0.842E-04
   27 T=    64. E= -.41286675E+03 F= -.41318014E+03 E0= -.41315845E+03  EK= 0.31340E+00 SP= 0.00E+00 SK= 0.00E+00
       N       E                     dE             d eps       ncg     rms          rms(c)
RMM:   1    -0.413188358014E+03   -0.82134E-02   -0.73443E+00  4290   0.650E-01    0.920E-01
RMM:   2    -0.413187643013E+03    0.71500E-03   -0.94157E-02  4271   0.875E-02    0.676E-01
RMM:   3    -0.413182924608E+03    0.47184E-02   -0.38641E-02  4950   0.662E-02    0.214E-01
RMM:   4    -0.413208150844E+03   -0.25226E-01   -0.30034E-02  5118   0.147E-01    0.681E-01
RMM:   5    -0.413181069834E+03    0.27081E-01   -0.12861E-02  4770   0.114E-01    0.476E-02
RMM:   6    -0.413181233372E+03   -0.16354E-03   -0.23375E-03  5807   0.464E-02    0.328E-02
RMM:   7    -0.413181240675E+03   -0.73037E-05   -0.35790E-04  5597   0.190E-02    0.214E-02
RMM:   8    -0.413181234651E+03    0.60245E-05   -0.61683E-05  4960   0.911E-03    0.107E-02
RMM:   9    -0.413181231171E+03    0.34802E-05   -0.12081E-05  3790   0.419E-03    0.733E-03
RMM:  10    -0.413181229811E+03    0.13595E-05   -0.22185E-06  2595   0.248E-03    0.424E-03
RMM:  11    -0.413181228341E+03    0.14707E-05   -0.13447E-06  2522   0.186E-03    0.224E-03
RMM:  12    -0.413181225643E+03    0.26972E-05   -0.15128E-06  2518   0.192E-03    0.111E-03
RMM:  13    -0.413181223820E+03    0.18237E-05   -0.50436E-07  2328   0.125E-03    0.705E-04
RMM:  14    -0.413181223296E+03    0.52349E-06   -0.22768E-07  1804   0.832E-04
   28 T=    64. E= -.41286638E+03 F= -.41318122E+03 E0= -.41315958E+03  EK= 0.31484E+00 SP= 0.00E+00 SK= 0.00E+00
       N       E                     dE             d eps       ncg     rms          rms(c)
RMM:   1    -0.413190936585E+03   -0.97128E-02   -0.73345E+00  4293   0.666E-01    0.935E-01
RMM:   2    -0.413189727460E+03    0.12091E-02   -0.95038E-02  4277   0.915E-02    0.675E-01
RMM:   3    -0.413184561364E+03    0.51661E-02   -0.35568E-02  4914   0.649E-02    0.176E-01
RMM:   4    -0.413209985359E+03   -0.25424E-01   -0.28896E-02  5121   0.144E-01    0.678E-01
RMM:   5    -0.413183115304E+03    0.26870E-01   -0.12792E-02  4775   0.113E-01    0.482E-02
RMM:   6    -0.413183278200E+03   -0.16290E-03   -0.23438E-03  5819   0.466E-02    0.343E-02
RMM:   7    -0.413183271770E+03    0.64295E-05   -0.36019E-04  5590   0.193E-02    0.219E-02
RMM:   8    -0.413183260398E+03    0.11373E-04   -0.62628E-05  4970   0.916E-03    0.112E-02
RMM:   9    -0.413183254229E+03    0.61688E-05   -0.12229E-05  3807   0.415E-03    0.767E-03
RMM:  10    -0.413183249267E+03    0.49623E-05   -0.23192E-06  2605   0.252E-03    0.439E-03
RMM:  11    -0.413183244967E+03    0.42991E-05   -0.14240E-06  2529   0.190E-03    0.234E-03
RMM:  12    -0.413183238032E+03    0.69359E-05   -0.16713E-06  2550   0.198E-03    0.117E-03
RMM:  13    -0.413183234804E+03    0.32275E-05   -0.55692E-07  2360   0.130E-03    0.761E-04
RMM:  14    -0.413183233886E+03    0.91782E-06   -0.24693E-07  1907   0.860E-04
   29 T=    64. E= -.41286657E+03 F= -.41318323E+03 E0= -.41316164E+03  EK= 0.31666E+00 SP= 0.00E+00 SK= 0.00E+00
       N       E                     dE             d eps       ncg     rms          rms(c)
RMM:   1    -0.413191860500E+03   -0.86257E-02   -0.73253E+00  4297   0.661E-01    0.917E-01
RMM:   2    -0.413191814824E+03    0.45676E-04   -0.94682E-02  4269   0.965E-02    0.671E-01
RMM:   3    -0.413186495289E+03    0.53195E-02   -0.36762E-02  4846   0.688E-02    0.187E-01
RMM:   4    -0.413209963815E+03   -0.23469E-01   -0.26678E-02  5125   0.139E-01    0.655E-01
RMM:   5    -0.413184961579E+03    0.25002E-01   -0.12038E-02  4785   0.109E-01    0.468E-02
RMM:   6    -0.413185119418E+03   -0.15784E-03   -0.21658E-03  5833   0.445E-02    0.326E-02
RMM:   7    -0.413185125775E+03   -0.63571E-05   -0.31908E-04  5603   0.181E-02    0.203E-02
RMM:   8    -0.413185119071E+03    0.67036E-05   -0.58666E-05  4948   0.861E-03    0.108E-02
RMM:   9    -0.413185114122E+03    0.49487E-05   -0.11291E-05  3741   0.401E-03    0.738E-03
RMM:  10    -0.413185111059E+03    0.30634E-05   -0.21104E-06  2573   0.242E-03    0.421E-03
RMM:  11    -0.413185107905E+03    0.31543E-05   -0.14342E-06  2529   0.190E-03    0.216E-03
RMM:  12    -0.413185103280E+03    0.46250E-05   -0.14455E-06  2518   0.186E-03    0.114E-03
RMM:  13    -0.413185101132E+03    0.21475E-05   -0.48345E-07  2326   0.122E-03    0.701E-04
RMM:  14    -0.413185100166E+03    0.96595E-06   -0.22007E-07  1811   0.824E-04
   30 T=    65. E= -.41286658E+03 F= -.41318510E+03 E0= -.41316355E+03  EK= 0.31852E+00 SP= 0.00E+00 SK= 0.00E+00
       N       E                     dE             d eps       ncg     rms          rms(c)
RMM:   1    -0.413193667173E+03   -0.85660E-02   -0.74555E+00  4296   0.673E-01    0.923E-01
RMM:   2    -0.413193853969E+03   -0.18680E-03   -0.96394E-02  4266   0.997E-02    0.681E-01
RMM:   3    -0.413188151781E+03    0.57022E-02   -0.39406E-02  4769   0.739E-02    0.203E-01
RMM:   4    -0.413209559558E+03   -0.21408E-01   -0.24397E-02  5128   0.134E-01    0.629E-01
RMM:   5    -0.413186575074E+03    0.22984E-01   -0.11121E-02  4785   0.105E-01    0.457E-02
RMM:   6    -0.413186718953E+03   -0.14388E-03   -0.19980E-03  5838   0.425E-02    0.310E-02
RMM:   7    -0.413186727032E+03   -0.80791E-05   -0.27825E-04  5602   0.171E-02    0.187E-02
RMM:   8    -0.413186722617E+03    0.44154E-05   -0.54198E-05  4942   0.816E-03    0.103E-02
RMM:   9    -0.413186718634E+03    0.39827E-05   -0.10560E-05  3699   0.389E-03    0.708E-03
RMM:  10    -0.413186717580E+03    0.10543E-05   -0.19352E-06  2547   0.233E-03    0.405E-03
RMM:  11    -0.413186716162E+03    0.14178E-05   -0.14603E-06  2525   0.190E-03    0.205E-03
RMM:  12    -0.413186713826E+03    0.23367E-05   -0.13446E-06  2505   0.180E-03    0.114E-03
RMM:  13    -0.413186712510E+03    0.13161E-05   -0.44750E-07  2291   0.118E-03    0.676E-04
RMM:  14    -0.413186711720E+03    0.78941E-06   -0.20544E-07  1746   0.803E-04
   31 T=    65. E= -.41286634E+03 F= -.41318671E+03 E0= -.41316521E+03  EK= 0.32037E+00 SP= 0.00E+00 SK= 0.00E+00
       N       E                     dE             d eps       ncg     rms          rms(c)
RMM:   1    -0.413197335410E+03   -0.10623E-01   -0.74582E+00  4300   0.694E-01    0.942E-01
RMM:   2    -0.413196195506E+03    0.11399E-02   -0.97199E-02  4277   0.103E-01    0.681E-01
RMM:   3    -0.413190370890E+03    0.58246E-02   -0.36275E-02  4715   0.739E-02    0.163E-01
RMM:   4    -0.413210733961E+03   -0.20363E-01   -0.22235E-02  5126   0.127E-01    0.609E-01
RMM:   5    -0.413189200599E+03    0.21533E-01   -0.10534E-02  4800   0.101E-01    0.459E-02
RMM:   6    -0.413189339592E+03   -0.13899E-03   -0.18878E-03  5845   0.412E-02    0.316E-02
RMM:   7    -0.413189345442E+03   -0.58499E-05   -0.24062E-04  5562   0.165E-02    0.172E-02
RMM:   8    -0.413189340940E+03    0.45012E-05   -0.47067E-05  4923   0.741E-03    0.103E-02
RMM:   9    -0.413189335248E+03    0.56927E-05   -0.10022E-05  3669   0.371E-03    0.716E-03
RMM:  10    -0.413189330974E+03    0.42737E-05   -0.19301E-06  2555   0.236E-03    0.403E-03
RMM:  11    -0.413189326351E+03    0.46227E-05   -0.15048E-06  2532   0.193E-03    0.206E-03
RMM:  12    -0.413189320009E+03    0.63425E-05   -0.13112E-06  2500   0.181E-03    0.114E-03
RMM:  13    -0.413189317573E+03    0.24358E-05   -0.45164E-07  2292   0.118E-03    0.684E-04
RMM:  14    -0.413189316376E+03    0.11974E-05   -0.20689E-07  1748   0.805E-04    0.485E-04
RMM:  15    -0.413189310940E+03    0.54352E-05   -0.20743E-07  2057   0.827E-04    0.480E-04
RMM:  16    -0.413189306219E+03    0.47218E-05   -0.11859E-07  1458   0.672E-04    0.461E-04
RMM:  17    -0.413189303855E+03    0.23638E-05   -0.46456E-08   887   0.539E-04    0.335E-04
RMM:  18    -0.413189299034E+03    0.48211E-05   -0.67254E-08  1098   0.611E-04    0.671E-05
RMM:  19    -0.413189296852E+03    0.21814E-05   -0.34657E-08   928   0.577E-04    0.135E-04
RMM:  20    -0.413189296717E+03    0.13543E-06   -0.16166E-08   757   0.541E-04
   32 T=    66. E= -.41286675E+03 F= -.41318930E+03 E0= -.41316785E+03  EK= 0.32255E+00 SP= 0.00E+00 SK= 0.00E+00
       N       E                     dE             d eps       ncg     rms          rms(c)
RMM:   1    -0.413200040561E+03   -0.10744E-01   -0.74587E+00  4301   0.718E-01    0.930E-01
RMM:   2    -0.413197850049E+03    0.21905E-02   -0.97705E-02  4266   0.105E-01    0.677E-01
RMM:   3    -0.413192204723E+03    0.56453E-02   -0.36500E-02  4696   0.753E-02    0.165E-01
RMM:   4    -0.413211340141E+03   -0.19135E-01   -0.20910E-02  5124   0.123E-01    0.592E-01
RMM:   5    -0.413191051504E+03    0.20289E-01   -0.99679E-03  4798   0.980E-02    0.451E-02
RMM:   6    -0.413191181515E+03   -0.13001E-03   -0.17717E-03  5832   0.396E-02    0.301E-02
RMM:   7    -0.413191189203E+03   -0.76884E-05   -0.19447E-04  5476   0.151E-02    0.147E-02
RMM:   8    -0.413191184139E+03    0.50643E-05   -0.27964E-05  4411   0.566E-03    0.841E-03
RMM:   9    -0.413191181219E+03    0.29200E-05   -0.53219E-06  2895   0.293E-03    0.485E-03
RMM:  10    -0.413191179227E+03    0.19914E-05   -0.12057E-06  2507   0.179E-03    0.330E-03
RMM:  11    -0.413191174990E+03    0.42370E-05   -0.18909E-06  2547   0.218E-03    0.186E-03
RMM:  12    -0.413191171750E+03    0.32401E-05   -0.89439E-07  2450   0.158E-03    0.118E-03
RMM:  13    -0.413191170159E+03    0.15910E-05   -0.33357E-07  2148   0.102E-03    0.581E-04
RMM:  14    -0.413191168698E+03    0.14611E-05   -0.16966E-07  1578   0.748E-04    0.364E-04
RMM:  15    -0.413191164642E+03    0.40562E-05   -0.17866E-07  1853   0.780E-04    0.366E-04
RMM:  16    -0.413191162001E+03    0.26407E-05   -0.75506E-08  1099   0.621E-04    0.221E-04
RMM:  17    -0.413191158099E+03    0.39028E-05   -0.62823E-08  1013   0.605E-04    0.198E-04
RMM:  18    -0.413191154859E+03    0.32397E-05   -0.47369E-08   940   0.579E-04    0.539E-05
RMM:  19    -0.413191152456E+03    0.24034E-05   -0.32730E-08   898   0.577E-04    0.862E-05
RMM:  20    -0.413191152065E+03    0.39026E-06   -0.13798E-08   708   0.545E-04
   33 T=    66. E= -.41286662E+03 F= -.41319115E+03 E0= -.41316975E+03  EK= 0.32453E+00 SP= 0.00E+00 SK= 0.00E+00
       N       E                     dE             d eps       ncg     rms          rms(c)
RMM:   1    -0.413200868611E+03   -0.97162E-02   -0.75724E+00  4306   0.714E-01    0.929E-01
RMM:   2    -0.413200325067E+03    0.54354E-03   -0.99522E-02  4263   0.110E-01    0.686E-01
RMM:   3    -0.413194613870E+03    0.57112E-02   -0.39625E-02  4599   0.804E-02    0.185E-01
RMM:   4    -0.413208282449E+03   -0.13669E-01   -0.15399E-02  5127   0.107E-01    0.509E-01
RMM:   5    -0.413193417200E+03    0.14865E-01   -0.73615E-03  4801   0.842E-02    0.426E-02
RMM:   6    -0.413193514507E+03   -0.97306E-04   -0.13843E-03  5820   0.344E-02    0.282E-02
RMM:   7    -0.413193528513E+03   -0.14006E-04   -0.19545E-04  5462   0.150E-02    0.165E-02
RMM:   8    -0.413193518029E+03    0.10484E-04   -0.34998E-05  4762   0.657E-03    0.863E-03
RMM:   9    -0.413193518282E+03   -0.25301E-06   -0.74486E-06  3325   0.336E-03
   34 T=    67. E= -.41286666E+03 F= -.41319352E+03 E0= -.41317217E+03  EK= 0.32685E+00 SP= 0.00E+00 SK= 0.00E+00
       N       E                     dE             d eps       ncg     rms          rms(c)
RMM:   1    -0.413203849254E+03   -0.10331E-01   -0.75962E+00  4301   0.731E-01    0.948E-01
RMM:   2    -0.413202584845E+03    0.12644E-02   -0.10093E-01  4285   0.118E-01    0.689E-01
RMM:   3    -0.413201275276E+03    0.13096E-02   -0.39572E-02  4986   0.109E-01    0.311E-01
RMM:   4    -0.413224446062E+03   -0.23171E-01   -0.39485E-02  5059   0.170E-01    0.696E-01
RMM:   5    -0.413196074874E+03    0.28371E-01   -0.12104E-02  4704   0.115E-01    0.524E-02
RMM:   6    -0.413196226077E+03   -0.15120E-03   -0.24432E-03  5735   0.467E-02    0.362E-02
RMM:   7    -0.413196226437E+03   -0.35974E-06   -0.40621E-04  5523   0.195E-02    0.237E-02
RMM:   8    -0.413196220722E+03    0.57150E-05   -0.66594E-05  5127   0.975E-03    0.106E-02
RMM:   9    -0.413196214194E+03    0.65282E-05   -0.11259E-05  3639   0.418E-03    0.583E-03
RMM:  10    -0.413196209507E+03    0.46862E-05   -0.22556E-06  2603   0.246E-03    0.351E-03
RMM:  11    -0.413196205635E+03    0.38722E-05   -0.10492E-06  2501   0.169E-03    0.191E-03
RMM:  12    -0.413196198288E+03    0.73468E-05   -0.12074E-06  2499   0.173E-03    0.870E-04
RMM:  13    -0.413196193887E+03    0.44011E-05   -0.53468E-07  2339   0.122E-03    0.630E-04
RMM:  14    -0.413196192390E+03    0.14972E-05   -0.24725E-07  1878   0.856E-04    0.433E-04
RMM:  15    -0.413196188631E+03    0.37591E-05   -0.14386E-07  1447   0.718E-04    0.202E-04
RMM:  16    -0.413196181349E+03    0.72818E-05   -0.16269E-07  1700   0.742E-04    0.416E-04
RMM:  17    -0.413196177711E+03    0.36382E-05   -0.71201E-08  1030   0.585E-04    0.330E-04
RMM:  18    -0.413196172292E+03    0.54187E-05   -0.72310E-08  1102   0.593E-04    0.194E-04
RMM:  19    -0.413196170396E+03    0.18964E-05   -0.46473E-08   974   0.571E-04    0.564E-05
RMM:  20    -0.413196169142E+03    0.12536E-05   -0.27783E-08   870   0.559E-04    0.103E-04
RMM:  21    -0.413196169034E+03    0.10836E-06   -0.12383E-08   673   0.527E-04
   35 T=    67. E= -.41286673E+03 F= -.41319617E+03 E0= -.41317486E+03  EK= 0.32943E+00 SP= 0.00E+00 SK= 0.00E+00
       N       E                     dE             d eps       ncg     rms          rms(c)
RMM:   1    -0.413208648713E+03   -0.12480E-01   -0.76246E+00  4306   0.787E-01    0.945E-01
RMM:   2    -0.413204492486E+03    0.41562E-02   -0.10396E-01  4255   0.125E-01    0.686E-01
RMM:   3    -0.413198691651E+03    0.58008E-02   -0.35897E-02  4330   0.842E-02    0.123E-01
RMM:   4    -0.413198908987E+03   -0.21734E-03   -0.11172E-03  5057   0.309E-02    0.118E-01
RMM:   5    -0.413198214067E+03    0.69492E-03   -0.42055E-04  4775   0.203E-02    0.412E-02
RMM:   6    -0.413198275345E+03   -0.61279E-04   -0.48437E-04  5303   0.215E-02    0.342E-02
RMM:   7    -0.413198235267E+03    0.40078E-04   -0.18687E-04  4815   0.156E-02    0.190E-02
RMM:   8    -0.413198228359E+03    0.69084E-05   -0.37597E-05  4786   0.591E-03    0.562E-03
RMM:   9    -0.413198227013E+03    0.13460E-05   -0.47564E-06  2582   0.233E-03    0.239E-03
RMM:  10    -0.413198222171E+03    0.48412E-05   -0.98871E-07  2421   0.165E-03    0.105E-03
RMM:  11    -0.413198218573E+03    0.35989E-05   -0.33530E-07  2007   0.972E-04    0.621E-04
RMM:  12    -0.413198214764E+03    0.38081E-05   -0.17435E-07  1445   0.744E-04    0.358E-04
RMM:  13    -0.413198210404E+03    0.43609E-05   -0.12012E-07  1230   0.678E-04    0.182E-04
RMM:  14    -0.413198205477E+03    0.49262E-05   -0.92750E-08  1135   0.646E-04    0.125E-04
RMM:  15    -0.413198201037E+03    0.44405E-05   -0.52015E-08   948   0.588E-04    0.987E-05
RMM:  16    -0.413198195280E+03    0.57572E-05   -0.55379E-08  1038   0.603E-04    0.711E-05
RMM:  17    -0.413198193512E+03    0.17682E-05   -0.26374E-08   814   0.541E-04    0.543E-05
RMM:  18    -0.413198192346E+03    0.11657E-05   -0.13662E-08   681   0.523E-04    0.275E-05
RMM:  19    -0.413198191660E+03    0.68594E-06   -0.11515E-08   654   0.518E-04
   36 T=    68. E= -.41286633E+03 F= -.41319819E+03 E0= -.41317693E+03  EK= 0.33186E+00 SP= 0.00E+00 SK= 0.00E+00
       N       E                     dE             d eps       ncg     rms          rms(c)
RMM:   1    -0.413210765611E+03   -0.12573E-01   -0.77247E+00  4310   0.788E-01    0.937E-01
RMM:   2    -0.413207919267E+03    0.28463E-02   -0.10469E-01  4256   0.125E-01    0.691E-01
RMM:   3    -0.413201921433E+03    0.59978E-02   -0.39030E-02  4375   0.876E-02    0.157E-01
RMM:   4    -0.413204156523E+03   -0.22351E-02   -0.36483E-03  5136   0.535E-02    0.233E-01
RMM:   5    -0.413201198633E+03    0.29579E-02   -0.14966E-03  4791   0.387E-02    0.402E-02
RMM:   6    -0.413201245139E+03   -0.46506E-04   -0.58634E-04  5497   0.241E-02    0.326E-02
RMM:   7    -0.413201234205E+03    0.10934E-04   -0.22060E-04  5037   0.162E-02    0.193E-02
RMM:   8    -0.413201226373E+03    0.78319E-05   -0.30272E-05  4799   0.612E-03    0.722E-03
RMM:   9    -0.413201226054E+03    0.31834E-06   -0.45483E-06  2678   0.246E-03
   37 T=    68. E= -.41286657E+03 F= -.41320123E+03 E0= -.41318001E+03  EK= 0.33466E+00 SP= 0.00E+00 SK= 0.00E+00
       N       E                     dE             d eps       ncg     rms          rms(c)
RMM:   1    -0.413212230672E+03   -0.11004E-01   -0.77786E+00  4310   0.806E-01    0.954E-01
RMM:   2    -0.413210847033E+03    0.13836E-02   -0.10591E-01  4261   0.121E-01    0.698E-01
RMM:   3    -0.413204887008E+03    0.59600E-02   -0.38351E-02  4685   0.836E-02    0.167E-01
RMM:   4    -0.413224675548E+03   -0.19789E-01   -0.21671E-02  5129   0.126E-01    0.603E-01
RMM:   5    -0.413203786682E+03    0.20889E-01   -0.10293E-02  4797   0.100E-01    0.468E-02
RMM:   6    -0.413203825186E+03   -0.38504E-04   -0.18056E-03  5777   0.414E-02    0.330E-02
RMM:   7    -0.413203841634E+03   -0.16448E-04   -0.35158E-04  5482   0.189E-02    0.216E-02
RMM:   8    -0.413203826151E+03    0.15483E-04   -0.55134E-05  5102   0.848E-03    0.102E-02
RMM:   9    -0.413203824495E+03    0.16558E-05   -0.10311E-05  3542   0.392E-03    0.606E-03
RMM:  10    -0.413203820699E+03    0.37960E-05   -0.20884E-06  2591   0.238E-03    0.329E-03
RMM:  11    -0.413203816868E+03    0.38311E-05   -0.11301E-06  2499   0.173E-03    0.174E-03
RMM:  12    -0.413203810891E+03    0.59769E-05   -0.10540E-06  2486   0.162E-03    0.992E-04
RMM:  13    -0.413203807572E+03    0.33191E-05   -0.40527E-07  2207   0.110E-03    0.545E-04
RMM:  14    -0.413203805823E+03    0.17495E-05   -0.19568E-07  1635   0.785E-04    0.348E-04
RMM:  15    -0.413203799259E+03    0.65638E-05   -0.17272E-07  1623   0.764E-04    0.242E-04
RMM:  16    -0.413203794726E+03    0.45333E-05   -0.10039E-07  1231   0.653E-04    0.227E-04
RMM:  17    -0.413203789569E+03    0.51563E-05   -0.77321E-08  1162   0.626E-04    0.186E-04
RMM:  18    -0.413203784799E+03    0.47700E-05   -0.62740E-08  1164   0.616E-04    0.604E-05
RMM:  19    -0.413203783605E+03    0.11947E-05   -0.30813E-08   875   0.550E-04    0.409E-05
RMM:  20    -0.413203782698E+03    0.90679E-06   -0.22171E-08   817   0.534E-04
   38 T=    69. E= -.41286640E+03 F= -.41320378E+03 E0= -.41318260E+03  EK= 0.33738E+00 SP= 0.00E+00 SK= 0.00E+00
       N       E                     dE             d eps       ncg     rms          rms(c)
RMM:   1    -0.413220556038E+03   -0.16772E-01   -0.78375E+00  4309   0.887E-01    0.961E-01
RMM:   2    -0.413213457410E+03    0.70986E-02   -0.11155E-01  4253   0.120E-01    0.696E-01
RMM:   3    -0.413207426990E+03    0.60304E-02   -0.35258E-02  4769   0.755E-02    0.148E-01
RMM:   4    -0.413233329050E+03   -0.25902E-01   -0.28147E-02  5125   0.141E-01    0.682E-01
RMM:   5    -0.413206369744E+03    0.26959E-01   -0.13149E-02  4789   0.113E-01    0.497E-02
RMM:   6    -0.413206435483E+03   -0.65739E-04   -0.23376E-03  5798   0.458E-02    0.340E-02
RMM:   7    -0.413206455760E+03   -0.20276E-04   -0.34245E-04  5579   0.183E-02    0.205E-02
RMM:   8    -0.413206444525E+03    0.11234E-04   -0.59471E-05  5051   0.830E-03    0.112E-02
RMM:   9    -0.413206442978E+03    0.15469E-05   -0.14875E-05  4159   0.452E-03    0.739E-03
RMM:  10    -0.413206438406E+03    0.45725E-05   -0.24550E-06  2633   0.259E-03    0.401E-03
RMM:  11    -0.413206435451E+03    0.29553E-05   -0.11371E-06  2498   0.176E-03    0.240E-03
RMM:  12    -0.413206428624E+03    0.68262E-05   -0.15709E-06  2521   0.199E-03    0.132E-03
RMM:  13    -0.413206424977E+03    0.36472E-05   -0.57484E-07  2371   0.134E-03    0.811E-04
RMM:  14    -0.413206424020E+03    0.95711E-06   -0.24742E-07  1971   0.882E-04
   39 T=    69. E= -.41286631E+03 F= -.41320642E+03 E0= -.41318528E+03  EK= 0.34012E+00 SP= 0.00E+00 SK= 0.00E+00
       N       E                     dE             d eps       ncg     rms          rms(c)
RMM:   1    -0.413218756598E+03   -0.12332E-01   -0.78557E+00  4312   0.882E-01    0.946E-01
RMM:   2    -0.413216934483E+03    0.18221E-02   -0.10965E-01  4258   0.120E-01    0.697E-01
RMM:   3    -0.413211000841E+03    0.59336E-02   -0.38242E-02  4800   0.804E-02    0.182E-01
RMM:   4    -0.413238634267E+03   -0.27633E-01   -0.31098E-02  5121   0.149E-01    0.707E-01
RMM:   5    -0.413209522186E+03    0.29112E-01   -0.14043E-02  4789   0.118E-01    0.500E-02
RMM:   6    -0.413209592289E+03   -0.70104E-04   -0.24688E-03  5796   0.470E-02    0.331E-02
RMM:   7    -0.413209617128E+03   -0.24839E-04   -0.35741E-04  5635   0.182E-02    0.202E-02
RMM:   8    -0.413209606583E+03    0.10546E-04   -0.64500E-05  5100   0.848E-03    0.111E-02
RMM:   9    -0.413209605326E+03    0.12568E-05   -0.15520E-05  4196   0.463E-03    0.699E-03
RMM:  10    -0.413209601980E+03    0.33455E-05   -0.25664E-06  2642   0.256E-03    0.390E-03
RMM:  11    -0.413209599728E+03    0.22525E-05   -0.11262E-06  2495   0.175E-03    0.231E-03
RMM:  12    -0.413209594329E+03    0.53988E-05   -0.15730E-06  2530   0.193E-03    0.127E-03
RMM:  13    -0.413209590856E+03    0.34734E-05   -0.58290E-07  2374   0.132E-03    0.807E-04
RMM:  14    -0.413209589915E+03    0.94105E-06   -0.24489E-07  1928   0.871E-04
   40 T=    70. E= -.41286660E+03 F= -.41320959E+03 E0= -.41318849E+03  EK= 0.34299E+00 SP= 0.00E+00 SK= 0.00E+00
       N       E                     dE             d eps       ncg     rms          rms(c)
RMM:   1    -0.413222665841E+03   -0.13075E-01   -0.79800E+00  4315   0.915E-01    0.960E-01
RMM:   2    -0.413219311520E+03    0.33543E-02   -0.11198E-01  4258   0.122E-01    0.707E-01
RMM:   3    -0.413213594484E+03    0.57170E-02   -0.39066E-02  4879   0.820E-02    0.198E-01
RMM:   4    -0.413245604338E+03   -0.32010E-01   -0.37316E-02  5124   0.163E-01    0.761E-01
RMM:   5    -0.413211737608E+03    0.33867E-01   -0.16187E-02  4789   0.127E-01    0.524E-02
RMM:   6    -0.413211824630E+03   -0.87022E-04   -0.27977E-03  5806   0.497E-02    0.333E-02
RMM:   7    -0.413211850832E+03   -0.26202E-04   -0.36069E-04  5658   0.181E-02    0.193E-02
RMM:   8    -0.413211845499E+03    0.53337E-05   -0.61145E-05  5028   0.814E-03    0.106E-02
RMM:   9    -0.413211845205E+03    0.29382E-06   -0.19767E-05  4471   0.487E-03    0.723E-03
RMM:  10    -0.413211841181E+03    0.40235E-05   -0.28113E-06  2658   0.270E-03    0.401E-03
RMM:  11    -0.413211838995E+03    0.21861E-05   -0.12351E-06  2497   0.182E-03    0.241E-03
RMM:  12    -0.413211833339E+03    0.56561E-05   -0.16904E-06  2533   0.202E-03    0.131E-03
RMM:  13    -0.413211829789E+03    0.35497E-05   -0.63676E-07  2396   0.137E-03    0.865E-04
RMM:  14    -0.413211828892E+03    0.89746E-06   -0.25399E-07  1960   0.893E-04
   41 T=    70. E= -.41286640E+03 F= -.41321183E+03 E0= -.41319076E+03  EK= 0.34542E+00 SP= 0.00E+00 SK= 0.00E+00
       N       E                     dE             d eps       ncg     rms          rms(c)
RMM:   1    -0.413231590086E+03   -0.19760E-01   -0.80306E+00  4313   0.103E+00    0.976E-01
RMM:   2    -0.413221614591E+03    0.99755E-02   -0.11628E-01  4290   0.128E-01    0.705E-01
RMM:   3    -0.413216533022E+03    0.50816E-02   -0.36070E-02  4969   0.805E-02    0.202E-01
RMM:   4    -0.413253231768E+03   -0.36699E-01   -0.44747E-02  5115   0.178E-01    0.812E-01
RMM:   5    -0.413214292708E+03    0.38939E-01   -0.18165E-02  4779   0.135E-01    0.554E-02
RMM:   6    -0.413214398444E+03   -0.10574E-03   -0.31666E-03  5793   0.528E-02    0.350E-02
RMM:   7    -0.413214415230E+03   -0.16785E-04   -0.37479E-04  5678   0.185E-02    0.193E-02
RMM:   8    -0.413214413013E+03    0.22165E-05   -0.49261E-05  4848   0.716E-03    0.960E-03
RMM:   9    -0.413214407995E+03    0.50186E-05   -0.15833E-05  4188   0.425E-03    0.653E-03
RMM:  10    -0.413214404629E+03    0.33651E-05   -0.46076E-06  2950   0.283E-03    0.394E-03
RMM:  11    -0.413214400417E+03    0.42123E-05   -0.12985E-06  2487   0.194E-03    0.238E-03
RMM:  12    -0.413214390906E+03    0.95112E-05   -0.12987E-06  2486   0.187E-03    0.980E-04
RMM:  13    -0.413214386378E+03    0.45281E-05   -0.50437E-07  2397   0.126E-03    0.697E-04
RMM:  14    -0.413214385464E+03    0.91400E-06   -0.22782E-07  1941   0.856E-04
   42 T=    71. E= -.41286662E+03 F= -.41321439E+03 E0= -.41319335E+03  EK= 0.34776E+00 SP= 0.00E+00 SK= 0.00E+00
       N       E                     dE             d eps       ncg     rms          rms(c)
RMM:   1    -0.413237523861E+03   -0.23137E-01   -0.80761E+00  4316   0.109E+00    0.951E-01
RMM:   2    -0.413224019629E+03    0.13504E-01   -0.13338E-01  4334   0.132E-01    0.705E-01
RMM:   3    -0.413219101932E+03    0.49177E-02   -0.32940E-02  5011   0.827E-02    0.219E-01
RMM:   4    -0.413261595028E+03   -0.42493E-01   -0.53524E-02  5114   0.195E-01    0.872E-01
RMM:   5    -0.413216339325E+03    0.45256E-01   -0.20739E-02  4769   0.144E-01    0.584E-02
RMM:   6    -0.413216471677E+03   -0.13235E-03   -0.36514E-03  5787   0.565E-02    0.355E-02
RMM:   7    -0.413216491942E+03   -0.20265E-04   -0.44057E-04  5762   0.196E-02    0.214E-02
RMM:   8    -0.413216496467E+03   -0.45250E-05   -0.99781E-05  5211   0.999E-03    0.136E-02
RMM:   9    -0.413216485999E+03    0.10469E-04   -0.23280E-05  4576   0.559E-03    0.698E-03
RMM:  10    -0.413216482395E+03    0.36039E-05   -0.42457E-06  2820   0.296E-03    0.415E-03
RMM:  11    -0.413216479497E+03    0.28975E-05   -0.14279E-06  2507   0.199E-03    0.246E-03
RMM:  12    -0.413216472762E+03    0.67351E-05   -0.14062E-06  2510   0.192E-03    0.109E-03
RMM:  13    -0.413216467782E+03    0.49803E-05   -0.63053E-07  2406   0.135E-03    0.687E-04
RMM:  14    -0.413216466531E+03    0.12512E-05   -0.27630E-07  2007   0.912E-04    0.418E-04
RMM:  15    -0.413216463739E+03    0.27919E-05   -0.14244E-07  1406   0.720E-04    0.227E-04
RMM:  16    -0.413216457181E+03    0.65574E-05   -0.14124E-07  1611   0.740E-04    0.329E-04
RMM:  17    -0.413216455005E+03    0.21759E-05   -0.59664E-08   987   0.591E-04    0.227E-04
RMM:  18    -0.413216449098E+03    0.59075E-05   -0.79300E-08  1366   0.645E-04    0.189E-04
RMM:  19    -0.413216447345E+03    0.17524E-05   -0.35226E-08   908   0.550E-04    0.513E-05
RMM:  20    -0.413216445750E+03    0.15951E-05   -0.32683E-08   977   0.564E-04    0.845E-05
RMM:  21    -0.413216445581E+03    0.16902E-06   -0.13652E-08   708   0.522E-04
   43 T=    71. E= -.41286678E+03 F= -.41321645E+03 E0= -.41319544E+03  EK= 0.34967E+00 SP= 0.00E+00 SK= 0.00E+00
       N       E                     dE             d eps       ncg     rms          rms(c)
RMM:   1    -0.413229717990E+03   -0.13272E-01   -0.80980E+00  4316   0.107E+00    0.961E-01
RMM:   2    -0.413225227085E+03    0.44909E-02   -0.12054E-01  4347   0.137E-01    0.713E-01
RMM:   3    -0.413221747717E+03    0.34794E-02   -0.39829E-02  5030   0.959E-02    0.285E-01
RMM:   4    -0.413255663300E+03   -0.33916E-01   -0.49691E-02  5100   0.190E-01    0.806E-01
RMM:   5    -0.413217333158E+03    0.38330E-01   -0.16857E-02  4750   0.134E-01    0.563E-02
RMM:   6    -0.413217420010E+03   -0.86852E-04   -0.30380E-03  5775   0.516E-02    0.335E-02
RMM:   7    -0.413217436853E+03   -0.16843E-04   -0.37794E-04  5695   0.187E-02    0.204E-02
RMM:   8    -0.413217442817E+03   -0.59636E-05   -0.98462E-05  5176   0.101E-02    0.127E-02
RMM:   9    -0.413217433970E+03    0.88469E-05   -0.19252E-05  4434   0.536E-03    0.602E-03
RMM:  10    -0.413217432702E+03    0.12676E-05   -0.36871E-06  2775   0.276E-03    0.362E-03
RMM:  11    -0.413217431305E+03    0.13969E-05   -0.12644E-06  2499   0.186E-03    0.208E-03
RMM:  12    -0.413217427713E+03    0.35921E-05   -0.12539E-06  2515   0.175E-03    0.969E-04
RMM:  13    -0.413217424662E+03    0.30510E-05   -0.54572E-07  2344   0.122E-03    0.551E-04
RMM:  14    -0.413217423572E+03    0.10907E-05   -0.24465E-07  1834   0.844E-04    0.333E-04
RMM:  15    -0.413217420958E+03    0.26134E-05   -0.14350E-07  1325   0.711E-04    0.153E-04
RMM:  16    -0.413217417210E+03    0.37481E-05   -0.11993E-07  1328   0.692E-04    0.180E-04
RMM:  17    -0.413217415083E+03    0.21269E-05   -0.67591E-08  1018   0.613E-04    0.112E-04
RMM:  18    -0.413217411515E+03    0.35683E-05   -0.71940E-08  1242   0.635E-04    0.100E-04
RMM:  19    -0.413217409159E+03    0.23554E-05   -0.43999E-08  1025   0.581E-04    0.370E-05
RMM:  20    -0.413217408352E+03    0.80738E-06   -0.23612E-08   817   0.539E-04
   44 T=    71. E= -.41286658E+03 F= -.41321741E+03 E0= -.41319642E+03  EK= 0.35083E+00 SP= 0.00E+00 SK= 0.00E+00
       N       E                     dE             d eps       ncg     rms          rms(c)
RMM:   1    -0.413239696282E+03   -0.22287E-01   -0.81329E+00  4314   0.121E+00    0.977E-01
RMM:   2    -0.413226130889E+03    0.13565E-01   -0.13126E-01  4354   0.147E-01    0.713E-01
RMM:   3    -0.413224153900E+03    0.19770E-02   -0.35979E-02  5064   0.101E-01    0.317E-01
RMM:   4    -0.413254526691E+03   -0.30373E-01   -0.51236E-02  5079   0.194E-01    0.780E-01
RMM:   5    -0.413218468628E+03    0.36058E-01   -0.14911E-02  4720   0.128E-01    0.584E-02
RMM:   6    -0.413218526866E+03   -0.58238E-04   -0.27977E-03  5732   0.501E-02    0.344E-02
RMM:   7    -0.413218537982E+03   -0.11116E-04   -0.40511E-04  5675   0.194E-02    0.226E-02
RMM:   8    -0.413218537991E+03   -0.91022E-08   -0.11341E-04  5182   0.112E-02    0.128E-02
RMM:   9    -0.413218527264E+03    0.10727E-04   -0.16632E-05  4262   0.536E-03    0.542E-03
RMM:  10    -0.413218523453E+03    0.38110E-05   -0.37981E-06  2804   0.264E-03    0.331E-03
RMM:  11    -0.413218519933E+03    0.35199E-05   -0.11466E-06  2491   0.180E-03    0.180E-03
RMM:  12    -0.413218513405E+03    0.65281E-05   -0.89684E-07  2464   0.157E-03    0.836E-04
RMM:  13    -0.413218509033E+03    0.43729E-05   -0.41379E-07  2213   0.111E-03    0.405E-04
RMM:  14    -0.413218506917E+03    0.21154E-05   -0.20993E-07  1700   0.808E-04    0.247E-04
RMM:  15    -0.413218501414E+03    0.55030E-05   -0.13884E-07  1370   0.721E-04    0.163E-04
RMM:  16    -0.413218498202E+03    0.32118E-05   -0.86653E-08  1155   0.652E-04    0.129E-04
RMM:  17    -0.413218495107E+03    0.30958E-05   -0.68136E-08  1167   0.632E-04    0.858E-05
RMM:  18    -0.413218491322E+03    0.37841E-05   -0.58484E-08  1218   0.619E-04    0.488E-05
RMM:  19    -0.413218488599E+03    0.27234E-05   -0.41261E-08  1080   0.582E-04    0.385E-05
RMM:  20    -0.413218488096E+03    0.50281E-06   -0.19322E-08   766   0.530E-04
   45 T=    72. E= -.41286690E+03 F= -.41321849E+03 E0= -.41319752E+03  EK= 0.35158E+00 SP= 0.00E+00 SK= 0.00E+00
       N       E                     dE             d eps       ncg     rms          rms(c)
RMM:   1    -0.413237443583E+03   -0.18955E-01   -0.80493E+00  4314   0.127E+00    0.961E-01
RMM:   2    -0.413225380249E+03    0.12063E-01   -0.12923E-01  4367   0.156E-01    0.707E-01
RMM:   3    -0.413225331639E+03    0.48610E-04   -0.37636E-02  5063   0.111E-01    0.364E-01
RMM:   4    -0.413248802595E+03   -0.23471E-01   -0.48784E-02  5069   0.191E-01    0.725E-01
RMM:   5    -0.413217820056E+03    0.30983E-01   -0.12153E-02  4698   0.119E-01    0.571E-02
RMM:   6    -0.413217842462E+03   -0.22406E-04   -0.23514E-03  5705   0.462E-02    0.325E-02
RMM:   7    -0.413217857003E+03   -0.14541E-04   -0.35657E-04  5657   0.184E-02    0.218E-02
RMM:   8    -0.413217856559E+03    0.44380E-06   -0.10931E-04  5125   0.111E-02    0.119E-02
RMM:   9    -0.413217846991E+03    0.95685E-05   -0.14159E-05  4123   0.514E-03    0.493E-03
RMM:  10    -0.413217843577E+03    0.34137E-05   -0.33220E-06  2757   0.249E-03    0.296E-03
RMM:  11    -0.413217840123E+03    0.34546E-05   -0.11090E-06  2489   0.174E-03    0.156E-03
RMM:  12    -0.413217834240E+03    0.58826E-05   -0.81325E-07  2447   0.147E-03    0.736E-04
RMM:  13    -0.413217830501E+03    0.37394E-05   -0.35942E-07  2088   0.103E-03    0.346E-04
RMM:  14    -0.413217828056E+03    0.24449E-05   -0.18849E-07  1562   0.772E-04    0.199E-04
RMM:  15    -0.413217822331E+03    0.57246E-05   -0.14236E-07  1350   0.726E-04    0.153E-04
RMM:  16    -0.413217819871E+03    0.24601E-05   -0.87237E-08  1179   0.653E-04    0.101E-04
RMM:  17    -0.413217816223E+03    0.36478E-05   -0.73639E-08  1234   0.644E-04    0.638E-05
RMM:  18    -0.413217812887E+03    0.33365E-05   -0.57503E-08  1191   0.606E-04    0.390E-05
RMM:  19    -0.413217810857E+03    0.20301E-05   -0.36223E-08   978   0.561E-04    0.326E-05
RMM:  20    -0.413217810493E+03    0.36403E-06   -0.17850E-08   753   0.524E-04
   46 T=    71. E= -.41286668E+03 F= -.41321781E+03 E0= -.41319686E+03  EK= 0.35113E+00 SP= 0.00E+00 SK= 0.00E+00
       N       E                     dE             d eps       ncg     rms          rms(c)
RMM:   1    -0.413238401885E+03   -0.20591E-01   -0.81185E+00  4314   0.139E+00    0.955E-01
RMM:   2    -0.413223936347E+03    0.14466E-01   -0.12753E-01  4398   0.167E-01    0.712E-01
RMM:   3    -0.413226381062E+03   -0.24447E-02   -0.42592E-02  5072   0.126E-01    0.425E-01
RMM:   4    -0.413242741044E+03   -0.16360E-01   -0.47358E-02  5048   0.190E-01    0.675E-01
RMM:   5    -0.413216129474E+03    0.26612E-01   -0.99614E-03  4662   0.112E-01    0.555E-02
RMM:   6    -0.413216121162E+03    0.83116E-05   -0.20032E-03  5634   0.425E-02    0.301E-02
RMM:   7    -0.413216134415E+03   -0.13253E-04   -0.30718E-04  5619   0.172E-02    0.202E-02
RMM:   8    -0.413216135636E+03   -0.12209E-05   -0.10594E-04  5098   0.108E-02    0.108E-02
RMM:   9    -0.413216127548E+03    0.80883E-05   -0.12703E-05  4010   0.499E-03    0.458E-03
RMM:  10    -0.413216125528E+03    0.20202E-05   -0.28595E-06  2706   0.241E-03    0.271E-03
RMM:  11    -0.413216123123E+03    0.24048E-05   -0.11755E-06  2497   0.173E-03    0.137E-03
RMM:  12    -0.413216119230E+03    0.38931E-05   -0.80412E-07  2433   0.141E-03    0.687E-04
RMM:  13    -0.413216116465E+03    0.27647E-05   -0.36405E-07  1939   0.990E-04    0.312E-04
RMM:  14    -0.413216114078E+03    0.23865E-05   -0.20500E-07  1478   0.770E-04    0.172E-04
RMM:  15    -0.413216109678E+03    0.44004E-05   -0.17582E-07  1382   0.743E-04    0.129E-04
RMM:  16    -0.413216107372E+03    0.23060E-05   -0.11248E-07  1268   0.668E-04    0.941E-05
RMM:  17    -0.413216103441E+03    0.39307E-05   -0.10582E-07  1380   0.667E-04    0.576E-05
RMM:  18    -0.413216100737E+03    0.27044E-05   -0.68207E-08  1130   0.592E-04    0.346E-05
RMM:  19    -0.413216100082E+03    0.65489E-06   -0.33425E-08   828   0.532E-04
   47 T=    71. E= -.41286661E+03 F= -.41321610E+03 E0= -.41319517E+03  EK= 0.34949E+00 SP= 0.00E+00 SK= 0.00E+00
       N       E                     dE             d eps       ncg     rms          rms(c)
RMM:   1    -0.413233358755E+03   -0.17258E-01   -0.79770E+00  4312   0.141E+00    0.968E-01
RMM:   2    -0.413220716567E+03    0.12642E-01   -0.12801E-01  4435   0.174E-01    0.710E-01
RMM:   3    -0.413227763265E+03   -0.70467E-02   -0.42743E-02  5093   0.138E-01    0.504E-01
RMM:   4    -0.413232762469E+03   -0.49992E-02   -0.44358E-02  5021   0.187E-01    0.578E-01
RMM:   5    -0.413213249410E+03    0.19513E-01   -0.65176E-03  4609   0.981E-02    0.548E-02
RMM:   6    -0.413213203990E+03    0.45420E-04   -0.13223E-03  5376   0.361E-02    0.290E-02
RMM:   7    -0.413213220406E+03   -0.16416E-04   -0.21922E-04  5568   0.150E-02    0.179E-02
RMM:   8    -0.413213221850E+03   -0.14434E-05   -0.10354E-04  5139   0.107E-02    0.107E-02
RMM:   9    -0.413213210253E+03    0.11597E-04   -0.12510E-05  4021   0.504E-03    0.431E-03
RMM:  10    -0.413213207017E+03    0.32361E-05   -0.29097E-06  2719   0.238E-03    0.241E-03
RMM:  11    -0.413213202396E+03    0.46215E-05   -0.11493E-06  2485   0.176E-03    0.122E-03
RMM:  12    -0.413213197503E+03    0.48926E-05   -0.58183E-07  2342   0.129E-03    0.668E-04
RMM:  13    -0.413213193647E+03    0.38561E-05   -0.27751E-07  1813   0.913E-04    0.312E-04
RMM:  14    -0.413213189628E+03    0.40193E-05   -0.16072E-07  1393   0.737E-04    0.163E-04
RMM:  15    -0.413213185009E+03    0.46185E-05   -0.12030E-07  1306   0.696E-04    0.118E-04
RMM:  16    -0.413213181974E+03    0.30353E-05   -0.81784E-08  1205   0.641E-04    0.846E-05
RMM:  17    -0.413213176208E+03    0.57659E-05   -0.88797E-08  1420   0.664E-04    0.653E-05
RMM:  18    -0.413213174803E+03    0.14053E-05   -0.36338E-08   892   0.542E-04    0.441E-05
RMM:  19    -0.413213173309E+03    0.14935E-05   -0.28998E-08   868   0.534E-04    0.195E-05
RMM:  20    -0.413213172701E+03    0.60854E-06   -0.19144E-08   739   0.511E-04
   48 T=    71. E= -.41286681E+03 F= -.41321317E+03 E0= -.41319225E+03  EK= 0.34636E+00 SP= 0.00E+00 SK= 0.00E+00
       N       E                     dE             d eps       ncg     rms          rms(c)
RMM:   1    -0.413229722013E+03   -0.16549E-01   -0.78142E+00  4310   0.152E+00    0.955E-01
RMM:   2    -0.413215030795E+03    0.14691E-01   -0.12786E-01  4488   0.185E-01    0.698E-01
RMM:   3    -0.413228450299E+03   -0.13420E-01   -0.45677E-02  5110   0.155E-01    0.602E-01
RMM:   4    -0.413221201876E+03    0.72484E-02   -0.42654E-02  4985   0.187E-01    0.482E-01
RMM:   5    -0.413207689435E+03    0.13512E-01   -0.42773E-03  4567   0.872E-02    0.548E-02
RMM:   6    -0.413207599428E+03    0.90007E-04   -0.73679E-04  4924   0.298E-02    0.282E-02
RMM:   7    -0.413207609054E+03   -0.96259E-05   -0.15075E-04  5686   0.129E-02    0.115E-02
RMM:   8    -0.413207605607E+03    0.34468E-05   -0.29069E-05  4993   0.635E-03    0.607E-03
RMM:   9    -0.413207601711E+03    0.38955E-05   -0.47857E-06  2944   0.277E-03    0.324E-03
RMM:  10    -0.413207598505E+03    0.32068E-05   -0.19153E-06  2568   0.215E-03    0.220E-03
RMM:  11    -0.413207593517E+03    0.49878E-05   -0.90372E-07  2445   0.167E-03    0.123E-03
RMM:  12    -0.413207590077E+03    0.34398E-05   -0.37787E-07  2168   0.108E-03    0.670E-04
RMM:  13    -0.413207585500E+03    0.45771E-05   -0.25333E-07  1861   0.879E-04    0.422E-04
RMM:  14    -0.413207579879E+03    0.56208E-05   -0.15827E-07  1344   0.724E-04    0.216E-04
RMM:  15    -0.413207576744E+03    0.31351E-05   -0.89986E-08  1078   0.625E-04    0.111E-04
RMM:  16    -0.413207572644E+03    0.40999E-05   -0.80933E-08  1233   0.635E-04    0.102E-04
RMM:  17    -0.413207567336E+03    0.53076E-05   -0.78150E-08  1322   0.636E-04    0.887E-05
RMM:  18    -0.413207566385E+03    0.95128E-06   -0.27729E-08   781   0.519E-04
   49 T=    69. E= -.41286647E+03 F= -.41320757E+03 E0= -.41318665E+03  EK= 0.34110E+00 SP= 0.00E+00 SK= 0.00E+00
       N       E                     dE             d eps       ncg     rms          rms(c)
RMM:   1    -0.413231567726E+03   -0.24000E-01   -0.77916E+00  4310   0.171E+00    0.928E-01
RMM:   2    -0.413208320242E+03    0.23247E-01   -0.13456E-01  4560   0.198E-01    0.696E-01
RMM:   3    -0.413227889744E+03   -0.19570E-01   -0.49995E-02  5126   0.173E-01    0.685E-01
RMM:   4    -0.413212158116E+03    0.15732E-01   -0.45181E-02  4959   0.194E-01    0.443E-01
RMM:   5    -0.413200827787E+03    0.11330E-01   -0.40668E-03  4577   0.877E-02    0.572E-02
RMM:   6    -0.413200698803E+03    0.12898E-03   -0.55954E-04  4792   0.286E-02    0.281E-02
RMM:   7    -0.413200721599E+03   -0.22796E-04   -0.21129E-04  5786   0.157E-02    0.166E-02
RMM:   8    -0.413200709720E+03    0.11879E-04   -0.64729E-05  5114   0.904E-03    0.905E-03
RMM:   9    -0.413200706709E+03    0.30117E-05   -0.11459E-05  4097   0.459E-03    0.405E-03
RMM:  10    -0.413200703957E+03    0.27520E-05   -0.17422E-06  2589   0.218E-03    0.232E-03
RMM:  11    -0.413200699625E+03    0.43320E-05   -0.10563E-06  2496   0.167E-03    0.150E-03
RMM:  12    -0.413200696850E+03    0.27749E-05   -0.45672E-07  2267   0.113E-03    0.787E-04
RMM:  13    -0.413200692667E+03    0.41832E-05   -0.41186E-07  2215   0.100E-03    0.465E-04
RMM:  14    -0.413200689233E+03    0.34334E-05   -0.20754E-07  1436   0.756E-04    0.308E-04
RMM:  15    -0.413200685373E+03    0.38599E-05   -0.16137E-07  1264   0.701E-04    0.138E-04
RMM:  16    -0.413200682809E+03    0.25643E-05   -0.11025E-07  1242   0.650E-04    0.100E-04
RMM:  17    -0.413200678801E+03    0.40077E-05   -0.11882E-07  1425   0.662E-04    0.976E-05
RMM:  18    -0.413200677477E+03    0.13240E-05   -0.56800E-08   973   0.540E-04    0.719E-05
RMM:  19    -0.413200676130E+03    0.13471E-05   -0.39259E-08   881   0.523E-04    0.309E-05
RMM:  20    -0.413200675161E+03    0.96912E-06   -0.32538E-08   831   0.510E-04
   50 T=    68. E= -.41286673E+03 F= -.41320068E+03 E0= -.41317976E+03  EK= 0.33395E+00 SP= 0.00E+00 SK= 0.00E+00
       N       E                     dE             d eps       ncg     rms          rms(c)
RMM:   1    -0.413220584684E+03   -0.19909E-01   -0.75587E+00  4306   0.176E+00    0.926E-01
RMM:   2    -0.413198230007E+03    0.22355E-01   -0.14049E-01  4635   0.205E-01    0.691E-01
RMM:   3    -0.413225315204E+03   -0.27085E-01   -0.52375E-02  5139   0.187E-01    0.774E-01
RMM:   4    -0.413199021957E+03    0.26293E-01   -0.45774E-02  4939   0.199E-01    0.376E-01
RMM:   5    -0.413190906045E+03    0.81159E-02   -0.37809E-03  4732   0.868E-02    0.634E-02
[...]
RMM:  10    -0.413162723836E+03   -0.96280E-05   -0.24888E-06  2608   0.221E-03    0.235E-03
RMM:  11    -0.413162739699E+03   -0.15862E-04   -0.19055E-06  2563   0.198E-03    0.148E-03
RMM:  12    -0.413162747692E+03   -0.79929E-05   -0.84833E-07  2466   0.136E-03    0.663E-04
RMM:  13    -0.413162753129E+03   -0.54369E-05   -0.50436E-07  2058   0.102E-03    0.370E-04
RMM:  14    -0.413162757315E+03   -0.41859E-05   -0.36184E-07  1786   0.879E-04    0.254E-04
RMM:  15    -0.413162762917E+03   -0.56023E-05   -0.53836E-07  1965   0.935E-04    0.175E-04
RMM:  16    -0.413162764474E+03   -0.15570E-05   -0.17916E-07  1278   0.655E-04    0.972E-05
RMM:  17    -0.413162765789E+03   -0.13152E-05   -0.12918E-07  1200   0.638E-04    0.666E-05
RMM:  18    -0.413162766386E+03   -0.59712E-06   -0.70341E-08  1022   0.577E-04
  139 T=    60. E= -.41286624E+03 F= -.41316277E+03 E0= -.41314209E+03  EK= 0.29653E+00 SP= 0.00E+00 SK= 0.00E+00
       N       E                     dE             d eps       ncg     rms          rms(c)
RMM:   1    -0.413156391907E+03    0.63739E-02   -0.89240E+00  4264   0.900E-01    0.812E-01
RMM:   2    -0.413163321397E+03   -0.69295E-02   -0.10176E-01  4382   0.994E-02    0.570E-01
RMM:   3    -0.413162749511E+03    0.57189E-03   -0.83297E-03  5078   0.550E-02    0.190E-01
RMM:   4    -0.413193212032E+03   -0.30463E-01   -0.36910E-02  5126   0.161E-01    0.738E-01
RMM:   5    -0.413161445285E+03    0.31767E-01   -0.15014E-02  4786   0.124E-01    0.550E-02
RMM:   6    -0.413161426860E+03    0.18425E-04   -0.24864E-03  5658   0.489E-02    0.249E-02
RMM:   7    -0.413161459457E+03   -0.32597E-04   -0.37149E-04  6005   0.170E-02    0.179E-02
RMM:   8    -0.413161472052E+03   -0.12595E-04   -0.74859E-05  5209   0.874E-03    0.825E-03
RMM:   9    -0.413161481777E+03   -0.97243E-05   -0.12078E-05  3556   0.404E-03    0.382E-03
RMM:  10    -0.413161488524E+03   -0.67470E-05   -0.23984E-06  2612   0.220E-03    0.247E-03
RMM:  11    -0.413161499906E+03   -0.11382E-04   -0.19037E-06  2565   0.199E-03    0.151E-03
RMM:  12    -0.413161505692E+03   -0.57862E-05   -0.87626E-07  2467   0.140E-03    0.628E-04
RMM:  13    -0.413161509167E+03   -0.34750E-05   -0.49229E-07  2058   0.102E-03    0.352E-04
RMM:  14    -0.413161511750E+03   -0.25827E-05   -0.33141E-07  1727   0.860E-04    0.244E-04
RMM:  15    -0.413161515250E+03   -0.35003E-05   -0.52860E-07  1930   0.920E-04    0.179E-04
RMM:  16    -0.413161516095E+03   -0.84507E-06   -0.16195E-07  1278   0.649E-04
  140 T=    60. E= -.41286646E+03 F= -.41316152E+03 E0= -.41314085E+03  EK= 0.29505E+00 SP= 0.00E+00 SK= 0.00E+00
       N       E                     dE             d eps       ncg     rms          rms(c)
RMM:   1    -0.413158139549E+03    0.33757E-02   -0.87147E+00  4264   0.926E-01    0.792E-01
RMM:   2    -0.413162606411E+03   -0.44669E-02   -0.10058E-01  4364   0.101E-01    0.567E-01
RMM:   3    -0.413161466703E+03    0.11397E-02   -0.84222E-03  5065   0.545E-02    0.174E-01
RMM:   4    -0.413192965579E+03   -0.31499E-01   -0.36953E-02  5129   0.161E-01    0.747E-01
RMM:   5    -0.413160325480E+03    0.32640E-01   -0.15510E-02  4794   0.125E-01    0.539E-02
RMM:   6    -0.413160331132E+03   -0.56514E-05   -0.25921E-03  5693   0.494E-02    0.254E-02
RMM:   7    -0.413160366494E+03   -0.35362E-04   -0.37457E-04  6006   0.170E-02    0.177E-02
RMM:   8    -0.413160381672E+03   -0.15178E-04   -0.77422E-05  5221   0.890E-03    0.838E-03
RMM:   9    -0.413160392178E+03   -0.10506E-04   -0.11543E-05  3485   0.396E-03    0.386E-03
RMM:  10    -0.413160400340E+03   -0.81628E-05   -0.24668E-06  2614   0.219E-03    0.252E-03
RMM:  11    -0.413160413570E+03   -0.13229E-04   -0.18750E-06  2564   0.197E-03    0.146E-03
RMM:  12    -0.413160420598E+03   -0.70285E-05   -0.90800E-07  2455   0.140E-03    0.584E-04
RMM:  13    -0.413160424757E+03   -0.41584E-05   -0.50063E-07  2081   0.104E-03    0.337E-04
RMM:  14    -0.413160427623E+03   -0.28662E-05   -0.31124E-07  1716   0.856E-04    0.239E-04
RMM:  15    -0.413160432068E+03   -0.44454E-05   -0.50850E-07  1973   0.935E-04    0.176E-04
RMM:  16    -0.413160432957E+03   -0.88829E-06   -0.14594E-07  1274   0.639E-04
  141 T=    60. E= -.41286635E+03 F= -.41316043E+03 E0= -.41313979E+03  EK= 0.29409E+00 SP= 0.00E+00 SK= 0.00E+00
       N       E                     dE             d eps       ncg     rms          rms(c)
RMM:   1    -0.413155758275E+03    0.46738E-02   -0.85945E+00  4264   0.875E-01    0.788E-01
RMM:   2    -0.413162725500E+03   -0.69672E-02   -0.99986E-02  4366   0.986E-02    0.577E-01
RMM:   3    -0.413161347225E+03    0.13783E-02   -0.91665E-03  5047   0.530E-02    0.154E-01
RMM:   4    -0.413193929420E+03   -0.32582E-01   -0.37238E-02  5133   0.161E-01    0.756E-01
RMM:   5    -0.413160371102E+03    0.33558E-01   -0.16040E-02  4799   0.127E-01    0.530E-02
RMM:   6    -0.413160387617E+03   -0.16515E-04   -0.26516E-03  5707   0.497E-02    0.255E-02
RMM:   7    -0.413160428421E+03   -0.40804E-04   -0.37822E-04  6003   0.170E-02    0.174E-02
RMM:   8    -0.413160447875E+03   -0.19454E-04   -0.77033E-05  5210   0.897E-03    0.840E-03
RMM:   9    -0.413160460709E+03   -0.12835E-04   -0.11326E-05  3447   0.394E-03    0.388E-03
RMM:  10    -0.413160470865E+03   -0.10155E-04   -0.25797E-06  2625   0.221E-03    0.255E-03
RMM:  11    -0.413160485984E+03   -0.15120E-04   -0.18113E-06  2554   0.194E-03    0.143E-03
RMM:  12    -0.413160495232E+03   -0.92479E-05   -0.97502E-07  2452   0.143E-03    0.546E-04
RMM:  13    -0.413160500163E+03   -0.49306E-05   -0.50290E-07  2071   0.104E-03    0.328E-04
RMM:  14    -0.413160503488E+03   -0.33253E-05   -0.30039E-07  1663   0.853E-04    0.231E-04
RMM:  15    -0.413160509061E+03   -0.55726E-05   -0.46283E-07  1971   0.926E-04    0.169E-04
RMM:  16    -0.413160510058E+03   -0.99766E-06   -0.13830E-07  1262   0.634E-04
  142 T=    60. E= -.41286622E+03 F= -.41316051E+03 E0= -.41313988E+03  EK= 0.29429E+00 SP= 0.00E+00 SK= 0.00E+00
       N       E                     dE             d eps       ncg     rms          rms(c)
RMM:   1    -0.413156369988E+03    0.41391E-02   -0.84819E+00  4264   0.887E-01    0.806E-01
RMM:   2    -0.413161824169E+03   -0.54542E-02   -0.97978E-02  4374   0.981E-02    0.573E-01
RMM:   3    -0.413160555980E+03    0.12682E-02   -0.94290E-03  5064   0.505E-02    0.149E-01
RMM:   4    -0.413191546597E+03   -0.30991E-01   -0.34800E-02  5135   0.156E-01    0.737E-01
RMM:   5    -0.413159763680E+03    0.31783E-01   -0.15356E-02  4808   0.123E-01    0.530E-02
RMM:   6    -0.413159782170E+03   -0.18491E-04   -0.25336E-03  5695   0.489E-02    0.275E-02
RMM:   7    -0.413159818142E+03   -0.35972E-04   -0.38076E-04  5969   0.171E-02    0.181E-02
RMM:   8    -0.413159832538E+03   -0.14396E-04   -0.78556E-05  5221   0.915E-03    0.863E-03
RMM:   9    -0.413159840058E+03   -0.75198E-05   -0.10576E-05  3409   0.384E-03    0.410E-03
RMM:  10    -0.413159847628E+03   -0.75697E-05   -0.25132E-06  2627   0.221E-03    0.268E-03
RMM:  11    -0.413159857812E+03   -0.10185E-04   -0.17242E-06  2543   0.189E-03    0.143E-03
RMM:  12    -0.413159864508E+03   -0.66955E-05   -0.10364E-06  2457   0.145E-03    0.516E-04
RMM:  13    -0.413159867716E+03   -0.32078E-05   -0.51692E-07  2141   0.106E-03    0.329E-04
RMM:  14    -0.413159869714E+03   -0.19981E-05   -0.29573E-07  1717   0.853E-04    0.239E-04
RMM:  15    -0.413159872992E+03   -0.32782E-05   -0.42153E-07  1931   0.907E-04    0.165E-04
RMM:  16    -0.413159873788E+03   -0.79648E-06   -0.14440E-07  1314   0.650E-04
  143 T=    60. E= -.41286653E+03 F= -.41315987E+03 E0= -.41313926E+03  EK= 0.29334E+00 SP= 0.00E+00 SK= 0.00E+00
       N       E                     dE             d eps       ncg     rms          rms(c)
RMM:   1    -0.413155552122E+03    0.43209E-02   -0.83142E+00  4264   0.887E-01    0.796E-01
RMM:   2    -0.413160638373E+03   -0.50863E-02   -0.95450E-02  4384   0.949E-02    0.567E-01
RMM:   3    -0.413158855493E+03    0.17829E-02   -0.95682E-03  5089   0.467E-02    0.136E-01
RMM:   4    -0.413188074373E+03   -0.29219E-01   -0.32295E-02  5139   0.150E-01    0.715E-01
RMM:   5    -0.413158223842E+03    0.29851E-01   -0.14471E-02  4808   0.119E-01    0.521E-02
RMM:   6    -0.413158244603E+03   -0.20761E-04   -0.24381E-03  5715   0.476E-02    0.281E-02
RMM:   7    -0.413158274713E+03   -0.30110E-04   -0.37408E-04  5954   0.169E-02    0.180E-02
RMM:   8    -0.413158286231E+03   -0.11518E-04   -0.75530E-05  5211   0.904E-03    0.863E-03
RMM:   9    -0.413158292618E+03   -0.63869E-05   -0.99244E-06  3365   0.373E-03    0.420E-03
RMM:  10    -0.413158300133E+03   -0.75150E-05   -0.24319E-06  2617   0.219E-03    0.273E-03
RMM:  11    -0.413158309516E+03   -0.93826E-05   -0.16551E-06  2535   0.185E-03    0.144E-03
RMM:  12    -0.413158316261E+03   -0.67445E-05   -0.10917E-06  2459   0.147E-03    0.496E-04
RMM:  13    -0.413158319082E+03   -0.28216E-05   -0.50313E-07  2115   0.106E-03    0.328E-04
RMM:  14    -0.413158320832E+03   -0.17500E-05   -0.28430E-07  1707   0.851E-04    0.239E-04
RMM:  15    -0.413158323628E+03   -0.27962E-05   -0.36446E-07  1842   0.872E-04    0.157E-04
RMM:  16    -0.413158324462E+03   -0.83382E-06   -0.14442E-07  1358   0.663E-04
  144 T=    59. E= -.41286625E+03 F= -.41315832E+03 E0= -.41313772E+03  EK= 0.29207E+00 SP= 0.00E+00 SK= 0.00E+00
       N       E                     dE             d eps       ncg     rms          rms(c)
RMM:   1    -0.413155222651E+03    0.31010E-02   -0.82471E+00  4264   0.859E-01    0.784E-01
RMM:   2    -0.413161480416E+03   -0.62578E-02   -0.95495E-02  4393   0.930E-02    0.575E-01
RMM:   3    -0.413159116724E+03    0.23637E-02   -0.10256E-02  5031   0.477E-02    0.114E-01
RMM:   4    -0.413185548043E+03   -0.26431E-01   -0.28578E-02  5140   0.141E-01    0.680E-01
RMM:   5    -0.413158626412E+03    0.26922E-01   -0.13157E-02  4817   0.113E-01    0.490E-02
RMM:   6    -0.413158646448E+03   -0.20036E-04   -0.21823E-03  5733   0.452E-02    0.272E-02
RMM:   7    -0.413158681034E+03   -0.34585E-04   -0.33573E-04  5928   0.161E-02    0.167E-02
RMM:   8    -0.413158697252E+03   -0.16218E-04   -0.67541E-05  5180   0.861E-03    0.810E-03
RMM:   9    -0.413158705932E+03   -0.86807E-05   -0.90199E-06  3273   0.355E-03    0.405E-03
RMM:  10    -0.413158716076E+03   -0.10143E-04   -0.22232E-06  2598   0.212E-03    0.265E-03
RMM:  11    -0.413158728274E+03   -0.12198E-04   -0.15625E-06  2532   0.178E-03    0.138E-03
RMM:  12    -0.413158737724E+03   -0.94503E-05   -0.11085E-06  2446   0.144E-03    0.475E-04
RMM:  13    -0.413158741448E+03   -0.37239E-05   -0.47958E-07  2082   0.103E-03    0.325E-04
RMM:  14    -0.413158743932E+03   -0.24838E-05   -0.26928E-07  1616   0.835E-04    0.228E-04
RMM:  15    -0.413158747801E+03   -0.38695E-05   -0.32990E-07  1782   0.847E-04    0.147E-04
RMM:  16    -0.413158749327E+03   -0.15260E-05   -0.15208E-07  1420   0.680E-04    0.104E-04
RMM:  17    -0.413158750416E+03   -0.10890E-05   -0.10448E-07  1210   0.614E-04    0.593E-05
RMM:  18    -0.413158751085E+03   -0.66873E-06   -0.67906E-08  1070   0.570E-04
  145 T=    60. E= -.41286624E+03 F= -.41315875E+03 E0= -.41313815E+03  EK= 0.29251E+00 SP= 0.00E+00 SK= 0.00E+00
       N       E                     dE             d eps       ncg     rms          rms(c)
RMM:   1    -0.413155444050E+03    0.33064E-02   -0.82185E+00  4264   0.859E-01    0.799E-01
RMM:   2    -0.413160833570E+03   -0.53895E-02   -0.93929E-02  4366   0.953E-02    0.574E-01
RMM:   3    -0.413158722674E+03    0.21109E-02   -0.10316E-02  5010   0.456E-02    0.105E-01
RMM:   4    -0.413181239531E+03   -0.22517E-01   -0.23835E-02  5138   0.129E-01    0.628E-01
RMM:   5    -0.413158399993E+03    0.22840E-01   -0.11279E-02  4818   0.105E-01    0.472E-02
RMM:   6    -0.413158421554E+03   -0.21560E-04   -0.19111E-03  5720   0.424E-02    0.282E-02
RMM:   7    -0.413158450350E+03   -0.28797E-04   -0.31289E-04  5848   0.158E-02    0.165E-02
RMM:   8    -0.413158463047E+03   -0.12697E-04   -0.60685E-05  5150   0.827E-03    0.799E-03
RMM:   9    -0.413158468581E+03   -0.55340E-05   -0.77093E-06  3163   0.330E-03    0.420E-03
RMM:  10    -0.413158476668E+03   -0.80869E-05   -0.20226E-06  2575   0.207E-03    0.268E-03
RMM:  11    -0.413158485451E+03   -0.87830E-05   -0.14485E-06  2530   0.172E-03    0.136E-03
RMM:  12    -0.413158492485E+03   -0.70347E-05   -0.11280E-06  2455   0.145E-03    0.501E-04
RMM:  13    -0.413158495128E+03   -0.26421E-05   -0.47029E-07  2083   0.102E-03    0.334E-04
RMM:  14    -0.413158496885E+03   -0.17575E-05   -0.25951E-07  1607   0.825E-04    0.229E-04
RMM:  15    -0.413158499353E+03   -0.24679E-05   -0.28722E-07  1746   0.826E-04    0.155E-04
RMM:  16    -0.413158500786E+03   -0.14331E-05   -0.16827E-07  1470   0.696E-04    0.116E-04
RMM:  17    -0.413158501441E+03   -0.65526E-06   -0.94213E-08  1143   0.596E-04
  146 T=    59. E= -.41286634E+03 F= -.41315850E+03 E0= -.41313791E+03  EK= 0.29216E+00 SP= 0.00E+00 SK= 0.00E+00
       N       E                     dE             d eps       ncg     rms          rms(c)
RMM:   1    -0.413154226301E+03    0.42745E-02   -0.81644E+00  4264   0.863E-01    0.801E-01
RMM:   2    -0.413159531409E+03   -0.53051E-02   -0.92533E-02  4388   0.931E-02    0.568E-01
RMM:   3    -0.413157304408E+03    0.22270E-02   -0.10177E-02  5019   0.427E-02    0.994E-02
RMM:   4    -0.413175193721E+03   -0.17889E-01   -0.18680E-02  5151   0.114E-01    0.561E-01
RMM:   5    -0.413157113480E+03    0.18080E-01   -0.90737E-03  4825   0.935E-02    0.455E-02
RMM:   6    -0.413157127181E+03   -0.13700E-04   -0.15708E-03  5731   0.387E-02    0.292E-02
RMM:   7    -0.413157152335E+03   -0.25155E-04   -0.28399E-04  5771   0.152E-02    0.158E-02
RMM:   8    -0.413157161552E+03   -0.92166E-05   -0.52140E-05  5116   0.776E-03    0.771E-03
RMM:   9    -0.413157165318E+03   -0.37660E-05   -0.62585E-06  3081   0.302E-03    0.419E-03
RMM:  10    -0.413157172024E+03   -0.67065E-05   -0.17141E-06  2549   0.198E-03    0.260E-03
RMM:  11    -0.413157178973E+03   -0.69488E-05   -0.13672E-06  2522   0.165E-03    0.131E-03
RMM:  12    -0.413157184265E+03   -0.52917E-05   -0.10941E-06  2464   0.141E-03    0.544E-04
RMM:  13    -0.413157186273E+03   -0.20078E-05   -0.46728E-07  2083   0.101E-03    0.335E-04
RMM:  14    -0.413157187636E+03   -0.13631E-05   -0.26591E-07  1588   0.815E-04    0.226E-04
RMM:  15    -0.413157189270E+03   -0.16337E-05   -0.28157E-07  1739   0.814E-04    0.164E-04
RMM:  16    -0.413157190317E+03   -0.10476E-05   -0.17973E-07  1478   0.702E-04    0.122E-04
RMM:  17    -0.413157190704E+03   -0.38645E-06   -0.87492E-08  1095   0.584E-04
  147 T=    59. E= -.41286626E+03 F= -.41315719E+03 E0= -.41313660E+03  EK= 0.29094E+00 SP= 0.00E+00 SK= 0.00E+00
       N       E                     dE             d eps       ncg     rms          rms(c)
RMM:   1    -0.413154355872E+03    0.28344E-02   -0.81458E+00  4264   0.857E-01    0.783E-01
RMM:   2    -0.413160279732E+03   -0.59239E-02   -0.92832E-02  4397   0.914E-02    0.570E-01
RMM:   3    -0.413157610847E+03    0.26689E-02   -0.10267E-02  4993   0.407E-02    0.785E-02
RMM:   4    -0.413169340881E+03   -0.11730E-01   -0.12220E-02  5156   0.929E-02    0.456E-01
RMM:   5    -0.413157510376E+03    0.11831E-01   -0.59736E-03  4834   0.760E-02    0.410E-02
RMM:   6    -0.413157516376E+03   -0.60007E-05   -0.10717E-03  5695   0.324E-02    0.271E-02
RMM:   7    -0.413157545559E+03   -0.29182E-04   -0.22383E-04  5658   0.135E-02    0.140E-02
RMM:   8    -0.413157556633E+03   -0.11074E-04   -0.40673E-05  4996   0.697E-03    0.700E-03
RMM:   9    -0.413157561737E+03   -0.51043E-05   -0.45099E-06  2891   0.262E-03    0.381E-03
RMM:  10    -0.413157570761E+03   -0.90235E-05   -0.13399E-06  2530   0.178E-03    0.229E-03
RMM:  11    -0.413157582107E+03   -0.11346E-04   -0.13887E-06  2519   0.159E-03    0.115E-03
RMM:  12    -0.413157589531E+03   -0.74243E-05   -0.92867E-07  2398   0.128E-03    0.557E-04
RMM:  13    -0.413157592905E+03   -0.33739E-05   -0.43243E-07  1977   0.941E-04    0.310E-04
RMM:  14    -0.413157596101E+03   -0.31958E-05   -0.32590E-07  1553   0.827E-04    0.211E-04
RMM:  15    -0.413157599138E+03   -0.30372E-05   -0.34134E-07  1816   0.832E-04    0.179E-04
RMM:  16    -0.413157600709E+03   -0.15715E-05   -0.18386E-07  1384   0.673E-04    0.104E-04
RMM:  17    -0.413157601437E+03   -0.72746E-06   -0.99032E-08  1139   0.590E-04
  148 T=    59. E= -.41286643E+03 F= -.41315760E+03 E0= -.41313702E+03  EK= 0.29117E+00 SP= 0.00E+00 SK= 0.00E+00
       N       E                     dE             d eps       ncg     rms          rms(c)
RMM:   1    -0.413153929030E+03    0.36717E-02   -0.82212E+00  4264   0.860E-01    0.793E-01
RMM:   2    -0.413159684235E+03   -0.57552E-02   -0.93234E-02  4393   0.924E-02    0.573E-01
RMM:   3    -0.413157221864E+03    0.24624E-02   -0.10209E-02  4824   0.424E-02    0.725E-02
RMM:   4    -0.413163798996E+03   -0.65771E-02   -0.69098E-03  5164   0.704E-02    0.343E-01
RMM:   5    -0.413157202882E+03    0.65961E-02   -0.33822E-03  4844   0.574E-02    0.381E-02
RMM:   6    -0.413157207167E+03   -0.42847E-05   -0.66588E-04  5639   0.262E-02    0.266E-02
RMM:   7    -0.413157231980E+03   -0.24813E-04   -0.18416E-04  5518   0.124E-02    0.131E-02
RMM:   8    -0.413157239390E+03   -0.74103E-05   -0.29655E-05  4808   0.624E-03    0.657E-03
RMM:   9    -0.413157243485E+03   -0.40950E-05   -0.34329E-06  2781   0.230E-03    0.347E-03
RMM:  10    -0.413157251684E+03   -0.81984E-05   -0.11190E-06  2516   0.160E-03    0.200E-03
RMM:  11    -0.413157263442E+03   -0.11758E-04   -0.14549E-06  2519   0.155E-03    0.100E-03
RMM:  12    -0.413157268915E+03   -0.54736E-05   -0.71271E-07  2209   0.113E-03    0.547E-04
RMM:  13    -0.413157272643E+03   -0.37278E-05   -0.44217E-07  1939   0.925E-04    0.274E-04
RMM:  14    -0.413157276554E+03   -0.39115E-05   -0.47375E-07  1798   0.884E-04    0.236E-04
RMM:  15    -0.413157279047E+03   -0.24925E-05   -0.31908E-07  1591   0.778E-04    0.160E-04
RMM:  16    -0.413157280230E+03   -0.11826E-05   -0.17252E-07  1379   0.663E-04    0.803E-05
RMM:  17    -0.413157280854E+03   -0.62472E-06   -0.98943E-08  1175   0.579E-04
  149 T=    59. E= -.41286607E+03 F= -.41315728E+03 E0= -.41313670E+03  EK= 0.29121E+00 SP= 0.00E+00 SK= 0.00E+00
       N       E                     dE             d eps       ncg     rms          rms(c)
RMM:   1    -0.413154562269E+03    0.27180E-02   -0.82873E+00  4264   0.891E-01    0.805E-01
RMM:   2    -0.413158446424E+03   -0.38842E-02   -0.97015E-02  4383   0.970E-02    0.566E-01
RMM:   3    -0.413156318053E+03    0.21284E-02   -0.94546E-03  4851   0.386E-02    0.876E-02
RMM:   4    -0.413158307183E+03   -0.19891E-02   -0.25138E-03  5199   0.426E-02    0.189E-01
RMM:   5    -0.413156364315E+03    0.19429E-02   -0.10656E-03  4858   0.328E-02    0.378E-02
RMM:   6    -0.413156367412E+03   -0.30966E-05   -0.34773E-04  5471   0.194E-02    0.272E-02
RMM:   7    -0.413156385438E+03   -0.18026E-04   -0.15096E-04  5195   0.111E-02    0.130E-02
RMM:   8    -0.413156386578E+03   -0.11401E-05   -0.18183E-05  4438   0.527E-03    0.634E-03
RMM:   9    -0.413156388995E+03   -0.24169E-05   -0.34883E-06  2645   0.225E-03    0.294E-03
RMM:  10    -0.413156393894E+03   -0.48984E-05   -0.12547E-06  2506   0.168E-03    0.168E-03
RMM:  11    -0.413156402711E+03   -0.88169E-05   -0.17697E-06  2530   0.163E-03    0.864E-04
RMM:  12    -0.413156405451E+03   -0.27405E-05   -0.59417E-07  2111   0.107E-03    0.390E-04
RMM:  13    -0.413156407795E+03   -0.23440E-05   -0.45581E-07  1964   0.925E-04    0.289E-04
RMM:  14    -0.413156409982E+03   -0.21872E-05   -0.48972E-07  1779   0.870E-04    0.201E-04
RMM:  15    -0.413156411125E+03   -0.11431E-05   -0.28923E-07  1532   0.746E-04    0.125E-04
RMM:  16    -0.413156411797E+03   -0.67185E-06   -0.16042E-07  1292   0.637E-04
  150 T=    59. E= -.41286620E+03 F= -.41315641E+03 E0= -.41313583E+03  EK= 0.29021E+00 SP= 0.00E+00 SK= 0.00E+00
