       N       E                     dE             d eps       ncg     rms          rms(c)
RMM:   1     0.220173446934E+04    0.22017E+04   -0.52440E+04  2132   0.654E+02
RMM:   2     0.706010510880E+03   -0.14957E+04   -0.16264E+04  2132   0.177E+02
RMM:   3     0.138209370671E+03   -0.56780E+03   -0.65715E+03  2132   0.117E+02
RMM:   4    -0.159368145406E+03   -0.29758E+03   -0.27848E+03  2132   0.936E+01
RMM:   5    -0.287522055538E+03   -0.12815E+03   -0.11452E+03  2132   0.595E+01
RMM:   6    -0.350028684117E+03   -0.62507E+02   -0.55222E+02  2132   0.423E+01
RMM:   7    -0.382917928466E+03   -0.32889E+02   -0.30412E+02  2132   0.293E+01
RMM:   8    -0.404330321818E+03   -0.21412E+02   -0.18373E+02  2132   0.233E+01
RMM:   9    -0.436024383020E+03   -0.31694E+02   -0.30615E+02  6106   0.173E+01
RMM:  10    -0.441287667873E+03   -0.52633E+01   -0.62820E+01  6397   0.538E+00
RMM:  11    -0.442523692917E+03   -0.12360E+01   -0.11329E+01  6216   0.173E+00
RMM:  12    -0.442898156579E+03   -0.37446E+00   -0.26708E+00  6363   0.599E-01    0.134E+02
RMM:  13    -0.425605729726E+03    0.17292E+02   -0.80821E+01  4671   0.119E+01    0.712E+01
RMM:  14    -0.499263208649E+03   -0.73657E+02   -0.53940E+02  5418   0.232E+01    0.306E+01
RMM:  15    -0.414330581037E+03    0.84933E+02   -0.19557E+02  5067   0.163E+01    0.611E+00
RMM:  16    -0.414068407648E+03    0.26217E+00   -0.39213E+01  6072   0.603E+00    0.429E+00
RMM:  17    -0.413228844418E+03    0.83956E+00   -0.22500E+00  5322   0.180E+00    0.248E+00
RMM:  18    -0.413162831246E+03    0.66013E-01   -0.91292E-01  5938   0.991E-01    0.157E+00
RMM:  19    -0.413167070874E+03   -0.42396E-02   -0.28576E-01  5761   0.562E-01    0.847E-01
RMM:  20    -0.413180446991E+03   -0.13376E-01   -0.18480E-01  5309   0.480E-01    0.509E-01
RMM:  21    -0.413166595653E+03    0.13851E-01   -0.31399E-02  5025   0.216E-01    0.243E-01
RMM:  22    -0.413165212146E+03    0.13835E-02   -0.13065E-02  6096   0.958E-02    0.147E-01
RMM:  23    -0.413163788043E+03    0.14241E-02   -0.48852E-03  5816   0.641E-02    0.801E-02
RMM:  24    -0.413162528798E+03    0.12592E-02   -0.18574E-03  5678   0.422E-02    0.344E-02
RMM:  25    -0.413162385746E+03    0.14305E-03   -0.74805E-04  5694   0.229E-02    0.282E-02
RMM:  26    -0.413162638822E+03   -0.25308E-03   -0.58188E-04  5785   0.257E-02    0.306E-02
RMM:  27    -0.413163044315E+03   -0.40549E-03   -0.16720E-04  4558   0.183E-02    0.162E-02
RMM:  28    -0.413163556570E+03   -0.51226E-03   -0.18801E-04  5163   0.202E-02    0.870E-03
RMM:  29    -0.413163904203E+03   -0.34763E-03   -0.96086E-05  4403   0.138E-02    0.426E-03
RMM:  30    -0.413164122302E+03   -0.21810E-03   -0.71033E-05  3938   0.957E-03    0.250E-03
RMM:  31    -0.413164217265E+03   -0.94963E-04   -0.41445E-05  3129   0.544E-03    0.237E-03
RMM:  32    -0.413164246488E+03   -0.29223E-04   -0.16816E-05  2904   0.288E-03    0.109E-03
RMM:  33    -0.413164255834E+03   -0.93465E-05   -0.76425E-06  2745   0.195E-03    0.523E-04
RMM:  34    -0.413164260070E+03   -0.42352E-05   -0.37488E-06  2645   0.158E-03    0.952E-04
RMM:  35    -0.413164260217E+03   -0.14739E-06   -0.21025E-06  2062   0.105E-03
    1 T=    61. E= -.41286644E+03 F= -.41316426E+03 E0= -.41314176E+03  EK= 0.29782E+00 SP= 0.00E+00 SK= 0.00E+00
       N       E                     dE             d eps       ncg     rms          rms(c)
RMM:   1    -0.413154722812E+03    0.95373E-02   -0.11195E+01  4006   0.710E-01    0.887E-01
RMM:   2    -0.413165303455E+03   -0.10581E-01   -0.13826E-01  3875   0.100E-01    0.640E-01
RMM:   3    -0.413163858835E+03    0.14446E-02   -0.62297E-03  4697   0.360E-02    0.156E-01
RMM:   4    -0.413180782849E+03   -0.16924E-01   -0.17644E-02  5218   0.111E-01    0.545E-01
RMM:   5    -0.413163542187E+03    0.17241E-01   -0.85609E-03  4854   0.911E-02    0.271E-02
RMM:   6    -0.413163652051E+03   -0.10986E-03   -0.13720E-03  5838   0.357E-02    0.147E-02
RMM:   7    -0.413163666044E+03   -0.13993E-04   -0.16933E-04  5696   0.109E-02    0.112E-02
RMM:   8    -0.413163672485E+03   -0.64408E-05   -0.20839E-05  3849   0.425E-03    0.670E-03
RMM:   9    -0.413163679219E+03   -0.67340E-05   -0.38465E-06  2742   0.244E-03    0.430E-03
RMM:  10    -0.413163687373E+03   -0.81537E-05   -0.18117E-06  2548   0.191E-03    0.216E-03
RMM:  11    -0.413163694477E+03   -0.71040E-05   -0.12864E-06  2528   0.157E-03    0.101E-03
RMM:  12    -0.413163697918E+03   -0.34408E-05   -0.64835E-07  2334   0.114E-03    0.402E-04
RMM:  13    -0.413163699877E+03   -0.19591E-05   -0.37153E-07  1731   0.838E-04    0.223E-04
RMM:  14    -0.413163702312E+03   -0.24354E-05   -0.30599E-07  1453   0.759E-04    0.148E-04
RMM:  15    -0.413163703933E+03   -0.16212E-05   -0.22357E-07  1292   0.690E-04    0.872E-05
RMM:  16    -0.413163704699E+03   -0.76597E-06   -0.16615E-07  1123   0.633E-04
    2 T=    61. E= -.41286594E+03 F= -.41316370E+03 E0= -.41314120E+03  EK= 0.29776E+00 SP= 0.00E+00 SK= 0.00E+00
       N       E                     dE             d eps       ncg     rms          rms(c)
RMM:   1    -0.413155423060E+03    0.82809E-02   -0.11228E+01  4197   0.705E-01    0.912E-01
RMM:   2    -0.413165372019E+03   -0.99490E-02   -0.13541E-01  3965   0.971E-02    0.633E-01
RMM:   3    -0.413164670970E+03    0.70105E-03   -0.67387E-03  4870   0.385E-02    0.170E-01
RMM:   4    -0.413193607210E+03   -0.28936E-01   -0.29328E-02  5185   0.143E-01    0.708E-01
RMM:   5    -0.413164271717E+03    0.29335E-01   -0.14243E-02  4832   0.118E-01    0.365E-02
RMM:   6    -0.413164449314E+03   -0.17760E-03   -0.23098E-03  5811   0.462E-02    0.182E-02
RMM:   7    -0.413164461929E+03   -0.12616E-04   -0.27118E-04  5884   0.136E-02    0.135E-02
RMM:   8    -0.413164462771E+03   -0.84133E-06   -0.34128E-05  4328   0.511E-03    0.859E-03
RMM:   9    -0.413164462163E+03    0.60791E-06   -0.53233E-06  2917   0.266E-03
    3 T=    61. E= -.41286638E+03 F= -.41316446E+03 E0= -.41314197E+03  EK= 0.29809E+00 SP= 0.00E+00 SK= 0.00E+00
       N       E                     dE             d eps       ncg     rms          rms(c)
RMM:   1    -0.413154877032E+03    0.95857E-02   -0.11142E+01  4227   0.705E-01    0.895E-01
RMM:   2    -0.413165475189E+03   -0.10598E-01   -0.13437E-01  4169   0.982E-02    0.627E-01
RMM:   3    -0.413167491878E+03   -0.20167E-02   -0.88866E-03  5171   0.642E-02    0.289E-01
RMM:   4    -0.413195002789E+03   -0.27511E-01   -0.41289E-02  5142   0.171E-01    0.731E-01
RMM:   5    -0.413164074877E+03    0.30928E-01   -0.13149E-02  4743   0.122E-01    0.537E-02
RMM:   6    -0.413164131379E+03   -0.56502E-04   -0.22042E-03  5587   0.467E-02    0.159E-02
RMM:   7    -0.413164156235E+03   -0.24856E-04   -0.30768E-04  6036   0.150E-02    0.117E-02
RMM:   8    -0.413164159370E+03   -0.31351E-05   -0.38493E-05  4650   0.547E-03    0.742E-03
RMM:   9    -0.413164161122E+03   -0.17521E-05   -0.66068E-06  3057   0.354E-03    0.357E-03
RMM:  10    -0.413164162869E+03   -0.17467E-05   -0.19500E-06  2556   0.220E-03    0.214E-03
RMM:  11    -0.413164164699E+03   -0.18303E-05   -0.98298E-07  2537   0.154E-03    0.985E-04
RMM:  12    -0.413164165644E+03   -0.94405E-06   -0.45919E-07  2097   0.104E-03
    4 T=    61. E= -.41286608E+03 F= -.41316417E+03 E0= -.41314168E+03  EK= 0.29808E+00 SP= 0.00E+00 SK= 0.00E+00
       N       E                     dE             d eps       ncg     rms          rms(c)
RMM:   1    -0.413154672605E+03    0.94921E-02   -0.11180E+01  4236   0.711E-01    0.884E-01
RMM:   2    -0.413165657895E+03   -0.10985E-01   -0.13844E-01  3918   0.962E-02    0.639E-01
RMM:   3    -0.413164449418E+03    0.12085E-02   -0.62154E-03  4809   0.351E-02    0.160E-01
RMM:   4    -0.413187128758E+03   -0.22679E-01   -0.22944E-02  5162   0.127E-01    0.630E-01
RMM:   5    -0.413164100602E+03    0.23028E-01   -0.11235E-02  4828   0.105E-01    0.303E-02
RMM:   6    -0.413164243093E+03   -0.14249E-03   -0.17771E-03  5818   0.405E-02    0.155E-02
RMM:   7    -0.413164257646E+03   -0.14553E-04   -0.20224E-04  5772   0.119E-02    0.118E-02
RMM:   8    -0.413164262667E+03   -0.50212E-05   -0.26872E-05  4171   0.471E-03    0.765E-03
RMM:   9    -0.413164267020E+03   -0.43528E-05   -0.43050E-06  2826   0.259E-03    0.517E-03
RMM:  10    -0.413164273785E+03   -0.67650E-05   -0.18702E-06  2555   0.201E-03    0.259E-03
RMM:  11    -0.413164279400E+03   -0.56155E-05   -0.13612E-06  2549   0.169E-03    0.133E-03
RMM:  12    -0.413164282615E+03   -0.32150E-05   -0.66201E-07  2400   0.126E-03    0.515E-04
RMM:  13    -0.413164283984E+03   -0.13686E-05   -0.30148E-07  1869   0.882E-04    0.288E-04
RMM:  14    -0.413164285501E+03   -0.15172E-05   -0.21800E-07  1473   0.767E-04    0.165E-04
RMM:  15    -0.413164287141E+03   -0.16399E-05   -0.21682E-07  1454   0.748E-04    0.137E-04
RMM:  16    -0.413164287460E+03   -0.31940E-06   -0.96686E-08  1087   0.632E-04
    5 T=    61. E= -.41286610E+03 F= -.41316429E+03 E0= -.41314181E+03  EK= 0.29819E+00 SP= 0.00E+00 SK= 0.00E+00
       N       E                     dE             d eps       ncg     rms          rms(c)
RMM:   1    -0.413155690014E+03    0.85971E-02   -0.11234E+01  4248   0.716E-01    0.907E-01
RMM:   2    -0.413166053997E+03   -0.10364E-01   -0.13539E-01  4000   0.964E-02    0.635E-01
RMM:   3    -0.413165154220E+03    0.89978E-03   -0.65319E-03  4839   0.374E-02    0.169E-01
RMM:   4    -0.413192821222E+03   -0.27667E-01   -0.27924E-02  5160   0.139E-01    0.694E-01
RMM:   5    -0.413164749800E+03    0.28071E-01   -0.13689E-02  4822   0.115E-01    0.350E-02
RMM:   6    -0.413164913597E+03   -0.16380E-03   -0.21578E-03  5791   0.448E-02    0.177E-02
RMM:   7    -0.413164924995E+03   -0.11398E-04   -0.25053E-04  5853   0.132E-02    0.131E-02
RMM:   8    -0.413164925907E+03   -0.91160E-06   -0.31613E-05  4252   0.497E-03    0.828E-03
RMM:   9    -0.413164925469E+03    0.43794E-06   -0.50278E-06  2868   0.263E-03
    6 T=    61. E= -.41286642E+03 F= -.41316493E+03 E0= -.41314246E+03  EK= 0.29851E+00 SP= 0.00E+00 SK= 0.00E+00
       N       E                     dE             d eps       ncg     rms          rms(c)
RMM:   1    -0.413155372710E+03    0.95532E-02   -0.11175E+01  4264   0.723E-01    0.902E-01
RMM:   2    -0.413165351306E+03   -0.99786E-02   -0.13483E-01  4228   0.993E-02    0.628E-01
RMM:   3    -0.413167416618E+03   -0.20653E-02   -0.88113E-03  5140   0.617E-02    0.279E-01
RMM:   4    -0.413196679638E+03   -0.29263E-01   -0.41895E-02  5132   0.172E-01    0.746E-01
RMM:   5    -0.413164345814E+03    0.32334E-01   -0.13967E-02  4757   0.124E-01    0.532E-02
RMM:   6    -0.413164418340E+03   -0.72526E-04   -0.22961E-03  5598   0.478E-02    0.159E-02
RMM:   7    -0.413164443407E+03   -0.25067E-04   -0.31593E-04  6039   0.151E-02    0.120E-02
RMM:   8    -0.413164445146E+03   -0.17387E-05   -0.39113E-05  4630   0.550E-03    0.758E-03
RMM:   9    -0.413164443766E+03    0.13794E-05   -0.62990E-06  2956   0.343E-03    0.355E-03
RMM:  10    -0.413164443606E+03    0.15972E-06   -0.20602E-06  2553   0.220E-03
    7 T=    61. E= -.41286592E+03 F= -.41316444E+03 E0= -.41314200E+03  EK= 0.29853E+00 SP= 0.00E+00 SK= 0.00E+00
       N       E                     dE             d eps       ncg     rms          rms(c)
RMM:   1    -0.413155453287E+03    0.89905E-02   -0.11173E+01  4275   0.725E-01    0.883E-01
RMM:   2    -0.413166552016E+03   -0.11099E-01   -0.13767E-01  4068   0.954E-02    0.636E-01
RMM:   3    -0.413165833260E+03    0.71876E-03   -0.65320E-03  5035   0.420E-02    0.185E-01
RMM:   4    -0.413208313209E+03   -0.42480E-01   -0.44799E-02  5151   0.176E-01    0.856E-01
RMM:   5    -0.413164974413E+03    0.43339E-01   -0.20825E-02  4801   0.143E-01    0.446E-02
RMM:   6    -0.413165195095E+03   -0.22068E-03   -0.33319E-03  5768   0.556E-02    0.166E-02
RMM:   7    -0.413165224209E+03   -0.29114E-04   -0.39116E-04  5962   0.159E-02    0.138E-02
RMM:   8    -0.413165228535E+03   -0.43259E-05   -0.45371E-05  4443   0.561E-03    0.871E-03
RMM:   9    -0.413165231654E+03   -0.31195E-05   -0.67513E-06  2967   0.278E-03    0.586E-03
RMM:  10    -0.413165237017E+03   -0.53632E-05   -0.27279E-06  2593   0.233E-03    0.273E-03
RMM:  11    -0.413165241008E+03   -0.39910E-05   -0.14800E-06  2539   0.179E-03    0.130E-03
RMM:  12    -0.413165243433E+03   -0.24249E-05   -0.83254E-07  2454   0.137E-03    0.427E-04
RMM:  13    -0.413165244840E+03   -0.14072E-05   -0.39869E-07  2046   0.976E-04    0.295E-04
RMM:  14    -0.413165246127E+03   -0.12865E-05   -0.30488E-07  1663   0.826E-04    0.203E-04
RMM:  15    -0.413165246808E+03   -0.68104E-06   -0.19119E-07  1342   0.720E-04
    8 T=    61. E= -.41286636E+03 F= -.41316525E+03 E0= -.41314282E+03  EK= 0.29889E+00 SP= 0.00E+00 SK= 0.00E+00
       N       E                     dE             d eps       ncg     rms          rms(c)
RMM:   1    -0.413155937210E+03    0.93089E-02   -0.11243E+01  4285   0.730E-01    0.901E-01
RMM:   2    -0.413166412597E+03   -0.10475E-01   -0.13693E-01  4151   0.102E-01    0.638E-01
RMM:   3    -0.413165539466E+03    0.87313E-03   -0.65061E-03  4854   0.386E-02    0.169E-01
RMM:   4    -0.413195269818E+03   -0.29730E-01   -0.30261E-02  5154   0.145E-01    0.719E-01
RMM:   5    -0.413165008985E+03    0.30261E-01   -0.14830E-02  4809   0.120E-01    0.354E-02
RMM:   6    -0.413165190344E+03   -0.18136E-03   -0.23374E-03  5788   0.468E-02    0.173E-02
RMM:   7    -0.413165204404E+03   -0.14060E-04   -0.27125E-04  5846   0.136E-02    0.132E-02
RMM:   8    -0.413165205599E+03   -0.11949E-05   -0.34165E-05  4319   0.512E-03    0.853E-03
RMM:   9    -0.413165205266E+03    0.33314E-06   -0.52761E-06  2885   0.269E-03
    9 T=    61. E= -.41286607E+03 F= -.41316521E+03 E0= -.41314280E+03  EK= 0.29914E+00 SP= 0.00E+00 SK= 0.00E+00
       N       E                     dE             d eps       ncg     rms          rms(c)
RMM:   1    -0.413156340740E+03    0.88649E-02   -0.11229E+01  4293   0.734E-01    0.910E-01
RMM:   2    -0.413166134343E+03   -0.97936E-02   -0.13499E-01  4261   0.991E-02    0.629E-01
RMM:   3    -0.413168865610E+03   -0.27313E-02   -0.94333E-03  5147   0.659E-02    0.297E-01
RMM:   4    -0.413194358441E+03   -0.25493E-01   -0.39736E-02  5116   0.168E-01    0.710E-01
RMM:   5    -0.413165349059E+03    0.29009E-01   -0.12303E-02  4735   0.118E-01    0.525E-02
RMM:   6    -0.413165398192E+03   -0.49133E-04   -0.20553E-03  5587   0.448E-02    0.166E-02
RMM:   7    -0.413165416784E+03   -0.18592E-04   -0.28258E-04  6033   0.145E-02    0.120E-02
RMM:   8    -0.413165417096E+03   -0.31137E-06   -0.35205E-05  4585   0.533E-03    0.744E-03
RMM:   9    -0.413165413321E+03    0.37747E-05   -0.65439E-06  3007   0.352E-03    0.354E-03
RMM:  10    -0.413165411948E+03    0.13730E-05   -0.19082E-06  2550   0.216E-03    0.208E-03
RMM:  11    -0.413165410384E+03    0.15642E-05   -0.96729E-07  2525   0.154E-03    0.956E-04
RMM:  12    -0.413165409395E+03    0.98838E-06   -0.45445E-07  2093   0.104E-03
   10 T=    61. E= -.41286594E+03 F= -.41316541E+03 E0= -.41314302E+03  EK= 0.29947E+00 SP= 0.00E+00 SK= 0.00E+00
       N       E                     dE             d eps       ncg     rms          rms(c)
RMM:   1    -0.413157175101E+03    0.82353E-02   -0.11189E+01  4290   0.745E-01    0.885E-01
RMM:   2    -0.413167634161E+03   -0.10459E-01   -0.13634E-01  4193   0.972E-02    0.634E-01
RMM:   3    -0.413166492839E+03    0.11413E-02   -0.61740E-03  4863   0.384E-02    0.167E-01
RMM:   4    -0.413195368794E+03   -0.28876E-01   -0.29441E-02  5149   0.142E-01    0.709E-01
RMM:   5    -0.413165947589E+03    0.29421E-01   -0.14464E-02  4809   0.118E-01    0.344E-02
RMM:   6    -0.413166123339E+03   -0.17575E-03   -0.22812E-03  5801   0.456E-02    0.170E-02
RMM:   7    -0.413166137142E+03   -0.13804E-04   -0.25933E-04  5834   0.133E-02    0.129E-02
RMM:   8    -0.413166139280E+03   -0.21372E-05   -0.33603E-05  4340   0.511E-03    0.855E-03
RMM:   9    -0.413166139665E+03   -0.38560E-06   -0.53518E-06  2904   0.271E-03
   11 T=    61. E= -.41286623E+03 F= -.41316614E+03 E0= -.41314378E+03  EK= 0.29991E+00 SP= 0.00E+00 SK= 0.00E+00
       N       E                     dE             d eps       ncg     rms          rms(c)
RMM:   1    -0.413156539230E+03    0.96000E-02   -0.11261E+01  4292   0.744E-01    0.896E-01
RMM:   2    -0.413167222348E+03   -0.10683E-01   -0.13847E-01  4274   0.982E-02    0.641E-01
RMM:   3    -0.413169665548E+03   -0.24432E-02   -0.92465E-03  5142   0.664E-02    0.301E-01
RMM:   4    -0.413198439938E+03   -0.28774E-01   -0.44374E-02  5112   0.177E-01    0.748E-01
RMM:   5    -0.413165845875E+03    0.32594E-01   -0.13805E-02  4730   0.124E-01    0.535E-02
RMM:   6    -0.413165916667E+03   -0.70792E-04   -0.23276E-03  5597   0.473E-02    0.146E-02
RMM:   7    -0.413165942826E+03   -0.26160E-04   -0.31412E-04  6029   0.151E-02    0.115E-02
RMM:   8    -0.413165946263E+03   -0.34367E-05   -0.38606E-05  4618   0.545E-03    0.726E-03
RMM:   9    -0.413165948412E+03   -0.21485E-05   -0.68384E-06  3062   0.361E-03    0.371E-03
RMM:  10    -0.413165950251E+03   -0.18395E-05   -0.21643E-06  2564   0.225E-03    0.223E-03
RMM:  11    -0.413165951774E+03   -0.15232E-05   -0.11468E-06  2546   0.160E-03    0.997E-04
RMM:  12    -0.413165952473E+03   -0.69903E-06   -0.50581E-07  2184   0.107E-03
   12 T=    61. E= -.41286586E+03 F= -.41316595E+03 E0= -.41314362E+03  EK= 0.30010E+00 SP= 0.00E+00 SK= 0.00E+00
       N       E                     dE             d eps       ncg     rms          rms(c)
RMM:   1    -0.413157603991E+03    0.83478E-02   -0.11285E+01  4300   0.748E-01    0.915E-01
RMM:   2    -0.413167556534E+03   -0.99525E-02   -0.13515E-01  4200   0.934E-02    0.631E-01
RMM:   3    -0.413166969375E+03    0.58716E-03   -0.67461E-03  4930   0.374E-02    0.175E-01
RMM:   4    -0.413198163311E+03   -0.31194E-01   -0.31749E-02  5146   0.148E-01    0.735E-01
RMM:   5    -0.413166501932E+03    0.31661E-01   -0.15528E-02  4805   0.122E-01    0.374E-02
RMM:   6    -0.413166690459E+03   -0.18853E-03   -0.24759E-03  5817   0.475E-02    0.191E-02
RMM:   7    -0.413166700764E+03   -0.10304E-04   -0.27958E-04  5858   0.139E-02    0.140E-02
RMM:   8    -0.413166699048E+03    0.17160E-05   -0.36316E-05  4426   0.529E-03    0.923E-03
RMM:   9    -0.413166694752E+03    0.42958E-05   -0.58051E-06  2938   0.276E-03    0.632E-03
RMM:  10    -0.413166690380E+03    0.43713E-05   -0.21706E-06  2561   0.219E-03    0.307E-03
RMM:  11    -0.413166687102E+03    0.32785E-05   -0.16124E-06  2544   0.188E-03    0.152E-03
RMM:  12    -0.413166684515E+03    0.25868E-05   -0.76841E-07  2438   0.140E-03    0.519E-04
RMM:  13    -0.413166683619E+03    0.89656E-06   -0.33445E-07  2073   0.954E-04
   13 T=    61. E= -.41286608E+03 F= -.41316668E+03 E0= -.41314438E+03  EK= 0.30061E+00 SP= 0.00E+00 SK= 0.00E+00
       N       E                     dE             d eps       ncg     rms          rms(c)
RMM:   1    -0.413157621929E+03    0.90626E-02   -0.11198E+01  4296   0.749E-01    0.889E-01
RMM:   2    -0.413168306870E+03   -0.10685E-01   -0.13718E-01  4211   0.960E-02    0.632E-01
RMM:   3    -0.413167457596E+03    0.84927E-03   -0.62670E-03  4873   0.363E-02    0.169E-01
RMM:   4    -0.413195365610E+03   -0.27908E-01   -0.28467E-02  5140   0.141E-01    0.697E-01
RMM:   5    -0.413166943083E+03    0.28423E-01   -0.13962E-02  4809   0.116E-01    0.339E-02
RMM:   6    -0.413167113763E+03   -0.17068E-03   -0.21912E-03  5798   0.450E-02    0.169E-02
RMM:   7    -0.413167124944E+03   -0.11181E-04   -0.24880E-04  5813   0.132E-02    0.128E-02
RMM:   8    -0.413167125151E+03   -0.20724E-06   -0.32623E-05  4301   0.505E-03    0.843E-03
RMM:   9    -0.413167123548E+03    0.16038E-05   -0.50555E-06  2871   0.268E-03    0.582E-03
RMM:  10    -0.413167122630E+03    0.91811E-06   -0.20861E-06  2560   0.216E-03
   14 T=    61. E= -.41286606E+03 F= -.41316712E+03 E0= -.41314485E+03  EK= 0.30106E+00 SP= 0.00E+00 SK= 0.00E+00
       N       E                     dE             d eps       ncg     rms          rms(c)
RMM:   1    -0.413157595697E+03    0.95279E-02   -0.11290E+01  4309   0.756E-01    0.892E-01
RMM:   2    -0.413169048206E+03   -0.11453E-01   -0.13963E-01  4289   0.998E-02    0.643E-01
RMM:   3    -0.413170776805E+03   -0.17286E-02   -0.88774E-03  5120   0.651E-02    0.291E-01
RMM:   4    -0.413202757525E+03   -0.31981E-01   -0.46511E-02  5112   0.181E-01    0.779E-01
RMM:   5    -0.413167289433E+03    0.35468E-01   -0.15275E-02  4740   0.129E-01    0.509E-02
RMM:   6    -0.413167387195E+03   -0.97762E-04   -0.24756E-03  5634   0.490E-02    0.140E-02
RMM:   7    -0.413167414098E+03   -0.26903E-04   -0.31937E-04  6018   0.150E-02    0.114E-02
RMM:   8    -0.413167417391E+03   -0.32931E-05   -0.38836E-05  4567   0.541E-03    0.700E-03
RMM:   9    -0.413167419051E+03   -0.16599E-05   -0.58859E-06  2869   0.318E-03    0.344E-03
RMM:  10    -0.413167420670E+03   -0.16187E-05   -0.23326E-06  2569   0.217E-03    0.200E-03
RMM:  11    -0.413167421744E+03   -0.10740E-05   -0.10418E-06  2533   0.149E-03    0.837E-04
RMM:  12    -0.413167422323E+03   -0.57929E-06   -0.49785E-07  1955   0.103E-03
   15 T=    61. E= -.41286598E+03 F= -.41316742E+03 E0= -.41314519E+03  EK= 0.30144E+00 SP= 0.00E+00 SK= 0.00E+00
       N       E                     dE             d eps       ncg     rms          rms(c)
RMM:   1    -0.413159346992E+03    0.80748E-02   -0.11337E+01  4302   0.767E-01    0.917E-01
RMM:   2    -0.413169340167E+03   -0.99932E-02   -0.13661E-01  4239   0.100E-01    0.635E-01
RMM:   3    -0.413168700280E+03    0.63989E-03   -0.67644E-03  4909   0.399E-02    0.176E-01
RMM:   4    -0.413201125584E+03   -0.32425E-01   -0.33180E-02  5142   0.151E-01    0.750E-01
RMM:   5    -0.413168100222E+03    0.33025E-01   -0.16166E-02  4808   0.125E-01    0.378E-02
RMM:   6    -0.413168290167E+03   -0.18994E-03   -0.25723E-03  5797   0.486E-02    0.189E-02
RMM:   7    -0.413168299691E+03   -0.95242E-05   -0.29117E-04  5871   0.143E-02    0.141E-02
RMM:   8    -0.413168297167E+03    0.25236E-05   -0.37591E-05  4461   0.541E-03    0.939E-03
RMM:   9    -0.413168291908E+03    0.52591E-05   -0.58765E-06  2942   0.281E-03    0.647E-03
RMM:  10    -0.413168286461E+03    0.54467E-05   -0.22395E-06  2559   0.227E-03    0.315E-03
RMM:  11    -0.413168282296E+03    0.41655E-05   -0.16453E-06  2539   0.193E-03    0.154E-03
RMM:  12    -0.413168279322E+03    0.29742E-05   -0.76257E-07  2441   0.142E-03    0.527E-04
RMM:  13    -0.413168278199E+03    0.11229E-05   -0.33795E-07  2087   0.967E-04    0.326E-04
RMM:  14    -0.413168276707E+03    0.14913E-05   -0.20469E-07  1624   0.783E-04    0.187E-04
RMM:  15    -0.413168274160E+03    0.25478E-05   -0.20191E-07  1576   0.759E-04    0.154E-04
RMM:  16    -0.413168273494E+03    0.66578E-06   -0.80759E-08  1072   0.619E-04
   16 T=    62. E= -.41286615E+03 F= -.41316827E+03 E0= -.41314608E+03  EK= 0.30212E+00 SP= 0.00E+00 SK= 0.00E+00
       N       E                     dE             d eps       ncg     rms          rms(c)
RMM:   1    -0.413159245750E+03    0.90284E-02   -0.11250E+01  4294   0.762E-01    0.896E-01
RMM:   2    -0.413169928623E+03   -0.10683E-01   -0.13740E-01  4247   0.100E-01    0.631E-01
RMM:   3    -0.413169027051E+03    0.90157E-03   -0.64155E-03  4895   0.414E-02    0.177E-01
RMM:   4    -0.413203533446E+03   -0.34506E-01   -0.35387E-02  5140   0.156E-01    0.772E-01
RMM:   5    -0.413168494016E+03    0.35039E-01   -0.17211E-02  4798   0.129E-01    0.382E-02
RMM:   6    -0.413168695462E+03   -0.20145E-03   -0.27286E-03  5797   0.498E-02    0.184E-02
RMM:   7    -0.413168707513E+03   -0.12051E-04   -0.30980E-04  5883   0.146E-02    0.139E-02
RMM:   8    -0.413168706201E+03    0.13116E-05   -0.39083E-05  4440   0.539E-03    0.920E-03
RMM:   9    -0.413168702479E+03    0.37225E-05   -0.61683E-06  2959   0.277E-03    0.640E-03
RMM:  10    -0.413168698803E+03    0.36762E-05   -0.22406E-06  2558   0.225E-03    0.307E-03
RMM:  11    -0.413168696335E+03    0.24676E-05   -0.15960E-06  2531   0.190E-03    0.153E-03
RMM:  12    -0.413168694519E+03    0.18156E-05   -0.75774E-07  2443   0.141E-03    0.523E-04
RMM:  13    -0.413168693846E+03    0.67308E-06   -0.33611E-07  2094   0.966E-04
   17 T=    62. E= -.41286599E+03 F= -.41316869E+03 E0= -.41314653E+03  EK= 0.30270E+00 SP= 0.00E+00 SK= 0.00E+00
       N       E                     dE             d eps       ncg     rms          rms(c)
RMM:   1    -0.413159453836E+03    0.92407E-02   -0.11333E+01  4297   0.770E-01    0.890E-01
RMM:   2    -0.413170981948E+03   -0.11528E-01   -0.14011E-01  4248   0.101E-01    0.644E-01
RMM:   3    -0.413169626796E+03    0.13552E-02   -0.62329E-03  4890   0.387E-02    0.171E-01
RMM:   4    -0.413201871742E+03   -0.32245E-01   -0.33154E-02  5144   0.151E-01    0.748E-01
RMM:   5    -0.413169034301E+03    0.32837E-01   -0.16140E-02  4803   0.125E-01    0.363E-02
RMM:   6    -0.413169229446E+03   -0.19515E-03   -0.25820E-03  5796   0.481E-02    0.172E-02
RMM:   7    -0.413169243973E+03   -0.14527E-04   -0.29020E-04  5850   0.141E-02    0.133E-02
RMM:   8    -0.413169244846E+03   -0.87215E-06   -0.36988E-05  4411   0.531E-03    0.881E-03
RMM:   9    -0.413169243742E+03    0.11031E-05   -0.58783E-06  2930   0.278E-03    0.610E-03
RMM:  10    -0.413169243945E+03   -0.20261E-06   -0.23360E-06  2571   0.227E-03
   18 T=    62. E= -.41286588E+03 F= -.41316924E+03 E0= -.41314712E+03  EK= 0.30336E+00 SP= 0.00E+00 SK= 0.00E+00
       N       E                     dE             d eps       ncg     rms          rms(c)
RMM:   1    -0.413161239209E+03    0.80045E-02   -0.11394E+01  4307   0.774E-01    0.915E-01
RMM:   2    -0.413171373409E+03   -0.10134E-01   -0.13864E-01  4310   0.995E-02    0.639E-01
RMM:   3    -0.413174272799E+03   -0.28994E-02   -0.96899E-03  5125   0.682E-02    0.312E-01
RMM:   4    -0.413199334900E+03   -0.25062E-01   -0.41205E-02  5092   0.171E-01    0.710E-01
RMM:   5    -0.413170223444E+03    0.29111E-01   -0.12155E-02  4709   0.117E-01    0.497E-02
RMM:   6    -0.413170286840E+03   -0.63397E-04   -0.20421E-03  5592   0.440E-02    0.158E-02
RMM:   7    -0.413170301404E+03   -0.14563E-04   -0.26382E-04  6000   0.140E-02    0.114E-02
RMM:   8    -0.413170299525E+03    0.18789E-05   -0.32586E-05  4443   0.514E-03    0.698E-03
RMM:   9    -0.413170292268E+03    0.72570E-05   -0.54467E-06  2811   0.330E-03    0.330E-03
RMM:  10    -0.413170288379E+03    0.38884E-05   -0.18668E-06  2533   0.208E-03    0.188E-03
RMM:  11    -0.413170284600E+03    0.37790E-05   -0.87921E-07  2515   0.146E-03    0.852E-04
RMM:  12    -0.413170282453E+03    0.21477E-05   -0.43895E-07  1945   0.102E-03    0.429E-04
RMM:  13    -0.413170279724E+03    0.27288E-05   -0.34276E-07  1880   0.911E-04    0.241E-04
RMM:  14    -0.413170278308E+03    0.14162E-05   -0.18404E-07  1412   0.722E-04    0.141E-04
RMM:  15    -0.413170275404E+03    0.29031E-05   -0.20957E-07  1578   0.753E-04    0.970E-05
RMM:  16    -0.413170273789E+03    0.16150E-05   -0.12004E-07  1256   0.645E-04    0.790E-05
RMM:  17    -0.413170271671E+03    0.21184E-05   -0.10619E-07  1254   0.635E-04    0.435E-05
RMM:  18    -0.413170269992E+03    0.16791E-05   -0.69338E-08  1033   0.576E-04    0.245E-05
RMM:  19    -0.413170269627E+03    0.36491E-06   -0.31516E-08   787   0.527E-04
   19 T=    62. E= -.41286600E+03 F= -.41317027E+03 E0= -.41314819E+03  EK= 0.30427E+00 SP= 0.00E+00 SK= 0.00E+00
       N       E                     dE             d eps       ncg     rms          rms(c)
RMM:   1    -0.413161611642E+03    0.86583E-02   -0.11347E+01  4297   0.786E-01    0.905E-01
RMM:   2    -0.413172000202E+03   -0.10389E-01   -0.13750E-01  4242   0.999E-02    0.632E-01
RMM:   3    -0.413171409348E+03    0.59085E-03   -0.66075E-03  4966   0.411E-02    0.187E-01
RMM:   4    -0.413211153571E+03   -0.39744E-01   -0.41645E-02  5142   0.169E-01    0.828E-01
RMM:   5    -0.413170669896E+03    0.40484E-01   -0.19763E-02  4792   0.139E-01    0.424E-02
RMM:   6    -0.413170887239E+03   -0.21734E-03   -0.31836E-03  5779   0.536E-02    0.192E-02
RMM:   7    -0.413170901015E+03   -0.13776E-04   -0.36223E-04  5869   0.156E-02    0.147E-02
RMM:   8    -0.413170898561E+03    0.24541E-05   -0.45199E-05  4567   0.575E-03    0.968E-03
RMM:   9    -0.413170893075E+03    0.54860E-05   -0.69583E-06  3017   0.286E-03    0.663E-03
RMM:  10    -0.413170887123E+03    0.59522E-05   -0.24449E-06  2566   0.232E-03    0.313E-03
RMM:  11    -0.413170882989E+03    0.41340E-05   -0.15834E-06  2526   0.192E-03    0.155E-03
RMM:  12    -0.413170880020E+03    0.29696E-05   -0.77333E-07  2454   0.144E-03    0.518E-04
RMM:  13    -0.413170878938E+03    0.10819E-05   -0.34319E-07  2134   0.992E-04    0.331E-04
RMM:  14    -0.413170877660E+03    0.12771E-05   -0.19177E-07  1628   0.779E-04    0.189E-04
RMM:  15    -0.413170875240E+03    0.24209E-05   -0.17335E-07  1539   0.746E-04    0.138E-04
RMM:  16    -0.413170874689E+03    0.55088E-06   -0.73117E-08  1050   0.616E-04
   20 T=    62. E= -.41286584E+03 F= -.41317087E+03 E0= -.41314884E+03  EK= 0.30504E+00 SP= 0.00E+00 SK= 0.00E+00
       N       E                     dE             d eps       ncg     rms          rms(c)
RMM:   1    -0.413162180789E+03    0.86945E-02   -0.11389E+01  4297   0.788E-01    0.891E-01
RMM:   2    -0.413173295017E+03   -0.11114E-01   -0.14184E-01  4250   0.102E-01    0.644E-01
RMM:   3    -0.413172226588E+03    0.10684E-02   -0.63611E-03  4941   0.400E-02    0.178E-01
RMM:   4    -0.413209851569E+03   -0.37625E-01   -0.39142E-02  5141   0.164E-01    0.806E-01
RMM:   5    -0.413171475558E+03    0.38376E-01   -0.18900E-02  4799   0.135E-01    0.392E-02
RMM:   6    -0.413171691404E+03   -0.21585E-03   -0.29987E-03  5791   0.523E-02    0.178E-02
RMM:   7    -0.413171708143E+03   -0.16739E-04   -0.33978E-04  5882   0.152E-02    0.139E-02
RMM:   8    -0.413171708222E+03   -0.78675E-07   -0.43486E-05  4535   0.563E-03    0.938E-03
RMM:   9    -0.413171705716E+03    0.25053E-05   -0.66788E-06  2988   0.284E-03    0.659E-03
RMM:  10    -0.413171704188E+03    0.15287E-05   -0.24878E-06  2574   0.235E-03    0.318E-03
RMM:  11    -0.413171703392E+03    0.79587E-06   -0.17801E-06  2551   0.198E-03
   21 T=    62. E= -.41286581E+03 F= -.41317170E+03 E0= -.41314972E+03  EK= 0.30589E+00 SP= 0.00E+00 SK= 0.00E+00
       N       E                     dE             d eps       ncg     rms          rms(c)
RMM:   1    -0.413163250667E+03    0.84535E-02   -0.11468E+01  4298   0.786E-01    0.913E-01
RMM:   2    -0.413174127810E+03   -0.10877E-01   -0.14066E-01  4276   0.996E-02    0.643E-01
RMM:   3    -0.413174113668E+03    0.14142E-04   -0.71371E-03  5039   0.484E-02    0.214E-01
RMM:   4    -0.413219745770E+03   -0.45632E-01   -0.51056E-02  5132   0.187E-01    0.890E-01
RMM:   5    -0.413172745248E+03    0.47001E-01   -0.22427E-02  4782   0.149E-01    0.468E-02
RMM:   6    -0.413172965153E+03   -0.21991E-03   -0.35229E-03  5753   0.574E-02    0.184E-02
RMM:   7    -0.413172985853E+03   -0.20700E-04   -0.41869E-04  5961   0.167E-02    0.149E-02
RMM:   8    -0.413172984210E+03    0.16429E-05   -0.51590E-05  4703   0.602E-03    0.975E-03
RMM:   9    -0.413172978828E+03    0.53821E-05   -0.73681E-06  3020   0.293E-03    0.624E-03
RMM:  10    -0.413172973076E+03    0.57521E-05   -0.27582E-06  2585   0.243E-03    0.284E-03
RMM:  11    -0.413172969047E+03    0.40292E-05   -0.14584E-06  2517   0.186E-03    0.136E-03
RMM:  12    -0.413172965886E+03    0.31613E-05   -0.79950E-07  2462   0.141E-03    0.451E-04
RMM:  13    -0.413172964273E+03    0.16128E-05   -0.34426E-07  2097   0.981E-04    0.310E-04
RMM:  14    -0.413172962062E+03    0.22110E-05   -0.22272E-07  1665   0.800E-04    0.205E-04
RMM:  15    -0.413172959845E+03    0.22165E-05   -0.15302E-07  1436   0.717E-04    0.112E-04
RMM:  16    -0.413172958989E+03    0.85659E-06   -0.82080E-08  1135   0.626E-04
   22 T=    62. E= -.41286611E+03 F= -.41317296E+03 E0= -.41315102E+03  EK= 0.30684E+00 SP= 0.00E+00 SK= 0.00E+00
       N       E                     dE             d eps       ncg     rms          rms(c)
RMM:   1    -0.413164289691E+03    0.86702E-02   -0.11462E+01  4296   0.792E-01    0.916E-01
RMM:   2    -0.413174634219E+03   -0.10345E-01   -0.13918E-01  4273   0.107E-01    0.635E-01
RMM:   3    -0.413174037794E+03    0.59643E-03   -0.67413E-03  4898   0.431E-02    0.185E-01
RMM:   4    -0.413211154798E+03   -0.37117E-01   -0.38302E-02  5144   0.163E-01    0.800E-01
RMM:   5    -0.413173372308E+03    0.37782E-01   -0.18525E-02  4797   0.134E-01    0.400E-02
RMM:   6    -0.413173574691E+03   -0.20238E-03   -0.29575E-03  5802   0.519E-02    0.198E-02
RMM:   7    -0.413173583498E+03   -0.88072E-05   -0.32291E-04  5874   0.151E-02    0.146E-02
RMM:   8    -0.413173579496E+03    0.40017E-05   -0.42807E-05  4576   0.569E-03    0.988E-03
RMM:   9    -0.413173571996E+03    0.75008E-05   -0.67170E-06  2993   0.292E-03    0.676E-03
RMM:  10    -0.413173563798E+03    0.81976E-05   -0.23560E-06  2563   0.235E-03    0.328E-03
RMM:  11    -0.413173557222E+03    0.65762E-05   -0.16761E-06  2527   0.199E-03    0.163E-03
RMM:  12    -0.413173552731E+03    0.44907E-05   -0.78724E-07  2453   0.148E-03    0.555E-04
RMM:  13    -0.413173551078E+03    0.16533E-05   -0.35083E-07  2150   0.100E-03    0.349E-04
RMM:  14    -0.413173549098E+03    0.19796E-05   -0.19515E-07  1659   0.786E-04    0.199E-04
RMM:  15    -0.413173545190E+03    0.39085E-05   -0.18174E-07  1632   0.764E-04    0.174E-04
RMM:  16    -0.413173544447E+03    0.74275E-06   -0.73876E-08  1063   0.612E-04
   23 T=    63. E= -.41286581E+03 F= -.41317354E+03 E0= -.41315165E+03  EK= 0.30774E+00 SP= 0.00E+00 SK= 0.00E+00
       N       E                     dE             d eps       ncg     rms          rms(c)
RMM:   1    -0.413165016316E+03    0.85289E-02   -0.11455E+01  4295   0.795E-01    0.894E-01
RMM:   2    -0.413176718138E+03   -0.11702E-01   -0.14270E-01  4268   0.104E-01    0.643E-01
RMM:   3    -0.413175425830E+03    0.12923E-02   -0.61976E-03  4810   0.403E-02    0.173E-01
RMM:   4    -0.413204129783E+03   -0.28704E-01   -0.29240E-02  5150   0.142E-01    0.705E-01
RMM:   5    -0.413174982934E+03    0.29147E-01   -0.14422E-02  4801   0.117E-01    0.336E-02
RMM:   6    -0.413175141696E+03   -0.15876E-03   -0.22891E-03  5804   0.451E-02    0.169E-02
RMM:   7    -0.413175151610E+03   -0.99142E-05   -0.23934E-04  5781   0.130E-02    0.123E-02
RMM:   8    -0.413175150666E+03    0.94421E-06   -0.33704E-05  4416   0.510E-03    0.881E-03
RMM:   9    -0.413175146353E+03    0.43128E-05   -0.56353E-06  2957   0.280E-03    0.605E-03
RMM:  10    -0.413175143112E+03    0.32411E-05   -0.19772E-06  2543   0.217E-03    0.303E-03
RMM:  11    -0.413175140775E+03    0.23367E-05   -0.15777E-06  2542   0.188E-03    0.155E-03
RMM:  12    -0.413175139002E+03    0.17731E-05   -0.69401E-07  2427   0.137E-03    0.557E-04
RMM:  13    -0.413175138359E+03    0.64355E-06   -0.29822E-07  2023   0.929E-04
   24 T=    63. E= -.41286611E+03 F= -.41317514E+03 E0= -.41315329E+03  EK= 0.30902E+00 SP= 0.00E+00 SK= 0.00E+00
       N       E                     dE             d eps       ncg     rms          rms(c)
RMM:   1    -0.413166363346E+03    0.87757E-02   -0.11573E+01  4296   0.805E-01    0.910E-01
RMM:   2    -0.413177781465E+03   -0.11418E-01   -0.14256E-01  4273   0.107E-01    0.648E-01
RMM:   3    -0.413176445950E+03    0.13355E-02   -0.63503E-03  4815   0.413E-02    0.175E-01
RMM:   4    -0.413205592470E+03   -0.29147E-01   -0.29515E-02  5145   0.144E-01    0.710E-01
RMM:   5    -0.413176010318E+03    0.29582E-01   -0.14579E-02  4803   0.118E-01    0.341E-02
RMM:   6    -0.413176170061E+03   -0.15974E-03   -0.23333E-03  5812   0.456E-02    0.174E-02
RMM:   7    -0.413176178777E+03   -0.87162E-05   -0.24211E-04  5785   0.132E-02    0.125E-02
RMM:   8    -0.413176176629E+03    0.21479E-05   -0.34023E-05  4428   0.515E-03    0.903E-03
RMM:   9    -0.413176171002E+03    0.56275E-05   -0.58251E-06  2980   0.286E-03    0.619E-03
RMM:  10    -0.413176165932E+03    0.50698E-05   -0.20329E-06  2550   0.224E-03    0.309E-03
RMM:  11    -0.413176162041E+03    0.38912E-05   -0.15836E-06  2533   0.191E-03    0.157E-03
RMM:  12    -0.413176159259E+03    0.27816E-05   -0.69224E-07  2426   0.138E-03    0.552E-04
RMM:  13    -0.413176158203E+03    0.10559E-05   -0.30169E-07  2030   0.929E-04    0.325E-04
RMM:  14    -0.413176156719E+03    0.14849E-05   -0.17362E-07  1569   0.757E-04    0.183E-04
RMM:  15    -0.413176154253E+03    0.24660E-05   -0.15145E-07  1538   0.732E-04    0.173E-04
RMM:  16    -0.413176153635E+03    0.61794E-06   -0.62304E-08   991   0.598E-04
   25 T=    63. E= -.41286605E+03 F= -.41317615E+03 E0= -.41315436E+03  EK= 0.31011E+00 SP= 0.00E+00 SK= 0.00E+00
       N       E                     dE             d eps       ncg     rms          rms(c)
RMM:   1    -0.413167792749E+03    0.83615E-02   -0.11602E+01  4293   0.813E-01    0.925E-01
RMM:   2    -0.413178198006E+03   -0.10405E-01   -0.14153E-01  4269   0.108E-01    0.640E-01
RMM:   3    -0.413177491957E+03    0.70605E-03   -0.66515E-03  4775   0.405E-02    0.177E-01
RMM:   4    -0.413203865276E+03   -0.26373E-01   -0.26638E-02  5147   0.136E-01    0.677E-01
RMM:   5    -0.413177124420E+03    0.26741E-01   -0.13336E-02  4803   0.112E-01    0.338E-02
RMM:   6    -0.413177262115E+03   -0.13770E-03   -0.20927E-03  5804   0.433E-02    0.179E-02
RMM:   7    -0.413177267510E+03   -0.53947E-05   -0.21261E-04  5677   0.124E-02    0.120E-02
RMM:   8    -0.413177263262E+03    0.42481E-05   -0.30550E-05  4298   0.488E-03    0.881E-03
RMM:   9    -0.413177255553E+03    0.77090E-05   -0.57880E-06  2996   0.284E-03    0.603E-03
RMM:  10    -0.413177247385E+03    0.81676E-05   -0.18207E-06  2537   0.218E-03    0.307E-03
RMM:  11    -0.413177239633E+03    0.77520E-05   -0.14773E-06  2517   0.189E-03    0.156E-03
RMM:  12    -0.413177234474E+03    0.51598E-05   -0.64856E-07  2419   0.137E-03    0.540E-04
RMM:  13    -0.413177232655E+03    0.18190E-05   -0.28005E-07  2008   0.920E-04    0.330E-04
RMM:  14    -0.413177230359E+03    0.22956E-05   -0.15063E-07  1499   0.740E-04    0.181E-04
RMM:  15    -0.413177225853E+03    0.45062E-05   -0.15111E-07  1668   0.746E-04    0.217E-04
RMM:  16    -0.413177224964E+03    0.88841E-06   -0.53724E-08   952   0.584E-04
   26 T=    63. E= -.41286585E+03 F= -.41317722E+03 E0= -.41315548E+03  EK= 0.31138E+00 SP= 0.00E+00 SK= 0.00E+00
       N       E                     dE             d eps       ncg     rms          rms(c)
RMM:   1    -0.413169158329E+03    0.80675E-02   -0.11571E+01  4295   0.815E-01    0.900E-01
RMM:   2    -0.413180429683E+03   -0.11271E-01   -0.14319E-01  4271   0.103E-01    0.643E-01
RMM:   3    -0.413179494707E+03    0.93498E-03   -0.62639E-03  4764   0.419E-02    0.176E-01
RMM:   4    -0.413206651524E+03   -0.27157E-01   -0.27352E-02  5149   0.138E-01    0.686E-01
RMM:   5    -0.413179134653E+03    0.27517E-01   -0.13752E-02  4808   0.114E-01    0.323E-02
RMM:   6    -0.413179274326E+03   -0.13967E-03   -0.20903E-03  5812   0.439E-02    0.168E-02
RMM:   7    -0.413179282483E+03   -0.81569E-05   -0.21969E-04  5735   0.126E-02    0.119E-02
RMM:   8    -0.413179280305E+03    0.21787E-05   -0.31380E-05  4345   0.497E-03    0.864E-03
RMM:   9    -0.413179274687E+03    0.56179E-05   -0.55028E-06  2955   0.282E-03    0.589E-03
RMM:  10    -0.413179269527E+03    0.51597E-05   -0.18925E-06  2541   0.218E-03    0.294E-03
RMM:  11    -0.413179265423E+03    0.41045E-05   -0.14804E-06  2522   0.187E-03    0.150E-03
RMM:  12    -0.413179262538E+03    0.28842E-05   -0.64625E-07  2421   0.134E-03    0.537E-04
RMM:  13    -0.413179261494E+03    0.10442E-05   -0.27734E-07  1993   0.906E-04    0.322E-04
RMM:  14    -0.413179260116E+03    0.13783E-05   -0.15329E-07  1482   0.735E-04    0.177E-04
RMM:  15    -0.413179257666E+03    0.24497E-05   -0.13760E-07  1536   0.725E-04    0.173E-04
RMM:  16    -0.413179257038E+03    0.62845E-06   -0.54173E-08   947   0.592E-04
   27 T=    64. E= -.41286619E+03 F= -.41317926E+03 E0= -.41315756E+03  EK= 0.31306E+00 SP= 0.00E+00 SK= 0.00E+00
       N       E                     dE             d eps       ncg     rms          rms(c)
RMM:   1    -0.413171456236E+03    0.78014E-02   -0.11719E+01  4296   0.838E-01    0.909E-01
RMM:   2    -0.413181498630E+03   -0.10042E-01   -0.14721E-01  4269   0.108E-01    0.654E-01
RMM:   3    -0.413180396845E+03    0.11018E-02   -0.63555E-03  4704   0.414E-02    0.173E-01
RMM:   4    -0.413202995161E+03   -0.22598E-01   -0.22954E-02  5151   0.127E-01    0.629E-01
RMM:   5    -0.413179945116E+03    0.23050E-01   -0.11473E-02  4806   0.104E-01    0.297E-02
RMM:   6    -0.413180061072E+03   -0.11596E-03   -0.17932E-03  5822   0.400E-02    0.156E-02
RMM:   7    -0.413180067948E+03   -0.68763E-05   -0.17487E-04  5567   0.113E-02    0.104E-02
RMM:   8    -0.413180065937E+03    0.20111E-05   -0.24064E-05  4029   0.442E-03    0.773E-03
RMM:   9    -0.413180061335E+03    0.46024E-05   -0.53893E-06  2991   0.278E-03    0.532E-03
RMM:  10    -0.413180057571E+03    0.37640E-05   -0.16904E-06  2528   0.211E-03    0.281E-03
RMM:  11    -0.413180053815E+03    0.37560E-05   -0.13937E-06  2516   0.181E-03    0.144E-03
RMM:  12    -0.413180051290E+03    0.25251E-05   -0.56748E-07  2390   0.128E-03    0.539E-04
RMM:  13    -0.413180050330E+03    0.95917E-06   -0.23934E-07  1902   0.863E-04
   28 T=    64. E= -.41286555E+03 F= -.41318005E+03 E0= -.41315840E+03  EK= 0.31450E+00 SP= 0.00E+00 SK= 0.00E+00
       N       E                     dE             d eps       ncg     rms          rms(c)
RMM:   1    -0.413172828735E+03    0.72226E-02   -0.11788E+01  4291   0.840E-01    0.934E-01
RMM:   2    -0.413183379991E+03   -0.10551E-01   -0.14468E-01  4270   0.110E-01    0.647E-01
RMM:   3    -0.413182531918E+03    0.84807E-03   -0.67309E-03  4511   0.417E-02    0.175E-01
RMM:   4    -0.413194961572E+03   -0.12430E-01   -0.12533E-02  5158   0.947E-02    0.467E-01
RMM:   5    -0.413182467602E+03    0.12494E-01   -0.62349E-03  4827   0.764E-02    0.255E-02
RMM:   6    -0.413182512212E+03   -0.44610E-04   -0.97386E-04  5845   0.290E-02    0.153E-02
RMM:   7    -0.413182512366E+03   -0.15368E-06   -0.10570E-04  5423   0.922E-03    0.103E-02
RMM:   8    -0.413182504282E+03    0.80843E-05   -0.14830E-05  3752   0.399E-03    0.623E-03
RMM:   9    -0.413182496942E+03    0.73395E-05   -0.29969E-06  2683   0.248E-03    0.391E-03
RMM:  10    -0.413182489023E+03    0.79193E-05   -0.10665E-06  2499   0.172E-03    0.205E-03
RMM:  11    -0.413182481733E+03    0.72900E-05   -0.79989E-07  2474   0.143E-03    0.982E-04
RMM:  12    -0.413182476472E+03    0.52610E-05   -0.39081E-07  2230   0.105E-03    0.368E-04
RMM:  13    -0.413182474634E+03    0.18378E-05   -0.17086E-07  1498   0.755E-04    0.218E-04
RMM:  14    -0.413182471447E+03    0.31874E-05   -0.11206E-07  1275   0.687E-04    0.128E-04
RMM:  15    -0.413182467173E+03    0.42734E-05   -0.98622E-08  1337   0.680E-04    0.108E-04
RMM:  16    -0.413182465859E+03    0.13144E-05   -0.49598E-08   994   0.590E-04    0.860E-05
RMM:  17    -0.413182460945E+03    0.49139E-05   -0.88633E-08  1437   0.661E-04    0.610E-05
RMM:  18    -0.413182460241E+03    0.70447E-06   -0.28617E-08   807   0.523E-04
   29 T=    64. E= -.41286607E+03 F= -.41318246E+03 E0= -.41316086E+03  EK= 0.31639E+00 SP= 0.00E+00 SK= 0.00E+00
       N       E                     dE             d eps       ncg     rms          rms(c)
RMM:   1    -0.413174245981E+03    0.82150E-02   -0.11748E+01  4292   0.848E-01    0.911E-01
RMM:   2    -0.413185397149E+03   -0.11151E-01   -0.14727E-01  4267   0.109E-01    0.646E-01
RMM:   3    -0.413184227433E+03    0.11697E-02   -0.63775E-03  4470   0.429E-02    0.174E-01
RMM:   4    -0.413193183001E+03   -0.89556E-02   -0.94063E-03  5145   0.846E-02    0.400E-01
RMM:   5    -0.413184062720E+03    0.91203E-02   -0.45090E-03  4822   0.653E-02    0.216E-02
RMM:   6    -0.413184087118E+03   -0.24398E-04   -0.68213E-04  5834   0.248E-02    0.139E-02
RMM:   7    -0.413184086071E+03    0.10471E-05   -0.80881E-05  5313   0.848E-03    0.927E-03
RMM:   8    -0.413184079024E+03    0.70476E-05   -0.97980E-06  3279   0.362E-03    0.498E-03
RMM:   9    -0.413184073735E+03    0.52881E-05   -0.21543E-06  2589   0.225E-03    0.298E-03
RMM:  10    -0.413184068199E+03    0.55364E-05   -0.94602E-07  2495   0.158E-03    0.157E-03
RMM:  11    -0.413184063747E+03    0.44518E-05   -0.57027E-07  2381   0.122E-03    0.681E-04
RMM:  12    -0.413184060525E+03    0.32222E-05   -0.29604E-07  1951   0.918E-04    0.254E-04
RMM:  13    -0.413184058674E+03    0.18508E-05   -0.15013E-07  1347   0.725E-04    0.148E-04
RMM:  14    -0.413184055933E+03    0.27413E-05   -0.11257E-07  1262   0.687E-04    0.104E-04
RMM:  15    -0.413184053305E+03    0.26274E-05   -0.86799E-08  1226   0.653E-04    0.643E-05
RMM:  16    -0.413184051706E+03    0.15997E-05   -0.56625E-08  1068   0.605E-04    0.521E-05
RMM:  17    -0.413184049128E+03    0.25773E-05   -0.59621E-08  1153   0.602E-04    0.242E-05
RMM:  18    -0.413184048428E+03    0.70046E-06   -0.26239E-08   803   0.533E-04
   30 T=    65. E= -.41286601E+03 F= -.41318405E+03 E0= -.41316250E+03  EK= 0.31804E+00 SP= 0.00E+00 SK= 0.00E+00
       N       E                     dE             d eps       ncg     rms          rms(c)
RMM:   1    -0.413176507904E+03    0.75412E-02   -0.11885E+01  4291   0.885E-01    0.911E-01
RMM:   2    -0.413187962479E+03   -0.11455E-01   -0.15226E-01  4270   0.125E-01    0.660E-01
RMM:   3    -0.413185921834E+03    0.20406E-02   -0.62012E-03  4323   0.416E-02    0.170E-01
RMM:   4    -0.413188530917E+03   -0.26091E-02   -0.34230E-03  5130   0.499E-02    0.216E-01
RMM:   5    -0.413185887724E+03    0.26432E-02   -0.12815E-03  4810   0.353E-02    0.166E-02
RMM:   6    -0.413185886263E+03    0.14617E-05   -0.22072E-04  5709   0.148E-02    0.121E-02
RMM:   7    -0.413185883260E+03    0.30026E-05   -0.33898E-05  4659   0.613E-03    0.587E-03
RMM:   8    -0.413185878262E+03    0.49979E-05   -0.51738E-06  2940   0.303E-03    0.278E-03
RMM:   9    -0.413185876174E+03    0.20878E-05   -0.91603E-07  2496   0.168E-03    0.155E-03
RMM:  10    -0.413185873305E+03    0.28693E-05   -0.54499E-07  2303   0.114E-03    0.884E-04
RMM:  11    -0.413185871043E+03    0.22616E-05   -0.32912E-07  1839   0.898E-04    0.375E-04
RMM:  12    -0.413185868867E+03    0.21759E-05   -0.21686E-07  1579   0.784E-04    0.166E-04
RMM:  13    -0.413185867269E+03    0.15986E-05   -0.12464E-07  1212   0.678E-04    0.936E-05
RMM:  14    -0.413185865741E+03    0.15278E-05   -0.92829E-08  1158   0.644E-04    0.527E-05
RMM:  15    -0.413185863901E+03    0.18404E-05   -0.78096E-08  1131   0.618E-04    0.434E-05
RMM:  16    -0.413185862774E+03    0.11269E-05   -0.43194E-08   861   0.564E-04    0.227E-05
RMM:  17    -0.413185861934E+03    0.83947E-06   -0.28935E-08   775   0.548E-04
   31 T=    65. E= -.41286606E+03 F= -.41318586E+03 E0= -.41316436E+03  EK= 0.31980E+00 SP= 0.00E+00 SK= 0.00E+00
       N       E                     dE             d eps       ncg     rms          rms(c)
RMM:   1    -0.413185379504E+03    0.48327E-03   -0.12057E+01  4290   0.923E-01    0.939E-01
RMM:   2    -0.413189646494E+03   -0.42670E-02   -0.15351E-01  4262   0.120E-01    0.655E-01
RMM:   3    -0.413188487469E+03    0.11590E-02   -0.67307E-03  4204   0.469E-02    0.179E-01
RMM:   4    -0.413189015745E+03   -0.52828E-03   -0.14110E-03  4955   0.348E-02    0.882E-02
RMM:   5    -0.413188587693E+03    0.42805E-03   -0.20795E-04  4701   0.153E-02    0.194E-02
RMM:   6    -0.413188576226E+03    0.11467E-04   -0.73971E-05  5342   0.929E-03    0.137E-02
RMM:   7    -0.413188562827E+03    0.13399E-04   -0.17767E-05  3836   0.530E-03    0.416E-03
RMM:   8    -0.413188554747E+03    0.80803E-05   -0.30814E-06  2669   0.271E-03    0.227E-03
RMM:   9    -0.413188550634E+03    0.41127E-05   -0.62504E-07  2383   0.149E-03    0.126E-03
RMM:  10    -0.413188544523E+03    0.61113E-05   -0.35102E-07  1987   0.985E-04    0.533E-04
RMM:  11    -0.413188538740E+03    0.57825E-05   -0.20221E-07  1567   0.767E-04    0.211E-04
RMM:  12    -0.413188535219E+03    0.35209E-05   -0.99207E-08  1268   0.651E-04    0.135E-04
RMM:  13    -0.413188530267E+03    0.49520E-05   -0.88846E-08  1237   0.637E-04    0.770E-05
RMM:  14    -0.413188525969E+03    0.42985E-05   -0.63998E-08  1104   0.597E-04    0.675E-05
RMM:  15    -0.413188523881E+03    0.20881E-05   -0.35266E-08   853   0.538E-04    0.461E-05
RMM:  16    -0.413188521117E+03    0.27637E-05   -0.39495E-08   950   0.555E-04    0.251E-05
RMM:  17    -0.413188520769E+03    0.34755E-06   -0.11233E-08   579   0.483E-04
   32 T=    66. E= -.41286654E+03 F= -.41318852E+03 E0= -.41316707E+03  EK= 0.32199E+00 SP= 0.00E+00 SK= 0.00E+00
       N       E                     dE             d eps       ncg     rms          rms(c)
RMM:   1    -0.413188183537E+03    0.33758E-03   -0.12039E+01  4289   0.934E-01    0.925E-01
RMM:   2    -0.413191885874E+03   -0.37023E-02   -0.15627E-01  4272   0.130E-01    0.651E-01
RMM:   3    -0.413190472641E+03    0.14132E-02   -0.62824E-03  4186   0.403E-02    0.182E-01
RMM:   4    -0.413190471231E+03    0.14092E-05   -0.10750E-03  4674   0.249E-02    0.252E-02
RMM:   5    -0.413190475198E+03   -0.39665E-05   -0.58082E-05  4808   0.783E-03    0.268E-02
RMM:   6    -0.413190442019E+03    0.33179E-04   -0.46868E-05  5013   0.716E-03    0.128E-02
RMM:   7    -0.413190429478E+03    0.12541E-04   -0.14266E-05  3616   0.481E-03    0.405E-03
RMM:   8    -0.413190421680E+03    0.77983E-05   -0.25817E-06  2541   0.251E-03    0.209E-03
RMM:   9    -0.413190417765E+03    0.39143E-05   -0.52362E-07  2189   0.132E-03    0.111E-03
RMM:  10    -0.413190412784E+03    0.49810E-05   -0.24070E-07  1535   0.821E-04    0.506E-04
RMM:  11    -0.413190406619E+03    0.61657E-05   -0.17402E-07  1309   0.722E-04    0.200E-04
RMM:  12    -0.413190403689E+03    0.29294E-05   -0.65306E-08  1014   0.594E-04    0.127E-04
RMM:  13    -0.413190398943E+03    0.47463E-05   -0.68526E-08  1069   0.602E-04    0.804E-05
RMM:  14    -0.413190393867E+03    0.50761E-05   -0.59882E-08  1006   0.585E-04    0.542E-05
RMM:  15    -0.413190392369E+03    0.14974E-05   -0.23553E-08   695   0.496E-04    0.404E-05
RMM:  16    -0.413190389968E+03    0.24019E-05   -0.25759E-08   746   0.506E-04    0.218E-05
RMM:  17    -0.413190389578E+03    0.38933E-06   -0.73194E-09   478   0.454E-04
   33 T=    66. E= -.41286631E+03 F= -.41319039E+03 E0= -.41316899E+03  EK= 0.32408E+00 SP= 0.00E+00 SK= 0.00E+00
       N       E                     dE             d eps       ncg     rms          rms(c)
RMM:   1    -0.413184195880E+03    0.61941E-02   -0.12105E+01  4290   0.922E-01    0.916E-01
RMM:   2    -0.413194543358E+03   -0.10347E-01   -0.15766E-01  4256   0.128E-01    0.664E-01
RMM:   3    -0.413193121522E+03    0.14218E-02   -0.62224E-03  4459   0.455E-02    0.180E-01
RMM:   4    -0.413202505700E+03   -0.93842E-02   -0.97508E-03  5151   0.866E-02    0.408E-01
RMM:   5    -0.413193089865E+03    0.94158E-02   -0.45954E-03  4810   0.668E-02    0.225E-02
RMM:   6    -0.413193078455E+03    0.11410E-04   -0.72518E-04  5812   0.265E-02    0.134E-02
RMM:   7    -0.413193080447E+03   -0.19917E-05   -0.87870E-05  5331   0.888E-03    0.904E-03
RMM:   8    -0.413193075199E+03    0.52476E-05   -0.11341E-05  3471   0.378E-03    0.496E-03
RMM:   9    -0.413193071446E+03    0.37527E-05   -0.23474E-06  2608   0.235E-03    0.269E-03
RMM:  10    -0.413193067464E+03    0.39825E-05   -0.94948E-07  2501   0.156E-03    0.138E-03
RMM:  11    -0.413193064068E+03    0.33958E-05   -0.57350E-07  2375   0.119E-03    0.672E-04
RMM:  12    -0.413193061127E+03    0.29413E-05   -0.33303E-07  1972   0.934E-04    0.240E-04
RMM:  13    -0.413193059751E+03    0.13759E-05   -0.15500E-07  1297   0.719E-04    0.147E-04
RMM:  14    -0.413193057895E+03    0.18564E-05   -0.11006E-07  1143   0.674E-04    0.923E-05
RMM:  15    -0.413193056100E+03    0.17950E-05   -0.84070E-08  1138   0.651E-04    0.480E-05
RMM:  16    -0.413193055319E+03    0.78102E-06   -0.49373E-08   945   0.604E-04
   34 T=    67. E= -.41286640E+03 F= -.41319306E+03 E0= -.41317170E+03  EK= 0.32666E+00 SP= 0.00E+00 SK= 0.00E+00
       N       E                     dE             d eps       ncg     rms          rms(c)
RMM:   1    -0.413186481418E+03    0.65747E-02   -0.12237E+01  4298   0.944E-01    0.942E-01
RMM:   2    -0.413197046296E+03   -0.10565E-01   -0.15960E-01  4256   0.135E-01    0.664E-01
RMM:   3    -0.413195858307E+03    0.11880E-02   -0.64774E-03  4481   0.429E-02    0.186E-01
RMM:   4    -0.413202304520E+03   -0.64462E-02   -0.71064E-03  5155   0.727E-02    0.344E-01
RMM:   5    -0.413195672231E+03    0.66323E-02   -0.33418E-03  4811   0.565E-02    0.222E-02
RMM:   6    -0.413195658805E+03    0.13426E-04   -0.53371E-04  5759   0.228E-02    0.140E-02
RMM:   7    -0.413195655123E+03    0.36821E-05   -0.69768E-05  5130   0.795E-03    0.801E-03
RMM:   8    -0.413195647078E+03    0.80450E-05   -0.92300E-06  3285   0.350E-03    0.411E-03
RMM:   9    -0.413195640627E+03    0.64507E-05   -0.17340E-06  2546   0.209E-03    0.216E-03
RMM:  10    -0.413195633854E+03    0.67724E-05   -0.76392E-07  2462   0.140E-03    0.116E-03
RMM:  11    -0.413195627644E+03    0.62109E-05   -0.45505E-07  2256   0.109E-03    0.513E-04
RMM:  12    -0.413195622394E+03    0.52492E-05   -0.26235E-07  1841   0.872E-04    0.178E-04
RMM:  13    -0.413195619452E+03    0.29425E-05   -0.13796E-07  1295   0.709E-04    0.128E-04
RMM:  14    -0.413195615521E+03    0.39306E-05   -0.10316E-07  1240   0.674E-04    0.807E-05
RMM:  15    -0.413195611004E+03    0.45177E-05   -0.88976E-08  1296   0.662E-04    0.659E-05
RMM:  16    -0.413195609674E+03    0.13293E-05   -0.47022E-08   957   0.587E-04    0.480E-05
RMM:  17    -0.413195606135E+03    0.35389E-05   -0.52776E-08  1161   0.609E-04    0.247E-05
RMM:  18    -0.413195605699E+03    0.43612E-06   -0.22891E-08   748   0.529E-04
   35 T=    67. E= -.41286626E+03 F= -.41319561E+03 E0= -.41317430E+03  EK= 0.32934E+00 SP= 0.00E+00 SK= 0.00E+00
       N       E                     dE             d eps       ncg     rms          rms(c)
RMM:   1    -0.413189366692E+03    0.62394E-02   -0.12284E+01  4297   0.966E-01    0.943E-01
RMM:   2    -0.413198996055E+03   -0.96294E-02   -0.15798E-01  4251   0.119E-01    0.657E-01
RMM:   3    -0.413198149883E+03    0.84617E-03   -0.67614E-03  4820   0.440E-02    0.198E-01
RMM:   4    -0.413228768059E+03   -0.30618E-01   -0.30753E-02  5153   0.147E-01    0.729E-01
RMM:   5    -0.413197821406E+03    0.30947E-01   -0.15561E-02  4796   0.122E-01    0.365E-02
RMM:   6    -0.413197862963E+03   -0.41557E-04   -0.24428E-03  5856   0.464E-02    0.181E-02
RMM:   7    -0.413197875405E+03   -0.12443E-04   -0.25215E-04  5753   0.134E-02    0.128E-02
RMM:   8    -0.413197869062E+03    0.63438E-05   -0.32254E-05  4340   0.508E-03    0.891E-03
RMM:   9    -0.413197863084E+03    0.59777E-05   -0.74227E-06  3196   0.325E-03    0.593E-03
RMM:  10    -0.413197852968E+03    0.10116E-04   -0.22601E-06  2552   0.254E-03    0.265E-03
RMM:  11    -0.413197845216E+03    0.77520E-05   -0.14413E-06  2507   0.190E-03    0.144E-03
RMM:  12    -0.413197838262E+03    0.69540E-05   -0.65883E-07  2435   0.143E-03    0.535E-04
RMM:  13    -0.413197835759E+03    0.25036E-05   -0.28229E-07  2105   0.948E-04    0.365E-04
RMM:  14    -0.413197833188E+03    0.25702E-05   -0.13502E-07  1489   0.725E-04    0.208E-04
RMM:  15    -0.413197827238E+03    0.59506E-05   -0.11475E-07  1550   0.717E-04    0.185E-04
RMM:  16    -0.413197826198E+03    0.10403E-05   -0.43133E-08   915   0.583E-04    0.115E-04
RMM:  17    -0.413197822235E+03    0.39630E-05   -0.50789E-08  1124   0.614E-04    0.845E-05
RMM:  18    -0.413197819949E+03    0.22854E-05   -0.34850E-08   993   0.574E-04    0.304E-05
RMM:  19    -0.413197818903E+03    0.10466E-05   -0.22868E-08   843   0.550E-04    0.338E-05
RMM:  20    -0.413197818520E+03    0.38272E-06   -0.11547E-08   700   0.530E-04
   36 T=    68. E= -.41286610E+03 F= -.41319782E+03 E0= -.41317656E+03  EK= 0.33172E+00 SP= 0.00E+00 SK= 0.00E+00
       N       E                     dE             d eps       ncg     rms          rms(c)
RMM:   1    -0.413190478473E+03    0.73404E-02   -0.12337E+01  4299   0.987E-01    0.925E-01
RMM:   2    -0.413202472930E+03   -0.11994E-01   -0.16468E-01  4249   0.135E-01    0.669E-01
RMM:   3    -0.413201278852E+03    0.11941E-02   -0.65734E-03  4833   0.519E-02    0.208E-01
RMM:   4    -0.413245082080E+03   -0.43803E-01   -0.44779E-02  5154   0.177E-01    0.868E-01
RMM:   5    -0.413200545297E+03    0.44537E-01   -0.22392E-02  4790   0.146E-01    0.414E-02
RMM:   6    -0.413200649824E+03   -0.10453E-03   -0.34538E-03  5851   0.553E-02    0.194E-02
RMM:   7    -0.413200668323E+03   -0.18499E-04   -0.34109E-04  5734   0.154E-02    0.133E-02
RMM:   8    -0.413200665805E+03    0.25180E-05   -0.39676E-05  4095   0.514E-03    0.935E-03
RMM:   9    -0.413200659041E+03    0.67638E-05   -0.90892E-06  3351   0.343E-03    0.546E-03
RMM:  10    -0.413200655115E+03    0.39259E-05   -0.31961E-06  2660   0.259E-03    0.293E-03
RMM:  11    -0.413200649609E+03    0.55060E-05   -0.15321E-06  2503   0.203E-03    0.151E-03
RMM:  12    -0.413200645444E+03    0.41652E-05   -0.71684E-07  2446   0.144E-03    0.568E-04
RMM:  13    -0.413200643487E+03    0.19567E-05   -0.31701E-07  2169   0.984E-04    0.338E-04
RMM:  14    -0.413200641159E+03    0.23278E-05   -0.16134E-07  1565   0.757E-04    0.197E-04
RMM:  15    -0.413200637809E+03    0.33500E-05   -0.11457E-07  1372   0.695E-04    0.130E-04
RMM:  16    -0.413200636983E+03    0.82657E-06   -0.52681E-08   982   0.604E-04
   37 T=    68. E= -.41286628E+03 F= -.41320064E+03 E0= -.41317942E+03  EK= 0.33436E+00 SP= 0.00E+00 SK= 0.00E+00
       N       E                     dE             d eps       ncg     rms          rms(c)
RMM:   1    -0.413197508472E+03    0.31293E-02   -0.12546E+01  4306   0.105E+00    0.946E-01
RMM:   2    -0.413205402060E+03   -0.78936E-02   -0.16372E-01  4249   0.129E-01    0.673E-01
RMM:   3    -0.413203949259E+03    0.14528E-02   -0.67640E-03  4780   0.498E-02    0.202E-01
RMM:   4    -0.413239119349E+03   -0.35170E-01   -0.35427E-02  5155   0.157E-01    0.781E-01
RMM:   5    -0.413203459063E+03    0.35660E-01   -0.18061E-02  4802   0.130E-01    0.375E-02
RMM:   6    -0.413203525343E+03   -0.66280E-04   -0.27427E-03  5850   0.493E-02    0.182E-02
RMM:   7    -0.413203541236E+03   -0.15892E-04   -0.28136E-04  5764   0.141E-02    0.130E-02
RMM:   8    -0.413203535894E+03    0.53417E-05   -0.35041E-05  4379   0.518E-03    0.904E-03
RMM:   9    -0.413203531571E+03    0.43235E-05   -0.84440E-06  3319   0.327E-03    0.619E-03
RMM:  10    -0.413203522802E+03    0.87683E-05   -0.23878E-06  2548   0.252E-03    0.276E-03
RMM:  11    -0.413203516348E+03    0.64539E-05   -0.15429E-06  2513   0.195E-03    0.151E-03
RMM:  12    -0.413203510933E+03    0.54152E-05   -0.69606E-07  2446   0.146E-03    0.570E-04
RMM:  13    -0.413203508877E+03    0.20560E-05   -0.30096E-07  2144   0.972E-04    0.388E-04
RMM:  14    -0.413203506603E+03    0.22740E-05   -0.14689E-07  1535   0.744E-04    0.208E-04
RMM:  15    -0.413203501360E+03    0.52435E-05   -0.13107E-07  1629   0.733E-04    0.209E-04
RMM:  16    -0.413203500505E+03    0.85421E-06   -0.47331E-08   939   0.585E-04
   38 T=    69. E= -.41286664E+03 F= -.41320350E+03 E0= -.41318232E+03  EK= 0.33686E+00 SP= 0.00E+00 SK= 0.00E+00
       N       E                     dE             d eps       ncg     rms          rms(c)
RMM:   1    -0.413201834388E+03    0.16670E-02   -0.12625E+01  4304   0.109E+00    0.960E-01
RMM:   2    -0.413206915902E+03   -0.50815E-02   -0.16832E-01  4258   0.127E-01    0.667E-01
RMM:   3    -0.413206371187E+03    0.54472E-03   -0.73560E-03  4999   0.541E-02    0.233E-01
RMM:   4    -0.413257769067E+03   -0.51398E-01   -0.54742E-02  5134   0.194E-01    0.941E-01
RMM:   5    -0.413205248590E+03    0.52520E-01   -0.25970E-02  4783   0.159E-01    0.479E-02
RMM:   6    -0.413205398560E+03   -0.14997E-03   -0.41222E-03  5838   0.602E-02    0.213E-02
RMM:   7    -0.413205420165E+03   -0.21605E-04   -0.41880E-04  5834   0.170E-02    0.149E-02
RMM:   8    -0.413205418143E+03    0.20227E-05   -0.56701E-05  4726   0.619E-03    0.113E-02
RMM:   9    -0.413205408687E+03    0.94559E-05   -0.10805E-05  3524   0.357E-03    0.720E-03
RMM:  10    -0.413205397454E+03    0.11232E-04   -0.35662E-06  2651   0.293E-03    0.318E-03
RMM:  11    -0.413205389120E+03    0.83342E-05   -0.16869E-06  2506   0.212E-03    0.178E-03
RMM:  12    -0.413205380803E+03    0.83169E-05   -0.87588E-07  2466   0.164E-03    0.605E-04
RMM:  13    -0.413205376935E+03    0.38685E-05   -0.36922E-07  2267   0.109E-03    0.434E-04
RMM:  14    -0.413205373527E+03    0.34079E-05   -0.18565E-07  1769   0.801E-04    0.310E-04
RMM:  15    -0.413205365300E+03    0.82266E-05   -0.15195E-07  1766   0.763E-04    0.249E-04
RMM:  16    -0.413205364754E+03    0.54597E-06   -0.57546E-08  1012   0.584E-04
   39 T=    69. E= -.41286612E+03 F= -.41320536E+03 E0= -.41318423E+03  EK= 0.33924E+00 SP= 0.00E+00 SK= 0.00E+00
       N       E                     dE             d eps       ncg     rms          rms(c)
RMM:   1    -0.413204799907E+03    0.56539E-03   -0.12648E+01  4307   0.114E+00    0.936E-01
RMM:   2    -0.413210641318E+03   -0.58414E-02   -0.16865E-01  4252   0.134E-01    0.672E-01
RMM:   3    -0.413209926714E+03    0.71460E-03   -0.70430E-03  5007   0.542E-02    0.237E-01
RMM:   4    -0.413264272129E+03   -0.54345E-01   -0.58729E-02  5131   0.201E-01    0.967E-01
RMM:   5    -0.413208645044E+03    0.55627E-01   -0.27483E-02  4785   0.163E-01    0.487E-02
RMM:   6    -0.413208797477E+03   -0.15243E-03   -0.42780E-03  5823   0.615E-02    0.206E-02
RMM:   7    -0.413208822475E+03   -0.24998E-04   -0.44452E-04  5876   0.175E-02    0.149E-02
RMM:   8    -0.413208822455E+03    0.20424E-07   -0.61112E-05  4832   0.642E-03    0.114E-02
RMM:   9    -0.413208814605E+03    0.78497E-05   -0.10666E-05  3486   0.355E-03    0.703E-03
RMM:  10    -0.413208806720E+03    0.78851E-05   -0.36798E-06  2667   0.289E-03    0.311E-03
RMM:  11    -0.413208801008E+03    0.57123E-05   -0.17081E-06  2506   0.211E-03    0.168E-03
RMM:  12    -0.413208795576E+03    0.54322E-05   -0.88565E-07  2466   0.161E-03    0.596E-04
RMM:  13    -0.413208793059E+03    0.25169E-05   -0.37377E-07  2254   0.108E-03    0.422E-04
RMM:  14    -0.413208790536E+03    0.25228E-05   -0.19478E-07  1751   0.802E-04    0.291E-04
RMM:  15    -0.413208785316E+03    0.52201E-05   -0.15072E-07  1600   0.746E-04    0.194E-04
RMM:  16    -0.413208784785E+03    0.53092E-06   -0.63793E-08  1040   0.601E-04
   40 T=    70. E= -.41286678E+03 F= -.41320878E+03 E0= -.41318768E+03  EK= 0.34200E+00 SP= 0.00E+00 SK= 0.00E+00
       N       E                     dE             d eps       ncg     rms          rms(c)
RMM:   1    -0.413205751439E+03    0.30339E-02   -0.12812E+01  4304   0.119E+00    0.948E-01
RMM:   2    -0.413211931522E+03   -0.61801E-02   -0.17602E-01  4259   0.140E-01    0.684E-01
RMM:   3    -0.413211522160E+03    0.40936E-03   -0.73536E-03  5042   0.555E-02    0.255E-01
RMM:   4    -0.413268433745E+03   -0.56912E-01   -0.63049E-02  5133   0.208E-01    0.991E-01
RMM:   5    -0.413209910075E+03    0.58524E-01   -0.28444E-02  4772   0.167E-01    0.520E-02
RMM:   6    -0.413210095962E+03   -0.18589E-03   -0.47187E-03  5822   0.634E-02    0.207E-02
RMM:   7    -0.413210124032E+03   -0.28070E-04   -0.48546E-04  5920   0.182E-02    0.157E-02
RMM:   8    -0.413210124184E+03   -0.15189E-06   -0.67377E-05  4925   0.676E-03    0.118E-02
RMM:   9    -0.413210116023E+03    0.81608E-05   -0.10407E-05  3401   0.361E-03    0.705E-03
RMM:  10    -0.413210108218E+03    0.78051E-05   -0.39952E-06  2712   0.300E-03    0.309E-03
RMM:  11    -0.413210102454E+03    0.57648E-05   -0.17872E-06  2515   0.216E-03    0.159E-03
RMM:  12    -0.413210097280E+03    0.51734E-05   -0.90558E-07  2473   0.162E-03    0.596E-04
RMM:  13    -0.413210094918E+03    0.23618E-05   -0.38740E-07  2250   0.109E-03    0.426E-04
RMM:  14    -0.413210092080E+03    0.28383E-05   -0.21079E-07  1782   0.822E-04    0.300E-04
RMM:  15    -0.413210087517E+03    0.45626E-05   -0.14982E-07  1539   0.736E-04    0.168E-04
RMM:  16    -0.413210086549E+03    0.96852E-06   -0.70589E-08  1064   0.612E-04
   41 T=    70. E= -.41286608E+03 F= -.41321009E+03 E0= -.41318902E+03  EK= 0.34400E+00 SP= 0.00E+00 SK= 0.00E+00
       N       E                     dE             d eps       ncg     rms          rms(c)
RMM:   1    -0.413214600059E+03   -0.45125E-02   -0.12953E+01  4309   0.127E+00    0.973E-01
RMM:   2    -0.413213905081E+03    0.69498E-03   -0.17938E-01  4284   0.145E-01    0.676E-01
RMM:   3    -0.413216418988E+03   -0.25139E-02   -0.97092E-03  5118   0.717E-02    0.330E-01
RMM:   4    -0.413251797658E+03   -0.35379E-01   -0.50652E-02  5091   0.189E-01    0.823E-01
RMM:   5    -0.413212795331E+03    0.39002E-01   -0.17668E-02  4734   0.137E-01    0.496E-02
RMM:   6    -0.413212844004E+03   -0.48674E-04   -0.28568E-03  5762   0.508E-02    0.183E-02
RMM:   7    -0.413212857846E+03   -0.13842E-04   -0.33215E-04  5901   0.156E-02    0.142E-02
RMM:   8    -0.413212855102E+03    0.27440E-05   -0.50010E-05  4812   0.610E-03    0.950E-03
RMM:   9    -0.413212843140E+03    0.11962E-04   -0.74113E-06  3130   0.365E-03    0.457E-03
RMM:  10    -0.413212833025E+03    0.10115E-04   -0.27434E-06  2574   0.253E-03    0.229E-03
RMM:  11    -0.413212824687E+03    0.83382E-05   -0.10383E-06  2510   0.165E-03    0.960E-04
RMM:  12    -0.413212819114E+03    0.55730E-05   -0.41658E-07  2321   0.111E-03    0.507E-04
RMM:  13    -0.413212813707E+03    0.54075E-05   -0.24639E-07  1682   0.853E-04    0.251E-04
RMM:  14    -0.413212809484E+03    0.42232E-05   -0.15608E-07  1382   0.742E-04    0.151E-04
RMM:  15    -0.413212804155E+03    0.53282E-05   -0.12556E-07  1415   0.715E-04    0.105E-04
RMM:  16    -0.413212799304E+03    0.48509E-05   -0.96381E-08  1384   0.667E-04    0.575E-05
RMM:  17    -0.413212794974E+03    0.43307E-05   -0.72550E-08  1261   0.627E-04    0.521E-05
RMM:  18    -0.413212793600E+03    0.13740E-05   -0.43832E-08   965   0.557E-04    0.353E-05
RMM:  19    -0.413212792721E+03    0.87859E-06   -0.30581E-08   863   0.539E-04
   42 T=    70. E= -.41286659E+03 F= -.41321279E+03 E0= -.41319176E+03  EK= 0.34620E+00 SP= 0.00E+00 SK= 0.00E+00
       N       E                     dE             d eps       ncg     rms          rms(c)
RMM:   1    -0.413214400332E+03   -0.16067E-02   -0.12908E+01  4309   0.133E+00    0.949E-01
RMM:   2    -0.413215853010E+03   -0.14527E-02   -0.17838E-01  4289   0.155E-01    0.676E-01
RMM:   3    -0.413219312458E+03   -0.34594E-02   -0.10317E-02  5103   0.792E-02    0.359E-01
RMM:   4    -0.413250018440E+03   -0.30706E-01   -0.48952E-02  5074   0.187E-01    0.786E-01
RMM:   5    -0.413214712735E+03    0.35306E-01   -0.15646E-02  4711   0.132E-01    0.485E-02
RMM:   6    -0.413214743304E+03   -0.30569E-04   -0.25576E-03  5742   0.483E-02    0.172E-02
RMM:   7    -0.413214754462E+03   -0.11157E-04   -0.29217E-04  5906   0.151E-02    0.136E-02
RMM:   8    -0.413214752285E+03    0.21768E-05   -0.45379E-05  4762   0.589E-03    0.884E-03
RMM:   9    -0.413214742430E+03    0.98552E-05   -0.72782E-06  3134   0.377E-03    0.431E-03
RMM:  10    -0.413214734942E+03    0.74876E-05   -0.26060E-06  2572   0.252E-03    0.235E-03
RMM:  11    -0.413214729077E+03    0.58653E-05   -0.10423E-06  2516   0.163E-03    0.101E-03
RMM:  12    -0.413214725401E+03    0.36756E-05   -0.42696E-07  2305   0.110E-03    0.520E-04
RMM:  13    -0.413214721022E+03    0.43794E-05   -0.29538E-07  1750   0.891E-04    0.264E-04
RMM:  14    -0.413214718595E+03    0.24270E-05   -0.17264E-07  1356   0.742E-04    0.145E-04
RMM:  15    -0.413214715042E+03    0.35527E-05   -0.13194E-07  1262   0.704E-04    0.875E-05
RMM:  16    -0.413214711319E+03    0.37234E-05   -0.10803E-07  1289   0.681E-04    0.484E-05
RMM:  17    -0.413214708413E+03    0.29058E-05   -0.84608E-08  1330   0.646E-04    0.407E-05
RMM:  18    -0.413214706831E+03    0.15815E-05   -0.52095E-08  1011   0.571E-04    0.292E-05
RMM:  19    -0.413214705836E+03    0.99501E-06   -0.34517E-08   861   0.539E-04
   43 T=    71. E= -.41286659E+03 F= -.41321471E+03 E0= -.41319370E+03  EK= 0.34811E+00 SP= 0.00E+00 SK= 0.00E+00
       N       E                     dE             d eps       ncg     rms          rms(c)
RMM:   1    -0.413242736246E+03   -0.28029E-01   -0.13317E+01  4311   0.153E+00    0.950E-01
RMM:   2    -0.413217105833E+03    0.25630E-01   -0.20319E-01  4287   0.177E-01    0.694E-01
RMM:   3    -0.413222015270E+03   -0.49094E-02   -0.11587E-02  5107   0.893E-02    0.412E-01
RMM:   4    -0.413248702137E+03   -0.26687E-01   -0.49568E-02  5060   0.189E-01    0.765E-01
RMM:   5    -0.413215776578E+03    0.32926E-01   -0.14459E-02  4695   0.130E-01    0.509E-02
RMM:   6    -0.413215780647E+03   -0.40690E-05   -0.23748E-03  5698   0.466E-02    0.176E-02
RMM:   7    -0.413215791722E+03   -0.11075E-04   -0.28573E-04  5922   0.151E-02    0.140E-02
RMM:   8    -0.413215789413E+03    0.23089E-05   -0.42600E-05  4751   0.585E-03    0.885E-03
RMM:   9    -0.413215780559E+03    0.88543E-05   -0.85170E-06  3323   0.419E-03    0.454E-03
RMM:  10    -0.413215774392E+03    0.61668E-05   -0.28387E-06  2602   0.266E-03    0.271E-03
RMM:  11    -0.413215770021E+03    0.43708E-05   -0.12777E-06  2527   0.178E-03    0.113E-03
RMM:  12    -0.413215767468E+03    0.25534E-05   -0.52217E-07  2437   0.122E-03    0.629E-04
RMM:  13    -0.413215763725E+03    0.37426E-05   -0.40360E-07  1968   0.100E-03    0.399E-04
RMM:  14    -0.413215762221E+03    0.15046E-05   -0.20480E-07  1430   0.784E-04    0.203E-04
RMM:  15    -0.413215759847E+03    0.23739E-05   -0.15152E-07  1267   0.722E-04    0.123E-04
RMM:  16    -0.413215756990E+03    0.28569E-05   -0.12188E-07  1230   0.690E-04    0.607E-05
RMM:  17    -0.413215755555E+03    0.14351E-05   -0.77414E-08  1056   0.638E-04    0.438E-05
RMM:  18    -0.413215753470E+03    0.20842E-05   -0.67353E-08  1101   0.626E-04    0.403E-05
RMM:  19    -0.413215752420E+03    0.10508E-05   -0.43215E-08   909   0.580E-04    0.316E-05
RMM:  20    -0.413215752084E+03    0.33568E-06   -0.26324E-08   763   0.554E-04
   44 T=    71. E= -.41286627E+03 F= -.41321575E+03 E0= -.41319478E+03  EK= 0.34948E+00 SP= 0.00E+00 SK= 0.00E+00
       N       E                     dE             d eps       ncg     rms          rms(c)
RMM:   1    -0.413244531539E+03   -0.28779E-01   -0.13401E+01  4306   0.159E+00    0.981E-01
RMM:   2    -0.413217964925E+03    0.26567E-01   -0.19178E-01  4368   0.182E-01    0.684E-01
RMM:   3    -0.413230172634E+03   -0.12208E-01   -0.18106E-02  5136   0.116E-01    0.529E-01
RMM:   4    -0.413233525408E+03   -0.33528E-02   -0.37723E-02  5017   0.169E-01    0.553E-01
RMM:   5    -0.413217680853E+03    0.15845E-01   -0.61772E-03  4574   0.961E-02    0.429E-02
RMM:   6    -0.413217638051E+03    0.42802E-04   -0.10967E-03  5358   0.322E-02    0.162E-02
RMM:   7    -0.413217637845E+03    0.20594E-06   -0.12412E-04  5680   0.107E-02    0.125E-02
RMM:   8    -0.413217633079E+03    0.47657E-05   -0.25412E-05  4602   0.498E-03    0.790E-03
RMM:   9    -0.413217617245E+03    0.15834E-04   -0.67378E-06  3109   0.410E-03    0.398E-03
RMM:  10    -0.413217610404E+03    0.68416E-05   -0.15350E-06  2537   0.215E-03    0.177E-03
RMM:  11    -0.413217604327E+03    0.60772E-05   -0.86653E-07  2490   0.149E-03    0.844E-04
RMM:  12    -0.413217599291E+03    0.50360E-05   -0.43876E-07  2369   0.112E-03    0.469E-04
RMM:  13    -0.413217593842E+03    0.54490E-05   -0.26687E-07  1727   0.858E-04    0.268E-04
RMM:  14    -0.413217591361E+03    0.24802E-05   -0.13929E-07  1196   0.699E-04    0.173E-04
RMM:  15    -0.413217586693E+03    0.46686E-05   -0.11371E-07  1225   0.683E-04    0.778E-05
RMM:  16    -0.413217582530E+03    0.41628E-05   -0.87739E-08  1191   0.653E-04    0.784E-05
RMM:  17    -0.413217580085E+03    0.24452E-05   -0.60255E-08  1063   0.600E-04    0.622E-05
RMM:  18    -0.413217576777E+03    0.33076E-05   -0.56693E-08  1113   0.593E-04    0.377E-05
RMM:  19    -0.413217576332E+03    0.44500E-06   -0.24906E-08   735   0.523E-04
   45 T=    71. E= -.41286668E+03 F= -.41321758E+03 E0= -.41319663E+03  EK= 0.35090E+00 SP= 0.00E+00 SK= 0.00E+00
       N       E                     dE             d eps       ncg     rms          rms(c)
RMM:   1    -0.413245950865E+03   -0.28374E-01   -0.13336E+01  4307   0.169E+00    0.963E-01
RMM:   2    -0.413218131470E+03    0.27819E-01   -0.18802E-01  4370   0.195E-01    0.681E-01
RMM:   3    -0.413232882961E+03   -0.14751E-01   -0.20243E-02  5132   0.125E-01    0.568E-01
RMM:   4    -0.413231378980E+03    0.15040E-02   -0.36992E-02  4991   0.169E-01    0.514E-01
RMM:   5    -0.413217878243E+03    0.13501E-01   -0.52920E-03  4553   0.924E-02    0.426E-02
RMM:   6    -0.413217815558E+03    0.62685E-04   -0.84023E-04  5154   0.294E-02    0.157E-02
RMM:   7    -0.413217815942E+03   -0.38460E-06   -0.10116E-04  5620   0.948E-03    0.110E-02
RMM:   8    -0.413217812974E+03    0.29685E-05   -0.26884E-05  4794   0.514E-03    0.778E-03
RMM:   9    -0.413217798576E+03    0.14398E-04   -0.10566E-05  3756   0.452E-03    0.438E-03
RMM:  10    -0.413217792972E+03    0.56045E-05   -0.16498E-06  2514   0.218E-03    0.192E-03
RMM:  11    -0.413217787447E+03    0.55242E-05   -0.11836E-06  2481   0.170E-03    0.993E-04
RMM:  12    -0.413217782992E+03    0.44556E-05   -0.43517E-07  2360   0.120E-03    0.577E-04
RMM:  13    -0.413217779106E+03    0.38863E-05   -0.21197E-07  1551   0.810E-04    0.297E-04
RMM:  14    -0.413217775644E+03    0.34613E-05   -0.12127E-07  1141   0.688E-04    0.166E-04
RMM:  15    -0.413217770326E+03    0.53188E-05   -0.11928E-07  1337   0.691E-04    0.102E-04
RMM:  16    -0.413217767621E+03    0.27050E-05   -0.63965E-08  1003   0.592E-04    0.988E-05
RMM:  17    -0.413217764212E+03    0.34088E-05   -0.54588E-08   990   0.576E-04    0.490E-05
RMM:  18    -0.413217762160E+03    0.20523E-05   -0.37103E-08   841   0.542E-04    0.376E-05
RMM:  19    -0.413217761284E+03    0.87586E-06   -0.20252E-08   676   0.516E-04
   46 T=    72. E= -.41286638E+03 F= -.41321776E+03 E0= -.41319683E+03  EK= 0.35138E+00 SP= 0.00E+00 SK= 0.00E+00
       N       E                     dE             d eps       ncg     rms          rms(c)
RMM:   1    -0.413265771515E+03   -0.48009E-01   -0.13604E+01  4310   0.185E+00    0.948E-01
RMM:   2    -0.413218434837E+03    0.47337E-01   -0.22858E-01  4397   0.214E-01    0.699E-01
RMM:   3    -0.413232152589E+03   -0.13718E-01   -0.19363E-02  5135   0.125E-01    0.587E-01
RMM:   4    -0.413233103832E+03   -0.95124E-03   -0.39433E-02  5003   0.174E-01    0.564E-01
RMM:   5    -0.413217506416E+03    0.15597E-01   -0.68401E-03  4551   0.102E-01    0.487E-02
RMM:   6    -0.413217432320E+03    0.74096E-04   -0.10651E-03  5223   0.330E-02    0.179E-02
RMM:   7    -0.413217432889E+03   -0.56878E-06   -0.14102E-04  5811   0.112E-02    0.134E-02
RMM:   8    -0.413217429220E+03    0.36691E-05   -0.29570E-05  4801   0.520E-03    0.885E-03
RMM:   9    -0.413217417034E+03    0.12186E-04   -0.95705E-06  3517   0.450E-03    0.485E-03
RMM:  10    -0.413217411950E+03    0.50841E-05   -0.20512E-06  2543   0.235E-03    0.229E-03
RMM:  11    -0.413217407984E+03    0.39653E-05   -0.15398E-06  2532   0.190E-03    0.120E-03
RMM:  12    -0.413217405321E+03    0.26633E-05   -0.54876E-07  2434   0.133E-03    0.702E-04
RMM:  13    -0.413217402448E+03    0.28733E-05   -0.31262E-07  1979   0.931E-04    0.378E-04
RMM:  14    -0.413217400320E+03    0.21277E-05   -0.16758E-07  1293   0.731E-04    0.212E-04
RMM:  15    -0.413217397765E+03    0.25554E-05   -0.12990E-07  1202   0.686E-04    0.934E-05
RMM:  16    -0.413217395536E+03    0.22289E-05   -0.10032E-07  1193   0.648E-04    0.903E-05
RMM:  17    -0.413217394059E+03    0.14767E-05   -0.60427E-08   960   0.586E-04    0.772E-05
RMM:  18    -0.413217392494E+03    0.15648E-05   -0.48969E-08   891   0.567E-04    0.368E-05
RMM:  19    -0.413217392148E+03    0.34687E-06   -0.24932E-08   689   0.529E-04
   47 T=    71. E= -.41286635E+03 F= -.41321739E+03 E0= -.41319648E+03  EK= 0.35104E+00 SP= 0.00E+00 SK= 0.00E+00
       N       E                     dE             d eps       ncg     rms          rms(c)
RMM:   1    -0.413267740535E+03   -0.50348E-01   -0.13634E+01  4305   0.198E+00    0.976E-01
RMM:   2    -0.413216639317E+03    0.51101E-01   -0.21478E-01  4495   0.214E-01    0.692E-01
RMM:   3    -0.413239957736E+03   -0.23318E-01   -0.28198E-02  5154   0.151E-01    0.700E-01
RMM:   4    -0.413225192430E+03    0.14765E-01   -0.37374E-02  4958   0.174E-01    0.446E-01
RMM:   5    -0.413216363346E+03    0.88291E-02   -0.46895E-03  4555   0.914E-02    0.538E-02
RMM:   6    -0.413216200492E+03    0.16285E-03   -0.46257E-04  4730   0.278E-02    0.202E-02
RMM:   7    -0.413216202700E+03   -0.22081E-05   -0.12029E-04  5907   0.107E-02    0.136E-02
RMM:   8    -0.413216194204E+03    0.84965E-05   -0.25692E-05  4768   0.542E-03    0.996E-03
RMM:   9    -0.413216179565E+03    0.14639E-04   -0.85027E-06  3465   0.428E-03    0.571E-03
RMM:  10    -0.413216171363E+03    0.82015E-05   -0.27778E-06  2642   0.279E-03    0.250E-03
RMM:  11    -0.413216165658E+03    0.57056E-05   -0.23284E-06  2594   0.230E-03    0.145E-03
RMM:  12    -0.413216160254E+03    0.54036E-05   -0.85743E-07  2437   0.162E-03    0.803E-04
RMM:  13    -0.413216155986E+03    0.42678E-05   -0.40375E-07  2316   0.108E-03    0.470E-04
RMM:  14    -0.413216152055E+03    0.39311E-05   -0.20322E-07  1529   0.767E-04    0.259E-04
RMM:  15    -0.413216147289E+03    0.47658E-05   -0.14222E-07  1338   0.701E-04    0.118E-04
RMM:  16    -0.413216143836E+03    0.34530E-05   -0.10055E-07  1301   0.654E-04    0.129E-04
RMM:  17    -0.413216141623E+03    0.22131E-05   -0.57890E-08   998   0.581E-04    0.929E-05
RMM:  18    -0.413216139544E+03    0.20789E-05   -0.44015E-08   941   0.567E-04    0.445E-05
RMM:  19    -0.413216138718E+03    0.82616E-06   -0.26525E-08   786   0.541E-04
   48 T=    71. E= -.41286642E+03 F= -.41321614E+03 E0= -.41319524E+03  EK= 0.34972E+00 SP= 0.00E+00 SK= 0.00E+00
       N       E                     dE             d eps       ncg     rms          rms(c)
RMM:   1    -0.413268890490E+03   -0.52751E-01   -0.13525E+01  4305   0.211E+00    0.968E-01
RMM:   2    -0.413213206904E+03    0.55684E-01   -0.21237E-01  4494   0.229E-01    0.681E-01
RMM:   3    -0.413241849908E+03   -0.28643E-01   -0.33033E-02  5165   0.164E-01    0.764E-01
RMM:   4    -0.413219318669E+03    0.22531E-01   -0.37048E-02  4937   0.175E-01    0.400E-01
RMM:   5    -0.413213177090E+03    0.61416E-02   -0.48322E-03  4736   0.922E-02    0.653E-02
RMM:   6    -0.413212917016E+03    0.26007E-03   -0.48576E-04  4662   0.305E-02    0.245E-02
RMM:   7    -0.413212914490E+03    0.25261E-05   -0.11990E-04  5736   0.114E-02    0.152E-02
RMM:   8    -0.413212904556E+03    0.99336E-05   -0.19225E-05  4270   0.484E-03    0.104E-02
RMM:   9    -0.413212888481E+03    0.16075E-04   -0.89984E-06  3408   0.420E-03    0.497E-03
RMM:  10    -0.413212879597E+03    0.88840E-05   -0.37720E-06  2823   0.299E-03    0.240E-03
RMM:  11    -0.413212872158E+03    0.74394E-05   -0.23839E-06  2603   0.240E-03    0.161E-03
RMM:  12    -0.413212867514E+03    0.46439E-05   -0.74794E-07  2448   0.157E-03    0.827E-04
RMM:  13    -0.413212863865E+03    0.36487E-05   -0.35402E-07  2264   0.102E-03    0.514E-04
RMM:  14    -0.413212858811E+03    0.50537E-05   -0.22631E-07  1730   0.802E-04    0.245E-04
RMM:  15    -0.413212854029E+03    0.47824E-05   -0.15609E-07  1403   0.714E-04    0.156E-04
RMM:  16    -0.413212852064E+03    0.19649E-05   -0.80604E-08  1131   0.622E-04    0.104E-04
[...]
RMM:  21    -0.413549026089E+03   -0.16142E-05   -0.12905E-07  1149   0.606E-04    0.516E-05
RMM:  22    -0.413549027119E+03   -0.10304E-05   -0.72602E-08  1040   0.567E-04    0.295E-05
RMM:  23    -0.413549028064E+03   -0.94516E-06   -0.50736E-08  1011   0.560E-04
  138 T=   138. E= -.41287032E+03 F= -.41354903E+03 E0= -.41352864E+03  EK= 0.67870E+00 SP= 0.00E+00 SK= 0.00E+00
       N       E                     dE             d eps       ncg     rms          rms(c)
RMM:   1    -0.413526850064E+03    0.22177E-01   -0.14750E+01  4284   0.728E+00    0.117E+00
RMM:   2    -0.413477862524E+03    0.48988E-01   -0.41801E-01  5303   0.762E-01    0.109E+00
RMM:   3    -0.413503629611E+03   -0.25767E-01   -0.72482E-02  5717   0.285E-01    0.108E+00
RMM:   4    -0.413482903073E+03    0.20727E-01   -0.40239E-02  5021   0.221E-01    0.655E-01
RMM:   5    -0.413479342097E+03    0.35610E-02   -0.33552E-02  4738   0.240E-01    0.236E-01
RMM:   6    -0.413475932278E+03    0.34098E-02   -0.79606E-03  4740   0.119E-01    0.975E-02
RMM:   7    -0.413475545027E+03    0.38725E-03   -0.13384E-03  5215   0.511E-02    0.560E-02
RMM:   8    -0.413475472742E+03    0.72285E-04   -0.48615E-04  4958   0.276E-02    0.273E-02
RMM:   9    -0.413475465876E+03    0.68660E-05   -0.22214E-04  5191   0.178E-02    0.139E-02
RMM:  10    -0.413475471795E+03   -0.59195E-05   -0.44256E-05  5401   0.762E-03    0.100E-02
RMM:  11    -0.413475477287E+03   -0.54915E-05   -0.11177E-05  3871   0.453E-03    0.465E-03
RMM:  12    -0.413475489028E+03   -0.11741E-04   -0.49106E-06  3064   0.345E-03    0.226E-03
RMM:  13    -0.413475499657E+03   -0.10628E-04   -0.18203E-06  2628   0.213E-03    0.114E-03
RMM:  14    -0.413475509606E+03   -0.99498E-05   -0.12877E-06  2577   0.163E-03    0.705E-04
RMM:  15    -0.413475518334E+03   -0.87275E-05   -0.10611E-06  2385   0.132E-03    0.512E-04
RMM:  16    -0.413475529183E+03   -0.10849E-04   -0.16350E-06  2634   0.153E-03    0.312E-04
RMM:  17    -0.413475536485E+03   -0.73022E-05   -0.11122E-06  1990   0.114E-03    0.206E-04
RMM:  18    -0.413475542805E+03   -0.63199E-05   -0.82085E-07  2137   0.107E-03    0.150E-04
RMM:  19    -0.413475545196E+03   -0.23906E-05   -0.29254E-07  1403   0.713E-04    0.923E-05
RMM:  20    -0.413475547872E+03   -0.26760E-05   -0.19864E-07  1298   0.659E-04    0.636E-05
RMM:  21    -0.413475549088E+03   -0.12158E-05   -0.10501E-07  1107   0.594E-04    0.499E-05
RMM:  22    -0.413475549815E+03   -0.72732E-06   -0.59824E-08  1013   0.565E-04
  139 T=   122. E= -.41287504E+03 F= -.41347555E+03 E0= -.41345541E+03  EK= 0.60051E+00 SP= 0.00E+00 SK= 0.00E+00
       N       E                     dE             d eps       ncg     rms          rms(c)
RMM:   1    -0.413380766653E+03    0.94782E-01   -0.12214E+01  4286   0.662E+00    0.131E+00
RMM:   2    -0.413360296585E+03    0.20470E-01   -0.39510E-01  5259   0.683E-01    0.113E+00
RMM:   3    -0.413426180968E+03   -0.65884E-01   -0.10756E-01  5497   0.336E-01    0.130E+00
RMM:   4    -0.413365152624E+03    0.61028E-01   -0.68022E-02  4931   0.295E-01    0.413E-01
RMM:   5    -0.413362935294E+03    0.22173E-02   -0.32526E-02  5310   0.214E-01    0.232E-01
RMM:   6    -0.413359290615E+03    0.36447E-02   -0.71049E-03  4881   0.111E-01    0.787E-02
RMM:   7    -0.413359213427E+03    0.77188E-04   -0.18119E-03  5641   0.507E-02    0.464E-02
RMM:   8    -0.413359190696E+03    0.22731E-04   -0.45579E-04  5297   0.260E-02    0.226E-02
RMM:   9    -0.413359179002E+03    0.11694E-04   -0.10277E-04  5357   0.123E-02    0.128E-02
RMM:  10    -0.413359178706E+03    0.29611E-06   -0.23799E-05  4824   0.607E-03    0.797E-03
RMM:  11    -0.413359181304E+03   -0.25978E-05   -0.68703E-06  3296   0.364E-03    0.374E-03
RMM:  12    -0.413359187032E+03   -0.57285E-05   -0.28212E-06  2747   0.278E-03    0.161E-03
RMM:  13    -0.413359191448E+03   -0.44157E-05   -0.11532E-06  2532   0.173E-03    0.835E-04
RMM:  14    -0.413359196067E+03   -0.46195E-05   -0.87057E-07  2474   0.143E-03    0.534E-04
RMM:  15    -0.413359200448E+03   -0.43805E-05   -0.76426E-07  2291   0.122E-03    0.356E-04
RMM:  16    -0.413359204903E+03   -0.44549E-05   -0.75408E-07  2241   0.112E-03    0.204E-04
RMM:  17    -0.413359208632E+03   -0.37294E-05   -0.60709E-07  1892   0.973E-04    0.152E-04
RMM:  18    -0.413359210963E+03   -0.23312E-05   -0.34719E-07  1563   0.797E-04    0.942E-05
RMM:  19    -0.413359212433E+03   -0.14696E-05   -0.20195E-07  1334   0.689E-04    0.581E-05
RMM:  20    -0.413359214043E+03   -0.16098E-05   -0.15015E-07  1274   0.646E-04    0.470E-05
RMM:  21    -0.413359214628E+03   -0.58525E-06   -0.76223E-08  1009   0.579E-04
  140 T=    99. E= -.41287186E+03 F= -.41335921E+03 E0= -.41333923E+03  EK= 0.48736E+00 SP= 0.00E+00 SK= 0.00E+00
       N       E                     dE             d eps       ncg     rms          rms(c)
RMM:   1    -0.413269951177E+03    0.89263E-01   -0.86172E+00  4269   0.564E+00    0.855E-01
RMM:   2    -0.413272631689E+03   -0.26805E-02   -0.31259E-01  5264   0.542E-01    0.699E-01
RMM:   3    -0.413301842803E+03   -0.29211E-01   -0.55408E-02  5428   0.255E-01    0.754E-01
RMM:   4    -0.413282940906E+03    0.18902E-01   -0.40315E-02  5080   0.212E-01    0.412E-01
RMM:   5    -0.413276116802E+03    0.68241E-02   -0.23897E-02  5306   0.185E-01    0.184E-01
RMM:   6    -0.413274377059E+03    0.17397E-02   -0.42363E-03  4823   0.887E-02    0.714E-02
RMM:   7    -0.413274243889E+03    0.13317E-03   -0.86113E-04  5314   0.392E-02    0.374E-02
RMM:   8    -0.413274275537E+03   -0.31648E-04   -0.45236E-04  5769   0.245E-02    0.281E-02
RMM:   9    -0.413274258659E+03    0.16878E-04   -0.81769E-05  5354   0.117E-02    0.147E-02
RMM:  10    -0.413274254418E+03    0.42410E-05   -0.48231E-05  5692   0.787E-03    0.645E-03
RMM:  11    -0.413274254471E+03   -0.53355E-07   -0.84726E-06  3628   0.373E-03
  141 T=    85. E= -.41285694E+03 F= -.41327425E+03 E0= -.41325434E+03  EK= 0.41731E+00 SP= 0.00E+00 SK= 0.00E+00
       N       E                     dE             d eps       ncg     rms          rms(c)
RMM:   1    -0.413418402264E+03   -0.14415E+00   -0.92942E+00  4283   0.573E+00    0.931E-01
RMM:   2    -0.413409275041E+03    0.91272E-02   -0.33231E-01  5405   0.607E-01    0.787E-01
RMM:   3    -0.413441242265E+03   -0.31967E-01   -0.75672E-02  5584   0.287E-01    0.977E-01
RMM:   4    -0.413407643097E+03    0.33599E-01   -0.43530E-02  5212   0.234E-01    0.431E-01
RMM:   5    -0.413404631541E+03    0.30116E-02   -0.16714E-02  4563   0.183E-01    0.129E-01
RMM:   6    -0.413404511469E+03    0.12007E-03   -0.39396E-03  5594   0.772E-02    0.100E-01
RMM:   7    -0.413404331187E+03    0.18028E-03   -0.84188E-04  5198   0.349E-02    0.655E-02
RMM:   8    -0.413404304114E+03    0.27073E-04   -0.56377E-04  5026   0.304E-02    0.299E-02
RMM:   9    -0.413404317388E+03   -0.13274E-04   -0.26365E-04  5570   0.195E-02    0.233E-02
RMM:  10    -0.413404310223E+03    0.71649E-05   -0.50100E-05  5178   0.927E-03    0.101E-02
RMM:  11    -0.413404318769E+03   -0.85458E-05   -0.42567E-05  5395   0.757E-03    0.764E-03
RMM:  12    -0.413404322729E+03   -0.39597E-05   -0.55113E-06  3146   0.351E-03    0.316E-03
RMM:  13    -0.413404324307E+03   -0.15789E-05   -0.27264E-06  2720   0.236E-03    0.153E-03
RMM:  14    -0.413404325572E+03   -0.12648E-05   -0.16946E-06  2563   0.196E-03    0.815E-04
RMM:  15    -0.413404325217E+03    0.35556E-06   -0.12547E-06  2391   0.155E-03
  142 T=   109. E= -.41287055E+03 F= -.41340433E+03 E0= -.41338446E+03  EK= 0.53377E+00 SP= 0.00E+00 SK= 0.00E+00
       N       E                     dE             d eps       ncg     rms          rms(c)
RMM:   1    -0.413683175063E+03   -0.27885E+00   -0.15549E+01  4294   0.706E+00    0.178E+00
RMM:   2    -0.413596002912E+03    0.87172E-01   -0.56810E-01  5401   0.883E-01    0.157E+00
RMM:   3    -0.413686740263E+03   -0.90737E-01   -0.19849E-01  5537   0.467E-01    0.173E+00
RMM:   4    -0.413600807592E+03    0.85933E-01   -0.13978E-01  5180   0.404E-01    0.896E-01
RMM:   5    -0.413582637047E+03    0.18171E-01   -0.60662E-02  4638   0.337E-01    0.241E-01
RMM:   6    -0.413580848783E+03    0.17883E-02   -0.10460E-02  5323   0.136E-01    0.149E-01
RMM:   7    -0.413580309396E+03    0.53939E-03   -0.19004E-03  4980   0.576E-02    0.958E-02
RMM:   8    -0.413580168613E+03    0.14078E-03   -0.10494E-03  5023   0.423E-02    0.511E-02
RMM:   9    -0.413580179018E+03   -0.10405E-04   -0.68818E-04  5457   0.320E-02    0.306E-02
RMM:  10    -0.413580171833E+03    0.71856E-05   -0.11081E-04  5590   0.135E-02    0.165E-02
RMM:  11    -0.413580180800E+03   -0.89672E-05   -0.88234E-05  5513   0.112E-02    0.998E-03
RMM:  12    -0.413580186085E+03   -0.52850E-05   -0.11251E-05  3941   0.470E-03    0.471E-03
RMM:  13    -0.413580189743E+03   -0.36583E-05   -0.65489E-06  3372   0.348E-03    0.247E-03
RMM:  14    -0.413580192116E+03   -0.23729E-05   -0.25269E-06  2715   0.250E-03    0.116E-03
RMM:  15    -0.413580192747E+03   -0.63067E-06   -0.16540E-06  2542   0.179E-03
  143 T=   140. E= -.41289194E+03 F= -.41358019E+03 E0= -.41356051E+03  EK= 0.68825E+00 SP= 0.00E+00 SK= 0.00E+00
       N       E                     dE             d eps       ncg     rms          rms(c)
RMM:   1    -0.413655984788E+03   -0.75793E-01   -0.18134E+01  4288   0.765E+00    0.191E+00
RMM:   2    -0.413533048818E+03    0.12294E+00   -0.64584E-01  5391   0.959E-01    0.177E+00
RMM:   3    -0.413529511419E+03    0.35374E-02   -0.12642E-01  5216   0.400E-01    0.116E+00
RMM:   4    -0.413792698334E+03   -0.26319E+00   -0.32181E-01  5164   0.572E-01    0.199E+00
RMM:   5    -0.413526884185E+03    0.26581E+00   -0.15665E-01  4927   0.431E-01    0.420E-01
RMM:   6    -0.413522476432E+03    0.44078E-02   -0.28168E-02  5578   0.200E-01    0.159E-01
RMM:   7    -0.413522404971E+03    0.71462E-04   -0.53164E-03  5990   0.769E-02    0.900E-02
RMM:   8    -0.413522402838E+03    0.21332E-05   -0.17150E-03  5375   0.464E-02    0.588E-02
RMM:   9    -0.413522318889E+03    0.83949E-04   -0.56137E-04  5079   0.292E-02    0.211E-02
RMM:  10    -0.413522338629E+03   -0.19740E-04   -0.19073E-04  6071   0.158E-02    0.138E-02
RMM:  11    -0.413522344853E+03   -0.62249E-05   -0.41868E-05  5342   0.713E-03    0.903E-03
RMM:  12    -0.413522346608E+03   -0.17547E-05   -0.10028E-05  3834   0.428E-03    0.490E-03
RMM:  13    -0.413522349852E+03   -0.32438E-05   -0.59579E-06  3263   0.361E-03    0.249E-03
RMM:  14    -0.413522351279E+03   -0.14275E-05   -0.19159E-06  2613   0.231E-03    0.133E-03
RMM:  15    -0.413522351348E+03   -0.68481E-07   -0.10987E-06  2518   0.158E-03
  144 T=   130. E= -.41288390E+03 F= -.41352235E+03 E0= -.41350314E+03  EK= 0.63846E+00 SP= 0.00E+00 SK= 0.00E+00
       N       E                     dE             d eps       ncg     rms          rms(c)
RMM:   1    -0.413411638393E+03    0.11071E+00   -0.13223E+01  4282   0.694E+00    0.122E+00
RMM:   2    -0.413367783383E+03    0.43855E-01   -0.39923E-01  5401   0.751E-01    0.116E+00
RMM:   3    -0.413385011758E+03   -0.17228E-01   -0.86048E-02  5720   0.303E-01    0.103E+00
RMM:   4    -0.413380028094E+03    0.49837E-02   -0.52529E-02  5237   0.237E-01    0.837E-01
RMM:   5    -0.413363983424E+03    0.16045E-01   -0.49822E-02  4329   0.310E-01    0.312E-01
RMM:   6    -0.413360889697E+03    0.30937E-02   -0.43653E-03  4458   0.107E-01    0.110E-01
RMM:   7    -0.413360675649E+03    0.21405E-03   -0.13280E-03  5396   0.460E-02    0.598E-02
RMM:   8    -0.413360629246E+03    0.46403E-04   -0.71729E-04  4774   0.337E-02    0.232E-02
RMM:   9    -0.413360642653E+03   -0.13407E-04   -0.20558E-04  5874   0.165E-02    0.160E-02
RMM:  10    -0.413360647724E+03   -0.50714E-05   -0.53676E-05  5484   0.819E-03    0.109E-02
RMM:  11    -0.413360644260E+03    0.34637E-05   -0.17805E-05  4548   0.515E-03    0.557E-03
RMM:  12    -0.413360646464E+03   -0.22031E-05   -0.37211E-06  2863   0.300E-03    0.307E-03
RMM:  13    -0.413360647952E+03   -0.14886E-05   -0.13899E-06  2544   0.209E-03    0.169E-03
RMM:  14    -0.413360648785E+03   -0.83234E-06   -0.93872E-07  2478   0.159E-03
  145 T=   103. E= -.41285603E+03 F= -.41336065E+03 E0= -.41334183E+03  EK= 0.50462E+00 SP= 0.00E+00 SK= 0.00E+00
       N       E                     dE             d eps       ncg     rms          rms(c)
RMM:   1    -0.413456124400E+03   -0.95476E-01   -0.11037E+01  4296   0.666E+00    0.893E-01
RMM:   2    -0.413434573818E+03    0.21551E-01   -0.22826E-01  5278   0.573E-01    0.669E-01
RMM:   3    -0.413479433073E+03   -0.44859E-01   -0.86696E-02  5647   0.298E-01    0.103E+00
RMM:   4    -0.413431941749E+03    0.47491E-01   -0.41748E-02  4995   0.240E-01    0.308E-01
RMM:   5    -0.413431210044E+03    0.73170E-03   -0.23848E-02  5182   0.185E-01    0.160E-01
RMM:   6    -0.413430130152E+03    0.10799E-02   -0.60871E-03  5338   0.955E-02    0.868E-02
RMM:   7    -0.413429881633E+03    0.24852E-03   -0.89126E-04  4872   0.402E-02    0.460E-02
RMM:   8    -0.413429885368E+03   -0.37355E-05   -0.48852E-04  5559   0.261E-02    0.310E-02
RMM:   9    -0.413429887901E+03   -0.25325E-05   -0.12944E-04  5299   0.142E-02    0.191E-02
RMM:  10    -0.413429884557E+03    0.33434E-05   -0.72680E-05  5513   0.997E-03    0.783E-03
RMM:  11    -0.413429888668E+03   -0.41114E-05   -0.15262E-05  4298   0.471E-03    0.560E-03
RMM:  12    -0.413429891520E+03   -0.28514E-05   -0.47510E-06  3068   0.336E-03    0.232E-03
RMM:  13    -0.413429892987E+03   -0.14668E-05   -0.13375E-06  2542   0.198E-03    0.113E-03
RMM:  14    -0.413429894284E+03   -0.12969E-05   -0.75868E-07  2416   0.142E-03    0.549E-04
RMM:  15    -0.413429895301E+03   -0.10172E-05   -0.47384E-07  2054   0.104E-03    0.330E-04
RMM:  16    -0.413429895831E+03   -0.53011E-06   -0.32847E-07  1740   0.858E-04
  146 T=   113. E= -.41287315E+03 F= -.41342990E+03 E0= -.41341120E+03  EK= 0.55675E+00 SP= 0.00E+00 SK= 0.00E+00
       N       E                     dE             d eps       ncg     rms          rms(c)
RMM:   1    -0.413593482236E+03   -0.16359E+00   -0.14386E+01  4299   0.757E+00    0.146E+00
RMM:   2    -0.413572265667E+03    0.21217E-01   -0.34031E-01  5328   0.732E-01    0.128E+00
RMM:   3    -0.413594403515E+03   -0.22138E-01   -0.13523E-01  5441   0.389E-01    0.136E+00
RMM:   4    -0.413545809297E+03    0.48594E-01   -0.91672E-02  5131   0.344E-01    0.550E-01
RMM:   5    -0.413540579251E+03    0.52300E-02   -0.55824E-02  4984   0.292E-01    0.259E-01
RMM:   6    -0.413538264761E+03    0.23145E-02   -0.16823E-02  5273   0.159E-01    0.156E-01
RMM:   7    -0.413537236133E+03    0.10286E-02   -0.17116E-03  4439   0.634E-02    0.618E-02
RMM:   8    -0.413537242768E+03   -0.66350E-05   -0.12449E-03  5592   0.402E-02    0.375E-02
RMM:   9    -0.413537246198E+03   -0.34301E-05   -0.26459E-04  5669   0.194E-02    0.264E-02
RMM:  10    -0.413537230855E+03    0.15343E-04   -0.71235E-05  5327   0.105E-02    0.109E-02
RMM:  11    -0.413537239192E+03   -0.83370E-05   -0.54558E-05  5558   0.808E-03    0.824E-03
RMM:  12    -0.413537243567E+03   -0.43746E-05   -0.63935E-06  3312   0.377E-03    0.323E-03
RMM:  13    -0.413537246385E+03   -0.28181E-05   -0.27414E-06  2717   0.245E-03    0.125E-03
RMM:  14    -0.413537248953E+03   -0.25687E-05   -0.12511E-06  2522   0.182E-03    0.635E-04
RMM:  15    -0.413537250633E+03   -0.16793E-05   -0.77429E-07  2338   0.136E-03    0.407E-04
RMM:  16    -0.413537251524E+03   -0.89176E-06   -0.50048E-07  2111   0.105E-03
  147 T=   133. E= -.41288470E+03 F= -.41353725E+03 E0= -.41351863E+03  EK= 0.65255E+00 SP= 0.00E+00 SK= 0.00E+00
       N       E                     dE             d eps       ncg     rms          rms(c)
RMM:   1    -0.413537161224E+03    0.89409E-04   -0.14517E+01  4302   0.762E+00    0.119E+00
RMM:   2    -0.413537630339E+03   -0.46912E-03   -0.36785E-01  5344   0.738E-01    0.122E+00
RMM:   3    -0.413516167392E+03    0.21463E-01   -0.10155E-01  5472   0.346E-01    0.105E+00
RMM:   4    -0.413494409980E+03    0.21757E-01   -0.51286E-02  5224   0.262E-01    0.543E-01
RMM:   5    -0.413494568037E+03   -0.15806E-03   -0.42214E-02  5028   0.250E-01    0.314E-01
RMM:   6    -0.413491722459E+03    0.28456E-02   -0.19242E-02  5110   0.168E-01    0.167E-01
RMM:   7    -0.413490564979E+03    0.11575E-02   -0.21386E-03  4485   0.710E-02    0.677E-02
RMM:   8    -0.413490572966E+03   -0.79867E-05   -0.13372E-03  5704   0.406E-02    0.425E-02
RMM:   9    -0.413490556103E+03    0.16863E-04   -0.27181E-04  5166   0.206E-02    0.227E-02
RMM:  10    -0.413490547970E+03    0.81330E-05   -0.75281E-05  5539   0.107E-02    0.101E-02
RMM:  11    -0.413490553058E+03   -0.50882E-05   -0.32653E-05  5239   0.660E-03    0.708E-03
RMM:  12    -0.413490557810E+03   -0.47517E-05   -0.56437E-06  3135   0.353E-03    0.314E-03
RMM:  13    -0.413490560302E+03   -0.24922E-05   -0.23795E-06  2688   0.232E-03    0.143E-03
RMM:  14    -0.413490561653E+03   -0.13512E-05   -0.11982E-06  2527   0.169E-03    0.854E-04
RMM:  15    -0.413490562413E+03   -0.76002E-06   -0.86955E-07  2331   0.133E-03
  148 T=   125. E= -.41287463E+03 F= -.41349056E+03 E0= -.41347209E+03  EK= 0.61593E+00 SP= 0.00E+00 SK= 0.00E+00
       N       E                     dE             d eps       ncg     rms          rms(c)
RMM:   1    -0.413426037438E+03    0.64524E-01   -0.12001E+01  4299   0.690E+00    0.820E-01
RMM:   2    -0.413438396063E+03   -0.12359E-01   -0.29513E-01  5355   0.654E-01    0.959E-01
RMM:   3    -0.413410938100E+03    0.27458E-01   -0.68200E-02  5481   0.285E-01    0.715E-01
RMM:   4    -0.413400758010E+03    0.10180E-01   -0.27737E-02  5295   0.195E-01    0.418E-01
RMM:   5    -0.413400795038E+03   -0.37028E-04   -0.17493E-02  4999   0.163E-01    0.249E-01
RMM:   6    -0.413399946118E+03    0.84892E-03   -0.12264E-02  5052   0.134E-01    0.139E-01
RMM:   7    -0.413399129847E+03    0.81627E-03   -0.17799E-03  4584   0.624E-02    0.547E-02
RMM:   8    -0.413399150074E+03   -0.20227E-04   -0.89363E-04  5802   0.331E-02    0.374E-02
RMM:   9    -0.413399135636E+03    0.14438E-04   -0.20697E-04  4881   0.183E-02    0.199E-02
RMM:  10    -0.413399128335E+03    0.73011E-05   -0.58990E-05  5550   0.943E-03    0.856E-03
RMM:  11    -0.413399130863E+03   -0.25279E-05   -0.23090E-05  4918   0.547E-03    0.586E-03
RMM:  12    -0.413399133671E+03   -0.28086E-05   -0.42448E-06  2937   0.322E-03    0.287E-03
RMM:  13    -0.413399134889E+03   -0.12180E-05   -0.16302E-06  2597   0.200E-03    0.124E-03
RMM:  14    -0.413399135190E+03   -0.30050E-06   -0.94665E-07  2412   0.146E-03
  149 T=   108. E= -.41286675E+03 F= -.41339914E+03 E0= -.41338088E+03  EK= 0.53238E+00 SP= 0.00E+00 SK= 0.00E+00
       N       E                     dE             d eps       ncg     rms          rms(c)
RMM:   1    -0.413410807294E+03   -0.11672E-01   -0.10317E+01  4281   0.627E+00    0.787E-01
RMM:   2    -0.413414992807E+03   -0.41855E-02   -0.26780E-01  5350   0.633E-01    0.883E-01
RMM:   3    -0.413394749333E+03    0.20243E-01   -0.68920E-02  5463   0.285E-01    0.692E-01
RMM:   4    -0.413381308236E+03    0.13441E-01   -0.35214E-02  5271   0.219E-01    0.372E-01
RMM:   5    -0.413380310477E+03    0.99776E-03   -0.11282E-02  4964   0.138E-01    0.200E-01
RMM:   6    -0.413380129235E+03    0.18124E-03   -0.93258E-03  5043   0.116E-01    0.123E-01
RMM:   7    -0.413379418874E+03    0.71036E-03   -0.14851E-03  4604   0.565E-02    0.430E-02
RMM:   8    -0.413379435083E+03   -0.16208E-04   -0.55173E-04  5830   0.267E-02    0.281E-02
RMM:   9    -0.413379432129E+03    0.29535E-05   -0.13977E-04  4989   0.150E-02    0.174E-02
RMM:  10    -0.413379424848E+03    0.72814E-05   -0.31017E-05  5082   0.710E-03    0.820E-03
RMM:  11    -0.413379424980E+03   -0.13247E-06   -0.20403E-05  4871   0.508E-03    0.454E-03
RMM:  12    -0.413379424917E+03    0.63475E-07   -0.26493E-06  2714   0.274E-03
  150 T=   105. E= -.41286385E+03 F= -.41337942E+03 E0= -.41336143E+03  EK= 0.51557E+00 SP= 0.00E+00 SK= 0.00E+00
