       N       E                     dE             d eps       ncg     rms          rms(c)
RMM:   1     0.220139735536E+04    0.22014E+04   -0.52441E+04  2132   0.654E+02
RMM:   2     0.705322190968E+03   -0.14961E+04   -0.16262E+04  2132   0.177E+02
RMM:   3     0.137964521905E+03   -0.56736E+03   -0.65713E+03  2132   0.117E+02
RMM:   4    -0.159338232881E+03   -0.29730E+03   -0.27834E+03  2132   0.936E+01
RMM:   5    -0.287473929562E+03   -0.12814E+03   -0.11429E+03  2132   0.595E+01
RMM:   6    -0.349694629559E+03   -0.62221E+02   -0.55060E+02  2132   0.423E+01
RMM:   7    -0.382629996822E+03   -0.32935E+02   -0.30450E+02  2132   0.293E+01
RMM:   8    -0.404186442263E+03   -0.21556E+02   -0.18490E+02  2132   0.234E+01
RMM:   9    -0.436044842766E+03   -0.31858E+02   -0.30815E+02  6107   0.173E+01
RMM:  10    -0.441291361740E+03   -0.52465E+01   -0.62968E+01  6394   0.538E+00
RMM:  11    -0.442509352075E+03   -0.12180E+01   -0.11169E+01  6217   0.173E+00
RMM:  12    -0.442889881878E+03   -0.38053E+00   -0.27065E+00  6369   0.604E-01    0.134E+02
RMM:  13    -0.425637024793E+03    0.17253E+02   -0.81216E+01  4677   0.119E+01    0.712E+01
RMM:  14    -0.499831119537E+03   -0.74194E+02   -0.54202E+02  5425   0.233E+01    0.308E+01
RMM:  15    -0.417828912058E+03    0.82002E+02   -0.20514E+02  5122   0.164E+01    0.836E+00
RMM:  16    -0.414016925772E+03    0.38120E+01   -0.40037E+01  6089   0.620E+00    0.433E+00
RMM:  17    -0.413200054626E+03    0.81687E+00   -0.27730E+00  5419   0.196E+00    0.242E+00
RMM:  18    -0.413180677127E+03    0.19377E-01   -0.72931E-01  6000   0.868E-01    0.173E+00
RMM:  19    -0.413179297210E+03    0.13799E-02   -0.23808E-01  5626   0.542E-01    0.973E-01
RMM:  20    -0.413199612370E+03   -0.20315E-01   -0.39257E-01  5593   0.634E-01    0.741E-01
RMM:  21    -0.413170578116E+03    0.29034E-01   -0.39349E-02  4960   0.267E-01    0.357E-01
RMM:  22    -0.413165048970E+03    0.55291E-02   -0.34369E-02  5763   0.185E-01    0.146E-01
RMM:  23    -0.413164450659E+03    0.59831E-03   -0.57271E-03  5875   0.690E-02    0.878E-02
RMM:  24    -0.413163429026E+03    0.10216E-02   -0.17928E-03  5368   0.413E-02    0.575E-02
RMM:  25    -0.413162733882E+03    0.69514E-03   -0.92512E-04  4945   0.305E-02    0.422E-02
RMM:  26    -0.413162857371E+03   -0.12349E-03   -0.13293E-03  5800   0.365E-02    0.368E-02
RMM:  27    -0.413163254920E+03   -0.39755E-03   -0.21727E-04  4602   0.201E-02    0.209E-02
RMM:  28    -0.413163673460E+03   -0.41854E-03   -0.16303E-04  5124   0.170E-02    0.968E-03
RMM:  29    -0.413164068266E+03   -0.39481E-03   -0.10943E-04  4716   0.152E-02    0.453E-03
RMM:  30    -0.413164356160E+03   -0.28789E-03   -0.90837E-05  4379   0.121E-02    0.437E-03
RMM:  31    -0.413164512054E+03   -0.15589E-03   -0.65541E-05  3489   0.798E-03    0.393E-03
RMM:  32    -0.413164542870E+03   -0.30816E-04   -0.24125E-05  2999   0.331E-03    0.256E-03
RMM:  33    -0.413164559072E+03   -0.16202E-04   -0.99812E-06  2822   0.246E-03    0.984E-04
RMM:  34    -0.413164561482E+03   -0.24104E-05   -0.55567E-06  2639   0.159E-03    0.488E-04
RMM:  35    -0.413164563316E+03   -0.18335E-05   -0.23138E-06  2505   0.146E-03    0.792E-04
RMM:  36    -0.413164562808E+03    0.50794E-06   -0.14897E-06  2083   0.104E-03
    1 T=    61. E= -.41286678E+03 F= -.41316456E+03 E0= -.41314206E+03  EK= 0.29779E+00 SP= 0.00E+00 SK= 0.00E+00
       N       E                     dE             d eps       ncg     rms          rms(c)
RMM:   1    -0.413156822264E+03    0.77411E-02   -0.10625E+01  3977   0.680E-01    0.886E-01
RMM:   2    -0.413166494170E+03   -0.96719E-02   -0.13040E-01  3973   0.962E-02    0.643E-01
RMM:   3    -0.413164332456E+03    0.21617E-02   -0.80624E-03  4577   0.364E-02    0.127E-01
RMM:   4    -0.413174696172E+03   -0.10364E-01   -0.10998E-02  5214   0.871E-02    0.428E-01
RMM:   5    -0.413164184413E+03    0.10512E-01   -0.52714E-03  4862   0.714E-02    0.316E-02
RMM:   6    -0.413164247197E+03   -0.62784E-04   -0.91312E-04  5810   0.288E-02    0.219E-02
RMM:   7    -0.413164252683E+03   -0.54851E-05   -0.17446E-04  5576   0.122E-02    0.123E-02
RMM:   8    -0.413164256291E+03   -0.36083E-05   -0.20032E-05  4109   0.495E-03    0.527E-03
RMM:   9    -0.413164260733E+03   -0.44419E-05   -0.40852E-06  2839   0.239E-03    0.413E-03
RMM:  10    -0.413164265917E+03   -0.51840E-05   -0.11971E-06  2521   0.164E-03    0.253E-03
RMM:  11    -0.413164272855E+03   -0.69382E-05   -0.11489E-06  2503   0.152E-03    0.101E-03
RMM:  12    -0.413164277578E+03   -0.47228E-05   -0.73067E-07  2293   0.117E-03    0.430E-04
RMM:  13    -0.413164278385E+03   -0.80720E-06   -0.34203E-07  1712   0.816E-04
    2 T=    61. E= -.41286655E+03 F= -.41316428E+03 E0= -.41314178E+03  EK= 0.29773E+00 SP= 0.00E+00 SK= 0.00E+00
       N       E                     dE             d eps       ncg     rms          rms(c)
RMM:   1    -0.413157954448E+03    0.63231E-02   -0.10652E+01  4187   0.683E-01    0.909E-01
RMM:   2    -0.413166495820E+03   -0.85414E-02   -0.12806E-01  3971   0.945E-02    0.637E-01
RMM:   3    -0.413165018227E+03    0.14776E-02   -0.83491E-03  4853   0.381E-02    0.149E-01
RMM:   4    -0.413190321734E+03   -0.25304E-01   -0.25910E-02  5190   0.134E-01    0.664E-01
RMM:   5    -0.413164668408E+03    0.25653E-01   -0.12488E-02  4829   0.111E-01    0.407E-02
RMM:   6    -0.413164836626E+03   -0.16822E-03   -0.21120E-03  5801   0.444E-02    0.255E-02
RMM:   7    -0.413164841836E+03   -0.52103E-05   -0.30354E-04  5832   0.154E-02    0.164E-02
RMM:   8    -0.413164839750E+03    0.20860E-05   -0.47230E-05  4961   0.701E-03    0.778E-03
RMM:   9    -0.413164838798E+03    0.95245E-06   -0.98773E-06  3571   0.353E-03
    3 T=    61. E= -.41286688E+03 F= -.41316484E+03 E0= -.41314234E+03  EK= 0.29796E+00 SP= 0.00E+00 SK= 0.00E+00
       N       E                     dE             d eps       ncg     rms          rms(c)
RMM:   1    -0.413157364521E+03    0.74752E-02   -0.10565E+01  4230   0.684E-01    0.892E-01
RMM:   2    -0.413166424688E+03   -0.90602E-02   -0.12721E-01  4321   0.965E-02    0.631E-01
RMM:   3    -0.413172521692E+03   -0.60970E-02   -0.14466E-02  5193   0.882E-02    0.400E-01
RMM:   4    -0.413182206320E+03   -0.96846E-02   -0.34251E-02  5098   0.160E-01    0.554E-01
RMM:   5    -0.413164666204E+03    0.17540E-01   -0.62659E-03  4654   0.929E-02    0.549E-02
RMM:   6    -0.413164604594E+03    0.61611E-04   -0.11882E-03  5319   0.350E-02    0.243E-02
RMM:   7    -0.413164620215E+03   -0.15622E-04   -0.24498E-04  5982   0.153E-02    0.154E-02
RMM:   8    -0.413164619789E+03    0.42696E-06   -0.45640E-05  5224   0.756E-03    0.662E-03
RMM:   9    -0.413164619317E+03    0.47181E-06   -0.10042E-05  3777   0.396E-03    0.360E-03
RMM:  10    -0.413164620436E+03   -0.11191E-05   -0.12424E-06  2531   0.192E-03    0.219E-03
RMM:  11    -0.413164622573E+03   -0.21371E-05   -0.12150E-06  2529   0.174E-03    0.135E-03
RMM:  12    -0.413164623642E+03   -0.10692E-05   -0.55038E-07  2372   0.121E-03    0.451E-04
RMM:  13    -0.413164624475E+03   -0.83333E-06   -0.30058E-07  1611   0.811E-04
    4 T=    61. E= -.41286667E+03 F= -.41316462E+03 E0= -.41314214E+03  EK= 0.29795E+00 SP= 0.00E+00 SK= 0.00E+00
       N       E                     dE             d eps       ncg     rms          rms(c)
RMM:   1    -0.413157259897E+03    0.73637E-02   -0.10612E+01  4236   0.692E-01    0.883E-01
RMM:   2    -0.413166924806E+03   -0.96649E-02   -0.13049E-01  3996   0.940E-02    0.642E-01
RMM:   3    -0.413165049635E+03    0.18752E-02   -0.81711E-03  4904   0.400E-02    0.144E-01
RMM:   4    -0.413194511707E+03   -0.29462E-01   -0.30259E-02  5163   0.145E-01    0.715E-01
RMM:   5    -0.413164563503E+03    0.29948E-01   -0.14554E-02  4814   0.120E-01    0.411E-02
RMM:   6    -0.413164749067E+03   -0.18556E-03   -0.23479E-03  5773   0.473E-02    0.245E-02
RMM:   7    -0.413164763542E+03   -0.14475E-04   -0.32829E-04  5879   0.156E-02    0.162E-02
RMM:   8    -0.413164767605E+03   -0.40632E-05   -0.49906E-05  4973   0.705E-03    0.783E-03
RMM:   9    -0.413164770307E+03   -0.27020E-05   -0.10821E-05  3626   0.366E-03    0.555E-03
RMM:  10    -0.413164774853E+03   -0.45460E-05   -0.17407E-06  2571   0.195E-03    0.365E-03
RMM:  11    -0.413164781063E+03   -0.62097E-05   -0.15838E-06  2567   0.188E-03    0.161E-03
RMM:  12    -0.413164786169E+03   -0.51062E-05   -0.11343E-06  2500   0.157E-03    0.655E-04
RMM:  13    -0.413164786556E+03   -0.38664E-06   -0.33348E-07  2062   0.976E-04
    5 T=    61. E= -.41286668E+03 F= -.41316479E+03 E0= -.41314231E+03  EK= 0.29811E+00 SP= 0.00E+00 SK= 0.00E+00
       N       E                     dE             d eps       ncg     rms          rms(c)
RMM:   1    -0.413158175836E+03    0.66103E-02   -0.10651E+01  4250   0.696E-01    0.904E-01
RMM:   2    -0.413167002077E+03   -0.88262E-02   -0.12830E-01  4080   0.955E-02    0.639E-01
RMM:   3    -0.413165447656E+03    0.15544E-02   -0.82515E-03  4777   0.387E-02    0.144E-01
RMM:   4    -0.413188135337E+03   -0.22688E-01   -0.23011E-02  5156   0.127E-01    0.630E-01
RMM:   5    -0.413165085293E+03    0.23050E-01   -0.11275E-02  4820   0.105E-01    0.385E-02
RMM:   6    -0.413165229438E+03   -0.14414E-03   -0.18523E-03  5801   0.415E-02    0.243E-02
RMM:   7    -0.413165232932E+03   -0.34944E-05   -0.26542E-04  5779   0.147E-02    0.156E-02
RMM:   8    -0.413165230422E+03    0.25101E-05   -0.45111E-05  4904   0.692E-03    0.759E-03
RMM:   9    -0.413165229225E+03    0.11970E-05   -0.90338E-06  3496   0.349E-03    0.572E-03
RMM:  10    -0.413165229860E+03   -0.63463E-06   -0.13505E-06  2541   0.190E-03
    6 T=    61. E= -.41286685E+03 F= -.41316523E+03 E0= -.41314277E+03  EK= 0.29838E+00 SP= 0.00E+00 SK= 0.00E+00
       N       E                     dE             d eps       ncg     rms          rms(c)
RMM:   1    -0.413157952285E+03    0.72769E-02   -0.10595E+01  4258   0.699E-01    0.900E-01
RMM:   2    -0.413166608548E+03   -0.86563E-02   -0.12747E-01  4168   0.953E-02    0.632E-01
RMM:   3    -0.413166869761E+03   -0.26121E-03   -0.95596E-03  5092   0.556E-02    0.229E-01
RMM:   4    -0.413203878046E+03   -0.37008E-01   -0.45834E-02  5136   0.179E-01    0.815E-01
RMM:   5    -0.413164826610E+03    0.39051E-01   -0.17574E-02  4780   0.136E-01    0.543E-02
RMM:   6    -0.413164974068E+03   -0.14746E-03   -0.28927E-03  5657   0.533E-02    0.251E-02
RMM:   7    -0.413164994765E+03   -0.20698E-04   -0.39809E-04  6021   0.165E-02    0.167E-02
RMM:   8    -0.413164994058E+03    0.70778E-06   -0.61385E-05  5253   0.789E-03    0.786E-03
RMM:   9    -0.413164990730E+03    0.33272E-05   -0.11151E-05  3529   0.368E-03    0.390E-03
RMM:  10    -0.413164990609E+03    0.12144E-06   -0.25621E-06  2617   0.217E-03
    7 T=    61. E= -.41286657E+03 F= -.41316499E+03 E0= -.41314254E+03  EK= 0.29842E+00 SP= 0.00E+00 SK= 0.00E+00
       N       E                     dE             d eps       ncg     rms          rms(c)
RMM:   1    -0.413162814993E+03    0.21757E-02   -0.10642E+01  4266   0.737E-01    0.882E-01
RMM:   2    -0.413167673266E+03   -0.48583E-02   -0.13321E-01  4161   0.957E-02    0.640E-01
RMM:   3    -0.413167210410E+03    0.46286E-03   -0.91196E-03  5099   0.543E-02    0.217E-01
RMM:   4    -0.413209794275E+03   -0.42584E-01   -0.50639E-02  5146   0.188E-01    0.866E-01
RMM:   5    -0.413165346324E+03    0.44448E-01   -0.20363E-02  4797   0.145E-01    0.531E-02
RMM:   6    -0.413165538413E+03   -0.19209E-03   -0.32887E-03  5720   0.567E-02    0.244E-02
RMM:   7    -0.413165564949E+03   -0.26536E-04   -0.43952E-04  6023   0.175E-02    0.175E-02
RMM:   8    -0.413165569744E+03   -0.47956E-05   -0.69220E-05  5248   0.813E-03    0.878E-03
RMM:   9    -0.413165570491E+03   -0.74642E-06   -0.12911E-05  3713   0.393E-03    0.444E-03
RMM:  10    -0.413165574047E+03   -0.35563E-05   -0.28246E-06  2628   0.221E-03    0.302E-03
RMM:  11    -0.413165577631E+03   -0.35842E-05   -0.11948E-06  2524   0.166E-03    0.151E-03
RMM:  12    -0.413165580894E+03   -0.32624E-05   -0.94597E-07  2485   0.142E-03    0.373E-04
RMM:  13    -0.413165582163E+03   -0.12686E-05   -0.43669E-07  2065   0.102E-03    0.293E-04
RMM:  14    -0.413165582561E+03   -0.39812E-06   -0.22177E-07  1548   0.789E-04
    8 T=    61. E= -.41286683E+03 F= -.41316558E+03 E0= -.41314315E+03  EK= 0.29875E+00 SP= 0.00E+00 SK= 0.00E+00
       N       E                     dE             d eps       ncg     rms          rms(c)
RMM:   1    -0.413158606827E+03    0.69753E-02   -0.10653E+01  4283   0.712E-01    0.899E-01
RMM:   2    -0.413167726425E+03   -0.91196E-02   -0.12919E-01  4162   0.976E-02    0.641E-01
RMM:   3    -0.413166143026E+03    0.15834E-02   -0.83559E-03  4901   0.412E-02    0.151E-01
RMM:   4    -0.413197566945E+03   -0.31424E-01   -0.32433E-02  5147   0.150E-01    0.739E-01
RMM:   5    -0.413165569341E+03    0.31998E-01   -0.15529E-02  4809   0.123E-01    0.432E-02
RMM:   6    -0.413165766185E+03   -0.19684E-03   -0.25746E-03  5765   0.489E-02    0.257E-02
RMM:   7    -0.413165775581E+03   -0.93965E-05   -0.35167E-04  5859   0.161E-02    0.171E-02
RMM:   8    -0.413165774632E+03    0.94901E-06   -0.52722E-05  5018   0.727E-03    0.832E-03
RMM:   9    -0.413165773213E+03    0.14185E-05   -0.11438E-05  3689   0.374E-03    0.586E-03
RMM:  10    -0.413165773985E+03   -0.77107E-06   -0.17381E-06  2564   0.198E-03
    9 T=    61. E= -.41286678E+03 F= -.41316577E+03 E0= -.41314337E+03  EK= 0.29900E+00 SP= 0.00E+00 SK= 0.00E+00
       N       E                     dE             d eps       ncg     rms          rms(c)
RMM:   1    -0.413158937060E+03    0.68362E-02   -0.10632E+01  4296   0.714E-01    0.907E-01
RMM:   2    -0.413167380900E+03   -0.84438E-02   -0.12761E-01  4258   0.955E-02    0.633E-01
RMM:   3    -0.413168418627E+03   -0.10377E-02   -0.10287E-02  5090   0.624E-02    0.257E-01
RMM:   4    -0.413200146567E+03   -0.31728E-01   -0.43355E-02  5117   0.175E-01    0.768E-01
RMM:   5    -0.413165701626E+03    0.34445E-01   -0.15041E-02  4759   0.127E-01    0.539E-02
RMM:   6    -0.413165822864E+03   -0.12124E-03   -0.25344E-03  5634   0.499E-02    0.250E-02
RMM:   7    -0.413165837410E+03   -0.14545E-04   -0.35844E-04  6003   0.160E-02    0.164E-02
RMM:   8    -0.413165834709E+03    0.27005E-05   -0.58618E-05  5226   0.789E-03    0.761E-03
RMM:   9    -0.413165829837E+03    0.48716E-05   -0.10060E-05  3430   0.361E-03    0.359E-03
RMM:  10    -0.413165828637E+03    0.12005E-05   -0.22774E-06  2584   0.213E-03    0.249E-03
RMM:  11    -0.413165826862E+03    0.17745E-05   -0.11549E-06  2520   0.167E-03    0.129E-03
RMM:  12    -0.413165825038E+03    0.18250E-05   -0.69284E-07  2434   0.130E-03    0.395E-04
RMM:  13    -0.413165824233E+03    0.80494E-06   -0.33512E-07  1913   0.927E-04
   10 T=    61. E= -.41286663E+03 F= -.41316582E+03 E0= -.41314344E+03  EK= 0.29919E+00 SP= 0.00E+00 SK= 0.00E+00
       N       E                     dE             d eps       ncg     rms          rms(c)
RMM:   1    -0.413159102517E+03    0.67225E-02   -0.10581E+01  4287   0.716E-01    0.883E-01
RMM:   2    -0.413168543102E+03   -0.94406E-02   -0.12908E-01  4218   0.957E-02    0.637E-01
RMM:   3    -0.413166932969E+03    0.16101E-02   -0.81175E-03  4883   0.422E-02    0.149E-01
RMM:   4    -0.413198048033E+03   -0.31115E-01   -0.32136E-02  5144   0.149E-01    0.735E-01
RMM:   5    -0.413166337386E+03    0.31711E-01   -0.15423E-02  4804   0.123E-01    0.425E-02
RMM:   6    -0.413166534092E+03   -0.19671E-03   -0.25556E-03  5772   0.485E-02    0.253E-02
RMM:   7    -0.413166543584E+03   -0.94913E-05   -0.34381E-04  5830   0.160E-02    0.169E-02
RMM:   8    -0.413166543064E+03    0.51939E-06   -0.54556E-05  5010   0.737E-03    0.847E-03
RMM:   9    -0.413166541933E+03    0.11314E-05   -0.11868E-05  3761   0.384E-03    0.597E-03
RMM:  10    -0.413166543305E+03   -0.13720E-05   -0.18219E-06  2571   0.201E-03    0.391E-03
RMM:  11    -0.413166545325E+03   -0.20198E-05   -0.18045E-06  2573   0.203E-03    0.169E-03
RMM:  12    -0.413166546643E+03   -0.13182E-05   -0.11245E-06  2494   0.162E-03    0.662E-04
RMM:  13    -0.413166546729E+03   -0.86253E-07   -0.34283E-07  2104   0.100E-03
   11 T=    61. E= -.41286693E+03 F= -.41316655E+03 E0= -.41314419E+03  EK= 0.29961E+00 SP= 0.00E+00 SK= 0.00E+00
       N       E                     dE             d eps       ncg     rms          rms(c)
RMM:   1    -0.413159333087E+03    0.72136E-02   -0.10659E+01  4293   0.728E-01    0.894E-01
RMM:   2    -0.413168541080E+03   -0.92080E-02   -0.13038E-01  4238   0.969E-02    0.644E-01
RMM:   3    -0.413166750968E+03    0.17901E-02   -0.82782E-03  4825   0.407E-02    0.144E-01
RMM:   4    -0.413194205022E+03   -0.27454E-01   -0.28170E-02  5148   0.139E-01    0.691E-01
RMM:   5    -0.413166296355E+03    0.27909E-01   -0.13614E-02  4804   0.115E-01    0.404E-02
RMM:   6    -0.413166477066E+03   -0.18071E-03   -0.22797E-03  5809   0.455E-02    0.246E-02
RMM:   7    -0.413166486269E+03   -0.92034E-05   -0.30310E-04  5811   0.154E-02    0.162E-02
RMM:   8    -0.413166485670E+03    0.59948E-06   -0.52308E-05  4968   0.728E-03    0.830E-03
RMM:   9    -0.413166484337E+03    0.13329E-05   -0.11073E-05  3727   0.379E-03    0.602E-03
RMM:  10    -0.413166485465E+03   -0.11281E-05   -0.16652E-06  2566   0.197E-03    0.395E-03
RMM:  11    -0.413166487120E+03   -0.16551E-05   -0.18280E-06  2573   0.205E-03    0.174E-03
RMM:  12    -0.413166488069E+03   -0.94861E-06   -0.10720E-06  2487   0.160E-03
   12 T=    61. E= -.41286665E+03 F= -.41316649E+03 E0= -.41314416E+03  EK= 0.29984E+00 SP= 0.00E+00 SK= 0.00E+00
       N       E                     dE             d eps       ncg     rms          rms(c)
RMM:   1    -0.413160286085E+03    0.62010E-02   -0.10663E+01  4294   0.726E-01    0.912E-01
RMM:   2    -0.413168592568E+03   -0.83065E-02   -0.12781E-01  4234   0.925E-02    0.636E-01
RMM:   3    -0.413167348457E+03    0.12441E-02   -0.84364E-03  4879   0.368E-02    0.150E-01
RMM:   4    -0.413192849105E+03   -0.25501E-01   -0.26126E-02  5145   0.134E-01    0.667E-01
RMM:   5    -0.413166931660E+03    0.25917E-01   -0.12685E-02  4801   0.111E-01    0.409E-02
RMM:   6    -0.413167094330E+03   -0.16267E-03   -0.21554E-03  5807   0.439E-02    0.251E-02
RMM:   7    -0.413167095810E+03   -0.14797E-05   -0.28065E-04  5825   0.151E-02    0.159E-02
RMM:   8    -0.413167089680E+03    0.61307E-05   -0.54438E-05  4977   0.739E-03    0.861E-03
RMM:   9    -0.413167084322E+03    0.53573E-05   -0.11080E-05  3804   0.383E-03    0.638E-03
RMM:  10    -0.413167081679E+03    0.26430E-05   -0.15713E-06  2555   0.199E-03    0.413E-03
RMM:  11    -0.413167077974E+03    0.37057E-05   -0.17475E-06  2563   0.204E-03    0.191E-03
RMM:  12    -0.413167074251E+03    0.37230E-05   -0.10963E-06  2485   0.164E-03    0.653E-04
RMM:  13    -0.413167073750E+03    0.50038E-06   -0.35598E-07  2109   0.101E-03
   13 T=    61. E= -.41286675E+03 F= -.41316707E+03 E0= -.41314477E+03  EK= 0.30033E+00 SP= 0.00E+00 SK= 0.00E+00
       N       E                     dE             d eps       ncg     rms          rms(c)
RMM:   1    -0.413160456920E+03    0.66173E-02   -0.10585E+01  4298   0.726E-01    0.887E-01
RMM:   2    -0.413169643217E+03   -0.91863E-02   -0.12893E-01  4231   0.950E-02    0.635E-01
RMM:   3    -0.413168021147E+03    0.16221E-02   -0.80958E-03  4826   0.389E-02    0.145E-01
RMM:   4    -0.413193856699E+03   -0.25836E-01   -0.26501E-02  5145   0.135E-01    0.671E-01
RMM:   5    -0.413167600826E+03    0.26256E-01   -0.12848E-02  4808   0.112E-01    0.399E-02
RMM:   6    -0.413167766039E+03   -0.16521E-03   -0.21627E-03  5809   0.439E-02    0.245E-02
RMM:   7    -0.413167771765E+03   -0.57254E-05   -0.28460E-04  5810   0.151E-02    0.159E-02
RMM:   8    -0.413167768111E+03    0.36536E-05   -0.52109E-05  4959   0.728E-03    0.823E-03
RMM:   9    -0.413167765149E+03    0.29620E-05   -0.10927E-05  3745   0.379E-03    0.608E-03
RMM:  10    -0.413167764781E+03    0.36746E-06   -0.15439E-06  2550   0.195E-03
   14 T=    61. E= -.41286688E+03 F= -.41316776E+03 E0= -.41314550E+03  EK= 0.30088E+00 SP= 0.00E+00 SK= 0.00E+00
       N       E                     dE             d eps       ncg     rms          rms(c)
RMM:   1    -0.413160579638E+03    0.71855E-02   -0.10672E+01  4301   0.737E-01    0.891E-01
RMM:   2    -0.413170074502E+03   -0.94949E-02   -0.13110E-01  4283   0.980E-02    0.646E-01
RMM:   3    -0.413170173312E+03   -0.98810E-04   -0.10007E-02  5093   0.598E-02    0.243E-01
RMM:   4    -0.413208523589E+03   -0.38350E-01   -0.49685E-02  5119   0.186E-01    0.832E-01
RMM:   5    -0.413167601642E+03    0.40922E-01   -0.18262E-02  4767   0.138E-01    0.541E-02
RMM:   6    -0.413167751827E+03   -0.15018E-03   -0.29509E-03  5664   0.537E-02    0.239E-02
RMM:   7    -0.413167773204E+03   -0.21377E-04   -0.39971E-04  6006   0.167E-02    0.165E-02
RMM:   8    -0.413167775465E+03   -0.22619E-05   -0.63048E-05  5244   0.797E-03    0.795E-03
RMM:   9    -0.413167773972E+03    0.14937E-05   -0.11966E-05  3580   0.378E-03    0.373E-03
RMM:  10    -0.413167775356E+03   -0.13840E-05   -0.26727E-06  2617   0.217E-03    0.261E-03
RMM:  11    -0.413167776556E+03   -0.12004E-05   -0.11407E-06  2511   0.164E-03    0.133E-03
RMM:  12    -0.413167777265E+03   -0.70886E-06   -0.74923E-07  2427   0.130E-03
   15 T=    61. E= -.41286655E+03 F= -.41316778E+03 E0= -.41314554E+03  EK= 0.30122E+00 SP= 0.00E+00 SK= 0.00E+00
       N       E                     dE             d eps       ncg     rms          rms(c)
RMM:   1    -0.413162050604E+03    0.57260E-02   -0.10695E+01  4294   0.737E-01    0.913E-01
RMM:   2    -0.413170485938E+03   -0.84353E-02   -0.12861E-01  4256   0.975E-02    0.639E-01
RMM:   3    -0.413169240321E+03    0.12456E-02   -0.86803E-03  4932   0.423E-02    0.161E-01
RMM:   4    -0.413204078555E+03   -0.34838E-01   -0.36346E-02  5143   0.158E-01    0.777E-01
RMM:   5    -0.413168576393E+03    0.35502E-01   -0.17222E-02  4797   0.130E-01    0.457E-02
RMM:   6    -0.413168784814E+03   -0.20842E-03   -0.28891E-03  5781   0.515E-02    0.274E-02
RMM:   7    -0.413168788453E+03   -0.36396E-05   -0.38018E-04  5852   0.171E-02    0.182E-02
RMM:   8    -0.413168781676E+03    0.67768E-05   -0.62744E-05  5061   0.793E-03    0.947E-03
RMM:   9    -0.413168775082E+03    0.65945E-05   -0.13230E-05  3902   0.407E-03    0.655E-03
RMM:  10    -0.413168771386E+03    0.36956E-05   -0.20612E-06  2589   0.212E-03    0.422E-03
RMM:  11    -0.413168767047E+03    0.43398E-05   -0.17010E-06  2550   0.202E-03    0.194E-03
RMM:  12    -0.413168762315E+03    0.47320E-05   -0.12621E-06  2512   0.175E-03    0.695E-04
RMM:  13    -0.413168761594E+03    0.72064E-06   -0.39539E-07  2213   0.110E-03
   16 T=    61. E= -.41286685E+03 F= -.41316876E+03 E0= -.41314656E+03  EK= 0.30191E+00 SP= 0.00E+00 SK= 0.00E+00
       N       E                     dE             d eps       ncg     rms          rms(c)
RMM:   1    -0.413162046606E+03    0.67157E-02   -0.10612E+01  4297   0.738E-01    0.893E-01
RMM:   2    -0.413171151797E+03   -0.91052E-02   -0.12904E-01  4262   0.970E-02    0.635E-01
RMM:   3    -0.413169550423E+03    0.16014E-02   -0.82261E-03  4889   0.410E-02    0.153E-01
RMM:   4    -0.413200275306E+03   -0.30725E-01   -0.31739E-02  5144   0.148E-01    0.730E-01
RMM:   5    -0.413169042749E+03    0.31233E-01   -0.15249E-02  4798   0.122E-01    0.428E-02
RMM:   6    -0.413169232884E+03   -0.19014E-03   -0.25842E-03  5797   0.484E-02    0.259E-02
RMM:   7    -0.413169237926E+03   -0.50412E-05   -0.33437E-04  5817   0.161E-02    0.170E-02
RMM:   8    -0.413169232830E+03    0.50960E-05   -0.59202E-05  5020   0.765E-03    0.903E-03
RMM:   9    -0.413169227642E+03    0.51879E-05   -0.12734E-05  3912   0.401E-03    0.645E-03
RMM:  10    -0.413169225328E+03    0.23138E-05   -0.18180E-06  2564   0.206E-03    0.420E-03
RMM:  11    -0.413169222240E+03    0.30880E-05   -0.18477E-06  2560   0.208E-03    0.191E-03
RMM:  12    -0.413169219074E+03    0.31656E-05   -0.11442E-06  2494   0.169E-03    0.652E-04
RMM:  13    -0.413169218633E+03    0.44138E-06   -0.36506E-07  2156   0.104E-03
   17 T=    62. E= -.41286676E+03 F= -.41316922E+03 E0= -.41314706E+03  EK= 0.30246E+00 SP= 0.00E+00 SK= 0.00E+00
       N       E                     dE             d eps       ncg     rms          rms(c)
RMM:   1    -0.413162396431E+03    0.68226E-02   -0.10685E+01  4297   0.751E-01    0.889E-01
RMM:   2    -0.413172074590E+03   -0.96782E-02   -0.13163E-01  4267   0.990E-02    0.647E-01
RMM:   3    -0.413170159547E+03    0.19150E-02   -0.83703E-03  4885   0.422E-02    0.147E-01
RMM:   4    -0.413201718314E+03   -0.31559E-01   -0.32795E-02  5142   0.150E-01    0.740E-01
RMM:   5    -0.413169555875E+03    0.32162E-01   -0.15682E-02  4791   0.124E-01    0.427E-02
RMM:   6    -0.413169750233E+03   -0.19436E-03   -0.26355E-03  5789   0.490E-02    0.253E-02
RMM:   7    -0.413169759570E+03   -0.93364E-05   -0.33631E-04  5824   0.161E-02    0.168E-02
RMM:   8    -0.413169757673E+03    0.18965E-05   -0.59580E-05  5035   0.767E-03    0.891E-03
RMM:   9    -0.413169754714E+03    0.29593E-05   -0.12849E-05  3915   0.405E-03    0.621E-03
RMM:  10    -0.413169754938E+03   -0.22386E-06   -0.19413E-06  2576   0.206E-03
   18 T=    62. E= -.41286671E+03 F= -.41316975E+03 E0= -.41314764E+03  EK= 0.30304E+00 SP= 0.00E+00 SK= 0.00E+00
       N       E                     dE             d eps       ncg     rms          rms(c)
RMM:   1    -0.413164098528E+03    0.56562E-02   -0.10723E+01  4304   0.749E-01    0.912E-01
RMM:   2    -0.413172716457E+03   -0.86179E-02   -0.12991E-01  4306   0.968E-02    0.643E-01
RMM:   3    -0.413174167442E+03   -0.14510E-02   -0.10898E-02  5103   0.664E-02    0.276E-01
RMM:   4    -0.413204321150E+03   -0.30154E-01   -0.44179E-02  5098   0.177E-01    0.756E-01
RMM:   5    -0.413170844601E+03    0.33477E-01   -0.14369E-02  4731   0.125E-01    0.536E-02
RMM:   6    -0.413170948232E+03   -0.10363E-03   -0.24568E-03  5619   0.490E-02    0.253E-02
RMM:   7    -0.413170957919E+03   -0.96867E-05   -0.34477E-04  5995   0.159E-02    0.165E-02
RMM:   8    -0.413170952603E+03    0.53158E-05   -0.58008E-05  5197   0.789E-03    0.762E-03
RMM:   9    -0.413170945440E+03    0.71632E-05   -0.10241E-05  3443   0.366E-03    0.352E-03
RMM:  10    -0.413170942847E+03    0.25930E-05   -0.22203E-06  2574   0.212E-03    0.243E-03
RMM:  11    -0.413170938906E+03    0.39409E-05   -0.11080E-06  2513   0.166E-03    0.129E-03
RMM:  12    -0.413170935369E+03    0.35370E-05   -0.61746E-07  2411   0.128E-03    0.406E-04
RMM:  13    -0.413170933639E+03    0.17298E-05   -0.29906E-07  1884   0.910E-04    0.243E-04
RMM:  14    -0.413170932057E+03    0.15819E-05   -0.18237E-07  1455   0.760E-04    0.165E-04
RMM:  15    -0.413170929268E+03    0.27886E-05   -0.17544E-07  1407   0.740E-04    0.873E-05
RMM:  16    -0.413170927458E+03    0.18107E-05   -0.11862E-07  1342   0.676E-04    0.837E-05
RMM:  17    -0.413170924834E+03    0.26237E-05   -0.11595E-07  1374   0.659E-04    0.439E-05
RMM:  18    -0.413170923357E+03    0.14772E-05   -0.65587E-08  1037   0.574E-04    0.285E-05
RMM:  19    -0.413170922989E+03    0.36825E-06   -0.29467E-08   803   0.529E-04
   19 T=    62. E= -.41286703E+03 F= -.41317092E+03 E0= -.41314885E+03  EK= 0.30389E+00 SP= 0.00E+00 SK= 0.00E+00
       N       E                     dE             d eps       ncg     rms          rms(c)
RMM:   1    -0.413164347960E+03    0.65754E-02   -0.10663E+01  4297   0.750E-01    0.902E-01
RMM:   2    -0.413173046321E+03   -0.86984E-02   -0.12914E-01  4260   0.982E-02    0.636E-01
RMM:   3    -0.413171856752E+03    0.11896E-02   -0.85536E-03  4950   0.437E-02    0.167E-01
RMM:   4    -0.413209927680E+03   -0.38071E-01   -0.40345E-02  5141   0.167E-01    0.811E-01
RMM:   5    -0.413171069069E+03    0.38859E-01   -0.18853E-02  4792   0.136E-01    0.476E-02
RMM:   6    -0.413171285337E+03   -0.21627E-03   -0.31681E-03  5750   0.542E-02    0.279E-02
RMM:   7    -0.413171290344E+03   -0.50071E-05   -0.42032E-04  5840   0.176E-02    0.188E-02
RMM:   8    -0.413171282983E+03    0.73612E-05   -0.66337E-05  5128   0.811E-03    0.961E-03
RMM:   9    -0.413171275927E+03    0.70563E-05   -0.14427E-05  4013   0.418E-03    0.643E-03
RMM:  10    -0.413171272208E+03    0.37187E-05   -0.22211E-06  2595   0.215E-03    0.419E-03
RMM:  11    -0.413171268308E+03    0.39000E-05   -0.14933E-06  2522   0.192E-03    0.200E-03
RMM:  12    -0.413171263897E+03    0.44103E-05   -0.12066E-06  2511   0.173E-03    0.639E-04
RMM:  13    -0.413171262992E+03    0.90574E-06   -0.40221E-07  2239   0.112E-03
   20 T=    62. E= -.41286670E+03 F= -.41317126E+03 E0= -.41314923E+03  EK= 0.30456E+00 SP= 0.00E+00 SK= 0.00E+00
       N       E                     dE             d eps       ncg     rms          rms(c)
RMM:   1    -0.413166455233E+03    0.48087E-02   -0.10716E+01  4299   0.791E-01    0.889E-01
RMM:   2    -0.413174692960E+03   -0.82377E-02   -0.13351E-01  4277   0.101E-01    0.647E-01
RMM:   3    -0.413172745807E+03    0.19472E-02   -0.84339E-03  4899   0.425E-02    0.150E-01
RMM:   4    -0.413205568563E+03   -0.32823E-01   -0.34151E-02  5141   0.153E-01    0.754E-01
RMM:   5    -0.413172149247E+03    0.33419E-01   -0.16415E-02  4803   0.126E-01    0.431E-02
RMM:   6    -0.413172342305E+03   -0.19306E-03   -0.26920E-03  5793   0.500E-02    0.256E-02
RMM:   7    -0.413172353219E+03   -0.10914E-04   -0.34880E-04  5838   0.165E-02    0.169E-02
RMM:   8    -0.413172350780E+03    0.24388E-05   -0.63239E-05  5059   0.787E-03    0.926E-03
RMM:   9    -0.413172346582E+03    0.41985E-05   -0.13602E-05  3989   0.415E-03    0.640E-03
RMM:  10    -0.413172345817E+03    0.76526E-06   -0.20352E-06  2581   0.210E-03
   21 T=    62. E= -.41286686E+03 F= -.41317235E+03 E0= -.41315036E+03  EK= 0.30548E+00 SP= 0.00E+00 SK= 0.00E+00
       N       E                     dE             d eps       ncg     rms          rms(c)
RMM:   1    -0.413166553384E+03    0.57932E-02   -0.10764E+01  4301   0.761E-01    0.910E-01
RMM:   2    -0.413175482739E+03   -0.89294E-02   -0.13138E-01  4303   0.980E-02    0.647E-01
RMM:   3    -0.413176776133E+03   -0.12934E-02   -0.11040E-02  5096   0.669E-02    0.279E-01
RMM:   4    -0.413207848412E+03   -0.31072E-01   -0.45632E-02  5102   0.179E-01    0.766E-01
RMM:   5    -0.413173337158E+03    0.34511E-01   -0.14828E-02  4736   0.127E-01    0.536E-02
RMM:   6    -0.413173440334E+03   -0.10318E-03   -0.25136E-03  5633   0.498E-02    0.252E-02
RMM:   7    -0.413173450764E+03   -0.10430E-04   -0.35368E-04  5995   0.162E-02    0.168E-02
RMM:   8    -0.413173445983E+03    0.47806E-05   -0.60296E-05  5205   0.803E-03    0.781E-03
RMM:   9    -0.413173438757E+03    0.72259E-05   -0.10719E-05  3499   0.374E-03    0.358E-03
RMM:  10    -0.413173436166E+03    0.25911E-05   -0.22747E-06  2586   0.213E-03    0.246E-03
RMM:  11    -0.413173432217E+03    0.39492E-05   -0.11104E-06  2511   0.167E-03    0.129E-03
RMM:  12    -0.413173428559E+03    0.36576E-05   -0.61675E-07  2413   0.128E-03    0.384E-04
RMM:  13    -0.413173426732E+03    0.18274E-05   -0.29673E-07  1879   0.911E-04    0.230E-04
RMM:  14    -0.413173424866E+03    0.18655E-05   -0.18484E-07  1461   0.765E-04    0.145E-04
RMM:  15    -0.413173422141E+03    0.27250E-05   -0.15960E-07  1422   0.735E-04    0.878E-05
RMM:  16    -0.413173420356E+03    0.17852E-05   -0.11102E-07  1318   0.667E-04    0.823E-05
RMM:  17    -0.413173417533E+03    0.28235E-05   -0.10891E-07  1376   0.658E-04    0.438E-05
RMM:  18    -0.413173416225E+03    0.13072E-05   -0.54710E-08   959   0.565E-04    0.279E-05
RMM:  19    -0.413173415635E+03    0.59065E-06   -0.30567E-08   830   0.538E-04
   22 T=    62. E= -.41286694E+03 F= -.41317342E+03 E0= -.41315147E+03  EK= 0.30647E+00 SP= 0.00E+00 SK= 0.00E+00
       N       E                     dE             d eps       ncg     rms          rms(c)
RMM:   1    -0.413167440710E+03    0.59755E-02   -0.10741E+01  4295   0.770E-01    0.912E-01
RMM:   2    -0.413176062528E+03   -0.86218E-02   -0.13026E-01  4274   0.103E-01    0.640E-01
RMM:   3    -0.413174636391E+03    0.14261E-02   -0.87476E-03  4882   0.456E-02    0.162E-01
RMM:   4    -0.413209485806E+03   -0.34849E-01   -0.36397E-02  5143   0.158E-01    0.776E-01
RMM:   5    -0.413173990190E+03    0.35496E-01   -0.17412E-02  4795   0.130E-01    0.459E-02
RMM:   6    -0.413174187375E+03   -0.19719E-03   -0.29264E-03  5785   0.517E-02    0.280E-02
RMM:   7    -0.413174190283E+03   -0.29077E-05   -0.37651E-04  5786   0.173E-02    0.181E-02
RMM:   8    -0.413174182205E+03    0.80775E-05   -0.67493E-05  5113   0.819E-03    0.986E-03
RMM:   9    -0.413174173871E+03    0.83339E-05   -0.14292E-05  4064   0.425E-03    0.681E-03
RMM:  10    -0.413174168971E+03    0.49005E-05   -0.21074E-06  2590   0.215E-03    0.442E-03
RMM:  11    -0.413174163441E+03    0.55298E-05   -0.16484E-06  2528   0.202E-03    0.209E-03
RMM:  12    -0.413174157363E+03    0.60775E-05   -0.12053E-06  2496   0.178E-03    0.672E-04
RMM:  13    -0.413174156198E+03    0.11655E-05   -0.41385E-07  2237   0.113E-03    0.478E-04
RMM:  14    -0.413174155820E+03    0.37760E-06   -0.19588E-07  1734   0.799E-04
   23 T=    63. E= -.41286669E+03 F= -.41317416E+03 E0= -.41315226E+03  EK= 0.30746E+00 SP= 0.00E+00 SK= 0.00E+00
       N       E                     dE             d eps       ncg     rms          rms(c)
RMM:   1    -0.413168553612E+03    0.56026E-02   -0.10741E+01  4294   0.780E-01    0.892E-01
RMM:   2    -0.413178154758E+03   -0.96011E-02   -0.13297E-01  4276   0.103E-01    0.647E-01
RMM:   3    -0.413175893275E+03    0.22615E-02   -0.83884E-03  4749   0.435E-02    0.143E-01
RMM:   4    -0.413200678132E+03   -0.24785E-01   -0.25307E-02  5141   0.133E-01    0.656E-01
RMM:   5    -0.413175568690E+03    0.25109E-01   -0.12429E-02  4807   0.109E-01    0.397E-02
RMM:   6    -0.413175705545E+03   -0.13686E-03   -0.20433E-03  5805   0.428E-02    0.245E-02
RMM:   7    -0.413175709140E+03   -0.35946E-05   -0.26632E-04  5772   0.150E-02    0.152E-02
RMM:   8    -0.413175704929E+03    0.42106E-05   -0.54847E-05  4968   0.747E-03    0.840E-03
RMM:   9    -0.413175700012E+03    0.49175E-05   -0.11235E-05  3833   0.390E-03    0.605E-03
RMM:  10    -0.413175698341E+03    0.16705E-05   -0.15102E-06  2543   0.197E-03    0.397E-03
RMM:  11    -0.413175695645E+03    0.26966E-05   -0.17819E-06  2551   0.210E-03    0.175E-03
RMM:  12    -0.413175693259E+03    0.23858E-05   -0.91768E-07  2458   0.156E-03    0.657E-04
RMM:  13    -0.413175692922E+03    0.33698E-06   -0.30974E-07  2064   0.961E-04
   24 T=    63. E= -.41286694E+03 F= -.41317569E+03 E0= -.41315385E+03  EK= 0.30875E+00 SP= 0.00E+00 SK= 0.00E+00
       N       E                     dE             d eps       ncg     rms          rms(c)
RMM:   1    -0.413169634679E+03    0.60586E-02   -0.10826E+01  4296   0.786E-01    0.907E-01
RMM:   2    -0.413178979417E+03   -0.93447E-02   -0.13318E-01  4275   0.106E-01    0.652E-01
RMM:   3    -0.413176844008E+03    0.21354E-02   -0.85687E-03  4686   0.439E-02    0.141E-01
RMM:   4    -0.413197234990E+03   -0.20391E-01   -0.20826E-02  5146   0.120E-01    0.598E-01
RMM:   5    -0.413176529520E+03    0.20705E-01   -0.10252E-02  4813   0.990E-02    0.380E-02
RMM:   6    -0.413176633090E+03   -0.10357E-03   -0.16966E-03  5816   0.384E-02    0.227E-02
RMM:   7    -0.413176633345E+03   -0.25565E-06   -0.18253E-04  5620   0.127E-02    0.106E-02
RMM:   8    -0.413176627622E+03    0.57234E-05   -0.29708E-05  4625   0.549E-03    0.678E-03
RMM:   9    -0.413176624402E+03    0.32199E-05   -0.35104E-06  2709   0.222E-03    0.448E-03
RMM:  10    -0.413176621896E+03    0.25055E-05   -0.12534E-06  2506   0.170E-03    0.275E-03
RMM:  11    -0.413176617529E+03    0.43679E-05   -0.14638E-06  2526   0.190E-03    0.139E-03
RMM:  12    -0.413176615705E+03    0.18238E-05   -0.58150E-07  2341   0.132E-03    0.646E-04
RMM:  13    -0.413176615091E+03    0.61370E-06   -0.23820E-07  1813   0.859E-04
   25 T=    63. E= -.41286677E+03 F= -.41317662E+03 E0= -.41315482E+03  EK= 0.30985E+00 SP= 0.00E+00 SK= 0.00E+00
       N       E                     dE             d eps       ncg     rms          rms(c)
RMM:   1    -0.413171638068E+03    0.49776E-02   -0.10844E+01  4297   0.796E-01    0.921E-01
RMM:   2    -0.413179700097E+03   -0.80620E-02   -0.13264E-01  4276   0.105E-01    0.645E-01
RMM:   3    -0.413178063657E+03    0.16364E-02   -0.87516E-03  4663   0.445E-02    0.149E-01
RMM:   4    -0.413197310799E+03   -0.19247E-01   -0.19519E-02  5150   0.117E-01    0.580E-01
RMM:   5    -0.413177852461E+03    0.19458E-01   -0.96976E-03  4816   0.960E-02    0.386E-02
RMM:   6    -0.413177939448E+03   -0.86987E-04   -0.15560E-03  5826   0.373E-02    0.232E-02
RMM:   7    -0.413177932223E+03    0.72252E-05   -0.17337E-04  5617   0.128E-02    0.108E-02
RMM:   8    -0.413177925184E+03    0.70389E-05   -0.32180E-05  4746   0.578E-03    0.730E-03
RMM:   9    -0.413177919638E+03    0.55460E-05   -0.74636E-06  3354   0.312E-03    0.570E-03
RMM:  10    -0.413177915891E+03    0.37468E-05   -0.13385E-06  2539   0.194E-03    0.376E-03
RMM:  11    -0.413177907796E+03    0.80946E-05   -0.17256E-06  2557   0.206E-03    0.173E-03
RMM:  12    -0.413177900354E+03    0.74428E-05   -0.89239E-07  2452   0.157E-03    0.839E-04
RMM:  13    -0.413177899768E+03    0.58562E-06   -0.26518E-07  2066   0.942E-04
   26 T=    63. E= -.41286671E+03 F= -.41317790E+03 E0= -.41315615E+03  EK= 0.31119E+00 SP= 0.00E+00 SK= 0.00E+00
       N       E                     dE             d eps       ncg     rms          rms(c)
RMM:   1    -0.413172558688E+03    0.53417E-02   -0.10800E+01  4292   0.791E-01    0.898E-01
RMM:   2    -0.413181848873E+03   -0.92902E-02   -0.13338E-01  4276   0.104E-01    0.648E-01
RMM:   3    -0.413179882243E+03    0.19666E-02   -0.85235E-03  4505   0.434E-02    0.136E-01
RMM:   4    -0.413190422662E+03   -0.10540E-01   -0.10952E-02  5154   0.876E-02    0.433E-01
RMM:   5    -0.413179743853E+03    0.10679E-01   -0.54225E-03  4836   0.711E-02    0.334E-02
RMM:   6    -0.413179776722E+03   -0.32869E-04   -0.86233E-04  5845   0.274E-02    0.194E-02
RMM:   7    -0.413179778586E+03   -0.18640E-05   -0.14308E-04  5562   0.117E-02    0.120E-02
RMM:   8    -0.413179766910E+03    0.11676E-04   -0.27344E-05  4610   0.577E-03    0.586E-03
RMM:   9    -0.413179765001E+03    0.19093E-05   -0.52820E-06  3030   0.290E-03    0.470E-03
RMM:  10    -0.413179761992E+03    0.30084E-05   -0.96136E-07  2495   0.177E-03    0.282E-03
RMM:  11    -0.413179757996E+03    0.39962E-05   -0.76540E-07  2472   0.148E-03    0.140E-03
RMM:  12    -0.413179753739E+03    0.42570E-05   -0.54884E-07  2302   0.119E-03    0.541E-04
RMM:  13    -0.413179752659E+03    0.10802E-05   -0.20005E-07  1719   0.802E-04    0.287E-04
RMM:  14    -0.413179751551E+03    0.11078E-05   -0.10398E-07  1216   0.661E-04    0.204E-04
RMM:  15    -0.413179747457E+03    0.40936E-05   -0.14374E-07  1477   0.728E-04    0.186E-04
RMM:  16    -0.413179747099E+03    0.35860E-06   -0.45861E-08   886   0.584E-04
   27 T=    64. E= -.41286690E+03 F= -.41317975E+03 E0= -.41315805E+03  EK= 0.31285E+00 SP= 0.00E+00 SK= 0.00E+00
       N       E                     dE             d eps       ncg     rms          rms(c)
RMM:   1    -0.413183290513E+03   -0.35431E-02   -0.11012E+01  4292   0.875E-01    0.905E-01
RMM:   2    -0.413183256149E+03    0.34364E-04   -0.15217E-01  4272   0.114E-01    0.661E-01
RMM:   3    -0.413181053550E+03    0.22026E-02   -0.82396E-03  4530   0.429E-02    0.158E-01
RMM:   4    -0.413193620529E+03   -0.12567E-01   -0.13174E-02  5149   0.975E-02    0.472E-01
RMM:   5    -0.413180880550E+03    0.12740E-01   -0.63827E-03  4819   0.775E-02    0.344E-02
RMM:   6    -0.413180923513E+03   -0.42963E-04   -0.10092E-03  5854   0.298E-02    0.206E-02
RMM:   7    -0.413180926880E+03   -0.33667E-05   -0.15352E-04  5604   0.121E-02    0.117E-02
RMM:   8    -0.413180916842E+03    0.10037E-04   -0.31935E-05  4732   0.606E-03    0.621E-03
RMM:   9    -0.413180915649E+03    0.11928E-05   -0.64697E-06  3237   0.317E-03    0.492E-03
RMM:  10    -0.413180913567E+03    0.20824E-05   -0.93400E-07  2497   0.178E-03    0.301E-03
RMM:  11    -0.413180910916E+03    0.26514E-05   -0.86195E-07  2484   0.153E-03    0.148E-03
RMM:  12    -0.413180908107E+03    0.28087E-05   -0.61490E-07  2331   0.124E-03    0.572E-04
RMM:  13    -0.413180907367E+03    0.73962E-06   -0.21925E-07  1781   0.832E-04
   28 T=    64. E= -.41286658E+03 F= -.41318091E+03 E0= -.41315926E+03  EK= 0.31433E+00 SP= 0.00E+00 SK= 0.00E+00
       N       E                     dE             d eps       ncg     rms          rms(c)
RMM:   1    -0.413181821339E+03   -0.91323E-03   -0.11014E+01  4292   0.845E-01    0.929E-01
RMM:   2    -0.413184759231E+03   -0.29379E-02   -0.13136E-01  4275   0.108E-01    0.652E-01
RMM:   3    -0.413182939207E+03    0.18200E-02   -0.92053E-03  4417   0.441E-02    0.135E-01
RMM:   4    -0.413188368424E+03   -0.54292E-02   -0.59097E-03  5163   0.643E-02    0.311E-01
RMM:   5    -0.413182937312E+03    0.54311E-02   -0.27847E-03  4833   0.512E-02    0.332E-02
RMM:   6    -0.413182943230E+03   -0.59176E-05   -0.52374E-04  5776   0.218E-02    0.211E-02
RMM:   7    -0.413182931399E+03    0.11831E-04   -0.16506E-04  5316   0.128E-02    0.128E-02
RMM:   8    -0.413182919240E+03    0.12159E-04   -0.12694E-05  3911   0.480E-03    0.539E-03
RMM:   9    -0.413182915510E+03    0.37302E-05   -0.26731E-06  2713   0.224E-03    0.365E-03
RMM:  10    -0.413182909366E+03    0.61436E-05   -0.11816E-06  2484   0.178E-03    0.195E-03
RMM:  11    -0.413182903131E+03    0.62351E-05   -0.63779E-07  2417   0.137E-03    0.884E-04
RMM:  12    -0.413182898443E+03    0.46876E-05   -0.32367E-07  2054   0.985E-04    0.400E-04
RMM:  13    -0.413182895667E+03    0.27760E-05   -0.17413E-07  1496   0.759E-04    0.205E-04
RMM:  14    -0.413182891875E+03    0.37919E-05   -0.11803E-07  1328   0.699E-04    0.131E-04
RMM:  15    -0.413182887479E+03    0.43964E-05   -0.10242E-07  1374   0.678E-04    0.841E-05
RMM:  16    -0.413182885551E+03    0.19276E-05   -0.53918E-08  1023   0.585E-04    0.586E-05
RMM:  17    -0.413182881290E+03    0.42619E-05   -0.73657E-08  1231   0.621E-04    0.327E-05
RMM:  18    -0.413182880806E+03    0.48365E-06   -0.25383E-08   782   0.524E-04
   29 T=    64. E= -.41286676E+03 F= -.41318288E+03 E0= -.41316128E+03  EK= 0.31612E+00 SP= 0.00E+00 SK= 0.00E+00
       N       E                     dE             d eps       ncg     rms          rms(c)
RMM:   1    -0.413177799508E+03    0.50818E-02   -0.10906E+01  4288   0.816E-01    0.908E-01
RMM:   2    -0.413187046730E+03   -0.92472E-02   -0.13561E-01  4272   0.111E-01    0.651E-01
RMM:   3    -0.413184897560E+03    0.21492E-02   -0.88165E-03  4455   0.468E-02    0.140E-01
RMM:   4    -0.413193504355E+03   -0.86068E-02   -0.90994E-03  5160   0.806E-02    0.392E-01
RMM:   5    -0.413184802890E+03    0.87015E-02   -0.44282E-03  4835   0.644E-02    0.339E-02
RMM:   6    -0.413184823081E+03   -0.20191E-04   -0.73888E-04  5824   0.257E-02    0.220E-02
RMM:   7    -0.413184819802E+03    0.32781E-05   -0.18355E-04  5429   0.132E-02    0.135E-02
RMM:   8    -0.413184806365E+03    0.13438E-04   -0.20991E-05  4351   0.561E-03    0.562E-03
RMM:   9    -0.413184803979E+03    0.23860E-05   -0.40135E-06  2897   0.258E-03    0.416E-03
RMM:  10    -0.413184800358E+03    0.36212E-05   -0.11102E-06  2486   0.177E-03    0.237E-03
RMM:  11    -0.413184796033E+03    0.43248E-05   -0.75292E-07  2456   0.146E-03    0.114E-03
RMM:  12    -0.413184792415E+03    0.36180E-05   -0.42208E-07  2224   0.110E-03    0.501E-04
RMM:  13    -0.413184791007E+03    0.14078E-05   -0.18462E-07  1621   0.774E-04    0.229E-04
RMM:  14    -0.413184788978E+03    0.20290E-05   -0.11078E-07  1217   0.677E-04    0.137E-04
RMM:  15    -0.413184785860E+03    0.31186E-05   -0.94023E-08  1230   0.666E-04    0.780E-05
RMM:  16    -0.413184784913E+03    0.94672E-06   -0.47842E-08   928   0.596E-04
   30 T=    65. E= -.41286677E+03 F= -.41318478E+03 E0= -.41316324E+03  EK= 0.31801E+00 SP= 0.00E+00 SK= 0.00E+00
       N       E                     dE             d eps       ncg     rms          rms(c)
RMM:   1    -0.413184849424E+03   -0.63564E-04   -0.11084E+01  4291   0.902E-01    0.909E-01
RMM:   2    -0.413189450594E+03   -0.46012E-02   -0.14389E-01  4276   0.122E-01    0.665E-01
RMM:   3    -0.413186492241E+03    0.29584E-02   -0.89550E-03  4413   0.489E-02    0.138E-01
RMM:   4    -0.413193619968E+03   -0.71277E-02   -0.76565E-03  5162   0.743E-02    0.355E-01
RMM:   5    -0.413186488269E+03    0.71317E-02   -0.35987E-03  4828   0.583E-02    0.325E-02
RMM:   6    -0.413186505364E+03   -0.17095E-04   -0.61880E-04  5820   0.238E-02    0.216E-02
RMM:   7    -0.413186504421E+03    0.94354E-06   -0.17156E-04  5372   0.129E-02    0.128E-02
RMM:   8    -0.413186493505E+03    0.10915E-04   -0.17625E-05  4224   0.527E-03    0.542E-03
RMM:   9    -0.413186492102E+03    0.14029E-05   -0.30582E-06  2780   0.237E-03    0.383E-03
RMM:  10    -0.413186489755E+03    0.23475E-05   -0.10913E-06  2482   0.171E-03    0.212E-03
RMM:  11    -0.413186487081E+03    0.26738E-05   -0.71131E-07  2437   0.140E-03    0.998E-04
RMM:  12    -0.413186484841E+03    0.22396E-05   -0.38464E-07  2142   0.103E-03    0.449E-04
RMM:  13    -0.413186483786E+03    0.10555E-05   -0.17166E-07  1495   0.747E-04    0.216E-04
RMM:  14    -0.413186482175E+03    0.16113E-05   -0.11105E-07  1179   0.676E-04    0.127E-04
RMM:  15    -0.413186479952E+03    0.22229E-05   -0.93399E-08  1172   0.662E-04    0.738E-05
RMM:  16    -0.413186479095E+03    0.85700E-06   -0.48136E-08   912   0.597E-04
   31 T=    65. E= -.41286653E+03 F= -.41318648E+03 E0= -.41316498E+03  EK= 0.31995E+00 SP= 0.00E+00 SK= 0.00E+00
       N       E                     dE             d eps       ncg     rms          rms(c)
RMM:   1    -0.413182603810E+03    0.38761E-02   -0.11097E+01  4291   0.841E-01    0.935E-01
RMM:   2    -0.413191335097E+03   -0.87313E-02   -0.13858E-01  4283   0.122E-01    0.660E-01
RMM:   3    -0.413189196683E+03    0.21384E-02   -0.93563E-03  4377   0.527E-02    0.143E-01
RMM:   4    -0.413194226302E+03   -0.50296E-02   -0.56583E-03  5154   0.644E-02    0.299E-01
RMM:   5    -0.413189200516E+03    0.50258E-02   -0.25228E-03  4825   0.492E-02    0.341E-02
RMM:   6    -0.413189210273E+03   -0.97573E-05   -0.51780E-04  5752   0.219E-02    0.241E-02
RMM:   7    -0.413189194425E+03    0.15848E-04   -0.17808E-04  5243   0.132E-02    0.124E-02
RMM:   8    -0.413189184657E+03    0.97674E-05   -0.13341E-05  3946   0.475E-03    0.546E-03
RMM:   9    -0.413189181620E+03    0.30377E-05   -0.20132E-06  2610   0.207E-03    0.354E-03
RMM:  10    -0.413189175055E+03    0.65646E-05   -0.10200E-06  2482   0.165E-03    0.178E-03
RMM:  11    -0.413189169574E+03    0.54804E-05   -0.56197E-07  2357   0.124E-03    0.839E-04
RMM:  12    -0.413189164865E+03    0.47098E-05   -0.31276E-07  2070   0.958E-04    0.352E-04
RMM:  13    -0.413189162309E+03    0.25553E-05   -0.15508E-07  1389   0.729E-04    0.194E-04
RMM:  14    -0.413189158957E+03    0.33526E-05   -0.98171E-08  1167   0.667E-04    0.123E-04
RMM:  15    -0.413189154394E+03    0.45631E-05   -0.88863E-08  1243   0.667E-04    0.726E-05
RMM:  16    -0.413189152774E+03    0.16198E-05   -0.48753E-08  1002   0.597E-04    0.623E-05
RMM:  17    -0.413189148972E+03    0.38018E-05   -0.61746E-08  1251   0.619E-04    0.339E-05
RMM:  18    -0.413189147602E+03    0.13702E-05   -0.29821E-08   854   0.532E-04    0.196E-05
RMM:  19    -0.413189147303E+03    0.29923E-06   -0.13395E-08   674   0.505E-04
   32 T=    66. E= -.41286691E+03 F= -.41318915E+03 E0= -.41316770E+03  EK= 0.32224E+00 SP= 0.00E+00 SK= 0.00E+00
       N       E                     dE             d eps       ncg     rms          rms(c)
RMM:   1    -0.413184286590E+03    0.48610E-02   -0.11061E+01  4291   0.854E-01    0.922E-01
RMM:   2    -0.413193459584E+03   -0.91730E-02   -0.13979E-01  4283   0.128E-01    0.656E-01
RMM:   3    -0.413190983602E+03    0.24760E-02   -0.90507E-03  4195   0.463E-02    0.143E-01
RMM:   4    -0.413191092836E+03   -0.10923E-03   -0.10896E-03  4608   0.231E-02    0.321E-02
RMM:   5    -0.413191141825E+03   -0.48989E-04   -0.15875E-04  5068   0.127E-02    0.417E-02
RMM:   6    -0.413191111542E+03    0.30283E-04   -0.13536E-04  5230   0.112E-02    0.326E-02
RMM:   7    -0.413191054131E+03    0.57411E-04   -0.14056E-04  4941   0.118E-02    0.936E-03
RMM:   8    -0.413191051802E+03    0.23288E-05   -0.10691E-05  3653   0.412E-03    0.369E-03
RMM:   9    -0.413191050126E+03    0.16765E-05   -0.15472E-06  2421   0.186E-03    0.175E-03
RMM:  10    -0.413191043109E+03    0.70168E-05   -0.67606E-07  2323   0.132E-03    0.899E-04
RMM:  11    -0.413191038651E+03    0.44584E-05   -0.21709E-07  1642   0.794E-04    0.426E-04
RMM:  12    -0.413191035158E+03    0.34930E-05   -0.10131E-07  1148   0.654E-04    0.245E-04
RMM:  13    -0.413191032026E+03    0.31315E-05   -0.72687E-08  1061   0.625E-04    0.123E-04
RMM:  14    -0.413191026473E+03    0.55527E-05   -0.10136E-07  1361   0.674E-04    0.164E-04
RMM:  15    -0.413191026186E+03    0.28715E-06   -0.18152E-08   562   0.518E-04
   33 T=    66. E= -.41286667E+03 F= -.41319103E+03 E0= -.41316963E+03  EK= 0.32435E+00 SP= 0.00E+00 SK= 0.00E+00
       N       E                     dE             d eps       ncg     rms          rms(c)
RMM:   1    -0.413204484536E+03   -0.13458E-01   -0.11339E+01  4297   0.996E-01    0.913E-01
RMM:   2    -0.413196026420E+03    0.84581E-02   -0.16124E-01  4281   0.138E-01    0.671E-01
RMM:   3    -0.413193443625E+03    0.25828E-02   -0.86596E-03  4274   0.521E-02    0.159E-01
RMM:   4    -0.413195341796E+03   -0.18982E-02   -0.29833E-03  5102   0.478E-02    0.184E-01
RMM:   5    -0.413193485926E+03    0.18559E-02   -0.91775E-04  4772   0.307E-02    0.322E-02
RMM:   6    -0.413193480437E+03    0.54893E-05   -0.25427E-04  5609   0.165E-02    0.233E-02
RMM:   7    -0.413193469084E+03    0.11353E-04   -0.15232E-04  4968   0.115E-02    0.123E-02
RMM:   8    -0.413193463491E+03    0.55925E-05   -0.10035E-05  3516   0.412E-03    0.497E-03
RMM:   9    -0.413193462440E+03    0.10508E-05   -0.17517E-06  2481   0.187E-03    0.261E-03
RMM:  10    -0.413193458766E+03    0.36740E-05   -0.90194E-07  2428   0.150E-03    0.123E-03
RMM:  11    -0.413193456883E+03    0.18831E-05   -0.36184E-07  2048   0.985E-04    0.703E-04
RMM:  12    -0.413193454047E+03    0.28361E-05   -0.26586E-07  1742   0.852E-04    0.244E-04
RMM:  13    -0.413193452092E+03    0.19551E-05   -0.13111E-07  1157   0.679E-04    0.156E-04
RMM:  14    -0.413193449678E+03    0.24143E-05   -0.10544E-07  1092   0.650E-04    0.131E-04
RMM:  15    -0.413193446899E+03    0.27785E-05   -0.87839E-08  1057   0.627E-04    0.631E-05
RMM:  16    -0.413193445904E+03    0.99546E-06   -0.40957E-08   755   0.558E-04
   34 T=    67. E= -.41286669E+03 F= -.41319345E+03 E0= -.41317209E+03  EK= 0.32676E+00 SP= 0.00E+00 SK= 0.00E+00
       N       E                     dE             d eps       ncg     rms          rms(c)
RMM:   1    -0.413189772582E+03    0.36743E-02   -0.11253E+01  4299   0.894E-01    0.939E-01
RMM:   2    -0.413198530130E+03   -0.87575E-02   -0.14445E-01  4265   0.130E-01    0.670E-01
RMM:   3    -0.413196234280E+03    0.22958E-02   -0.93864E-03  4370   0.523E-02    0.145E-01
RMM:   4    -0.413200053608E+03   -0.38193E-02   -0.45478E-03  5160   0.572E-02    0.263E-01
RMM:   5    -0.413196237568E+03    0.38160E-02   -0.19339E-03  4818   0.436E-02    0.348E-02
RMM:   6    -0.413196227733E+03    0.98347E-05   -0.41851E-04  5684   0.206E-02    0.252E-02
RMM:   7    -0.413196213981E+03    0.13752E-04   -0.17917E-04  5179   0.126E-02    0.129E-02
RMM:   8    -0.413196205802E+03    0.81793E-05   -0.14934E-05  4078   0.478E-03    0.555E-03
RMM:   9    -0.413196203549E+03    0.22533E-05   -0.22523E-06  2587   0.205E-03    0.304E-03
RMM:  10    -0.413196197303E+03    0.62454E-05   -0.92916E-07  2480   0.157E-03    0.152E-03
RMM:  11    -0.413196192385E+03    0.49186E-05   -0.46623E-07  2259   0.111E-03    0.814E-04
RMM:  12    -0.413196187641E+03    0.47434E-05   -0.27689E-07  1914   0.897E-04    0.315E-04
RMM:  13    -0.413196184778E+03    0.28632E-05   -0.14368E-07  1314   0.707E-04    0.178E-04
RMM:  14    -0.413196181241E+03    0.35375E-05   -0.91372E-08  1069   0.650E-04    0.139E-04
RMM:  15    -0.413196176410E+03    0.48306E-05   -0.87583E-08  1187   0.655E-04    0.690E-05
RMM:  16    -0.413196174729E+03    0.16811E-05   -0.49150E-08   956   0.589E-04    0.577E-05
RMM:  17    -0.413196171423E+03    0.33059E-05   -0.51868E-08  1119   0.602E-04    0.325E-05
RMM:  18    -0.413196170004E+03    0.14194E-05   -0.27160E-08   799   0.533E-04    0.163E-05
RMM:  19    -0.413196169736E+03    0.26730E-06   -0.13151E-08   632   0.509E-04
   35 T=    67. E= -.41286690E+03 F= -.41319617E+03 E0= -.41317486E+03  EK= 0.32927E+00 SP= 0.00E+00 SK= 0.00E+00
       N       E                     dE             d eps       ncg     rms          rms(c)
RMM:   1    -0.413195601307E+03    0.56870E-03   -0.11284E+01  4298   0.962E-01    0.938E-01
RMM:   2    -0.413200371759E+03   -0.47705E-02   -0.14513E-01  4261   0.132E-01    0.664E-01
RMM:   3    -0.413198475802E+03    0.18960E-02   -0.95836E-03  4694   0.539E-02    0.163E-01
RMM:   4    -0.413225402974E+03   -0.26927E-01   -0.27227E-02  5162   0.139E-01    0.685E-01
RMM:   5    -0.413198209904E+03    0.27193E-01   -0.13800E-02  4806   0.114E-01    0.439E-02
RMM:   6    -0.413198241107E+03   -0.31203E-04   -0.21807E-03  5855   0.444E-02    0.272E-02
RMM:   7    -0.413198247036E+03   -0.59289E-05   -0.28489E-04  5710   0.157E-02    0.152E-02
RMM:   8    -0.413198236237E+03    0.10799E-04   -0.55378E-05  4990   0.768E-03    0.904E-03
RMM:   9    -0.413198232432E+03    0.38050E-05   -0.15265E-05  4278   0.450E-03    0.632E-03
RMM:  10    -0.413198225849E+03    0.65829E-05   -0.19823E-06  2586   0.229E-03    0.374E-03
RMM:  11    -0.413198221240E+03    0.46085E-05   -0.11017E-06  2495   0.170E-03    0.226E-03
RMM:  12    -0.413198211068E+03    0.10172E-04   -0.13374E-06  2496   0.191E-03    0.104E-03
RMM:  13    -0.413198207155E+03    0.39132E-05   -0.47326E-07  2304   0.123E-03    0.628E-04
RMM:  14    -0.413198206767E+03    0.38765E-06   -0.19892E-07  1774   0.809E-04
   36 T=    68. E= -.41286656E+03 F= -.41319821E+03 E0= -.41317694E+03  EK= 0.33165E+00 SP= 0.00E+00 SK= 0.00E+00
       N       E                     dE             d eps       ncg     rms          rms(c)
RMM:   1    -0.413204738019E+03   -0.65309E-02   -0.11404E+01  4305   0.103E+00    0.922E-01
RMM:   2    -0.413204320640E+03    0.41738E-03   -0.15927E-01  4260   0.139E-01    0.676E-01
RMM:   3    -0.413201574210E+03    0.27464E-02   -0.90930E-03  4637   0.547E-02    0.165E-01
RMM:   4    -0.413223804865E+03   -0.22231E-01   -0.22612E-02  5161   0.127E-01    0.624E-01
RMM:   5    -0.413201376714E+03    0.22428E-01   -0.11402E-02  4806   0.104E-01    0.420E-02
RMM:   6    -0.413201392619E+03   -0.15905E-04   -0.18325E-03  5841   0.407E-02    0.266E-02
RMM:   7    -0.413201402793E+03   -0.10174E-04   -0.28152E-04  5679   0.154E-02    0.156E-02
RMM:   8    -0.413201390656E+03    0.12137E-04   -0.55237E-05  5005   0.788E-03    0.814E-03
RMM:   9    -0.413201388208E+03    0.24477E-05   -0.11400E-05  3881   0.409E-03    0.520E-03
RMM:  10    -0.413201384174E+03    0.40336E-05   -0.16365E-06  2565   0.206E-03    0.320E-03
RMM:  11    -0.413201380245E+03    0.39291E-05   -0.99792E-07  2494   0.161E-03    0.169E-03
RMM:  12    -0.413201374154E+03    0.60910E-05   -0.94418E-07  2461   0.155E-03    0.741E-04
RMM:  13    -0.413201371899E+03    0.22554E-05   -0.35448E-07  2135   0.103E-03    0.456E-04
RMM:  14    -0.413201371256E+03    0.64249E-06   -0.16451E-07  1468   0.739E-04
   37 T=    68. E= -.41286691E+03 F= -.41320137E+03 E0= -.41318015E+03  EK= 0.33446E+00 SP= 0.00E+00 SK= 0.00E+00
       N       E                     dE             d eps       ncg     rms          rms(c)
RMM:   1    -0.413205149682E+03   -0.37778E-02   -0.11497E+01  4306   0.105E+00    0.943E-01
RMM:   2    -0.413206896024E+03   -0.17463E-02   -0.15292E-01  4260   0.130E-01    0.680E-01
RMM:   3    -0.413204048977E+03    0.28470E-02   -0.97296E-03  4751   0.540E-02    0.167E-01
RMM:   4    -0.413235481767E+03   -0.31433E-01   -0.31989E-02  5148   0.150E-01    0.739E-01
RMM:   5    -0.413203679284E+03    0.31802E-01   -0.16183E-02  4806   0.123E-01    0.459E-02
RMM:   6    -0.413203722894E+03   -0.43610E-04   -0.24880E-03  5835   0.475E-02    0.283E-02
RMM:   7    -0.413203734608E+03   -0.11715E-04   -0.33688E-04  5759   0.167E-02    0.165E-02
RMM:   8    -0.413203723632E+03    0.10977E-04   -0.65085E-05  5070   0.830E-03    0.951E-03
RMM:   9    -0.413203719917E+03    0.37144E-05   -0.16395E-05  4316   0.469E-03    0.596E-03
RMM:  10    -0.413203714495E+03    0.54227E-05   -0.23616E-06  2626   0.232E-03    0.365E-03
RMM:  11    -0.413203710300E+03    0.41942E-05   -0.11566E-06  2500   0.174E-03    0.210E-03
RMM:  12    -0.413203701962E+03    0.83378E-05   -0.12116E-06  2490   0.182E-03    0.930E-04
RMM:  13    -0.413203698369E+03    0.35932E-05   -0.46005E-07  2291   0.120E-03    0.618E-04
RMM:  14    -0.413203698081E+03    0.28833E-06   -0.20196E-07  1742   0.805E-04
   38 T=    69. E= -.41286670E+03 F= -.41320370E+03 E0= -.41318252E+03  EK= 0.33699E+00 SP= 0.00E+00 SK= 0.00E+00
       N       E                     dE             d eps       ncg     rms          rms(c)
RMM:   1    -0.413212000766E+03   -0.83024E-02   -0.11562E+01  4305   0.110E+00    0.955E-01
RMM:   2    -0.413208955939E+03    0.30448E-02   -0.15106E-01  4261   0.125E-01    0.674E-01
RMM:   3    -0.413206926011E+03    0.20299E-02   -0.10213E-02  4939   0.537E-02    0.190E-01
RMM:   4    -0.413252277880E+03   -0.45352E-01   -0.48060E-02  5138   0.182E-01    0.884E-01
RMM:   5    -0.413206117830E+03    0.46160E-01   -0.23035E-02  4791   0.148E-01    0.530E-02
RMM:   6    -0.413206232163E+03   -0.11433E-03   -0.36509E-03  5831   0.569E-02    0.312E-02
RMM:   7    -0.413206241980E+03   -0.98163E-05   -0.40721E-04  5722   0.181E-02    0.167E-02
RMM:   8    -0.413206233025E+03    0.89543E-05   -0.51856E-05  4798   0.689E-03    0.857E-03
RMM:   9    -0.413206224438E+03    0.85877E-05   -0.11376E-05  3470   0.357E-03    0.522E-03
RMM:  10    -0.413206221356E+03    0.30817E-05   -0.28372E-06  2655   0.231E-03    0.383E-03
RMM:  11    -0.413206213674E+03    0.76822E-05   -0.13716E-06  2498   0.201E-03    0.208E-03
RMM:  12    -0.413206202429E+03    0.11245E-04   -0.12368E-06  2488   0.187E-03    0.887E-04
RMM:  13    -0.413206200069E+03    0.23594E-05   -0.42709E-07  2336   0.120E-03    0.606E-04
RMM:  14    -0.413206199410E+03    0.65944E-06   -0.19249E-07  1789   0.803E-04
   39 T=    69. E= -.41286667E+03 F= -.41320620E+03 E0= -.41318506E+03  EK= 0.33953E+00 SP= 0.00E+00 SK= 0.00E+00
       N       E                     dE             d eps       ncg     rms          rms(c)
RMM:   1    -0.413215670204E+03   -0.94701E-02   -0.11572E+01  4310   0.115E+00    0.934E-01
RMM:   2    -0.413212456340E+03    0.32139E-02   -0.15808E-01  4264   0.132E-01    0.679E-01
RMM:   3    -0.413210121414E+03    0.23349E-02   -0.10043E-02  4975   0.563E-02    0.203E-01
RMM:   4    -0.413261308941E+03   -0.51188E-01   -0.55548E-02  5131   0.196E-01    0.938E-01
RMM:   5    -0.413208989836E+03    0.52319E-01   -0.25860E-02  4788   0.158E-01    0.552E-02
RMM:   6    -0.413209134623E+03   -0.14479E-03   -0.40937E-03  5817   0.602E-02    0.312E-02
RMM:   7    -0.413209148723E+03   -0.14101E-04   -0.45165E-04  5774   0.188E-02    0.175E-02
RMM:   8    -0.413209146232E+03    0.24913E-05   -0.73607E-05  5106   0.806E-03    0.103E-02
RMM:   9    -0.413209139033E+03    0.71992E-05   -0.25275E-05  4612   0.521E-03    0.685E-03
RMM:  10    -0.413209134858E+03    0.41749E-05   -0.48517E-06  2896   0.299E-03    0.398E-03
RMM:  11    -0.413209130844E+03    0.40143E-05   -0.18118E-06  2531   0.215E-03    0.237E-03
RMM:  12    -0.413209123162E+03    0.76819E-05   -0.13128E-06  2497   0.193E-03    0.752E-04
RMM:  13    -0.413209120039E+03    0.31231E-05   -0.52915E-07  2371   0.129E-03    0.595E-04
RMM:  14    -0.413209119123E+03    0.91560E-06   -0.23062E-07  1953   0.870E-04
   40 T=    70. E= -.41286695E+03 F= -.41320912E+03 E0= -.41318802E+03  EK= 0.34217E+00 SP= 0.00E+00 SK= 0.00E+00
       N       E                     dE             d eps       ncg     rms          rms(c)
RMM:   1    -0.413236232062E+03   -0.27112E-01   -0.11880E+01  4308   0.127E+00    0.944E-01
RMM:   2    -0.413214515692E+03    0.21716E-01   -0.18500E-01  4270   0.144E-01    0.693E-01
RMM:   3    -0.413212892052E+03    0.16236E-02   -0.10092E-02  5046   0.606E-02    0.260E-01
RMM:   4    -0.413270772911E+03   -0.57881E-01   -0.66516E-02  5130   0.215E-01    0.100E+00
RMM:   5    -0.413210940709E+03    0.59832E-01   -0.29153E-02  4779   0.169E-01    0.609E-02
RMM:   6    -0.413211112825E+03   -0.17212E-03   -0.46546E-03  5811   0.645E-02    0.327E-02
RMM:   7    -0.413211131349E+03   -0.18524E-04   -0.55312E-04  5874   0.205E-02    0.217E-02
RMM:   8    -0.413211131369E+03   -0.19594E-07   -0.12225E-04  5297   0.106E-02    0.135E-02
RMM:   9    -0.413211117770E+03    0.13598E-04   -0.26721E-05  4643   0.597E-03    0.588E-03
RMM:  10    -0.413211113546E+03    0.42243E-05   -0.57176E-06  2966   0.299E-03    0.365E-03
RMM:  11    -0.413211109955E+03    0.35908E-05   -0.15192E-06  2508   0.201E-03    0.212E-03
RMM:  12    -0.413211103968E+03    0.59875E-05   -0.99983E-07  2480   0.170E-03    0.699E-04
RMM:  13    -0.413211100611E+03    0.33566E-05   -0.48225E-07  2329   0.120E-03    0.388E-04
RMM:  14    -0.413211098986E+03    0.16253E-05   -0.24247E-07  1879   0.862E-04    0.277E-04
RMM:  15    -0.413211095860E+03    0.31256E-05   -0.14503E-07  1388   0.718E-04    0.124E-04
RMM:  16    -0.413211093189E+03    0.26712E-05   -0.96958E-08  1172   0.660E-04    0.982E-05
RMM:  17    -0.413211090891E+03    0.22980E-05   -0.71539E-08  1137   0.634E-04    0.698E-05
RMM:  18    -0.413211088254E+03    0.26373E-05   -0.59910E-08  1155   0.626E-04    0.385E-05
RMM:  19    -0.413211086471E+03    0.17828E-05   -0.39846E-08  1020   0.593E-04    0.312E-05
RMM:  20    -0.413211085873E+03    0.59779E-06   -0.22199E-08   833   0.555E-04
   41 T=    70. E= -.41286669E+03 F= -.41321109E+03 E0= -.41319002E+03  EK= 0.34440E+00 SP= 0.00E+00 SK= 0.00E+00
       N       E                     dE             d eps       ncg     rms          rms(c)
RMM:   1    -0.413214775249E+03   -0.36888E-02   -0.11668E+01  4311   0.121E+00    0.969E-01
RMM:   2    -0.413216257623E+03   -0.14824E-02   -0.15857E-01  4285   0.138E-01    0.684E-01
RMM:   3    -0.413217339386E+03   -0.10818E-02   -0.13011E-02  5095   0.748E-02    0.307E-01
RMM:   4    -0.413253607114E+03   -0.36268E-01   -0.52529E-02  5092   0.193E-01    0.827E-01
RMM:   5    -0.413213555865E+03    0.40051E-01   -0.17881E-02  4740   0.138E-01    0.576E-02
RMM:   6    -0.413213617367E+03   -0.61501E-04   -0.30682E-03  5759   0.526E-02    0.319E-02
RMM:   7    -0.413213623137E+03   -0.57699E-05   -0.41952E-04  5792   0.184E-02    0.211E-02
RMM:   8    -0.413213618767E+03    0.43697E-05   -0.10972E-04  5187   0.105E-02    0.118E-02
RMM:   9    -0.413213604769E+03    0.13998E-04   -0.19827E-05  4417   0.547E-03    0.470E-03
RMM:  10    -0.413213599586E+03    0.51825E-05   -0.41002E-06  2806   0.259E-03    0.295E-03
RMM:  11    -0.413213593892E+03    0.56943E-05   -0.11972E-06  2493   0.183E-03    0.160E-03
RMM:  12    -0.413213586066E+03    0.78262E-05   -0.70748E-07  2440   0.146E-03    0.586E-04
RMM:  13    -0.413213581865E+03    0.42010E-05   -0.34883E-07  2109   0.102E-03    0.291E-04
RMM:  14    -0.413213579217E+03    0.26480E-05   -0.18798E-07  1574   0.783E-04    0.184E-04
RMM:  15    -0.413213573436E+03    0.57812E-05   -0.13516E-07  1341   0.722E-04    0.130E-04
RMM:  16    -0.413213571187E+03    0.22484E-05   -0.86008E-08  1168   0.658E-04    0.844E-05
RMM:  17    -0.413213567739E+03    0.34479E-05   -0.73542E-08  1251   0.653E-04    0.627E-05
RMM:  18    -0.413213565122E+03    0.26178E-05   -0.58518E-08  1214   0.616E-04    0.381E-05
RMM:  19    -0.413213563215E+03    0.19071E-05   -0.36142E-08   955   0.563E-04    0.324E-05
RMM:  20    -0.413213562929E+03    0.28580E-06   -0.18716E-08   749   0.534E-04
   42 T=    71. E= -.41286687E+03 F= -.41321356E+03 E0= -.41319253E+03  EK= 0.34669E+00 SP= 0.00E+00 SK= 0.00E+00
       N       E                     dE             d eps       ncg     rms          rms(c)
RMM:   1    -0.413222156728E+03   -0.85935E-02   -0.11663E+01  4311   0.129E+00    0.945E-01
RMM:   2    -0.413218333055E+03    0.38237E-02   -0.16470E-01  4288   0.149E-01    0.684E-01
RMM:   3    -0.413220524958E+03   -0.21919E-02   -0.13689E-02  5086   0.828E-02    0.342E-01
RMM:   4    -0.413252405611E+03   -0.31881E-01   -0.51639E-02  5079   0.192E-01    0.794E-01
RMM:   5    -0.413215558689E+03    0.36847E-01   -0.15941E-02  4711   0.133E-01    0.572E-02
RMM:   6    -0.413215597462E+03   -0.38773E-04   -0.27890E-03  5742   0.503E-02    0.312E-02
RMM:   7    -0.413215601162E+03   -0.37001E-05   -0.38491E-04  5784   0.179E-02    0.210E-02
RMM:   8    -0.413215597077E+03    0.40845E-05   -0.10296E-04  5170   0.103E-02    0.110E-02
RMM:   9    -0.413215584993E+03    0.12084E-04   -0.19037E-05  4382   0.540E-03    0.426E-03
RMM:  10    -0.413215581449E+03    0.35444E-05   -0.36476E-06  2760   0.248E-03    0.263E-03
RMM:  11    -0.413215576976E+03    0.44734E-05   -0.12117E-06  2492   0.181E-03    0.142E-03
RMM:  12    -0.413215571659E+03    0.53166E-05   -0.65455E-07  2427   0.139E-03    0.557E-04
RMM:  13    -0.413215568652E+03    0.30072E-05   -0.32178E-07  1945   0.963E-04    0.261E-04
RMM:  14    -0.413215566206E+03    0.24453E-05   -0.18444E-07  1479   0.767E-04    0.156E-04
RMM:  15    -0.413215561638E+03    0.45687E-05   -0.14541E-07  1309   0.723E-04    0.115E-04
RMM:  16    -0.413215559983E+03    0.16546E-05   -0.89908E-08  1161   0.657E-04    0.801E-05
RMM:  17    -0.413215556761E+03    0.32220E-05   -0.80479E-08  1247   0.656E-04    0.560E-05
RMM:  18    -0.413215554635E+03    0.21266E-05   -0.58450E-08  1144   0.608E-04    0.399E-05
RMM:  19    -0.413215553661E+03    0.97395E-06   -0.33161E-08   879   0.555E-04
   43 T=    71. E= -.41286691E+03 F= -.41321555E+03 E0= -.41319455E+03  EK= 0.34865E+00 SP= 0.00E+00 SK= 0.00E+00
       N       E                     dE             d eps       ncg     rms          rms(c)
RMM:   1    -0.413240451408E+03   -0.24897E-01   -0.11935E+01  4311   0.142E+00    0.946E-01
RMM:   2    -0.413219930802E+03    0.20521E-01   -0.18990E-01  4288   0.168E-01    0.700E-01
RMM:   3    -0.413222942120E+03   -0.30113E-02   -0.14233E-02  5087   0.903E-02    0.387E-01
RMM:   4    -0.413253696191E+03   -0.30754E-01   -0.54052E-02  5063   0.197E-01    0.798E-01
RMM:   5    -0.413216787603E+03    0.36909E-01   -0.15963E-02  4708   0.134E-01    0.598E-02
RMM:   6    -0.413216811439E+03   -0.23836E-04   -0.27589E-03  5707   0.501E-02    0.313E-02
RMM:   7    -0.413216814745E+03   -0.33064E-05   -0.38349E-04  5834   0.178E-02    0.216E-02
RMM:   8    -0.413216810154E+03    0.45917E-05   -0.10046E-04  5175   0.102E-02    0.109E-02
RMM:   9    -0.413216799345E+03    0.10809E-04   -0.20769E-05  4423   0.559E-03    0.415E-03
RMM:  10    -0.413216796938E+03    0.24068E-05   -0.37638E-06  2766   0.246E-03    0.246E-03
RMM:  11    -0.413216793438E+03    0.34996E-05   -0.15252E-06  2527   0.189E-03    0.142E-03
RMM:  12    -0.413216790082E+03    0.33567E-05   -0.63350E-07  2443   0.138E-03    0.612E-04
RMM:  13    -0.413216787833E+03    0.22492E-05   -0.31884E-07  1824   0.931E-04    0.274E-04
RMM:  14    -0.413216785587E+03    0.22452E-05   -0.19876E-07  1444   0.773E-04    0.152E-04
RMM:  15    -0.413216782623E+03    0.29647E-05   -0.15507E-07  1333   0.720E-04    0.965E-05
RMM:  16    -0.413216780856E+03    0.17662E-05   -0.98427E-08  1155   0.660E-04    0.724E-05
RMM:  17    -0.413216778421E+03    0.24351E-05   -0.85881E-08  1226   0.651E-04    0.489E-05
RMM:  18    -0.413216776657E+03    0.17644E-05   -0.58931E-08  1071   0.600E-04    0.415E-05
RMM:  19    -0.413216775839E+03    0.81814E-06   -0.33634E-08   863   0.559E-04
   44 T=    71. E= -.41286666E+03 F= -.41321678E+03 E0= -.41319579E+03  EK= 0.35012E+00 SP= 0.00E+00 SK= 0.00E+00
       N       E                     dE             d eps       ncg     rms          rms(c)
RMM:   1    -0.413229707971E+03   -0.12931E-01   -0.11807E+01  4310   0.146E+00    0.974E-01
RMM:   2    -0.413220823060E+03    0.88849E-02   -0.16892E-01  4320   0.170E-01    0.693E-01
RMM:   3    -0.413229509654E+03   -0.86866E-02   -0.19749E-02  5132   0.111E-01    0.481E-01
RMM:   4    -0.413238796257E+03   -0.92866E-02   -0.42321E-02  5030   0.178E-01    0.603E-01
RMM:   5    -0.413218427339E+03    0.20369E-01   -0.76000E-03  4616   0.102E-01    0.535E-02
RMM:   6    -0.413218396655E+03    0.30684E-04   -0.15194E-03  5509   0.377E-02    0.295E-02
RMM:   7    -0.413218391971E+03    0.46839E-05   -0.24287E-04  5603   0.152E-02    0.199E-02
RMM:   8    -0.413218381479E+03    0.10492E-04   -0.10179E-04  5073   0.104E-02    0.944E-03
RMM:   9    -0.413218367627E+03    0.13852E-04   -0.14650E-05  4206   0.520E-03    0.383E-03
RMM:  10    -0.413218363822E+03    0.38055E-05   -0.24940E-06  2670   0.216E-03    0.221E-03
RMM:  11    -0.413218357028E+03    0.67934E-05   -0.11022E-06  2478   0.171E-03    0.122E-03
RMM:  12    -0.413218351011E+03    0.60169E-05   -0.52448E-07  2395   0.127E-03    0.584E-04
RMM:  13    -0.413218347455E+03    0.35560E-05   -0.24038E-07  1751   0.850E-04    0.288E-04
RMM:  14    -0.413218343946E+03    0.35098E-05   -0.13508E-07  1278   0.690E-04    0.151E-04
RMM:  15    -0.413218338639E+03    0.53068E-05   -0.11572E-07  1259   0.681E-04    0.124E-04
RMM:  16    -0.413218336142E+03    0.24968E-05   -0.70068E-08  1070   0.620E-04    0.103E-04
RMM:  17    -0.413218332114E+03    0.40280E-05   -0.65029E-08  1177   0.628E-04    0.612E-05
RMM:  18    -0.413218329205E+03    0.29089E-05   -0.51303E-08  1148   0.594E-04    0.491E-05
RMM:  19    -0.413218328559E+03    0.64573E-06   -0.22575E-08   777   0.519E-04
   45 T=    72. E= -.41286697E+03 F= -.41321833E+03 E0= -.41319737E+03  EK= 0.35136E+00 SP= 0.00E+00 SK= 0.00E+00
       N       E                     dE             d eps       ncg     rms          rms(c)
RMM:   1    -0.413253399757E+03   -0.35071E-01   -0.11925E+01  4309   0.164E+00    0.956E-01
RMM:   2    -0.413220968252E+03    0.32432E-01   -0.17772E-01  4342   0.185E-01    0.689E-01
RMM:   3    -0.413232265179E+03   -0.11297E-01   -0.21702E-02  5133   0.121E-01    0.534E-01
RMM:   4    -0.413235444008E+03   -0.31788E-02   -0.41199E-02  5015   0.177E-01    0.556E-01
RMM:   5    -0.413218472672E+03    0.16971E-01   -0.62709E-03  4578   0.966E-02    0.533E-02
RMM:   6    -0.413218420674E+03    0.51997E-04   -0.12023E-03  5338   0.344E-02    0.286E-02
RMM:   7    -0.413218414925E+03    0.57493E-05   -0.19621E-04  5584   0.138E-02    0.187E-02
RMM:   8    -0.413218407356E+03    0.75693E-05   -0.11239E-04  5121   0.108E-02    0.101E-02
RMM:   9    -0.413218392720E+03    0.14636E-04   -0.16452E-05  4331   0.550E-03    0.393E-03
RMM:  10    -0.413218389779E+03    0.29412E-05   -0.27530E-06  2705   0.220E-03    0.224E-03
RMM:  11    -0.413218383678E+03    0.61005E-05   -0.12275E-06  2482   0.179E-03    0.121E-03
RMM:  12    -0.413218379135E+03    0.45431E-05   -0.53872E-07  2395   0.129E-03    0.663E-04
RMM:  13    -0.413218375608E+03    0.35266E-05   -0.24692E-07  1747   0.873E-04    0.329E-04
RMM:  14    -0.413218372165E+03    0.34433E-05   -0.13197E-07  1296   0.692E-04    0.168E-04
RMM:  15    -0.413218368024E+03    0.41411E-05   -0.10185E-07  1182   0.662E-04    0.118E-04
RMM:  16    -0.413218365720E+03    0.23042E-05   -0.62530E-08   998   0.607E-04    0.105E-04
RMM:  17    -0.413218362381E+03    0.33389E-05   -0.60611E-08  1108   0.613E-04    0.603E-05
RMM:  18    -0.413218359477E+03    0.29035E-05   -0.49321E-08  1079   0.593E-04    0.519E-05
RMM:  19    -0.413218358887E+03    0.59047E-06   -0.18869E-08   694   0.514E-04
   46 T=    72. E= -.41286677E+03 F= -.41321836E+03 E0= -.41319742E+03  EK= 0.35159E+00 SP= 0.00E+00 SK= 0.00E+00
       N       E                     dE             d eps       ncg     rms          rms(c)
RMM:   1    -0.413238017480E+03   -0.19658E-01   -0.11781E+01  4310   0.165E+00    0.945E-01
RMM:   2    -0.413220724195E+03    0.17293E-01   -0.18610E-01  4352   0.197E-01    0.702E-01
RMM:   3    -0.413232804826E+03   -0.12081E-01   -0.22560E-02  5134   0.128E-01    0.559E-01
RMM:   4    -0.413235616609E+03   -0.28118E-02   -0.43895E-02  5010   0.184E-01    0.571E-01
RMM:   5    -0.413217608767E+03    0.18008E-01   -0.67021E-03  4579   0.100E-01    0.553E-02
RMM:   6    -0.413217543947E+03    0.64820E-04   -0.12407E-03  5331   0.353E-02    0.289E-02
RMM:   7    -0.413217538700E+03    0.52469E-05   -0.20142E-04  5632   0.139E-02    0.195E-02
RMM:   8    -0.413217531950E+03    0.67505E-05   -0.11649E-04  5139   0.110E-02    0.104E-02
RMM:   9    -0.413217518144E+03    0.13805E-04   -0.18030E-05  4370   0.574E-03    0.400E-03
RMM:  10    -0.413217516168E+03    0.19764E-05   -0.30410E-06  2724   0.227E-03    0.229E-03
RMM:  11    -0.413217512070E+03    0.40980E-05   -0.13788E-06  2503   0.186E-03    0.127E-03
RMM:  12    -0.413217509113E+03    0.29575E-05   -0.58068E-07  2419   0.134E-03    0.701E-04
RMM:  13    -0.413217506408E+03    0.27043E-05   -0.28522E-07  1779   0.919E-04    0.341E-04
RMM:  14    -0.413217503915E+03    0.24930E-05   -0.15994E-07  1357   0.727E-04    0.179E-04
RMM:  15    -0.413217501095E+03    0.28199E-05   -0.11846E-07  1192   0.677E-04    0.110E-04
RMM:  16    -0.413217499137E+03    0.19584E-05   -0.78427E-08  1060   0.627E-04    0.991E-05
RMM:  17    -0.413217496942E+03    0.21951E-05   -0.66898E-08  1085   0.610E-04    0.555E-05
RMM:  18    -0.413217494624E+03    0.23180E-05   -0.54173E-08  1006   0.591E-04    0.409E-05
RMM:  19    -0.413217494181E+03    0.44298E-06   -0.21297E-08   684   0.523E-04
   47 T=    71. E= -.41286665E+03 F= -.41321749E+03 E0= -.41319657E+03  EK= 0.35084E+00 SP= 0.00E+00 SK= 0.00E+00
       N       E                     dE             d eps       ncg     rms          rms(c)
RMM:   1    -0.413256385826E+03   -0.38891E-01   -0.11893E+01  4304   0.182E+00    0.967E-01
RMM:   2    -0.413218413497E+03    0.37972E-01   -0.19228E-01  4418   0.206E-01    0.698E-01
RMM:   3    -0.413238638003E+03   -0.20225E-01   -0.29552E-02  5152   0.149E-01    0.674E-01
RMM:   4    -0.413226503276E+03    0.12135E-01   -0.40534E-02  4971   0.180E-01    0.459E-01
RMM:   5    -0.413215853963E+03    0.10649E-01   -0.46713E-03  4524   0.900E-02    0.575E-02
RMM:   6    -0.413215722973E+03    0.13099E-03   -0.56483E-04  4815   0.290E-02    0.295E-02
RMM:   7    -0.413215717876E+03    0.50968E-05   -0.20620E-04  5900   0.145E-02    0.173E-02
RMM:   8    -0.413215704091E+03    0.13786E-04   -0.10071E-04  5159   0.110E-02    0.111E-02
RMM:   9    -0.413215693472E+03    0.10619E-04   -0.15617E-05  4261   0.525E-03    0.468E-03
RMM:  10    -0.413215689644E+03    0.38275E-05   -0.26793E-06  2648   0.252E-03    0.233E-03
RMM:  11    -0.413215684095E+03    0.55490E-05   -0.18500E-06  2525   0.212E-03    0.159E-03
RMM:  12    -0.413215680148E+03    0.39474E-05   -0.65278E-07  2393   0.146E-03    0.895E-04
RMM:  13    -0.413215676137E+03    0.40114E-05   -0.31145E-07  1946   0.976E-04    0.497E-04
RMM:  14    -0.413215670505E+03    0.56313E-05   -0.23293E-07  1945   0.854E-04    0.456E-04
RMM:  15    -0.413215666993E+03    0.35118E-05   -0.10497E-07  1080   0.613E-04    0.190E-04
RMM:  16    -0.413215664388E+03    0.26058E-05   -0.72486E-08  1024   0.589E-04    0.101E-04
RMM:  17    -0.413215661484E+03    0.29041E-05   -0.65578E-08  1073   0.589E-04    0.639E-05
RMM:  18    -0.413215659387E+03    0.20969E-05   -0.43200E-08   930   0.563E-04    0.752E-05
RMM:  19    -0.413215658183E+03    0.12037E-05   -0.23461E-08   759   0.533E-04    0.529E-05
RMM:  20    -0.413215657028E+03    0.11544E-05   -0.22006E-08   788   0.529E-04    0.268E-05
RMM:  21    -0.413215656500E+03    0.52826E-06   -0.12624E-08   646   0.504E-04
   48 T=    71. E= -.41286689E+03 F= -.41321566E+03 E0= -.41319474E+03  EK= 0.34876E+00 SP= 0.00E+00 SK= 0.00E+00
       N       E                     dE             d eps       ncg     rms          rms(c)
RMM:   1    -0.413256032978E+03   -0.40376E-01   -0.11693E+01  4304   0.194E+00    0.957E-01
RMM:   2    -0.413213968285E+03    0.42065E-01   -0.18809E-01  4467   0.216E-01    0.687E-01
RMM:   3    -0.413241702748E+03   -0.27734E-01   -0.36062E-02  5155   0.167E-01    0.764E-01
RMM:   4    -0.413218617058E+03    0.23086E-01   -0.40138E-02  4947   0.182E-01    0.390E-01
RMM:   5    -0.413211573782E+03    0.70433E-02   -0.46286E-03  4695   0.901E-02    0.669E-02
RMM:   6    -0.413211356921E+03    0.21686E-03   -0.47584E-04  4659   0.304E-02    0.331E-02
RMM:   7    -0.413211357570E+03   -0.64956E-06   -0.22693E-04  5739   0.161E-02    0.236E-02
RMM:   8    -0.413211328433E+03    0.29137E-04   -0.77828E-05  4964   0.100E-02    0.902E-03
RMM:   9    -0.413211319965E+03    0.84680E-05   -0.15220E-05  4135   0.488E-03    0.425E-03
RMM:  10    -0.413211315217E+03    0.47474E-05   -0.21118E-06  2600   0.227E-03    0.252E-03
RMM:  11    -0.413211308480E+03    0.67370E-05   -0.90251E-07  2486   0.160E-03    0.146E-03
RMM:  12    -0.413211304860E+03    0.36202E-05   -0.35784E-07  2244   0.106E-03    0.735E-04
RMM:  13    -0.413211299049E+03    0.58107E-05   -0.35027E-07  2123   0.955E-04    0.444E-04
RMM:  14    -0.413211295289E+03    0.37606E-05   -0.16927E-07  1303   0.717E-04    0.277E-04
RMM:  15    -0.413211290694E+03    0.45948E-05   -0.13780E-07  1203   0.687E-04    0.125E-04
RMM:  16    -0.413211287957E+03    0.27374E-05   -0.92492E-08  1180   0.644E-04    0.918E-05
RMM:  17    -0.413211284144E+03    0.38124E-05   -0.88568E-08  1335   0.643E-04    0.915E-05
RMM:  18    -0.413211283315E+03    0.82982E-06   -0.40544E-08   916   0.537E-04
   49 T=    70. E= -.41286660E+03 F= -.41321128E+03 E0= -.41319038E+03  EK= 0.34468E+00 SP= 0.00E+00 SK= 0.00E+00
       N       E                     dE             d eps       ncg     rms          rms(c)
RMM:   1    -0.413230911123E+03   -0.19627E-01   -0.11291E+01  4304   0.195E+00    0.927E-01
RMM:   2    -0.413209179937E+03    0.21731E-01   -0.18651E-01  4490   0.225E-01    0.691E-01
RMM:   3    -0.413236886506E+03   -0.27707E-01   -0.36142E-02  5158   0.169E-01    0.774E-01
RMM:   4    -0.413213469466E+03    0.23417E-01   -0.41390E-02  4943   0.186E-01    0.394E-01
RMM:   5    -0.413206121132E+03    0.73483E-02   -0.50577E-03  4747   0.937E-02    0.706E-02
RMM:   6    -0.413205864024E+03    0.25711E-03   -0.50875E-04  4655   0.318E-02    0.337E-02
RMM:   7    -0.413205862532E+03    0.14924E-05   -0.22446E-04  5738   0.161E-02    0.235E-02
RMM:   8    -0.413205835219E+03    0.27313E-04   -0.77574E-05  5004   0.977E-03    0.948E-03
RMM:   9    -0.413205828172E+03    0.70473E-05   -0.15607E-05  4153   0.493E-03    0.419E-03
RMM:  10    -0.413205824393E+03    0.37793E-05   -0.23919E-06  2631   0.231E-03    0.257E-03
RMM:  11    -0.413205819640E+03    0.47531E-05   -0.82953E-07  2485   0.154E-03    0.140E-03
RMM:  12    -0.413205816952E+03    0.26873E-05   -0.36267E-07  2215   0.104E-03    0.714E-04
RMM:  13    -0.413205812506E+03    0.44462E-05   -0.40853E-07  2230   0.100E-03    0.506E-04
RMM:  14    -0.413205810104E+03    0.24018E-05   -0.17918E-07  1320   0.725E-04    0.315E-04
RMM:  15    -0.413205806772E+03    0.33324E-05   -0.16091E-07  1274   0.713E-04    0.124E-04
RMM:  16    -0.413205804786E+03    0.19863E-05   -0.10792E-07  1272   0.660E-04    0.113E-04
[...]
RMM:   8    -0.413596293725E+03    0.36739E-03   -0.12724E-03  4501   0.477E-02    0.388E-02
RMM:   9    -0.413596282370E+03    0.11354E-04   -0.50583E-04  5235   0.279E-02    0.171E-02
RMM:  10    -0.413596285605E+03   -0.32343E-05   -0.10545E-04  5923   0.113E-02    0.121E-02
RMM:  11    -0.413596285338E+03    0.26615E-06   -0.22487E-05  4590   0.617E-03    0.653E-03
RMM:  12    -0.413596291116E+03   -0.57772E-05   -0.58079E-06  3095   0.370E-03    0.314E-03
RMM:  13    -0.413596297350E+03   -0.62344E-05   -0.23220E-06  2712   0.227E-03    0.175E-03
RMM:  14    -0.413596302837E+03   -0.54867E-05   -0.12106E-06  2558   0.169E-03    0.857E-04
RMM:  15    -0.413596308474E+03   -0.56372E-05   -0.10764E-06  2532   0.147E-03    0.501E-04
RMM:  16    -0.413596314378E+03   -0.59035E-05   -0.11049E-06  2462   0.133E-03    0.351E-04
RMM:  17    -0.413596318692E+03   -0.43142E-05   -0.79594E-07  2041   0.108E-03    0.243E-04
RMM:  18    -0.413596323387E+03   -0.46951E-05   -0.87481E-07  2206   0.110E-03    0.172E-04
RMM:  19    -0.413596325433E+03   -0.20459E-05   -0.37596E-07  1498   0.754E-04    0.106E-04
RMM:  20    -0.413596327642E+03   -0.22092E-05   -0.25443E-07  1376   0.689E-04    0.774E-05
RMM:  21    -0.413596329008E+03   -0.13657E-05   -0.14392E-07  1143   0.617E-04    0.476E-05
RMM:  22    -0.413596329671E+03   -0.66337E-06   -0.82206E-08  1017   0.574E-04
  140 T=   141. E= -.41290613E+03 F= -.41359633E+03 E0= -.41357666E+03  EK= 0.69020E+00 SP= 0.00E+00 SK= 0.00E+00
       N       E                     dE             d eps       ncg     rms          rms(c)
RMM:   1    -0.413242208953E+03    0.35412E+00   -0.10059E+01  4273   0.591E+00    0.130E+00
RMM:   2    -0.413238432690E+03    0.37763E-02   -0.37377E-01  5351   0.760E-01    0.138E+00
RMM:   3    -0.413233069934E+03    0.53628E-02   -0.77098E-02  5707   0.304E-01    0.129E+00
RMM:   4    -0.413215428512E+03    0.17641E-01   -0.22808E-02  5020   0.197E-01    0.821E-01
RMM:   5    -0.413218890178E+03   -0.34617E-02   -0.46289E-02  4560   0.299E-01    0.354E-01
RMM:   6    -0.413213793183E+03    0.50970E-02   -0.12287E-02  4662   0.146E-01    0.144E-01
RMM:   7    -0.413213107067E+03    0.68612E-03   -0.20123E-03  5234   0.637E-02    0.687E-02
RMM:   8    -0.413212964877E+03    0.14219E-03   -0.67473E-04  4526   0.366E-02    0.272E-02
RMM:   9    -0.413212969903E+03   -0.50254E-05   -0.20912E-04  5830   0.170E-02    0.133E-02
RMM:  10    -0.413212969452E+03    0.45047E-06   -0.44963E-05  5341   0.753E-03    0.763E-03
RMM:  11    -0.413212970169E+03   -0.71733E-06   -0.10451E-05  3717   0.416E-03    0.431E-03
RMM:  12    -0.413212972779E+03   -0.26092E-05   -0.26433E-06  2710   0.265E-03    0.212E-03
RMM:  13    -0.413212975581E+03   -0.28024E-05   -0.12728E-06  2570   0.180E-03    0.110E-03
RMM:  14    -0.413212977892E+03   -0.23112E-05   -0.72437E-07  2465   0.131E-03    0.606E-04
RMM:  15    -0.413212980370E+03   -0.24783E-05   -0.63620E-07  2267   0.114E-03    0.315E-04
RMM:  16    -0.413212982637E+03   -0.22666E-05   -0.52929E-07  2019   0.100E-03    0.196E-04
RMM:  17    -0.413212984937E+03   -0.23004E-05   -0.51051E-07  1967   0.952E-04    0.139E-04
RMM:  18    -0.413212986854E+03   -0.19168E-05   -0.37234E-07  1587   0.812E-04    0.758E-05
RMM:  19    -0.413212987980E+03   -0.11254E-05   -0.21750E-07  1315   0.697E-04    0.631E-05
RMM:  20    -0.413212988959E+03   -0.97929E-06   -0.14500E-07  1210   0.642E-04
  141 T=    76. E= -.41283876E+03 F= -.41321299E+03 E0= -.41319375E+03  EK= 0.37423E+00 SP= 0.00E+00 SK= 0.00E+00
       N       E                     dE             d eps       ncg     rms          rms(c)
RMM:   1    -0.413419410984E+03   -0.20642E+00   -0.50590E+00  4282   0.434E+00    0.825E-01
RMM:   2    -0.413423263075E+03   -0.38521E-02   -0.15893E-01  5402   0.485E-01    0.772E-01
RMM:   3    -0.413432979070E+03   -0.97160E-02   -0.49756E-02  5482   0.240E-01    0.833E-01
RMM:   4    -0.413412394368E+03    0.20585E-01   -0.28710E-02  5085   0.203E-01    0.353E-01
RMM:   5    -0.413411304357E+03    0.10900E-02   -0.95837E-03  4622   0.142E-01    0.121E-01
RMM:   6    -0.413410820327E+03    0.48403E-03   -0.31384E-03  5017   0.711E-02    0.656E-02
RMM:   7    -0.413410712572E+03    0.10776E-03   -0.73695E-04  5285   0.339E-02    0.403E-02
RMM:   8    -0.413410685821E+03    0.26751E-04   -0.13886E-04  4750   0.155E-02    0.243E-02
RMM:   9    -0.413410685505E+03    0.31534E-06   -0.76385E-05  4932   0.115E-02    0.113E-02
RMM:  10    -0.413410684556E+03    0.94883E-06   -0.21194E-05  4649   0.540E-03    0.636E-03
RMM:  11    -0.413410684874E+03   -0.31757E-06   -0.11033E-05  4145   0.419E-03    0.310E-03
RMM:  12    -0.413410685170E+03   -0.29552E-06   -0.16777E-06  2567   0.222E-03
  142 T=   108. E= -.41287858E+03 F= -.41341069E+03 E0= -.41339136E+03  EK= 0.53210E+00 SP= 0.00E+00 SK= 0.00E+00
       N       E                     dE             d eps       ncg     rms          rms(c)
RMM:   1    -0.413929182453E+03   -0.51850E+00   -0.15801E+01  4300   0.740E+00    0.228E+00
RMM:   2    -0.413932713041E+03   -0.35306E-02   -0.79047E-01  5371   0.112E+00    0.232E+00
RMM:   3    -0.413890000794E+03    0.42712E-01   -0.31894E-01  5341   0.618E-01    0.211E+00
RMM:   4    -0.413787561923E+03    0.10244E+00   -0.21569E-01  5146   0.541E-01    0.955E-01
RMM:   5    -0.413782491351E+03    0.50706E-02   -0.87528E-02  5049   0.379E-01    0.451E-01
RMM:   6    -0.413774705518E+03    0.77858E-02   -0.41779E-02  4970   0.250E-01    0.214E-01
RMM:   7    -0.413773062534E+03    0.16430E-02   -0.48272E-03  4941   0.103E-01    0.886E-02
RMM:   8    -0.413772951969E+03    0.11056E-03   -0.65694E-04  4670   0.366E-02    0.514E-02
RMM:   9    -0.413772963040E+03   -0.11072E-04   -0.50957E-04  5243   0.287E-02    0.316E-02
RMM:  10    -0.413772951502E+03    0.11539E-04   -0.12194E-04  5449   0.136E-02    0.173E-02
RMM:  11    -0.413772950321E+03    0.11804E-05   -0.79743E-05  5768   0.103E-02    0.754E-03
RMM:  12    -0.413772954393E+03   -0.40715E-05   -0.16924E-05  4491   0.504E-03    0.524E-03
RMM:  13    -0.413772956827E+03   -0.24347E-05   -0.46651E-06  2963   0.327E-03    0.309E-03
RMM:  14    -0.413772957980E+03   -0.11526E-05   -0.17552E-06  2606   0.215E-03    0.106E-03
RMM:  15    -0.413772958506E+03   -0.52546E-06   -0.94475E-07  2475   0.150E-03
  143 T=   176. E= -.41290618E+03 F= -.41377296E+03 E0= -.41375318E+03  EK= 0.86677E+00 SP= 0.00E+00 SK= 0.00E+00
       N       E                     dE             d eps       ncg     rms          rms(c)
RMM:   1    -0.413953125021E+03   -0.18017E+00   -0.18657E+01  4303   0.800E+00    0.173E+00
RMM:   2    -0.413916221725E+03    0.36903E-01   -0.82495E-01  5399   0.111E+00    0.196E+00
RMM:   3    -0.413847754816E+03    0.68467E-01   -0.23504E-01  5452   0.540E-01    0.166E+00
RMM:   4    -0.413788060927E+03    0.59694E-01   -0.10640E-01  5228   0.391E-01    0.861E-01
RMM:   5    -0.413789307222E+03   -0.12463E-02   -0.71155E-02  5074   0.331E-01    0.500E-01
RMM:   6    -0.413783557792E+03    0.57494E-02   -0.50425E-02  5070   0.264E-01    0.252E-01
RMM:   7    -0.413780914317E+03    0.26435E-02   -0.63550E-03  4807   0.117E-01    0.110E-01
RMM:   8    -0.413780782144E+03    0.13217E-03   -0.12849E-03  5536   0.450E-02    0.748E-02
RMM:   9    -0.413780704131E+03    0.78014E-04   -0.73620E-04  4438   0.345E-02    0.231E-02
RMM:  10    -0.413780726181E+03   -0.22050E-04   -0.20700E-04  5733   0.170E-02    0.154E-02
RMM:  11    -0.413780727040E+03   -0.85947E-06   -0.38400E-05  5142   0.764E-03    0.781E-03
RMM:  12    -0.413780734944E+03   -0.79043E-05   -0.16340E-05  4147   0.524E-03    0.491E-03
RMM:  13    -0.413780740236E+03   -0.52917E-05   -0.43333E-06  2890   0.304E-03    0.230E-03
RMM:  14    -0.413780742653E+03   -0.24167E-05   -0.22027E-06  2664   0.202E-03    0.140E-03
RMM:  15    -0.413780743857E+03   -0.12047E-05   -0.15725E-06  2589   0.175E-03    0.805E-04
RMM:  16    -0.413780743721E+03    0.13624E-06   -0.10008E-06  2292   0.124E-03
  144 T=   183. E= -.41288206E+03 F= -.41378074E+03 E0= -.41376048E+03  EK= 0.89869E+00 SP= 0.00E+00 SK= 0.00E+00
       N       E                     dE             d eps       ncg     rms          rms(c)
RMM:   1    -0.413770655270E+03    0.10089E-01   -0.15836E+01  4298   0.741E+00    0.968E-01
RMM:   2    -0.413718064549E+03    0.52591E-01   -0.55576E-01  5422   0.888E-01    0.119E+00
RMM:   3    -0.413694064233E+03    0.24000E-01   -0.11695E-01  5639   0.371E-01    0.102E+00
RMM:   4    -0.413669377271E+03    0.24687E-01   -0.29444E-02  5203   0.214E-01    0.601E-01
RMM:   5    -0.413667832343E+03    0.15449E-02   -0.27766E-02  4844   0.206E-01    0.369E-01
RMM:   6    -0.413666533332E+03    0.12990E-02   -0.30861E-02  5027   0.204E-01    0.189E-01
RMM:   7    -0.413665048469E+03    0.14849E-02   -0.57342E-03  5320   0.100E-01    0.116E-01
RMM:   8    -0.413664775995E+03    0.27247E-03   -0.95146E-04  5448   0.391E-02    0.747E-02
RMM:   9    -0.413664649274E+03    0.12672E-03   -0.98356E-04  4481   0.376E-02    0.173E-02
RMM:  10    -0.413664682319E+03   -0.33045E-04   -0.21759E-04  5896   0.168E-02    0.165E-02
RMM:  11    -0.413664680917E+03    0.14022E-05   -0.36682E-05  4505   0.790E-03    0.675E-03
RMM:  12    -0.413664689288E+03   -0.83713E-05   -0.14408E-05  4065   0.494E-03    0.402E-03
RMM:  13    -0.413664694400E+03   -0.51120E-05   -0.36712E-06  2829   0.281E-03    0.189E-03
RMM:  14    -0.413664696712E+03   -0.23117E-05   -0.19341E-06  2629   0.183E-03    0.906E-04
RMM:  15    -0.413664698034E+03   -0.13224E-05   -0.13753E-06  2458   0.149E-03    0.671E-04
RMM:  16    -0.413664698102E+03   -0.67441E-07   -0.14387E-06  2421   0.140E-03
  145 T=   162. E= -.41287076E+03 F= -.41366470E+03 E0= -.41364408E+03  EK= 0.79394E+00 SP= 0.00E+00 SK= 0.00E+00
       N       E                     dE             d eps       ncg     rms          rms(c)
RMM:   1    -0.413653983583E+03    0.10714E-01   -0.13281E+01  4291   0.684E+00    0.760E-01
RMM:   2    -0.413602917787E+03    0.51066E-01   -0.38876E-01  5441   0.743E-01    0.820E-01
RMM:   3    -0.413608260961E+03   -0.53432E-02   -0.73261E-02  5870   0.274E-01    0.838E-01
RMM:   4    -0.413591816607E+03    0.16444E-01   -0.15326E-02  5153   0.149E-01    0.535E-01
RMM:   5    -0.413588989001E+03    0.28276E-02   -0.23079E-02  4477   0.189E-01    0.269E-01
RMM:   6    -0.413588884696E+03    0.10431E-03   -0.20094E-02  5115   0.167E-01    0.155E-01
RMM:   7    -0.413588031823E+03    0.85287E-03   -0.33089E-03  5565   0.731E-02    0.122E-01
RMM:   8    -0.413587586650E+03    0.44517E-03   -0.82490E-04  4441   0.379E-02    0.630E-02
RMM:   9    -0.413587537655E+03    0.48995E-04   -0.11335E-03  4884   0.385E-02    0.192E-02
RMM:  10    -0.413587557884E+03   -0.20229E-04   -0.15251E-04  5783   0.142E-02    0.142E-02
RMM:  11    -0.413587558855E+03   -0.97103E-06   -0.35355E-05  4691   0.767E-03    0.634E-03
RMM:  12    -0.413587563896E+03   -0.50413E-05   -0.67493E-06  3129   0.350E-03    0.345E-03
RMM:  13    -0.413587567039E+03   -0.31420E-05   -0.23631E-06  2694   0.225E-03    0.262E-03
RMM:  14    -0.413587568491E+03   -0.14521E-05   -0.20222E-06  2639   0.197E-03    0.952E-04
RMM:  15    -0.413587569683E+03   -0.11922E-05   -0.11041E-06  2381   0.145E-03    0.553E-04
RMM:  16    -0.413587569857E+03   -0.17399E-06   -0.70135E-07  2203   0.113E-03
  146 T=   146. E= -.41286949E+03 F= -.41358757E+03 E0= -.41356675E+03  EK= 0.71808E+00 SP= 0.00E+00 SK= 0.00E+00
       N       E                     dE             d eps       ncg     rms          rms(c)
RMM:   1    -0.413625978827E+03   -0.38409E-01   -0.12525E+01  4264   0.668E+00    0.765E-01
RMM:   2    -0.413573722106E+03    0.52257E-01   -0.33421E-01  5427   0.714E-01    0.762E-01
RMM:   3    -0.413572951051E+03    0.77106E-03   -0.45936E-02  5711   0.215E-01    0.588E-01
RMM:   4    -0.413569783575E+03    0.31675E-02   -0.31688E-02  4341   0.228E-01    0.216E-01
RMM:   5    -0.413575782674E+03   -0.59991E-02   -0.15625E-02  5385   0.143E-01    0.358E-01
RMM:   6    -0.413569248804E+03    0.65339E-02   -0.41400E-03  5493   0.744E-02    0.144E-01
RMM:   7    -0.413568686669E+03    0.56214E-03   -0.12104E-03  4957   0.457E-02    0.846E-02
RMM:   8    -0.413568516825E+03    0.16984E-03   -0.13782E-03  4768   0.423E-02    0.261E-02
RMM:   9    -0.413568556666E+03   -0.39841E-04   -0.57464E-04  5981   0.256E-02    0.261E-02
RMM:  10    -0.413568548213E+03    0.84530E-05   -0.95230E-05  5456   0.118E-02    0.158E-02
RMM:  11    -0.413568543644E+03    0.45687E-05   -0.33206E-05  4973   0.733E-03    0.815E-03
RMM:  12    -0.413568547455E+03   -0.38112E-05   -0.82385E-06  3344   0.391E-03    0.371E-03
RMM:  13    -0.413568550640E+03   -0.31841E-05   -0.26472E-06  2738   0.245E-03    0.201E-03
RMM:  14    -0.413568553381E+03   -0.27418E-05   -0.16748E-06  2569   0.199E-03    0.890E-04
RMM:  15    -0.413568556023E+03   -0.26417E-05   -0.10447E-06  2480   0.158E-03    0.510E-04
RMM:  16    -0.413568557422E+03   -0.13987E-05   -0.52931E-07  2229   0.112E-03    0.324E-04
RMM:  17    -0.413568558910E+03   -0.14887E-05   -0.41030E-07  1910   0.949E-04    0.214E-04
RMM:  18    -0.413568560116E+03   -0.12052E-05   -0.33611E-07  1692   0.831E-04    0.122E-04
RMM:  19    -0.413568560519E+03   -0.40313E-06   -0.15789E-07  1232   0.665E-04
  147 T=   141. E= -.41287361E+03 F= -.41356856E+03 E0= -.41354767E+03  EK= 0.69495E+00 SP= 0.00E+00 SK= 0.00E+00
       N       E                     dE             d eps       ncg     rms          rms(c)
RMM:   1    -0.413607260154E+03   -0.38700E-01   -0.12856E+01  4264   0.680E+00    0.103E+00
RMM:   2    -0.413558979256E+03    0.48281E-01   -0.33925E-01  5408   0.756E-01    0.107E+00
RMM:   3    -0.413566603222E+03   -0.76240E-02   -0.75193E-02  5865   0.274E-01    0.104E+00
RMM:   4    -0.413547382212E+03    0.19221E-01   -0.18841E-02  4933   0.174E-01    0.649E-01
RMM:   5    -0.413548079303E+03   -0.69709E-03   -0.49150E-02  4365   0.293E-01    0.270E-01
RMM:   6    -0.413545276880E+03    0.28024E-02   -0.81139E-03  5012   0.118E-01    0.150E-01
RMM:   7    -0.413544684891E+03    0.59199E-03   -0.15825E-03  5344   0.524E-02    0.104E-01
RMM:   8    -0.413544364833E+03    0.32006E-03   -0.80204E-04  4412   0.378E-02    0.494E-02
RMM:   9    -0.413544340105E+03    0.24728E-04   -0.75729E-04  4963   0.328E-02    0.176E-02
RMM:  10    -0.413544347758E+03   -0.76536E-05   -0.13412E-04  5903   0.131E-02    0.135E-02
RMM:  11    -0.413544347144E+03    0.61422E-06   -0.33412E-05  4926   0.745E-03    0.658E-03
RMM:  12    -0.413544352424E+03   -0.52803E-05   -0.66495E-06  3209   0.357E-03    0.372E-03
RMM:  13    -0.413544356803E+03   -0.43792E-05   -0.21315E-06  2687   0.226E-03    0.216E-03
RMM:  14    -0.413544361387E+03   -0.45833E-05   -0.12143E-06  2538   0.176E-03    0.957E-04
RMM:  15    -0.413544366207E+03   -0.48199E-05   -0.90557E-07  2449   0.140E-03    0.467E-04
RMM:  16    -0.413544369044E+03   -0.28370E-05   -0.45856E-07  1970   0.975E-04    0.264E-04
RMM:  17    -0.413544372852E+03   -0.38080E-05   -0.49764E-07  1969   0.962E-04    0.199E-04
RMM:  18    -0.413544376784E+03   -0.39323E-05   -0.51212E-07  1947   0.919E-04    0.149E-04
RMM:  19    -0.413544378659E+03   -0.18755E-05   -0.24215E-07  1346   0.689E-04    0.802E-05
RMM:  20    -0.413544381296E+03   -0.26367E-05   -0.23684E-07  1409   0.696E-04    0.681E-05
RMM:  21    -0.413544382137E+03   -0.84056E-06   -0.11085E-07  1093   0.592E-04
  148 T=   135. E= -.41288137E+03 F= -.41354438E+03 E0= -.41352350E+03  EK= 0.66301E+00 SP= 0.00E+00 SK= 0.00E+00
       N       E                     dE             d eps       ncg     rms          rms(c)
RMM:   1    -0.413469503898E+03    0.74877E-01   -0.11617E+01  4264   0.656E+00    0.134E+00
RMM:   2    -0.413455971438E+03    0.13532E-01   -0.33255E-01  5400   0.757E-01    0.139E+00
RMM:   3    -0.413447778874E+03    0.81926E-02   -0.88359E-02  5619   0.314E-01    0.127E+00
RMM:   4    -0.413424750522E+03    0.23028E-01   -0.41533E-02  4976   0.262E-01    0.634E-01
RMM:   5    -0.413427253243E+03   -0.25027E-02   -0.48315E-02  4617   0.290E-01    0.338E-01
RMM:   6    -0.413422649521E+03    0.46037E-02   -0.83238E-03  4692   0.127E-01    0.153E-01
RMM:   7    -0.413422083649E+03    0.56587E-03   -0.14210E-03  5080   0.536E-02    0.835E-02
RMM:   8    -0.413421887821E+03    0.19583E-03   -0.95349E-04  4516   0.401E-02    0.305E-02
RMM:   9    -0.413421903997E+03   -0.16176E-04   -0.39780E-04  5903   0.223E-02    0.144E-02
RMM:  10    -0.413421907206E+03   -0.32083E-05   -0.67389E-05  5644   0.904E-03    0.102E-02
RMM:  11    -0.413421909884E+03   -0.26783E-05   -0.18185E-05  4414   0.571E-03    0.509E-03
RMM:  12    -0.413421915453E+03   -0.55689E-05   -0.39722E-06  2902   0.287E-03    0.274E-03
RMM:  13    -0.413421920708E+03   -0.52550E-05   -0.14755E-06  2604   0.189E-03    0.162E-03
RMM:  14    -0.413421926218E+03   -0.55105E-05   -0.10241E-06  2527   0.157E-03    0.752E-04
RMM:  15    -0.413421930559E+03   -0.43402E-05   -0.70430E-07  2300   0.120E-03    0.426E-04
RMM:  16    -0.413421935263E+03   -0.47043E-05   -0.62439E-07  2108   0.106E-03    0.272E-04
RMM:  17    -0.413421940455E+03   -0.51920E-05   -0.66680E-07  2111   0.101E-03    0.251E-04
RMM:  18    -0.413421944512E+03   -0.40573E-05   -0.47933E-07  1673   0.860E-04    0.151E-04
RMM:  19    -0.413421947664E+03   -0.31521E-05   -0.33982E-07  1513   0.776E-04    0.972E-05
RMM:  20    -0.413421949840E+03   -0.21757E-05   -0.20879E-07  1310   0.684E-04    0.719E-05
RMM:  21    -0.413421951187E+03   -0.13476E-05   -0.12290E-07  1117   0.617E-04    0.413E-05
RMM:  22    -0.413421952028E+03   -0.84026E-06   -0.68638E-08   987   0.576E-04
  149 T=   111. E= -.41287839E+03 F= -.41342195E+03 E0= -.41340113E+03  EK= 0.54356E+00 SP= 0.00E+00 SK= 0.00E+00
       N       E                     dE             d eps       ncg     rms          rms(c)
RMM:   1    -0.413289762098E+03    0.13219E+00   -0.73606E+00  4264   0.534E+00    0.944E-01
RMM:   2    -0.413302192876E+03   -0.12431E-01   -0.20025E-01  5421   0.566E-01    0.101E+00
RMM:   3    -0.413293113457E+03    0.90794E-02   -0.54506E-02  5590   0.248E-01    0.887E-01
RMM:   4    -0.413280505416E+03    0.12608E-01   -0.28797E-02  5060   0.213E-01    0.427E-01
RMM:   5    -0.413281150814E+03   -0.64540E-03   -0.24507E-02  4678   0.210E-01    0.231E-01
RMM:   6    -0.413278851660E+03    0.22992E-02   -0.45480E-03  4716   0.930E-02    0.103E-01
RMM:   7    -0.413278582656E+03    0.26900E-03   -0.88442E-04  4951   0.424E-02    0.474E-02
RMM:   8    -0.413278549355E+03    0.33301E-04   -0.46566E-04  4695   0.282E-02    0.202E-02
RMM:   9    -0.413278559113E+03   -0.97577E-05   -0.12939E-04  5826   0.126E-02    0.105E-02
RMM:  10    -0.413278559423E+03   -0.31007E-06   -0.24474E-05  4854   0.593E-03    0.646E-03
RMM:  11    -0.413278562726E+03   -0.33029E-05   -0.75693E-06  3344   0.370E-03    0.400E-03
RMM:  12    -0.413278565745E+03   -0.30195E-05   -0.17388E-06  2600   0.222E-03    0.224E-03
RMM:  13    -0.413278569201E+03   -0.34563E-05   -0.97692E-07  2519   0.165E-03    0.104E-03
RMM:  14    -0.413278572039E+03   -0.28370E-05   -0.61671E-07  2321   0.122E-03    0.554E-04
RMM:  15    -0.413278574826E+03   -0.27876E-05   -0.44603E-07  2038   0.101E-03    0.296E-04
RMM:  16    -0.413278577748E+03   -0.29217E-05   -0.37115E-07  1863   0.898E-04    0.205E-04
RMM:  17    -0.413278581136E+03   -0.33883E-05   -0.34382E-07  1714   0.832E-04    0.179E-04
RMM:  18    -0.413278584155E+03   -0.30185E-05   -0.27961E-07  1496   0.761E-04    0.950E-05
RMM:  19    -0.413278586101E+03   -0.19462E-05   -0.17977E-07  1263   0.677E-04    0.782E-05
RMM:  20    -0.413278587820E+03   -0.17192E-05   -0.13160E-07  1196   0.641E-04    0.468E-05
RMM:  21    -0.413278588479E+03   -0.65857E-06   -0.73164E-08  1007   0.590E-04
  150 T=    85. E= -.41286194E+03 F= -.41327859E+03 E0= -.41325781E+03  EK= 0.41665E+00 SP= 0.00E+00 SK= 0.00E+00
