       N       E                     dE             d eps       ncg     rms          rms(c)
RMM:   1     0.220112726512E+04    0.22011E+04   -0.52445E+04  2132   0.654E+02
RMM:   2     0.705594945413E+03   -0.14955E+04   -0.16264E+04  2132   0.177E+02
RMM:   3     0.137539191246E+03   -0.56806E+03   -0.65721E+03  2132   0.117E+02
RMM:   4    -0.159055499498E+03   -0.29659E+03   -0.27847E+03  2132   0.936E+01
RMM:   5    -0.287518740073E+03   -0.12846E+03   -0.11441E+03  2132   0.595E+01
RMM:   6    -0.349794279838E+03   -0.62276E+02   -0.55115E+02  2132   0.423E+01
RMM:   7    -0.382651669070E+03   -0.32857E+02   -0.30410E+02  2132   0.293E+01
RMM:   8    -0.404138677842E+03   -0.21487E+02   -0.18426E+02  2132   0.233E+01
RMM:   9    -0.436021096480E+03   -0.31882E+02   -0.30804E+02  6103   0.173E+01
RMM:  10    -0.441278185604E+03   -0.52571E+01   -0.63048E+01  6389   0.540E+00
RMM:  11    -0.442518493342E+03   -0.12403E+01   -0.11075E+01  6219   0.173E+00
RMM:  12    -0.442893534502E+03   -0.37504E+00   -0.28506E+00  6361   0.605E-01    0.134E+02
RMM:  13    -0.425627422282E+03    0.17266E+02   -0.81290E+01  4681   0.119E+01    0.712E+01
RMM:  14    -0.499715910875E+03   -0.74088E+02   -0.54312E+02  5426   0.233E+01    0.307E+01
RMM:  15    -0.416208236789E+03    0.83508E+02   -0.20105E+02  5102   0.164E+01    0.724E+00
RMM:  16    -0.413989080737E+03    0.22192E+01   -0.39925E+01  6084   0.613E+00    0.423E+00
RMM:  17    -0.413211499875E+03    0.77758E+00   -0.25812E+00  5419   0.188E+00    0.243E+00
RMM:  18    -0.413173374445E+03    0.38125E-01   -0.77292E-01  5977   0.900E-01    0.167E+00
RMM:  19    -0.413169194534E+03    0.41799E-02   -0.27265E-01  5710   0.562E-01    0.875E-01
RMM:  20    -0.413188104067E+03   -0.18910E-01   -0.26238E-01  5591   0.533E-01    0.615E-01
RMM:  21    -0.413167765064E+03    0.20339E-01   -0.34487E-02  5011   0.236E-01    0.284E-01
RMM:  22    -0.413164908104E+03    0.28570E-02   -0.21244E-02  5928   0.136E-01    0.134E-01
RMM:  23    -0.413164083678E+03    0.82443E-03   -0.54684E-03  6047   0.650E-02    0.847E-02
RMM:  24    -0.413162937536E+03    0.11461E-02   -0.17042E-03  5310   0.418E-02    0.507E-02
RMM:  25    -0.413162493642E+03    0.44389E-03   -0.87752E-04  5091   0.286E-02    0.410E-02
RMM:  26    -0.413162640890E+03   -0.14725E-03   -0.10513E-03  5808   0.326E-02    0.344E-02
RMM:  27    -0.413163074186E+03   -0.43330E-03   -0.20165E-04  4547   0.201E-02    0.194E-02
RMM:  28    -0.413163524976E+03   -0.45079E-03   -0.17042E-04  5144   0.179E-02    0.894E-03
RMM:  29    -0.413163920005E+03   -0.39503E-03   -0.10933E-04  4520   0.152E-02    0.441E-03
RMM:  30    -0.413164155459E+03   -0.23545E-03   -0.78692E-05  4398   0.103E-02    0.419E-03
RMM:  31    -0.413164303272E+03   -0.14781E-03   -0.59676E-05  3261   0.754E-03    0.344E-03
RMM:  32    -0.413164329647E+03   -0.26375E-04   -0.22298E-05  3000   0.312E-03    0.193E-03
RMM:  33    -0.413164343128E+03   -0.13481E-04   -0.91778E-06  2819   0.235E-03    0.612E-04
RMM:  34    -0.413164345501E+03   -0.23724E-05   -0.49594E-06  2624   0.157E-03    0.567E-04
RMM:  35    -0.413164345925E+03   -0.42457E-06   -0.22702E-06  2377   0.128E-03
    1 T=    61. E= -.41286653E+03 F= -.41316435E+03 E0= -.41314185E+03  EK= 0.29782E+00 SP= 0.00E+00 SK= 0.00E+00
       N       E                     dE             d eps       ncg     rms          rms(c)
RMM:   1    -0.413156615796E+03    0.77297E-02   -0.10629E+01  4008   0.680E-01    0.886E-01
RMM:   2    -0.413166262126E+03   -0.96463E-02   -0.13052E-01  3922   0.961E-02    0.643E-01
RMM:   3    -0.413164207197E+03    0.20549E-02   -0.80603E-03  4743   0.380E-02    0.134E-01
RMM:   4    -0.413183170765E+03   -0.18964E-01   -0.19878E-02  5212   0.117E-01    0.576E-01
RMM:   5    -0.413163896125E+03    0.19275E-01   -0.95682E-03  4858   0.966E-02    0.360E-02
RMM:   6    -0.413164025161E+03   -0.12904E-03   -0.15684E-03  5808   0.384E-02    0.232E-02
RMM:   7    -0.413164037577E+03   -0.12415E-04   -0.24823E-04  5814   0.140E-02    0.146E-02
RMM:   8    -0.413164042500E+03   -0.49233E-05   -0.36270E-05  4717   0.615E-03    0.642E-03
RMM:   9    -0.413164046805E+03   -0.43048E-05   -0.77385E-06  3217   0.306E-03    0.497E-03
RMM:  10    -0.413164051960E+03   -0.51555E-05   -0.15069E-06  2562   0.178E-03    0.327E-03
RMM:  11    -0.413164059189E+03   -0.72283E-05   -0.13511E-06  2532   0.166E-03    0.146E-03
RMM:  12    -0.413164065595E+03   -0.64063E-05   -0.10760E-06  2449   0.141E-03    0.637E-04
RMM:  13    -0.413164066151E+03   -0.55573E-06   -0.41197E-07  1950   0.914E-04
    2 T=    61. E= -.41286624E+03 F= -.41316407E+03 E0= -.41314157E+03  EK= 0.29783E+00 SP= 0.00E+00 SK= 0.00E+00
       N       E                     dE             d eps       ncg     rms          rms(c)
RMM:   1    -0.413157676729E+03    0.63889E-02   -0.10659E+01  4191   0.683E-01    0.909E-01
RMM:   2    -0.413166327710E+03   -0.86510E-02   -0.12829E-01  3962   0.945E-02    0.636E-01
RMM:   3    -0.413164745980E+03    0.15817E-02   -0.82673E-03  4830   0.374E-02    0.148E-01
RMM:   4    -0.413188574722E+03   -0.23829E-01   -0.24303E-02  5188   0.130E-01    0.645E-01
RMM:   5    -0.413164428448E+03    0.24146E-01   -0.11771E-02  4838   0.108E-01    0.396E-02
RMM:   6    -0.413164587002E+03   -0.15855E-03   -0.19647E-03  5815   0.429E-02    0.250E-02
RMM:   7    -0.413164593235E+03   -0.62327E-05   -0.28189E-04  5813   0.151E-02    0.160E-02
RMM:   8    -0.413164591853E+03    0.13820E-05   -0.45982E-05  4934   0.695E-03    0.762E-03
RMM:   9    -0.413164591401E+03    0.45200E-06   -0.93752E-06  3517   0.348E-03
    3 T=    61. E= -.41286646E+03 F= -.41316459E+03 E0= -.41314210E+03  EK= 0.29813E+00 SP= 0.00E+00 SK= 0.00E+00
       N       E                     dE             d eps       ncg     rms          rms(c)
RMM:   1    -0.413157104204E+03    0.74876E-02   -0.10576E+01  4225   0.684E-01    0.893E-01
RMM:   2    -0.413166217093E+03   -0.91129E-02   -0.12746E-01  4326   0.967E-02    0.631E-01
RMM:   3    -0.413172131870E+03   -0.59148E-02   -0.14289E-02  5190   0.874E-02    0.397E-01
RMM:   4    -0.413182225126E+03   -0.10093E-01   -0.34395E-02  5099   0.160E-01    0.559E-01
RMM:   5    -0.413164400719E+03    0.17824E-01   -0.64112E-03  4658   0.936E-02    0.551E-02
RMM:   6    -0.413164338558E+03    0.62161E-04   -0.12082E-03  5340   0.353E-02    0.242E-02
RMM:   7    -0.413164355999E+03   -0.17440E-04   -0.24750E-04  5990   0.153E-02    0.154E-02
RMM:   8    -0.413164356351E+03   -0.35235E-06   -0.46096E-05  5235   0.757E-03    0.665E-03
RMM:   9    -0.413164356530E+03   -0.17961E-06   -0.10137E-05  3787   0.396E-03    0.362E-03
RMM:  10    -0.413164357791E+03   -0.12603E-05   -0.12482E-06  2530   0.192E-03    0.221E-03
RMM:  11    -0.413164360099E+03   -0.23083E-05   -0.12406E-06  2530   0.175E-03    0.137E-03
RMM:  12    -0.413164361322E+03   -0.12233E-05   -0.55222E-07  2380   0.121E-03    0.458E-04
RMM:  13    -0.413164362198E+03   -0.87539E-06   -0.29609E-07  1621   0.808E-04
    4 T=    61. E= -.41286622E+03 F= -.41316436E+03 E0= -.41314187E+03  EK= 0.29815E+00 SP= 0.00E+00 SK= 0.00E+00
       N       E                     dE             d eps       ncg     rms          rms(c)
RMM:   1    -0.413156984228E+03    0.73771E-02   -0.10622E+01  4235   0.691E-01    0.883E-01
RMM:   2    -0.413166689883E+03   -0.97057E-02   -0.13072E-01  4034   0.948E-02    0.642E-01
RMM:   3    -0.413164811941E+03    0.18779E-02   -0.81170E-03  4893   0.397E-02    0.145E-01
RMM:   4    -0.413194551522E+03   -0.29740E-01   -0.30553E-02  5165   0.146E-01    0.719E-01
RMM:   5    -0.413164314661E+03    0.30237E-01   -0.14652E-02  4815   0.120E-01    0.414E-02
RMM:   6    -0.413164506711E+03   -0.19205E-03   -0.24276E-03  5770   0.476E-02    0.245E-02
RMM:   7    -0.413164522779E+03   -0.16068E-04   -0.33008E-04  5870   0.156E-02    0.163E-02
RMM:   8    -0.413164527366E+03   -0.45869E-05   -0.50405E-05  4990   0.706E-03    0.792E-03
RMM:   9    -0.413164530466E+03   -0.30998E-05   -0.10894E-05  3630   0.366E-03    0.563E-03
RMM:  10    -0.413164535166E+03   -0.47006E-05   -0.17501E-06  2572   0.195E-03    0.371E-03
RMM:  11    -0.413164541603E+03   -0.64370E-05   -0.16430E-06  2575   0.190E-03    0.162E-03
RMM:  12    -0.413164546623E+03   -0.50198E-05   -0.11052E-06  2500   0.156E-03    0.650E-04
RMM:  13    -0.413164546994E+03   -0.37146E-06   -0.33249E-07  2063   0.974E-04
    5 T=    61. E= -.41286633E+03 F= -.41316455E+03 E0= -.41314207E+03  EK= 0.29821E+00 SP= 0.00E+00 SK= 0.00E+00
       N       E                     dE             d eps       ncg     rms          rms(c)
RMM:   1    -0.413157946627E+03    0.66000E-02   -0.10659E+01  4250   0.696E-01    0.904E-01
RMM:   2    -0.413166859055E+03   -0.89124E-02   -0.12851E-01  4091   0.962E-02    0.638E-01
RMM:   3    -0.413165249373E+03    0.16097E-02   -0.81823E-03  4765   0.396E-02    0.146E-01
RMM:   4    -0.413188434913E+03   -0.23186E-01   -0.23513E-02  5156   0.128E-01    0.637E-01
RMM:   5    -0.413164870901E+03    0.23564E-01   -0.11519E-02  4828   0.106E-01    0.387E-02
RMM:   6    -0.413165020282E+03   -0.14938E-03   -0.19011E-03  5798   0.419E-02    0.242E-02
RMM:   7    -0.413165026514E+03   -0.62323E-05   -0.26990E-04  5807   0.147E-02    0.157E-02
RMM:   8    -0.413165024423E+03    0.20909E-05   -0.46084E-05  4911   0.694E-03    0.768E-03
RMM:   9    -0.413165023481E+03    0.94285E-06   -0.91588E-06  3507   0.351E-03
    6 T=    61. E= -.41286660E+03 F= -.41316502E+03 E0= -.41314256E+03  EK= 0.29842E+00 SP= 0.00E+00 SK= 0.00E+00
       N       E                     dE             d eps       ncg     rms          rms(c)
RMM:   1    -0.413157738054E+03    0.72864E-02   -0.10603E+01  4270   0.700E-01    0.900E-01
RMM:   2    -0.413166470694E+03   -0.87326E-02   -0.12762E-01  4354   0.956E-02    0.631E-01
RMM:   3    -0.413172614719E+03   -0.61440E-02   -0.14558E-02  5164   0.878E-02    0.401E-01
RMM:   4    -0.413182066196E+03   -0.94515E-02   -0.33854E-02  5081   0.159E-01    0.551E-01
RMM:   5    -0.413164838787E+03    0.17227E-01   -0.61718E-03  4646   0.920E-02    0.545E-02
RMM:   6    -0.413164777673E+03    0.61114E-04   -0.11805E-03  5331   0.346E-02    0.244E-02
RMM:   7    -0.413164791043E+03   -0.13371E-04   -0.23613E-04  5974   0.150E-02    0.154E-02
RMM:   8    -0.413164789227E+03    0.18164E-05   -0.44939E-05  5204   0.751E-03    0.655E-03
RMM:   9    -0.413164787013E+03    0.22135E-05   -0.92896E-06  3673   0.385E-03    0.354E-03
RMM:  10    -0.413164787347E+03   -0.33403E-06   -0.11864E-06  2520   0.190E-03
    7 T=    61. E= -.41286633E+03 F= -.41316479E+03 E0= -.41314234E+03  EK= 0.29845E+00 SP= 0.00E+00 SK= 0.00E+00
       N       E                     dE             d eps       ncg     rms          rms(c)
RMM:   1    -0.413162630389E+03    0.21566E-02   -0.10650E+01  4270   0.735E-01    0.882E-01
RMM:   2    -0.413167425745E+03   -0.47954E-02   -0.13337E-01  4108   0.953E-02    0.640E-01
RMM:   3    -0.413165566068E+03    0.18597E-02   -0.79356E-03  4848   0.390E-02    0.147E-01
RMM:   4    -0.413191884195E+03   -0.26318E-01   -0.26885E-02  5149   0.136E-01    0.677E-01
RMM:   5    -0.413165152785E+03    0.26731E-01   -0.13025E-02  4817   0.113E-01    0.401E-02
RMM:   6    -0.413165321747E+03   -0.16896E-03   -0.21232E-03  5768   0.447E-02    0.242E-02
RMM:   7    -0.413165333530E+03   -0.11782E-04   -0.30364E-04  5851   0.150E-02    0.156E-02
RMM:   8    -0.413165336462E+03   -0.29319E-05   -0.42518E-05  4832   0.657E-03    0.710E-03
RMM:   9    -0.413165338750E+03   -0.22886E-05   -0.94267E-06  3435   0.338E-03    0.528E-03
RMM:  10    -0.413165342044E+03   -0.32941E-05   -0.15117E-06  2551   0.187E-03    0.347E-03
RMM:  11    -0.413165346742E+03   -0.46979E-05   -0.15663E-06  2560   0.185E-03    0.147E-03
RMM:  12    -0.413165349974E+03   -0.32322E-05   -0.10558E-06  2485   0.150E-03    0.663E-04
RMM:  13    -0.413165350055E+03   -0.80498E-07   -0.30081E-07  1953   0.924E-04
    8 T=    61. E= -.41286654E+03 F= -.41316535E+03 E0= -.41314292E+03  EK= 0.29881E+00 SP= 0.00E+00 SK= 0.00E+00
       N       E                     dE             d eps       ncg     rms          rms(c)
RMM:   1    -0.413158455395E+03    0.68946E-02   -0.10664E+01  4289   0.717E-01    0.899E-01
RMM:   2    -0.413167479596E+03   -0.90242E-02   -0.12939E-01  4172   0.976E-02    0.641E-01
RMM:   3    -0.413165751944E+03    0.17277E-02   -0.81954E-03  4780   0.393E-02    0.144E-01
RMM:   4    -0.413190143870E+03   -0.24392E-01   -0.24880E-02  5152   0.131E-01    0.653E-01
RMM:   5    -0.413165337730E+03    0.24806E-01   -0.12152E-02  4818   0.109E-01    0.388E-02
RMM:   6    -0.413165495287E+03   -0.15756E-03   -0.19790E-03  5812   0.428E-02    0.241E-02
RMM:   7    -0.413165503906E+03   -0.86186E-05   -0.27311E-04  5805   0.149E-02    0.156E-02
RMM:   8    -0.413165502952E+03    0.95355E-06   -0.47914E-05  4930   0.702E-03    0.784E-03
RMM:   9    -0.413165501974E+03    0.97832E-06   -0.96900E-06  3561   0.359E-03
    9 T=    61. E= -.41286636E+03 F= -.41316550E+03 E0= -.41314309E+03  EK= 0.29914E+00 SP= 0.00E+00 SK= 0.00E+00
       N       E                     dE             d eps       ncg     rms          rms(c)
RMM:   1    -0.413158640129E+03    0.68628E-02   -0.10647E+01  4296   0.714E-01    0.907E-01
RMM:   2    -0.413167195386E+03   -0.85553E-02   -0.12789E-01  4367   0.960E-02    0.633E-01
RMM:   3    -0.413173645361E+03   -0.64500E-02   -0.14907E-02  5151   0.898E-02    0.407E-01
RMM:   4    -0.413182217941E+03   -0.85726E-02   -0.33516E-02  5066   0.158E-01    0.542E-01
RMM:   5    -0.413165624421E+03    0.16594E-01   -0.58970E-03  4624   0.903E-02    0.535E-02
RMM:   6    -0.413165568276E+03    0.56145E-04   -0.11532E-03  5335   0.337E-02    0.246E-02
RMM:   7    -0.413165579904E+03   -0.11627E-04   -0.22406E-04  5954   0.147E-02    0.152E-02
RMM:   8    -0.413165576665E+03    0.32383E-05   -0.43644E-05  5161   0.745E-03    0.640E-03
RMM:   9    -0.413165572830E+03    0.38348E-05   -0.84672E-06  3525   0.374E-03    0.346E-03
RMM:  10    -0.413165572361E+03    0.46979E-06   -0.11670E-06  2510   0.190E-03
   10 T=    61. E= -.41286612E+03 F= -.41316557E+03 E0= -.41314319E+03  EK= 0.29945E+00 SP= 0.00E+00 SK= 0.00E+00
       N       E                     dE             d eps       ncg     rms          rms(c)
RMM:   1    -0.413158839106E+03    0.67337E-02   -0.10599E+01  4299   0.717E-01    0.883E-01
RMM:   2    -0.413168319471E+03   -0.94804E-02   -0.12941E-01  4179   0.950E-02    0.637E-01
RMM:   3    -0.413166684184E+03    0.16353E-02   -0.79951E-03  4869   0.410E-02    0.148E-01
RMM:   4    -0.413196146153E+03   -0.29462E-01   -0.30312E-02  5148   0.145E-01    0.716E-01
RMM:   5    -0.413166133259E+03    0.30013E-01   -0.14678E-02  4809   0.119E-01    0.418E-02
RMM:   6    -0.413166312437E+03   -0.17918E-03   -0.23545E-03  5762   0.472E-02    0.250E-02
RMM:   7    -0.413166321784E+03   -0.93473E-05   -0.32841E-04  5878   0.157E-02    0.163E-02
RMM:   8    -0.413166322093E+03   -0.30870E-06   -0.47745E-05  4944   0.694E-03    0.762E-03
RMM:   9    -0.413166322016E+03    0.76278E-07   -0.10738E-05  3573   0.360E-03    0.548E-03
RMM:  10    -0.413166323482E+03   -0.14658E-05   -0.16602E-06  2551   0.193E-03    0.358E-03
RMM:  11    -0.413166325507E+03   -0.20249E-05   -0.15821E-06  2556   0.189E-03    0.154E-03
RMM:  12    -0.413166326688E+03   -0.11813E-05   -0.10712E-06  2491   0.153E-03    0.663E-04
RMM:  13    -0.413166326733E+03   -0.44594E-07   -0.32961E-07  2049   0.967E-04
   11 T=    61. E= -.41286643E+03 F= -.41316633E+03 E0= -.41314397E+03  EK= 0.29990E+00 SP= 0.00E+00 SK= 0.00E+00
       N       E                     dE             d eps       ncg     rms          rms(c)
RMM:   1    -0.413159085717E+03    0.72410E-02   -0.10677E+01  4294   0.730E-01    0.894E-01
RMM:   2    -0.413168333843E+03   -0.92481E-02   -0.13078E-01  4235   0.977E-02    0.644E-01
RMM:   3    -0.413166541136E+03    0.17927E-02   -0.82058E-03  4843   0.406E-02    0.146E-01
RMM:   4    -0.413195014392E+03   -0.28473E-01   -0.29239E-02  5146   0.142E-01    0.704E-01
RMM:   5    -0.413166055854E+03    0.28959E-01   -0.14130E-02  4802   0.117E-01    0.407E-02
RMM:   6    -0.413166239052E+03   -0.18320E-03   -0.23458E-03  5797   0.463E-02    0.246E-02
RMM:   7    -0.413166249923E+03   -0.10872E-04   -0.31032E-04  5833   0.155E-02    0.163E-02
RMM:   8    -0.413166249797E+03    0.12586E-06   -0.53208E-05  4988   0.730E-03    0.842E-03
RMM:   9    -0.413166248676E+03    0.11211E-05   -0.11352E-05  3744   0.382E-03    0.603E-03
RMM:  10    -0.413166250023E+03   -0.13467E-05   -0.16908E-06  2557   0.198E-03    0.394E-03
RMM:  11    -0.413166252007E+03   -0.19838E-05   -0.19018E-06  2586   0.208E-03    0.171E-03
RMM:  12    -0.413166253107E+03   -0.11000E-05   -0.10647E-06  2493   0.160E-03    0.685E-04
RMM:  13    -0.413166253139E+03   -0.32665E-07   -0.33301E-07  2088   0.983E-04
   12 T=    61. E= -.41286622E+03 F= -.41316625E+03 E0= -.41314392E+03  EK= 0.30003E+00 SP= 0.00E+00 SK= 0.00E+00
       N       E                     dE             d eps       ncg     rms          rms(c)
RMM:   1    -0.413160023685E+03    0.62294E-02   -0.10680E+01  4297   0.727E-01    0.912E-01
RMM:   2    -0.413168404809E+03   -0.83811E-02   -0.12810E-01  4236   0.941E-02    0.636E-01
RMM:   3    -0.413167156277E+03    0.12485E-02   -0.83954E-03  4881   0.379E-02    0.154E-01
RMM:   4    -0.413194971835E+03   -0.27816E-01   -0.28533E-02  5144   0.140E-01    0.696E-01
RMM:   5    -0.413166678298E+03    0.28294E-01   -0.13814E-02  4805   0.116E-01    0.420E-02
RMM:   6    -0.413166854955E+03   -0.17666E-03   -0.23166E-03  5803   0.460E-02    0.260E-02
RMM:   7    -0.413166857693E+03   -0.27379E-05   -0.31114E-04  5806   0.157E-02    0.168E-02
RMM:   8    -0.413166851973E+03    0.57202E-05   -0.53491E-05  4978   0.739E-03    0.857E-03
RMM:   9    -0.413166847176E+03    0.47963E-05   -0.11225E-05  3733   0.380E-03    0.625E-03
RMM:  10    -0.413166844648E+03    0.25287E-05   -0.16376E-06  2554   0.199E-03    0.405E-03
RMM:  11    -0.413166841155E+03    0.34930E-05   -0.16932E-06  2557   0.200E-03    0.182E-03
RMM:  12    -0.413166837689E+03    0.34660E-05   -0.11117E-06  2494   0.164E-03    0.682E-04
RMM:  13    -0.413166837294E+03    0.39482E-06   -0.34692E-07  2134   0.102E-03
   13 T=    61. E= -.41286640E+03 F= -.41316684E+03 E0= -.41314454E+03  EK= 0.30044E+00 SP= 0.00E+00 SK= 0.00E+00
       N       E                     dE             d eps       ncg     rms          rms(c)
RMM:   1    -0.413160141855E+03    0.66958E-02   -0.10598E+01  4297   0.728E-01    0.887E-01
RMM:   2    -0.413169401716E+03   -0.92599E-02   -0.12915E-01  4246   0.946E-02    0.635E-01
RMM:   3    -0.413167776570E+03    0.16251E-02   -0.80335E-03  4811   0.396E-02    0.147E-01
RMM:   4    -0.413194235531E+03   -0.26459E-01   -0.27096E-02  5146   0.137E-01    0.679E-01
RMM:   5    -0.413167338136E+03    0.26897E-01   -0.13140E-02  4809   0.113E-01    0.400E-02
RMM:   6    -0.413167508650E+03   -0.17051E-03   -0.22039E-03  5809   0.446E-02    0.246E-02
RMM:   7    -0.413167514811E+03   -0.61604E-05   -0.28759E-04  5817   0.151E-02    0.159E-02
RMM:   8    -0.413167511895E+03    0.29157E-05   -0.52032E-05  4961   0.726E-03    0.831E-03
RMM:   9    -0.413167509160E+03    0.27349E-05   -0.10954E-05  3741   0.379E-03    0.607E-03
RMM:  10    -0.413167508964E+03    0.19640E-06   -0.16060E-06  2551   0.196E-03
   14 T=    61. E= -.41286654E+03 F= -.41316751E+03 E0= -.41314524E+03  EK= 0.30097E+00 SP= 0.00E+00 SK= 0.00E+00
       N       E                     dE             d eps       ncg     rms          rms(c)
RMM:   1    -0.413160284262E+03    0.72249E-02   -0.10686E+01  4302   0.739E-01    0.891E-01
RMM:   2    -0.413169834476E+03   -0.95502E-02   -0.13139E-01  4281   0.986E-02    0.646E-01
RMM:   3    -0.413170057757E+03   -0.22328E-03   -0.10006E-02  5091   0.605E-02    0.248E-01
RMM:   4    -0.413207800274E+03   -0.37743E-01   -0.49480E-02  5121   0.186E-01    0.827E-01
RMM:   5    -0.413167369423E+03    0.40431E-01   -0.17973E-02  4760   0.137E-01    0.542E-02
RMM:   6    -0.413167513701E+03   -0.14428E-03   -0.29142E-03  5657   0.536E-02    0.236E-02
RMM:   7    -0.413167538368E+03   -0.24667E-04   -0.40091E-04  6009   0.166E-02    0.164E-02
RMM:   8    -0.413167541552E+03   -0.31842E-05   -0.62832E-05  5246   0.796E-03    0.793E-03
RMM:   9    -0.413167540357E+03    0.11951E-05   -0.11815E-05  3555   0.377E-03    0.367E-03
RMM:  10    -0.413167541871E+03   -0.15140E-05   -0.26437E-06  2608   0.218E-03    0.256E-03
RMM:  11    -0.413167543211E+03   -0.13396E-05   -0.11541E-06  2509   0.165E-03    0.132E-03
RMM:  12    -0.413167543986E+03   -0.77493E-06   -0.73055E-07  2423   0.129E-03
   15 T=    61. E= -.41286617E+03 F= -.41316754E+03 E0= -.41314531E+03  EK= 0.30137E+00 SP= 0.00E+00 SK= 0.00E+00
       N       E                     dE             d eps       ncg     rms          rms(c)
RMM:   1    -0.413161811299E+03    0.57319E-02   -0.10714E+01  4295   0.738E-01    0.914E-01
RMM:   2    -0.413170333733E+03   -0.85224E-02   -0.12892E-01  4264   0.977E-02    0.639E-01
RMM:   3    -0.413169054082E+03    0.12797E-02   -0.85969E-03  4935   0.424E-02    0.163E-01
RMM:   4    -0.413204609918E+03   -0.35556E-01   -0.37124E-02  5142   0.160E-01    0.785E-01
RMM:   5    -0.413168354695E+03    0.36255E-01   -0.17594E-02  4797   0.131E-01    0.459E-02
RMM:   6    -0.413168568173E+03   -0.21348E-03   -0.29314E-03  5770   0.522E-02    0.274E-02
RMM:   7    -0.413168575280E+03   -0.71071E-05   -0.38536E-04  5851   0.172E-02    0.182E-02
RMM:   8    -0.413168569745E+03    0.55351E-05   -0.62949E-05  5076   0.792E-03    0.948E-03
RMM:   9    -0.413168563499E+03    0.62459E-05   -0.13398E-05  3911   0.408E-03    0.648E-03
RMM:  10    -0.413168560083E+03    0.34153E-05   -0.21241E-06  2585   0.212E-03    0.418E-03
RMM:  11    -0.413168556149E+03    0.39342E-05   -0.15773E-06  2535   0.195E-03    0.197E-03
RMM:  12    -0.413168551616E+03    0.45332E-05   -0.12758E-06  2517   0.175E-03    0.682E-04
RMM:  13    -0.413168550785E+03    0.83083E-06   -0.39839E-07  2230   0.111E-03
   16 T=    62. E= -.41286640E+03 F= -.41316855E+03 E0= -.41314635E+03  EK= 0.30215E+00 SP= 0.00E+00 SK= 0.00E+00
       N       E                     dE             d eps       ncg     rms          rms(c)
RMM:   1    -0.413161742163E+03    0.68095E-02   -0.10633E+01  4297   0.739E-01    0.894E-01
RMM:   2    -0.413170932380E+03   -0.91902E-02   -0.12941E-01  4265   0.964E-02    0.635E-01
RMM:   3    -0.413169287367E+03    0.16450E-02   -0.81401E-03  4889   0.405E-02    0.155E-01
RMM:   4    -0.413200370298E+03   -0.31083E-01   -0.32098E-02  5145   0.149E-01    0.734E-01
RMM:   5    -0.413168773514E+03    0.31597E-01   -0.15433E-02  4799   0.123E-01    0.428E-02
RMM:   6    -0.413168965079E+03   -0.19156E-03   -0.26012E-03  5791   0.486E-02    0.258E-02
RMM:   7    -0.413168972920E+03   -0.78416E-05   -0.33605E-04  5821   0.161E-02    0.169E-02
RMM:   8    -0.413168969048E+03    0.38719E-05   -0.59340E-05  5030   0.764E-03    0.907E-03
RMM:   9    -0.413168964044E+03    0.50046E-05   -0.12773E-05  3900   0.402E-03    0.643E-03
RMM:  10    -0.413168961951E+03    0.20929E-05   -0.18537E-06  2563   0.206E-03    0.418E-03
RMM:  11    -0.413168959138E+03    0.28134E-05   -0.17966E-06  2561   0.206E-03    0.192E-03
RMM:  12    -0.413168956149E+03    0.29881E-05   -0.11341E-06  2495   0.169E-03    0.643E-04
RMM:  13    -0.413168955668E+03    0.48144E-06   -0.36634E-07  2168   0.105E-03
   17 T=    62. E= -.41286621E+03 F= -.41316896E+03 E0= -.41314680E+03  EK= 0.30275E+00 SP= 0.00E+00 SK= 0.00E+00
       N       E                     dE             d eps       ncg     rms          rms(c)
RMM:   1    -0.413162100501E+03    0.68556E-02   -0.10707E+01  4296   0.753E-01    0.889E-01
RMM:   2    -0.413171773114E+03   -0.96726E-02   -0.13205E-01  4271   0.990E-02    0.647E-01
RMM:   3    -0.413169864737E+03    0.19084E-02   -0.82990E-03  4878   0.417E-02    0.148E-01
RMM:   4    -0.413201488931E+03   -0.31624E-01   -0.32780E-02  5142   0.150E-01    0.741E-01
RMM:   5    -0.413169265253E+03    0.32224E-01   -0.15752E-02  4794   0.124E-01    0.423E-02
RMM:   6    -0.413169452656E+03   -0.18740E-03   -0.25732E-03  5789   0.491E-02    0.251E-02
RMM:   7    -0.413169463807E+03   -0.11151E-04   -0.33141E-04  5843   0.161E-02    0.166E-02
RMM:   8    -0.413169462879E+03    0.92848E-06   -0.58578E-05  5043   0.759E-03    0.884E-03
RMM:   9    -0.413169460277E+03    0.26014E-05   -0.12730E-05  3881   0.401E-03    0.615E-03
RMM:  10    -0.413169460641E+03   -0.36348E-06   -0.19312E-06  2577   0.205E-03
   18 T=    62. E= -.41286616E+03 F= -.41316946E+03 E0= -.41314734E+03  EK= 0.30331E+00 SP= 0.00E+00 SK= 0.00E+00
       N       E                     dE             d eps       ncg     rms          rms(c)
RMM:   1    -0.413163721882E+03    0.57384E-02   -0.10745E+01  4302   0.750E-01    0.912E-01
RMM:   2    -0.413172485719E+03   -0.87638E-02   -0.13030E-01  4300   0.976E-02    0.643E-01
RMM:   3    -0.413173896316E+03   -0.14106E-02   -0.10815E-02  5103   0.658E-02    0.277E-01
RMM:   4    -0.413204170418E+03   -0.30274E-01   -0.44278E-02  5104   0.177E-01    0.757E-01
RMM:   5    -0.413170570492E+03    0.33600E-01   -0.14460E-02  4733   0.126E-01    0.538E-02
RMM:   6    -0.413170672156E+03   -0.10166E-03   -0.24609E-03  5613   0.492E-02    0.250E-02
RMM:   7    -0.413170686276E+03   -0.14120E-04   -0.34705E-04  6001   0.159E-02    0.164E-02
RMM:   8    -0.413170682510E+03    0.37660E-05   -0.58120E-05  5211   0.789E-03    0.763E-03
RMM:   9    -0.413170675940E+03    0.65700E-05   -0.10250E-05  3442   0.366E-03    0.350E-03
RMM:  10    -0.413170673545E+03    0.23952E-05   -0.22041E-06  2565   0.211E-03    0.241E-03
RMM:  11    -0.413170669798E+03    0.37468E-05   -0.11121E-06  2513   0.166E-03    0.130E-03
RMM:  12    -0.413170666454E+03    0.33443E-05   -0.60073E-07  2403   0.127E-03    0.422E-04
RMM:  13    -0.413170664733E+03    0.17211E-05   -0.29464E-07  1896   0.909E-04    0.245E-04
RMM:  14    -0.413170663202E+03    0.15311E-05   -0.17885E-07  1454   0.756E-04    0.167E-04
RMM:  15    -0.413170660349E+03    0.28525E-05   -0.16980E-07  1399   0.735E-04    0.861E-05
RMM:  16    -0.413170658552E+03    0.17976E-05   -0.11435E-07  1306   0.670E-04    0.792E-05
RMM:  17    -0.413170655913E+03    0.26387E-05   -0.11409E-07  1386   0.658E-04    0.469E-05
RMM:  18    -0.413170654235E+03    0.16778E-05   -0.67406E-08  1049   0.573E-04    0.320E-05
RMM:  19    -0.413170653969E+03    0.26593E-06   -0.28821E-08   787   0.526E-04
   19 T=    62. E= -.41286656E+03 F= -.41317065E+03 E0= -.41314858E+03  EK= 0.30409E+00 SP= 0.00E+00 SK= 0.00E+00
       N       E                     dE             d eps       ncg     rms          rms(c)
RMM:   1    -0.413164052429E+03    0.66018E-02   -0.10684E+01  4296   0.751E-01    0.902E-01
RMM:   2    -0.413172896587E+03   -0.88442E-02   -0.12951E-01  4273   0.993E-02    0.636E-01
RMM:   3    -0.413171641838E+03    0.12547E-02   -0.84563E-03  4936   0.438E-02    0.168E-01
RMM:   4    -0.413209567807E+03   -0.37926E-01   -0.40078E-02  5148   0.166E-01    0.810E-01
RMM:   5    -0.413170865508E+03    0.38702E-01   -0.18844E-02  4792   0.136E-01    0.472E-02
RMM:   6    -0.413171074290E+03   -0.20878E-03   -0.31104E-03  5748   0.541E-02    0.277E-02
RMM:   7    -0.413171081279E+03   -0.69887E-05   -0.41684E-04  5840   0.175E-02    0.186E-02
RMM:   8    -0.413171075311E+03    0.59678E-05   -0.66082E-05  5143   0.806E-03    0.956E-03
RMM:   9    -0.413171068666E+03    0.66442E-05   -0.14348E-05  3994   0.417E-03    0.635E-03
RMM:  10    -0.413171065158E+03    0.35082E-05   -0.22058E-06  2590   0.214E-03    0.413E-03
RMM:  11    -0.413171061356E+03    0.38018E-05   -0.14270E-06  2513   0.189E-03    0.198E-03
RMM:  12    -0.413171057031E+03    0.43250E-05   -0.11694E-06  2504   0.172E-03    0.627E-04
RMM:  13    -0.413171056126E+03    0.90548E-06   -0.40098E-07  2244   0.112E-03
   20 T=    62. E= -.41286633E+03 F= -.41317106E+03 E0= -.41314902E+03  EK= 0.30472E+00 SP= 0.00E+00 SK= 0.00E+00
       N       E                     dE             d eps       ncg     rms          rms(c)
RMM:   1    -0.413165591318E+03    0.54657E-02   -0.10729E+01  4298   0.784E-01    0.889E-01
RMM:   2    -0.413174538677E+03   -0.89474E-02   -0.13430E-01  4279   0.101E-01    0.647E-01
RMM:   3    -0.413172523584E+03    0.20151E-02   -0.82912E-03  4863   0.420E-02    0.149E-01
RMM:   4    -0.413203371382E+03   -0.30848E-01   -0.31934E-02  5140   0.148E-01    0.731E-01
RMM:   5    -0.413171984350E+03    0.31387E-01   -0.15429E-02  4800   0.122E-01    0.420E-02
RMM:   6    -0.413172168375E+03   -0.18403E-03   -0.25484E-03  5796   0.484E-02    0.251E-02
RMM:   7    -0.413172179739E+03   -0.11364E-04   -0.32721E-04  5825   0.159E-02    0.163E-02
RMM:   8    -0.413172178002E+03    0.17362E-05   -0.61154E-05  5030   0.772E-03    0.912E-03
RMM:   9    -0.413172173953E+03    0.40489E-05   -0.13085E-05  3962   0.410E-03    0.635E-03
RMM:  10    -0.413172173269E+03    0.68397E-06   -0.19335E-06  2574   0.207E-03
   21 T=    62. E= -.41286652E+03 F= -.41317217E+03 E0= -.41315018E+03  EK= 0.30566E+00 SP= 0.00E+00 SK= 0.00E+00
       N       E                     dE             d eps       ncg     rms          rms(c)
RMM:   1    -0.413166277178E+03    0.58968E-02   -0.10784E+01  4299   0.762E-01    0.910E-01
RMM:   2    -0.413175304015E+03   -0.90268E-02   -0.13168E-01  4301   0.986E-02    0.647E-01
RMM:   3    -0.413176298176E+03   -0.99416E-03   -0.10729E-02  5095   0.649E-02    0.271E-01
RMM:   4    -0.413209084620E+03   -0.32786E-01   -0.46578E-02  5105   0.181E-01    0.782E-01
RMM:   5    -0.413173103505E+03    0.35981E-01   -0.15692E-02  4738   0.130E-01    0.537E-02
RMM:   6    -0.413173218260E+03   -0.11476E-03   -0.26196E-03  5635   0.509E-02    0.251E-02
RMM:   7    -0.413173231237E+03   -0.12976E-04   -0.36555E-04  5993   0.164E-02    0.168E-02
RMM:   8    -0.413173228003E+03    0.32333E-05   -0.60800E-05  5208   0.801E-03    0.789E-03
RMM:   9    -0.413173221306E+03    0.66976E-05   -0.11146E-05  3544   0.377E-03    0.365E-03
RMM:  10    -0.413173218823E+03    0.24824E-05   -0.23427E-06  2586   0.214E-03    0.254E-03
RMM:  11    -0.413173215141E+03    0.36826E-05   -0.10741E-06  2503   0.164E-03    0.131E-03
RMM:  12    -0.413173211555E+03    0.35859E-05   -0.60756E-07  2404   0.127E-03    0.377E-04
RMM:  13    -0.413173209750E+03    0.18046E-05   -0.29728E-07  1901   0.915E-04    0.228E-04
RMM:  14    -0.413173207999E+03    0.17516E-05   -0.18003E-07  1439   0.760E-04    0.142E-04
RMM:  15    -0.413173205284E+03    0.27146E-05   -0.15237E-07  1358   0.723E-04    0.820E-05
RMM:  16    -0.413173203481E+03    0.18034E-05   -0.10554E-07  1277   0.669E-04    0.771E-05
RMM:  17    -0.413173200870E+03    0.26102E-05   -0.10161E-07  1333   0.654E-04    0.466E-05
RMM:  18    -0.413173199264E+03    0.16066E-05   -0.59901E-08  1052   0.585E-04    0.239E-05
RMM:  19    -0.413173198784E+03    0.47976E-06   -0.29278E-08   811   0.538E-04
   22 T=    62. E= -.41286657E+03 F= -.41317320E+03 E0= -.41315126E+03  EK= 0.30663E+00 SP= 0.00E+00 SK= 0.00E+00
       N       E                     dE             d eps       ncg     rms          rms(c)
RMM:   1    -0.413167064657E+03    0.61346E-02   -0.10762E+01  4295   0.769E-01    0.912E-01
RMM:   2    -0.413175859408E+03   -0.87948E-02   -0.13063E-01  4278   0.103E-01    0.640E-01
RMM:   3    -0.413174390060E+03    0.14693E-02   -0.86458E-03  4874   0.456E-02    0.164E-01
RMM:   4    -0.413209641771E+03   -0.35252E-01   -0.36804E-02  5146   0.159E-01    0.781E-01
RMM:   5    -0.413173718405E+03    0.35923E-01   -0.17603E-02  4793   0.131E-01    0.460E-02
RMM:   6    -0.413173923887E+03   -0.20548E-03   -0.29679E-03  5786   0.521E-02    0.280E-02
RMM:   7    -0.413173930394E+03   -0.65069E-05   -0.38303E-04  5785   0.174E-02    0.182E-02
RMM:   8    -0.413173923557E+03    0.68372E-05   -0.67057E-05  5118   0.815E-03    0.988E-03
RMM:   9    -0.413173915594E+03    0.79633E-05   -0.14168E-05  4046   0.422E-03    0.679E-03
RMM:  10    -0.413173910832E+03    0.47612E-05   -0.21269E-06  2588   0.214E-03    0.442E-03
RMM:  11    -0.413173905157E+03    0.56750E-05   -0.16888E-06  2526   0.204E-03    0.202E-03
RMM:  12    -0.413173899342E+03    0.58153E-05   -0.11475E-06  2486   0.175E-03    0.644E-04
RMM:  13    -0.413173898316E+03    0.10264E-05   -0.39826E-07  2226   0.112E-03    0.454E-04
RMM:  14    -0.413173897851E+03    0.46496E-06   -0.19024E-07  1722   0.792E-04
   23 T=    63. E= -.41286626E+03 F= -.41317390E+03 E0= -.41315200E+03  EK= 0.30763E+00 SP= 0.00E+00 SK= 0.00E+00
       N       E                     dE             d eps       ncg     rms          rms(c)
RMM:   1    -0.413168176629E+03    0.57217E-02   -0.10761E+01  4294   0.776E-01    0.892E-01
RMM:   2    -0.413177883736E+03   -0.97071E-02   -0.13321E-01  4274   0.103E-01    0.647E-01
RMM:   3    -0.413175710916E+03    0.21728E-02   -0.83122E-03  4773   0.433E-02    0.146E-01
RMM:   4    -0.413202154717E+03   -0.26444E-01   -0.27060E-02  5144   0.137E-01    0.678E-01
RMM:   5    -0.413175332712E+03    0.26822E-01   -0.13280E-02  4799   0.113E-01    0.405E-02
RMM:   6    -0.413175488313E+03   -0.15560E-03   -0.22108E-03  5806   0.446E-02    0.251E-02
RMM:   7    -0.413175494507E+03   -0.61941E-05   -0.29072E-04  5757   0.156E-02    0.158E-02
RMM:   8    -0.413175490808E+03    0.36986E-05   -0.55690E-05  4992   0.755E-03    0.858E-03
RMM:   9    -0.413175486031E+03    0.47766E-05   -0.11721E-05  3841   0.394E-03    0.615E-03
RMM:  10    -0.413175484271E+03    0.17605E-05   -0.15950E-06  2545   0.198E-03    0.407E-03
RMM:  11    -0.413175481381E+03    0.28902E-05   -0.19280E-06  2564   0.217E-03    0.170E-03
RMM:  12    -0.413175479015E+03    0.23654E-05   -0.90311E-07  2462   0.157E-03    0.657E-04
RMM:  13    -0.413175478755E+03    0.26046E-06   -0.30465E-07  2047   0.958E-04
   24 T=    63. E= -.41286649E+03 F= -.41317548E+03 E0= -.41315363E+03  EK= 0.30898E+00 SP= 0.00E+00 SK= 0.00E+00
       N       E                     dE             d eps       ncg     rms          rms(c)
RMM:   1    -0.413169345560E+03    0.61335E-02   -0.10851E+01  4296   0.785E-01    0.907E-01
RMM:   2    -0.413178822582E+03   -0.94770E-02   -0.13356E-01  4279   0.105E-01    0.652E-01
RMM:   3    -0.413176669427E+03    0.21532E-02   -0.84617E-03  4677   0.434E-02    0.142E-01
RMM:   4    -0.413196241346E+03   -0.19572E-01   -0.19986E-02  5143   0.118E-01    0.586E-01
RMM:   5    -0.413176356646E+03    0.19885E-01   -0.98510E-03  4813   0.973E-02    0.373E-02
RMM:   6    -0.413176455831E+03   -0.99185E-04   -0.16099E-03  5821   0.377E-02    0.223E-02
RMM:   7    -0.413176458792E+03   -0.29613E-05   -0.17478E-04  5592   0.127E-02    0.104E-02
RMM:   8    -0.413176453718E+03    0.50743E-05   -0.28598E-05  4562   0.538E-03    0.668E-03
RMM:   9    -0.413176450690E+03    0.30279E-05   -0.33699E-06  2704   0.219E-03    0.446E-03
RMM:  10    -0.413176447869E+03    0.28208E-05   -0.12520E-06  2499   0.173E-03    0.255E-03
RMM:  11    -0.413176443630E+03    0.42395E-05   -0.13748E-06  2525   0.183E-03    0.129E-03
RMM:  12    -0.413176442140E+03    0.14897E-05   -0.51947E-07  2308   0.125E-03    0.588E-04
RMM:  13    -0.413176441510E+03    0.62983E-06   -0.22186E-07  1747   0.831E-04
   25 T=    63. E= -.41286633E+03 F= -.41317644E+03 E0= -.41315464E+03  EK= 0.31011E+00 SP= 0.00E+00 SK= 0.00E+00
       N       E                     dE             d eps       ncg     rms          rms(c)
RMM:   1    -0.413171464209E+03    0.49779E-02   -0.10871E+01  4294   0.797E-01    0.922E-01
RMM:   2    -0.413179623749E+03   -0.81595E-02   -0.13318E-01  4279   0.106E-01    0.645E-01
RMM:   3    -0.413177917876E+03    0.17059E-02   -0.86310E-03  4660   0.438E-02    0.150E-01
RMM:   4    -0.413197195080E+03   -0.19277E-01   -0.19550E-02  5146   0.117E-01    0.581E-01
RMM:   5    -0.413177697682E+03    0.19497E-01   -0.97487E-03  4815   0.962E-02    0.383E-02
RMM:   6    -0.413177787806E+03   -0.90124E-04   -0.15423E-03  5816   0.372E-02    0.232E-02
RMM:   7    -0.413177783386E+03    0.44204E-05   -0.17512E-04  5615   0.131E-02    0.110E-02
RMM:   8    -0.413177777187E+03    0.61993E-05   -0.33770E-05  4777   0.590E-03    0.743E-03
RMM:   9    -0.413177771694E+03    0.54932E-05   -0.78671E-06  3420   0.321E-03    0.579E-03
RMM:  10    -0.413177767768E+03    0.39260E-05   -0.13010E-06  2535   0.194E-03    0.378E-03
RMM:  11    -0.413177759545E+03    0.82230E-05   -0.17705E-06  2551   0.211E-03    0.171E-03
RMM:  12    -0.413177752277E+03    0.72680E-05   -0.84693E-07  2438   0.155E-03    0.802E-04
RMM:  13    -0.413177751923E+03    0.35353E-06   -0.25792E-07  2034   0.924E-04
   26 T=    63. E= -.41286629E+03 F= -.41317775E+03 E0= -.41315600E+03  EK= 0.31146E+00 SP= 0.00E+00 SK= 0.00E+00
       N       E                     dE             d eps       ncg     rms          rms(c)
RMM:   1    -0.413172259466E+03    0.54928E-02   -0.10825E+01  4293   0.790E-01    0.898E-01
RMM:   2    -0.413181635276E+03   -0.93758E-02   -0.13369E-01  4277   0.104E-01    0.647E-01
RMM:   3    -0.413179673987E+03    0.19613E-02   -0.83905E-03  4554   0.424E-02    0.139E-01
RMM:   4    -0.413192449242E+03   -0.12775E-01   -0.13151E-02  5144   0.959E-02    0.475E-01
RMM:   5    -0.413179496808E+03    0.12952E-01   -0.65199E-03  4827   0.782E-02    0.341E-02
RMM:   6    -0.413179541662E+03   -0.44854E-04   -0.10232E-03  5845   0.299E-02    0.199E-02
RMM:   7    -0.413179542747E+03   -0.10859E-05   -0.13251E-04  5600   0.114E-02    0.103E-02
RMM:   8    -0.413179534805E+03    0.79425E-05   -0.28524E-05  4688   0.559E-03    0.634E-03
RMM:   9    -0.413179533109E+03    0.16956E-05   -0.61925E-06  3220   0.308E-03    0.513E-03
RMM:  10    -0.413179530016E+03    0.30934E-05   -0.92179E-07  2502   0.178E-03    0.316E-03
RMM:  11    -0.413179525530E+03    0.44858E-05   -0.10472E-06  2498   0.166E-03    0.154E-03
RMM:  12    -0.413179521154E+03    0.43761E-05   -0.61790E-07  2334   0.126E-03    0.514E-04
RMM:  13    -0.413179520243E+03    0.91096E-06   -0.21286E-07  1739   0.817E-04
   27 T=    64. E= -.41286645E+03 F= -.41317952E+03 E0= -.41315782E+03  EK= 0.31307E+00 SP= 0.00E+00 SK= 0.00E+00
       N       E                     dE             d eps       ncg     rms          rms(c)
RMM:   1    -0.413182645276E+03   -0.31241E-02   -0.11032E+01  4292   0.874E-01    0.905E-01
RMM:   2    -0.413183052454E+03   -0.40718E-03   -0.15216E-01  4275   0.110E-01    0.660E-01
RMM:   3    -0.413180780926E+03    0.22715E-02   -0.81097E-03  4446   0.416E-02    0.157E-01
RMM:   4    -0.413188255032E+03   -0.74741E-02   -0.82457E-03  5144   0.775E-02    0.366E-01
RMM:   5    -0.413180669831E+03    0.75852E-02   -0.37902E-03  4825   0.598E-02    0.318E-02
RMM:   6    -0.413180686161E+03   -0.16329E-04   -0.62818E-04  5850   0.234E-02    0.185E-02
RMM:   7    -0.413180689869E+03   -0.37084E-05   -0.13813E-04  5439   0.117E-02    0.124E-02
RMM:   8    -0.413180677312E+03    0.12557E-04   -0.21605E-05  4433   0.552E-03    0.517E-03
RMM:   9    -0.413180675836E+03    0.14757E-05   -0.41073E-06  2889   0.267E-03    0.402E-03
RMM:  10    -0.413180673555E+03    0.22810E-05   -0.10978E-06  2485   0.180E-03    0.236E-03
RMM:  11    -0.413180670640E+03    0.29145E-05   -0.70387E-07  2456   0.142E-03    0.115E-03
RMM:  12    -0.413180667719E+03    0.29217E-05   -0.41814E-07  2188   0.106E-03    0.474E-04
RMM:  13    -0.413180666575E+03    0.11438E-05   -0.17501E-07  1527   0.754E-04    0.234E-04
RMM:  14    -0.413180665273E+03    0.13018E-05   -0.10558E-07  1179   0.668E-04    0.159E-04
RMM:  15    -0.413180662165E+03    0.31079E-05   -0.12113E-07  1338   0.695E-04    0.115E-04
RMM:  16    -0.413180661724E+03    0.44114E-06   -0.44468E-08   863   0.586E-04
   28 T=    64. E= -.41286615E+03 F= -.41318066E+03 E0= -.41315901E+03  EK= 0.31452E+00 SP= 0.00E+00 SK= 0.00E+00
       N       E                     dE             d eps       ncg     rms          rms(c)
RMM:   1    -0.413184286270E+03   -0.36241E-02   -0.11066E+01  4291   0.856E-01    0.929E-01
RMM:   2    -0.413184655615E+03   -0.36934E-03   -0.13019E-01  4277   0.107E-01    0.651E-01
RMM:   3    -0.413182809886E+03    0.18457E-02   -0.92279E-03  4532   0.469E-02    0.137E-01
RMM:   4    -0.413195385928E+03   -0.12576E-01   -0.12795E-02  5155   0.948E-02    0.471E-01
RMM:   5    -0.413182707209E+03    0.12679E-01   -0.64306E-03  4823   0.773E-02    0.358E-02
RMM:   6    -0.413182745906E+03   -0.38697E-04   -0.10276E-03  5854   0.300E-02    0.218E-02
RMM:   7    -0.413182746068E+03   -0.16261E-06   -0.17310E-04  5570   0.130E-02    0.131E-02
RMM:   8    -0.413182732307E+03    0.13761E-04   -0.30126E-05  4695   0.612E-03    0.638E-03
RMM:   9    -0.413182728949E+03    0.33586E-05   -0.60224E-06  3133   0.305E-03    0.503E-03
RMM:  10    -0.413182723701E+03    0.52480E-05   -0.10306E-06  2499   0.183E-03    0.298E-03
RMM:  11    -0.413182717590E+03    0.61103E-05   -0.79099E-07  2478   0.150E-03    0.149E-03
RMM:  12    -0.413182711094E+03    0.64968E-05   -0.58578E-07  2375   0.125E-03    0.653E-04
RMM:  13    -0.413182709129E+03    0.19649E-05   -0.22587E-07  1891   0.854E-04    0.324E-04
RMM:  14    -0.413182707589E+03    0.15395E-05   -0.10735E-07  1258   0.666E-04    0.215E-04
RMM:  15    -0.413182702945E+03    0.46445E-05   -0.10360E-07  1347   0.686E-04    0.123E-04
RMM:  16    -0.413182701624E+03    0.13205E-05   -0.44876E-08   921   0.594E-04    0.927E-05
RMM:  17    -0.413182698645E+03    0.29789E-05   -0.54758E-08  1125   0.616E-04    0.106E-04
RMM:  18    -0.413182696457E+03    0.21886E-05   -0.39526E-08   994   0.574E-04    0.540E-05
RMM:  19    -0.413182695470E+03    0.98661E-06   -0.21830E-08   791   0.534E-04
   29 T=    64. E= -.41286638E+03 F= -.41318270E+03 E0= -.41316110E+03  EK= 0.31631E+00 SP= 0.00E+00 SK= 0.00E+00
       N       E                     dE             d eps       ncg     rms          rms(c)
RMM:   1    -0.413178037321E+03    0.46591E-02   -0.10936E+01  4286   0.823E-01    0.908E-01
RMM:   2    -0.413186857642E+03   -0.88203E-02   -0.13593E-01  4273   0.111E-01    0.650E-01
RMM:   3    -0.413184685200E+03    0.21724E-02   -0.87191E-03  4456   0.470E-02    0.141E-01
RMM:   4    -0.413193001708E+03   -0.83165E-02   -0.88239E-03  5162   0.794E-02    0.385E-01
RMM:   5    -0.413184599482E+03    0.84022E-02   -0.42701E-03  4830   0.632E-02    0.335E-02
RMM:   6    -0.413184620426E+03   -0.20945E-04   -0.71586E-04  5830   0.252E-02    0.218E-02
RMM:   7    -0.413184619183E+03    0.12430E-05   -0.17822E-04  5421   0.131E-02    0.133E-02
RMM:   8    -0.413184606130E+03    0.13053E-04   -0.20625E-05  4349   0.556E-03    0.560E-03
RMM:   9    -0.413184603799E+03    0.23305E-05   -0.37915E-06  2863   0.255E-03    0.412E-03
RMM:  10    -0.413184600134E+03    0.36653E-05   -0.11090E-06  2489   0.176E-03    0.233E-03
RMM:  11    -0.413184595883E+03    0.42513E-05   -0.73652E-07  2449   0.144E-03    0.112E-03
RMM:  12    -0.413184592289E+03    0.35934E-05   -0.41488E-07  2214   0.108E-03    0.502E-04
RMM:  13    -0.413184590790E+03    0.14992E-05   -0.18265E-07  1612   0.771E-04    0.228E-04
RMM:  14    -0.413184588737E+03    0.20531E-05   -0.10785E-07  1194   0.672E-04    0.133E-04
RMM:  15    -0.413184585659E+03    0.30782E-05   -0.89519E-08  1178   0.659E-04    0.727E-05
RMM:  16    -0.413184584677E+03    0.98249E-06   -0.48191E-08   938   0.597E-04
   30 T=    65. E= -.41286639E+03 F= -.41318458E+03 E0= -.41316304E+03  EK= 0.31820E+00 SP= 0.00E+00 SK= 0.00E+00
       N       E                     dE             d eps       ncg     rms          rms(c)
RMM:   1    -0.413190809062E+03   -0.62234E-02   -0.11170E+01  4290   0.934E-01    0.910E-01
RMM:   2    -0.413189184935E+03    0.16241E-02   -0.14351E-01  4276   0.123E-01    0.664E-01
RMM:   3    -0.413186237696E+03    0.29472E-02   -0.89307E-03  4367   0.485E-02    0.136E-01
RMM:   4    -0.413190859918E+03   -0.46222E-02   -0.52489E-03  5143   0.615E-02    0.286E-01
RMM:   5    -0.413186261083E+03    0.45988E-02   -0.23141E-03  4819   0.470E-02    0.313E-02
RMM:   6    -0.413186268588E+03   -0.75056E-05   -0.44164E-04  5758   0.204E-02    0.215E-02
RMM:   7    -0.413186263615E+03    0.49738E-05   -0.15682E-04  5250   0.122E-02    0.119E-02
RMM:   8    -0.413186255338E+03    0.82764E-05   -0.12555E-05  3905   0.464E-03    0.524E-03
RMM:   9    -0.413186254082E+03    0.12564E-05   -0.19432E-06  2609   0.205E-03    0.339E-03
RMM:  10    -0.413186251401E+03    0.26803E-05   -0.10496E-06  2480   0.161E-03    0.172E-03
RMM:  11    -0.413186249073E+03    0.23286E-05   -0.57434E-07  2332   0.123E-03    0.795E-04
RMM:  12    -0.413186246945E+03    0.21278E-05   -0.31427E-07  2009   0.932E-04    0.347E-04
RMM:  13    -0.413186245635E+03    0.13104E-05   -0.15185E-07  1308   0.712E-04    0.195E-04
RMM:  14    -0.413186243970E+03    0.16646E-05   -0.10400E-07  1128   0.659E-04    0.126E-04
RMM:  15    -0.413186241533E+03    0.24368E-05   -0.93409E-08  1156   0.655E-04    0.652E-05
RMM:  16    -0.413186240752E+03    0.78099E-06   -0.45635E-08   891   0.592E-04
   31 T=    65. E= -.41286614E+03 F= -.41318624E+03 E0= -.41316474E+03  EK= 0.32010E+00 SP= 0.00E+00 SK= 0.00E+00
       N       E                     dE             d eps       ncg     rms          rms(c)
RMM:   1    -0.413182199818E+03    0.40417E-02   -0.11119E+01  4292   0.842E-01    0.935E-01
RMM:   2    -0.413191096377E+03   -0.88966E-02   -0.13895E-01  4286   0.122E-01    0.660E-01
RMM:   3    -0.413188894590E+03    0.22018E-02   -0.92509E-03  4287   0.519E-02    0.143E-01
RMM:   4    -0.413191075993E+03   -0.21814E-02   -0.29851E-03  5117   0.465E-02    0.197E-01
RMM:   5    -0.413188917080E+03    0.21589E-02   -0.10964E-03  4812   0.329E-02    0.329E-02
RMM:   6    -0.413188917881E+03   -0.80075E-06   -0.30409E-04  5593   0.175E-02    0.239E-02
RMM:   7    -0.413188896742E+03    0.21138E-04   -0.15021E-04  5019   0.120E-02    0.116E-02
RMM:   8    -0.413188891152E+03    0.55900E-05   -0.10734E-05  3608   0.421E-03    0.490E-03
RMM:   9    -0.413188888978E+03    0.21747E-05   -0.15995E-06  2508   0.192E-03    0.289E-03
RMM:  10    -0.413188881425E+03    0.75529E-05   -0.86954E-07  2462   0.153E-03    0.135E-03
RMM:  11    -0.413188877576E+03    0.38492E-05   -0.39056E-07  2132   0.103E-03    0.630E-04
RMM:  12    -0.413188872601E+03    0.49742E-05   -0.24450E-07  1815   0.863E-04    0.242E-04
RMM:  13    -0.413188869595E+03    0.30062E-05   -0.12201E-07  1252   0.689E-04    0.151E-04
RMM:  14    -0.413188865289E+03    0.43058E-05   -0.92081E-08  1201   0.660E-04    0.111E-04
RMM:  15    -0.413188860841E+03    0.44482E-05   -0.84664E-08  1278   0.646E-04    0.804E-05
RMM:  16    -0.413188858714E+03    0.21270E-05   -0.46006E-08   962   0.572E-04    0.573E-05
RMM:  17    -0.413188855938E+03    0.27761E-05   -0.43063E-08   968   0.568E-04    0.267E-05
RMM:  18    -0.413188855315E+03    0.62343E-06   -0.18779E-08   696   0.520E-04
   32 T=    66. E= -.41286651E+03 F= -.41318886E+03 E0= -.41316741E+03  EK= 0.32234E+00 SP= 0.00E+00 SK= 0.00E+00
       N       E                     dE             d eps       ncg     rms          rms(c)
RMM:   1    -0.413183907831E+03    0.49481E-02   -0.11085E+01  4286   0.855E-01    0.922E-01
RMM:   2    -0.413193195262E+03   -0.92874E-02   -0.14007E-01  4284   0.128E-01    0.656E-01
RMM:   3    -0.413190698690E+03    0.24966E-02   -0.89694E-03  4229   0.461E-02    0.145E-01
RMM:   4    -0.413191617100E+03   -0.91841E-03   -0.17967E-03  5076   0.357E-02    0.125E-01
RMM:   5    -0.413190788978E+03    0.82812E-03   -0.43830E-04  4756   0.214E-02    0.326E-02
RMM:   6    -0.413190784402E+03    0.45757E-05   -0.20065E-04  5459   0.146E-02    0.237E-02
RMM:   7    -0.413190765515E+03    0.18888E-04   -0.14042E-04  4874   0.110E-02    0.125E-02
RMM:   8    -0.413190760940E+03    0.45750E-05   -0.99997E-06  3476   0.399E-03    0.484E-03
RMM:   9    -0.413190759292E+03    0.16472E-05   -0.18875E-06  2408   0.185E-03    0.230E-03
RMM:  10    -0.413190751999E+03    0.72930E-05   -0.76080E-07  2308   0.139E-03    0.999E-04
RMM:  11    -0.413190748554E+03    0.34457E-05   -0.28664E-07  1859   0.897E-04    0.477E-04
RMM:  12    -0.413190744035E+03    0.45188E-05   -0.17622E-07  1491   0.763E-04    0.205E-04
RMM:  13    -0.413190740935E+03    0.30997E-05   -0.85425E-08   969   0.638E-04    0.122E-04
RMM:  14    -0.413190736750E+03    0.41851E-05   -0.69563E-08   977   0.630E-04    0.991E-05
RMM:  15    -0.413190732033E+03    0.47170E-05   -0.74684E-08  1147   0.636E-04    0.608E-05
RMM:  16    -0.413190730157E+03    0.18763E-05   -0.32894E-08   757   0.540E-04    0.426E-05
RMM:  17    -0.413190728689E+03    0.14676E-05   -0.19631E-08   617   0.514E-04    0.222E-05
RMM:  18    -0.413190728138E+03    0.55092E-06   -0.12569E-08   549   0.501E-04
   33 T=    66. E= -.41286623E+03 F= -.41319073E+03 E0= -.41316933E+03  EK= 0.32450E+00 SP= 0.00E+00 SK= 0.00E+00
       N       E                     dE             d eps       ncg     rms          rms(c)
RMM:   1    -0.413204332913E+03   -0.13604E-01   -0.11366E+01  4294   0.990E-01    0.912E-01
RMM:   2    -0.413195820139E+03    0.85128E-02   -0.16494E-01  4278   0.137E-01    0.671E-01
RMM:   3    -0.413193271364E+03    0.25488E-02   -0.84275E-03  4330   0.514E-02    0.168E-01
RMM:   4    -0.413197112884E+03   -0.38415E-02   -0.48608E-03  5130   0.611E-02    0.262E-01
RMM:   5    -0.413193289327E+03    0.38236E-02   -0.18700E-03  4794   0.433E-02    0.326E-02
RMM:   6    -0.413193282344E+03    0.69833E-05   -0.38366E-04  5714   0.201E-02    0.228E-02
RMM:   7    -0.413193276463E+03    0.58804E-05   -0.16237E-04  5158   0.123E-02    0.120E-02
RMM:   8    -0.413193268481E+03    0.79823E-05   -0.12153E-05  3879   0.460E-03    0.512E-03
RMM:   9    -0.413193267290E+03    0.11912E-05   -0.20841E-06  2595   0.207E-03    0.299E-03
RMM:  10    -0.413193264329E+03    0.29612E-05   -0.96767E-07  2471   0.158E-03    0.150E-03
RMM:  11    -0.413193261604E+03    0.27241E-05   -0.51721E-07  2270   0.115E-03    0.748E-04
RMM:  12    -0.413193259083E+03    0.25217E-05   -0.29321E-07  1868   0.887E-04    0.323E-04
RMM:  13    -0.413193257298E+03    0.17844E-05   -0.15228E-07  1264   0.705E-04    0.178E-04
RMM:  14    -0.413193255546E+03    0.17519E-05   -0.10073E-07  1089   0.652E-04    0.131E-04
RMM:  15    -0.413193252781E+03    0.27657E-05   -0.93862E-08  1161   0.652E-04    0.610E-05
RMM:  16    -0.413193251960E+03    0.82087E-06   -0.45220E-08   858   0.583E-04
   34 T=    67. E= -.41286627E+03 F= -.41319325E+03 E0= -.41317190E+03  EK= 0.32698E+00 SP= 0.00E+00 SK= 0.00E+00
       N       E                     dE             d eps       ncg     rms          rms(c)
RMM:   1    -0.413189439513E+03    0.38133E-02   -0.11282E+01  4300   0.894E-01    0.939E-01
RMM:   2    -0.413198346856E+03   -0.89073E-02   -0.14492E-01  4263   0.131E-01    0.670E-01
RMM:   3    -0.413196003703E+03    0.23432E-02   -0.92560E-03  4352   0.517E-02    0.147E-01
RMM:   4    -0.413199064466E+03   -0.30608E-02   -0.38548E-03  5151   0.524E-02    0.235E-01
RMM:   5    -0.413196005276E+03    0.30592E-02   -0.15501E-03  4813   0.392E-02    0.341E-02
RMM:   6    -0.413195998298E+03    0.69787E-05   -0.36172E-04  5664   0.193E-02    0.248E-02
RMM:   7    -0.413195984513E+03    0.13784E-04   -0.17096E-04  5111   0.122E-02    0.128E-02
RMM:   8    -0.413195977078E+03    0.74355E-05   -0.13243E-05  3889   0.454E-03    0.540E-03
RMM:   9    -0.413195974933E+03    0.21447E-05   -0.20436E-06  2542   0.199E-03    0.292E-03
RMM:  10    -0.413195968567E+03    0.63662E-05   -0.90407E-07  2468   0.155E-03    0.143E-03
RMM:  11    -0.413195964228E+03    0.43393E-05   -0.42674E-07  2218   0.107E-03    0.801E-04
RMM:  12    -0.413195959372E+03    0.48558E-05   -0.26640E-07  1846   0.880E-04    0.278E-04
RMM:  13    -0.413195956395E+03    0.29763E-05   -0.13219E-07  1268   0.697E-04    0.168E-04
RMM:  14    -0.413195952690E+03    0.37054E-05   -0.90641E-08  1086   0.649E-04    0.139E-04
RMM:  15    -0.413195947843E+03    0.48472E-05   -0.81726E-08  1175   0.643E-04    0.639E-05
RMM:  16    -0.413195945986E+03    0.18572E-05   -0.49666E-08   990   0.586E-04    0.543E-05
RMM:  17    -0.413195943082E+03    0.29031E-05   -0.43202E-08   987   0.577E-04    0.268E-05
RMM:  18    -0.413195941771E+03    0.13119E-05   -0.25858E-08   815   0.539E-04    0.163E-05
RMM:  19    -0.413195941471E+03    0.29984E-06   -0.12905E-08   633   0.509E-04
   35 T=    67. E= -.41286647E+03 F= -.41319594E+03 E0= -.41317464E+03  EK= 0.32948E+00 SP= 0.00E+00 SK= 0.00E+00
       N       E                     dE             d eps       ncg     rms          rms(c)
RMM:   1    -0.413196714840E+03   -0.77307E-03   -0.11327E+01  4298   0.965E-01    0.939E-01
RMM:   2    -0.413200149371E+03   -0.34345E-02   -0.14483E-01  4260   0.131E-01    0.664E-01
RMM:   3    -0.413198202515E+03    0.19469E-02   -0.95075E-03  4691   0.534E-02    0.163E-01
RMM:   4    -0.413224136974E+03   -0.25934E-01   -0.26207E-02  5159   0.136E-01    0.673E-01
RMM:   5    -0.413197936674E+03    0.26200E-01   -0.13285E-02  4805   0.112E-01    0.433E-02
RMM:   6    -0.413197969532E+03   -0.32858E-04   -0.21155E-03  5857   0.436E-02    0.269E-02
RMM:   7    -0.413197976723E+03   -0.71912E-05   -0.27796E-04  5702   0.155E-02    0.149E-02
RMM:   8    -0.413197966242E+03    0.10481E-04   -0.53726E-05  4981   0.756E-03    0.891E-03
RMM:   9    -0.413197962610E+03    0.36321E-05   -0.14838E-05  4241   0.443E-03    0.629E-03
RMM:  10    -0.413197956159E+03    0.64507E-05   -0.19049E-06  2573   0.226E-03    0.372E-03
RMM:  11    -0.413197951556E+03    0.46033E-05   -0.10907E-06  2495   0.169E-03    0.223E-03
RMM:  12    -0.413197941476E+03    0.10080E-04   -0.13170E-06  2497   0.189E-03    0.102E-03
RMM:  13    -0.413197937569E+03    0.39070E-05   -0.45962E-07  2295   0.122E-03    0.607E-04
RMM:  14    -0.413197937158E+03    0.41094E-06   -0.19530E-07  1752   0.804E-04
   36 T=    68. E= -.41286615E+03 F= -.41319794E+03 E0= -.41317668E+03  EK= 0.33179E+00 SP= 0.00E+00 SK= 0.00E+00
       N       E                     dE             d eps       ncg     rms          rms(c)
RMM:   1    -0.413206248200E+03   -0.83106E-02   -0.11448E+01  4304   0.104E+00    0.922E-01
RMM:   2    -0.413203961372E+03    0.22868E-02   -0.15781E-01  4260   0.138E-01    0.675E-01
RMM:   3    -0.413201216162E+03    0.27452E-02   -0.90572E-03  4614   0.541E-02    0.162E-01
RMM:   4    -0.413220095443E+03   -0.18879E-01   -0.19285E-02  5162   0.117E-01    0.577E-01
RMM:   5    -0.413201052301E+03    0.19043E-01   -0.96431E-03  4808   0.957E-02    0.407E-02
RMM:   6    -0.413201062167E+03   -0.98661E-05   -0.15935E-03  5834   0.378E-02    0.262E-02
RMM:   7    -0.413201071663E+03   -0.94964E-05   -0.26765E-04  5626   0.150E-02    0.154E-02
RMM:   8    -0.413201058985E+03    0.12678E-04   -0.49919E-05  4984   0.760E-03    0.762E-03
RMM:   9    -0.413201056586E+03    0.23993E-05   -0.95072E-06  3615   0.379E-03    0.494E-03
RMM:  10    -0.413201052529E+03    0.40570E-05   -0.14308E-06  2541   0.198E-03    0.303E-03
RMM:  11    -0.413201048039E+03    0.44896E-05   -0.97193E-07  2494   0.159E-03    0.151E-03
RMM:  12    -0.413201042337E+03    0.57025E-05   -0.79802E-07  2419   0.141E-03    0.659E-04
RMM:  13    -0.413201040229E+03    0.21078E-05   -0.30932E-07  2019   0.957E-04    0.403E-04
RMM:  14    -0.413201039352E+03    0.87654E-06   -0.14744E-07  1385   0.714E-04
   37 T=    68. E= -.41286648E+03 F= -.41320104E+03 E0= -.41317982E+03  EK= 0.33456E+00 SP= 0.00E+00 SK= 0.00E+00
       N       E                     dE             d eps       ncg     rms          rms(c)
RMM:   1    -0.413203848230E+03   -0.28080E-02   -0.11514E+01  4306   0.105E+00    0.942E-01
RMM:   2    -0.413206544143E+03   -0.26959E-02   -0.15357E-01  4260   0.130E-01    0.680E-01
RMM:   3    -0.413203645795E+03    0.28983E-02   -0.95863E-03  4738   0.534E-02    0.168E-01
RMM:   4    -0.413233923194E+03   -0.30277E-01   -0.30782E-02  5147   0.147E-01    0.726E-01
RMM:   5    -0.413203290381E+03    0.30633E-01   -0.15585E-02  4808   0.121E-01    0.452E-02
RMM:   6    -0.413203333056E+03   -0.42675E-04   -0.24088E-03  5838   0.466E-02    0.279E-02
RMM:   7    -0.413203344929E+03   -0.11873E-04   -0.32734E-04  5743   0.165E-02    0.162E-02
RMM:   8    -0.413203334436E+03    0.10493E-04   -0.62995E-05  5050   0.817E-03    0.936E-03
RMM:   9    -0.413203330853E+03    0.35824E-05   -0.16061E-05  4290   0.464E-03    0.594E-03
RMM:  10    -0.413203325427E+03    0.54258E-05   -0.22597E-06  2613   0.229E-03    0.364E-03
RMM:  11    -0.413203321142E+03    0.42855E-05   -0.11521E-06  2501   0.173E-03    0.209E-03
RMM:  12    -0.413203312726E+03    0.84157E-05   -0.11924E-06  2486   0.180E-03    0.918E-04
RMM:  13    -0.413203309287E+03    0.34391E-05   -0.44704E-07  2286   0.119E-03    0.600E-04
RMM:  14    -0.413203308943E+03    0.34439E-06   -0.19631E-07  1726   0.796E-04
   38 T=    69. E= -.41286627E+03 F= -.41320331E+03 E0= -.41318213E+03  EK= 0.33704E+00 SP= 0.00E+00 SK= 0.00E+00
       N       E                     dE             d eps       ncg     rms          rms(c)
RMM:   1    -0.413212953244E+03   -0.96440E-02   -0.11602E+01  4304   0.110E+00    0.956E-01
RMM:   2    -0.413208650546E+03    0.43027E-02   -0.15300E-01  4263   0.126E-01    0.674E-01
RMM:   3    -0.413206491979E+03    0.21586E-02   -0.10036E-02  4938   0.532E-02    0.191E-01
RMM:   4    -0.413251449335E+03   -0.44957E-01   -0.47438E-02  5137   0.181E-01    0.880E-01
RMM:   5    -0.413205716158E+03    0.45733E-01   -0.22848E-02  4794   0.148E-01    0.528E-02
RMM:   6    -0.413205835621E+03   -0.11946E-03   -0.36636E-03  5829   0.567E-02    0.310E-02
RMM:   7    -0.413205847010E+03   -0.11389E-04   -0.40856E-04  5722   0.181E-02    0.166E-02
RMM:   8    -0.413205838876E+03    0.81337E-05   -0.51062E-05  4769   0.684E-03    0.846E-03
RMM:   9    -0.413205830343E+03    0.85334E-05   -0.98696E-06  3206   0.332E-03    0.494E-03
RMM:  10    -0.413205826928E+03    0.34143E-05   -0.24092E-06  2582   0.219E-03    0.365E-03
RMM:  11    -0.413205819258E+03    0.76706E-05   -0.14461E-06  2500   0.204E-03    0.200E-03
RMM:  12    -0.413205808990E+03    0.10267E-04   -0.11485E-06  2482   0.181E-03    0.873E-04
RMM:  13    -0.413205806875E+03    0.21158E-05   -0.42295E-07  2309   0.117E-03    0.577E-04
RMM:  14    -0.413205805891E+03    0.98336E-06   -0.19679E-07  1739   0.801E-04
   39 T=    69. E= -.41286630E+03 F= -.41320581E+03 E0= -.41318467E+03  EK= 0.33950E+00 SP= 0.00E+00 SK= 0.00E+00
       N       E                     dE             d eps       ncg     rms          rms(c)
RMM:   1    -0.413216774165E+03   -0.10967E-01   -0.11609E+01  4308   0.115E+00    0.934E-01
RMM:   2    -0.413211962150E+03    0.48120E-02   -0.15771E-01  4267   0.132E-01    0.679E-01
RMM:   3    -0.413209646032E+03    0.23161E-02   -0.99912E-03  4973   0.567E-02    0.204E-01
RMM:   4    -0.413260832659E+03   -0.51187E-01   -0.55574E-02  5127   0.196E-01    0.938E-01
RMM:   5    -0.413208498943E+03    0.52334E-01   -0.25816E-02  4785   0.158E-01    0.553E-02
RMM:   6    -0.413208644563E+03   -0.14562E-03   -0.41263E-03  5811   0.602E-02    0.311E-02
RMM:   7    -0.413208660423E+03   -0.15860E-04   -0.45760E-04  5802   0.188E-02    0.178E-02
RMM:   8    -0.413208659824E+03    0.59905E-06   -0.81513E-05  5185   0.852E-03    0.111E-02
RMM:   9    -0.413208651208E+03    0.86157E-05   -0.26200E-05  4642   0.541E-03    0.675E-03
RMM:  10    -0.413208646937E+03    0.42715E-05   -0.45112E-06  2823   0.294E-03    0.399E-03
RMM:  11    -0.413208642928E+03    0.40090E-05   -0.17483E-06  2519   0.213E-03    0.236E-03
RMM:  12    -0.413208635395E+03    0.75329E-05   -0.12688E-06  2492   0.191E-03    0.754E-04
RMM:  13    -0.413208632198E+03    0.31970E-05   -0.52785E-07  2361   0.129E-03    0.566E-04
RMM:  14    -0.413208631138E+03    0.10600E-05   -0.23248E-07  1929   0.868E-04    0.361E-04
RMM:  15    -0.413208628042E+03    0.30955E-05   -0.12444E-07  1353   0.705E-04    0.141E-04
RMM:  16    -0.413208625049E+03    0.29926E-05   -0.84727E-08  1180   0.654E-04    0.123E-04
RMM:  17    -0.413208622940E+03    0.21098E-05   -0.56615E-08  1037   0.613E-04    0.910E-05
RMM:  18    -0.413208619069E+03    0.38702E-05   -0.62025E-08  1225   0.633E-04    0.917E-05
RMM:  19    -0.413208617576E+03    0.14929E-05   -0.30223E-08   899   0.566E-04    0.584E-05
RMM:  20    -0.413208616827E+03    0.74916E-06   -0.21707E-08   817   0.548E-04
   40 T=    70. E= -.41286656E+03 F= -.41320862E+03 E0= -.41318752E+03  EK= 0.34205E+00 SP= 0.00E+00 SK= 0.00E+00
       N       E                     dE             d eps       ncg     rms          rms(c)
RMM:   1    -0.413235304655E+03   -0.26687E-01   -0.11899E+01  4308   0.126E+00    0.944E-01
RMM:   2    -0.413213896110E+03    0.21409E-01   -0.18588E-01  4275   0.146E-01    0.692E-01
RMM:   3    -0.413212423105E+03    0.14730E-02   -0.10117E-02  5045   0.617E-02    0.267E-01
RMM:   4    -0.413269581378E+03   -0.57158E-01   -0.66467E-02  5124   0.215E-01    0.997E-01
RMM:   5    -0.413210331079E+03    0.59250E-01   -0.28696E-02  4777   0.168E-01    0.614E-02
RMM:   6    -0.413210498560E+03   -0.16748E-03   -0.46290E-03  5795   0.641E-02    0.324E-02
RMM:   7    -0.413210519439E+03   -0.20880E-04   -0.55959E-04  5886   0.205E-02    0.219E-02
RMM:   8    -0.413210519932E+03   -0.49311E-06   -0.12017E-04  5282   0.106E-02    0.132E-02
RMM:   9    -0.413210508154E+03    0.11778E-04   -0.24963E-05  4574   0.582E-03    0.558E-03
RMM:  10    -0.413210504650E+03    0.35036E-05   -0.56010E-06  2932   0.293E-03    0.351E-03
RMM:  11    -0.413210501519E+03    0.31311E-05   -0.14738E-06  2507   0.198E-03    0.201E-03
RMM:  12    -0.413210496469E+03    0.50504E-05   -0.92496E-07  2474   0.163E-03    0.670E-04
RMM:  13    -0.413210493601E+03    0.28677E-05   -0.45429E-07  2285   0.116E-03    0.349E-04
RMM:  14    -0.413210492059E+03    0.15420E-05   -0.23419E-07  1823   0.852E-04    0.247E-04
RMM:  15    -0.413210489245E+03    0.28146E-05   -0.14073E-07  1347   0.716E-04    0.110E-04
RMM:  16    -0.413210487248E+03    0.19966E-05   -0.90967E-08  1137   0.658E-04    0.797E-05
RMM:  17    -0.413210485377E+03    0.18707E-05   -0.69370E-08  1127   0.637E-04    0.620E-05
RMM:  18    -0.413210483447E+03    0.19300E-05   -0.53073E-08  1062   0.618E-04    0.326E-05
RMM:  19    -0.413210481598E+03    0.18497E-05   -0.42576E-08  1060   0.604E-04    0.292E-05
RMM:  20    -0.413210481157E+03    0.44011E-06   -0.21107E-08   793   0.558E-04
   41 T=    70. E= -.41286630E+03 F= -.41321048E+03 E0= -.41318942E+03  EK= 0.34418E+00 SP= 0.00E+00 SK= 0.00E+00
       N       E                     dE             d eps       ncg     rms          rms(c)
RMM:   1    -0.413213940146E+03   -0.34585E-02   -0.11688E+01  4308   0.120E+00    0.968E-01
RMM:   2    -0.413215618480E+03   -0.16783E-02   -0.15869E-01  4286   0.139E-01    0.683E-01
RMM:   3    -0.413216470311E+03   -0.85183E-03   -0.12757E-02  5083   0.740E-02    0.303E-01
RMM:   4    -0.413253622146E+03   -0.37152E-01   -0.52829E-02  5095   0.193E-01    0.834E-01
RMM:   5    -0.413212835130E+03    0.40787E-01   -0.18315E-02  4741   0.139E-01    0.578E-02
RMM:   6    -0.413212903859E+03   -0.68729E-04   -0.31556E-03  5760   0.531E-02    0.317E-02
RMM:   7    -0.413212912202E+03   -0.83432E-05   -0.42159E-04  5810   0.184E-02    0.210E-02
RMM:   8    -0.413212908723E+03    0.34796E-05   -0.10929E-04  5189   0.105E-02    0.118E-02
RMM:   9    -0.413212895141E+03    0.13581E-04   -0.19668E-05  4408   0.544E-03    0.470E-03
RMM:  10    -0.413212890034E+03    0.51071E-05   -0.41086E-06  2807   0.259E-03    0.297E-03
RMM:  11    -0.413212884314E+03    0.57204E-05   -0.12301E-06  2499   0.183E-03    0.160E-03
RMM:  12    -0.413212876568E+03    0.77459E-05   -0.69672E-07  2439   0.145E-03    0.594E-04
RMM:  13    -0.413212872466E+03    0.41016E-05   -0.34044E-07  2090   0.101E-03    0.290E-04
RMM:  14    -0.413212869687E+03    0.27792E-05   -0.18240E-07  1562   0.778E-04    0.181E-04
RMM:  15    -0.413212863876E+03    0.58108E-05   -0.13010E-07  1354   0.718E-04    0.129E-04
RMM:  16    -0.413212861675E+03    0.22007E-05   -0.81542E-08  1151   0.652E-04    0.856E-05
RMM:  17    -0.413212858134E+03    0.35419E-05   -0.70427E-08  1229   0.648E-04    0.615E-05
RMM:  18    -0.413212855241E+03    0.28928E-05   -0.55634E-08  1181   0.613E-04    0.366E-05
RMM:  19    -0.413212853537E+03    0.17034E-05   -0.34126E-08   949   0.565E-04    0.307E-05
RMM:  20    -0.413212853279E+03    0.25830E-06   -0.18089E-08   750   0.535E-04
   42 T=    71. E= -.41286650E+03 F= -.41321285E+03 E0= -.41319182E+03  EK= 0.34635E+00 SP= 0.00E+00 SK= 0.00E+00
       N       E                     dE             d eps       ncg     rms          rms(c)
RMM:   1    -0.413220877843E+03   -0.80243E-02   -0.11676E+01  4309   0.129E+00    0.945E-01
RMM:   2    -0.413217521423E+03    0.33564E-02   -0.16470E-01  4288   0.148E-01    0.683E-01
RMM:   3    -0.413219418274E+03   -0.18969E-02   -0.13323E-02  5084   0.815E-02    0.336E-01
RMM:   4    -0.413252565640E+03   -0.33147E-01   -0.52092E-02  5083   0.193E-01    0.805E-01
RMM:   5    -0.413214721062E+03    0.37845E-01   -0.16539E-02  4714   0.134E-01    0.575E-02
RMM:   6    -0.413214766252E+03   -0.45190E-04   -0.28699E-03  5752   0.509E-02    0.310E-02
RMM:   7    -0.413214771066E+03   -0.48135E-05   -0.39072E-04  5805   0.179E-02    0.210E-02
RMM:   8    -0.413214767366E+03    0.36993E-05   -0.10351E-04  5164   0.103E-02    0.111E-02
RMM:   9    -0.413214755584E+03    0.11782E-04   -0.19194E-05  4374   0.540E-03    0.428E-03
RMM:  10    -0.413214752062E+03    0.35218E-05   -0.36925E-06  2757   0.249E-03    0.267E-03
RMM:  11    -0.413214747457E+03    0.46055E-05   -0.12785E-06  2503   0.183E-03    0.144E-03
RMM:  12    -0.413214742170E+03    0.52870E-05   -0.64702E-07  2426   0.139E-03    0.582E-04
RMM:  13    -0.413214739160E+03    0.30099E-05   -0.31902E-07  1945   0.962E-04    0.264E-04
RMM:  14    -0.413214736594E+03    0.25655E-05   -0.18149E-07  1475   0.763E-04    0.154E-04
RMM:  15    -0.413214732205E+03    0.43892E-05   -0.13547E-07  1279   0.711E-04    0.105E-04
RMM:  16    -0.413214730475E+03    0.17306E-05   -0.88561E-08  1180   0.661E-04    0.789E-05
RMM:  17    -0.413214727123E+03    0.33516E-05   -0.78650E-08  1255   0.657E-04    0.577E-05
RMM:  18    -0.413214724909E+03    0.22146E-05   -0.56477E-08  1143   0.609E-04    0.400E-05
RMM:  19    -0.413214723940E+03    0.96897E-06   -0.30329E-08   844   0.553E-04
   43 T=    71. E= -.41286654E+03 F= -.41321472E+03 E0= -.41319372E+03  EK= 0.34818E+00 SP= 0.00E+00 SK= 0.00E+00
       N       E                     dE             d eps       ncg     rms          rms(c)
RMM:   1    -0.413239170558E+03   -0.24446E-01   -0.11948E+01  4309   0.142E+00    0.945E-01
RMM:   2    -0.413218953065E+03    0.20217E-01   -0.18984E-01  4289   0.168E-01    0.700E-01
RMM:   3    -0.413221594314E+03   -0.26412E-02   -0.13822E-02  5076   0.890E-02    0.380E-01
RMM:   4    -0.413253857474E+03   -0.32263E-01   -0.54575E-02  5067   0.198E-01    0.810E-01
RMM:   5    -0.413215779087E+03    0.38078E-01   -0.16607E-02  4714   0.136E-01    0.602E-02
RMM:   6    -0.413215805527E+03   -0.26440E-04   -0.28243E-03  5712   0.509E-02    0.311E-02
RMM:   7    -0.413215810311E+03   -0.47840E-05   -0.39040E-04  5850   0.180E-02    0.216E-02
RMM:   8    -0.413215806805E+03    0.35060E-05   -0.10141E-04  5181   0.102E-02    0.109E-02
RMM:   9    -0.413215796291E+03    0.10515E-04   -0.20901E-05  4426   0.559E-03    0.416E-03
RMM:  10    -0.413215793848E+03    0.24432E-05   -0.38535E-06  2764   0.247E-03    0.249E-03
RMM:  11    -0.413215790237E+03    0.36105E-05   -0.15319E-06  2525   0.190E-03    0.143E-03
RMM:  12    -0.413215786892E+03    0.33451E-05   -0.62796E-07  2445   0.138E-03    0.631E-04
RMM:  13    -0.413215784588E+03    0.23039E-05   -0.31783E-07  1824   0.932E-04    0.276E-04
RMM:  14    -0.413215782260E+03    0.23280E-05   -0.19658E-07  1433   0.771E-04    0.150E-04
RMM:  15    -0.413215779336E+03    0.29247E-05   -0.14759E-07  1317   0.715E-04    0.922E-05
RMM:  16    -0.413215777516E+03    0.18198E-05   -0.97066E-08  1173   0.660E-04    0.706E-05
RMM:  17    -0.413215775212E+03    0.23035E-05   -0.80613E-08  1229   0.645E-04    0.516E-05
RMM:  18    -0.413215773277E+03    0.19354E-05   -0.56146E-08  1050   0.596E-04    0.367E-05
RMM:  19    -0.413215772411E+03    0.86604E-06   -0.34246E-08   870   0.561E-04
   44 T=    71. E= -.41286629E+03 F= -.41321577E+03 E0= -.41319480E+03  EK= 0.34948E+00 SP= 0.00E+00 SK= 0.00E+00
       N       E                     dE             d eps       ncg     rms          rms(c)
RMM:   1    -0.413228986228E+03   -0.13213E-01   -0.11825E+01  4307   0.145E+00    0.973E-01
RMM:   2    -0.413219568892E+03    0.94173E-02   -0.16954E-01  4314   0.171E-01    0.692E-01
RMM:   3    -0.413227440583E+03   -0.78717E-02   -0.18956E-02  5121   0.109E-01    0.468E-01
RMM:   4    -0.413238559126E+03   -0.11119E-01   -0.42581E-02  5035   0.179E-01    0.618E-01
RMM:   5    -0.413217103498E+03    0.21456E-01   -0.81523E-03  4616   0.105E-01    0.542E-02
RMM:   6    -0.413217073555E+03    0.29943E-04   -0.16148E-03  5544   0.389E-02    0.297E-02
RMM:   7    -0.413217071086E+03    0.24690E-05   -0.25912E-04  5641   0.156E-02    0.203E-02
RMM:   8    -0.413217061809E+03    0.92773E-05   -0.10147E-04  5070   0.104E-02    0.951E-03
RMM:   9    -0.413217048406E+03    0.13403E-04   -0.14986E-05  4209   0.521E-03    0.384E-03
RMM:  10    -0.413217044676E+03    0.37299E-05   -0.24500E-06  2666   0.217E-03    0.223E-03
RMM:  11    -0.413217037880E+03    0.67956E-05   -0.11362E-06  2481   0.174E-03    0.125E-03
RMM:  12    -0.413217032204E+03    0.56759E-05   -0.52686E-07  2403   0.128E-03    0.608E-04
RMM:  13    -0.413217028518E+03    0.36861E-05   -0.24725E-07  1767   0.864E-04    0.290E-04
RMM:  14    -0.413217024888E+03    0.36302E-05   -0.13955E-07  1296   0.699E-04    0.151E-04
RMM:  15    -0.413217019903E+03    0.49852E-05   -0.11154E-07  1233   0.677E-04    0.113E-04
RMM:  16    -0.413217017140E+03    0.27628E-05   -0.73004E-08  1104   0.629E-04    0.100E-04
RMM:  17    -0.413217013157E+03    0.39825E-05   -0.65426E-08  1198   0.629E-04    0.601E-05
RMM:  18    -0.413217010041E+03    0.31163E-05   -0.51680E-08  1139   0.592E-04    0.464E-05
RMM:  19    -0.413217009362E+03    0.67949E-06   -0.24452E-08   793   0.524E-04
   45 T=    71. E= -.41286659E+03 F= -.41321701E+03 E0= -.41319606E+03  EK= 0.35042E+00 SP= 0.00E+00 SK= 0.00E+00
       N       E                     dE             d eps       ncg     rms          rms(c)
RMM:   1    -0.413251219541E+03   -0.34210E-01   -0.11924E+01  4307   0.163E+00    0.955E-01
RMM:   2    -0.413219197526E+03    0.32022E-01   -0.17807E-01  4343   0.185E-01    0.688E-01
RMM:   3    -0.413229635715E+03   -0.10438E-01   -0.20815E-02  5120   0.119E-01    0.520E-01
RMM:   4    -0.413234477902E+03   -0.48422E-02   -0.41100E-02  5013   0.177E-01    0.569E-01
RMM:   5    -0.413216699973E+03    0.17778E-01   -0.66684E-03  4584   0.985E-02    0.539E-02
RMM:   6    -0.413216645434E+03    0.54539E-04   -0.12612E-03  5389   0.354E-02    0.288E-02
RMM:   7    -0.413216641813E+03    0.36209E-05   -0.21087E-04  5605   0.143E-02    0.195E-02
RMM:   8    -0.413216633440E+03    0.83729E-05   -0.11063E-04  5093   0.107E-02    0.981E-03
RMM:   9    -0.413216619489E+03    0.13952E-04   -0.15757E-05  4286   0.543E-03    0.386E-03
RMM:  10    -0.413216616514E+03    0.29748E-05   -0.26298E-06  2683   0.217E-03    0.222E-03
RMM:  11    -0.413216610361E+03    0.61525E-05   -0.12284E-06  2489   0.178E-03    0.124E-03
RMM:  12    -0.413216605863E+03    0.44986E-05   -0.52957E-07  2410   0.129E-03    0.663E-04
RMM:  13    -0.413216602289E+03    0.35735E-05   -0.24716E-07  1752   0.874E-04    0.321E-04
RMM:  14    -0.413216598849E+03    0.34407E-05   -0.13314E-07  1288   0.693E-04    0.164E-04
RMM:  15    -0.413216594776E+03    0.40727E-05   -0.98697E-08  1167   0.655E-04    0.106E-04
RMM:  16    -0.413216592238E+03    0.25381E-05   -0.65943E-08  1062   0.615E-04    0.981E-05
RMM:  17    -0.413216589148E+03    0.30899E-05   -0.55848E-08  1107   0.609E-04    0.588E-05
RMM:  18    -0.413216586021E+03    0.31267E-05   -0.46543E-08  1062   0.589E-04    0.438E-05
RMM:  19    -0.413216585289E+03    0.73202E-06   -0.20005E-08   754   0.525E-04
   46 T=    71. E= -.41286635E+03 F= -.41321659E+03 E0= -.41319565E+03  EK= 0.35023E+00 SP= 0.00E+00 SK= 0.00E+00
       N       E                     dE             d eps       ncg     rms          rms(c)
RMM:   1    -0.413235293164E+03   -0.18707E-01   -0.11765E+01  4309   0.164E+00    0.942E-01
RMM:   2    -0.413218494477E+03    0.16799E-01   -0.18591E-01  4352   0.197E-01    0.700E-01
RMM:   3    -0.413229617763E+03   -0.11123E-01   -0.21565E-02  5122   0.125E-01    0.544E-01
RMM:   4    -0.413234303236E+03   -0.46855E-02   -0.43855E-02  5008   0.183E-01    0.584E-01
RMM:   5    -0.413215408261E+03    0.18895E-01   -0.71250E-03  4584   0.102E-01    0.562E-02
RMM:   6    -0.413215340895E+03    0.67365E-04   -0.13267E-03  5355   0.364E-02    0.291E-02
RMM:   7    -0.413215337379E+03    0.35159E-05   -0.21817E-04  5655   0.144E-02    0.203E-02
RMM:   8    -0.413215329983E+03    0.73969E-05   -0.11404E-04  5130   0.109E-02    0.101E-02
RMM:   9    -0.413215317124E+03    0.12858E-04   -0.17767E-05  4360   0.571E-03    0.398E-03
RMM:  10    -0.413215315060E+03    0.20638E-05   -0.28579E-06  2705   0.225E-03    0.229E-03
RMM:  11    -0.413215310939E+03    0.41211E-05   -0.14091E-06  2505   0.187E-03    0.133E-03
RMM:  12    -0.413215307941E+03    0.29982E-05   -0.58296E-07  2427   0.134E-03    0.713E-04
RMM:  13    -0.413215305223E+03    0.27175E-05   -0.28379E-07  1789   0.919E-04    0.337E-04
RMM:  14    -0.413215302742E+03    0.24811E-05   -0.16080E-07  1382   0.733E-04    0.177E-04
RMM:  15    -0.413215299951E+03    0.27911E-05   -0.11397E-07  1206   0.674E-04    0.104E-04
RMM:  16    -0.413215297961E+03    0.19899E-05   -0.78822E-08  1114   0.627E-04    0.934E-05
RMM:  17    -0.413215296044E+03    0.19176E-05   -0.57025E-08  1039   0.599E-04    0.528E-05
RMM:  18    -0.413215293480E+03    0.25641E-05   -0.58064E-08  1104   0.598E-04    0.439E-05
RMM:  19    -0.413215293035E+03    0.44419E-06   -0.20971E-08   709   0.524E-04
   47 T=    71. E= -.41286630E+03 F= -.41321529E+03 E0= -.41319438E+03  EK= 0.34899E+00 SP= 0.00E+00 SK= 0.00E+00
       N       E                     dE             d eps       ncg     rms          rms(c)
RMM:   1    -0.413251244142E+03   -0.35951E-01   -0.11846E+01  4303   0.180E+00    0.964E-01
RMM:   2    -0.413215686252E+03    0.35558E-01   -0.19098E-01  4412   0.205E-01    0.696E-01
RMM:   3    -0.413234235044E+03   -0.18549E-01   -0.27965E-02  5142   0.145E-01    0.653E-01
RMM:   4    -0.413224421900E+03    0.98131E-02   -0.40113E-02  4977   0.179E-01    0.472E-01
RMM:   5    -0.413213071586E+03    0.11350E-01   -0.48825E-03  4535   0.912E-02    0.577E-02
RMM:   6    -0.413212942968E+03    0.12862E-03   -0.62114E-04  4845   0.296E-02    0.291E-02
RMM:   7    -0.413212933763E+03    0.92054E-05   -0.17946E-04  5933   0.135E-02    0.144E-02
RMM:   8    -0.413212927934E+03    0.58283E-05   -0.91610E-05  5212   0.107E-02    0.126E-02
RMM:   9    -0.413212917112E+03    0.10822E-04   -0.22311E-05  4559   0.574E-03    0.452E-03
RMM:  10    -0.413212913541E+03    0.35711E-05   -0.32145E-06  2688   0.279E-03    0.235E-03
RMM:  11    -0.413212908349E+03    0.51922E-05   -0.21747E-06  2539   0.234E-03    0.157E-03
RMM:  12    -0.413212903893E+03    0.44563E-05   -0.80886E-07  2422   0.164E-03    0.959E-04
RMM:  13    -0.413212900504E+03    0.33886E-05   -0.33992E-07  2230   0.105E-03    0.598E-04
RMM:  14    -0.413212894943E+03    0.55611E-05   -0.21577E-07  1851   0.836E-04    0.365E-04
RMM:  15    -0.413212891010E+03    0.39329E-05   -0.11297E-07  1213   0.644E-04    0.194E-04
RMM:  16    -0.413212889099E+03    0.19107E-05   -0.66018E-08   964   0.571E-04    0.965E-05
RMM:  17    -0.413212885604E+03    0.34951E-05   -0.66650E-08  1037   0.597E-04    0.885E-05
RMM:  18    -0.413212883918E+03    0.16865E-05   -0.35440E-08   850   0.565E-04    0.664E-05
RMM:  19    -0.413212883161E+03    0.75655E-06   -0.20232E-08   715   0.540E-04
   48 T=    71. E= -.41286656E+03 F= -.41321288E+03 E0= -.41319198E+03  EK= 0.34632E+00 SP= 0.00E+00 SK= 0.00E+00
       N       E                     dE             d eps       ncg     rms          rms(c)
RMM:   1    -0.413250414395E+03   -0.37530E-01   -0.11636E+01  4303   0.191E+00    0.954E-01
RMM:   2    -0.413210426798E+03    0.39988E-01   -0.18749E-01  4462   0.215E-01    0.684E-01
RMM:   3    -0.413236116016E+03   -0.25689E-01   -0.34105E-02  5158   0.163E-01    0.741E-01
RMM:   4    -0.413215515176E+03    0.20601E-01   -0.39193E-02  4945   0.180E-01    0.400E-01
RMM:   5    -0.413208006480E+03    0.75087E-02   -0.46277E-03  4662   0.903E-02    0.663E-02
RMM:   6    -0.413207796176E+03    0.21030E-03   -0.47061E-04  4647   0.302E-02    0.323E-02
RMM:   7    -0.413207800770E+03   -0.45938E-05   -0.24202E-04  5781   0.165E-02    0.234E-02
RMM:   8    -0.413207772347E+03    0.28423E-04   -0.82812E-05  4993   0.103E-02    0.943E-03
RMM:   9    -0.413207764248E+03    0.80989E-05   -0.17145E-05  4432   0.528E-03    0.441E-03
RMM:  10    -0.413207759631E+03    0.46166E-05   -0.23786E-06  2622   0.236E-03    0.256E-03
RMM:  11    -0.413207753257E+03    0.63743E-05   -0.10424E-06  2491   0.172E-03    0.166E-03
RMM:  12    -0.413207749497E+03    0.37598E-05   -0.36529E-07  2360   0.111E-03    0.840E-04
RMM:  13    -0.413207744320E+03    0.51776E-05   -0.29701E-07  2011   0.904E-04    0.411E-04
RMM:  14    -0.413207739724E+03    0.45959E-05   -0.17460E-07  1497   0.736E-04    0.304E-04
RMM:  15    -0.413207735128E+03    0.45961E-05   -0.11963E-07  1169   0.654E-04    0.131E-04
RMM:  16    -0.413207732447E+03    0.26804E-05   -0.78866E-08  1150   0.618E-04    0.895E-05
RMM:  17    -0.413207728869E+03    0.35778E-05   -0.71356E-08  1221   0.621E-04    0.856E-05
RMM:  18    -0.413207727916E+03    0.95295E-06   -0.33769E-08   902   0.540E-04
   49 T=    70. E= -.41286625E+03 F= -.41320773E+03 E0= -.41318684E+03  EK= 0.34148E+00 SP= 0.00E+00 SK= 0.00E+00
       N       E                     dE             d eps       ncg     rms          rms(c)
RMM:   1    -0.413225638675E+03   -0.17910E-01   -0.11222E+01  4303   0.192E+00    0.923E-01
RMM:   2    -0.413204528946E+03    0.21110E-01   -0.18473E-01  4483   0.223E-01    0.687E-01
RMM:   3    -0.413230647379E+03   -0.26118E-01   -0.34484E-02  5157   0.166E-01    0.754E-01
RMM:   4    -0.413209273119E+03    0.21374E-01   -0.40455E-02  4943   0.184E-01    0.401E-01
RMM:   5    -0.413201567372E+03    0.77057E-02   -0.50960E-03  4719   0.944E-02    0.707E-02
RMM:   6    -0.413201312931E+03    0.25444E-03   -0.50748E-04  4633   0.319E-02    0.330E-02
RMM:   7    -0.413201314354E+03   -0.14239E-05   -0.24122E-04  5769   0.165E-02    0.233E-02
RMM:   8    -0.413201287508E+03    0.26847E-04   -0.81474E-05  5043   0.999E-03    0.999E-03
RMM:   9    -0.413201280586E+03    0.69212E-05   -0.17965E-05  4439   0.536E-03    0.433E-03
RMM:  10    -0.413201276898E+03    0.36889E-05   -0.26390E-06  2655   0.241E-03    0.261E-03
RMM:  11    -0.413201272388E+03    0.45095E-05   -0.93478E-07  2487   0.165E-03    0.159E-03
RMM:  12    -0.413201269587E+03    0.28010E-05   -0.37211E-07  2326   0.109E-03    0.804E-04
RMM:  13    -0.413201265611E+03    0.39757E-05   -0.36522E-07  2143   0.962E-04    0.469E-04
RMM:  14    -0.413201262677E+03    0.29345E-05   -0.18419E-07  1373   0.734E-04    0.294E-04
RMM:  15    -0.413201259465E+03    0.32124E-05   -0.14751E-07  1235   0.692E-04    0.133E-04
[...]
RMM:  14    -0.413160737698E+03   -0.42654E-05   -0.36856E-07  1805   0.882E-04    0.260E-04
RMM:  15    -0.413160743766E+03   -0.60673E-05   -0.49837E-07  2067   0.946E-04    0.274E-04
RMM:  16    -0.413160747473E+03   -0.37072E-05   -0.25261E-07  1464   0.733E-04    0.137E-04
RMM:  17    -0.413160749556E+03   -0.20829E-05   -0.13348E-07  1213   0.644E-04    0.670E-05
RMM:  18    -0.413160750820E+03   -0.12640E-05   -0.80389E-08  1145   0.586E-04    0.578E-05
RMM:  19    -0.413160751787E+03   -0.96783E-06   -0.48411E-08   950   0.531E-04
  139 T=    60. E= -.41286604E+03 F= -.41316075E+03 E0= -.41314003E+03  EK= 0.29472E+00 SP= 0.00E+00 SK= 0.00E+00
       N       E                     dE             d eps       ncg     rms          rms(c)
RMM:   1    -0.413165644432E+03   -0.48936E-02   -0.62480E+00  4265   0.702E-01    0.811E-01
RMM:   2    -0.413165498818E+03    0.14561E-03   -0.74926E-02  4326   0.799E-02    0.592E-01
RMM:   3    -0.413162522825E+03    0.29760E-02   -0.29973E-02  5009   0.652E-02    0.205E-01
RMM:   4    -0.413183883187E+03   -0.21360E-01   -0.27591E-02  5101   0.141E-01    0.634E-01
RMM:   5    -0.413160710704E+03    0.23172E-01   -0.10942E-02  4763   0.107E-01    0.494E-02
RMM:   6    -0.413160736616E+03   -0.25912E-04   -0.18895E-03  5626   0.425E-02    0.295E-02
RMM:   7    -0.413160771220E+03   -0.34605E-04   -0.32004E-04  5766   0.160E-02    0.183E-02
RMM:   8    -0.413160781389E+03   -0.10169E-04   -0.52164E-05  5201   0.795E-03    0.837E-03
RMM:   9    -0.413160788766E+03   -0.73770E-05   -0.76219E-06  3143   0.332E-03    0.423E-03
RMM:  10    -0.413160800694E+03   -0.11928E-04   -0.22769E-06  2583   0.214E-03    0.261E-03
RMM:  11    -0.413160811969E+03   -0.11276E-04   -0.14533E-06  2515   0.168E-03    0.129E-03
RMM:  12    -0.413160823110E+03   -0.11141E-04   -0.12710E-06  2479   0.145E-03    0.618E-04
RMM:  13    -0.413160828174E+03   -0.50635E-05   -0.50574E-07  2051   0.102E-03    0.420E-04
RMM:  14    -0.413160832760E+03   -0.45866E-05   -0.32907E-07  1700   0.858E-04    0.266E-04
RMM:  15    -0.413160840539E+03   -0.77789E-05   -0.53780E-07  2190   0.984E-04    0.327E-04
RMM:  16    -0.413160844504E+03   -0.39645E-05   -0.23826E-07  1349   0.706E-04    0.185E-04
RMM:  17    -0.413160846864E+03   -0.23601E-05   -0.13861E-07  1295   0.666E-04    0.900E-05
RMM:  18    -0.413160848236E+03   -0.13723E-05   -0.82996E-08  1207   0.598E-04    0.509E-05
RMM:  19    -0.413160849353E+03   -0.11166E-05   -0.53441E-08  1032   0.541E-04    0.596E-05
RMM:  20    -0.413160849531E+03   -0.17801E-06   -0.23418E-08   758   0.482E-04
  140 T=    60. E= -.41286602E+03 F= -.41316085E+03 E0= -.41314014E+03  EK= 0.29483E+00 SP= 0.00E+00 SK= 0.00E+00
       N       E                     dE             d eps       ncg     rms          rms(c)
RMM:   1    -0.413165045745E+03   -0.41964E-02   -0.66204E+00  4265   0.719E-01    0.812E-01
RMM:   2    -0.413165680783E+03   -0.63504E-03   -0.77586E-02  4313   0.824E-02    0.596E-01
RMM:   3    -0.413162273289E+03    0.34075E-02   -0.27386E-02  4934   0.602E-02    0.170E-01
RMM:   4    -0.413182182801E+03   -0.19910E-01   -0.23353E-02  5115   0.129E-01    0.604E-01
RMM:   5    -0.413161146524E+03    0.21036E-01   -0.10158E-02  4793   0.101E-01    0.479E-02
RMM:   6    -0.413161182382E+03   -0.35858E-04   -0.17861E-03  5666   0.412E-02    0.303E-02
RMM:   7    -0.413161217527E+03   -0.35145E-04   -0.31714E-04  5688   0.160E-02    0.177E-02
RMM:   8    -0.413161230065E+03   -0.12538E-04   -0.47738E-05  5174   0.758E-03    0.819E-03
RMM:   9    -0.413161238912E+03   -0.88468E-05   -0.71281E-06  3113   0.318E-03    0.442E-03
RMM:  10    -0.413161254409E+03   -0.15497E-04   -0.23100E-06  2582   0.215E-03    0.267E-03
RMM:  11    -0.413161267606E+03   -0.13197E-04   -0.14020E-06  2515   0.165E-03    0.130E-03
RMM:  12    -0.413161281237E+03   -0.13631E-04   -0.13676E-06  2494   0.149E-03    0.661E-04
RMM:  13    -0.413161287962E+03   -0.67245E-05   -0.59054E-07  2126   0.106E-03    0.420E-04
RMM:  14    -0.413161292167E+03   -0.42051E-05   -0.30930E-07  1702   0.841E-04    0.279E-04
RMM:  15    -0.413161300709E+03   -0.85428E-05   -0.55800E-07  2171   0.988E-04    0.325E-04
RMM:  16    -0.413161305114E+03   -0.44042E-05   -0.25903E-07  1378   0.723E-04    0.204E-04
RMM:  17    -0.413161307124E+03   -0.20102E-05   -0.12792E-07  1249   0.647E-04    0.106E-04
RMM:  18    -0.413161308797E+03   -0.16735E-05   -0.92202E-08  1269   0.612E-04    0.514E-05
RMM:  19    -0.413161309483E+03   -0.68556E-06   -0.43857E-08   885   0.523E-04
  141 T=    60. E= -.41286578E+03 F= -.41316131E+03 E0= -.41314062E+03  EK= 0.29553E+00 SP= 0.00E+00 SK= 0.00E+00
       N       E                     dE             d eps       ncg     rms          rms(c)
RMM:   1    -0.413164013651E+03   -0.27049E-02   -0.69724E+00  4264   0.744E-01    0.824E-01
RMM:   2    -0.413164891903E+03   -0.87825E-03   -0.80345E-02  4309   0.838E-02    0.591E-01
RMM:   3    -0.413161490941E+03    0.34010E-02   -0.21333E-02  4888   0.500E-02    0.104E-01
RMM:   4    -0.413176217741E+03   -0.14727E-01   -0.15894E-02  5134   0.107E-01    0.515E-01
RMM:   5    -0.413161038836E+03    0.15179E-01   -0.74888E-03  4818   0.855E-02    0.462E-02
RMM:   6    -0.413161067569E+03   -0.28734E-04   -0.14111E-03  5649   0.369E-02    0.320E-02
RMM:   7    -0.413161090490E+03   -0.22921E-04   -0.29003E-04  5554   0.156E-02    0.172E-02
RMM:   8    -0.413161096473E+03   -0.59828E-05   -0.42093E-05  5124   0.715E-03    0.826E-03
RMM:   9    -0.413161100859E+03   -0.43858E-05   -0.55464E-06  2977   0.286E-03    0.455E-03
RMM:  10    -0.413161110797E+03   -0.99382E-05   -0.21456E-06  2562   0.211E-03    0.259E-03
RMM:  11    -0.413161119173E+03   -0.83763E-05   -0.13413E-06  2516   0.162E-03    0.126E-03
RMM:  12    -0.413161127163E+03   -0.79899E-05   -0.12089E-06  2445   0.141E-03    0.636E-04
RMM:  13    -0.413161132549E+03   -0.53861E-05   -0.67474E-07  2152   0.108E-03    0.389E-04
RMM:  14    -0.413161135430E+03   -0.28811E-05   -0.31623E-07  1682   0.829E-04    0.279E-04
RMM:  15    -0.413161141312E+03   -0.58816E-05   -0.55287E-07  2051   0.957E-04    0.275E-04
RMM:  16    -0.413161144612E+03   -0.33000E-05   -0.28548E-07  1439   0.735E-04    0.190E-04
RMM:  17    -0.413161145991E+03   -0.13793E-05   -0.12018E-07  1156   0.619E-04    0.956E-05
RMM:  18    -0.413161147827E+03   -0.18357E-05   -0.10517E-07  1345   0.628E-04    0.607E-05
RMM:  19    -0.413161148128E+03   -0.30077E-06   -0.38751E-08   829   0.508E-04
  142 T=    60. E= -.41286612E+03 F= -.41316115E+03 E0= -.41314046E+03  EK= 0.29503E+00 SP= 0.00E+00 SK= 0.00E+00
       N       E                     dE             d eps       ncg     rms          rms(c)
RMM:   1    -0.413161507980E+03   -0.36015E-03   -0.73238E+00  4264   0.755E-01    0.811E-01
RMM:   2    -0.413163786422E+03   -0.22784E-02   -0.82980E-02  4308   0.850E-02    0.583E-01
RMM:   3    -0.413160522275E+03    0.32641E-02   -0.17865E-02  4744   0.450E-02    0.714E-02
RMM:   4    -0.413166003313E+03   -0.54810E-02   -0.58419E-03  5144   0.657E-02    0.317E-01
RMM:   5    -0.413160375867E+03    0.56274E-02   -0.28933E-03  4835   0.530E-02    0.420E-02
RMM:   6    -0.413160397628E+03   -0.21762E-04   -0.70409E-04  5529   0.270E-02    0.314E-02
RMM:   7    -0.413160408470E+03   -0.10842E-04   -0.21684E-04  5284   0.138E-02    0.156E-02
RMM:   8    -0.413160411687E+03   -0.32165E-05   -0.29558E-05  4877   0.614E-03    0.747E-03
RMM:   9    -0.413160416192E+03   -0.45050E-05   -0.44158E-06  2770   0.239E-03    0.370E-03
RMM:  10    -0.413160426965E+03   -0.10773E-04   -0.16470E-06  2531   0.181E-03    0.199E-03
RMM:  11    -0.413160436733E+03   -0.97679E-05   -0.12440E-06  2489   0.146E-03    0.954E-04
RMM:  12    -0.413160444767E+03   -0.80347E-05   -0.98247E-07  2238   0.123E-03    0.425E-04
RMM:  13    -0.413160450974E+03   -0.62067E-05   -0.72019E-07  2083   0.103E-03    0.322E-04
RMM:  14    -0.413160455040E+03   -0.40654E-05   -0.41582E-07  1652   0.844E-04    0.264E-04
RMM:  15    -0.413160460135E+03   -0.50959E-05   -0.50600E-07  1879   0.898E-04    0.160E-04
RMM:  16    -0.413160462690E+03   -0.25542E-05   -0.22601E-07  1396   0.696E-04    0.117E-04
RMM:  17    -0.413160463543E+03   -0.85339E-06   -0.88513E-08  1010   0.562E-04
  143 T=    60. E= -.41286586E+03 F= -.41316046E+03 E0= -.41313979E+03  EK= 0.29460E+00 SP= 0.00E+00 SK= 0.00E+00
       N       E                     dE             d eps       ncg     rms          rms(c)
RMM:   1    -0.413160779061E+03   -0.31637E-03   -0.77881E+00  4264   0.778E-01    0.806E-01
RMM:   2    -0.413164680354E+03   -0.39013E-02   -0.87445E-02  4306   0.882E-02    0.587E-01
RMM:   3    -0.413161353386E+03    0.33270E-02   -0.15880E-02  4576   0.452E-02    0.565E-02
RMM:   4    -0.413161591981E+03   -0.23859E-03   -0.56442E-04  5166   0.230E-02    0.781E-02
RMM:   5    -0.413161353546E+03    0.23843E-03   -0.25246E-04  4936   0.162E-02    0.453E-02
RMM:   6    -0.413161347245E+03    0.63016E-05   -0.29874E-04  5231   0.175E-02    0.294E-02
RMM:   7    -0.413161367422E+03   -0.20177E-04   -0.16865E-04  4818   0.113E-02    0.159E-02
RMM:   8    -0.413161366303E+03    0.11195E-05   -0.13095E-05  3977   0.455E-03    0.759E-03
RMM:   9    -0.413161372220E+03   -0.59169E-05   -0.68695E-06  2595   0.254E-03    0.208E-03
RMM:  10    -0.413161389161E+03   -0.16941E-04   -0.26205E-06  2526   0.211E-03    0.112E-03
RMM:  11    -0.413161404689E+03   -0.15528E-04   -0.18230E-06  2496   0.167E-03    0.650E-04
RMM:  12    -0.413161409857E+03   -0.51685E-05   -0.53970E-07  2098   0.104E-03    0.562E-04
RMM:  13    -0.413161416701E+03   -0.68437E-05   -0.49943E-07  1782   0.906E-04    0.469E-04
RMM:  14    -0.413161424336E+03   -0.76348E-05   -0.68569E-07  1962   0.955E-04    0.264E-04
RMM:  15    -0.413161425133E+03   -0.79752E-06   -0.10003E-07  1012   0.545E-04
  144 T=    60. E= -.41286597E+03 F= -.41316143E+03 E0= -.41314076E+03  EK= 0.29545E+00 SP= 0.00E+00 SK= 0.00E+00
       N       E                     dE             d eps       ncg     rms          rms(c)
RMM:   1    -0.413159687887E+03    0.17364E-02   -0.82306E+00  4264   0.805E-01    0.821E-01
RMM:   2    -0.413163677863E+03   -0.39900E-02   -0.91252E-02  4307   0.911E-02    0.583E-01
RMM:   3    -0.413161243925E+03    0.24339E-02   -0.12601E-02  4653   0.411E-02    0.648E-02
RMM:   4    -0.413163084110E+03   -0.18402E-02   -0.21884E-03  5198   0.407E-02    0.184E-01
RMM:   5    -0.413161259651E+03    0.18245E-02   -0.10166E-03  4854   0.320E-02    0.408E-02
RMM:   6    -0.413161268310E+03   -0.86591E-05   -0.40085E-04  5397   0.206E-02    0.298E-02
RMM:   7    -0.413161285272E+03   -0.16961E-04   -0.17937E-04  5035   0.117E-02    0.155E-02
RMM:   8    -0.413161284455E+03    0.81676E-06   -0.18577E-05  4453   0.511E-03    0.727E-03
RMM:   9    -0.413161288809E+03   -0.43545E-05   -0.54129E-06  2645   0.241E-03    0.268E-03
RMM:  10    -0.413161298258E+03   -0.94484E-05   -0.17300E-06  2522   0.188E-03    0.151E-03
RMM:  11    -0.413161308972E+03   -0.10715E-04   -0.15838E-06  2505   0.161E-03    0.834E-04
RMM:  12    -0.413161314501E+03   -0.55286E-05   -0.72005E-07  2160   0.113E-03    0.359E-04
RMM:  13    -0.413161319235E+03   -0.47338E-05   -0.58653E-07  1966   0.968E-04    0.337E-04
RMM:  14    -0.413161323715E+03   -0.44802E-05   -0.55269E-07  1748   0.893E-04    0.216E-04
RMM:  15    -0.413161326481E+03   -0.27658E-05   -0.32097E-07  1553   0.765E-04    0.748E-05
RMM:  16    -0.413161328362E+03   -0.18814E-05   -0.18295E-07  1295   0.667E-04    0.669E-05
RMM:  17    -0.413161329332E+03   -0.97023E-06   -0.86850E-08  1082   0.571E-04
  145 T=    60. E= -.41286604E+03 F= -.41316133E+03 E0= -.41314067E+03  EK= 0.29529E+00 SP= 0.00E+00 SK= 0.00E+00
       N       E                     dE             d eps       ncg     rms          rms(c)
RMM:   1    -0.413157092223E+03    0.42361E-02   -0.85977E+00  4264   0.818E-01    0.820E-01
RMM:   2    -0.413162195782E+03   -0.51036E-02   -0.94584E-02  4318   0.897E-02    0.574E-01
RMM:   3    -0.413160427311E+03    0.17685E-02   -0.10501E-02  4891   0.395E-02    0.904E-02
RMM:   4    -0.413169960011E+03   -0.95327E-02   -0.99137E-03  5167   0.840E-02    0.411E-01
RMM:   5    -0.413160377899E+03    0.95821E-02   -0.48933E-03  4836   0.683E-02    0.440E-02
RMM:   6    -0.413160382162E+03   -0.42632E-05   -0.96007E-04  5636   0.301E-02    0.297E-02
RMM:   7    -0.413160404200E+03   -0.22038E-04   -0.22019E-04  5588   0.129E-02    0.137E-02
RMM:   8    -0.413160408371E+03   -0.41707E-05   -0.32170E-05  4969   0.624E-03    0.692E-03
RMM:   9    -0.413160411284E+03   -0.29139E-05   -0.37838E-06  2792   0.250E-03    0.363E-03
RMM:  10    -0.413160418690E+03   -0.74051E-05   -0.17943E-06  2549   0.194E-03    0.203E-03
RMM:  11    -0.413160425549E+03   -0.68594E-05   -0.12987E-06  2503   0.156E-03    0.100E-03
RMM:  12    -0.413160430372E+03   -0.48226E-05   -0.85886E-07  2285   0.122E-03    0.490E-04
RMM:  13    -0.413160433525E+03   -0.31538E-05   -0.56091E-07  1997   0.985E-04    0.272E-04
RMM:  14    -0.413160435597E+03   -0.20713E-05   -0.33447E-07  1538   0.818E-04    0.226E-04
RMM:  15    -0.413160437895E+03   -0.22988E-05   -0.36676E-07  1534   0.802E-04    0.117E-04
RMM:  16    -0.413160439194E+03   -0.12985E-05   -0.20108E-07  1351   0.703E-04    0.689E-05
RMM:  17    -0.413160439688E+03   -0.49414E-06   -0.90304E-08  1068   0.595E-04
  146 T=    60. E= -.41286590E+03 F= -.41316044E+03 E0= -.41313979E+03  EK= 0.29454E+00 SP= 0.00E+00 SK= 0.00E+00
       N       E                     dE             d eps       ncg     rms          rms(c)
RMM:   1    -0.413156496414E+03    0.39428E-02   -0.89499E+00  4264   0.829E-01    0.805E-01
RMM:   2    -0.413163535231E+03   -0.70388E-02   -0.99811E-02  4325   0.904E-02    0.577E-01
RMM:   3    -0.413161670299E+03    0.18649E-02   -0.90377E-03  5001   0.407E-02    0.106E-01
RMM:   4    -0.413181433903E+03   -0.19764E-01   -0.20636E-02  5151   0.120E-01    0.588E-01
RMM:   5    -0.413161431575E+03    0.20002E-01   -0.99785E-03  4826   0.974E-02    0.474E-02
RMM:   6    -0.413161458459E+03   -0.26884E-04   -0.16709E-03  5704   0.390E-02    0.266E-02
RMM:   7    -0.413161493973E+03   -0.35513E-04   -0.26111E-04  5830   0.136E-02    0.131E-02
RMM:   8    -0.413161507741E+03   -0.13768E-04   -0.41172E-05  5092   0.672E-03    0.694E-03
RMM:   9    -0.413161513242E+03   -0.55015E-05   -0.60804E-06  3067   0.296E-03    0.365E-03
RMM:  10    -0.413161524073E+03   -0.10830E-04   -0.22496E-06  2563   0.214E-03    0.231E-03
RMM:  11    -0.413161534085E+03   -0.10012E-04   -0.14332E-06  2516   0.166E-03    0.115E-03
RMM:  12    -0.413161541777E+03   -0.76922E-05   -0.10148E-06  2449   0.133E-03    0.552E-04
RMM:  13    -0.413161545657E+03   -0.38796E-05   -0.50256E-07  1941   0.968E-04    0.307E-04
RMM:  14    -0.413161548171E+03   -0.25147E-05   -0.30717E-07  1547   0.819E-04    0.196E-04
RMM:  15    -0.413161550641E+03   -0.24695E-05   -0.29520E-07  1541   0.787E-04    0.115E-04
RMM:  16    -0.413161552494E+03   -0.18536E-05   -0.25065E-07  1502   0.746E-04    0.826E-05
RMM:  17    -0.413161552767E+03   -0.27312E-06   -0.83492E-08  1046   0.584E-04
  147 T=    60. E= -.41286623E+03 F= -.41316155E+03 E0= -.41314091E+03  EK= 0.29532E+00 SP= 0.00E+00 SK= 0.00E+00
       N       E                     dE             d eps       ncg     rms          rms(c)
RMM:   1    -0.413155496849E+03    0.60556E-02   -0.93047E+00  4264   0.845E-01    0.817E-01
RMM:   2    -0.413162824886E+03   -0.73280E-02   -0.10389E-01  4324   0.914E-02    0.577E-01
RMM:   3    -0.413161859749E+03    0.96514E-03   -0.79987E-03  5030   0.417E-02    0.132E-01
RMM:   4    -0.413188967968E+03   -0.27108E-01   -0.28758E-02  5146   0.141E-01    0.686E-01
RMM:   5    -0.413161452987E+03    0.27515E-01   -0.13595E-02  4821   0.114E-01    0.510E-02
RMM:   6    -0.413161490844E+03   -0.37856E-04   -0.22182E-03  5709   0.451E-02    0.240E-02
RMM:   7    -0.413161528822E+03   -0.37978E-04   -0.30621E-04  5926   0.146E-02    0.134E-02
RMM:   8    -0.413161544204E+03   -0.15382E-04   -0.47449E-05  5205   0.709E-03    0.713E-03
RMM:   9    -0.413161549787E+03   -0.55834E-05   -0.81553E-06  3249   0.326E-03    0.348E-03
RMM:  10    -0.413161557959E+03   -0.81723E-05   -0.24976E-06  2571   0.219E-03    0.235E-03
RMM:  11    -0.413161565911E+03   -0.79513E-05   -0.15209E-06  2526   0.173E-03    0.125E-03
RMM:  12    -0.413161572029E+03   -0.61183E-05   -0.10834E-06  2463   0.137E-03    0.501E-04
RMM:  13    -0.413161574405E+03   -0.23755E-05   -0.47047E-07  1921   0.960E-04    0.319E-04
RMM:  14    -0.413161576277E+03   -0.18720E-05   -0.33457E-07  1509   0.830E-04    0.185E-04
RMM:  15    -0.413161577679E+03   -0.14029E-05   -0.28639E-07  1483   0.784E-04    0.994E-05
RMM:  16    -0.413161578579E+03   -0.89976E-06   -0.25236E-07  1513   0.756E-04
  148 T=    60. E= -.41286605E+03 F= -.41316158E+03 E0= -.41314094E+03  EK= 0.29553E+00 SP= 0.00E+00 SK= 0.00E+00
       N       E                     dE             d eps       ncg     rms          rms(c)
RMM:   1    -0.413154070945E+03    0.75067E-02   -0.95433E+00  4264   0.855E-01    0.827E-01
RMM:   2    -0.413161639685E+03   -0.75687E-02   -0.10561E-01  4322   0.938E-02    0.569E-01
RMM:   3    -0.413161396095E+03    0.24359E-03   -0.74172E-03  5106   0.425E-02    0.159E-01
RMM:   4    -0.413192445341E+03   -0.31049E-01   -0.33979E-02  5147   0.153E-01    0.735E-01
RMM:   5    -0.413160817215E+03    0.31628E-01   -0.15510E-02  4822   0.123E-01    0.548E-02
RMM:   6    -0.413160852613E+03   -0.35397E-04   -0.25064E-03  5671   0.482E-02    0.220E-02
RMM:   7    -0.413160893423E+03   -0.40810E-04   -0.34220E-04  6005   0.153E-02    0.135E-02
RMM:   8    -0.413160904472E+03   -0.11049E-04   -0.49587E-05  5254   0.703E-03    0.722E-03
RMM:   9    -0.413160908554E+03   -0.40820E-05   -0.84162E-06  3192   0.328E-03    0.336E-03
RMM:  10    -0.413160913157E+03   -0.46033E-05   -0.24388E-06  2573   0.213E-03    0.220E-03
RMM:  11    -0.413160917846E+03   -0.46893E-05   -0.16313E-06  2535   0.176E-03    0.125E-03
RMM:  12    -0.413160920705E+03   -0.28589E-05   -0.10272E-06  2456   0.135E-03    0.447E-04
RMM:  13    -0.413160921614E+03   -0.90852E-06   -0.43032E-07  1889   0.945E-04
  149 T=    60. E= -.41286610E+03 F= -.41316092E+03 E0= -.41314028E+03  EK= 0.29482E+00 SP= 0.00E+00 SK= 0.00E+00
       N       E                     dE             d eps       ncg     rms          rms(c)
RMM:   1    -0.413156004255E+03    0.49165E-02   -0.96744E+00  4264   0.884E-01    0.804E-01
RMM:   2    -0.413162960153E+03   -0.69559E-02   -0.11117E-01  4328   0.953E-02    0.570E-01
RMM:   3    -0.413162532822E+03    0.42733E-03   -0.64703E-03  5135   0.438E-02    0.170E-01
RMM:   4    -0.413196556698E+03   -0.34024E-01   -0.37720E-02  5146   0.161E-01    0.769E-01
RMM:   5    -0.413161730907E+03    0.34826E-01   -0.16970E-02  4820   0.129E-01    0.547E-02
RMM:   6    -0.413161778117E+03   -0.47210E-04   -0.27093E-03  5661   0.504E-02    0.168E-02
RMM:   7    -0.413161822884E+03   -0.44767E-04   -0.36173E-04  6031   0.155E-02    0.123E-02
RMM:   8    -0.413161836960E+03   -0.14075E-04   -0.45789E-05  5090   0.645E-03    0.697E-03
RMM:   9    -0.413161847356E+03   -0.10397E-04   -0.78452E-06  3039   0.316E-03    0.332E-03
RMM:  10    -0.413161855136E+03   -0.77797E-05   -0.23627E-06  2572   0.206E-03    0.201E-03
RMM:  11    -0.413161863488E+03   -0.83525E-05   -0.16841E-06  2548   0.170E-03    0.118E-03
RMM:  12    -0.413161868403E+03   -0.49148E-05   -0.10808E-06  2403   0.131E-03    0.465E-04
RMM:  13    -0.413161870288E+03   -0.18851E-05   -0.50862E-07  1903   0.957E-04    0.283E-04
RMM:  14    -0.413161871935E+03   -0.16467E-05   -0.54592E-07  1843   0.947E-04    0.220E-04
RMM:  15    -0.413161872598E+03   -0.66331E-06   -0.52170E-07  1796   0.893E-04
  150 T=    60. E= -.41286628E+03 F= -.41316187E+03 E0= -.41314124E+03  EK= 0.29559E+00 SP= 0.00E+00 SK= 0.00E+00
