       N       E                     dE             d eps       ncg     rms          rms(c)
RMM:   1     0.220070985649E+04    0.22007E+04   -0.52445E+04  2132   0.654E+02
RMM:   2     0.705136179559E+03   -0.14956E+04   -0.16262E+04  2132   0.177E+02
RMM:   3     0.137747637961E+03   -0.56739E+03   -0.65684E+03  2132   0.117E+02
RMM:   4    -0.159197103517E+03   -0.29694E+03   -0.27827E+03  2132   0.936E+01
RMM:   5    -0.287411032033E+03   -0.12821E+03   -0.11434E+03  2132   0.595E+01
RMM:   6    -0.349843536538E+03   -0.62433E+02   -0.55180E+02  2132   0.423E+01
RMM:   7    -0.382739144509E+03   -0.32896E+02   -0.30439E+02  2132   0.293E+01
RMM:   8    -0.404251916243E+03   -0.21513E+02   -0.18419E+02  2132   0.233E+01
RMM:   9    -0.436019175734E+03   -0.31767E+02   -0.30630E+02  6101   0.173E+01
RMM:  10    -0.441336158950E+03   -0.53170E+01   -0.63191E+01  6394   0.539E+00
RMM:  11    -0.442511980837E+03   -0.11758E+01   -0.10927E+01  6222   0.173E+00
RMM:  12    -0.442880168201E+03   -0.36819E+00   -0.25488E+00  6367   0.596E-01    0.134E+02
RMM:  13    -0.425633086757E+03    0.17247E+02   -0.81048E+01  4677   0.119E+01    0.712E+01
RMM:  14    -0.500428348156E+03   -0.74795E+02   -0.54421E+02  5413   0.233E+01    0.309E+01
RMM:  15    -0.416363991054E+03    0.84064E+02   -0.20075E+02  5097   0.164E+01    0.734E+00
RMM:  16    -0.414001013429E+03    0.23630E+01   -0.39747E+01  6081   0.614E+00    0.426E+00
RMM:  17    -0.413210227713E+03    0.79079E+00   -0.25768E+00  5408   0.190E+00    0.244E+00
RMM:  18    -0.413176641659E+03    0.33586E-01   -0.75809E-01  5980   0.887E-01    0.169E+00
RMM:  19    -0.413169143462E+03    0.74982E-02   -0.28121E-01  5679   0.573E-01    0.882E-01
RMM:  20    -0.413190509786E+03   -0.21366E-01   -0.29067E-01  5574   0.560E-01    0.642E-01
RMM:  21    -0.413168704990E+03    0.21805E-01   -0.38170E-02  4976   0.247E-01    0.295E-01
RMM:  22    -0.413165596204E+03    0.31088E-02   -0.22858E-02  5935   0.141E-01    0.140E-01
RMM:  23    -0.413164618236E+03    0.97797E-03   -0.60140E-03  6030   0.690E-02    0.873E-02
RMM:  24    -0.413163386178E+03    0.12321E-02   -0.17425E-03  5363   0.431E-02    0.520E-02
RMM:  25    -0.413162843640E+03    0.54254E-03   -0.86239E-04  5099   0.294E-02    0.415E-02
RMM:  26    -0.413162955592E+03   -0.11195E-03   -0.10543E-03  5794   0.338E-02    0.344E-02
RMM:  27    -0.413163397605E+03   -0.44201E-03   -0.19683E-04  4568   0.206E-02    0.207E-02
RMM:  28    -0.413163834375E+03   -0.43677E-03   -0.15631E-04  5180   0.179E-02    0.104E-02
RMM:  29    -0.413164235688E+03   -0.40131E-03   -0.11565E-04  4711   0.161E-02    0.470E-03
RMM:  30    -0.413164473123E+03   -0.23744E-03   -0.78060E-05  4376   0.107E-02    0.452E-03
RMM:  31    -0.413164611474E+03   -0.13835E-03   -0.54886E-05  3243   0.729E-03    0.377E-03
RMM:  32    -0.413164638270E+03   -0.26796E-04   -0.21684E-05  3004   0.326E-03    0.195E-03
RMM:  33    -0.413164649941E+03   -0.11672E-04   -0.84736E-06  2813   0.231E-03    0.704E-04
RMM:  34    -0.413164652126E+03   -0.21851E-05   -0.47540E-06  2645   0.168E-03    0.585E-04
RMM:  35    -0.413164652030E+03    0.96650E-07   -0.21070E-06  2394   0.130E-03
    1 T=    61. E= -.41286687E+03 F= -.41316465E+03 E0= -.41314215E+03  EK= 0.29778E+00 SP= 0.00E+00 SK= 0.00E+00
       N       E                     dE             d eps       ncg     rms          rms(c)
RMM:   1    -0.413161143283E+03    0.35088E-02   -0.95205E+00  3996   0.636E-01    0.885E-01
RMM:   2    -0.413167948355E+03   -0.68051E-02   -0.11654E-01  4001   0.922E-02    0.649E-01
RMM:   3    -0.413164563526E+03    0.33848E-02   -0.13312E-02  4732   0.451E-02    0.940E-02
RMM:   4    -0.413183650989E+03   -0.19087E-01   -0.20035E-02  5209   0.118E-01    0.578E-01
RMM:   5    -0.413164233259E+03    0.19418E-01   -0.95618E-03  4858   0.969E-02    0.436E-02
RMM:   6    -0.413164373658E+03   -0.14040E-03   -0.17386E-03  5785   0.404E-02    0.307E-02
RMM:   7    -0.413164372322E+03    0.13361E-05   -0.34825E-04  5629   0.173E-02    0.183E-02
RMM:   8    -0.413164371049E+03    0.12729E-05   -0.40048E-05  4869   0.704E-03    0.795E-03
RMM:   9    -0.413164374201E+03   -0.31517E-05   -0.85192E-06  3320   0.312E-03    0.611E-03
RMM:  10    -0.413164379335E+03   -0.51346E-05   -0.17328E-06  2550   0.203E-03    0.366E-03
RMM:  11    -0.413164384533E+03   -0.51983E-05   -0.13086E-06  2536   0.169E-03    0.183E-03
RMM:  12    -0.413164390993E+03   -0.64591E-05   -0.12678E-06  2517   0.162E-03    0.736E-04
RMM:  13    -0.413164392697E+03   -0.17048E-05   -0.52436E-07  2239   0.110E-03    0.472E-04
RMM:  14    -0.413164393124E+03   -0.42689E-06   -0.29426E-07  1683   0.781E-04
    2 T=    61. E= -.41286668E+03 F= -.41316439E+03 E0= -.41314189E+03  EK= 0.29771E+00 SP= 0.00E+00 SK= 0.00E+00
       N       E                     dE             d eps       ncg     rms          rms(c)
RMM:   1    -0.413162223132E+03    0.21696E-02   -0.95280E+00  4194   0.644E-01    0.905E-01
RMM:   2    -0.413168047135E+03   -0.58240E-02   -0.11500E-01  4022   0.916E-02    0.644E-01
RMM:   3    -0.413165279479E+03    0.27677E-02   -0.12972E-02  4836   0.463E-02    0.118E-01
RMM:   4    -0.413192328254E+03   -0.27049E-01   -0.28143E-02  5171   0.140E-01    0.687E-01
RMM:   5    -0.413164762434E+03    0.27566E-01   -0.13262E-02  4830   0.115E-01    0.480E-02
RMM:   6    -0.413164946606E+03   -0.18417E-03   -0.23522E-03  5760   0.474E-02    0.332E-02
RMM:   7    -0.413164939479E+03    0.71271E-05   -0.41501E-04  5666   0.189E-02    0.203E-02
RMM:   8    -0.413164931848E+03    0.76309E-05   -0.57217E-05  5120   0.826E-03    0.928E-03
RMM:   9    -0.413164930280E+03    0.15679E-05   -0.11372E-05  3728   0.374E-03    0.699E-03
RMM:  10    -0.413164930534E+03   -0.25470E-06   -0.18342E-06  2565   0.218E-03
    3 T=    61. E= -.41286701E+03 F= -.41316493E+03 E0= -.41314244E+03  EK= 0.29792E+00 SP= 0.00E+00 SK= 0.00E+00
       N       E                     dE             d eps       ncg     rms          rms(c)
RMM:   1    -0.413161652932E+03    0.32773E-02   -0.94564E+00  4221   0.644E-01    0.890E-01
RMM:   2    -0.413167703600E+03   -0.60507E-02   -0.11453E-01  4233   0.908E-02    0.638E-01
RMM:   3    -0.413169460920E+03   -0.17573E-02   -0.16160E-02  5157   0.771E-02    0.305E-01
RMM:   4    -0.413191139260E+03   -0.21678E-01   -0.39833E-02  5121   0.170E-01    0.672E-01
RMM:   5    -0.413164655117E+03    0.26484E-01   -0.10450E-02  4719   0.110E-01    0.601E-02
RMM:   6    -0.413164684833E+03   -0.29717E-04   -0.19814E-03  5479   0.447E-02    0.305E-02
RMM:   7    -0.413164704480E+03   -0.19647E-04   -0.36569E-04  6020   0.171E-02    0.187E-02
RMM:   8    -0.413164701241E+03    0.32391E-05   -0.67215E-05  5214   0.922E-03    0.792E-03
RMM:   9    -0.413164699100E+03    0.21411E-05   -0.88899E-06  3505   0.374E-03    0.399E-03
RMM:  10    -0.413164700237E+03   -0.11365E-05   -0.18253E-06  2561   0.216E-03    0.260E-03
RMM:  11    -0.413164702032E+03   -0.17956E-05   -0.14788E-06  2544   0.188E-03    0.157E-03
RMM:  12    -0.413164702909E+03   -0.87691E-06   -0.75559E-07  2491   0.143E-03
    4 T=    61. E= -.41286678E+03 F= -.41316470E+03 E0= -.41314222E+03  EK= 0.29792E+00 SP= 0.00E+00 SK= 0.00E+00
       N       E                     dE             d eps       ncg     rms          rms(c)
RMM:   1    -0.413161590420E+03    0.31116E-02   -0.95165E+00  4235   0.648E-01    0.883E-01
RMM:   2    -0.413168207430E+03   -0.66170E-02   -0.11667E-01  4038   0.895E-02    0.647E-01
RMM:   3    -0.413165319725E+03    0.28877E-02   -0.13409E-02  4933   0.463E-02    0.117E-01
RMM:   4    -0.413196020005E+03   -0.30700E-01   -0.32357E-02  5151   0.150E-01    0.731E-01
RMM:   5    -0.413164654385E+03    0.31366E-01   -0.14995E-02  4818   0.122E-01    0.482E-02
RMM:   6    -0.413164853629E+03   -0.19924E-03   -0.25505E-03  5761   0.497E-02    0.316E-02
RMM:   7    -0.413164859544E+03   -0.59149E-05   -0.42184E-04  5773   0.187E-02    0.201E-02
RMM:   8    -0.413164857479E+03    0.20655E-05   -0.63921E-05  5106   0.852E-03    0.939E-03
RMM:   9    -0.413164858405E+03   -0.92676E-06   -0.12415E-05  3846   0.397E-03    0.690E-03
RMM:  10    -0.413164862523E+03   -0.41180E-05   -0.18771E-06  2577   0.215E-03    0.434E-03
RMM:  11    -0.413164866578E+03   -0.40548E-05   -0.12919E-06  2537   0.178E-03    0.229E-03
RMM:  12    -0.413164872320E+03   -0.57420E-05   -0.18066E-06  2587   0.193E-03    0.101E-03
RMM:  13    -0.413164873589E+03   -0.12689E-05   -0.52876E-07  2347   0.125E-03    0.682E-04
RMM:  14    -0.413164873598E+03   -0.91459E-08   -0.22871E-07  1835   0.832E-04
    5 T=    61. E= -.41286679E+03 F= -.41316487E+03 E0= -.41314240E+03  EK= 0.29808E+00 SP= 0.00E+00 SK= 0.00E+00
       N       E                     dE             d eps       ncg     rms          rms(c)
RMM:   1    -0.413162480771E+03    0.23928E-02   -0.95400E+00  4245   0.655E-01    0.902E-01
RMM:   2    -0.413168231857E+03   -0.57511E-02   -0.11544E-01  4069   0.930E-02    0.645E-01
RMM:   3    -0.413165584398E+03    0.26475E-02   -0.12995E-02  4816   0.438E-02    0.109E-01
RMM:   4    -0.413188559316E+03   -0.22975E-01   -0.23670E-02  5156   0.128E-01    0.635E-01
RMM:   5    -0.413165176482E+03    0.23383E-01   -0.11365E-02  4823   0.105E-01    0.456E-02
RMM:   6    -0.413165336618E+03   -0.16014E-03   -0.20187E-03  5759   0.436E-02    0.314E-02
RMM:   7    -0.413165330311E+03    0.63075E-05   -0.36855E-04  5633   0.181E-02    0.194E-02
RMM:   8    -0.413165322228E+03    0.80828E-05   -0.50631E-05  4962   0.793E-03    0.903E-03
RMM:   9    -0.413165320909E+03    0.13189E-05   -0.99755E-06  3573   0.357E-03    0.691E-03
RMM:  10    -0.413165321313E+03   -0.40409E-06   -0.16956E-06  2551   0.215E-03
    6 T=    61. E= -.41286694E+03 F= -.41316532E+03 E0= -.41314286E+03  EK= 0.29838E+00 SP= 0.00E+00 SK= 0.00E+00
       N       E                     dE             d eps       ncg     rms          rms(c)
RMM:   1    -0.413162285408E+03    0.30355E-02   -0.94938E+00  4255   0.662E-01    0.897E-01
RMM:   2    -0.413168017927E+03   -0.57325E-02   -0.11476E-01  4241   0.911E-02    0.639E-01
RMM:   3    -0.413168927224E+03   -0.90930E-03   -0.15465E-02  5120   0.711E-02    0.277E-01
RMM:   4    -0.413194672922E+03   -0.25746E-01   -0.41394E-02  5112   0.172E-01    0.710E-01
RMM:   5    -0.413165033427E+03    0.29639E-01   -0.12201E-02  4734   0.116E-01    0.601E-02
RMM:   6    -0.413165097007E+03   -0.63580E-04   -0.22542E-03  5537   0.474E-02    0.311E-02
RMM:   7    -0.413165113965E+03   -0.16958E-04   -0.38774E-04  6012   0.173E-02    0.189E-02
RMM:   8    -0.413165109640E+03    0.43250E-05   -0.67630E-05  5207   0.915E-03    0.805E-03
RMM:   9    -0.413165106163E+03    0.34769E-05   -0.90992E-06  3461   0.367E-03    0.416E-03
RMM:  10    -0.413165106026E+03    0.13700E-06   -0.21058E-06  2580   0.221E-03
    7 T=    61. E= -.41286666E+03 F= -.41316511E+03 E0= -.41314266E+03  EK= 0.29845E+00 SP= 0.00E+00 SK= 0.00E+00
       N       E                     dE             d eps       ncg     rms          rms(c)
RMM:   1    -0.413162351501E+03    0.27547E-02   -0.95117E+00  4262   0.662E-01    0.882E-01
RMM:   2    -0.413169097845E+03   -0.67463E-02   -0.11626E-01  4147   0.910E-02    0.645E-01
RMM:   3    -0.413166271212E+03    0.28266E-02   -0.13323E-02  4934   0.495E-02    0.128E-01
RMM:   4    -0.413200346398E+03   -0.34075E-01   -0.36448E-02  5146   0.159E-01    0.770E-01
RMM:   5    -0.413165459209E+03    0.34887E-01   -0.16700E-02  4813   0.128E-01    0.502E-02
RMM:   6    -0.413165661376E+03   -0.20217E-03   -0.27996E-03  5761   0.523E-02    0.324E-02
RMM:   7    -0.413165667344E+03   -0.59684E-05   -0.45291E-04  5804   0.192E-02    0.206E-02
RMM:   8    -0.413165665189E+03    0.21553E-05   -0.67214E-05  5160   0.873E-03    0.950E-03
RMM:   9    -0.413165664940E+03    0.24907E-06   -0.13079E-05  3899   0.405E-03    0.676E-03
RMM:  10    -0.413165667941E+03   -0.30012E-05   -0.20145E-06  2580   0.217E-03    0.427E-03
RMM:  11    -0.413165670739E+03   -0.27981E-05   -0.12234E-06  2526   0.174E-03    0.228E-03
RMM:  12    -0.413165674631E+03   -0.38923E-05   -0.18182E-06  2590   0.193E-03    0.964E-04
RMM:  13    -0.413165675679E+03   -0.10481E-05   -0.57518E-07  2359   0.127E-03    0.697E-04
RMM:  14    -0.413165675474E+03    0.20512E-06   -0.23423E-07  1832   0.839E-04
    8 T=    61. E= -.41286690E+03 F= -.41316568E+03 E0= -.41314325E+03  EK= 0.29877E+00 SP= 0.00E+00 SK= 0.00E+00
       N       E                     dE             d eps       ncg     rms          rms(c)
RMM:   1    -0.413162836617E+03    0.28391E-02   -0.95602E+00  4281   0.673E-01    0.897E-01
RMM:   2    -0.413169207745E+03   -0.63711E-02   -0.11621E-01  4160   0.927E-02    0.648E-01
RMM:   3    -0.413166124039E+03    0.30837E-02   -0.13017E-02  4792   0.448E-02    0.106E-01
RMM:   4    -0.413189071407E+03   -0.22947E-01   -0.23648E-02  5153   0.128E-01    0.634E-01
RMM:   5    -0.413165709470E+03    0.23362E-01   -0.11405E-02  4814   0.105E-01    0.449E-02
RMM:   6    -0.413165862551E+03   -0.15308E-03   -0.19793E-03  5782   0.430E-02    0.300E-02
RMM:   7    -0.413165860870E+03    0.16808E-05   -0.34813E-04  5637   0.177E-02    0.189E-02
RMM:   8    -0.413165852948E+03    0.79225E-05   -0.53771E-05  4955   0.808E-03    0.903E-03
RMM:   9    -0.413165851547E+03    0.14013E-05   -0.10744E-05  3687   0.371E-03    0.694E-03
RMM:  10    -0.413165852180E+03   -0.63297E-06   -0.16606E-06  2544   0.215E-03
    9 T=    61. E= -.41286682E+03 F= -.41316585E+03 E0= -.41314344E+03  EK= 0.29904E+00 SP= 0.00E+00 SK= 0.00E+00
       N       E                     dE             d eps       ncg     rms          rms(c)
RMM:   1    -0.413163082076E+03    0.27695E-02   -0.95387E+00  4296   0.671E-01    0.904E-01
RMM:   2    -0.413168978121E+03   -0.58960E-02   -0.11505E-01  4285   0.938E-02    0.641E-01
RMM:   3    -0.413169798757E+03   -0.82064E-03   -0.15525E-02  5102   0.729E-02    0.280E-01
RMM:   4    -0.413195151991E+03   -0.25353E-01   -0.41067E-02  5103   0.171E-01    0.706E-01
RMM:   5    -0.413165844618E+03    0.29307E-01   -0.12002E-02  4727   0.116E-01    0.595E-02
RMM:   6    -0.413165911279E+03   -0.66661E-04   -0.22343E-03  5546   0.469E-02    0.315E-02
RMM:   7    -0.413165923093E+03   -0.11814E-04   -0.38105E-04  6000   0.172E-02    0.191E-02
RMM:   8    -0.413165917046E+03    0.60466E-05   -0.66967E-05  5186   0.911E-03    0.810E-03
RMM:   9    -0.413165912227E+03    0.48193E-05   -0.89899E-06  3455   0.369E-03    0.416E-03
RMM:  10    -0.413165911020E+03    0.12066E-05   -0.21186E-06  2583   0.221E-03    0.276E-03
RMM:  11    -0.413165909137E+03    0.18839E-05   -0.13130E-06  2519   0.182E-03    0.150E-03
RMM:  12    -0.413165907256E+03    0.18808E-05   -0.76816E-07  2480   0.142E-03    0.564E-04
RMM:  13    -0.413165906262E+03    0.99403E-06   -0.37809E-07  2107   0.101E-03
   10 T=    61. E= -.41286663E+03 F= -.41316591E+03 E0= -.41314352E+03  EK= 0.29928E+00 SP= 0.00E+00 SK= 0.00E+00
       N       E                     dE             d eps       ncg     rms          rms(c)
RMM:   1    -0.413163359271E+03    0.25480E-02   -0.95140E+00  4290   0.676E-01    0.882E-01
RMM:   2    -0.413169915021E+03   -0.65557E-02   -0.11621E-01  4231   0.939E-02    0.643E-01
RMM:   3    -0.413167177106E+03    0.27379E-02   -0.13048E-02  4880   0.492E-02    0.124E-01
RMM:   4    -0.413199327619E+03   -0.32151E-01   -0.34090E-02  5137   0.153E-01    0.748E-01
RMM:   5    -0.413166463944E+03    0.32864E-01   -0.15816E-02  4798   0.124E-01    0.490E-02
RMM:   6    -0.413166664602E+03   -0.20066E-03   -0.26768E-03  5748   0.505E-02    0.324E-02
RMM:   7    -0.413166665153E+03   -0.55098E-06   -0.43347E-04  5720   0.190E-02    0.204E-02
RMM:   8    -0.413166660122E+03    0.50316E-05   -0.64888E-05  5109   0.865E-03    0.956E-03
RMM:   9    -0.413166658400E+03    0.17214E-05   -0.13077E-05  3901   0.406E-03    0.699E-03
RMM:  10    -0.413166659603E+03   -0.12023E-05   -0.18996E-06  2573   0.216E-03    0.440E-03
RMM:  11    -0.413166660878E+03   -0.12750E-05   -0.12546E-06  2523   0.177E-03    0.232E-03
RMM:  12    -0.413166662432E+03   -0.15543E-05   -0.17063E-06  2571   0.192E-03    0.986E-04
RMM:  13    -0.413166662687E+03   -0.25484E-06   -0.51838E-07  2346   0.125E-03
   11 T=    61. E= -.41286692E+03 F= -.41316666E+03 E0= -.41314430E+03  EK= 0.29974E+00 SP= 0.00E+00 SK= 0.00E+00
       N       E                     dE             d eps       ncg     rms          rms(c)
RMM:   1    -0.413163460775E+03    0.32017E-02   -0.95893E+00  4293   0.681E-01    0.894E-01
RMM:   2    -0.413169877023E+03   -0.64162E-02   -0.11703E-01  4232   0.937E-02    0.650E-01
RMM:   3    -0.413166947108E+03    0.29299E-02   -0.13147E-02  4807   0.456E-02    0.108E-01
RMM:   4    -0.413192345065E+03   -0.25398E-01   -0.26396E-02  5136   0.135E-01    0.666E-01
RMM:   5    -0.413166462536E+03    0.25883E-01   -0.12550E-02  4806   0.110E-01    0.457E-02
RMM:   6    -0.413166632261E+03   -0.16973E-03   -0.22034E-03  5796   0.448E-02    0.300E-02
RMM:   7    -0.413166636189E+03   -0.39284E-05   -0.35466E-04  5690   0.178E-02    0.191E-02
RMM:   8    -0.413166629102E+03    0.70869E-05   -0.60577E-05  4980   0.836E-03    0.942E-03
RMM:   9    -0.413166627424E+03    0.16785E-05   -0.11869E-05  3864   0.393E-03    0.718E-03
RMM:  10    -0.413166628223E+03   -0.79922E-06   -0.17001E-06  2544   0.214E-03
   12 T=    61. E= -.41286661E+03 F= -.41316663E+03 E0= -.41314430E+03  EK= 0.30001E+00 SP= 0.00E+00 SK= 0.00E+00
       N       E                     dE             d eps       ncg     rms          rms(c)
RMM:   1    -0.413164449053E+03    0.21784E-02   -0.95892E+00  4308   0.684E-01    0.909E-01
RMM:   2    -0.413169867849E+03   -0.54188E-02   -0.11573E-01  4308   0.894E-02    0.643E-01
RMM:   3    -0.413171931665E+03   -0.20638E-02   -0.16321E-02  5128   0.755E-02    0.307E-01
RMM:   4    -0.413193549197E+03   -0.21618E-01   -0.39978E-02  5093   0.170E-01    0.671E-01
RMM:   5    -0.413167134922E+03    0.26414E-01   -0.10477E-02  4698   0.110E-01    0.592E-02
RMM:   6    -0.413167177004E+03   -0.42083E-04   -0.20094E-03  5483   0.443E-02    0.313E-02
RMM:   7    -0.413167187546E+03   -0.10542E-04   -0.35848E-04  5992   0.170E-02    0.190E-02
RMM:   8    -0.413167180525E+03    0.70205E-05   -0.65142E-05  5157   0.909E-03    0.799E-03
RMM:   9    -0.413167174820E+03    0.57055E-05   -0.84332E-06  3414   0.367E-03    0.405E-03
RMM:  10    -0.413167172974E+03    0.18458E-05   -0.18785E-06  2554   0.217E-03    0.265E-03
RMM:  11    -0.413167169829E+03    0.31451E-05   -0.13279E-06  2517   0.183E-03    0.151E-03
RMM:  12    -0.413167167234E+03    0.25952E-05   -0.71989E-07  2468   0.141E-03    0.578E-04
RMM:  13    -0.413167165680E+03    0.15542E-05   -0.36950E-07  2089   0.101E-03    0.332E-04
RMM:  14    -0.413167164211E+03    0.14688E-05   -0.22000E-07  1614   0.804E-04    0.227E-04
RMM:  15    -0.413167161832E+03    0.23789E-05   -0.20967E-07  1510   0.760E-04    0.137E-04
RMM:  16    -0.413167159649E+03    0.21831E-05   -0.17019E-07  1404   0.704E-04    0.128E-04
RMM:  17    -0.413167157322E+03    0.23267E-05   -0.15214E-07  1371   0.675E-04    0.709E-05
RMM:  18    -0.413167156266E+03    0.10560E-05   -0.72465E-08   997   0.579E-04    0.405E-05
RMM:  19    -0.413167155476E+03    0.78977E-06   -0.45310E-08   875   0.551E-04
   13 T=    61. E= -.41286667E+03 F= -.41316716E+03 E0= -.41314485E+03  EK= 0.30048E+00 SP= 0.00E+00 SK= 0.00E+00
       N       E                     dE             d eps       ncg     rms          rms(c)
RMM:   1    -0.413164648930E+03    0.25073E-02   -0.95338E+00  4292   0.699E-01    0.885E-01
RMM:   2    -0.413170889111E+03   -0.62402E-02   -0.11649E-01  4240   0.906E-02    0.641E-01
RMM:   3    -0.413168442458E+03    0.24467E-02   -0.12893E-02  4935   0.464E-02    0.131E-01
RMM:   4    -0.413202487057E+03   -0.34045E-01   -0.36572E-02  5136   0.159E-01    0.769E-01
RMM:   5    -0.413167660564E+03    0.34826E-01   -0.16823E-02  4796   0.128E-01    0.502E-02
RMM:   6    -0.413167862030E+03   -0.20147E-03   -0.28117E-03  5750   0.518E-02    0.330E-02
RMM:   7    -0.413167860336E+03    0.16936E-05   -0.45131E-04  5697   0.193E-02    0.209E-02
RMM:   8    -0.413167853517E+03    0.68191E-05   -0.67636E-05  5159   0.884E-03    0.974E-03
RMM:   9    -0.413167850480E+03    0.30378E-05   -0.13495E-05  3956   0.414E-03    0.698E-03
RMM:  10    -0.413167850296E+03    0.18355E-06   -0.19331E-06  2558   0.216E-03
   14 T=    61. E= -.41286686E+03 F= -.41316785E+03 E0= -.41314558E+03  EK= 0.30099E+00 SP= 0.00E+00 SK= 0.00E+00
       N       E                     dE             d eps       ncg     rms          rms(c)
RMM:   1    -0.413164614982E+03    0.32355E-02   -0.96257E+00  4309   0.694E-01    0.891E-01
RMM:   2    -0.413171366854E+03   -0.67519E-02   -0.11777E-01  4321   0.920E-02    0.652E-01
RMM:   3    -0.413173669396E+03   -0.23025E-02   -0.17476E-02  5122   0.815E-02    0.331E-01
RMM:   4    -0.413194585097E+03   -0.20916E-01   -0.42449E-02  5085   0.175E-01    0.674E-01
RMM:   5    -0.413167826948E+03    0.26758E-01   -0.10340E-02  4683   0.110E-01    0.587E-02
RMM:   6    -0.413167858789E+03   -0.31841E-04   -0.19869E-03  5473   0.438E-02    0.294E-02
RMM:   7    -0.413167878114E+03   -0.19326E-04   -0.34611E-04  5975   0.169E-02    0.183E-02
RMM:   8    -0.413167877253E+03    0.86124E-06   -0.65946E-05  5160   0.910E-03    0.771E-03
RMM:   9    -0.413167875231E+03    0.20219E-05   -0.86299E-06  3404   0.372E-03    0.385E-03
RMM:  10    -0.413167876318E+03   -0.10864E-05   -0.17707E-06  2542   0.211E-03    0.250E-03
RMM:  11    -0.413167877875E+03   -0.15572E-05   -0.14483E-06  2531   0.185E-03    0.153E-03
RMM:  12    -0.413167878317E+03   -0.44233E-06   -0.69928E-07  2465   0.139E-03
   15 T=    61. E= -.41286652E+03 F= -.41316788E+03 E0= -.41314564E+03  EK= 0.30136E+00 SP= 0.00E+00 SK= 0.00E+00
       N       E                     dE             d eps       ncg     rms          rms(c)
RMM:   1    -0.413166060722E+03    0.18172E-02   -0.96405E+00  4297   0.697E-01    0.911E-01
RMM:   2    -0.413172034140E+03   -0.59734E-02   -0.11655E-01  4255   0.943E-02    0.646E-01
RMM:   3    -0.413169554662E+03    0.24795E-02   -0.13049E-02  4923   0.494E-02    0.140E-01
RMM:   4    -0.413204863197E+03   -0.35309E-01   -0.37983E-02  5126   0.162E-01    0.783E-01
RMM:   5    -0.413168738677E+03    0.36125E-01   -0.17427E-02  4793   0.130E-01    0.512E-02
RMM:   6    -0.413168938518E+03   -0.19984E-03   -0.29222E-03  5745   0.531E-02    0.342E-02
RMM:   7    -0.413168930567E+03    0.79513E-05   -0.46619E-04  5733   0.199E-02    0.217E-02
RMM:   8    -0.413168919348E+03    0.11219E-04   -0.72971E-05  5184   0.916E-03    0.104E-02
RMM:   9    -0.413168913229E+03    0.61186E-05   -0.14056E-05  4019   0.425E-03    0.737E-03
RMM:  10    -0.413168909396E+03    0.38336E-05   -0.20727E-06  2576   0.225E-03    0.461E-03
RMM:  11    -0.413168906353E+03    0.30426E-05   -0.12274E-06  2513   0.177E-03    0.254E-03
RMM:  12    -0.413168901068E+03    0.52853E-05   -0.18136E-06  2578   0.201E-03    0.105E-03
RMM:  13    -0.413168898915E+03    0.21529E-05   -0.57818E-07  2380   0.133E-03    0.779E-04
RMM:  14    -0.413168898899E+03    0.15963E-07   -0.24439E-07  1931   0.869E-04
   16 T=    62. E= -.41286681E+03 F= -.41316890E+03 E0= -.41314670E+03  EK= 0.30209E+00 SP= 0.00E+00 SK= 0.00E+00
       N       E                     dE             d eps       ncg     rms          rms(c)
RMM:   1    -0.413166116223E+03    0.27827E-02   -0.95779E+00  4296   0.703E-01    0.891E-01
RMM:   2    -0.413172622320E+03   -0.65061E-02   -0.11650E-01  4261   0.945E-02    0.641E-01
RMM:   3    -0.413169803931E+03    0.28184E-02   -0.12623E-02  4816   0.480E-02    0.122E-01
RMM:   4    -0.413199210857E+03   -0.29407E-01   -0.30910E-02  5124   0.146E-01    0.716E-01
RMM:   5    -0.413169201533E+03    0.30009E-01   -0.14582E-02  4802   0.119E-01    0.481E-02
RMM:   6    -0.413169384555E+03   -0.18302E-03   -0.25401E-03  5780   0.483E-02    0.321E-02
RMM:   7    -0.413169380836E+03    0.37190E-05   -0.40501E-04  5662   0.187E-02    0.203E-02
RMM:   8    -0.413169370064E+03    0.10772E-04   -0.64876E-05  5060   0.870E-03    0.983E-03
RMM:   9    -0.413169365457E+03    0.46067E-05   -0.12993E-05  3961   0.409E-03    0.736E-03
RMM:  10    -0.413169363009E+03    0.24483E-05   -0.18352E-06  2561   0.216E-03    0.462E-03
RMM:  11    -0.413169360841E+03    0.21679E-05   -0.12490E-06  2511   0.181E-03    0.244E-03
RMM:  12    -0.413169357493E+03    0.33481E-05   -0.16071E-06  2545   0.193E-03    0.981E-04
RMM:  13    -0.413169356315E+03    0.11785E-05   -0.50017E-07  2339   0.125E-03    0.651E-04
RMM:  14    -0.413169356130E+03    0.18407E-06   -0.22378E-07  1858   0.834E-04
   17 T=    62. E= -.41286668E+03 F= -.41316936E+03 E0= -.41314720E+03  EK= 0.30268E+00 SP= 0.00E+00 SK= 0.00E+00
       N       E                     dE             d eps       ncg     rms          rms(c)
RMM:   1    -0.413166528719E+03    0.28276E-02   -0.96677E+00  4295   0.708E-01    0.889E-01
RMM:   2    -0.413173271904E+03   -0.67432E-02   -0.11884E-01  4268   0.946E-02    0.652E-01
RMM:   3    -0.413170254033E+03    0.30179E-02   -0.13290E-02  4850   0.483E-02    0.115E-01
RMM:   4    -0.413200091701E+03   -0.29838E-01   -0.31472E-02  5124   0.147E-01    0.720E-01
RMM:   5    -0.413169642723E+03    0.30449E-01   -0.14868E-02  4799   0.120E-01    0.477E-02
RMM:   6    -0.413169825257E+03   -0.18253E-03   -0.24965E-03  5773   0.484E-02    0.314E-02
RMM:   7    -0.413169827312E+03   -0.20553E-05   -0.40724E-04  5668   0.186E-02    0.199E-02
RMM:   8    -0.413169821073E+03    0.62385E-05   -0.63185E-05  5077   0.855E-03    0.943E-03
RMM:   9    -0.413169818632E+03    0.24413E-05   -0.12634E-05  3881   0.402E-03    0.694E-03
RMM:  10    -0.413169818997E+03   -0.36499E-06   -0.17775E-06  2551   0.211E-03
   18 T=    62. E= -.41286652E+03 F= -.41316982E+03 E0= -.41314770E+03  EK= 0.30330E+00 SP= 0.00E+00 SK= 0.00E+00
       N       E                     dE             d eps       ncg     rms          rms(c)
RMM:   1    -0.413170726458E+03   -0.90783E-03   -0.97246E+00  4301   0.739E-01    0.911E-01
RMM:   2    -0.413174027774E+03   -0.33013E-02   -0.11821E-01  4327   0.928E-02    0.649E-01
RMM:   3    -0.413175817340E+03   -0.17896E-02   -0.16315E-02  5109   0.769E-02    0.306E-01
RMM:   4    -0.413198865515E+03   -0.23048E-01   -0.41687E-02  5082   0.173E-01    0.688E-01
RMM:   5    -0.413170997546E+03    0.27868E-01   -0.11100E-02  4696   0.112E-01    0.588E-02
RMM:   6    -0.413171051312E+03   -0.53765E-04   -0.21043E-03  5503   0.453E-02    0.311E-02
RMM:   7    -0.413171059761E+03   -0.84493E-05   -0.36810E-04  5977   0.172E-02    0.192E-02
RMM:   8    -0.413171051733E+03    0.80280E-05   -0.68150E-05  5168   0.919E-03    0.815E-03
RMM:   9    -0.413171045105E+03    0.66282E-05   -0.89977E-06  3465   0.375E-03    0.408E-03
RMM:  10    -0.413171042689E+03    0.24158E-05   -0.19636E-06  2562   0.218E-03    0.268E-03
RMM:  11    -0.413171038757E+03    0.39318E-05   -0.12782E-06  2511   0.181E-03    0.150E-03
RMM:  12    -0.413171035385E+03    0.33729E-05   -0.67772E-07  2458   0.139E-03    0.556E-04
RMM:  13    -0.413171033418E+03    0.19664E-05   -0.34299E-07  2093   0.994E-04    0.329E-04
RMM:  14    -0.413171031680E+03    0.17383E-05   -0.19642E-07  1598   0.788E-04    0.226E-04
RMM:  15    -0.413171028628E+03    0.30521E-05   -0.17257E-07  1440   0.735E-04    0.131E-04
RMM:  16    -0.413171025950E+03    0.26774E-05   -0.13008E-07  1310   0.678E-04    0.123E-04
RMM:  17    -0.413171023092E+03    0.28588E-05   -0.11870E-07  1352   0.662E-04    0.693E-05
RMM:  18    -0.413171021530E+03    0.15615E-05   -0.62999E-08   995   0.580E-04    0.377E-05
RMM:  19    -0.413171020528E+03    0.10024E-05   -0.38171E-08   874   0.552E-04    0.256E-05
RMM:  20    -0.413171020182E+03    0.34596E-06   -0.19058E-08   746   0.529E-04
   19 T=    62. E= -.41286685E+03 F= -.41317102E+03 E0= -.41314894E+03  EK= 0.30417E+00 SP= 0.00E+00 SK= 0.00E+00
       N       E                     dE             d eps       ncg     rms          rms(c)
RMM:   1    -0.413168240237E+03    0.27803E-02   -0.96497E+00  4297   0.712E-01    0.900E-01
RMM:   2    -0.413174165895E+03   -0.59257E-02   -0.11743E-01  4269   0.920E-02    0.643E-01
RMM:   3    -0.413172079743E+03    0.20862E-02   -0.12827E-02  4954   0.477E-02    0.142E-01
RMM:   4    -0.413208049626E+03   -0.35970E-01   -0.39070E-02  5129   0.164E-01    0.790E-01
RMM:   5    -0.413171206483E+03    0.36843E-01   -0.17848E-02  4789   0.132E-01    0.516E-02
RMM:   6    -0.413171412508E+03   -0.20602E-03   -0.29682E-03  5741   0.534E-02    0.341E-02
RMM:   7    -0.413171407339E+03    0.51687E-05   -0.47044E-04  5696   0.199E-02    0.216E-02
RMM:   8    -0.413171396782E+03    0.10557E-04   -0.73879E-05  5198   0.922E-03    0.103E-02
RMM:   9    -0.413171390500E+03    0.62812E-05   -0.14504E-05  4084   0.431E-03    0.721E-03
RMM:  10    -0.413171386949E+03    0.35517E-05   -0.20680E-06  2572   0.222E-03    0.456E-03
RMM:  11    -0.413171384258E+03    0.26908E-05   -0.11756E-06  2517   0.172E-03    0.253E-03
RMM:  12    -0.413171379620E+03    0.46382E-05   -0.15995E-06  2536   0.195E-03    0.101E-03
RMM:  13    -0.413171377591E+03    0.20285E-05   -0.57007E-07  2368   0.132E-03    0.784E-04
RMM:  14    -0.413171377611E+03   -0.19791E-07   -0.24535E-07  1925   0.870E-04
   20 T=    62. E= -.41286658E+03 F= -.41317138E+03 E0= -.41314934E+03  EK= 0.30480E+00 SP= 0.00E+00 SK= 0.00E+00
       N       E                     dE             d eps       ncg     rms          rms(c)
RMM:   1    -0.413175797062E+03   -0.44195E-02   -0.97787E+00  4295   0.760E-01    0.889E-01
RMM:   2    -0.413175910532E+03   -0.11347E-03   -0.12489E-01  4275   0.939E-02    0.653E-01
RMM:   3    -0.413172881810E+03    0.30287E-02   -0.12775E-02  4860   0.453E-02    0.116E-01
RMM:   4    -0.413200558105E+03   -0.27676E-01   -0.28998E-02  5130   0.141E-01    0.694E-01
RMM:   5    -0.413172362119E+03    0.28196E-01   -0.13864E-02  4799   0.115E-01    0.464E-02
RMM:   6    -0.413172530225E+03   -0.16811E-03   -0.23502E-03  5804   0.465E-02    0.298E-02
RMM:   7    -0.413172534406E+03   -0.41814E-05   -0.35667E-04  5680   0.179E-02    0.187E-02
RMM:   8    -0.413172527189E+03    0.72171E-05   -0.67871E-05  5028   0.868E-03    0.984E-03
RMM:   9    -0.413172523380E+03    0.38088E-05   -0.13194E-05  4032   0.418E-03    0.733E-03
RMM:  10    -0.413172522884E+03    0.49656E-06   -0.17364E-06  2549   0.214E-03
   21 T=    62. E= -.41286682E+03 F= -.41317252E+03 E0= -.41315053E+03  EK= 0.30571E+00 SP= 0.00E+00 SK= 0.00E+00
       N       E                     dE             d eps       ncg     rms          rms(c)
RMM:   1    -0.413174913475E+03   -0.23901E-02   -0.98094E+00  4298   0.770E-01    0.908E-01
RMM:   2    -0.413176871146E+03   -0.19577E-02   -0.12612E-01  4320   0.989E-02    0.654E-01
RMM:   3    -0.413177640301E+03   -0.76915E-03   -0.15323E-02  5096   0.730E-02    0.285E-01
RMM:   4    -0.413206569815E+03   -0.28930E-01   -0.45886E-02  5099   0.180E-01    0.747E-01
RMM:   5    -0.413173529775E+03    0.33040E-01   -0.13801E-02  4720   0.123E-01    0.591E-02
RMM:   6    -0.413173616010E+03   -0.86235E-04   -0.24943E-03  5580   0.495E-02    0.314E-02
RMM:   7    -0.413173625511E+03   -0.95015E-05   -0.40268E-04  5955   0.180E-02    0.197E-02
RMM:   8    -0.413173619717E+03    0.57945E-05   -0.73463E-05  5184   0.949E-03    0.850E-03
RMM:   9    -0.413173613144E+03    0.65725E-05   -0.11171E-05  3679   0.402E-03    0.429E-03
RMM:  10    -0.413173610840E+03    0.23044E-05   -0.23403E-06  2608   0.225E-03    0.293E-03
RMM:  11    -0.413173607372E+03    0.34678E-05   -0.12075E-06  2506   0.177E-03    0.154E-03
RMM:  12    -0.413173603696E+03    0.36764E-05   -0.72785E-07  2465   0.141E-03    0.507E-04
RMM:  13    -0.413173601581E+03    0.21145E-05   -0.35738E-07  2108   0.100E-03    0.293E-04
RMM:  14    -0.413173599846E+03    0.17351E-05   -0.20194E-07  1604   0.786E-04    0.191E-04
RMM:  15    -0.413173597058E+03    0.27884E-05   -0.15752E-07  1388   0.724E-04    0.117E-04
RMM:  16    -0.413173594496E+03    0.25620E-05   -0.11987E-07  1305   0.681E-04    0.131E-04
RMM:  17    -0.413173592201E+03    0.22944E-05   -0.92426E-08  1236   0.639E-04    0.756E-05
RMM:  18    -0.413173589970E+03    0.22317E-05   -0.70858E-08  1104   0.603E-04    0.313E-05
RMM:  19    -0.413173589021E+03    0.94895E-06   -0.35746E-08   858   0.553E-04
   22 T=    62. E= -.41286692E+03 F= -.41317359E+03 E0= -.41315165E+03  EK= 0.30667E+00 SP= 0.00E+00 SK= 0.00E+00
       N       E                     dE             d eps       ncg     rms          rms(c)
RMM:   1    -0.413171151823E+03    0.24381E-02   -0.97478E+00  4292   0.727E-01    0.909E-01
RMM:   2    -0.413177454271E+03   -0.63024E-02   -0.11871E-01  4282   0.956E-02    0.647E-01
RMM:   3    -0.413174819925E+03    0.26343E-02   -0.12767E-02  4889   0.489E-02    0.136E-01
RMM:   4    -0.413208380193E+03   -0.33560E-01   -0.35774E-02  5131   0.157E-01    0.763E-01
RMM:   5    -0.413174109556E+03    0.34271E-01   -0.16772E-02  4792   0.127E-01    0.503E-02
RMM:   6    -0.413174297589E+03   -0.18803E-03   -0.28194E-03  5779   0.514E-02    0.336E-02
RMM:   7    -0.413174292378E+03    0.52105E-05   -0.43773E-04  5679   0.197E-02    0.210E-02
RMM:   8    -0.413174280750E+03    0.11628E-04   -0.75014E-05  5144   0.927E-03    0.105E-02
RMM:   9    -0.413174273477E+03    0.72729E-05   -0.14692E-05  4117   0.438E-03    0.754E-03
RMM:  10    -0.413174268766E+03    0.47117E-05   -0.20327E-06  2578   0.223E-03    0.474E-03
RMM:  11    -0.413174264819E+03    0.39469E-05   -0.12472E-06  2514   0.179E-03    0.260E-03
RMM:  12    -0.413174258366E+03    0.64527E-05   -0.16982E-06  2551   0.201E-03    0.104E-03
RMM:  13    -0.413174255564E+03    0.28020E-05   -0.53951E-07  2360   0.131E-03    0.763E-04
RMM:  14    -0.413174255791E+03   -0.22739E-06   -0.24226E-07  1912   0.866E-04
   23 T=    63. E= -.41286663E+03 F= -.41317426E+03 E0= -.41315236E+03  EK= 0.30762E+00 SP= 0.00E+00 SK= 0.00E+00
       N       E                     dE             d eps       ncg     rms          rms(c)
RMM:   1    -0.413173739404E+03    0.51616E-03   -0.97857E+00  4297   0.758E-01    0.891E-01
RMM:   2    -0.413179532052E+03   -0.57926E-02   -0.12419E-01  4285   0.101E-01    0.653E-01
RMM:   3    -0.413176085528E+03    0.34465E-02   -0.12584E-02  4740   0.468E-02    0.108E-01
RMM:   4    -0.413197901264E+03   -0.21816E-01   -0.22485E-02  5138   0.125E-01    0.618E-01
RMM:   5    -0.413175729027E+03    0.22172E-01   -0.10992E-02  4805   0.102E-01    0.442E-02
RMM:   6    -0.413175851226E+03   -0.12220E-03   -0.19224E-03  5823   0.408E-02    0.275E-02
RMM:   7    -0.413175853249E+03   -0.20229E-05   -0.24903E-04  5643   0.155E-02    0.148E-02
RMM:   8    -0.413175849324E+03    0.39255E-05   -0.53920E-05  4982   0.759E-03    0.953E-03
RMM:   9    -0.413175844728E+03    0.45951E-05   -0.10998E-05  3889   0.386E-03    0.711E-03
RMM:  10    -0.413175843225E+03    0.15038E-05   -0.15949E-06  2545   0.212E-03    0.440E-03
RMM:  11    -0.413175841363E+03    0.18615E-05   -0.15214E-06  2528   0.198E-03    0.220E-03
RMM:  12    -0.413175838804E+03    0.25590E-05   -0.12652E-06  2504   0.176E-03    0.774E-04
RMM:  13    -0.413175837965E+03    0.83924E-06   -0.41187E-07  2209   0.112E-03
   24 T=    63. E= -.41286689E+03 F= -.41317584E+03 E0= -.41315399E+03  EK= 0.30895E+00 SP= 0.00E+00 SK= 0.00E+00
       N       E                     dE             d eps       ncg     rms          rms(c)
RMM:   1    -0.413174614011E+03    0.12248E-02   -0.98716E+00  4297   0.765E-01    0.907E-01
RMM:   2    -0.413180394571E+03   -0.57806E-02   -0.12401E-01  4282   0.102E-01    0.658E-01
RMM:   3    -0.413177015752E+03    0.33788E-02   -0.12767E-02  4675   0.476E-02    0.107E-01
RMM:   4    -0.413196671133E+03   -0.19655E-01   -0.20127E-02  5133   0.118E-01    0.587E-01
RMM:   5    -0.413176711106E+03    0.19960E-01   -0.98957E-03  4813   0.969E-02    0.434E-02
RMM:   6    -0.413176808608E+03   -0.97502E-04   -0.16950E-03  5824   0.384E-02    0.261E-02
RMM:   7    -0.413176806568E+03    0.20408E-05   -0.20088E-04  5612   0.141E-02    0.127E-02
RMM:   8    -0.413176802506E+03    0.40614E-05   -0.39225E-05  4878   0.647E-03    0.883E-03
RMM:   9    -0.413176798503E+03    0.40029E-05   -0.86095E-06  3540   0.338E-03    0.669E-03
RMM:  10    -0.413176796512E+03    0.19909E-05   -0.14427E-06  2529   0.207E-03    0.416E-03
RMM:  11    -0.413176793268E+03    0.32445E-05   -0.17012E-06  2543   0.206E-03    0.203E-03
RMM:  12    -0.413176789391E+03    0.38767E-05   -0.10702E-06  2471   0.168E-03    0.834E-04
RMM:  13    -0.413176788561E+03    0.83016E-06   -0.36144E-07  2179   0.106E-03
   25 T=    63. E= -.41286666E+03 F= -.41317679E+03 E0= -.41315499E+03  EK= 0.31013E+00 SP= 0.00E+00 SK= 0.00E+00
       N       E                     dE             d eps       ncg     rms          rms(c)
RMM:   1    -0.413175468760E+03    0.13206E-02   -0.98798E+00  4295   0.754E-01    0.919E-01
RMM:   2    -0.413181169932E+03   -0.57012E-02   -0.12054E-01  4282   0.991E-02    0.652E-01
RMM:   3    -0.413178408008E+03    0.27619E-02   -0.12673E-02  4689   0.468E-02    0.115E-01
RMM:   4    -0.413198279892E+03   -0.19872E-01   -0.20382E-02  5138   0.119E-01    0.591E-01
RMM:   5    -0.413178094614E+03    0.20185E-01   -0.10100E-02  4813   0.976E-02    0.446E-02
RMM:   6    -0.413178188733E+03   -0.94119E-04   -0.17343E-03  5820   0.388E-02    0.272E-02
RMM:   7    -0.413178181214E+03    0.75190E-05   -0.21476E-04  5631   0.148E-02    0.138E-02
RMM:   8    -0.413178174620E+03    0.65937E-05   -0.45419E-05  4940   0.701E-03    0.935E-03
RMM:   9    -0.413178168355E+03    0.62657E-05   -0.92255E-06  3655   0.357E-03    0.702E-03
RMM:  10    -0.413178163485E+03    0.48701E-05   -0.14618E-06  2521   0.212E-03    0.424E-03
RMM:  11    -0.413178156928E+03    0.65569E-05   -0.16438E-06  2548   0.202E-03    0.210E-03
RMM:  12    -0.413178149393E+03    0.75346E-05   -0.10441E-06  2466   0.166E-03    0.736E-04
RMM:  13    -0.413178147450E+03    0.19435E-05   -0.37758E-07  2180   0.107E-03    0.527E-04
RMM:  14    -0.413178146561E+03    0.88894E-06   -0.18132E-07  1654   0.777E-04
   26 T=    63. E= -.41286663E+03 F= -.41317815E+03 E0= -.41315640E+03  EK= 0.31151E+00 SP= 0.00E+00 SK= 0.00E+00
       N       E                     dE             d eps       ncg     rms          rms(c)
RMM:   1    -0.413180080667E+03   -0.19332E-02   -0.98996E+00  4294   0.812E-01    0.897E-01
RMM:   2    -0.413183125406E+03   -0.30447E-02   -0.12826E-01  4282   0.105E-01    0.654E-01
RMM:   3    -0.413180263788E+03    0.28616E-02   -0.12409E-02  4783   0.481E-02    0.120E-01
RMM:   4    -0.413205795474E+03   -0.25532E-01   -0.26390E-02  5142   0.135E-01    0.667E-01
RMM:   5    -0.413179836254E+03    0.25959E-01   -0.12939E-02  4807   0.111E-01    0.463E-02
RMM:   6    -0.413179974704E+03   -0.13845E-03   -0.21905E-03  5814   0.446E-02    0.308E-02
RMM:   7    -0.413179971568E+03    0.31357E-05   -0.35390E-04  5632   0.180E-02    0.188E-02
RMM:   8    -0.413179962590E+03    0.89787E-05   -0.63213E-05  5034   0.860E-03    0.961E-03
RMM:   9    -0.413179957282E+03    0.53077E-05   -0.11933E-05  3885   0.404E-03    0.702E-03
RMM:  10    -0.413179954386E+03    0.28962E-05   -0.16964E-06  2547   0.213E-03    0.434E-03
RMM:  11    -0.413179951316E+03    0.30696E-05   -0.12841E-06  2516   0.184E-03    0.216E-03
RMM:  12    -0.413179947213E+03    0.41029E-05   -0.13393E-06  2511   0.179E-03    0.873E-04
RMM:  13    -0.413179945638E+03    0.15748E-05   -0.42398E-07  2273   0.116E-03    0.543E-04
RMM:  14    -0.413179945349E+03    0.28980E-06   -0.20214E-07  1751   0.798E-04
   27 T=    64. E= -.41286681E+03 F= -.41317995E+03 E0= -.41315825E+03  EK= 0.31314E+00 SP= 0.00E+00 SK= 0.00E+00
       N       E                     dE             d eps       ncg     rms          rms(c)
RMM:   1    -0.413178214195E+03    0.17314E-02   -0.99913E+00  4297   0.778E-01    0.907E-01
RMM:   2    -0.413184386316E+03   -0.61721E-02   -0.12455E-01  4281   0.103E-01    0.663E-01
RMM:   3    -0.413181354268E+03    0.30320E-02   -0.13130E-02  4722   0.495E-02    0.105E-01
RMM:   4    -0.413201653746E+03   -0.20299E-01   -0.20793E-02  5145   0.120E-01    0.597E-01
RMM:   5    -0.413181046775E+03    0.20607E-01   -0.10326E-02  4814   0.987E-02    0.438E-02
RMM:   6    -0.413181143782E+03   -0.97007E-04   -0.17212E-03  5832   0.393E-02    0.271E-02
RMM:   7    -0.413181142772E+03    0.10095E-05   -0.24743E-04  5629   0.157E-02    0.150E-02
RMM:   8    -0.413181137524E+03    0.52487E-05   -0.53078E-05  4970   0.767E-03    0.916E-03
RMM:   9    -0.413181132688E+03    0.48354E-05   -0.10226E-05  3795   0.379E-03    0.674E-03
RMM:  10    -0.413181130621E+03    0.20676E-05   -0.15134E-06  2533   0.208E-03    0.408E-03
RMM:  11    -0.413181127986E+03    0.26349E-05   -0.14286E-06  2525   0.192E-03    0.198E-03
RMM:  12    -0.413181124801E+03    0.31850E-05   -0.10377E-06  2465   0.162E-03    0.716E-04
RMM:  13    -0.413181123739E+03    0.10622E-05   -0.36713E-07  2166   0.105E-03    0.494E-04
RMM:  14    -0.413181123209E+03    0.52979E-06   -0.17629E-07  1629   0.763E-04
   28 T=    64. E= -.41286655E+03 F= -.41318112E+03 E0= -.41315948E+03  EK= 0.31458E+00 SP= 0.00E+00 SK= 0.00E+00
       N       E                     dE             d eps       ncg     rms          rms(c)
RMM:   1    -0.413179988834E+03    0.11349E-02   -0.10023E+01  4292   0.770E-01    0.927E-01
RMM:   2    -0.413186125869E+03   -0.61370E-02   -0.12314E-01  4275   0.104E-01    0.658E-01
RMM:   3    -0.413183245013E+03    0.28809E-02   -0.12912E-02  4604   0.495E-02    0.112E-01
RMM:   4    -0.413197761950E+03   -0.14517E-01   -0.14789E-02  5150   0.102E-01    0.506E-01
RMM:   5    -0.413183074062E+03    0.14688E-01   -0.74579E-03  4824   0.837E-02    0.427E-02
RMM:   6    -0.413183127647E+03   -0.53585E-04   -0.12791E-03  5830   0.336E-02    0.253E-02
RMM:   7    -0.413183119915E+03    0.77321E-05   -0.15725E-04  5478   0.133E-02    0.115E-02
RMM:   8    -0.413183112571E+03    0.73439E-05   -0.21452E-05  4262   0.499E-03    0.734E-03
RMM:   9    -0.413183106505E+03    0.60658E-05   -0.33872E-06  2715   0.248E-03    0.421E-03
RMM:  10    -0.413183103194E+03    0.33111E-05   -0.10343E-06  2478   0.167E-03    0.283E-03
RMM:  11    -0.413183095142E+03    0.80516E-05   -0.15085E-06  2523   0.203E-03    0.170E-03
RMM:  12    -0.413183092045E+03    0.30969E-05   -0.60232E-07  2370   0.136E-03    0.817E-04
RMM:  13    -0.413183090367E+03    0.16786E-05   -0.26134E-07  1984   0.905E-04    0.464E-04
RMM:  14    -0.413183087949E+03    0.24181E-05   -0.14556E-07  1482   0.720E-04    0.252E-04
RMM:  15    -0.413183083359E+03    0.45902E-05   -0.15356E-07  1726   0.745E-04    0.286E-04
RMM:  16    -0.413183081314E+03    0.20441E-05   -0.62897E-08  1017   0.602E-04    0.170E-04
RMM:  17    -0.413183076697E+03    0.46179E-05   -0.78187E-08  1174   0.630E-04    0.134E-04
RMM:  18    -0.413183074593E+03    0.21035E-05   -0.43448E-08   894   0.565E-04    0.465E-05
RMM:  19    -0.413183073474E+03    0.11191E-05   -0.25741E-08   800   0.553E-04    0.473E-05
RMM:  20    -0.413183073346E+03    0.12811E-06   -0.12164E-08   678   0.534E-04
   29 T=    64. E= -.41286672E+03 F= -.41318307E+03 E0= -.41316148E+03  EK= 0.31635E+00 SP= 0.00E+00 SK= 0.00E+00
       N       E                     dE             d eps       ncg     rms          rms(c)
RMM:   1    -0.413182375813E+03    0.69766E-03   -0.10007E+01  4287   0.807E-01    0.907E-01
RMM:   2    -0.413188425823E+03   -0.60500E-02   -0.12452E-01  4269   0.112E-01    0.656E-01
RMM:   3    -0.413185031821E+03    0.33940E-02   -0.12772E-02  4500   0.522E-02    0.102E-01
RMM:   4    -0.413194759310E+03   -0.97275E-02   -0.10004E-02  5149   0.839E-02    0.416E-01
RMM:   5    -0.413184948500E+03    0.98108E-02   -0.50169E-03  4831   0.685E-02    0.402E-02
RMM:   6    -0.413184980659E+03   -0.32160E-04   -0.91854E-04  5826   0.284E-02    0.245E-02
RMM:   7    -0.413184981759E+03   -0.10996E-05   -0.22330E-04  5405   0.151E-02    0.164E-02
RMM:   8    -0.413184965325E+03    0.16434E-04   -0.26606E-05  4584   0.634E-03    0.727E-03
RMM:   9    -0.413184963350E+03    0.19751E-05   -0.50074E-06  2983   0.281E-03    0.524E-03
RMM:  10    -0.413184960025E+03    0.33242E-05   -0.14770E-06  2501   0.202E-03    0.287E-03
RMM:  11    -0.413184956618E+03    0.34077E-05   -0.95253E-07  2479   0.163E-03    0.144E-03
RMM:  12    -0.413184953411E+03    0.32063E-05   -0.55029E-07  2349   0.124E-03    0.737E-04
RMM:  13    -0.413184951870E+03    0.15409E-05   -0.25794E-07  1936   0.882E-04    0.319E-04
RMM:  14    -0.413184950095E+03    0.17752E-05   -0.14262E-07  1410   0.713E-04    0.196E-04
RMM:  15    -0.413184947417E+03    0.26779E-05   -0.96928E-08  1227   0.664E-04    0.947E-05
RMM:  16    -0.413184945541E+03    0.18767E-05   -0.58997E-08  1019   0.620E-04    0.743E-05
RMM:  17    -0.413184943846E+03    0.16946E-05   -0.40004E-08   904   0.594E-04    0.474E-05
RMM:  18    -0.413184940969E+03    0.28769E-05   -0.57796E-08  1128   0.618E-04    0.329E-05
RMM:  19    -0.413184940359E+03    0.61006E-06   -0.18983E-08   753   0.544E-04
   30 T=    65. E= -.41286669E+03 F= -.41318494E+03 E0= -.41316339E+03  EK= 0.31825E+00 SP= 0.00E+00 SK= 0.00E+00
       N       E                     dE             d eps       ncg     rms          rms(c)
RMM:   1    -0.413189251665E+03   -0.43107E-02   -0.10197E+01  4291   0.836E-01    0.910E-01
RMM:   2    -0.413190642370E+03   -0.13907E-02   -0.13226E-01  4286   0.118E-01    0.669E-01
RMM:   3    -0.413186592396E+03    0.40500E-02   -0.13117E-02  4391   0.580E-02    0.965E-02
RMM:   4    -0.413192507463E+03   -0.59151E-02   -0.62742E-03  5162   0.665E-02    0.325E-01
RMM:   5    -0.413186565362E+03    0.59421E-02   -0.30558E-03  4826   0.536E-02    0.385E-02
RMM:   6    -0.413186593421E+03   -0.28059E-04   -0.66042E-04  5762   0.244E-02    0.257E-02
RMM:   7    -0.413186586356E+03    0.70646E-05   -0.22831E-04  5269   0.152E-02    0.162E-02
RMM:   8    -0.413186574740E+03    0.11616E-04   -0.18652E-05  4237   0.561E-03    0.679E-03
RMM:   9    -0.413186573647E+03    0.10935E-05   -0.29704E-06  2714   0.231E-03    0.444E-03
RMM:  10    -0.413186571996E+03    0.16513E-05   -0.13034E-06  2492   0.182E-03    0.236E-03
RMM:  11    -0.413186570474E+03    0.15219E-05   -0.79502E-07  2429   0.144E-03    0.112E-03
RMM:  12    -0.413186568879E+03    0.15952E-05   -0.43065E-07  2183   0.109E-03    0.504E-04
RMM:  13    -0.413186567713E+03    0.11661E-05   -0.22349E-07  1701   0.816E-04    0.266E-04
RMM:  14    -0.413186566220E+03    0.14928E-05   -0.12427E-07  1235   0.690E-04    0.172E-04
RMM:  15    -0.413186563898E+03    0.23220E-05   -0.10069E-07  1165   0.664E-04    0.840E-05
RMM:  16    -0.413186562758E+03    0.11394E-05   -0.53885E-08   962   0.606E-04    0.635E-05
RMM:  17    -0.413186560684E+03    0.20739E-05   -0.54193E-08  1006   0.601E-04    0.384E-05
RMM:  18    -0.413186559160E+03    0.15249E-05   -0.37485E-08   903   0.573E-04    0.267E-05
RMM:  19    -0.413186558605E+03    0.55464E-06   -0.13680E-08   668   0.536E-04
   31 T=    65. E= -.41286646E+03 F= -.41318656E+03 E0= -.41316506E+03  EK= 0.32010E+00 SP= 0.00E+00 SK= 0.00E+00
       N       E                     dE             d eps       ncg     rms          rms(c)
RMM:   1    -0.413186087707E+03    0.47145E-03   -0.10195E+01  4286   0.810E-01    0.933E-01
RMM:   2    -0.413192685939E+03   -0.65982E-02   -0.12725E-01  4284   0.124E-01    0.665E-01
RMM:   3    -0.413189127165E+03    0.35588E-02   -0.13079E-02  4272   0.561E-02    0.103E-01
RMM:   4    -0.413189583721E+03   -0.45656E-03   -0.11185E-03  5038   0.258E-02    0.901E-02
RMM:   5    -0.413189200435E+03    0.38329E-03   -0.27479E-04  4802   0.167E-02    0.408E-02
RMM:   6    -0.413189208883E+03   -0.84475E-05   -0.34081E-04  5331   0.183E-02    0.289E-02
RMM:   7    -0.413189166916E+03    0.41967E-04   -0.18387E-04  4828   0.140E-02    0.157E-02
RMM:   8    -0.413189162846E+03    0.40701E-05   -0.22084E-05  4351   0.506E-03    0.554E-03
RMM:   9    -0.413189161434E+03    0.14118E-05   -0.28312E-06  2489   0.209E-03    0.241E-03
RMM:  10    -0.413189154060E+03    0.73741E-05   -0.93925E-07  2396   0.151E-03    0.945E-04
RMM:  11    -0.413189149535E+03    0.45252E-05   -0.29360E-07  1892   0.892E-04    0.478E-04
RMM:  12    -0.413189146034E+03    0.35005E-05   -0.16511E-07  1572   0.744E-04    0.299E-04
RMM:  13    -0.413189142422E+03    0.36124E-05   -0.12120E-07  1363   0.685E-04    0.168E-04
RMM:  14    -0.413189137676E+03    0.47455E-05   -0.94647E-08  1208   0.648E-04    0.115E-04
RMM:  15    -0.413189134678E+03    0.29988E-05   -0.41343E-08   800   0.576E-04    0.794E-05
RMM:  16    -0.413189130895E+03    0.37828E-05   -0.48934E-08   945   0.597E-04    0.451E-05
RMM:  17    -0.413189129680E+03    0.12148E-05   -0.20994E-08   677   0.539E-04    0.385E-05
RMM:  18    -0.413189128777E+03    0.90327E-06   -0.16613E-08   661   0.532E-04
   32 T=    66. E= -.41286687E+03 F= -.41318913E+03 E0= -.41316768E+03  EK= 0.32226E+00 SP= 0.00E+00 SK= 0.00E+00
       N       E                     dE             d eps       ncg     rms          rms(c)
RMM:   1    -0.413187827700E+03    0.13020E-02   -0.10177E+01  4287   0.823E-01    0.920E-01
RMM:   2    -0.413194506428E+03   -0.66787E-02   -0.12830E-01  4279   0.123E-01    0.661E-01
RMM:   3    -0.413191110430E+03    0.33960E-02   -0.12811E-02  4274   0.567E-02    0.103E-01
RMM:   4    -0.413191906796E+03   -0.79637E-03   -0.14042E-03  5112   0.302E-02    0.120E-01
RMM:   5    -0.413191181852E+03    0.72494E-03   -0.43234E-04  4797   0.209E-02    0.392E-02
RMM:   6    -0.413191191366E+03   -0.95143E-05   -0.35113E-04  5393   0.186E-02    0.286E-02
RMM:   7    -0.413191155445E+03    0.35921E-04   -0.19098E-04  4899   0.139E-02    0.164E-02
RMM:   8    -0.413191149798E+03    0.56465E-05   -0.21228E-05  4360   0.508E-03    0.598E-03
RMM:   9    -0.413191148369E+03    0.14297E-05   -0.30229E-06  2478   0.214E-03    0.263E-03
RMM:  10    -0.413191142804E+03    0.55641E-05   -0.87677E-07  2350   0.149E-03    0.129E-03
RMM:  11    -0.413191138819E+03    0.39852E-05   -0.38432E-07  2020   0.986E-04    0.534E-04
RMM:  12    -0.413191134668E+03    0.41514E-05   -0.22939E-07  1620   0.812E-04    0.219E-04
RMM:  13    -0.413191131267E+03    0.34011E-05   -0.12415E-07  1200   0.686E-04    0.178E-04
RMM:  14    -0.413191127666E+03    0.36009E-05   -0.78614E-08   948   0.629E-04    0.114E-04
RMM:  15    -0.413191122892E+03    0.47741E-05   -0.78595E-08  1028   0.632E-04    0.652E-05
RMM:  16    -0.413191120141E+03    0.27504E-05   -0.44291E-08   817   0.579E-04    0.649E-05
RMM:  17    -0.413191118760E+03    0.13816E-05   -0.22637E-08   612   0.540E-04    0.265E-05
RMM:  18    -0.413191118066E+03    0.69362E-06   -0.16015E-08   571   0.531E-04
   33 T=    66. E= -.41286675E+03 F= -.41319112E+03 E0= -.41316972E+03  EK= 0.32437E+00 SP= 0.00E+00 SK= 0.00E+00
       N       E                     dE             d eps       ncg     rms          rms(c)
RMM:   1    -0.413193243465E+03   -0.21247E-02   -0.10330E+01  4300   0.877E-01    0.915E-01
RMM:   2    -0.413197048297E+03   -0.38048E-02   -0.13576E-01  4280   0.131E-01    0.674E-01
RMM:   3    -0.413193535080E+03    0.35132E-02   -0.13114E-02  4237   0.613E-02    0.950E-02
RMM:   4    -0.413193658634E+03   -0.12355E-03   -0.80165E-04  4863   0.184E-02    0.478E-02
RMM:   5    -0.413193643674E+03    0.14959E-04   -0.13815E-04  4884   0.114E-02    0.474E-02
RMM:   6    -0.413193613310E+03    0.30364E-04   -0.30169E-04  5236   0.168E-02    0.271E-02
RMM:   7    -0.413193579403E+03    0.33908E-04   -0.17297E-04  4842   0.133E-02    0.151E-02
RMM:   8    -0.413193576252E+03    0.31508E-05   -0.20585E-05  4048   0.463E-03    0.481E-03
RMM:   9    -0.413193575877E+03    0.37493E-06   -0.25149E-06  2377   0.202E-03
   34 T=    67. E= -.41286675E+03 F= -.41319358E+03 E0= -.41317222E+03  EK= 0.32683E+00 SP= 0.00E+00 SK= 0.00E+00
       N       E                     dE             d eps       ncg     rms          rms(c)
RMM:   1    -0.413196670436E+03   -0.30942E-02   -0.10428E+01  4305   0.917E-01    0.938E-01
RMM:   2    -0.413199519827E+03   -0.28494E-02   -0.13471E-01  4276   0.131E-01    0.675E-01
RMM:   3    -0.413196311147E+03    0.32087E-02   -0.12980E-02  4342   0.608E-02    0.106E-01
RMM:   4    -0.413196708412E+03   -0.39727E-03   -0.11826E-03  5098   0.273E-02    0.843E-02
RMM:   5    -0.413196407072E+03    0.30134E-03   -0.27301E-04  4823   0.169E-02    0.446E-02
RMM:   6    -0.413196377532E+03    0.29540E-04   -0.28134E-04  5253   0.171E-02    0.312E-02
RMM:   7    -0.413196352907E+03    0.24625E-04   -0.20789E-04  4663   0.126E-02    0.173E-02
RMM:   8    -0.413196346654E+03    0.62528E-05   -0.16498E-05  3889   0.444E-03    0.638E-03
RMM:   9    -0.413196344991E+03    0.16624E-05   -0.41368E-06  2413   0.208E-03    0.215E-03
RMM:  10    -0.413196335488E+03    0.95031E-05   -0.12466E-06  2327   0.164E-03    0.631E-04
RMM:  11    -0.413196331035E+03    0.44532E-05   -0.37191E-07  2009   0.101E-03    0.335E-04
RMM:  12    -0.413196326879E+03    0.41564E-05   -0.18755E-07  1485   0.783E-04    0.235E-04
RMM:  13    -0.413196321106E+03    0.57729E-05   -0.11362E-07  1111   0.667E-04    0.161E-04
RMM:  14    -0.413196314724E+03    0.63822E-05   -0.93599E-08  1141   0.652E-04    0.161E-04
RMM:  15    -0.413196310598E+03    0.41257E-05   -0.58316E-08   930   0.587E-04    0.938E-05
RMM:  16    -0.413196306507E+03    0.40907E-05   -0.50108E-08   918   0.578E-04    0.398E-05
RMM:  17    -0.413196305330E+03    0.11771E-05   -0.17383E-08   581   0.512E-04    0.417E-05
RMM:  18    -0.413196304459E+03    0.87155E-06   -0.11920E-08   524   0.507E-04
   35 T=    67. E= -.41286685E+03 F= -.41319630E+03 E0= -.41317500E+03  EK= 0.32945E+00 SP= 0.00E+00 SK= 0.00E+00
       N       E                     dE             d eps       ncg     rms          rms(c)
RMM:   1    -0.413196677197E+03   -0.37187E-03   -0.10421E+01  4302   0.896E-01    0.937E-01
RMM:   2    -0.413201408047E+03   -0.47309E-02   -0.13365E-01  4254   0.131E-01    0.669E-01
RMM:   3    -0.413198464483E+03    0.29436E-02   -0.12939E-02  4454   0.617E-02    0.116E-01
RMM:   4    -0.413205511898E+03   -0.70474E-02   -0.74206E-03  5173   0.728E-02    0.355E-01
RMM:   5    -0.413198468819E+03    0.70431E-02   -0.36353E-03  4824   0.590E-02    0.412E-02
RMM:   6    -0.413198471732E+03   -0.29124E-05   -0.76553E-04  5730   0.276E-02    0.292E-02
RMM:   7    -0.413198456804E+03    0.14927E-04   -0.26811E-04  5260   0.164E-02    0.168E-02
RMM:   8    -0.413198443861E+03    0.12943E-04   -0.25267E-05  4638   0.615E-03    0.733E-03
RMM:   9    -0.413198441206E+03    0.26557E-05   -0.39437E-06  2795   0.252E-03    0.436E-03
RMM:  10    -0.413198435553E+03    0.56531E-05   -0.12673E-06  2497   0.188E-03    0.226E-03
RMM:  11    -0.413198430032E+03    0.55206E-05   -0.75827E-07  2446   0.143E-03    0.114E-03
RMM:  12    -0.413198424895E+03    0.51374E-05   -0.42612E-07  2217   0.110E-03    0.539E-04
RMM:  13    -0.413198421744E+03    0.31503E-05   -0.22336E-07  1759   0.825E-04    0.267E-04
RMM:  14    -0.413198418342E+03    0.34028E-05   -0.11373E-07  1233   0.681E-04    0.168E-04
RMM:  15    -0.413198413593E+03    0.47483E-05   -0.80812E-08  1099   0.648E-04    0.856E-05
RMM:  16    -0.413198410626E+03    0.29671E-05   -0.54862E-08  1014   0.618E-04    0.649E-05
RMM:  17    -0.413198407805E+03    0.28207E-05   -0.48023E-08  1061   0.602E-04    0.454E-05
RMM:  18    -0.413198404391E+03    0.34144E-05   -0.43382E-08  1070   0.590E-04    0.230E-05
RMM:  19    -0.413198403736E+03    0.65510E-06   -0.16681E-08   713   0.525E-04
   36 T=    68. E= -.41286655E+03 F= -.41319840E+03 E0= -.41317714E+03  EK= 0.33186E+00 SP= 0.00E+00 SK= 0.00E+00
       N       E                     dE             d eps       ncg     rms          rms(c)
RMM:   1    -0.413209237721E+03   -0.10833E-01   -0.10606E+01  4303   0.997E-01    0.921E-01
RMM:   2    -0.413205245781E+03    0.39919E-02   -0.15613E-01  4255   0.140E-01    0.681E-01
RMM:   3    -0.413201518207E+03    0.37276E-02   -0.11934E-02  4597   0.587E-02    0.141E-01
RMM:   4    -0.413221197449E+03   -0.19679E-01   -0.20012E-02  5158   0.119E-01    0.588E-01
RMM:   5    -0.413201378088E+03    0.19819E-01   -0.10017E-02  4810   0.978E-02    0.451E-02
RMM:   6    -0.413201390285E+03   -0.12197E-04   -0.17005E-03  5840   0.393E-02    0.289E-02
RMM:   7    -0.413201402439E+03   -0.12154E-04   -0.30335E-04  5553   0.168E-02    0.176E-02
RMM:   8    -0.413201387572E+03    0.14866E-04   -0.54559E-05  4990   0.808E-03    0.871E-03
RMM:   9    -0.413201386399E+03    0.11733E-05   -0.10886E-05  3848   0.404E-03    0.610E-03
RMM:  10    -0.413201383345E+03    0.30541E-05   -0.16042E-06  2552   0.218E-03    0.349E-03
RMM:  11    -0.413201380917E+03    0.24284E-05   -0.94644E-07  2496   0.159E-03    0.199E-03
RMM:  12    -0.413201376418E+03    0.44985E-05   -0.11948E-06  2506   0.171E-03    0.102E-03
RMM:  13    -0.413201374251E+03    0.21673E-05   -0.42562E-07  2218   0.113E-03    0.543E-04
RMM:  14    -0.413201373632E+03    0.61843E-06   -0.19113E-07  1640   0.783E-04
   37 T=    68. E= -.41286687E+03 F= -.41320137E+03 E0= -.41318015E+03  EK= 0.33450E+00 SP= 0.00E+00 SK= 0.00E+00
       N       E                     dE             d eps       ncg     rms          rms(c)
RMM:   1    -0.413224600317E+03   -0.23226E-01   -0.10854E+01  4308   0.111E+00    0.941E-01
RMM:   2    -0.413207823635E+03    0.16777E-01   -0.15888E-01  4255   0.137E-01    0.686E-01
RMM:   3    -0.413204117195E+03    0.37064E-02   -0.12230E-02  4746   0.562E-02    0.157E-01
RMM:   4    -0.413237001861E+03   -0.32885E-01   -0.33692E-02  5155   0.154E-01    0.755E-01
RMM:   5    -0.413203702950E+03    0.33299E-01   -0.16776E-02  4797   0.126E-01    0.506E-02
RMM:   6    -0.413203773254E+03   -0.70304E-04   -0.28224E-03  5841   0.497E-02    0.320E-02
RMM:   7    -0.413203782183E+03   -0.89295E-05   -0.35658E-04  5670   0.177E-02    0.168E-02
RMM:   8    -0.413203773777E+03    0.84062E-05   -0.56475E-05  4972   0.781E-03    0.980E-03
RMM:   9    -0.413203772562E+03    0.12147E-05   -0.20166E-05  4505   0.482E-03    0.764E-03
RMM:  10    -0.413203766547E+03    0.60148E-05   -0.27190E-06  2655   0.264E-03    0.437E-03
RMM:  11    -0.413203763430E+03    0.31168E-05   -0.13504E-06  2500   0.188E-03    0.275E-03
RMM:  12    -0.413203755211E+03    0.82194E-05   -0.18975E-06  2546   0.224E-03    0.131E-03
RMM:  13    -0.413203751540E+03    0.36710E-05   -0.69502E-07  2400   0.147E-03    0.850E-04
RMM:  14    -0.413203751241E+03    0.29900E-06   -0.26997E-07  2029   0.933E-04
   38 T=    69. E= -.41286675E+03 F= -.41320375E+03 E0= -.41318257E+03  EK= 0.33700E+00 SP= 0.00E+00 SK= 0.00E+00
       N       E                     dE             d eps       ncg     rms          rms(c)
RMM:   1    -0.413206259623E+03   -0.25081E-02   -0.10684E+01  4306   0.101E+00    0.954E-01
RMM:   2    -0.413210000337E+03   -0.37407E-02   -0.13938E-01  4263   0.124E-01    0.678E-01
RMM:   3    -0.413206984928E+03    0.30154E-02   -0.13362E-02  4935   0.575E-02    0.166E-01
RMM:   4    -0.413249805811E+03   -0.42821E-01   -0.45754E-02  5136   0.178E-01    0.860E-01
RMM:   5    -0.413206164965E+03    0.43641E-01   -0.21518E-02  4790   0.144E-01    0.557E-02
RMM:   6    -0.413206286212E+03   -0.12125E-03   -0.36735E-03  5827   0.563E-02    0.344E-02
RMM:   7    -0.413206296016E+03   -0.98034E-05   -0.42702E-04  5689   0.190E-02    0.179E-02
RMM:   8    -0.413206286042E+03    0.99741E-05   -0.51582E-05  4787   0.717E-03    0.915E-03
RMM:   9    -0.413206279903E+03    0.61390E-05   -0.11728E-05  3483   0.364E-03    0.597E-03
RMM:  10    -0.413206275566E+03    0.43364E-05   -0.23047E-06  2609   0.224E-03    0.413E-03
RMM:  11    -0.413206268691E+03    0.68750E-05   -0.14969E-06  2503   0.204E-03    0.228E-03
RMM:  12    -0.413206257626E+03    0.11065E-04   -0.14943E-06  2505   0.202E-03    0.107E-03
RMM:  13    -0.413206255114E+03    0.25120E-05   -0.48256E-07  2367   0.128E-03    0.723E-04
RMM:  14    -0.413206254692E+03    0.42236E-06   -0.21583E-07  1896   0.840E-04
   39 T=    69. E= -.41286668E+03 F= -.41320625E+03 E0= -.41318511E+03  EK= 0.33958E+00 SP= 0.00E+00 SK= 0.00E+00
       N       E                     dE             d eps       ncg     rms          rms(c)
RMM:   1    -0.413232394652E+03   -0.26140E-01   -0.10951E+01  4311   0.119E+00    0.932E-01
RMM:   2    -0.413213519894E+03    0.18875E-01   -0.16690E-01  4270   0.135E-01    0.685E-01
RMM:   3    -0.413210368767E+03    0.31511E-02   -0.12130E-02  5000   0.592E-02    0.208E-01
RMM:   4    -0.413264119485E+03   -0.53751E-01   -0.59261E-02  5133   0.203E-01    0.961E-01
RMM:   5    -0.413209044601E+03    0.55075E-01   -0.26991E-02  4785   0.162E-01    0.602E-02
RMM:   6    -0.413209213381E+03   -0.16878E-03   -0.44450E-03  5810   0.626E-02    0.357E-02
RMM:   7    -0.413209228485E+03   -0.15104E-04   -0.54444E-04  5812   0.208E-02    0.213E-02
RMM:   8    -0.413209229794E+03   -0.13088E-05   -0.12213E-04  5249   0.108E-02    0.138E-02
RMM:   9    -0.413209216517E+03    0.13277E-04   -0.28395E-05  4734   0.609E-03    0.706E-03
RMM:  10    -0.413209212199E+03    0.43174E-05   -0.51005E-06  2927   0.300E-03    0.438E-03
RMM:  11    -0.413209208763E+03    0.34363E-05   -0.15960E-06  2508   0.208E-03    0.264E-03
RMM:  12    -0.413209201591E+03    0.71719E-05   -0.14974E-06  2510   0.204E-03    0.951E-04
RMM:  13    -0.413209197396E+03    0.41946E-05   -0.66127E-07  2420   0.141E-03    0.679E-04
RMM:  14    -0.413209196848E+03    0.54803E-06   -0.28997E-07  2062   0.946E-04
   40 T=    70. E= -.41286690E+03 F= -.41320920E+03 E0= -.41318809E+03  EK= 0.34230E+00 SP= 0.00E+00 SK= 0.00E+00
       N       E                     dE             d eps       ncg     rms          rms(c)
RMM:   1    -0.413225261280E+03   -0.16064E-01   -0.11005E+01  4310   0.117E+00    0.945E-01
RMM:   2    -0.413215727042E+03    0.95342E-02   -0.16644E-01  4270   0.140E-01    0.696E-01
RMM:   3    -0.413213153748E+03    0.25733E-02   -0.13160E-02  5032   0.646E-02    0.233E-01
RMM:   4    -0.413267602326E+03   -0.54449E-01   -0.63515E-02  5127   0.210E-01    0.972E-01
RMM:   5    -0.413211165113E+03    0.56437E-01   -0.27058E-02  4774   0.163E-01    0.618E-02
RMM:   6    -0.413211329443E+03   -0.16433E-03   -0.44734E-03  5802   0.632E-02    0.359E-02
RMM:   7    -0.413211343856E+03   -0.14413E-04   -0.55652E-04  5807   0.212E-02    0.224E-02
RMM:   8    -0.413211344793E+03   -0.93666E-06   -0.13154E-04  5272   0.113E-02    0.142E-02
RMM:   9    -0.413211330860E+03    0.13933E-04   -0.27238E-05  4672   0.614E-03    0.658E-03
RMM:  10    -0.413211326865E+03    0.39952E-05   -0.56972E-06  3014   0.305E-03    0.411E-03
RMM:  11    -0.413211323576E+03    0.32884E-05   -0.15125E-06  2503   0.205E-03    0.242E-03
RMM:  12    -0.413211317115E+03    0.64618E-05   -0.12617E-06  2494   0.189E-03    0.847E-04
RMM:  13    -0.413211313125E+03    0.39893E-05   -0.59177E-07  2406   0.133E-03    0.557E-04
RMM:  14    -0.413211312255E+03    0.87043E-06   -0.27231E-07  2001   0.916E-04
   41 T=    70. E= -.41286662E+03 F= -.41321131E+03 E0= -.41319024E+03  EK= 0.34469E+00 SP= 0.00E+00 SK= 0.00E+00
       N       E                     dE             d eps       ncg     rms          rms(c)
RMM:   1    -0.413216525633E+03   -0.52125E-02   -0.10936E+01  4311   0.117E+00    0.968E-01
RMM:   2    -0.413217602823E+03   -0.10772E-02   -0.14789E-01  4303   0.134E-01    0.688E-01
RMM:   3    -0.413217171980E+03    0.43084E-03   -0.15412E-02  5071   0.745E-02    0.276E-01
RMM:   4    -0.413256707746E+03   -0.39536E-01   -0.54170E-02  5095   0.196E-01    0.851E-01
RMM:   5    -0.413213845532E+03    0.42862E-01   -0.19220E-02  4749   0.142E-01    0.603E-02
RMM:   6    -0.413213935004E+03   -0.89472E-04   -0.33905E-03  5777   0.550E-02    0.353E-02
RMM:   7    -0.413213940495E+03   -0.54910E-05   -0.46278E-04  5759   0.198E-02    0.220E-02
RMM:   8    -0.413213936877E+03    0.36180E-05   -0.12782E-04  5211   0.114E-02    0.132E-02
RMM:   9    -0.413213921074E+03    0.15803E-04   -0.21588E-05  4510   0.579E-03    0.560E-03
RMM:  10    -0.413213915146E+03    0.59273E-05   -0.47891E-06  2921   0.280E-03    0.353E-03
RMM:  11    -0.413213909557E+03    0.55894E-05   -0.12442E-06  2495   0.191E-03    0.197E-03
RMM:  12    -0.413213900183E+03    0.93744E-05   -0.88230E-07  2464   0.163E-03    0.754E-04
RMM:  13    -0.413213894678E+03    0.55044E-05   -0.42154E-07  2280   0.114E-03    0.391E-04
RMM:  14    -0.413213892672E+03    0.20065E-05   -0.21527E-07  1812   0.830E-04    0.269E-04
RMM:  15    -0.413213887783E+03    0.48890E-05   -0.12769E-07  1393   0.709E-04    0.135E-04
RMM:  16    -0.413213883004E+03    0.47789E-05   -0.87461E-08  1223   0.662E-04    0.136E-04
RMM:  17    -0.413213879563E+03    0.34412E-05   -0.61069E-08  1098   0.625E-04    0.901E-05
RMM:  18    -0.413213875818E+03    0.37444E-05   -0.57922E-08  1245   0.624E-04    0.589E-05
RMM:  19    -0.413213873067E+03    0.27514E-05   -0.39869E-08  1101   0.588E-04    0.337E-05
RMM:  20    -0.413213872603E+03    0.46412E-06   -0.18025E-08   769   0.532E-04
   42 T=    71. E= -.41286680E+03 F= -.41321387E+03 E0= -.41319283E+03  EK= 0.34707E+00 SP= 0.00E+00 SK= 0.00E+00
       N       E                     dE             d eps       ncg     rms          rms(c)
RMM:   1    -0.413239585780E+03   -0.25713E-01   -0.11125E+01  4311   0.134E+00    0.945E-01
RMM:   2    -0.413219843601E+03    0.19742E-01   -0.17013E-01  4301   0.148E-01    0.690E-01
RMM:   3    -0.413220423851E+03   -0.58025E-03   -0.15022E-02  5079   0.807E-02    0.325E-01
RMM:   4    -0.413257475927E+03   -0.37052E-01   -0.55721E-02  5092   0.199E-01    0.840E-01
RMM:   5    -0.413215935926E+03    0.41540E-01   -0.18236E-02  4729   0.140E-01    0.617E-02
RMM:   6    -0.413216006226E+03   -0.70301E-04   -0.32310E-03  5742   0.540E-02    0.349E-02
RMM:   7    -0.413216012736E+03   -0.65095E-05   -0.47212E-04  5780   0.197E-02    0.231E-02
RMM:   8    -0.413216008942E+03    0.37938E-05   -0.12470E-04  5189   0.114E-02    0.122E-02
RMM:   9    -0.413215996552E+03    0.12390E-04   -0.20980E-05  4488   0.573E-03    0.482E-03
RMM:  10    -0.413215993170E+03    0.33818E-05   -0.43639E-06  2841   0.265E-03    0.307E-03
RMM:  11    -0.413215989206E+03    0.39646E-05   -0.13051E-06  2500   0.188E-03    0.168E-03
RMM:  12    -0.413215983775E+03    0.54307E-05   -0.75432E-07  2447   0.148E-03    0.637E-04
RMM:  13    -0.413215980587E+03    0.31881E-05   -0.37452E-07  2115   0.104E-03    0.298E-04
RMM:  14    -0.413215978456E+03    0.21309E-05   -0.20277E-07  1623   0.800E-04    0.195E-04
RMM:  15    -0.413215974364E+03    0.40922E-05   -0.13809E-07  1310   0.717E-04    0.110E-04
RMM:  16    -0.413215972116E+03    0.22481E-05   -0.86973E-08  1128   0.659E-04    0.829E-05
RMM:  17    -0.413215969477E+03    0.26388E-05   -0.69823E-08  1138   0.646E-04    0.495E-05
RMM:  18    -0.413215966789E+03    0.26880E-05   -0.58561E-08  1170   0.628E-04    0.376E-05
RMM:  19    -0.413215965341E+03    0.14481E-05   -0.35933E-08   959   0.577E-04    0.235E-05
RMM:  20    -0.413215964665E+03    0.67573E-06   -0.20877E-08   801   0.549E-04
   43 T=    71. E= -.41286687E+03 F= -.41321596E+03 E0= -.41319495E+03  EK= 0.34910E+00 SP= 0.00E+00 SK= 0.00E+00
       N       E                     dE             d eps       ncg     rms          rms(c)
RMM:   1    -0.413232315557E+03   -0.16350E-01   -0.11171E+01  4311   0.135E+00    0.950E-01
RMM:   2    -0.413221392240E+03    0.10923E-01   -0.16451E-01  4298   0.161E-01    0.702E-01
RMM:   3    -0.413222825918E+03   -0.14337E-02   -0.17038E-02  5082   0.899E-02    0.347E-01
RMM:   4    -0.413256243458E+03   -0.33418E-01   -0.55327E-02  5073   0.200E-01    0.813E-01
RMM:   5    -0.413217210060E+03    0.39033E-01   -0.16487E-02  4713   0.135E-01    0.606E-02
RMM:   6    -0.413217261870E+03   -0.51809E-04   -0.29653E-03  5739   0.517E-02    0.341E-02
RMM:   7    -0.413217263971E+03   -0.21012E-05   -0.42657E-04  5760   0.191E-02    0.225E-02
RMM:   8    -0.413217260711E+03    0.32597E-05   -0.11540E-04  5168   0.111E-02    0.115E-02
RMM:   9    -0.413217250294E+03    0.10417E-04   -0.19480E-05  4418   0.555E-03    0.454E-03
RMM:  10    -0.413217247871E+03    0.24231E-05   -0.38488E-06  2784   0.254E-03    0.286E-03
RMM:  11    -0.413217244796E+03    0.30749E-05   -0.12741E-06  2497   0.184E-03    0.154E-03
RMM:  12    -0.413217240663E+03    0.41325E-05   -0.73852E-07  2436   0.144E-03    0.599E-04
RMM:  13    -0.413217238178E+03    0.24850E-05   -0.36736E-07  2032   0.101E-03    0.282E-04
RMM:  14    -0.413217236305E+03    0.18737E-05   -0.20672E-07  1558   0.791E-04    0.177E-04
RMM:  15    -0.413217232714E+03    0.35909E-05   -0.15310E-07  1329   0.729E-04    0.109E-04
RMM:  16    -0.413217230947E+03    0.17668E-05   -0.94073E-08  1150   0.664E-04    0.810E-05
RMM:  17    -0.413217228405E+03    0.25422E-05   -0.80698E-08  1229   0.655E-04    0.488E-05
RMM:  18    -0.413217226449E+03    0.19557E-05   -0.56912E-08  1092   0.610E-04    0.363E-05
RMM:  19    -0.413217224921E+03    0.15285E-05   -0.38342E-08   949   0.575E-04    0.187E-05
RMM:  20    -0.413217224472E+03    0.44872E-06   -0.21315E-08   769   0.544E-04
   44 T=    71. E= -.41286663E+03 F= -.41321722E+03 E0= -.41319623E+03  EK= 0.35060E+00 SP= 0.00E+00 SK= 0.00E+00
       N       E                     dE             d eps       ncg     rms          rms(c)
RMM:   1    -0.413251253308E+03   -0.34028E-01   -0.11359E+01  4310   0.151E+00    0.975E-01
RMM:   2    -0.413222196698E+03    0.29057E-01   -0.16996E-01  4331   0.169E-01    0.698E-01
RMM:   3    -0.413228143219E+03   -0.59465E-02   -0.20219E-02  5121   0.106E-01    0.443E-01
RMM:   4    -0.413243379183E+03   -0.15236E-01   -0.45457E-02  5048   0.184E-01    0.656E-01
RMM:   5    -0.413218739455E+03    0.24640E-01   -0.93811E-03  4646   0.110E-01    0.581E-02
RMM:   6    -0.413218721844E+03    0.17611E-04   -0.19179E-03  5596   0.421E-02    0.333E-02
RMM:   7    -0.413218718098E+03    0.37463E-05   -0.32845E-04  5619   0.174E-02    0.220E-02
RMM:   8    -0.413218708463E+03    0.96342E-05   -0.11611E-04  5087   0.113E-02    0.104E-02
RMM:   9    -0.413218695144E+03    0.13320E-04   -0.15631E-05  4290   0.542E-03    0.423E-03
RMM:  10    -0.413218691227E+03    0.39164E-05   -0.28513E-06  2704   0.230E-03    0.249E-03
RMM:  11    -0.413218685113E+03    0.61139E-05   -0.11623E-06  2486   0.178E-03    0.135E-03
RMM:  12    -0.413218678860E+03    0.62533E-05   -0.59597E-07  2417   0.134E-03    0.626E-04
RMM:  13    -0.413218675198E+03    0.36618E-05   -0.28164E-07  1881   0.919E-04    0.295E-04
RMM:  14    -0.413218671764E+03    0.34343E-05   -0.15923E-07  1414   0.731E-04    0.164E-04
RMM:  15    -0.413218666585E+03    0.51790E-05   -0.12281E-07  1282   0.697E-04    0.124E-04
RMM:  16    -0.413218663788E+03    0.27964E-05   -0.78943E-08  1128   0.642E-04    0.960E-05
RMM:  17    -0.413218658959E+03    0.48292E-05   -0.82825E-08  1376   0.656E-04    0.692E-05
RMM:  18    -0.413218656936E+03    0.20235E-05   -0.44273E-08  1004   0.569E-04    0.410E-05
RMM:  19    -0.413218655521E+03    0.14147E-05   -0.29875E-08   862   0.542E-04    0.225E-05
RMM:  20    -0.413218655111E+03    0.40954E-06   -0.17348E-08   721   0.521E-04
   45 T=    72. E= -.41286695E+03 F= -.41321866E+03 E0= -.41319769E+03  EK= 0.35171E+00 SP= 0.00E+00 SK= 0.00E+00
       N       E                     dE             d eps       ncg     rms          rms(c)
RMM:   1    -0.413259464477E+03   -0.40809E-01   -0.11355E+01  4310   0.162E+00    0.956E-01
RMM:   2    -0.413222206085E+03    0.37258E-01   -0.18093E-01  4367   0.184E-01    0.693E-01
RMM:   3    -0.413230887626E+03   -0.86815E-02   -0.21556E-02  5122   0.116E-01    0.503E-01
RMM:   4    -0.413238876589E+03   -0.79890E-02   -0.43432E-02  5027   0.181E-01    0.600E-01
RMM:   5    -0.413218737436E+03    0.20139E-01   -0.75499E-03  4602   0.103E-01    0.574E-02
RMM:   6    -0.413218689712E+03    0.47724E-04   -0.14963E-03  5439   0.381E-02    0.320E-02
RMM:   7    -0.413218684396E+03    0.53159E-05   -0.26741E-04  5614   0.161E-02    0.216E-02
RMM:   8    -0.413218674642E+03    0.97545E-05   -0.12363E-04  5081   0.115E-02    0.102E-02
RMM:   9    -0.413218661118E+03    0.13523E-04   -0.16066E-05  4315   0.556E-03    0.412E-03
RMM:  10    -0.413218657981E+03    0.31370E-05   -0.28266E-06  2707   0.223E-03    0.236E-03
RMM:  11    -0.413218652091E+03    0.58901E-05   -0.12373E-06  2487   0.181E-03    0.129E-03
RMM:  12    -0.413218647319E+03    0.47727E-05   -0.56360E-07  2419   0.132E-03    0.673E-04
RMM:  13    -0.413218643812E+03    0.35063E-05   -0.26517E-07  1795   0.895E-04    0.324E-04
RMM:  14    -0.413218640335E+03    0.34774E-05   -0.14829E-07  1349   0.713E-04    0.171E-04
RMM:  15    -0.413218636232E+03    0.41025E-05   -0.11176E-07  1241   0.675E-04    0.122E-04
RMM:  16    -0.413218633564E+03    0.26681E-05   -0.74080E-08  1121   0.629E-04    0.106E-04
RMM:  17    -0.413218629725E+03    0.38388E-05   -0.67973E-08  1204   0.629E-04    0.620E-05
RMM:  18    -0.413218627159E+03    0.25668E-05   -0.46967E-08  1073   0.583E-04    0.513E-05
RMM:  19    -0.413218626395E+03    0.76324E-06   -0.23252E-08   786   0.526E-04
   46 T=    72. E= -.41286685E+03 F= -.41321863E+03 E0= -.41319767E+03  EK= 0.35178E+00 SP= 0.00E+00 SK= 0.00E+00
       N       E                     dE             d eps       ncg     rms          rms(c)
RMM:   1    -0.413244311153E+03   -0.25684E-01   -0.11249E+01  4310   0.164E+00    0.943E-01
RMM:   2    -0.413221920681E+03    0.22390E-01   -0.18977E-01  4371   0.195E-01    0.706E-01
RMM:   3    -0.413231782851E+03   -0.98622E-02   -0.22538E-02  5121   0.124E-01    0.535E-01
RMM:   4    -0.413238582666E+03   -0.67998E-02   -0.46033E-02  5025   0.187E-01    0.606E-01
RMM:   5    -0.413217948423E+03    0.20634E-01   -0.77582E-03  4593   0.106E-01    0.591E-02
RMM:   6    -0.413217885646E+03    0.62777E-04   -0.14837E-03  5413   0.383E-02    0.319E-02
RMM:   7    -0.413217880813E+03    0.48321E-05   -0.26208E-04  5645   0.159E-02    0.221E-02
RMM:   8    -0.413217870569E+03    0.10244E-04   -0.12822E-04  5117   0.116E-02    0.104E-02
RMM:   9    -0.413217857973E+03    0.12596E-04   -0.17980E-05  4390   0.579E-03    0.414E-03
RMM:  10    -0.413217855920E+03    0.20529E-05   -0.31017E-06  2743   0.229E-03    0.238E-03
RMM:  11    -0.413217851899E+03    0.40213E-05   -0.13761E-06  2500   0.187E-03    0.133E-03
RMM:  12    -0.413217848850E+03    0.30490E-05   -0.60012E-07  2434   0.135E-03    0.716E-04
RMM:  13    -0.413217846117E+03    0.27325E-05   -0.30349E-07  1823   0.931E-04    0.346E-04
RMM:  14    -0.413217843509E+03    0.26087E-05   -0.16977E-07  1371   0.737E-04    0.179E-04
RMM:  15    -0.413217840758E+03    0.27506E-05   -0.12488E-07  1232   0.685E-04    0.111E-04
RMM:  16    -0.413217838582E+03    0.21762E-05   -0.88430E-08  1178   0.644E-04    0.101E-04
RMM:  17    -0.413217836193E+03    0.23887E-05   -0.70277E-08  1159   0.621E-04    0.523E-05
RMM:  18    -0.413217833762E+03    0.24310E-05   -0.58466E-08  1095   0.599E-04    0.486E-05
RMM:  19    -0.413217833315E+03    0.44744E-06   -0.23664E-08   754   0.528E-04
   47 T=    71. E= -.41286687E+03 F= -.41321783E+03 E0= -.41319689E+03  EK= 0.35096E+00 SP= 0.00E+00 SK= 0.00E+00
       N       E                     dE             d eps       ncg     rms          rms(c)
RMM:   1    -0.413246840364E+03   -0.29007E-01   -0.11231E+01  4306   0.176E+00    0.967E-01
RMM:   2    -0.413219780942E+03    0.27059E-01   -0.17994E-01  4423   0.204E-01    0.700E-01
RMM:   3    -0.413238348858E+03   -0.18568E-01   -0.30466E-02  5148   0.148E-01    0.654E-01
RMM:   4    -0.413228045409E+03    0.10303E-01   -0.41751E-02  4983   0.183E-01    0.468E-01
RMM:   5    -0.413216317813E+03    0.11728E-01   -0.45486E-03  4523   0.899E-02    0.582E-02
RMM:   6    -0.413216198238E+03    0.11958E-03   -0.63144E-04  4850   0.294E-02    0.305E-02
RMM:   7    -0.413216185021E+03    0.13216E-04   -0.18461E-04  5907   0.135E-02    0.135E-02
RMM:   8    -0.413216178545E+03    0.64760E-05   -0.76992E-05  5209   0.101E-02    0.115E-02
RMM:   9    -0.413216170738E+03    0.78069E-05   -0.19431E-05  4479   0.532E-03    0.429E-03
RMM:  10    -0.413216167216E+03    0.35227E-05   -0.27542E-06  2623   0.260E-03    0.236E-03
RMM:  11    -0.413216161530E+03    0.56857E-05   -0.17722E-06  2477   0.220E-03    0.148E-03
RMM:  12    -0.413216157293E+03    0.42366E-05   -0.69451E-07  2406   0.152E-03    0.896E-04
RMM:  13    -0.413216153582E+03    0.37117E-05   -0.29978E-07  2133   0.985E-04    0.543E-04
RMM:  14    -0.413216147495E+03    0.60870E-05   -0.22629E-07  1875   0.846E-04    0.441E-04
RMM:  15    -0.413216143604E+03    0.38905E-05   -0.10349E-07  1062   0.623E-04    0.173E-04
RMM:  16    -0.413216141739E+03    0.18656E-05   -0.66997E-08   982   0.589E-04    0.954E-05
RMM:  17    -0.413216137725E+03    0.40135E-05   -0.77630E-08  1159   0.629E-04    0.122E-04
RMM:  18    -0.413216136222E+03    0.15029E-05   -0.36428E-08   865   0.561E-04    0.973E-05
RMM:  19    -0.413216135603E+03    0.61890E-06   -0.20936E-08   712   0.529E-04
   48 T=    71. E= -.41286712E+03 F= -.41321614E+03 E0= -.41319521E+03  EK= 0.34902E+00 SP= 0.00E+00 SK= 0.00E+00
       N       E                     dE             d eps       ncg     rms          rms(c)
RMM:   1    -0.413247942460E+03   -0.31806E-01   -0.11098E+01  4305   0.189E+00    0.957E-01
RMM:   2    -0.413215665212E+03    0.32277E-01   -0.18053E-01  4484   0.216E-01    0.690E-01
RMM:   3    -0.413241879871E+03   -0.26215E-01   -0.36629E-02  5157   0.166E-01    0.750E-01
RMM:   4    -0.413220161794E+03    0.21718E-01   -0.41034E-02  4948   0.184E-01    0.395E-01
RMM:   5    -0.413212436049E+03    0.77257E-02   -0.43520E-03  4655   0.891E-02    0.661E-02
RMM:   6    -0.413212237730E+03    0.19832E-03   -0.46469E-04  4658   0.296E-02    0.337E-02
RMM:   7    -0.413212244402E+03   -0.66716E-05   -0.28913E-04  5739   0.180E-02    0.249E-02
RMM:   8    -0.413212207874E+03    0.36528E-04   -0.97686E-05  4986   0.113E-02    0.940E-03
RMM:   9    -0.413212200762E+03    0.71119E-05   -0.19958E-05  4817   0.562E-03    0.463E-03
RMM:  10    -0.413212196354E+03    0.44081E-05   -0.25511E-06  2665   0.244E-03    0.262E-03
RMM:  11    -0.413212190089E+03    0.62655E-05   -0.12209E-06  2487   0.186E-03    0.173E-03
RMM:  12    -0.413212186325E+03    0.37633E-05   -0.40200E-07  2382   0.118E-03    0.895E-04
RMM:  13    -0.413212181408E+03    0.49175E-05   -0.28954E-07  2041   0.907E-04    0.444E-04
RMM:  14    -0.413212176586E+03    0.48222E-05   -0.19304E-07  1656   0.760E-04    0.341E-04
RMM:  15    -0.413212171579E+03    0.50063E-05   -0.12708E-07  1214   0.662E-04    0.139E-04
RMM:  16    -0.413212169000E+03    0.25792E-05   -0.78408E-08  1129   0.612E-04    0.924E-05
RMM:  17    -0.413212165210E+03    0.37898E-05   -0.77789E-08  1221   0.618E-04    0.735E-05
RMM:  18    -0.413212163921E+03    0.12899E-05   -0.39167E-08   941   0.544E-04    0.570E-05
RMM:  19    -0.413212162373E+03    0.15472E-05   -0.32553E-08   928   0.537E-04    0.281E-05
RMM:  20    -0.413212161530E+03    0.84366E-06   -0.21805E-08   814   0.514E-04
   49 T=    70. E= -.41286682E+03 F= -.41321216E+03 E0= -.41319124E+03  EK= 0.34534E+00 SP= 0.00E+00 SK= 0.00E+00
       N       E                     dE             d eps       ncg     rms          rms(c)
RMM:   1    -0.413235076568E+03   -0.22914E-01   -0.10884E+01  4305   0.195E+00    0.930E-01
RMM:   2    -0.413211224743E+03    0.23852E-01   -0.18166E-01  4517   0.223E-01    0.694E-01
RMM:   3    -0.413238841772E+03   -0.27617E-01   -0.37759E-02  5163   0.171E-01    0.775E-01
[...]
       N       E                     dE             d eps       ncg     rms          rms(c)
RMM:   1    -0.413501043272E+03    0.16753E-01   -0.11878E+01  4264   0.619E+00    0.101E+00
RMM:   2    -0.413455159385E+03    0.45884E-01   -0.36353E-01  5284   0.671E-01    0.857E-01
RMM:   3    -0.413488164752E+03   -0.33005E-01   -0.76870E-02  5498   0.297E-01    0.108E+00
RMM:   4    -0.413452839182E+03    0.35326E-01   -0.34212E-02  4989   0.229E-01    0.425E-01
RMM:   5    -0.413452403966E+03    0.43522E-03   -0.21450E-02  4956   0.191E-01    0.169E-01
RMM:   6    -0.413451209068E+03    0.11949E-02   -0.33049E-03  4764   0.806E-02    0.555E-02
RMM:   7    -0.413451223574E+03   -0.14506E-04   -0.11698E-03  5769   0.377E-02    0.368E-02
RMM:   8    -0.413451162515E+03    0.61060E-04   -0.31599E-04  5328   0.204E-02    0.214E-02
RMM:   9    -0.413451147538E+03    0.14976E-04   -0.78648E-05  4778   0.118E-02    0.992E-03
RMM:  10    -0.413451146134E+03    0.14046E-05   -0.27525E-05  5020   0.608E-03    0.656E-03
RMM:  11    -0.413451145337E+03    0.79666E-06   -0.58036E-06  3162   0.343E-03
  140 T=   118. E= -.41287167E+03 F= -.41345115E+03 E0= -.41342791E+03  EK= 0.57948E+00 SP= 0.00E+00 SK= 0.00E+00
       N       E                     dE             d eps       ncg     rms          rms(c)
RMM:   1    -0.413473105790E+03   -0.21960E-01   -0.10126E+01  4264   0.566E+00    0.810E-01
RMM:   2    -0.413445575217E+03    0.27531E-01   -0.34566E-01  5349   0.608E-01    0.673E-01
RMM:   3    -0.413466567660E+03   -0.20992E-01   -0.67925E-02  5463   0.277E-01    0.876E-01
RMM:   4    -0.413441103479E+03    0.25464E-01   -0.36429E-02  5241   0.227E-01    0.445E-01
RMM:   5    -0.413438931575E+03    0.21719E-02   -0.81587E-03  4564   0.133E-01    0.127E-01
RMM:   6    -0.413439169179E+03   -0.23760E-03   -0.40434E-03  5685   0.729E-02    0.713E-02
RMM:   7    -0.413439057313E+03    0.11187E-03   -0.13092E-03  5481   0.404E-02    0.442E-02
RMM:   8    -0.413438981852E+03    0.75461E-04   -0.30380E-04  5491   0.219E-02    0.240E-02
RMM:   9    -0.413438980689E+03    0.11637E-05   -0.18487E-04  5676   0.159E-02    0.189E-02
RMM:  10    -0.413438968737E+03    0.11951E-04   -0.38365E-05  4990   0.839E-03    0.663E-03
RMM:  11    -0.413438969277E+03   -0.53917E-06   -0.21128E-05  4873   0.508E-03    0.518E-03
RMM:  12    -0.413438968763E+03    0.51378E-06   -0.25422E-06  2728   0.271E-03
  141 T=   118. E= -.41286037E+03 F= -.41343897E+03 E0= -.41341562E+03  EK= 0.57860E+00 SP= 0.00E+00 SK= 0.00E+00
       N       E                     dE             d eps       ncg     rms          rms(c)
RMM:   1    -0.413679666669E+03   -0.24070E+00   -0.12306E+01  4264   0.632E+00    0.110E+00
RMM:   2    -0.413640996530E+03    0.38670E-01   -0.44956E-01  5407   0.740E-01    0.100E+00
RMM:   3    -0.413665701775E+03   -0.24705E-01   -0.10724E-01  5389   0.353E-01    0.112E+00
RMM:   4    -0.413624444033E+03    0.41258E-01   -0.67710E-02  5227   0.305E-01    0.484E-01
RMM:   5    -0.413620543193E+03    0.39008E-02   -0.13482E-02  4510   0.175E-01    0.154E-01
RMM:   6    -0.413620940760E+03   -0.39757E-03   -0.82485E-03  5399   0.106E-01    0.120E-01
RMM:   7    -0.413620288578E+03    0.65218E-03   -0.26860E-03  5202   0.621E-02    0.572E-02
RMM:   8    -0.413620231892E+03    0.56686E-04   -0.48117E-04  5573   0.279E-02    0.325E-02
RMM:   9    -0.413620225623E+03    0.62688E-05   -0.22924E-04  5544   0.182E-02    0.194E-02
RMM:  10    -0.413620217180E+03    0.84433E-05   -0.42797E-05  5234   0.855E-03    0.845E-03
RMM:  11    -0.413620218273E+03   -0.10933E-05   -0.21276E-05  4800   0.508E-03    0.450E-03
RMM:  12    -0.413620220499E+03   -0.22258E-05   -0.30860E-06  2777   0.284E-03    0.233E-03
RMM:  13    -0.413620222377E+03   -0.18782E-05   -0.13252E-06  2568   0.187E-03    0.111E-03
RMM:  14    -0.413620225171E+03   -0.27937E-05   -0.90350E-07  2479   0.146E-03    0.614E-04
RMM:  15    -0.413620226953E+03   -0.17818E-05   -0.51360E-07  2005   0.102E-03    0.350E-04
RMM:  16    -0.413620229364E+03   -0.24107E-05   -0.64752E-07  2221   0.108E-03    0.289E-04
RMM:  17    -0.413620231652E+03   -0.22888E-05   -0.60054E-07  1862   0.967E-04    0.186E-04
RMM:  18    -0.413620233018E+03   -0.13654E-05   -0.36124E-07  1603   0.809E-04    0.147E-04
RMM:  19    -0.413620234208E+03   -0.11899E-05   -0.26539E-07  1504   0.732E-04    0.819E-05
RMM:  20    -0.413620235051E+03   -0.84321E-06   -0.16788E-07  1278   0.641E-04
  142 T=   153. E= -.41287067E+03 F= -.41362024E+03 E0= -.41359711E+03  EK= 0.74957E+00 SP= 0.00E+00 SK= 0.00E+00
       N       E                     dE             d eps       ncg     rms          rms(c)
RMM:   1    -0.414009030372E+03   -0.38880E+00   -0.19110E+01  4274   0.782E+00    0.155E+00
RMM:   2    -0.413893927850E+03    0.11510E+00   -0.69574E-01  5394   0.954E-01    0.140E+00
RMM:   3    -0.413950075396E+03   -0.56148E-01   -0.17760E-01  5448   0.455E-01    0.156E+00
RMM:   4    -0.413876980652E+03    0.73095E-01   -0.11251E-01  5223   0.390E-01    0.684E-01
RMM:   5    -0.413868746990E+03    0.82337E-02   -0.33765E-02  4543   0.264E-01    0.201E-01
RMM:   6    -0.413868735035E+03    0.11955E-04   -0.12757E-02  5361   0.134E-01    0.145E-01
RMM:   7    -0.413867770128E+03    0.96491E-03   -0.36493E-03  5047   0.744E-02    0.697E-02
RMM:   8    -0.413867665145E+03    0.10498E-03   -0.73180E-04  5452   0.356E-02    0.407E-02
RMM:   9    -0.413867658574E+03    0.65707E-05   -0.30900E-04  5514   0.216E-02    0.235E-02
RMM:  10    -0.413867646149E+03    0.12425E-04   -0.71710E-05  5349   0.110E-02    0.925E-03
RMM:  11    -0.413867648922E+03   -0.27729E-05   -0.33592E-05  5235   0.622E-03    0.662E-03
RMM:  12    -0.413867651381E+03   -0.24592E-05   -0.51691E-06  3041   0.351E-03    0.329E-03
RMM:  13    -0.413867653852E+03   -0.24706E-05   -0.25186E-06  2723   0.237E-03    0.142E-03
RMM:  14    -0.413867657849E+03   -0.39972E-05   -0.11735E-06  2523   0.178E-03    0.737E-04
RMM:  15    -0.413867660416E+03   -0.25669E-05   -0.60163E-07  2194   0.118E-03    0.432E-04
RMM:  16    -0.413867664003E+03   -0.35872E-05   -0.74373E-07  2315   0.119E-03    0.334E-04
RMM:  17    -0.413867667302E+03   -0.32985E-05   -0.64551E-07  2007   0.101E-03    0.229E-04
RMM:  18    -0.413867669684E+03   -0.23822E-05   -0.43683E-07  1679   0.856E-04    0.148E-04
RMM:  19    -0.413867671761E+03   -0.20773E-05   -0.36290E-07  1689   0.800E-04    0.107E-04
RMM:  20    -0.413867672760E+03   -0.99831E-06   -0.17037E-07  1210   0.639E-04
  143 T=   200. E= -.41288296E+03 F= -.41386767E+03 E0= -.41384493E+03  EK= 0.98471E+00 SP= 0.00E+00 SK= 0.00E+00
       N       E                     dE             d eps       ncg     rms          rms(c)
RMM:   1    -0.414209335640E+03   -0.34166E+00   -0.24972E+01  4271   0.887E+00    0.148E+00
RMM:   2    -0.414015342720E+03    0.19399E+00   -0.86233E-01  5378   0.106E+00    0.130E+00
RMM:   3    -0.414090231147E+03   -0.74888E-01   -0.18636E-01  5571   0.468E-01    0.155E+00
RMM:   4    -0.414011698037E+03    0.78533E-01   -0.94703E-02  5161   0.358E-01    0.702E-01
RMM:   5    -0.414004206494E+03    0.74915E-02   -0.41329E-02  4536   0.285E-01    0.213E-01
RMM:   6    -0.414003282451E+03    0.92404E-03   -0.89721E-03  5230   0.122E-01    0.114E-01
RMM:   7    -0.414002872709E+03    0.40974E-03   -0.31023E-03  5159   0.673E-02    0.694E-02
RMM:   8    -0.414002700381E+03    0.17233E-03   -0.72218E-04  5113   0.359E-02    0.428E-02
RMM:   9    -0.414002694780E+03    0.56005E-05   -0.28937E-04  5249   0.220E-02    0.235E-02
RMM:  10    -0.414002687225E+03    0.75547E-05   -0.86336E-05  5424   0.116E-02    0.101E-02
RMM:  11    -0.414002691100E+03   -0.38746E-05   -0.33795E-05  5232   0.632E-03    0.741E-03
RMM:  12    -0.414002693372E+03   -0.22721E-05   -0.62722E-06  3309   0.375E-03    0.318E-03
RMM:  13    -0.414002696703E+03   -0.33313E-05   -0.30181E-06  2755   0.258E-03    0.165E-03
RMM:  14    -0.414002701420E+03   -0.47170E-05   -0.12349E-06  2529   0.187E-03    0.813E-04
RMM:  15    -0.414002704699E+03   -0.32784E-05   -0.67164E-07  2347   0.126E-03    0.536E-04
RMM:  16    -0.414002709179E+03   -0.44797E-05   -0.79140E-07  2309   0.121E-03    0.348E-04
RMM:  17    -0.414002713096E+03   -0.39178E-05   -0.66448E-07  2070   0.102E-03    0.249E-04
RMM:  18    -0.414002716292E+03   -0.31956E-05   -0.54593E-07  1841   0.916E-04    0.155E-04
RMM:  19    -0.414002718562E+03   -0.22701E-05   -0.36642E-07  1604   0.788E-04    0.125E-04
RMM:  20    -0.414002719955E+03   -0.13932E-05   -0.19716E-07  1276   0.657E-04    0.935E-05
RMM:  21    -0.414002720967E+03   -0.10118E-05   -0.11991E-07  1119   0.602E-04    0.549E-05
RMM:  22    -0.414002721559E+03   -0.59188E-06   -0.72396E-08  1013   0.567E-04
  144 T=   227. E= -.41288564E+03 F= -.41400272E+03 E0= -.41398033E+03  EK= 0.11171E+01 SP= 0.00E+00 SK= 0.00E+00
       N       E                     dE             d eps       ncg     rms          rms(c)
RMM:   1    -0.414176377114E+03   -0.17366E+00   -0.26932E+01  4266   0.910E+00    0.168E+00
RMM:   2    -0.413975190257E+03    0.20119E+00   -0.93023E-01  5389   0.109E+00    0.138E+00
RMM:   3    -0.414029284631E+03   -0.54094E-01   -0.17233E-01  5478   0.494E-01    0.123E+00
RMM:   4    -0.414039346540E+03   -0.10062E-01   -0.15943E-01  5260   0.401E-01    0.114E+00
RMM:   5    -0.413973303507E+03    0.66043E-01   -0.72705E-02  4827   0.349E-01    0.222E-01
RMM:   6    -0.413971912487E+03    0.13910E-02   -0.12539E-02  5440   0.145E-01    0.112E-01
RMM:   7    -0.413971598522E+03    0.31396E-03   -0.28069E-03  5217   0.632E-02    0.672E-02
RMM:   8    -0.413971556298E+03    0.42225E-04   -0.10631E-03  5546   0.383E-02    0.479E-02
RMM:   9    -0.413971535481E+03    0.20817E-04   -0.33600E-04  5344   0.236E-02    0.329E-02
RMM:  10    -0.413971518275E+03    0.17206E-04   -0.14035E-04  5466   0.148E-02    0.135E-02
RMM:  11    -0.413971520359E+03   -0.20842E-05   -0.61489E-05  5762   0.846E-03    0.959E-03
RMM:  12    -0.413971521041E+03   -0.68168E-06   -0.89413E-06  3906   0.432E-03
  145 T=   220. E= -.41288904E+03 F= -.41397152E+03 E0= -.41394948E+03  EK= 0.10825E+01 SP= 0.00E+00 SK= 0.00E+00
       N       E                     dE             d eps       ncg     rms          rms(c)
RMM:   1    -0.413912024295E+03    0.59496E-01   -0.24388E+01  4264   0.851E+00    0.204E+00
RMM:   2    -0.413767891945E+03    0.14413E+00   -0.90123E-01  5416   0.107E+00    0.174E+00
RMM:   3    -0.413912734025E+03   -0.14484E+00   -0.28072E-01  5517   0.567E-01    0.185E+00
RMM:   4    -0.413805454231E+03    0.10728E+00   -0.22333E-01  5126   0.500E-01    0.104E+00
RMM:   5    -0.413762668185E+03    0.42786E-01   -0.82110E-02  4773   0.385E-01    0.299E-01
RMM:   6    -0.413760332529E+03    0.23357E-02   -0.10720E-02  5301   0.144E-01    0.125E-01
RMM:   7    -0.413759974407E+03    0.35812E-03   -0.25899E-03  5092   0.639E-02    0.814E-02
RMM:   8    -0.413759863129E+03    0.11128E-03   -0.13227E-03  5304   0.454E-02    0.509E-02
RMM:   9    -0.413759859501E+03    0.36284E-05   -0.40902E-04  5593   0.257E-02    0.380E-02
RMM:  10    -0.413759830821E+03    0.28679E-04   -0.18232E-04  5379   0.170E-02    0.128E-02
RMM:  11    -0.413759837747E+03   -0.69260E-05   -0.82291E-05  5946   0.951E-03    0.116E-02
RMM:  12    -0.413759837685E+03    0.62693E-07   -0.11197E-05  4122   0.471E-03    0.547E-03
RMM:  13    -0.413759841608E+03   -0.39234E-05   -0.68438E-06  3542   0.350E-03    0.220E-03
RMM:  14    -0.413759845552E+03   -0.39441E-05   -0.13437E-06  2525   0.208E-03    0.983E-04
RMM:  15    -0.413759848366E+03   -0.28135E-05   -0.81120E-07  2438   0.149E-03    0.536E-04
RMM:  16    -0.413759851594E+03   -0.32280E-05   -0.66816E-07  2386   0.128E-03    0.371E-04
RMM:  17    -0.413759854350E+03   -0.27563E-05   -0.49349E-07  2282   0.106E-03    0.434E-04
RMM:  18    -0.413759857161E+03   -0.28113E-05   -0.38298E-07  1760   0.880E-04    0.259E-04
RMM:  19    -0.413759860149E+03   -0.29879E-05   -0.40904E-07  1730   0.840E-04    0.102E-04
RMM:  20    -0.413759861552E+03   -0.14024E-05   -0.19543E-07  1318   0.671E-04    0.776E-05
RMM:  21    -0.413759862871E+03   -0.13195E-05   -0.15300E-07  1254   0.630E-04    0.743E-05
RMM:  22    -0.413759863361E+03   -0.48964E-06   -0.78703E-08  1001   0.556E-04
  146 T=   177. E= -.41288884E+03 F= -.41375986E+03 E0= -.41373840E+03  EK= 0.87102E+00 SP= 0.00E+00 SK= 0.00E+00
       N       E                     dE             d eps       ncg     rms          rms(c)
RMM:   1    -0.413549136987E+03    0.21073E+00   -0.17206E+01  4269   0.708E+00    0.180E+00
RMM:   2    -0.413494813223E+03    0.54324E-01   -0.65149E-01  5394   0.898E-01    0.163E+00
RMM:   3    -0.413580468727E+03   -0.85656E-01   -0.18773E-01  5550   0.445E-01    0.176E+00
RMM:   4    -0.413494392568E+03    0.86076E-01   -0.11267E-01  5071   0.384E-01    0.801E-01
RMM:   5    -0.413485571635E+03    0.88209E-02   -0.52324E-02  4561   0.318E-01    0.301E-01
RMM:   6    -0.413483046908E+03    0.25247E-02   -0.46869E-03  4620   0.107E-01    0.103E-01
RMM:   7    -0.413482870365E+03    0.17654E-03   -0.16581E-03  5196   0.519E-02    0.530E-02
RMM:   8    -0.413482889844E+03   -0.19479E-04   -0.72573E-04  5524   0.324E-02    0.353E-02
RMM:   9    -0.413482878608E+03    0.11237E-04   -0.22639E-04  5541   0.174E-02    0.193E-02
RMM:  10    -0.413482870711E+03    0.78972E-05   -0.77146E-05  5446   0.102E-02    0.109E-02
RMM:  11    -0.413482874308E+03   -0.35978E-05   -0.23173E-05  4841   0.561E-03    0.658E-03
RMM:  12    -0.413482876940E+03   -0.26318E-05   -0.43607E-06  2968   0.319E-03    0.272E-03
RMM:  13    -0.413482880009E+03   -0.30689E-05   -0.16129E-06  2585   0.208E-03    0.171E-03
RMM:  14    -0.413482882573E+03   -0.25638E-05   -0.73371E-07  2444   0.144E-03    0.582E-04
RMM:  15    -0.413482884685E+03   -0.21123E-05   -0.45973E-07  1954   0.102E-03    0.299E-04
RMM:  16    -0.413482886914E+03   -0.22286E-05   -0.35721E-07  1686   0.884E-04    0.182E-04
RMM:  17    -0.413482888957E+03   -0.20428E-05   -0.29139E-07  1583   0.813E-04    0.110E-04
RMM:  18    -0.413482890798E+03   -0.18413E-05   -0.24481E-07  1530   0.747E-04    0.713E-05
RMM:  19    -0.413482892479E+03   -0.16806E-05   -0.19024E-07  1326   0.685E-04    0.457E-05
RMM:  20    -0.413482893338E+03   -0.85933E-06   -0.11940E-07  1116   0.617E-04
  147 T=   127. E= -.41285814E+03 F= -.41348289E+03 E0= -.41346228E+03  EK= 0.62475E+00 SP= 0.00E+00 SK= 0.00E+00
       N       E                     dE             d eps       ncg     rms          rms(c)
RMM:   1    -0.413700707049E+03   -0.21781E+00   -0.13587E+01  4288   0.645E+00    0.127E+00
RMM:   2    -0.413606775405E+03    0.93932E-01   -0.33300E-01  5368   0.677E-01    0.100E+00
RMM:   3    -0.413699992755E+03   -0.93217E-01   -0.13692E-01  5512   0.388E-01    0.139E+00
RMM:   4    -0.413614348601E+03    0.85644E-01   -0.88649E-02  5054   0.322E-01    0.507E-01
RMM:   5    -0.413606122419E+03    0.82262E-02   -0.41300E-02  5140   0.256E-01    0.180E-01
RMM:   6    -0.413604693740E+03    0.14287E-02   -0.68459E-03  5264   0.107E-01    0.102E-01
RMM:   7    -0.413604287906E+03    0.40583E-03   -0.10199E-03  4712   0.447E-02    0.493E-02
RMM:   8    -0.413604271130E+03    0.16777E-04   -0.61557E-04  5626   0.295E-02    0.310E-02
RMM:   9    -0.413604285059E+03   -0.13929E-04   -0.15978E-04  5704   0.152E-02    0.218E-02
RMM:  10    -0.413604277652E+03    0.74073E-05   -0.62709E-05  5275   0.101E-02    0.718E-03
RMM:  11    -0.413604283207E+03   -0.55548E-05   -0.21586E-05  4716   0.509E-03    0.513E-03
RMM:  12    -0.413604286666E+03   -0.34592E-05   -0.34037E-06  2837   0.290E-03    0.241E-03
RMM:  13    -0.413604288882E+03   -0.22162E-05   -0.10775E-06  2514   0.177E-03    0.107E-03
RMM:  14    -0.413604291599E+03   -0.27171E-05   -0.73715E-07  2413   0.136E-03    0.470E-04
RMM:  15    -0.413604293544E+03   -0.19450E-05   -0.42074E-07  1869   0.991E-04    0.314E-04
RMM:  16    -0.413604295585E+03   -0.20407E-05   -0.37063E-07  1858   0.925E-04    0.174E-04
RMM:  17    -0.413604296894E+03   -0.13089E-05   -0.25077E-07  1627   0.778E-04    0.143E-04
RMM:  18    -0.413604298279E+03   -0.13851E-05   -0.22733E-07  1543   0.734E-04    0.106E-04
RMM:  19    -0.413604298940E+03   -0.66058E-06   -0.11106E-07  1142   0.609E-04
  148 T=   150. E= -.41286631E+03 F= -.41360430E+03 E0= -.41358462E+03  EK= 0.73799E+00 SP= 0.00E+00 SK= 0.00E+00
       N       E                     dE             d eps       ncg     rms          rms(c)
RMM:   1    -0.414181840991E+03   -0.57754E+00   -0.23339E+01  4299   0.876E+00    0.205E+00
RMM:   2    -0.414050162612E+03    0.13168E+00   -0.63157E-01  5398   0.971E-01    0.182E+00
RMM:   3    -0.414093541590E+03   -0.43379E-01   -0.24569E-01  5450   0.535E-01    0.189E+00
RMM:   4    -0.414005769073E+03    0.87773E-01   -0.18392E-01  5165   0.494E-01    0.731E-01
RMM:   5    -0.413993906689E+03    0.11862E-01   -0.10700E-01  4976   0.409E-01    0.322E-01
RMM:   6    -0.413988509672E+03    0.53970E-02   -0.26758E-02  5152   0.209E-01    0.168E-01
RMM:   7    -0.413987482594E+03    0.10271E-02   -0.19522E-03  4519   0.709E-02    0.773E-02
RMM:   8    -0.413987417346E+03    0.65247E-04   -0.10654E-03  5366   0.406E-02    0.399E-02
RMM:   9    -0.413987442052E+03   -0.24705E-04   -0.40016E-04  5715   0.236E-02    0.280E-02
RMM:  10    -0.413987436865E+03    0.51868E-05   -0.92396E-05  5334   0.121E-02    0.126E-02
RMM:  11    -0.413987450109E+03   -0.13244E-04   -0.64236E-05  5619   0.901E-03    0.926E-03
RMM:  12    -0.413987458870E+03   -0.87605E-05   -0.11188E-05  3983   0.470E-03    0.398E-03
RMM:  13    -0.413987463783E+03   -0.49131E-05   -0.35937E-06  2851   0.271E-03    0.180E-03
RMM:  14    -0.413987468534E+03   -0.47517E-05   -0.17709E-06  2606   0.204E-03    0.866E-04
RMM:  15    -0.413987472016E+03   -0.34814E-05   -0.12827E-06  2475   0.165E-03    0.555E-04
RMM:  16    -0.413987474261E+03   -0.22455E-05   -0.10177E-06  2386   0.136E-03    0.344E-04
RMM:  17    -0.413987475058E+03   -0.79666E-06   -0.68947E-07  2104   0.109E-03
  149 T=   219. E= -.41291082E+03 F= -.41398748E+03 E0= -.41396857E+03  EK= 0.10767E+01 SP= 0.00E+00 SK= 0.00E+00
       N       E                     dE             d eps       ncg     rms          rms(c)
RMM:   1    -0.414241533603E+03   -0.25406E+00   -0.28327E+01  4306   0.993E+00    0.199E+00
RMM:   2    -0.414088890273E+03    0.15264E+00   -0.77027E-01  5406   0.108E+00    0.194E+00
RMM:   3    -0.414068994413E+03    0.19896E-01   -0.22560E-01  5518   0.530E-01    0.177E+00
RMM:   4    -0.414011228793E+03    0.57766E-01   -0.13990E-01  5177   0.438E-01    0.829E-01
RMM:   5    -0.414009039730E+03    0.21891E-02   -0.11203E-01  5009   0.414E-01    0.426E-01
RMM:   6    -0.414000527681E+03    0.85120E-02   -0.39642E-02  5051   0.248E-01    0.199E-01
RMM:   7    -0.413998856318E+03    0.16714E-02   -0.29253E-03  4473   0.896E-02    0.934E-02
RMM:   8    -0.413998794613E+03    0.61705E-04   -0.14471E-03  5508   0.457E-02    0.550E-02
RMM:   9    -0.413998806336E+03   -0.11723E-04   -0.49446E-04  4961   0.274E-02    0.243E-02
RMM:  10    -0.413998826719E+03   -0.20383E-04   -0.13442E-04  5650   0.140E-02    0.135E-02
RMM:  11    -0.413998843780E+03   -0.17061E-04   -0.45168E-05  5268   0.831E-03    0.902E-03
RMM:  12    -0.413998858371E+03   -0.14591E-04   -0.13585E-05  4057   0.513E-03    0.439E-03
RMM:  13    -0.413998865091E+03   -0.67205E-05   -0.48502E-06  3006   0.299E-03    0.196E-03
RMM:  14    -0.413998870799E+03   -0.57083E-05   -0.27172E-06  2733   0.237E-03    0.126E-03
RMM:  15    -0.413998874165E+03   -0.33660E-05   -0.20706E-06  2650   0.198E-03    0.791E-04
RMM:  16    -0.413998874833E+03   -0.66715E-06   -0.15425E-06  2468   0.152E-03
  150 T=   225. E= -.41289492E+03 F= -.41399887E+03 E0= -.41398032E+03  EK= 0.11040E+01 SP= 0.00E+00 SK= 0.00E+00
