       N       E                     dE             d eps       ncg     rms          rms(c)
RMM:   1     0.220128335206E+04    0.22013E+04   -0.52443E+04  2132   0.654E+02
RMM:   2     0.705631455077E+03   -0.14957E+04   -0.16264E+04  2132   0.177E+02
RMM:   3     0.137733112139E+03   -0.56790E+03   -0.65721E+03  2132   0.117E+02
RMM:   4    -0.159281480480E+03   -0.29701E+03   -0.27850E+03  2132   0.936E+01
RMM:   5    -0.287564392724E+03   -0.12828E+03   -0.11436E+03  2132   0.595E+01
RMM:   6    -0.349919746039E+03   -0.62355E+02   -0.55119E+02  2132   0.423E+01
RMM:   7    -0.382722448533E+03   -0.32803E+02   -0.30371E+02  2132   0.293E+01
RMM:   8    -0.404220753639E+03   -0.21498E+02   -0.18418E+02  2132   0.233E+01
RMM:   9    -0.436015280395E+03   -0.31795E+02   -0.30644E+02  6105   0.173E+01
RMM:  10    -0.441310973602E+03   -0.52957E+01   -0.62919E+01  6398   0.538E+00
RMM:  11    -0.442514587528E+03   -0.12036E+01   -0.11076E+01  6200   0.172E+00
RMM:  12    -0.442886185316E+03   -0.37160E+00   -0.25395E+00  6359   0.594E-01    0.134E+02
RMM:  13    -0.425611979507E+03    0.17274E+02   -0.81195E+01  4669   0.119E+01    0.712E+01
RMM:  14    -0.499214230455E+03   -0.73602E+02   -0.53992E+02  5413   0.232E+01    0.306E+01
RMM:  15    -0.413694858591E+03    0.85519E+02   -0.19300E+02  5046   0.162E+01    0.576E+00
RMM:  16    -0.414077570060E+03   -0.38271E+00   -0.39111E+01  6072   0.600E+00    0.428E+00
RMM:  17    -0.413241921913E+03    0.83565E+00   -0.22476E+00  5321   0.177E+00    0.251E+00
RMM:  18    -0.413158316888E+03    0.83605E-01   -0.10254E+00  5918   0.105E+00    0.154E+00
RMM:  19    -0.413167884050E+03   -0.95672E-02   -0.30563E-01  5787   0.574E-01    0.861E-01
RMM:  20    -0.413178445348E+03   -0.10561E-01   -0.14859E-01  5166   0.447E-01    0.477E-01
RMM:  21    -0.413166705502E+03    0.11740E-01   -0.31814E-02  5038   0.208E-01    0.238E-01
RMM:  22    -0.413165701079E+03    0.10044E-02   -0.11644E-02  6098   0.861E-02    0.157E-01
RMM:  23    -0.413163775183E+03    0.19259E-02   -0.53329E-03  5777   0.681E-02    0.756E-02
RMM:  24    -0.413162541245E+03    0.12339E-02   -0.25438E-03  5833   0.474E-02    0.324E-02
RMM:  25    -0.413162468607E+03    0.72638E-04   -0.71487E-04  5825   0.206E-02    0.243E-02
RMM:  26    -0.413162720337E+03   -0.25173E-03   -0.29422E-04  5363   0.188E-02    0.196E-02
RMM:  27    -0.413163165197E+03   -0.44486E-03   -0.16340E-04  4449   0.174E-02    0.107E-02
RMM:  28    -0.413163678457E+03   -0.51326E-03   -0.12869E-04  4419   0.178E-02    0.806E-03
RMM:  29    -0.413164040230E+03   -0.36177E-03   -0.12001E-04  4446   0.145E-02    0.321E-03
RMM:  30    -0.413164195694E+03   -0.15546E-03   -0.64031E-05  3662   0.787E-03    0.223E-03
RMM:  31    -0.413164261711E+03   -0.66016E-04   -0.32232E-05  3042   0.442E-03    0.151E-03
RMM:  32    -0.413164288200E+03   -0.26489E-04   -0.14765E-05  2902   0.263E-03    0.713E-04
RMM:  33    -0.413164292874E+03   -0.46741E-05   -0.72148E-06  2638   0.146E-03    0.534E-04
RMM:  34    -0.413164296526E+03   -0.36516E-05   -0.26853E-06  2062   0.120E-03    0.629E-04
RMM:  35    -0.413164297078E+03   -0.55183E-06   -0.18855E-06  1598   0.947E-04
    1 T=    61. E= -.41286647E+03 F= -.41316430E+03 E0= -.41314180E+03  EK= 0.29782E+00 SP= 0.00E+00 SK= 0.00E+00
       N       E                     dE             d eps       ncg     rms          rms(c)
RMM:   1    -0.413156638030E+03    0.76585E-02   -0.10806E+01  4012   0.701E-01    0.886E-01
RMM:   2    -0.413166098176E+03   -0.94601E-02   -0.13293E-01  3869   0.985E-02    0.642E-01
RMM:   3    -0.413164123579E+03    0.19746E-02   -0.74904E-03  4759   0.397E-02    0.143E-01
RMM:   4    -0.413185353556E+03   -0.21230E-01   -0.22216E-02  5214   0.124E-01    0.609E-01
RMM:   5    -0.413163745881E+03    0.21608E-01   -0.10732E-02  4852   0.102E-01    0.348E-02
RMM:   6    -0.413163885647E+03   -0.13977E-03   -0.17433E-03  5855   0.400E-02    0.213E-02
RMM:   7    -0.413163901219E+03   -0.15572E-04   -0.23959E-04  5853   0.136E-02    0.143E-02
RMM:   8    -0.413163906495E+03   -0.52762E-05   -0.42015E-05  4869   0.639E-03    0.730E-03
RMM:   9    -0.413163910081E+03   -0.35865E-05   -0.87602E-06  3382   0.333E-03    0.527E-03
RMM:  10    -0.413163915204E+03   -0.51227E-05   -0.16532E-06  2574   0.186E-03    0.346E-03
RMM:  11    -0.413163922815E+03   -0.76109E-05   -0.16745E-06  2551   0.185E-03    0.158E-03
RMM:  12    -0.413163928559E+03   -0.57441E-05   -0.10949E-06  2457   0.146E-03    0.626E-04
RMM:  13    -0.413163929220E+03   -0.66052E-06   -0.41695E-07  1961   0.922E-04
    2 T=    61. E= -.41286610E+03 F= -.41316393E+03 E0= -.41314143E+03  EK= 0.29783E+00 SP= 0.00E+00 SK= 0.00E+00
       N       E                     dE             d eps       ncg     rms          rms(c)
RMM:   1    -0.413156895343E+03    0.70332E-02   -0.10830E+01  4190   0.690E-01    0.909E-01
RMM:   2    -0.413166104830E+03   -0.92095E-02   -0.13039E-01  3928   0.968E-02    0.635E-01
RMM:   3    -0.413164658418E+03    0.14464E-02   -0.77800E-03  4823   0.386E-02    0.154E-01
RMM:   4    -0.413188068266E+03   -0.23410E-01   -0.23714E-02  5188   0.129E-01    0.639E-01
RMM:   5    -0.413164370506E+03    0.23698E-01   -0.11587E-02  4837   0.107E-01    0.376E-02
RMM:   6    -0.413164514872E+03   -0.14437E-03   -0.19202E-03  5819   0.421E-02    0.232E-02
RMM:   7    -0.413164521533E+03   -0.66609E-05   -0.26403E-04  5836   0.143E-02    0.152E-02
RMM:   8    -0.413164520233E+03    0.13005E-05   -0.41702E-05  4849   0.648E-03    0.750E-03
RMM:   9    -0.413164519432E+03    0.80090E-06   -0.85889E-06  3393   0.334E-03
    3 T=    61. E= -.41286639E+03 F= -.41316452E+03 E0= -.41314202E+03  EK= 0.29813E+00 SP= 0.00E+00 SK= 0.00E+00
       N       E                     dE             d eps       ncg     rms          rms(c)
RMM:   1    -0.413156437778E+03    0.80825E-02   -0.10745E+01  4227   0.691E-01    0.893E-01
RMM:   2    -0.413165959813E+03   -0.95220E-02   -0.12944E-01  4325   0.947E-02    0.630E-01
RMM:   3    -0.413171170871E+03   -0.52111E-02   -0.13095E-02  5198   0.838E-02    0.380E-01
RMM:   4    -0.413183521360E+03   -0.12350E-01   -0.34877E-02  5106   0.161E-01    0.581E-01
RMM:   5    -0.413164322869E+03    0.19198E-01   -0.71606E-03  4677   0.970E-02    0.547E-02
RMM:   6    -0.413164267212E+03    0.55657E-04   -0.12984E-03  5375   0.365E-02    0.226E-02
RMM:   7    -0.413164283400E+03   -0.16187E-04   -0.24537E-04  6009   0.150E-02    0.146E-02
RMM:   8    -0.413164284132E+03   -0.73187E-06   -0.42758E-05  5209   0.711E-03    0.667E-03
RMM:   9    -0.413164283973E+03    0.15832E-06   -0.98556E-06  3697   0.392E-03
    4 T=    61. E= -.41286615E+03 F= -.41316428E+03 E0= -.41314180E+03  EK= 0.29813E+00 SP= 0.00E+00 SK= 0.00E+00
       N       E                     dE             d eps       ncg     rms          rms(c)
RMM:   1    -0.413156327189E+03    0.79569E-02   -0.10789E+01  4236   0.701E-01    0.883E-01
RMM:   2    -0.413166390295E+03   -0.10063E-01   -0.13305E-01  4024   0.938E-02    0.641E-01
RMM:   3    -0.413164717288E+03    0.16730E-02   -0.75044E-03  4942   0.386E-02    0.151E-01
RMM:   4    -0.413194421590E+03   -0.29704E-01   -0.30454E-02  5172   0.145E-01    0.718E-01
RMM:   5    -0.413164243904E+03    0.30178E-01   -0.14706E-02  4825   0.120E-01    0.383E-02
RMM:   6    -0.413164423700E+03   -0.17980E-03   -0.23361E-03  5878   0.467E-02    0.217E-02
RMM:   7    -0.413164441894E+03   -0.18193E-04   -0.28077E-04  5935   0.146E-02    0.146E-02
RMM:   8    -0.413164447506E+03   -0.56119E-05   -0.53303E-05  4966   0.696E-03    0.863E-03
RMM:   9    -0.413164449812E+03   -0.23068E-05   -0.11423E-05  3794   0.383E-03    0.599E-03
RMM:  10    -0.413164454412E+03   -0.45994E-05   -0.18899E-06  2576   0.207E-03    0.381E-03
RMM:  11    -0.413164461066E+03   -0.66537E-05   -0.22713E-06  2627   0.217E-03    0.185E-03
RMM:  12    -0.413164465610E+03   -0.45446E-05   -0.11457E-06  2513   0.163E-03    0.640E-04
RMM:  13    -0.413164466265E+03   -0.65485E-06   -0.35864E-07  2055   0.986E-04
    5 T=    61. E= -.41286623E+03 F= -.41316447E+03 E0= -.41314199E+03  EK= 0.29823E+00 SP= 0.00E+00 SK= 0.00E+00
       N       E                     dE             d eps       ncg     rms          rms(c)
RMM:   1    -0.413158064389E+03    0.64012E-02   -0.10838E+01  4249   0.713E-01    0.905E-01
RMM:   2    -0.413166665386E+03   -0.86010E-02   -0.13051E-01  4037   0.985E-02    0.637E-01
RMM:   3    -0.413165228254E+03    0.14371E-02   -0.76817E-03  4772   0.418E-02    0.153E-01
RMM:   4    -0.413190529153E+03   -0.25301E-01   -0.25575E-02  5164   0.133E-01    0.665E-01
RMM:   5    -0.413164810234E+03    0.25719E-01   -0.12621E-02  4826   0.110E-01    0.381E-02
RMM:   6    -0.413164961614E+03   -0.15138E-03   -0.20247E-03  5819   0.432E-02    0.234E-02
RMM:   7    -0.413164967912E+03   -0.62975E-05   -0.27262E-04  5848   0.144E-02    0.154E-02
RMM:   8    -0.413164966637E+03    0.12743E-05   -0.42779E-05  4847   0.653E-03    0.766E-03
RMM:   9    -0.413164965398E+03    0.12395E-05   -0.91549E-06  3456   0.344E-03    0.551E-03
RMM:  10    -0.413164965885E+03   -0.48753E-06   -0.15198E-06  2552   0.189E-03
    6 T=    61. E= -.41286653E+03 F= -.41316497E+03 E0= -.41314250E+03  EK= 0.29843E+00 SP= 0.00E+00 SK= 0.00E+00
       N       E                     dE             d eps       ncg     rms          rms(c)
RMM:   1    -0.413156988399E+03    0.79770E-02   -0.10770E+01  4257   0.706E-01    0.900E-01
RMM:   2    -0.413166285226E+03   -0.92968E-02   -0.12966E-01  4192   0.979E-02    0.630E-01
RMM:   3    -0.413166706347E+03   -0.42112E-03   -0.91063E-03  5110   0.563E-02    0.239E-01
RMM:   4    -0.413202732274E+03   -0.36026E-01   -0.45402E-02  5134   0.178E-01    0.807E-01
RMM:   5    -0.413164528311E+03    0.38204E-01   -0.17123E-02  4777   0.134E-01    0.530E-02
RMM:   6    -0.413164658617E+03   -0.13031E-03   -0.27944E-03  5679   0.521E-02    0.228E-02
RMM:   7    -0.413164678968E+03   -0.20352E-04   -0.37163E-04  6037   0.160E-02    0.157E-02
RMM:   8    -0.413164678706E+03    0.26264E-06   -0.55418E-05  5200   0.739E-03    0.759E-03
RMM:   9    -0.413164675694E+03    0.30118E-05   -0.10119E-05  3393   0.352E-03    0.357E-03
RMM:  10    -0.413164675537E+03    0.15708E-06   -0.24123E-06  2591   0.211E-03
    7 T=    61. E= -.41286620E+03 F= -.41316468E+03 E0= -.41314223E+03  EK= 0.29848E+00 SP= 0.00E+00 SK= 0.00E+00
       N       E                     dE             d eps       ncg     rms          rms(c)
RMM:   1    -0.413157252625E+03    0.74231E-02   -0.10772E+01  4265   0.715E-01    0.882E-01
RMM:   2    -0.413167154778E+03   -0.99022E-02   -0.13220E-01  4121   0.955E-02    0.638E-01
RMM:   3    -0.413166854971E+03    0.29981E-03   -0.85794E-03  5100   0.532E-02    0.218E-01
RMM:   4    -0.413209372141E+03   -0.42517E-01   -0.50357E-02  5143   0.187E-01    0.865E-01
RMM:   5    -0.413165049453E+03    0.44323E-01   -0.20343E-02  4797   0.144E-01    0.516E-02
RMM:   6    -0.413165227276E+03   -0.17782E-03   -0.32560E-03  5716   0.559E-02    0.222E-02
RMM:   7    -0.413165255987E+03   -0.28711E-04   -0.42435E-04  6020   0.170E-02    0.166E-02
RMM:   8    -0.413165260735E+03   -0.47477E-05   -0.62711E-05  5210   0.758E-03    0.858E-03
RMM:   9    -0.413165261946E+03   -0.12114E-05   -0.11807E-05  3545   0.374E-03    0.432E-03
RMM:  10    -0.413165265395E+03   -0.34484E-05   -0.27558E-06  2612   0.218E-03    0.281E-03
RMM:  11    -0.413165268870E+03   -0.34756E-05   -0.12108E-06  2525   0.164E-03    0.142E-03
RMM:  12    -0.413165271820E+03   -0.29501E-05   -0.89090E-07  2446   0.137E-03    0.338E-04
RMM:  13    -0.413165272966E+03   -0.11454E-05   -0.40867E-07  2003   0.989E-04    0.258E-04
RMM:  14    -0.413165273524E+03   -0.55871E-06   -0.22801E-07  1504   0.794E-04
    8 T=    61. E= -.41286639E+03 F= -.41316527E+03 E0= -.41314284E+03  EK= 0.29888E+00 SP= 0.00E+00 SK= 0.00E+00
       N       E                     dE             d eps       ncg     rms          rms(c)
RMM:   1    -0.413157573907E+03    0.76991E-02   -0.10832E+01  4279   0.716E-01    0.900E-01
RMM:   2    -0.413167197075E+03   -0.96232E-02   -0.13159E-01  4134   0.987E-02    0.640E-01
RMM:   3    -0.413165753720E+03    0.14434E-02   -0.77558E-03  4886   0.418E-02    0.157E-01
RMM:   4    -0.413197379674E+03   -0.31626E-01   -0.32521E-02  5155   0.150E-01    0.741E-01
RMM:   5    -0.413165186571E+03    0.32193E-01   -0.15692E-02  4809   0.124E-01    0.416E-02
RMM:   6    -0.413165370049E+03   -0.18348E-03   -0.25335E-03  5781   0.484E-02    0.239E-02
RMM:   7    -0.413165381715E+03   -0.11666E-04   -0.33187E-04  5882   0.155E-02    0.162E-02
RMM:   8    -0.413165381807E+03   -0.91968E-07   -0.47631E-05  4955   0.679E-03    0.815E-03
RMM:   9    -0.413165380666E+03    0.11408E-05   -0.10502E-05  3566   0.357E-03    0.557E-03
RMM:  10    -0.413165381386E+03   -0.72059E-06   -0.17974E-06  2561   0.197E-03
    9 T=    61. E= -.41286619E+03 F= -.41316538E+03 E0= -.41314297E+03  EK= 0.29919E+00 SP= 0.00E+00 SK= 0.00E+00
       N       E                     dE             d eps       ncg     rms          rms(c)
RMM:   1    -0.413157954872E+03    0.74258E-02   -0.10816E+01  4293   0.727E-01    0.908E-01
RMM:   2    -0.413167010937E+03   -0.90561E-02   -0.13004E-01  4254   0.987E-02    0.632E-01
RMM:   3    -0.413168157448E+03   -0.11465E-02   -0.97806E-03  5103   0.616E-02    0.262E-01
RMM:   4    -0.413199549418E+03   -0.31392E-01   -0.43133E-02  5118   0.174E-01    0.765E-01
RMM:   5    -0.413165368352E+03    0.34181E-01   -0.14910E-02  4754   0.127E-01    0.528E-02
RMM:   6    -0.413165473763E+03   -0.10541E-03   -0.24947E-03  5642   0.490E-02    0.229E-02
RMM:   7    -0.413165492834E+03   -0.19072E-04   -0.33941E-04  6015   0.155E-02    0.154E-02
RMM:   8    -0.413165492267E+03    0.56712E-06   -0.52748E-05  5213   0.733E-03    0.737E-03
RMM:   9    -0.413165487789E+03    0.44782E-05   -0.93178E-06  3309   0.344E-03    0.334E-03
RMM:  10    -0.413165486616E+03    0.11735E-05   -0.21821E-06  2572   0.207E-03    0.227E-03
RMM:  11    -0.413165484741E+03    0.18749E-05   -0.11181E-06  2519   0.162E-03    0.120E-03
RMM:  12    -0.413165482909E+03    0.18315E-05   -0.63378E-07  2355   0.124E-03    0.394E-04
RMM:  13    -0.413165481990E+03    0.91896E-06   -0.31652E-07  1885   0.902E-04
   10 T=    61. E= -.41286601E+03 F= -.41316548E+03 E0= -.41314310E+03  EK= 0.29947E+00 SP= 0.00E+00 SK= 0.00E+00
       N       E                     dE             d eps       ncg     rms          rms(c)
RMM:   1    -0.413158104737E+03    0.73782E-02   -0.10766E+01  4284   0.722E-01    0.884E-01
RMM:   2    -0.413168181214E+03   -0.10076E-01   -0.13147E-01  4201   0.960E-02    0.636E-01
RMM:   3    -0.413166614261E+03    0.15670E-02   -0.74717E-03  4902   0.408E-02    0.155E-01
RMM:   4    -0.413197962264E+03   -0.31348E-01   -0.32340E-02  5150   0.149E-01    0.738E-01
RMM:   5    -0.413166046161E+03    0.31916E-01   -0.15675E-02  4807   0.123E-01    0.406E-02
RMM:   6    -0.413166228123E+03   -0.18196E-03   -0.24493E-03  5796   0.479E-02    0.236E-02
RMM:   7    -0.413166238880E+03   -0.10756E-04   -0.31908E-04  5861   0.153E-02    0.159E-02
RMM:   8    -0.413166239457E+03   -0.57743E-06   -0.48570E-05  4955   0.685E-03    0.815E-03
RMM:   9    -0.413166238568E+03    0.88901E-06   -0.10877E-05  3596   0.364E-03    0.555E-03
RMM:  10    -0.413166239945E+03   -0.13771E-05   -0.18340E-06  2566   0.198E-03    0.355E-03
RMM:  11    -0.413166241921E+03   -0.19764E-05   -0.17540E-06  2572   0.196E-03    0.154E-03
RMM:  12    -0.413166243047E+03   -0.11256E-05   -0.98324E-07  2479   0.152E-03    0.588E-04
RMM:  13    -0.413166243178E+03   -0.13135E-06   -0.31541E-07  2034   0.952E-04
   11 T=    61. E= -.41286635E+03 F= -.41316624E+03 E0= -.41314388E+03  EK= 0.29989E+00 SP= 0.00E+00 SK= 0.00E+00
       N       E                     dE             d eps       ncg     rms          rms(c)
RMM:   1    -0.413158197107E+03    0.80459E-02   -0.10841E+01  4294   0.729E-01    0.895E-01
RMM:   2    -0.413168023683E+03   -0.98266E-02   -0.13279E-01  4206   0.960E-02    0.643E-01
RMM:   3    -0.413166449776E+03    0.15739E-02   -0.76381E-03  4873   0.391E-02    0.152E-01
RMM:   4    -0.413194687630E+03   -0.28238E-01   -0.28982E-02  5146   0.141E-01    0.701E-01
RMM:   5    -0.413165977136E+03    0.28710E-01   -0.14119E-02  4813   0.116E-01    0.389E-02
RMM:   6    -0.413166150550E+03   -0.17341E-03   -0.22279E-03  5804   0.453E-02    0.229E-02
RMM:   7    -0.413166161773E+03   -0.11223E-04   -0.29339E-04  5855   0.149E-02    0.155E-02
RMM:   8    -0.413166162010E+03   -0.23659E-06   -0.47427E-05  4912   0.683E-03    0.811E-03
RMM:   9    -0.413166160910E+03    0.10999E-05   -0.10047E-05  3533   0.360E-03    0.562E-03
RMM:  10    -0.413166162016E+03   -0.11061E-05   -0.16845E-06  2554   0.196E-03    0.360E-03
RMM:  11    -0.413166163640E+03   -0.16243E-05   -0.18519E-06  2580   0.203E-03    0.155E-03
RMM:  12    -0.413166164415E+03   -0.77486E-06   -0.94516E-07  2478   0.151E-03
   12 T=    61. E= -.41286612E+03 F= -.41316616E+03 E0= -.41314383E+03  EK= 0.30004E+00 SP= 0.00E+00 SK= 0.00E+00
       N       E                     dE             d eps       ncg     rms          rms(c)
RMM:   1    -0.413160884343E+03    0.52793E-02   -0.10864E+01  4292   0.757E-01    0.913E-01
RMM:   2    -0.413168213123E+03   -0.73288E-02   -0.13046E-01  4225   0.939E-02    0.634E-01
RMM:   3    -0.413167002119E+03    0.12110E-02   -0.78801E-03  4917   0.375E-02    0.159E-01
RMM:   4    -0.413195383984E+03   -0.28382E-01   -0.29010E-02  5144   0.142E-01    0.702E-01
RMM:   5    -0.413166593135E+03    0.28791E-01   -0.14141E-02  4809   0.116E-01    0.402E-02
RMM:   6    -0.413166756238E+03   -0.16310E-03   -0.22476E-03  5822   0.454E-02    0.240E-02
RMM:   7    -0.413166761250E+03   -0.50120E-05   -0.28813E-04  5856   0.150E-02    0.157E-02
RMM:   8    -0.413166756489E+03    0.47611E-05   -0.50948E-05  4948   0.705E-03    0.856E-03
RMM:   9    -0.413166751158E+03    0.53314E-05   -0.10609E-05  3647   0.374E-03    0.600E-03
RMM:  10    -0.413166748332E+03    0.28254E-05   -0.16736E-06  2554   0.201E-03    0.381E-03
RMM:  11    -0.413166744244E+03    0.40886E-05   -0.18894E-06  2579   0.209E-03    0.169E-03
RMM:  12    -0.413166740808E+03    0.34360E-05   -0.97749E-07  2483   0.158E-03    0.661E-04
RMM:  13    -0.413166740462E+03    0.34581E-06   -0.31750E-07  2061   0.964E-04
   13 T=    61. E= -.41286629E+03 F= -.41316674E+03 E0= -.41314444E+03  EK= 0.30045E+00 SP= 0.00E+00 SK= 0.00E+00
       N       E                     dE             d eps       ncg     rms          rms(c)
RMM:   1    -0.413159380166E+03    0.73606E-02   -0.10763E+01  4297   0.732E-01    0.887E-01
RMM:   2    -0.413169132482E+03   -0.97523E-02   -0.13133E-01  4228   0.943E-02    0.634E-01
RMM:   3    -0.413167663148E+03    0.14693E-02   -0.75039E-03  4868   0.382E-02    0.154E-01
RMM:   4    -0.413195041366E+03   -0.27378E-01   -0.28069E-02  5138   0.139E-01    0.690E-01
RMM:   5    -0.413167196347E+03    0.27845E-01   -0.13646E-02  4806   0.115E-01    0.387E-02
RMM:   6    -0.413167361913E+03   -0.16557E-03   -0.21879E-03  5811   0.445E-02    0.231E-02
RMM:   7    -0.413167369425E+03   -0.75118E-05   -0.27902E-04  5832   0.146E-02    0.153E-02
RMM:   8    -0.413167367238E+03    0.21869E-05   -0.47952E-05  4924   0.683E-03    0.813E-03
RMM:   9    -0.413167364098E+03    0.31403E-05   -0.10320E-05  3595   0.367E-03    0.568E-03
RMM:  10    -0.413167363544E+03    0.55434E-06   -0.16336E-06  2551   0.196E-03
   14 T=    61. E= -.41286640E+03 F= -.41316736E+03 E0= -.41314509E+03  EK= 0.30097E+00 SP= 0.00E+00 SK= 0.00E+00
       N       E                     dE             d eps       ncg     rms          rms(c)
RMM:   1    -0.413160022239E+03    0.73419E-02   -0.10858E+01  4301   0.756E-01    0.891E-01
RMM:   2    -0.413169734927E+03   -0.97127E-02   -0.13558E-01  4284   0.100E-01    0.645E-01
RMM:   3    -0.413169761400E+03   -0.26473E-04   -0.91945E-03  5092   0.586E-02    0.245E-01
RMM:   4    -0.413209451490E+03   -0.39690E-01   -0.50483E-02  5124   0.187E-01    0.844E-01
RMM:   5    -0.413167293428E+03    0.42158E-01   -0.18944E-02  4771   0.140E-01    0.532E-02
RMM:   6    -0.413167441375E+03   -0.14795E-03   -0.30282E-03  5694   0.541E-02    0.219E-02
RMM:   7    -0.413167466937E+03   -0.25562E-04   -0.39758E-04  6010   0.165E-02    0.158E-02
RMM:   8    -0.413167469676E+03   -0.27395E-05   -0.59591E-05  5230   0.756E-03    0.789E-03
RMM:   9    -0.413167468424E+03    0.12520E-05   -0.11429E-05  3483   0.369E-03    0.362E-03
RMM:  10    -0.413167469623E+03   -0.11993E-05   -0.27177E-06  2614   0.215E-03    0.244E-03
RMM:  11    -0.413167470711E+03   -0.10878E-05   -0.11689E-06  2523   0.160E-03    0.125E-03
RMM:  12    -0.413167471293E+03   -0.58187E-06   -0.72591E-07  2373   0.126E-03
   15 T=    61. E= -.41286605E+03 F= -.41316747E+03 E0= -.41314524E+03  EK= 0.30142E+00 SP= 0.00E+00 SK= 0.00E+00
       N       E                     dE             d eps       ncg     rms          rms(c)
RMM:   1    -0.413161003843E+03    0.64669E-02   -0.10885E+01  4301   0.745E-01    0.914E-01
RMM:   2    -0.413170183411E+03   -0.91796E-02   -0.13093E-01  4254   0.995E-02    0.638E-01
RMM:   3    -0.413168913041E+03    0.12704E-02   -0.80727E-03  4922   0.438E-02    0.167E-01
RMM:   4    -0.413204089033E+03   -0.35176E-01   -0.36536E-02  5141   0.158E-01    0.781E-01
RMM:   5    -0.413168232588E+03    0.35856E-01   -0.17453E-02  4798   0.130E-01    0.442E-02
RMM:   6    -0.413168442578E+03   -0.20999E-03   -0.28900E-03  5804   0.511E-02    0.258E-02
RMM:   7    -0.413168449659E+03   -0.70814E-05   -0.36276E-04  5859   0.165E-02    0.174E-02
RMM:   8    -0.413168444158E+03    0.55005E-05   -0.57371E-05  5028   0.742E-03    0.935E-03
RMM:   9    -0.413168437713E+03    0.64451E-05   -0.12302E-05  3747   0.390E-03    0.628E-03
RMM:  10    -0.413168434011E+03    0.37024E-05   -0.21052E-06  2576   0.213E-03    0.396E-03
RMM:  11    -0.413168429472E+03    0.45386E-05   -0.18115E-06  2559   0.206E-03    0.177E-03
RMM:  12    -0.413168425203E+03    0.42692E-05   -0.11075E-06  2495   0.167E-03    0.624E-04
RMM:  13    -0.413168424552E+03    0.65096E-06   -0.36703E-07  2175   0.105E-03
   16 T=    62. E= -.41286624E+03 F= -.41316842E+03 E0= -.41314623E+03  EK= 0.30218E+00 SP= 0.00E+00 SK= 0.00E+00
       N       E                     dE             d eps       ncg     rms          rms(c)
RMM:   1    -0.413160962542E+03    0.74627E-02   -0.10801E+01  4297   0.745E-01    0.894E-01
RMM:   2    -0.413170712559E+03   -0.97500E-02   -0.13153E-01  4270   0.992E-02    0.634E-01
RMM:   3    -0.413169148353E+03    0.15642E-02   -0.76783E-03  4875   0.439E-02    0.161E-01
RMM:   4    -0.413201517676E+03   -0.32369E-01   -0.33248E-02  5143   0.151E-01    0.749E-01
RMM:   5    -0.413168628363E+03    0.32889E-01   -0.16090E-02  4802   0.125E-01    0.418E-02
RMM:   6    -0.413168829021E+03   -0.20066E-03   -0.26765E-03  5802   0.488E-02    0.246E-02
RMM:   7    -0.413168836831E+03   -0.78102E-05   -0.33027E-04  5843   0.158E-02    0.166E-02
RMM:   8    -0.413168832895E+03    0.39362E-05   -0.53840E-05  4989   0.721E-03    0.900E-03
RMM:   9    -0.413168827833E+03    0.50619E-05   -0.11737E-05  3732   0.383E-03    0.615E-03
RMM:  10    -0.413168825438E+03    0.23945E-05   -0.19499E-06  2566   0.209E-03    0.392E-03
RMM:  11    -0.413168822120E+03    0.33183E-05   -0.20259E-06  2578   0.216E-03    0.170E-03
RMM:  12    -0.413168819351E+03    0.27688E-05   -0.10156E-06  2486   0.162E-03    0.634E-04
RMM:  13    -0.413168819013E+03    0.33852E-06   -0.33295E-07  2116   0.997E-04
   17 T=    62. E= -.41286610E+03 F= -.41316882E+03 E0= -.41314666E+03  EK= 0.30272E+00 SP= 0.00E+00 SK= 0.00E+00
       N       E                     dE             d eps       ncg     rms          rms(c)
RMM:   1    -0.413167070319E+03    0.17490E-02   -0.10930E+01  4297   0.803E-01    0.889E-01
RMM:   2    -0.413171596074E+03   -0.45258E-02   -0.13586E-01  4272   0.100E-01    0.646E-01
RMM:   3    -0.413169759021E+03    0.18371E-02   -0.76880E-03  4882   0.420E-02    0.158E-01
RMM:   4    -0.413203408909E+03   -0.33650E-01   -0.34922E-02  5140   0.155E-01    0.763E-01
RMM:   5    -0.413169109414E+03    0.34299E-01   -0.16796E-02  4797   0.127E-01    0.420E-02
RMM:   6    -0.413169312182E+03   -0.20277E-03   -0.27454E-03  5803   0.496E-02    0.241E-02
RMM:   7    -0.413169323982E+03   -0.11800E-04   -0.33891E-04  5851   0.159E-02    0.164E-02
RMM:   8    -0.413169323471E+03    0.51089E-06   -0.54827E-05  5011   0.722E-03    0.885E-03
RMM:   9    -0.413169320875E+03    0.25970E-05   -0.12273E-05  3775   0.389E-03    0.596E-03
RMM:  10    -0.413169321012E+03   -0.13778E-06   -0.20691E-06  2572   0.209E-03
   18 T=    62. E= -.41286605E+03 F= -.41316932E+03 E0= -.41314720E+03  EK= 0.30327E+00 SP= 0.00E+00 SK= 0.00E+00
       N       E                     dE             d eps       ncg     rms          rms(c)
RMM:   1    -0.413162979091E+03    0.63418E-02   -0.10915E+01  4306   0.758E-01    0.913E-01
RMM:   2    -0.413172184989E+03   -0.92059E-02   -0.13254E-01  4314   0.950E-02    0.642E-01
RMM:   3    -0.413173966752E+03   -0.17818E-02   -0.10469E-02  5115   0.658E-02    0.286E-01
RMM:   4    -0.413202908744E+03   -0.28942E-01   -0.43570E-02  5096   0.175E-01    0.746E-01
RMM:   5    -0.413170428814E+03    0.32480E-01   -0.13833E-02  4725   0.123E-01    0.526E-02
RMM:   6    -0.413170524041E+03   -0.95227E-04   -0.23308E-03  5622   0.472E-02    0.231E-02
RMM:   7    -0.413170537895E+03   -0.13854E-04   -0.32068E-04  6001   0.154E-02    0.155E-02
RMM:   8    -0.413170534107E+03    0.37877E-05   -0.52843E-05  5187   0.745E-03    0.738E-03
RMM:   9    -0.413170527040E+03    0.70677E-05   -0.94042E-06  3305   0.355E-03    0.325E-03
RMM:  10    -0.413170524439E+03    0.26004E-05   -0.20966E-06  2557   0.205E-03    0.217E-03
RMM:  11    -0.413170520323E+03    0.41166E-05   -0.11470E-06  2514   0.165E-03    0.120E-03
RMM:  12    -0.413170517089E+03    0.32333E-05   -0.58726E-07  2342   0.123E-03    0.426E-04
RMM:  13    -0.413170515268E+03    0.18214E-05   -0.29468E-07  1880   0.894E-04    0.230E-04
RMM:  14    -0.413170513540E+03    0.17278E-05   -0.18761E-07  1435   0.754E-04    0.149E-04
RMM:  15    -0.413170510532E+03    0.30083E-05   -0.19626E-07  1496   0.750E-04    0.102E-04
RMM:  16    -0.413170509055E+03    0.14764E-05   -0.10913E-07  1218   0.648E-04    0.779E-05
RMM:  17    -0.413170506343E+03    0.27118E-05   -0.12207E-07  1402   0.662E-04    0.500E-05
RMM:  18    -0.413170504928E+03    0.14156E-05   -0.64201E-08  1005   0.567E-04    0.350E-05
RMM:  19    -0.413170504589E+03    0.33834E-06   -0.31303E-08   806   0.527E-04
   19 T=    62. E= -.41286642E+03 F= -.41317050E+03 E0= -.41314843E+03  EK= 0.30408E+00 SP= 0.00E+00 SK= 0.00E+00
       N       E                     dE             d eps       ncg     rms          rms(c)
RMM:   1    -0.413163243649E+03    0.72613E-02   -0.10855E+01  4300   0.758E-01    0.903E-01
RMM:   2    -0.413172678107E+03   -0.94345E-02   -0.13161E-01  4273   0.990E-02    0.635E-01
RMM:   3    -0.413171575078E+03    0.11030E-02   -0.79453E-03  4947   0.443E-02    0.174E-01
RMM:   4    -0.413210575399E+03   -0.39000E-01   -0.41231E-02  5145   0.168E-01    0.821E-01
RMM:   5    -0.413170751048E+03    0.39824E-01   -0.19356E-02  4792   0.137E-01    0.465E-02
RMM:   6    -0.413170966296E+03   -0.21525E-03   -0.31888E-03  5794   0.535E-02    0.263E-02
RMM:   7    -0.413170973698E+03   -0.74017E-05   -0.39780E-04  5845   0.171E-02    0.179E-02
RMM:   8    -0.413170967837E+03    0.58605E-05   -0.60418E-05  5102   0.757E-03    0.939E-03
RMM:   9    -0.413170960847E+03    0.69904E-05   -0.13446E-05  3863   0.401E-03    0.607E-03
RMM:  10    -0.413170956898E+03    0.39494E-05   -0.23327E-06  2587   0.216E-03    0.385E-03
RMM:  11    -0.413170952717E+03    0.41804E-05   -0.15454E-06  2533   0.193E-03    0.180E-03
RMM:  12    -0.413170948532E+03    0.41849E-05   -0.10311E-06  2488   0.163E-03    0.527E-04
RMM:  13    -0.413170947625E+03    0.90714E-06   -0.37404E-07  2193   0.107E-03
   20 T=    62. E= -.41286622E+03 F= -.41317095E+03 E0= -.41314891E+03  EK= 0.30473E+00 SP= 0.00E+00 SK= 0.00E+00
       N       E                     dE             d eps       ncg     rms          rms(c)
RMM:   1    -0.413165063681E+03    0.58849E-02   -0.10902E+01  4300   0.785E-01    0.889E-01
RMM:   2    -0.413174248187E+03   -0.91845E-02   -0.13590E-01  4274   0.101E-01    0.646E-01
RMM:   3    -0.413172425860E+03    0.18223E-02   -0.77548E-03  4933   0.417E-02    0.160E-01
RMM:   4    -0.413207134868E+03   -0.34709E-01   -0.36130E-02  5142   0.158E-01    0.775E-01
RMM:   5    -0.413171780063E+03    0.35355E-01   -0.17364E-02  4801   0.129E-01    0.425E-02
RMM:   6    -0.413171982481E+03   -0.20242E-03   -0.28277E-03  5810   0.502E-02    0.244E-02
RMM:   7    -0.413171995116E+03   -0.12636E-04   -0.34352E-04  5847   0.161E-02    0.164E-02
RMM:   8    -0.413171993560E+03    0.15562E-05   -0.58531E-05  5037   0.741E-03    0.925E-03
RMM:   9    -0.413171989267E+03    0.42936E-05   -0.13012E-05  3886   0.401E-03    0.616E-03
RMM:  10    -0.413171988260E+03    0.10071E-05   -0.21868E-06  2586   0.212E-03    0.392E-03
RMM:  11    -0.413171987142E+03    0.11180E-05   -0.21143E-06  2587   0.217E-03    0.171E-03
RMM:  12    -0.413171985938E+03    0.12037E-05   -0.99415E-07  2488   0.162E-03    0.604E-04
RMM:  13    -0.413171985739E+03    0.19867E-06   -0.33782E-07  2136   0.101E-03
   21 T=    62. E= -.41286635E+03 F= -.41317199E+03 E0= -.41315000E+03  EK= 0.30563E+00 SP= 0.00E+00 SK= 0.00E+00
       N       E                     dE             d eps       ncg     rms          rms(c)
RMM:   1    -0.413169590718E+03    0.23952E-02   -0.11000E+01  4297   0.789E-01    0.910E-01
RMM:   2    -0.413174975120E+03   -0.53844E-02   -0.13141E-01  4283   0.994E-02    0.646E-01
RMM:   3    -0.413173383154E+03    0.15920E-02   -0.80747E-03  4881   0.423E-02    0.156E-01
RMM:   4    -0.413205625839E+03   -0.32243E-01   -0.33339E-02  5144   0.152E-01    0.747E-01
RMM:   5    -0.413172850776E+03    0.32775E-01   -0.16123E-02  4799   0.124E-01    0.418E-02
RMM:   6    -0.413173035518E+03   -0.18474E-03   -0.26124E-03  5820   0.484E-02    0.248E-02
RMM:   7    -0.413173041048E+03   -0.55303E-05   -0.31821E-04  5845   0.158E-02    0.163E-02
RMM:   8    -0.413173035919E+03    0.51295E-05   -0.57142E-05  5018   0.738E-03    0.917E-03
RMM:   9    -0.413173029129E+03    0.67896E-05   -0.12311E-05  3855   0.396E-03    0.621E-03
RMM:  10    -0.413173025528E+03    0.36007E-05   -0.19220E-06  2563   0.209E-03    0.396E-03
RMM:  11    -0.413173020705E+03    0.48235E-05   -0.19838E-06  2578   0.215E-03    0.175E-03
RMM:  12    -0.413173016530E+03    0.41752E-05   -0.99317E-07  2484   0.164E-03    0.637E-04
RMM:  13    -0.413173015981E+03    0.54878E-06   -0.33608E-07  2129   0.101E-03
   22 T=    62. E= -.41286637E+03 F= -.41317302E+03 E0= -.41315107E+03  EK= 0.30664E+00 SP= 0.00E+00 SK= 0.00E+00
       N       E                     dE             d eps       ncg     rms          rms(c)
RMM:   1    -0.413168481134E+03    0.45354E-02   -0.10963E+01  4299   0.794E-01    0.913E-01
RMM:   2    -0.413175535210E+03   -0.70541E-02   -0.13782E-01  4283   0.108E-01    0.639E-01
RMM:   3    -0.413174003723E+03    0.15315E-02   -0.78891E-03  4805   0.441E-02    0.166E-01
RMM:   4    -0.413203546131E+03   -0.29542E-01   -0.30137E-02  5152   0.145E-01    0.716E-01
RMM:   5    -0.413173538015E+03    0.30008E-01   -0.14825E-02  4802   0.119E-01    0.412E-02
RMM:   6    -0.413173708080E+03   -0.17006E-03   -0.24261E-03  5813   0.463E-02    0.250E-02
RMM:   7    -0.413173710342E+03   -0.22623E-05   -0.28823E-04  5809   0.153E-02    0.155E-02
RMM:   8    -0.413173703752E+03    0.65896E-05   -0.56384E-05  5010   0.737E-03    0.917E-03
RMM:   9    -0.413173695292E+03    0.84606E-05   -0.12342E-05  3926   0.401E-03    0.633E-03
RMM:  10    -0.413173690151E+03    0.51404E-05   -0.17942E-06  2555   0.210E-03    0.408E-03
RMM:  11    -0.413173682737E+03    0.74148E-05   -0.20417E-06  2583   0.219E-03    0.183E-03
RMM:  12    -0.413173676510E+03    0.62269E-05   -0.95970E-07  2478   0.164E-03    0.635E-04
RMM:  13    -0.413173675610E+03    0.89960E-06   -0.34018E-07  2131   0.102E-03
   23 T=    63. E= -.41286602E+03 F= -.41317368E+03 E0= -.41315178E+03  EK= 0.30765E+00 SP= 0.00E+00 SK= 0.00E+00
       N       E                     dE             d eps       ncg     rms          rms(c)
RMM:   1    -0.413167352963E+03    0.63235E-02   -0.10938E+01  4299   0.788E-01    0.893E-01
RMM:   2    -0.413177632933E+03   -0.10280E-01   -0.13559E-01  4287   0.105E-01    0.646E-01
RMM:   3    -0.413175523803E+03    0.21091E-02   -0.77408E-03  4753   0.450E-02    0.154E-01
RMM:   4    -0.413203396051E+03   -0.27872E-01   -0.28492E-02  5146   0.140E-01    0.696E-01
RMM:   5    -0.413175085983E+03    0.28310E-01   -0.14027E-02  4805   0.116E-01    0.390E-02
RMM:   6    -0.413175240433E+03   -0.15445E-03   -0.22593E-03  5823   0.446E-02    0.231E-02
RMM:   7    -0.413175247344E+03   -0.69107E-05   -0.26007E-04  5825   0.145E-02    0.141E-02
RMM:   8    -0.413175245388E+03    0.19557E-05   -0.53095E-05  4988   0.708E-03    0.886E-03
RMM:   9    -0.413175239705E+03    0.56835E-05   -0.12174E-05  3941   0.397E-03    0.611E-03
RMM:  10    -0.413175237534E+03    0.21710E-05   -0.17795E-06  2557   0.208E-03    0.398E-03
RMM:  11    -0.413175234162E+03    0.33715E-05   -0.21375E-06  2591   0.222E-03    0.178E-03
RMM:  12    -0.413175231271E+03    0.28914E-05   -0.92440E-07  2477   0.161E-03    0.629E-04
RMM:  13    -0.413175230867E+03    0.40335E-06   -0.31559E-07  2096   0.978E-04
   24 T=    63. E= -.41286622E+03 F= -.41317523E+03 E0= -.41315338E+03  EK= 0.30901E+00 SP= 0.00E+00 SK= 0.00E+00
       N       E                     dE             d eps       ncg     rms          rms(c)
RMM:   1    -0.413169136516E+03    0.60948E-02   -0.11041E+01  4297   0.805E-01    0.908E-01
RMM:   2    -0.413178533143E+03   -0.93966E-02   -0.13595E-01  4283   0.105E-01    0.651E-01
RMM:   3    -0.413176538569E+03    0.19946E-02   -0.78945E-03  4763   0.430E-02    0.153E-01
RMM:   4    -0.413201671735E+03   -0.25133E-01   -0.25647E-02  5148   0.133E-01    0.662E-01
RMM:   5    -0.413176098772E+03    0.25573E-01   -0.12601E-02  4807   0.110E-01    0.382E-02
RMM:   6    -0.413176239816E+03   -0.14104E-03   -0.20523E-03  5830   0.423E-02    0.228E-02
RMM:   7    -0.413176244167E+03   -0.43510E-05   -0.22489E-04  5772   0.137E-02    0.127E-02
RMM:   8    -0.413176241495E+03    0.26722E-05   -0.47169E-05  4950   0.665E-03    0.851E-03
RMM:   9    -0.413176235651E+03    0.58434E-05   -0.11672E-05  3901   0.383E-03    0.607E-03
RMM:  10    -0.413176232955E+03    0.26962E-05   -0.16321E-06  2548   0.207E-03    0.395E-03
RMM:  11    -0.413176228891E+03    0.40643E-05   -0.18814E-06  2559   0.212E-03    0.185E-03
RMM:  12    -0.413176224701E+03    0.41897E-05   -0.97053E-07  2476   0.164E-03    0.661E-04
RMM:  13    -0.413176224111E+03    0.59020E-06   -0.32090E-07  2107   0.996E-04
   25 T=    63. E= -.41286606E+03 F= -.41317622E+03 E0= -.41315443E+03  EK= 0.31016E+00 SP= 0.00E+00 SK= 0.00E+00
       N       E                     dE             d eps       ncg     rms          rms(c)
RMM:   1    -0.413175512205E+03    0.71250E-03   -0.11104E+01  4297   0.837E-01    0.923E-01
RMM:   2    -0.413179180541E+03   -0.36683E-02   -0.13701E-01  4272   0.107E-01    0.644E-01
RMM:   3    -0.413177768607E+03    0.14119E-02   -0.80896E-03  4755   0.429E-02    0.160E-01
RMM:   4    -0.413201327420E+03   -0.23559E-01   -0.23931E-02  5158   0.130E-01    0.641E-01
RMM:   5    -0.413177445785E+03    0.23882E-01   -0.11819E-02  4812   0.106E-01    0.388E-02
RMM:   6    -0.413177569020E+03   -0.12324E-03   -0.19079E-03  5826   0.409E-02    0.232E-02
RMM:   7    -0.413177565891E+03    0.31292E-05   -0.20291E-04  5745   0.133E-02    0.122E-02
RMM:   8    -0.413177559675E+03    0.62157E-05   -0.43337E-05  4918   0.648E-03    0.836E-03
RMM:   9    -0.413177552347E+03    0.73284E-05   -0.10421E-05  3774   0.367E-03    0.608E-03
RMM:  10    -0.413177547543E+03    0.48042E-05   -0.14911E-06  2541   0.205E-03    0.393E-03
RMM:  11    -0.413177539854E+03    0.76892E-05   -0.17725E-06  2548   0.208E-03    0.186E-03
RMM:  12    -0.413177531746E+03    0.81074E-05   -0.95334E-07  2466   0.163E-03    0.677E-04
RMM:  13    -0.413177530746E+03    0.10002E-05   -0.30912E-07  2097   0.987E-04    0.465E-04
RMM:  14    -0.413177529863E+03    0.88262E-06   -0.14089E-07  1466   0.719E-04
   26 T=    63. E= -.41286610E+03 F= -.41317753E+03 E0= -.41315578E+03  EK= 0.31143E+00 SP= 0.00E+00 SK= 0.00E+00
       N       E                     dE             d eps       ncg     rms          rms(c)
RMM:   1    -0.413171359566E+03    0.61712E-02   -0.11006E+01  4293   0.796E-01    0.899E-01
RMM:   2    -0.413181282546E+03   -0.99230E-02   -0.13593E-01  4281   0.104E-01    0.646E-01
RMM:   3    -0.413179615452E+03    0.16671E-02   -0.78636E-03  4768   0.435E-02    0.155E-01
RMM:   4    -0.413205373287E+03   -0.25758E-01   -0.26234E-02  5151   0.135E-01    0.669E-01
RMM:   5    -0.413179232730E+03    0.26141E-01   -0.12996E-02  4811   0.111E-01    0.390E-02
RMM:   6    -0.413179370840E+03   -0.13811E-03   -0.20945E-03  5819   0.431E-02    0.239E-02
RMM:   7    -0.413179373510E+03   -0.26700E-05   -0.25865E-04  5790   0.145E-02    0.147E-02
RMM:   8    -0.413179368933E+03    0.45771E-05   -0.52517E-05  4964   0.718E-03    0.854E-03
RMM:   9    -0.413179362429E+03    0.65041E-05   -0.11338E-05  3844   0.390E-03    0.586E-03
RMM:  10    -0.413179359121E+03    0.33080E-05   -0.16028E-06  2545   0.201E-03    0.379E-03
RMM:  11    -0.413179354498E+03    0.46228E-05   -0.16526E-06  2535   0.202E-03    0.170E-03
RMM:  12    -0.413179350270E+03    0.42280E-05   -0.90068E-07  2456   0.156E-03    0.621E-04
RMM:  13    -0.413179349699E+03    0.57041E-06   -0.30851E-07  2063   0.970E-04
   27 T=    64. E= -.41286638E+03 F= -.41317935E+03 E0= -.41315765E+03  EK= 0.31297E+00 SP= 0.00E+00 SK= 0.00E+00
       N       E                     dE             d eps       ncg     rms          rms(c)
RMM:   1    -0.413174292609E+03    0.50577E-02   -0.11139E+01  4294   0.838E-01    0.907E-01
RMM:   2    -0.413182660949E+03   -0.83683E-02   -0.14061E-01  4272   0.109E-01    0.657E-01
RMM:   3    -0.413180670969E+03    0.19900E-02   -0.80314E-03  4665   0.438E-02    0.150E-01
RMM:   4    -0.413198991428E+03   -0.18320E-01   -0.18653E-02  5147   0.115E-01    0.567E-01
RMM:   5    -0.413180431329E+03    0.18560E-01   -0.92447E-03  4814   0.934E-02    0.349E-02
RMM:   6    -0.413180509932E+03   -0.78603E-04   -0.14803E-03  5832   0.358E-02    0.210E-02
RMM:   7    -0.413180512067E+03   -0.21358E-05   -0.16527E-04  5649   0.119E-02    0.104E-02
RMM:   8    -0.413180505431E+03    0.66362E-05   -0.30548E-05  4710   0.556E-03    0.668E-03
RMM:   9    -0.413180504170E+03    0.12613E-05   -0.90656E-06  3639   0.340E-03    0.559E-03
RMM:  10    -0.413180501052E+03    0.31178E-05   -0.12267E-06  2532   0.191E-03    0.352E-03
RMM:  11    -0.413180497239E+03    0.38130E-05   -0.14425E-06  2523   0.188E-03    0.172E-03
RMM:  12    -0.413180493449E+03    0.37899E-05   -0.79111E-07  2423   0.146E-03    0.558E-04
RMM:  13    -0.413180492678E+03    0.77140E-06   -0.25240E-07  1953   0.889E-04
   28 T=    64. E= -.41286609E+03 F= -.41318049E+03 E0= -.41315884E+03  EK= 0.31440E+00 SP= 0.00E+00 SK= 0.00E+00
       N       E                     dE             d eps       ncg     rms          rms(c)
RMM:   1    -0.413177490195E+03    0.30033E-02   -0.11197E+01  4294   0.842E-01    0.930E-01
RMM:   2    -0.413184386805E+03   -0.68966E-02   -0.14119E-01  4275   0.111E-01    0.651E-01
RMM:   3    -0.413182661232E+03    0.17256E-02   -0.83157E-03  4505   0.451E-02    0.158E-01
RMM:   4    -0.413194040874E+03   -0.11380E-01   -0.11695E-02  5160   0.912E-02    0.448E-01
RMM:   5    -0.413182595337E+03    0.11446E-01   -0.57306E-03  4831   0.734E-02    0.334E-02
RMM:   6    -0.413182628852E+03   -0.33515E-04   -0.94661E-04  5856   0.284E-02    0.207E-02
RMM:   7    -0.413182627110E+03    0.17421E-05   -0.16056E-04  5547   0.123E-02    0.129E-02
RMM:   8    -0.413182612235E+03    0.14875E-04   -0.26800E-05  4582   0.587E-03    0.566E-03
RMM:   9    -0.413182607840E+03    0.43953E-05   -0.53336E-06  3042   0.291E-03    0.454E-03
RMM:  10    -0.413182602375E+03    0.54643E-05   -0.93970E-07  2498   0.175E-03    0.275E-03
RMM:  11    -0.413182595314E+03    0.70615E-05   -0.74641E-07  2469   0.146E-03    0.135E-03
RMM:  12    -0.413182587642E+03    0.76719E-05   -0.49946E-07  2287   0.117E-03    0.440E-04
RMM:  13    -0.413182585979E+03    0.16626E-05   -0.19238E-07  1701   0.793E-04    0.241E-04
RMM:  14    -0.413182584200E+03    0.17793E-05   -0.10091E-07  1196   0.660E-04    0.176E-04
RMM:  15    -0.413182577898E+03    0.63024E-05   -0.12432E-07  1409   0.711E-04    0.160E-04
RMM:  16    -0.413182577610E+03    0.28779E-06   -0.44275E-08   885   0.583E-04
   29 T=    64. E= -.41286634E+03 F= -.41318258E+03 E0= -.41316098E+03  EK= 0.31623E+00 SP= 0.00E+00 SK= 0.00E+00
       N       E                     dE             d eps       ncg     rms          rms(c)
RMM:   1    -0.413176465447E+03    0.61125E-02   -0.11122E+01  4293   0.824E-01    0.908E-01
RMM:   2    -0.413186549178E+03   -0.10084E-01   -0.13854E-01  4268   0.111E-01    0.649E-01
RMM:   3    -0.413184500422E+03    0.20488E-02   -0.80712E-03  4519   0.455E-02    0.151E-01
RMM:   4    -0.413195957919E+03   -0.11457E-01   -0.11831E-02  5162   0.923E-02    0.450E-01
RMM:   5    -0.413184391547E+03    0.11566E-01   -0.57981E-03  4827   0.737E-02    0.328E-02
RMM:   6    -0.413184429451E+03   -0.37905E-04   -0.93111E-04  5844   0.285E-02    0.210E-02
RMM:   7    -0.413184430957E+03   -0.15059E-05   -0.16658E-04  5551   0.125E-02    0.129E-02
RMM:   8    -0.413184417676E+03    0.13282E-04   -0.26423E-05  4569   0.585E-03    0.558E-03
RMM:   9    -0.413184414870E+03    0.28060E-05   -0.51569E-06  3017   0.288E-03    0.438E-03
RMM:  10    -0.413184411128E+03    0.37414E-05   -0.94319E-07  2496   0.173E-03    0.267E-03
RMM:  11    -0.413184406541E+03    0.45871E-05   -0.69180E-07  2465   0.140E-03    0.133E-03
RMM:  12    -0.413184402008E+03    0.45333E-05   -0.48848E-07  2274   0.114E-03    0.537E-04
RMM:  13    -0.413184400381E+03    0.16270E-05   -0.19065E-07  1692   0.795E-04    0.254E-04
RMM:  14    -0.413184399084E+03    0.12967E-05   -0.97510E-08  1178   0.654E-04    0.161E-04
RMM:  15    -0.413184395114E+03    0.39702E-05   -0.10305E-07  1254   0.680E-04    0.135E-04
RMM:  16    -0.413184394702E+03    0.41199E-06   -0.41094E-08   868   0.587E-04
   30 T=    65. E= -.41286622E+03 F= -.41318439E+03 E0= -.41316285E+03  EK= 0.31817E+00 SP= 0.00E+00 SK= 0.00E+00
       N       E                     dE             d eps       ncg     rms          rms(c)
RMM:   1    -0.413192621603E+03   -0.82265E-02   -0.11396E+01  4293   0.927E-01    0.908E-01
RMM:   2    -0.413188939150E+03    0.36825E-02   -0.15917E-01  4282   0.127E-01    0.665E-01
RMM:   3    -0.413186044431E+03    0.28947E-02   -0.77793E-03  4244   0.448E-02    0.165E-01
RMM:   4    -0.413187069844E+03   -0.10254E-02   -0.22293E-03  5054   0.383E-02    0.136E-01
RMM:   5    -0.413186045473E+03    0.10244E-02   -0.51244E-04  4765   0.230E-02    0.284E-02
RMM:   6    -0.413186041516E+03    0.39572E-05   -0.16255E-04  5523   0.132E-02    0.207E-02
RMM:   7    -0.413186030944E+03    0.10573E-04   -0.10711E-04  4893   0.974E-03    0.933E-03
RMM:   8    -0.413186027107E+03    0.38362E-05   -0.73863E-06  3372   0.373E-03    0.426E-03
RMM:   9    -0.413186026386E+03    0.72184E-06   -0.11942E-06  2467   0.169E-03
   31 T=    65. E= -.41286580E+03 F= -.41318603E+03 E0= -.41316453E+03  EK= 0.32023E+00 SP= 0.00E+00 SK= 0.00E+00
       N       E                     dE             d eps       ncg     rms          rms(c)
RMM:   1    -0.413181339879E+03    0.46872E-02   -0.11334E+01  4291   0.854E-01    0.936E-01
RMM:   2    -0.413190740544E+03   -0.94007E-02   -0.14197E-01  4284   0.124E-01    0.659E-01
RMM:   3    -0.413188749329E+03    0.19912E-02   -0.86741E-03  4552   0.521E-02    0.157E-01
RMM:   4    -0.413202425703E+03   -0.13676E-01   -0.13868E-02  5163   0.101E-01    0.492E-01
RMM:   5    -0.413188697744E+03    0.13728E-01   -0.69571E-03  4812   0.817E-02    0.362E-02
RMM:   6    -0.413188675647E+03    0.22097E-04   -0.11099E-03  5796   0.332E-02    0.244E-02
RMM:   7    -0.413188672612E+03    0.30349E-05   -0.20584E-04  5572   0.138E-02    0.137E-02
RMM:   8    -0.413188659986E+03    0.12627E-04   -0.32013E-05  4765   0.630E-03    0.622E-03
RMM:   9    -0.413188655915E+03    0.40707E-05   -0.56566E-06  3079   0.303E-03    0.420E-03
RMM:  10    -0.413188649661E+03    0.62542E-05   -0.10446E-06  2507   0.178E-03    0.240E-03
RMM:  11    -0.413188642373E+03    0.72872E-05   -0.82657E-07  2495   0.146E-03    0.117E-03
RMM:  12    -0.413188635391E+03    0.69828E-05   -0.53597E-07  2297   0.119E-03    0.536E-04
RMM:  13    -0.413188632500E+03    0.28903E-05   -0.22090E-07  1721   0.831E-04    0.305E-04
RMM:  14    -0.413188630301E+03    0.21993E-05   -0.11617E-07  1224   0.680E-04    0.188E-04
RMM:  15    -0.413188624891E+03    0.54100E-05   -0.10730E-07  1265   0.692E-04    0.102E-04
RMM:  16    -0.413188622725E+03    0.21662E-05   -0.64091E-08  1074   0.619E-04    0.970E-05
RMM:  17    -0.413188620106E+03    0.26187E-05   -0.51796E-08  1066   0.600E-04    0.785E-05
RMM:  18    -0.413188616806E+03    0.33002E-05   -0.50845E-08  1111   0.591E-04    0.475E-05
RMM:  19    -0.413188616199E+03    0.60652E-06   -0.21949E-08   748   0.522E-04
   32 T=    66. E= -.41286598E+03 F= -.41318862E+03 E0= -.41316717E+03  EK= 0.32263E+00 SP= 0.00E+00 SK= 0.00E+00
       N       E                     dE             d eps       ncg     rms          rms(c)
RMM:   1    -0.413183106578E+03    0.55102E-02   -0.11307E+01  4285   0.869E-01    0.923E-01
RMM:   2    -0.413192826162E+03   -0.97196E-02   -0.14364E-01  4274   0.128E-01    0.655E-01
RMM:   3    -0.413190547954E+03    0.22782E-02   -0.82860E-03  4357   0.445E-02    0.155E-01
RMM:   4    -0.413193629346E+03   -0.30814E-02   -0.38135E-03  5143   0.535E-02    0.234E-01
RMM:   5    -0.413190590538E+03    0.30388E-02   -0.15125E-03  4806   0.389E-02    0.310E-02
RMM:   6    -0.413190578578E+03    0.11960E-04   -0.32597E-04  5675   0.186E-02    0.227E-02
RMM:   7    -0.413190564926E+03    0.13651E-04   -0.13316E-04  5106   0.112E-02    0.103E-02
RMM:   8    -0.413190557803E+03    0.71229E-05   -0.11920E-05  3899   0.440E-03    0.486E-03
RMM:   9    -0.413190555726E+03    0.20774E-05   -0.15642E-06  2538   0.192E-03    0.269E-03
RMM:  10    -0.413190549346E+03    0.63796E-05   -0.83765E-07  2471   0.148E-03    0.128E-03
RMM:  11    -0.413190544525E+03    0.48214E-05   -0.41468E-07  2203   0.105E-03    0.648E-04
RMM:  12    -0.413190540251E+03    0.42745E-05   -0.23216E-07  1735   0.843E-04    0.265E-04
RMM:  13    -0.413190537580E+03    0.26702E-05   -0.11990E-07  1164   0.682E-04    0.154E-04
RMM:  14    -0.413190534346E+03    0.32346E-05   -0.86668E-08  1106   0.647E-04    0.115E-04
RMM:  15    -0.413190529865E+03    0.44805E-05   -0.85073E-08  1185   0.651E-04    0.594E-05
RMM:  16    -0.413190528360E+03    0.15048E-05   -0.49615E-08   993   0.582E-04    0.520E-05
RMM:  17    -0.413190525811E+03    0.25490E-05   -0.43914E-08  1008   0.574E-04    0.249E-05
RMM:  18    -0.413190524592E+03    0.12195E-05   -0.26385E-08   798   0.535E-04    0.153E-05
RMM:  19    -0.413190524367E+03    0.22481E-06   -0.12983E-08   630   0.509E-04
   33 T=    66. E= -.41286567E+03 F= -.41319052E+03 E0= -.41316912E+03  EK= 0.32485E+00 SP= 0.00E+00 SK= 0.00E+00
       N       E                     dE             d eps       ncg     rms          rms(c)
RMM:   1    -0.413192318119E+03   -0.17935E-02   -0.11479E+01  4294   0.950E-01    0.915E-01
RMM:   2    -0.413195291511E+03   -0.29734E-02   -0.15628E-01  4270   0.136E-01    0.669E-01
RMM:   3    -0.413193140258E+03    0.21513E-02   -0.81690E-03  4357   0.543E-02    0.159E-01
RMM:   4    -0.413196662577E+03   -0.35223E-02   -0.43662E-03  5131   0.584E-02    0.250E-01
RMM:   5    -0.413193173753E+03    0.34888E-02   -0.17003E-03  4798   0.413E-02    0.306E-02
RMM:   6    -0.413193162024E+03    0.11728E-04   -0.33607E-04  5709   0.188E-02    0.221E-02
RMM:   7    -0.413193155311E+03    0.67135E-05   -0.13413E-04  5141   0.110E-02    0.101E-02
RMM:   8    -0.413193148616E+03    0.66944E-05   -0.11396E-05  3808   0.434E-03    0.467E-03
RMM:   9    -0.413193147385E+03    0.12312E-05   -0.16524E-06  2565   0.195E-03    0.265E-03
RMM:  10    -0.413193143961E+03    0.34241E-05   -0.86004E-07  2455   0.147E-03    0.129E-03
RMM:  11    -0.413193140772E+03    0.31890E-05   -0.47523E-07  2183   0.109E-03    0.589E-04
RMM:  12    -0.413193138451E+03    0.23213E-05   -0.24301E-07  1648   0.823E-04    0.258E-04
RMM:  13    -0.413193136915E+03    0.15354E-05   -0.12951E-07  1144   0.682E-04    0.149E-04
RMM:  14    -0.413193135066E+03    0.18498E-05   -0.98617E-08  1108   0.653E-04    0.108E-04
RMM:  15    -0.413193132277E+03    0.27884E-05   -0.97507E-08  1199   0.649E-04    0.596E-05
RMM:  16    -0.413193131535E+03    0.74171E-06   -0.45246E-08   883   0.568E-04
   34 T=    67. E= -.41286580E+03 F= -.41319313E+03 E0= -.41317178E+03  EK= 0.32733E+00 SP= 0.00E+00 SK= 0.00E+00
       N       E                     dE             d eps       ncg     rms          rms(c)
RMM:   1    -0.413190257215E+03    0.28751E-02   -0.11529E+01  4301   0.918E-01    0.940E-01
RMM:   2    -0.413198203196E+03   -0.79460E-02   -0.14803E-01  4270   0.132E-01    0.669E-01
RMM:   3    -0.413195921215E+03    0.22820E-02   -0.85531E-03  4353   0.489E-02    0.156E-01
RMM:   4    -0.413198184412E+03   -0.22632E-02   -0.31485E-03  5148   0.472E-02    0.203E-01
RMM:   5    -0.413195921837E+03    0.22626E-02   -0.11352E-03  4808   0.338E-02    0.317E-02
RMM:   6    -0.413195911184E+03    0.10653E-04   -0.27851E-04  5636   0.170E-02    0.234E-02
RMM:   7    -0.413195895216E+03    0.15968E-04   -0.13669E-04  5010   0.110E-02    0.108E-02
RMM:   8    -0.413195889954E+03    0.52619E-05   -0.93254E-06  3397   0.382E-03    0.459E-03
RMM:   9    -0.413195887764E+03    0.21903E-05   -0.15195E-06  2502   0.184E-03    0.253E-03
RMM:  10    -0.413195880229E+03    0.75349E-05   -0.86283E-07  2450   0.150E-03    0.121E-03
RMM:  11    -0.413195876789E+03    0.34407E-05   -0.33862E-07  2071   0.976E-04    0.726E-04
RMM:  12    -0.413195871709E+03    0.50798E-05   -0.23792E-07  1675   0.836E-04    0.227E-04
RMM:  13    -0.413195868071E+03    0.36374E-05   -0.12264E-07  1188   0.684E-04    0.133E-04
RMM:  14    -0.413195864189E+03    0.38827E-05   -0.91684E-08  1107   0.652E-04    0.110E-04
RMM:  15    -0.413195859294E+03    0.48952E-05   -0.88470E-08  1270   0.652E-04    0.647E-05
RMM:  16    -0.413195857060E+03    0.22334E-05   -0.47625E-08   965   0.571E-04    0.475E-05
RMM:  17    -0.413195855062E+03    0.19983E-05   -0.33240E-08   862   0.548E-04    0.250E-05
RMM:  18    -0.413195854467E+03    0.59487E-06   -0.20500E-08   715   0.519E-04
   35 T=    67. E= -.41286606E+03 F= -.41319585E+03 E0= -.41317455E+03  EK= 0.32980E+00 SP= 0.00E+00 SK= 0.00E+00
       N       E                     dE             d eps       ncg     rms          rms(c)
RMM:   1    -0.413204798505E+03   -0.89434E-02   -0.11651E+01  4297   0.101E+00    0.940E-01
RMM:   2    -0.413200089287E+03    0.47092E-02   -0.16227E-01  4253   0.134E-01    0.664E-01
RMM:   3    -0.413198178943E+03    0.19103E-02   -0.84698E-03  4693   0.523E-02    0.188E-01
RMM:   4    -0.413225873890E+03   -0.27695E-01   -0.27937E-02  5167   0.141E-01    0.694E-01
RMM:   5    -0.413197928069E+03    0.27946E-01   -0.14097E-02  4804   0.116E-01    0.427E-02
RMM:   6    -0.413197965568E+03   -0.37499E-04   -0.23002E-03  5851   0.451E-02    0.262E-02
RMM:   7    -0.413197972589E+03   -0.70213E-05   -0.27453E-04  5743   0.151E-02    0.147E-02
RMM:   8    -0.413197962151E+03    0.10438E-04   -0.52695E-05  4982   0.739E-03    0.897E-03
RMM:   9    -0.413197957705E+03    0.44463E-05   -0.15749E-05  4310   0.451E-03    0.631E-03
RMM:  10    -0.413197950860E+03    0.68446E-05   -0.20818E-06  2591   0.231E-03    0.374E-03
RMM:  11    -0.413197945945E+03    0.49153E-05   -0.12226E-06  2501   0.177E-03    0.223E-03
RMM:  12    -0.413197935456E+03    0.10488E-04   -0.12961E-06  2487   0.191E-03    0.971E-04
RMM:  13    -0.413197931715E+03    0.37416E-05   -0.45365E-07  2301   0.122E-03    0.606E-04
RMM:  14    -0.413197931389E+03    0.32606E-06   -0.19056E-07  1741   0.800E-04
   36 T=    68. E= -.41286588E+03 F= -.41319793E+03 E0= -.41317667E+03  EK= 0.33205E+00 SP= 0.00E+00 SK= 0.00E+00
       N       E                     dE             d eps       ncg     rms          rms(c)
RMM:   1    -0.413200249158E+03   -0.23174E-02   -0.11632E+01  4304   0.103E+00    0.923E-01
RMM:   2    -0.413203886753E+03   -0.36376E-02   -0.15670E-01  4250   0.138E-01    0.674E-01
RMM:   3    -0.413201207214E+03    0.26795E-02   -0.84326E-03  4609   0.526E-02    0.167E-01
RMM:   4    -0.413219872578E+03   -0.18665E-01   -0.18986E-02  5158   0.116E-01    0.573E-01
RMM:   5    -0.413201050242E+03    0.18822E-01   -0.95036E-03  4802   0.951E-02    0.387E-02
RMM:   6    -0.413201053871E+03   -0.36295E-05   -0.15543E-03  5834   0.376E-02    0.251E-02
RMM:   7    -0.413201062180E+03   -0.83091E-05   -0.24423E-04  5649   0.143E-02    0.146E-02
RMM:   8    -0.413201050943E+03    0.11237E-04   -0.45347E-05  4971   0.723E-03    0.721E-03
RMM:   9    -0.413201048068E+03    0.28757E-05   -0.88856E-06  3518   0.367E-03    0.459E-03
RMM:  10    -0.413201043872E+03    0.41957E-05   -0.14080E-06  2538   0.193E-03    0.285E-03
RMM:  11    -0.413201038850E+03    0.50220E-05   -0.96928E-07  2495   0.158E-03    0.134E-03
RMM:  12    -0.413201033379E+03    0.54708E-05   -0.70323E-07  2388   0.133E-03    0.560E-04
RMM:  13    -0.413201031463E+03    0.19162E-05   -0.27758E-07  1924   0.910E-04    0.354E-04
RMM:  14    -0.413201030456E+03    0.10074E-05   -0.13639E-07  1329   0.699E-04    0.237E-04
RMM:  15    -0.413201026323E+03    0.41325E-05   -0.11742E-07  1213   0.692E-04    0.115E-04
RMM:  16    -0.413201025465E+03    0.85834E-06   -0.60798E-08   966   0.616E-04
   37 T=    68. E= -.41286625E+03 F= -.41320103E+03 E0= -.41317981E+03  EK= 0.33477E+00 SP= 0.00E+00 SK= 0.00E+00
       N       E                     dE             d eps       ncg     rms          rms(c)
RMM:   1    -0.413199301042E+03    0.17253E-02   -0.11721E+01  4308   0.101E+00    0.944E-01
RMM:   2    -0.413206520830E+03   -0.72198E-02   -0.15553E-01  4250   0.128E-01    0.678E-01
RMM:   3    -0.413203894785E+03    0.26260E-02   -0.89809E-03  4826   0.533E-02    0.183E-01
RMM:   4    -0.413243365090E+03   -0.39470E-01   -0.40546E-02  5148   0.168E-01    0.825E-01
RMM:   5    -0.413203311830E+03    0.40053E-01   -0.20122E-02  4796   0.138E-01    0.478E-02
RMM:   6    -0.413203396057E+03   -0.84227E-04   -0.32533E-03  5840   0.533E-02    0.279E-02
RMM:   7    -0.413203409218E+03   -0.13161E-04   -0.35446E-04  5740   0.166E-02    0.154E-02
RMM:   8    -0.413203401627E+03    0.75910E-05   -0.47612E-05  4841   0.672E-03    0.861E-03
RMM:   9    -0.413203399683E+03    0.19440E-05   -0.19637E-05  4376   0.452E-03    0.696E-03
RMM:  10    -0.413203393428E+03    0.62552E-05   -0.34619E-06  2738   0.269E-03    0.394E-03
RMM:  11    -0.413203388661E+03    0.47666E-05   -0.19055E-06  2550   0.213E-03    0.224E-03
RMM:  12    -0.413203380404E+03    0.82570E-05   -0.14749E-06  2499   0.202E-03    0.935E-04
RMM:  13    -0.413203378208E+03    0.21963E-05   -0.46400E-07  2353   0.126E-03    0.619E-04
RMM:  14    -0.413203378030E+03    0.17768E-06   -0.19765E-07  1818   0.819E-04
   38 T=    69. E= -.41286608E+03 F= -.41320338E+03 E0= -.41318220E+03  EK= 0.33730E+00 SP= 0.00E+00 SK= 0.00E+00
       N       E                     dE             d eps       ncg     rms          rms(c)
RMM:   1    -0.413221692775E+03   -0.18315E-01   -0.11951E+01  4305   0.113E+00    0.957E-01
RMM:   2    -0.413208505546E+03    0.13187E-01   -0.17307E-01  4266   0.128E-01    0.674E-01
RMM:   3    -0.413206880282E+03    0.16253E-02   -0.91607E-03  5004   0.542E-02    0.229E-01
RMM:   4    -0.413259686414E+03   -0.52806E-01   -0.56960E-02  5136   0.198E-01    0.953E-01
RMM:   5    -0.413205798896E+03    0.53888E-01   -0.26808E-02  4790   0.161E-01    0.560E-02
RMM:   6    -0.413205931128E+03   -0.13223E-03   -0.42517E-03  5817   0.619E-02    0.309E-02
RMM:   7    -0.413205947872E+03   -0.16744E-04   -0.49131E-04  5867   0.193E-02    0.192E-02
RMM:   8    -0.413205946636E+03    0.12366E-05   -0.99483E-05  5249   0.950E-03    0.126E-02
RMM:   9    -0.413205932726E+03    0.13909E-04   -0.25106E-05  4616   0.560E-03    0.639E-03
RMM:  10    -0.413205925336E+03    0.73907E-05   -0.46645E-06  2819   0.291E-03    0.384E-03
RMM:  11    -0.413205919321E+03    0.60148E-05   -0.15707E-06  2504   0.206E-03    0.222E-03
RMM:  12    -0.413205909308E+03    0.10013E-04   -0.11302E-06  2487   0.183E-03    0.744E-04
RMM:  13    -0.413205904734E+03    0.45747E-05   -0.48996E-07  2350   0.124E-03    0.487E-04
RMM:  14    -0.413205903002E+03    0.17317E-05   -0.22751E-07  1898   0.858E-04    0.324E-04
RMM:  15    -0.413205897826E+03    0.51755E-05   -0.13690E-07  1451   0.728E-04    0.173E-04
RMM:  16    -0.413205895123E+03    0.27033E-05   -0.76904E-08  1085   0.636E-04    0.118E-04
RMM:  17    -0.413205892028E+03    0.30952E-05   -0.62264E-08  1107   0.623E-04    0.970E-05
RMM:  18    -0.413205889173E+03    0.28549E-05   -0.49374E-08  1102   0.614E-04    0.571E-05
RMM:  19    -0.413205886255E+03    0.29183E-05   -0.44657E-08  1165   0.604E-04    0.448E-05
RMM:  20    -0.413205885737E+03    0.51770E-06   -0.19973E-08   805   0.535E-04
   39 T=    69. E= -.41286600E+03 F= -.41320589E+03 E0= -.41318475E+03  EK= 0.33988E+00 SP= 0.00E+00 SK= 0.00E+00
       N       E                     dE             d eps       ncg     rms          rms(c)
RMM:   1    -0.413207031586E+03   -0.11453E-02   -0.11785E+01  4309   0.110E+00    0.935E-01
RMM:   2    -0.413211809008E+03   -0.47774E-02   -0.16029E-01  4262   0.129E-01    0.678E-01
RMM:   3    -0.413210169100E+03    0.16399E-02   -0.94624E-03  5024   0.581E-02    0.226E-01
RMM:   4    -0.413263326563E+03   -0.53157E-01   -0.59390E-02  5130   0.203E-01    0.958E-01
RMM:   5    -0.413208687615E+03    0.54639E-01   -0.26721E-02  4782   0.161E-01    0.558E-02
RMM:   6    -0.413208816622E+03   -0.12901E-03   -0.42744E-03  5810   0.618E-02    0.301E-02
RMM:   7    -0.413208835084E+03   -0.18463E-04   -0.49204E-04  5874   0.192E-02    0.193E-02
RMM:   8    -0.413208836048E+03   -0.96401E-06   -0.10071E-04  5249   0.952E-03    0.127E-02
RMM:   9    -0.413208824341E+03    0.11707E-04   -0.24480E-05  4603   0.558E-03    0.616E-03
RMM:  10    -0.413208819882E+03    0.44591E-05   -0.48246E-06  2837   0.289E-03    0.369E-03
RMM:  11    -0.413208816242E+03    0.36405E-05   -0.15745E-06  2505   0.205E-03    0.214E-03
RMM:  12    -0.413208810226E+03    0.60159E-05   -0.10635E-06  2485   0.175E-03    0.689E-04
RMM:  13    -0.413208807286E+03    0.29396E-05   -0.46960E-07  2330   0.121E-03    0.426E-04
RMM:  14    -0.413208805972E+03    0.13137E-05   -0.22213E-07  1847   0.844E-04    0.285E-04
RMM:  15    -0.413208802500E+03    0.34723E-05   -0.13800E-07  1392   0.720E-04    0.158E-04
RMM:  16    -0.413208800921E+03    0.15795E-05   -0.76694E-08  1067   0.634E-04    0.970E-05
RMM:  17    -0.413208798985E+03    0.19357E-05   -0.58911E-08  1035   0.618E-04    0.688E-05
RMM:  18    -0.413208796530E+03    0.24544E-05   -0.49118E-08  1033   0.613E-04    0.358E-05
RMM:  19    -0.413208794731E+03    0.17994E-05   -0.36132E-08   972   0.592E-04    0.299E-05
RMM:  20    -0.413208794040E+03    0.69101E-06   -0.20288E-08   803   0.563E-04
   40 T=    70. E= -.41286619E+03 F= -.41320879E+03 E0= -.41318769E+03  EK= 0.34260E+00 SP= 0.00E+00 SK= 0.00E+00
       N       E                     dE             d eps       ncg     rms          rms(c)
RMM:   1    -0.413232507456E+03   -0.23713E-01   -0.12154E+01  4305   0.128E+00    0.946E-01
RMM:   2    -0.413213916114E+03    0.18591E-01   -0.18190E-01  4271   0.142E-01    0.691E-01
RMM:   3    -0.413212693089E+03    0.12230E-02   -0.96865E-03  5043   0.623E-02    0.264E-01
RMM:   4    -0.413268954163E+03   -0.56261E-01   -0.65184E-02  5122   0.212E-01    0.989E-01
RMM:   5    -0.413210644231E+03    0.58310E-01   -0.28225E-02  4775   0.167E-01    0.593E-02
RMM:   6    -0.413210782963E+03   -0.13873E-03   -0.45230E-03  5804   0.637E-02    0.306E-02
RMM:   7    -0.413210803289E+03   -0.20325E-04   -0.53393E-04  5920   0.199E-02    0.208E-02
RMM:   8    -0.413210803178E+03    0.11036E-06   -0.11058E-04  5272   0.101E-02    0.129E-02
RMM:   9    -0.413210791122E+03    0.12057E-04   -0.23800E-05  4539   0.564E-03    0.556E-03
RMM:  10    -0.413210786946E+03    0.41753E-05   -0.53566E-06  2898   0.289E-03    0.341E-03
RMM:  11    -0.413210783452E+03    0.34942E-05   -0.14842E-06  2507   0.197E-03    0.192E-03
RMM:  12    -0.413210778208E+03    0.52438E-05   -0.87392E-07  2476   0.159E-03    0.652E-04
RMM:  13    -0.413210775375E+03    0.28337E-05   -0.41663E-07  2266   0.112E-03    0.333E-04
RMM:  14    -0.413210773580E+03    0.17948E-05   -0.21579E-07  1763   0.821E-04    0.228E-04
RMM:  15    -0.413210770365E+03    0.32149E-05   -0.13760E-07  1300   0.705E-04    0.115E-04
RMM:  16    -0.413210768902E+03    0.14630E-05   -0.82222E-08  1096   0.644E-04    0.702E-05
RMM:  17    -0.413210766998E+03    0.19037E-05   -0.66017E-08  1090   0.630E-04    0.580E-05
RMM:  18    -0.413210764923E+03    0.20747E-05   -0.49780E-08  1024   0.615E-04    0.291E-05
RMM:  19    -0.413210763355E+03    0.15686E-05   -0.35697E-08   949   0.596E-04    0.286E-05
RMM:  20    -0.413210762787E+03    0.56756E-06   -0.20696E-08   799   0.570E-04
   41 T=    70. E= -.41286584E+03 F= -.41321076E+03 E0= -.41318970E+03  EK= 0.34492E+00 SP= 0.00E+00 SK= 0.00E+00
       N       E                     dE             d eps       ncg     rms          rms(c)
RMM:   1    -0.413218258589E+03   -0.74952E-02   -0.12031E+01  4310   0.124E+00    0.970E-01
RMM:   2    -0.413216029373E+03    0.22292E-02   -0.16602E-01  4290   0.141E-01    0.683E-01
RMM:   3    -0.413216754726E+03   -0.72535E-03   -0.11694E-02  5070   0.727E-02    0.303E-01
RMM:   4    -0.413255899487E+03   -0.39145E-01   -0.53824E-02  5097   0.195E-01    0.853E-01
RMM:   5    -0.413213371915E+03    0.42528E-01   -0.19363E-02  4740   0.143E-01    0.569E-02
RMM:   6    -0.413213433759E+03   -0.61844E-04   -0.32747E-03  5757   0.543E-02    0.302E-02
RMM:   7    -0.413213440613E+03   -0.68540E-05   -0.41620E-04  5827   0.182E-02    0.204E-02
RMM:   8    -0.413213436524E+03    0.40884E-05   -0.10239E-04  5214   0.100E-02    0.117E-02
RMM:   9    -0.413213421939E+03    0.14586E-04   -0.19860E-05  4400   0.539E-03    0.464E-03
RMM:  10    -0.413213416260E+03    0.56783E-05   -0.41758E-06  2791   0.260E-03    0.293E-03
RMM:  11    -0.413213410117E+03    0.61429E-05   -0.12368E-06  2501   0.183E-03    0.156E-03
RMM:  12    -0.413213402317E+03    0.78002E-05   -0.66541E-07  2433   0.142E-03    0.559E-04
RMM:  13    -0.413213398146E+03    0.41715E-05   -0.32670E-07  2051   0.993E-04    0.278E-04
RMM:  14    -0.413213395097E+03    0.30484E-05   -0.17739E-07  1515   0.770E-04    0.169E-04
RMM:  15    -0.413213389220E+03    0.58772E-05   -0.13260E-07  1334   0.721E-04    0.121E-04
RMM:  16    -0.413213387052E+03    0.21681E-05   -0.84155E-08  1187   0.659E-04    0.782E-05
RMM:  17    -0.413213383456E+03    0.35956E-05   -0.73938E-08  1276   0.651E-04    0.651E-05
RMM:  18    -0.413213380723E+03    0.27336E-05   -0.52753E-08  1123   0.606E-04    0.348E-05
RMM:  19    -0.413213379315E+03    0.14078E-05   -0.33400E-08   931   0.558E-04    0.321E-05
RMM:  20    -0.413213379081E+03    0.23386E-06   -0.18664E-08   756   0.530E-04
   42 T=    71. E= -.41286600E+03 F= -.41321338E+03 E0= -.41319235E+03  EK= 0.34738E+00 SP= 0.00E+00 SK= 0.00E+00
       N       E                     dE             d eps       ncg     rms          rms(c)
RMM:   1    -0.413218303838E+03   -0.49245E-02   -0.11967E+01  4311   0.129E+00    0.947E-01
RMM:   2    -0.413218104059E+03    0.19978E-03   -0.16740E-01  4298   0.149E-01    0.683E-01
RMM:   3    -0.413219823582E+03   -0.17195E-02   -0.12292E-02  5087   0.787E-02    0.331E-01
RMM:   4    -0.413254838813E+03   -0.35015E-01   -0.52836E-02  5087   0.194E-01    0.821E-01
RMM:   5    -0.413215498186E+03    0.39341E-01   -0.17479E-02  4728   0.137E-01    0.561E-02
RMM:   6    -0.413215545785E+03   -0.47600E-04   -0.29572E-03  5758   0.518E-02    0.294E-02
RMM:   7    -0.413215550737E+03   -0.49511E-05   -0.38314E-04  5817   0.176E-02    0.202E-02
RMM:   8    -0.413215546841E+03    0.38959E-05   -0.96271E-05  5176   0.982E-03    0.110E-02
RMM:   9    -0.413215534487E+03    0.12353E-04   -0.18865E-05  4313   0.530E-03    0.421E-03
RMM:  10    -0.413215530440E+03    0.40472E-05   -0.37956E-06  2753   0.250E-03    0.263E-03
RMM:  11    -0.413215525551E+03    0.48890E-05   -0.12398E-06  2504   0.179E-03    0.139E-03
RMM:  12    -0.413215520109E+03    0.54422E-05   -0.63099E-07  2418   0.136E-03    0.529E-04
RMM:  13    -0.413215517085E+03    0.30244E-05   -0.31245E-07  1918   0.946E-04    0.248E-04
RMM:  14    -0.413215514541E+03    0.25442E-05   -0.18058E-07  1446   0.761E-04    0.144E-04
RMM:  15    -0.413215509975E+03    0.45654E-05   -0.14428E-07  1315   0.721E-04    0.108E-04
RMM:  16    -0.413215508499E+03    0.14760E-05   -0.85393E-08  1117   0.652E-04    0.716E-05
RMM:  17    -0.413215505259E+03    0.32402E-05   -0.79653E-08  1249   0.656E-04    0.610E-05
RMM:  18    -0.413215503004E+03    0.22549E-05   -0.56232E-08  1125   0.610E-04    0.416E-05
RMM:  19    -0.413215502350E+03    0.65362E-06   -0.29705E-08   842   0.553E-04
   43 T=    71. E= -.41286601E+03 F= -.41321550E+03 E0= -.41319450E+03  EK= 0.34949E+00 SP= 0.00E+00 SK= 0.00E+00
       N       E                     dE             d eps       ncg     rms          rms(c)
RMM:   1    -0.413247368804E+03   -0.31866E-01   -0.12358E+01  4311   0.148E+00    0.948E-01
RMM:   2    -0.413219755652E+03    0.27613E-01   -0.20377E-01  4305   0.173E-01    0.701E-01
RMM:   3    -0.413222253563E+03   -0.24979E-02   -0.12557E-02  5082   0.863E-02    0.385E-01
RMM:   4    -0.413256549764E+03   -0.34296E-01   -0.55668E-02  5079   0.200E-01    0.831E-01
RMM:   5    -0.413216829664E+03    0.39720E-01   -0.17787E-02  4712   0.140E-01    0.604E-02
RMM:   6    -0.413216851594E+03   -0.21930E-04   -0.29645E-03  5726   0.523E-02    0.300E-02
RMM:   7    -0.413216858115E+03   -0.65218E-05   -0.39274E-04  5877   0.178E-02    0.212E-02
RMM:   8    -0.413216853068E+03    0.50479E-05   -0.95635E-05  5205   0.982E-03    0.111E-02
RMM:   9    -0.413216841558E+03    0.11510E-04   -0.21979E-05  4415   0.566E-03    0.422E-03
RMM:  10    -0.413216838722E+03    0.28359E-05   -0.41258E-06  2771   0.253E-03    0.247E-03
RMM:  11    -0.413216834874E+03    0.38485E-05   -0.16524E-06  2539   0.195E-03    0.140E-03
RMM:  12    -0.413216831563E+03    0.33103E-05   -0.63439E-07  2459   0.140E-03    0.632E-04
RMM:  13    -0.413216829137E+03    0.24262E-05   -0.32566E-07  1772   0.938E-04    0.285E-04
RMM:  14    -0.413216826849E+03    0.22883E-05   -0.20654E-07  1458   0.788E-04    0.152E-04
RMM:  15    -0.413216824014E+03    0.28343E-05   -0.15732E-07  1360   0.731E-04    0.896E-05
RMM:  16    -0.413216822224E+03    0.17905E-05   -0.10406E-07  1238   0.667E-04    0.640E-05
RMM:  17    -0.413216820265E+03    0.19593E-05   -0.78373E-08  1167   0.632E-04    0.478E-05
RMM:  18    -0.413216818067E+03    0.21981E-05   -0.61051E-08  1074   0.600E-04    0.363E-05
RMM:  19    -0.413216817565E+03    0.50107E-06   -0.33187E-08   832   0.552E-04
   44 T=    71. E= -.41286576E+03 F= -.41321682E+03 E0= -.41319584E+03  EK= 0.35105E+00 SP= 0.00E+00 SK= 0.00E+00
       N       E                     dE             d eps       ncg     rms          rms(c)
RMM:   1    -0.413231450467E+03   -0.14632E-01   -0.12201E+01  4310   0.149E+00    0.977E-01
RMM:   2    -0.413220726041E+03    0.10724E-01   -0.17180E-01  4353   0.176E-01    0.692E-01
RMM:   3    -0.413229078902E+03   -0.83529E-02   -0.18518E-02  5124   0.110E-01    0.473E-01
RMM:   4    -0.413239526893E+03   -0.10448E-01   -0.41845E-02  5031   0.177E-01    0.612E-01
RMM:   5    -0.413218663303E+03    0.20864E-01   -0.79462E-03  4614   0.104E-01    0.523E-02
RMM:   6    -0.413218627232E+03    0.36071E-04   -0.15790E-03  5545   0.382E-02    0.281E-02
RMM:   7    -0.413218620944E+03    0.62887E-05   -0.23582E-04  5647   0.148E-02    0.195E-02
RMM:   8    -0.413218610266E+03    0.10678E-04   -0.91238E-05  5082   0.978E-03    0.929E-03
RMM:   9    -0.413218596090E+03    0.14175E-04   -0.15015E-05  4184   0.516E-03    0.376E-03
RMM:  10    -0.413218592101E+03    0.39890E-05   -0.24790E-06  2657   0.217E-03    0.216E-03
RMM:  11    -0.413218584959E+03    0.71418E-05   -0.11549E-06  2484   0.174E-03    0.121E-03
RMM:  12    -0.413218579145E+03    0.58140E-05   -0.51931E-07  2407   0.127E-03    0.584E-04
RMM:  13    -0.413218575457E+03    0.36880E-05   -0.24289E-07  1730   0.850E-04    0.279E-04
RMM:  14    -0.413218571840E+03    0.36174E-05   -0.13868E-07  1251   0.695E-04    0.146E-04
RMM:  15    -0.413218566702E+03    0.51380E-05   -0.11603E-07  1245   0.680E-04    0.114E-04
RMM:  16    -0.413218564240E+03    0.24617E-05   -0.72475E-08  1065   0.622E-04    0.981E-05
RMM:  17    -0.413218560664E+03    0.35760E-05   -0.62797E-08  1163   0.621E-04    0.577E-05
RMM:  18    -0.413218557390E+03    0.32737E-05   -0.50876E-08  1098   0.593E-04    0.440E-05
RMM:  19    -0.413218556835E+03    0.55549E-06   -0.24536E-08   777   0.528E-04
   45 T=    72. E= -.41286612E+03 F= -.41321856E+03 E0= -.41319761E+03  EK= 0.35244E+00 SP= 0.00E+00 SK= 0.00E+00
       N       E                     dE             d eps       ncg     rms          rms(c)
RMM:   1    -0.413244532147E+03   -0.25975E-01   -0.12229E+01  4310   0.163E+00    0.960E-01
RMM:   2    -0.413221022075E+03    0.23510E-01   -0.18260E-01  4396   0.187E-01    0.689E-01
RMM:   3    -0.413231800596E+03   -0.10779E-01   -0.20091E-02  5122   0.118E-01    0.522E-01
RMM:   4    -0.413236797100E+03   -0.49965E-02   -0.40799E-02  5013   0.176E-01    0.572E-01
RMM:   5    -0.413219053701E+03    0.17743E-01   -0.67578E-03  4579   0.992E-02    0.524E-02
RMM:   6    -0.413218999217E+03    0.54484E-04   -0.12997E-03  5401   0.354E-02    0.276E-02
RMM:   7    -0.413218991801E+03    0.74153E-05   -0.19919E-04  5621   0.138E-02    0.190E-02
RMM:   8    -0.413218981478E+03    0.10323E-04   -0.99522E-05  5099   0.101E-02    0.962E-03
RMM:   9    -0.413218966652E+03    0.14826E-04   -0.15996E-05  4276   0.540E-03    0.383E-03
RMM:  10    -0.413218963418E+03    0.32344E-05   -0.26071E-06  2669   0.217E-03    0.218E-03
RMM:  11    -0.413218956889E+03    0.65290E-05   -0.13261E-06  2505   0.182E-03    0.127E-03
RMM:  12    -0.413218952391E+03    0.44973E-05   -0.52613E-07  2419   0.130E-03    0.649E-04
RMM:  13    -0.413218948866E+03    0.35253E-05   -0.24559E-07  1732   0.866E-04    0.314E-04
RMM:  14    -0.413218945525E+03    0.33411E-05   -0.13588E-07  1284   0.695E-04    0.161E-04
RMM:  15    -0.413218941423E+03    0.41017E-05   -0.10296E-07  1168   0.662E-04    0.105E-04
RMM:  16    -0.413218939053E+03    0.23700E-05   -0.67752E-08  1066   0.617E-04    0.963E-05
RMM:  17    -0.413218936616E+03    0.24377E-05   -0.51302E-08  1043   0.597E-04    0.581E-05
RMM:  18    -0.413218933256E+03    0.33596E-05   -0.53263E-08  1151   0.602E-04    0.469E-05
RMM:  19    -0.413218932780E+03    0.47575E-06   -0.19815E-08   722   0.518E-04
   46 T=    72. E= -.41286598E+03 F= -.41321893E+03 E0= -.41319800E+03  EK= 0.35296E+00 SP= 0.00E+00 SK= 0.00E+00
       N       E                     dE             d eps       ncg     rms          rms(c)
RMM:   1    -0.413242502267E+03   -0.23569E-01   -0.12236E+01  4310   0.169E+00    0.949E-01
RMM:   2    -0.413221361676E+03    0.21141E-01   -0.19500E-01  4383   0.208E-01    0.702E-01
RMM:   3    -0.413232239847E+03   -0.10878E-01   -0.20333E-02  5124   0.123E-01    0.539E-01
RMM:   4    -0.413238471417E+03   -0.62316E-02   -0.43746E-02  5016   0.182E-01    0.600E-01
RMM:   5    -0.413218849401E+03    0.19622E-01   -0.76745E-03  4588   0.105E-01    0.551E-02
RMM:   6    -0.413218790177E+03    0.59224E-04   -0.14245E-03  5414   0.371E-02    0.284E-02
RMM:   7    -0.413218782583E+03    0.75945E-05   -0.21460E-04  5677   0.142E-02    0.203E-02
RMM:   8    -0.413218770245E+03    0.12338E-04   -0.99278E-05  5131   0.101E-02    0.980E-03
RMM:   9    -0.413218756507E+03    0.13738E-04   -0.18166E-05  4334   0.562E-03    0.391E-03
RMM:  10    -0.413218754138E+03    0.23689E-05   -0.28525E-06  2699   0.224E-03    0.223E-03
RMM:  11    -0.413218749755E+03    0.43827E-05   -0.14446E-06  2517   0.187E-03    0.134E-03
RMM:  12    -0.413218746618E+03    0.31374E-05   -0.55318E-07  2423   0.133E-03    0.675E-04
RMM:  13    -0.413218743895E+03    0.27230E-05   -0.27410E-07  1771   0.903E-04    0.312E-04
RMM:  14    -0.413218741446E+03    0.24487E-05   -0.16496E-07  1401   0.742E-04    0.168E-04
RMM:  15    -0.413218738575E+03    0.28714E-05   -0.12503E-07  1290   0.690E-04    0.108E-04
RMM:  16    -0.413218736901E+03    0.16737E-05   -0.76139E-08  1093   0.618E-04    0.932E-05
RMM:  17    -0.413218735058E+03    0.18428E-05   -0.58402E-08  1062   0.595E-04    0.502E-05
RMM:  18    -0.413218732827E+03    0.22318E-05   -0.53755E-08  1063   0.590E-04    0.432E-05
RMM:  19    -0.413218732570E+03    0.25631E-06   -0.21218E-08   722   0.525E-04
   47 T=    72. E= -.41286596E+03 F= -.41321873E+03 E0= -.41319782E+03  EK= 0.35277E+00 SP= 0.00E+00 SK= 0.00E+00
       N       E                     dE             d eps       ncg     rms          rms(c)
RMM:   1    -0.413264201971E+03   -0.45469E-01   -0.12418E+01  4305   0.187E+00    0.973E-01
RMM:   2    -0.413220206229E+03    0.43996E-01   -0.20463E-01  4450   0.213E-01    0.699E-01
RMM:   3    -0.413237338008E+03   -0.17132E-01   -0.25804E-02  5141   0.141E-01    0.635E-01
RMM:   4    -0.413230418816E+03    0.69192E-02   -0.39800E-02  4983   0.177E-01    0.497E-01
RMM:   5    -0.413218038927E+03    0.12380E-01   -0.53620E-03  4524   0.936E-02    0.564E-02
RMM:   6    -0.413217927706E+03    0.11122E-03   -0.72088E-04  4915   0.303E-02    0.282E-02
RMM:   7    -0.413217911575E+03    0.16131E-04   -0.15494E-04  5930   0.122E-02    0.131E-02
RMM:   8    -0.413217898613E+03    0.12962E-04   -0.43528E-05  5158   0.785E-03    0.744E-03
RMM:   9    -0.413217892468E+03    0.61453E-05   -0.69937E-06  3120   0.342E-03    0.308E-03
RMM:  10    -0.413217887695E+03    0.47723E-05   -0.33163E-06  2758   0.262E-03    0.185E-03
RMM:  11    -0.413217883110E+03    0.45852E-05   -0.11709E-06  2443   0.188E-03    0.136E-03
RMM:  12    -0.413217878807E+03    0.43034E-05   -0.44544E-07  2354   0.125E-03    0.754E-04
RMM:  13    -0.413217876492E+03    0.23154E-05   -0.20377E-07  1550   0.789E-04    0.476E-04
RMM:  14    -0.413217871289E+03    0.52022E-05   -0.23611E-07  2004   0.852E-04    0.536E-04
RMM:  15    -0.413217868581E+03    0.27082E-05   -0.94627E-08  1041   0.600E-04    0.249E-04
RMM:  16    -0.413217865418E+03    0.31627E-05   -0.74271E-08   997   0.595E-04    0.905E-05
RMM:  17    -0.413217862849E+03    0.25695E-05   -0.56117E-08   963   0.586E-04    0.101E-04
RMM:  18    -0.413217861589E+03    0.12599E-05   -0.32298E-08   822   0.553E-04    0.847E-05
RMM:  19    -0.413217860888E+03    0.70056E-06   -0.20616E-08   718   0.532E-04
   48 T=    72. E= -.41286625E+03 F= -.41321786E+03 E0= -.41319697E+03  EK= 0.35161E+00 SP= 0.00E+00 SK= 0.00E+00
       N       E                     dE             d eps       ncg     rms          rms(c)
RMM:   1    -0.413264776808E+03   -0.46915E-01   -0.12270E+01  4305   0.199E+00    0.966E-01
RMM:   2    -0.413217163357E+03    0.47613E-01   -0.20306E-01  4479   0.226E-01    0.689E-01
RMM:   3    -0.413239894110E+03   -0.22731E-01   -0.30843E-02  5153   0.156E-01    0.709E-01
RMM:   4    -0.413223708699E+03    0.16185E-01   -0.38557E-02  4961   0.177E-01    0.433E-01
RMM:   5    -0.413214965557E+03    0.87431E-02   -0.48366E-03  4574   0.909E-02    0.624E-02
RMM:   6    -0.413214788905E+03    0.17665E-03   -0.48912E-04  4715   0.293E-02    0.310E-02
RMM:   7    -0.413214788566E+03    0.33839E-06   -0.23528E-04  5819   0.158E-02    0.216E-02
RMM:   8    -0.413214759228E+03    0.29338E-04   -0.87532E-05  5071   0.104E-02    0.924E-03
RMM:   9    -0.413214748651E+03    0.10577E-04   -0.15353E-05  4218   0.516E-03    0.470E-03
RMM:  10    -0.413214743711E+03    0.49400E-05   -0.23405E-06  2605   0.237E-03    0.248E-03
RMM:  11    -0.413214737310E+03    0.64006E-05   -0.13400E-06  2495   0.187E-03    0.172E-03
RMM:  12    -0.413214733429E+03    0.38813E-05   -0.43988E-07  2389   0.123E-03    0.868E-04
RMM:  13    -0.413214728160E+03    0.52696E-05   -0.28676E-07  1857   0.903E-04    0.423E-04
RMM:  14    -0.413214723009E+03    0.51505E-05   -0.22743E-07  1791   0.805E-04    0.422E-04
RMM:  15    -0.413214718818E+03    0.41915E-05   -0.13218E-07  1171   0.644E-04    0.168E-04
RMM:  16    -0.413214716505E+03    0.23126E-05   -0.82921E-08  1105   0.603E-04    0.103E-04
RMM:  17    -0.413214714383E+03    0.21220E-05   -0.59840E-08  1050   0.582E-04    0.648E-05
RMM:  18    -0.413214712595E+03    0.17881E-05   -0.47563E-08  1008   0.571E-04    0.676E-05
RMM:  19    -0.413214711613E+03    0.98161E-06   -0.30610E-08   879   0.539E-04
   49 T=    71. E= -.41286589E+03 F= -.41321471E+03 E0= -.41319383E+03  EK= 0.34882E+00 SP= 0.00E+00 SK= 0.00E+00
       N       E                     dE             d eps       ncg     rms          rms(c)
RMM:   1    -0.413240161241E+03   -0.25449E-01   -0.11919E+01  4305   0.201E+00    0.938E-01
RMM:   2    -0.413213827382E+03    0.26334E-01   -0.20158E-01  4482   0.234E-01    0.695E-01
RMM:   3    -0.413235829029E+03   -0.22002E-01   -0.30221E-02  5163   0.158E-01    0.710E-01
RMM:   4    -0.413220645322E+03    0.15184E-01   -0.39876E-02  4960   0.181E-01    0.447E-01
RMM:   5    -0.413211126551E+03    0.95188E-02   -0.53166E-03  4599   0.950E-02    0.651E-02
RMM:   6    -0.413210926311E+03    0.20024E-03   -0.54349E-04  4725   0.310E-02    0.314E-02
RMM:   7    -0.413210926044E+03    0.26734E-06   -0.24854E-04  5840   0.162E-02    0.217E-02
RMM:   8    -0.413210898672E+03    0.27372E-04   -0.87413E-05  5122   0.103E-02    0.998E-03
RMM:   9    -0.413210889312E+03    0.93594E-05   -0.17746E-05  4426   0.551E-03    0.494E-03
RMM:  10    -0.413210885141E+03    0.41719E-05   -0.28500E-06  2639   0.258E-03    0.261E-03
RMM:  11    -0.413210880726E+03    0.44149E-05   -0.15270E-06  2510   0.200E-03    0.187E-03
RMM:  12    -0.413210877865E+03    0.28609E-05   -0.50918E-07  2429   0.133E-03    0.966E-04
RMM:  13    -0.413210874173E+03    0.36922E-05   -0.32919E-07  2025   0.956E-04    0.471E-04
RMM:  14    -0.413210870465E+03    0.37072E-05   -0.25309E-07  1720   0.818E-04    0.374E-04
RMM:  15    -0.413210867520E+03    0.29454E-05   -0.17187E-07  1300   0.692E-04    0.154E-04
RMM:  16    -0.413210866195E+03    0.13253E-05   -0.96537E-08  1145   0.616E-04    0.103E-04
RMM:  17    -0.413210864638E+03    0.15571E-05   -0.89088E-08  1197   0.616E-04    0.751E-05
RMM:  18    -0.413210864073E+03    0.56443E-06   -0.47194E-08   947   0.554E-04
   50 T=    70. E= -.41286618E+03 F= -.41321086E+03 E0= -.41318999E+03  EK= 0.34468E+00 SP= 0.00E+00 SK= 0.00E+00
       N       E                     dE             d eps       ncg     rms          rms(c)
[...]
RMM:  19    -0.413307829850E+03   -0.26920E-05   -0.31803E-07  1699   0.786E-04    0.106E-04
RMM:  20    -0.413307831201E+03   -0.13511E-05   -0.15430E-07  1213   0.635E-04    0.798E-05
RMM:  21    -0.413307832155E+03   -0.95324E-06   -0.99716E-08  1086   0.592E-04
  139 T=    89. E= -.41287148E+03 F= -.41330783E+03 E0= -.41328561E+03  EK= 0.43635E+00 SP= 0.00E+00 SK= 0.00E+00
       N       E                     dE             d eps       ncg     rms          rms(c)
RMM:   1    -0.413250750138E+03    0.57081E-01   -0.79227E+00  4264   0.506E+00    0.872E-01
RMM:   2    -0.413246455201E+03    0.42949E-02   -0.27264E-01  5454   0.532E-01    0.730E-01
RMM:   3    -0.413277634682E+03   -0.31179E-01   -0.63854E-02  5468   0.271E-01    0.892E-01
RMM:   4    -0.413253754815E+03    0.23880E-01   -0.43652E-02  5226   0.225E-01    0.482E-01
RMM:   5    -0.413245833158E+03    0.79217E-02   -0.22488E-02  4860   0.194E-01    0.141E-01
RMM:   6    -0.413245142744E+03    0.69041E-03   -0.49911E-03  5259   0.890E-02    0.797E-02
RMM:   7    -0.413244829402E+03    0.31334E-03   -0.86534E-04  4763   0.405E-02    0.380E-02
RMM:   8    -0.413244813774E+03    0.15628E-04   -0.28909E-04  5402   0.218E-02    0.233E-02
RMM:   9    -0.413244819819E+03   -0.60450E-05   -0.10916E-04  5600   0.127E-02    0.170E-02
RMM:  10    -0.413244815643E+03    0.41756E-05   -0.28377E-05  5010   0.670E-03    0.757E-03
RMM:  11    -0.413244818879E+03   -0.32358E-05   -0.17978E-05  4589   0.474E-03    0.420E-03
RMM:  12    -0.413244821812E+03   -0.29326E-05   -0.20090E-06  2644   0.245E-03    0.220E-03
RMM:  13    -0.413244824272E+03   -0.24608E-05   -0.10890E-06  2505   0.170E-03    0.118E-03
RMM:  14    -0.413244827536E+03   -0.32636E-05   -0.71259E-07  2378   0.134E-03    0.538E-04
RMM:  15    -0.413244830083E+03   -0.25471E-05   -0.41053E-07  1898   0.971E-04    0.286E-04
RMM:  16    -0.413244833018E+03   -0.29351E-05   -0.40557E-07  1987   0.925E-04    0.220E-04
RMM:  17    -0.413244835383E+03   -0.23643E-05   -0.28278E-07  1600   0.785E-04    0.175E-04
RMM:  18    -0.413244837551E+03   -0.21680E-05   -0.22824E-07  1440   0.713E-04    0.108E-04
RMM:  19    -0.413244839689E+03   -0.21387E-05   -0.20441E-07  1410   0.698E-04    0.835E-05
RMM:  20    -0.413244840403E+03   -0.71400E-06   -0.86830E-08  1013   0.586E-04
  140 T=    80. E= -.41284989E+03 F= -.41324484E+03 E0= -.41322237E+03  EK= 0.39495E+00 SP= 0.00E+00 SK= 0.00E+00
       N       E                     dE             d eps       ncg     rms          rms(c)
RMM:   1    -0.413534385011E+03   -0.28955E+00   -0.10715E+01  4285   0.594E+00    0.122E+00
RMM:   2    -0.413526095854E+03    0.82892E-02   -0.35506E-01  5408   0.644E-01    0.109E+00
RMM:   3    -0.413541624396E+03   -0.15529E-01   -0.10438E-01  5415   0.345E-01    0.116E+00
RMM:   4    -0.413508366728E+03    0.33258E-01   -0.80471E-02  5255   0.331E-01    0.490E-01
RMM:   5    -0.413502228547E+03    0.61382E-02   -0.38452E-02  4983   0.247E-01    0.202E-01
RMM:   6    -0.413500370450E+03    0.18581E-02   -0.10877E-02  5215   0.131E-01    0.102E-01
RMM:   7    -0.413500059255E+03    0.31119E-03   -0.12476E-03  4972   0.497E-02    0.465E-02
RMM:   8    -0.413500020331E+03    0.38924E-04   -0.28059E-04  4955   0.217E-02    0.239E-02
RMM:   9    -0.413500032498E+03   -0.12167E-04   -0.19086E-04  5627   0.161E-02    0.196E-02
RMM:  10    -0.413500027654E+03    0.48438E-05   -0.46577E-05  5246   0.877E-03    0.805E-03
RMM:  11    -0.413500030952E+03   -0.32977E-05   -0.23909E-05  4978   0.534E-03    0.548E-03
RMM:  12    -0.413500035116E+03   -0.41639E-05   -0.53130E-06  3182   0.344E-03    0.296E-03
RMM:  13    -0.413500037649E+03   -0.25335E-05   -0.13849E-06  2534   0.202E-03    0.137E-03
RMM:  14    -0.413500040088E+03   -0.24393E-05   -0.76937E-07  2393   0.141E-03    0.554E-04
RMM:  15    -0.413500042358E+03   -0.22701E-05   -0.53064E-07  2069   0.111E-03    0.277E-04
RMM:  16    -0.413500044564E+03   -0.22053E-05   -0.43695E-07  1995   0.980E-04    0.211E-04
RMM:  17    -0.413500045889E+03   -0.13251E-05   -0.25095E-07  1637   0.796E-04    0.203E-04
RMM:  18    -0.413500047372E+03   -0.14830E-05   -0.20094E-07  1378   0.722E-04    0.134E-04
RMM:  19    -0.413500048519E+03   -0.11470E-05   -0.15437E-07  1329   0.677E-04    0.518E-05
RMM:  20    -0.413500049159E+03   -0.64049E-06   -0.85446E-08  1073   0.593E-04
  141 T=   127. E= -.41287684E+03 F= -.41350005E+03 E0= -.41347728E+03  EK= 0.62321E+00 SP= 0.00E+00 SK= 0.00E+00
       N       E                     dE             d eps       ncg     rms          rms(c)
RMM:   1    -0.413893586802E+03   -0.39354E+00   -0.18664E+01  4295   0.774E+00    0.170E+00
RMM:   2    -0.413815512105E+03    0.78075E-01   -0.60069E-01  5403   0.923E-01    0.168E+00
RMM:   3    -0.413802313006E+03    0.13199E-01   -0.17871E-01  5421   0.467E-01    0.156E+00
RMM:   4    -0.413758460650E+03    0.43852E-01   -0.12852E-01  5312   0.419E-01    0.734E-01
RMM:   5    -0.413753140283E+03    0.53204E-02   -0.75083E-02  4991   0.345E-01    0.341E-01
RMM:   6    -0.413747286644E+03    0.58536E-02   -0.26291E-02  5027   0.203E-01    0.148E-01
RMM:   7    -0.413746427090E+03    0.85955E-03   -0.25522E-03  4790   0.771E-02    0.644E-02
RMM:   8    -0.413746349056E+03    0.78034E-04   -0.47291E-04  4713   0.304E-02    0.363E-02
RMM:   9    -0.413746370135E+03   -0.21079E-04   -0.36539E-04  5487   0.231E-02    0.263E-02
RMM:  10    -0.413746358912E+03    0.11223E-04   -0.94776E-05  5394   0.124E-02    0.110E-02
RMM:  11    -0.413746363057E+03   -0.41441E-05   -0.46777E-05  5611   0.739E-03    0.761E-03
RMM:  12    -0.413746367370E+03   -0.43131E-05   -0.11481E-05  4107   0.457E-03    0.428E-03
RMM:  13    -0.413746370943E+03   -0.35735E-05   -0.31690E-06  2773   0.272E-03    0.221E-03
RMM:  14    -0.413746373180E+03   -0.22370E-05   -0.12434E-06  2529   0.185E-03    0.833E-04
RMM:  15    -0.413746374937E+03   -0.17573E-05   -0.73231E-07  2274   0.138E-03    0.484E-04
RMM:  16    -0.413746376845E+03   -0.19076E-05   -0.60970E-07  2262   0.115E-03    0.325E-04
RMM:  17    -0.413746377618E+03   -0.77315E-06   -0.31105E-07  1718   0.856E-04
  142 T=   176. E= -.41288366E+03 F= -.41374638E+03 E0= -.41372361E+03  EK= 0.86271E+00 SP= 0.00E+00 SK= 0.00E+00
       N       E                     dE             d eps       ncg     rms          rms(c)
RMM:   1    -0.414009279301E+03   -0.26290E+00   -0.22234E+01  4298   0.854E+00    0.127E+00
RMM:   2    -0.413891238917E+03    0.11804E+00   -0.65147E-01  5429   0.985E-01    0.145E+00
RMM:   3    -0.413858481066E+03    0.32758E-01   -0.14054E-01  5584   0.421E-01    0.122E+00
RMM:   4    -0.413832438662E+03    0.26042E-01   -0.56200E-02  5357   0.288E-01    0.687E-01
RMM:   5    -0.413833880147E+03   -0.14415E-02   -0.50838E-02  4901   0.287E-01    0.368E-01
RMM:   6    -0.413829000885E+03    0.48793E-02   -0.29066E-02  4950   0.206E-01    0.164E-01
RMM:   7    -0.413827746108E+03    0.12548E-02   -0.31894E-03  4805   0.855E-02    0.781E-02
RMM:   8    -0.413827676836E+03    0.69271E-04   -0.72376E-04  5423   0.348E-02    0.517E-02
RMM:   9    -0.413827653839E+03    0.22997E-04   -0.38319E-04  4479   0.258E-02    0.176E-02
RMM:  10    -0.413827658185E+03   -0.43463E-05   -0.97384E-05  5652   0.113E-02    0.106E-02
RMM:  11    -0.413827661917E+03   -0.37319E-05   -0.25353E-05  4858   0.604E-03    0.657E-03
RMM:  12    -0.413827668240E+03   -0.63231E-05   -0.80478E-06  3532   0.409E-03    0.410E-03
RMM:  13    -0.413827671606E+03   -0.33661E-05   -0.27165E-06  2758   0.242E-03    0.180E-03
RMM:  14    -0.413827674301E+03   -0.26943E-05   -0.13640E-06  2542   0.178E-03    0.966E-04
RMM:  15    -0.413827676199E+03   -0.18981E-05   -0.79529E-07  2391   0.135E-03    0.577E-04
RMM:  16    -0.413827677289E+03   -0.10904E-05   -0.46502E-07  1893   0.976E-04    0.277E-04
RMM:  17    -0.413827678058E+03   -0.76899E-06   -0.37930E-07  1789   0.901E-04
  143 T=   194. E= -.41287502E+03 F= -.41382768E+03 E0= -.41380528E+03  EK= 0.95266E+00 SP= 0.00E+00 SK= 0.00E+00
       N       E                     dE             d eps       ncg     rms          rms(c)
RMM:   1    -0.413989008612E+03   -0.16133E+00   -0.22589E+01  4295   0.870E+00    0.108E+00
RMM:   2    -0.413872531996E+03    0.11648E+00   -0.62608E-01  5436   0.971E-01    0.122E+00
RMM:   3    -0.413861519116E+03    0.11013E-01   -0.12337E-01  5724   0.384E-01    0.110E+00
RMM:   4    -0.413835960759E+03    0.25558E-01   -0.37673E-02  5319   0.238E-01    0.646E-01
RMM:   5    -0.413835277044E+03    0.68371E-03   -0.38436E-02  4668   0.256E-01    0.319E-01
RMM:   6    -0.413832969696E+03    0.23073E-02   -0.25860E-02  4969   0.193E-01    0.162E-01
RMM:   7    -0.413831499821E+03    0.14699E-02   -0.37238E-03  5020   0.867E-02    0.867E-02
RMM:   8    -0.413831389096E+03    0.11072E-03   -0.83773E-04  5436   0.364E-02    0.566E-02
RMM:   9    -0.413831352038E+03    0.37059E-04   -0.58294E-04  4460   0.313E-02    0.184E-02
RMM:  10    -0.413831360294E+03   -0.82560E-05   -0.11406E-04  5680   0.122E-02    0.131E-02
RMM:  11    -0.413831361612E+03   -0.13188E-05   -0.27437E-05  4615   0.668E-03    0.633E-03
RMM:  12    -0.413831367276E+03   -0.56633E-05   -0.80188E-06  3420   0.394E-03    0.386E-03
RMM:  13    -0.413831371296E+03   -0.40205E-05   -0.26991E-06  2774   0.250E-03    0.167E-03
RMM:  14    -0.413831373881E+03   -0.25843E-05   -0.11494E-06  2524   0.170E-03    0.882E-04
RMM:  15    -0.413831375464E+03   -0.15836E-05   -0.66778E-07  2246   0.123E-03    0.512E-04
RMM:  16    -0.413831376679E+03   -0.12149E-05   -0.50180E-07  2012   0.102E-03    0.237E-04
RMM:  17    -0.413831377546E+03   -0.86642E-06   -0.37104E-07  1761   0.879E-04
  144 T=   195. E= -.41287129E+03 F= -.41383138E+03 E0= -.41380910E+03  EK= 0.96009E+00 SP= 0.00E+00 SK= 0.00E+00
       N       E                     dE             d eps       ncg     rms          rms(c)
RMM:   1    -0.413948781305E+03   -0.11740E+00   -0.22407E+01  4287   0.873E+00    0.108E+00
RMM:   2    -0.413828349358E+03    0.12043E+00   -0.61037E-01  5429   0.970E-01    0.110E+00
RMM:   3    -0.413849828515E+03   -0.21479E-01   -0.11780E-01  5819   0.365E-01    0.116E+00
RMM:   4    -0.413815878414E+03    0.33950E-01   -0.37490E-02  5246   0.226E-01    0.685E-01
RMM:   5    -0.413812176172E+03    0.37022E-02   -0.38582E-02  4379   0.265E-01    0.249E-01
RMM:   6    -0.413811479890E+03    0.69628E-03   -0.17619E-02  5256   0.160E-01    0.156E-01
RMM:   7    -0.413810239367E+03    0.12405E-02   -0.33968E-03  5171   0.763E-02    0.963E-02
RMM:   8    -0.413810029909E+03    0.20946E-03   -0.86597E-04  4896   0.383E-02    0.541E-02
RMM:   9    -0.413810015476E+03    0.14433E-04   -0.74544E-04  4612   0.341E-02    0.219E-02
RMM:  10    -0.413810020992E+03   -0.55160E-05   -0.11466E-04  5655   0.127E-02    0.145E-02
RMM:  11    -0.413810021202E+03   -0.21037E-06   -0.31135E-05  4637   0.720E-03    0.653E-03
RMM:  12    -0.413810026768E+03   -0.55660E-05   -0.82191E-06  3460   0.396E-03    0.341E-03
RMM:  13    -0.413810031045E+03   -0.42764E-05   -0.22589E-06  2701   0.236E-03    0.198E-03
RMM:  14    -0.413810033862E+03   -0.28169E-05   -0.11617E-06  2511   0.170E-03    0.897E-04
RMM:  15    -0.413810035979E+03   -0.21176E-05   -0.68222E-07  2244   0.126E-03    0.525E-04
RMM:  16    -0.413810037725E+03   -0.17462E-05   -0.48312E-07  2115   0.104E-03    0.253E-04
RMM:  17    -0.413810038967E+03   -0.12420E-05   -0.30413E-07  1634   0.838E-04    0.155E-04
RMM:  18    -0.413810040362E+03   -0.13947E-05   -0.28872E-07  1649   0.812E-04    0.112E-04
RMM:  19    -0.413810040982E+03   -0.62004E-06   -0.16552E-07  1299   0.683E-04
  145 T=   190. E= -.41287467E+03 F= -.41381004E+03 E0= -.41378763E+03  EK= 0.93537E+00 SP= 0.00E+00 SK= 0.00E+00
       N       E                     dE             d eps       ncg     rms          rms(c)
RMM:   1    -0.413844416361E+03   -0.34376E-01   -0.21673E+01  4267   0.868E+00    0.126E+00
RMM:   2    -0.413729635205E+03    0.11478E+00   -0.61831E-01  5411   0.982E-01    0.119E+00
RMM:   3    -0.413726980156E+03    0.26550E-02   -0.84048E-02  5496   0.331E-01    0.838E-01
RMM:   4    -0.413727070138E+03   -0.89982E-04   -0.55318E-02  4342   0.324E-01    0.323E-01
RMM:   5    -0.413764162810E+03   -0.37093E-01   -0.52131E-02  5375   0.222E-01    0.822E-01
RMM:   6    -0.413722026312E+03    0.42136E-01   -0.20763E-02  4983   0.162E-01    0.127E-01
RMM:   7    -0.413722014779E+03    0.11532E-04   -0.52178E-03  5929   0.771E-02    0.889E-02
RMM:   8    -0.413721856831E+03    0.15795E-03   -0.14572E-03  5306   0.431E-02    0.481E-02
RMM:   9    -0.413721846851E+03    0.99800E-05   -0.55065E-04  5421   0.284E-02    0.209E-02
RMM:  10    -0.413721849849E+03   -0.29977E-05   -0.11492E-04  5681   0.127E-02    0.142E-02
RMM:  11    -0.413721851173E+03   -0.13248E-05   -0.27180E-05  4776   0.650E-03    0.813E-03
RMM:  12    -0.413721854185E+03   -0.30116E-05   -0.72914E-06  3332   0.357E-03    0.464E-03
RMM:  13    -0.413721858554E+03   -0.43686E-05   -0.26253E-06  2728   0.263E-03    0.211E-03
RMM:  14    -0.413721861951E+03   -0.33970E-05   -0.18631E-06  2606   0.215E-03    0.103E-03
RMM:  15    -0.413721864483E+03   -0.25327E-05   -0.77905E-07  2458   0.147E-03    0.611E-04
RMM:  16    -0.413721866010E+03   -0.15270E-05   -0.40090E-07  2088   0.102E-03    0.373E-04
RMM:  17    -0.413721867910E+03   -0.18998E-05   -0.30082E-07  1682   0.862E-04    0.172E-04
RMM:  18    -0.413721869777E+03   -0.18668E-05   -0.26594E-07  1593   0.803E-04    0.119E-04
RMM:  19    -0.413721870541E+03   -0.76410E-06   -0.14953E-07  1301   0.685E-04
  146 T=   171. E= -.41288173E+03 F= -.41372187E+03 E0= -.41369946E+03  EK= 0.84014E+00 SP= 0.00E+00 SK= 0.00E+00
       N       E                     dE             d eps       ncg     rms          rms(c)
RMM:   1    -0.413573691514E+03    0.14818E+00   -0.17980E+01  4265   0.803E+00    0.151E+00
RMM:   2    -0.413508015597E+03    0.65676E-01   -0.52617E-01  5397   0.901E-01    0.138E+00
RMM:   3    -0.413563454621E+03   -0.55439E-01   -0.14410E-01  5725   0.390E-01    0.148E+00
RMM:   4    -0.413504998893E+03    0.58456E-01   -0.75551E-02  5113   0.315E-01    0.741E-01
RMM:   5    -0.413499989609E+03    0.50093E-02   -0.51405E-02  4447   0.310E-01    0.290E-01
RMM:   6    -0.413497250847E+03    0.27388E-02   -0.55367E-03  4673   0.112E-01    0.122E-01
RMM:   7    -0.413496934138E+03    0.31671E-03   -0.15833E-03  5247   0.508E-02    0.854E-02
RMM:   8    -0.413496755788E+03    0.17835E-03   -0.10242E-03  4715   0.409E-02    0.416E-02
RMM:   9    -0.413496743116E+03    0.12672E-04   -0.39529E-04  5109   0.255E-02    0.226E-02
RMM:  10    -0.413496736634E+03    0.64821E-05   -0.87945E-05  5658   0.114E-02    0.124E-02
RMM:  11    -0.413496736376E+03    0.25772E-06   -0.26606E-05  4882   0.604E-03    0.753E-03
RMM:  12    -0.413496738883E+03   -0.25074E-05   -0.59461E-06  3188   0.364E-03    0.379E-03
RMM:  13    -0.413496741857E+03   -0.29736E-05   -0.20908E-06  2636   0.238E-03    0.241E-03
RMM:  14    -0.413496744295E+03   -0.24382E-05   -0.11604E-06  2513   0.181E-03    0.860E-04
RMM:  15    -0.413496745870E+03   -0.15748E-05   -0.57611E-07  2314   0.123E-03    0.472E-04
RMM:  16    -0.413496747731E+03   -0.18613E-05   -0.39975E-07  1974   0.987E-04    0.272E-04
RMM:  17    -0.413496749474E+03   -0.17427E-05   -0.30145E-07  1667   0.845E-04    0.162E-04
RMM:  18    -0.413496750920E+03   -0.14458E-05   -0.23364E-07  1460   0.764E-04    0.102E-04
RMM:  19    -0.413496752045E+03   -0.11250E-05   -0.17831E-07  1377   0.704E-04    0.665E-05
RMM:  20    -0.413496753077E+03   -0.10319E-05   -0.14189E-07  1300   0.658E-04    0.477E-05
RMM:  21    -0.413496753905E+03   -0.82879E-06   -0.10148E-07  1154   0.615E-04
  147 T=   127. E= -.41287491E+03 F= -.41349675E+03 E0= -.41347454E+03  EK= 0.62184E+00 SP= 0.00E+00 SK= 0.00E+00
       N       E                     dE             d eps       ncg     rms          rms(c)
RMM:   1    -0.413296631296E+03    0.20012E+00   -0.10958E+01  4264   0.642E+00    0.102E+00
RMM:   2    -0.413277300825E+03    0.19330E-01   -0.26881E-01  5363   0.638E-01    0.931E-01
RMM:   3    -0.413298577739E+03   -0.21277E-01   -0.69665E-02  5766   0.266E-01    0.101E+00
RMM:   4    -0.413272426248E+03    0.26151E-01   -0.31101E-02  4930   0.220E-01    0.402E-01
RMM:   5    -0.413272651378E+03   -0.22513E-03   -0.23843E-02  4682   0.203E-01    0.201E-01
RMM:   6    -0.413271099681E+03    0.15517E-02   -0.37123E-03  4867   0.833E-02    0.104E-01
RMM:   7    -0.413270843629E+03    0.25605E-03   -0.74120E-04  5064   0.367E-02    0.688E-02
RMM:   8    -0.413270747757E+03    0.95872E-04   -0.62685E-04  4497   0.326E-02    0.238E-02
RMM:   9    -0.413270755332E+03   -0.75746E-05   -0.21266E-04  5779   0.168E-02    0.145E-02
RMM:  10    -0.413270751019E+03    0.43130E-05   -0.36522E-05  5089   0.712E-03    0.783E-03
RMM:  11    -0.413270751081E+03   -0.61536E-07   -0.94285E-06  3523   0.373E-03
  148 T=    85. E= -.41285435E+03 F= -.41327075E+03 E0= -.41324869E+03  EK= 0.41640E+00 SP= 0.00E+00 SK= 0.00E+00
       N       E                     dE             d eps       ncg     rms          rms(c)
RMM:   1    -0.413320188263E+03   -0.49437E-01   -0.80529E+00  4269   0.557E+00    0.792E-01
RMM:   2    -0.413309489393E+03    0.10699E-01   -0.18151E-01  5368   0.520E-01    0.664E-01
RMM:   3    -0.413337108837E+03   -0.27619E-01   -0.54020E-02  5667   0.237E-01    0.867E-01
RMM:   4    -0.413309336867E+03    0.27772E-01   -0.31177E-02  5122   0.201E-01    0.335E-01
RMM:   5    -0.413307449547E+03    0.18873E-02   -0.13705E-02  4735   0.162E-01    0.122E-01
RMM:   6    -0.413307111762E+03    0.33779E-03   -0.17584E-03  5274   0.565E-02    0.703E-02
RMM:   7    -0.413307072135E+03    0.39627E-04   -0.54068E-04  5271   0.271E-02    0.461E-02
RMM:   8    -0.413307038352E+03    0.33783E-04   -0.37477E-04  4967   0.243E-02    0.248E-02
RMM:   9    -0.413307035683E+03    0.26695E-05   -0.11552E-04  5238   0.136E-02    0.145E-02
RMM:  10    -0.413307034602E+03    0.10814E-05   -0.31593E-05  5229   0.682E-03    0.669E-03
RMM:  11    -0.413307037328E+03   -0.27269E-05   -0.12230E-05  4165   0.432E-03    0.412E-03
RMM:  12    -0.413307038904E+03   -0.15752E-05   -0.24080E-06  2689   0.262E-03    0.205E-03
RMM:  13    -0.413307039867E+03   -0.96357E-06   -0.90412E-07  2483   0.162E-03
  149 T=    90. E= -.41286626E+03 F= -.41330704E+03 E0= -.41328497E+03  EK= 0.44078E+00 SP= 0.00E+00 SK= 0.00E+00
       N       E                     dE             d eps       ncg     rms          rms(c)
RMM:   1    -0.413509404056E+03   -0.20237E+00   -0.11726E+01  4293   0.657E+00    0.150E+00
RMM:   2    -0.413494622454E+03    0.14782E-01   -0.36718E-01  5410   0.751E-01    0.138E+00
RMM:   3    -0.413527938536E+03   -0.33316E-01   -0.13485E-01  5464   0.390E-01    0.148E+00
RMM:   4    -0.413469762377E+03    0.58176E-01   -0.98580E-02  5237   0.364E-01    0.637E-01
RMM:   5    -0.413464746448E+03    0.50159E-02   -0.36368E-02  4775   0.260E-01    0.211E-01
RMM:   6    -0.413463185438E+03    0.15610E-02   -0.12749E-02  5228   0.138E-01    0.128E-01
RMM:   7    -0.413462479404E+03    0.70603E-03   -0.16556E-03  4724   0.572E-02    0.639E-02
RMM:   8    -0.413462446803E+03    0.32602E-04   -0.56079E-04  5205   0.303E-02    0.343E-02
RMM:   9    -0.413462446351E+03    0.45168E-06   -0.24351E-04  5274   0.190E-02    0.189E-02
RMM:  10    -0.413462445859E+03    0.49217E-06   -0.56875E-05  5650   0.888E-03    0.102E-02
RMM:  11    -0.413462449732E+03   -0.38728E-05   -0.31124E-05  5223   0.662E-03    0.630E-03
RMM:  12    -0.413462452618E+03   -0.28861E-05   -0.49032E-06  3008   0.327E-03    0.348E-03
RMM:  13    -0.413462453915E+03   -0.12977E-05   -0.23122E-06  2643   0.235E-03    0.161E-03
RMM:  14    -0.413462454502E+03   -0.58700E-06   -0.11275E-06  2495   0.173E-03
  150 T=   119. E= -.41287971E+03 F= -.41346245E+03 E0= -.41344038E+03  EK= 0.58274E+00 SP= 0.00E+00 SK= 0.00E+00
