       N       E                     dE             d eps       ncg     rms          rms(c)
RMM:   1     0.220150761400E+04    0.22015E+04   -0.52441E+04  2132   0.654E+02
RMM:   2     0.705896297925E+03   -0.14956E+04   -0.16262E+04  2132   0.177E+02
RMM:   3     0.137831465540E+03   -0.56806E+03   -0.65723E+03  2132   0.117E+02
RMM:   4    -0.159373806317E+03   -0.29721E+03   -0.27878E+03  2132   0.937E+01
RMM:   5    -0.287510218853E+03   -0.12814E+03   -0.11452E+03  2132   0.595E+01
RMM:   6    -0.349905326788E+03   -0.62395E+02   -0.55173E+02  2132   0.423E+01
RMM:   7    -0.382820115666E+03   -0.32915E+02   -0.30448E+02  2132   0.293E+01
RMM:   8    -0.404285281865E+03   -0.21465E+02   -0.18425E+02  2132   0.233E+01
RMM:   9    -0.435988535449E+03   -0.31703E+02   -0.30638E+02  6096   0.173E+01
RMM:  10    -0.441306062016E+03   -0.53175E+01   -0.63296E+01  6395   0.539E+00
RMM:  11    -0.442518336194E+03   -0.12123E+01   -0.11131E+01  6217   0.173E+00
RMM:  12    -0.442888936598E+03   -0.37060E+00   -0.26555E+00  6370   0.598E-01    0.134E+02
RMM:  13    -0.425566622706E+03    0.17322E+02   -0.80972E+01  4683   0.119E+01    0.712E+01
RMM:  14    -0.498880505312E+03   -0.73314E+02   -0.53619E+02  5418   0.232E+01    0.306E+01
RMM:  15    -0.416516688883E+03    0.82364E+02   -0.19973E+02  5100   0.163E+01    0.745E+00
RMM:  16    -0.414015404246E+03    0.25013E+01   -0.39569E+01  6087   0.612E+00    0.428E+00
RMM:  17    -0.413212561353E+03    0.80284E+00   -0.25676E+00  5409   0.190E+00    0.244E+00
RMM:  18    -0.413176970731E+03    0.35591E-01   -0.76616E-01  5976   0.895E-01    0.169E+00
RMM:  19    -0.413171864031E+03    0.51067E-02   -0.26601E-01  5698   0.560E-01    0.897E-01
RMM:  20    -0.413192068982E+03   -0.20205E-01   -0.29837E-01  5586   0.564E-01    0.652E-01
RMM:  21    -0.413169154067E+03    0.22915E-01   -0.35295E-02  4989   0.246E-01    0.304E-01
RMM:  22    -0.413165508881E+03    0.36452E-02   -0.24005E-02  5871   0.150E-01    0.135E-01
RMM:  23    -0.413164679391E+03    0.82949E-03   -0.57557E-03  6062   0.677E-02    0.858E-02
RMM:  24    -0.413163490642E+03    0.11887E-02   -0.16584E-03  5286   0.423E-02    0.523E-02
RMM:  25    -0.413162885904E+03    0.60474E-03   -0.81615E-04  5003   0.286E-02    0.426E-02
RMM:  26    -0.413162970103E+03   -0.84199E-04   -0.10685E-03  5753   0.341E-02    0.333E-02
RMM:  27    -0.413163388813E+03   -0.41871E-03   -0.19264E-04  4543   0.203E-02    0.186E-02
RMM:  28    -0.413163835774E+03   -0.44696E-03   -0.14746E-04  5035   0.175E-02    0.981E-03
RMM:  29    -0.413164211428E+03   -0.37565E-03   -0.10703E-04  4651   0.152E-02    0.449E-03
RMM:  30    -0.413164451894E+03   -0.24047E-03   -0.77213E-05  4335   0.106E-02    0.401E-03
RMM:  31    -0.413164596625E+03   -0.14473E-03   -0.57825E-05  3344   0.754E-03    0.363E-03
RMM:  32    -0.413164624252E+03   -0.27627E-04   -0.21745E-05  2986   0.322E-03    0.200E-03
RMM:  33    -0.413164637625E+03   -0.13372E-04   -0.87308E-06  2815   0.231E-03    0.748E-04
RMM:  34    -0.413164639933E+03   -0.23084E-05   -0.48708E-06  2620   0.156E-03    0.481E-04
RMM:  35    -0.413164640415E+03   -0.48197E-06   -0.21843E-06  2397   0.131E-03
    1 T=    61. E= -.41286688E+03 F= -.41316464E+03 E0= -.41314214E+03  EK= 0.29776E+00 SP= 0.00E+00 SK= 0.00E+00
       N       E                     dE             d eps       ncg     rms          rms(c)
RMM:   1    -0.413159669513E+03    0.49704E-02   -0.98975E+00  3989   0.651E-01    0.885E-01
RMM:   2    -0.413167416314E+03   -0.77468E-02   -0.12127E-01  3838   0.916E-02    0.647E-01
RMM:   3    -0.413164550044E+03    0.28663E-02   -0.11245E-02  4756   0.415E-02    0.105E-01
RMM:   4    -0.413183487770E+03   -0.18938E-01   -0.19912E-02  5216   0.117E-01    0.576E-01
RMM:   5    -0.413164242291E+03    0.19245E-01   -0.95282E-03  4849   0.966E-02    0.419E-02
RMM:   6    -0.413164378492E+03   -0.13620E-03   -0.17048E-03  5792   0.399E-02    0.290E-02
RMM:   7    -0.413164380695E+03   -0.22026E-05   -0.32012E-04  5700   0.163E-02    0.172E-02
RMM:   8    -0.413164380447E+03    0.24818E-06   -0.38668E-05  4810   0.676E-03    0.742E-03
RMM:   9    -0.413164383662E+03   -0.32153E-05   -0.82185E-06  3288   0.309E-03    0.579E-03
RMM:  10    -0.413164388671E+03   -0.50092E-05   -0.16207E-06  2551   0.195E-03    0.355E-03
RMM:  11    -0.413164394388E+03   -0.57172E-05   -0.13506E-06  2541   0.168E-03    0.172E-03
RMM:  12    -0.413164401183E+03   -0.67944E-05   -0.12881E-06  2512   0.160E-03    0.731E-04
RMM:  13    -0.413164402319E+03   -0.11364E-05   -0.47989E-07  2167   0.105E-03    0.413E-04
RMM:  14    -0.413164402733E+03   -0.41338E-06   -0.28292E-07  1595   0.758E-04
    2 T=    61. E= -.41286679E+03 F= -.41316440E+03 E0= -.41314190E+03  EK= 0.29761E+00 SP= 0.00E+00 SK= 0.00E+00
       N       E                     dE             d eps       ncg     rms          rms(c)
RMM:   1    -0.413160749248E+03    0.36531E-02   -0.99076E+00  4183   0.656E-01    0.906E-01
RMM:   2    -0.413167449162E+03   -0.66999E-02   -0.11943E-01  3868   0.900E-02    0.641E-01
RMM:   3    -0.413165225672E+03    0.22235E-02   -0.11095E-02  4881   0.409E-02    0.126E-01
RMM:   4    -0.413191209736E+03   -0.25984E-01   -0.26866E-02  5179   0.137E-01    0.673E-01
RMM:   5    -0.413164773936E+03    0.26436E-01   -0.12794E-02  4829   0.113E-01    0.459E-02
RMM:   6    -0.413164946834E+03   -0.17290E-03   -0.22082E-03  5776   0.461E-02    0.310E-02
RMM:   7    -0.413164942752E+03    0.40812E-05   -0.37651E-04  5737   0.178E-02    0.190E-02
RMM:   8    -0.413164936294E+03    0.64581E-05   -0.53331E-05  5043   0.788E-03    0.862E-03
RMM:   9    -0.413164934962E+03    0.13321E-05   -0.10628E-05  3662   0.366E-03    0.651E-03
RMM:  10    -0.413164935337E+03   -0.37524E-06   -0.16725E-06  2557   0.208E-03
    3 T=    61. E= -.41286721E+03 F= -.41316494E+03 E0= -.41314244E+03  EK= 0.29773E+00 SP= 0.00E+00 SK= 0.00E+00
       N       E                     dE             d eps       ncg     rms          rms(c)
RMM:   1    -0.413160267762E+03    0.46672E-02   -0.98293E+00  4223   0.660E-01    0.890E-01
RMM:   2    -0.413167291350E+03   -0.70236E-02   -0.11874E-01  4187   0.932E-02    0.635E-01
RMM:   3    -0.413168318289E+03   -0.10269E-02   -0.13477E-02  5154   0.689E-02    0.274E-01
RMM:   4    -0.413195284659E+03   -0.26966E-01   -0.41902E-02  5135   0.174E-01    0.723E-01
RMM:   5    -0.413164644882E+03    0.30640E-01   -0.12695E-02  4739   0.119E-01    0.593E-02
RMM:   6    -0.413164714804E+03   -0.69922E-04   -0.22952E-03  5550   0.480E-02    0.293E-02
RMM:   7    -0.413164733772E+03   -0.18967E-04   -0.38046E-04  6046   0.171E-02    0.182E-02
RMM:   8    -0.413164731992E+03    0.17795E-05   -0.68165E-05  5245   0.904E-03    0.794E-03
RMM:   9    -0.413164729804E+03    0.21880E-05   -0.95943E-06  3509   0.373E-03    0.396E-03
RMM:  10    -0.413164731097E+03   -0.12933E-05   -0.20654E-06  2579   0.218E-03    0.263E-03
RMM:  11    -0.413164732871E+03   -0.17735E-05   -0.14516E-06  2535   0.187E-03    0.153E-03
RMM:  12    -0.413164733822E+03   -0.95096E-06   -0.77558E-07  2495   0.143E-03
    4 T=    61. E= -.41286703E+03 F= -.41316473E+03 E0= -.41314225E+03  EK= 0.29770E+00 SP= 0.00E+00 SK= 0.00E+00
       N       E                     dE             d eps       ncg     rms          rms(c)
RMM:   1    -0.413160166630E+03    0.45662E-02   -0.98834E+00  4237   0.663E-01    0.882E-01
RMM:   2    -0.413167886431E+03   -0.77198E-02   -0.12113E-01  4059   0.934E-02    0.645E-01
RMM:   3    -0.413165264464E+03    0.26220E-02   -0.11296E-02  4899   0.450E-02    0.121E-01
RMM:   4    -0.413194961023E+03   -0.29697E-01   -0.30833E-02  5151   0.147E-01    0.719E-01
RMM:   5    -0.413164693192E+03    0.30268E-01   -0.14450E-02  4813   0.120E-01    0.463E-02
RMM:   6    -0.413164893043E+03   -0.19985E-03   -0.25361E-03  5779   0.486E-02    0.297E-02
RMM:   7    -0.413164900935E+03   -0.78921E-05   -0.38694E-04  5781   0.178E-02    0.191E-02
RMM:   8    -0.413164900178E+03    0.75714E-06   -0.61372E-05  5038   0.824E-03    0.906E-03
RMM:   9    -0.413164901503E+03   -0.13249E-05   -0.12208E-05  3859   0.396E-03    0.674E-03
RMM:  10    -0.413164905665E+03   -0.41620E-05   -0.17732E-06  2570   0.209E-03    0.433E-03
RMM:  11    -0.413164910294E+03   -0.46295E-05   -0.14183E-06  2543   0.185E-03    0.219E-03
RMM:  12    -0.413164916243E+03   -0.59488E-05   -0.16987E-06  2574   0.188E-03    0.907E-04
RMM:  13    -0.413164917180E+03   -0.93696E-06   -0.46137E-07  2301   0.118E-03
    5 T=    61. E= -.41286703E+03 F= -.41316492E+03 E0= -.41314244E+03  EK= 0.29788E+00 SP= 0.00E+00 SK= 0.00E+00
       N       E                     dE             d eps       ncg     rms          rms(c)
RMM:   1    -0.413161078366E+03    0.38379E-02   -0.99122E+00  4250   0.670E-01    0.902E-01
RMM:   2    -0.413167827163E+03   -0.67488E-02   -0.11966E-01  4057   0.930E-02    0.643E-01
RMM:   3    -0.413165512014E+03    0.23151E-02   -0.11079E-02  4744   0.420E-02    0.117E-01
RMM:   4    -0.413186056020E+03   -0.20544E-01   -0.20878E-02  5160   0.121E-01    0.600E-01
RMM:   5    -0.413165204308E+03    0.20852E-01   -0.10242E-02  4830   0.996E-02    0.424E-02
RMM:   6    -0.413165336497E+03   -0.13219E-03   -0.17281E-03  5790   0.403E-02    0.277E-02
RMM:   7    -0.413165335625E+03    0.87174E-06   -0.30047E-04  5663   0.166E-02    0.175E-02
RMM:   8    -0.413165328335E+03    0.72901E-05   -0.49092E-05  4889   0.769E-03    0.830E-03
RMM:   9    -0.413165327316E+03    0.10189E-05   -0.99039E-06  3624   0.359E-03    0.647E-03
RMM:  10    -0.413165327873E+03   -0.55743E-06   -0.15330E-06  2544   0.208E-03
    6 T=    61. E= -.41286712E+03 F= -.41316533E+03 E0= -.41314286E+03  EK= 0.29821E+00 SP= 0.00E+00 SK= 0.00E+00
       N       E                     dE             d eps       ncg     rms          rms(c)
RMM:   1    -0.413160713654E+03    0.46137E-02   -0.98630E+00  4258   0.672E-01    0.897E-01
RMM:   2    -0.413167496416E+03   -0.67828E-02   -0.11910E-01  4184   0.913E-02    0.636E-01
RMM:   3    -0.413168001791E+03   -0.50538E-03   -0.12999E-02  5124   0.642E-02    0.252E-01
RMM:   4    -0.413198590316E+03   -0.30589E-01   -0.43333E-02  5126   0.175E-01    0.756E-01
RMM:   5    -0.413164990318E+03    0.33600E-01   -0.14344E-02  4761   0.125E-01    0.589E-02
RMM:   6    -0.413165090366E+03   -0.10005E-03   -0.25170E-03  5588   0.501E-02    0.299E-02
RMM:   7    -0.413165107242E+03   -0.16876E-04   -0.40329E-04  6016   0.173E-02    0.185E-02
RMM:   8    -0.413165103934E+03    0.33089E-05   -0.69834E-05  5243   0.901E-03    0.813E-03
RMM:   9    -0.413165100180E+03    0.37531E-05   -0.10143E-05  3536   0.376E-03    0.412E-03
RMM:  10    -0.413165100152E+03    0.28893E-07   -0.23726E-06  2608   0.224E-03
    7 T=    61. E= -.41286676E+03 F= -.41316510E+03 E0= -.41314265E+03  EK= 0.29834E+00 SP= 0.00E+00 SK= 0.00E+00
       N       E                     dE             d eps       ncg     rms          rms(c)
RMM:   1    -0.413161374027E+03    0.37262E-02   -0.98798E+00  4261   0.688E-01    0.881E-01
RMM:   2    -0.413168591526E+03   -0.72175E-02   -0.12208E-01  4123   0.947E-02    0.643E-01
RMM:   3    -0.413166480946E+03    0.21106E-02   -0.11478E-02  5005   0.504E-02    0.154E-01
RMM:   4    -0.413206205756E+03   -0.39725E-01   -0.43415E-02  5140   0.174E-01    0.830E-01
RMM:   5    -0.413165407608E+03    0.40798E-01   -0.19147E-02  4801   0.139E-01    0.525E-02
RMM:   6    -0.413165641839E+03   -0.23423E-03   -0.33377E-03  5756   0.559E-02    0.310E-02
RMM:   7    -0.413165655292E+03   -0.13453E-04   -0.47946E-04  5912   0.189E-02    0.205E-02
RMM:   8    -0.413165654343E+03    0.94868E-06   -0.73553E-05  5222   0.882E-03    0.962E-03
RMM:   9    -0.413165653849E+03    0.49366E-06   -0.14491E-05  4041   0.423E-03    0.637E-03
RMM:  10    -0.413165656849E+03   -0.30001E-05   -0.23959E-06  2618   0.221E-03    0.419E-03
RMM:  11    -0.413165659629E+03   -0.27797E-05   -0.12263E-06  2528   0.173E-03    0.228E-03
RMM:  12    -0.413165663568E+03   -0.39385E-05   -0.16557E-06  2565   0.188E-03    0.822E-04
RMM:  13    -0.413165664801E+03   -0.12330E-05   -0.61532E-07  2355   0.127E-03    0.686E-04
RMM:  14    -0.413165664575E+03    0.22586E-06   -0.24098E-07  1859   0.848E-04
    8 T=    61. E= -.41286698E+03 F= -.41316566E+03 E0= -.41314323E+03  EK= 0.29868E+00 SP= 0.00E+00 SK= 0.00E+00
       N       E                     dE             d eps       ncg     rms          rms(c)
RMM:   1    -0.413161365627E+03    0.42992E-02   -0.99252E+00  4281   0.687E-01    0.897E-01
RMM:   2    -0.413168767694E+03   -0.74021E-02   -0.12053E-01  4170   0.945E-02    0.646E-01
RMM:   3    -0.413166106621E+03    0.26611E-02   -0.11176E-02  4768   0.438E-02    0.116E-01
RMM:   4    -0.413188924800E+03   -0.22818E-01   -0.23357E-02  5147   0.127E-01    0.632E-01
RMM:   5    -0.413165722632E+03    0.23202E-01   -0.11313E-02  4813   0.105E-01    0.434E-02
RMM:   6    -0.413165877976E+03   -0.15534E-03   -0.19749E-03  5781   0.425E-02    0.286E-02
RMM:   7    -0.413165878419E+03   -0.44322E-06   -0.32558E-04  5671   0.169E-02    0.181E-02
RMM:   8    -0.413165871668E+03    0.67512E-05   -0.52805E-05  4941   0.787E-03    0.867E-03
RMM:   9    -0.413165870324E+03    0.13437E-05   -0.10504E-05  3690   0.370E-03    0.670E-03
RMM:  10    -0.413165871067E+03   -0.74354E-06   -0.15171E-06  2540   0.206E-03
    9 T=    61. E= -.41286701E+03 F= -.41316587E+03 E0= -.41314346E+03  EK= 0.29886E+00 SP= 0.00E+00 SK= 0.00E+00
       N       E                     dE             d eps       ncg     rms          rms(c)
RMM:   1    -0.413161882329E+03    0.39880E-02   -0.99015E+00  4300   0.693E-01    0.904E-01
RMM:   2    -0.413168468661E+03   -0.65863E-02   -0.11909E-01  4263   0.934E-02    0.638E-01
RMM:   3    -0.413169326824E+03   -0.85816E-03   -0.13444E-02  5108   0.681E-02    0.269E-01
RMM:   4    -0.413197119427E+03   -0.27793E-01   -0.42072E-02  5117   0.173E-01    0.730E-01
RMM:   5    -0.413165875091E+03    0.31244E-01   -0.13165E-02  4742   0.120E-01    0.585E-02
RMM:   6    -0.413165959061E+03   -0.83969E-04   -0.23536E-03  5566   0.483E-02    0.300E-02
RMM:   7    -0.413165970688E+03   -0.11627E-04   -0.37937E-04  6010   0.170E-02    0.184E-02
RMM:   8    -0.413165964899E+03    0.57885E-05   -0.66910E-05  5204   0.894E-03    0.796E-03
RMM:   9    -0.413165959935E+03    0.49643E-05   -0.96222E-06  3476   0.371E-03    0.403E-03
RMM:  10    -0.413165958849E+03    0.10863E-05   -0.21977E-06  2590   0.221E-03    0.271E-03
RMM:  11    -0.413165957116E+03    0.17323E-05   -0.13019E-06  2518   0.181E-03    0.147E-03
RMM:  12    -0.413165955324E+03    0.17925E-05   -0.76245E-07  2478   0.141E-03    0.510E-04
RMM:  13    -0.413165954377E+03    0.94708E-06   -0.37115E-07  2066   0.994E-04
   10 T=    61. E= -.41286694E+03 F= -.41316595E+03 E0= -.41314357E+03  EK= 0.29901E+00 SP= 0.00E+00 SK= 0.00E+00
       N       E                     dE             d eps       ncg     rms          rms(c)
RMM:   1    -0.413162104221E+03    0.38511E-02   -0.98643E+00  4291   0.695E-01    0.882E-01
RMM:   2    -0.413169484379E+03   -0.73802E-02   -0.12032E-01  4208   0.922E-02    0.641E-01
RMM:   3    -0.413167143224E+03    0.23412E-02   -0.11095E-02  4896   0.452E-02    0.129E-01
RMM:   4    -0.413198751621E+03   -0.31608E-01   -0.33184E-02  5141   0.151E-01    0.741E-01
RMM:   5    -0.413166500809E+03    0.32251E-01   -0.15594E-02  4798   0.123E-01    0.474E-02
RMM:   6    -0.413166703415E+03   -0.20261E-03   -0.26686E-03  5751   0.499E-02    0.305E-02
RMM:   7    -0.413166706430E+03   -0.30157E-05   -0.40686E-04  5761   0.182E-02    0.196E-02
RMM:   8    -0.413166701751E+03    0.46790E-05   -0.63030E-05  5069   0.838E-03    0.926E-03
RMM:   9    -0.413166700173E+03    0.15787E-05   -0.12817E-05  3906   0.405E-03    0.679E-03
RMM:  10    -0.413166701384E+03   -0.12115E-05   -0.18056E-06  2571   0.209E-03    0.435E-03
RMM:  11    -0.413166702771E+03   -0.13866E-05   -0.13453E-06  2527   0.182E-03    0.221E-03
RMM:  12    -0.413166704360E+03   -0.15895E-05   -0.16597E-06  2568   0.188E-03    0.907E-04
RMM:  13    -0.413166704538E+03   -0.17777E-06   -0.45950E-07  2297   0.119E-03
   11 T=    61. E= -.41286724E+03 F= -.41316670E+03 E0= -.41314434E+03  EK= 0.29946E+00 SP= 0.00E+00 SK= 0.00E+00
       N       E                     dE             d eps       ncg     rms          rms(c)
RMM:   1    -0.413164506875E+03    0.21975E-02   -0.99635E+00  4297   0.721E-01    0.892E-01
RMM:   2    -0.413169499961E+03   -0.49931E-02   -0.12735E-01  4217   0.985E-02    0.649E-01
RMM:   3    -0.413166892823E+03    0.26071E-02   -0.10893E-02  4788   0.431E-02    0.121E-01
RMM:   4    -0.413190706876E+03   -0.23814E-01   -0.24512E-02  5139   0.130E-01    0.645E-01
RMM:   5    -0.413166500134E+03    0.24207E-01   -0.11814E-02  4809   0.107E-01    0.434E-02
RMM:   6    -0.413166657622E+03   -0.15749E-03   -0.20321E-03  5805   0.430E-02    0.278E-02
RMM:   7    -0.413166662287E+03   -0.46647E-05   -0.31578E-04  5703   0.167E-02    0.178E-02
RMM:   8    -0.413166656299E+03    0.59876E-05   -0.57283E-05  4947   0.807E-03    0.875E-03
RMM:   9    -0.413166654921E+03    0.13788E-05   -0.11392E-05  3825   0.388E-03    0.676E-03
RMM:  10    -0.413166655833E+03   -0.91287E-06   -0.15346E-06  2541   0.206E-03
   12 T=    61. E= -.41286688E+03 F= -.41316666E+03 E0= -.41314432E+03  EK= 0.29978E+00 SP= 0.00E+00 SK= 0.00E+00
       N       E                     dE             d eps       ncg     rms          rms(c)
RMM:   1    -0.413163054397E+03    0.36005E-02   -0.99437E+00  4304   0.700E-01    0.909E-01
RMM:   2    -0.413169455877E+03   -0.64015E-02   -0.11979E-01  4286   0.943E-02    0.641E-01
RMM:   3    -0.413170705815E+03   -0.12499E-02   -0.13718E-02  5124   0.693E-02    0.274E-01
RMM:   4    -0.413197893941E+03   -0.27188E-01   -0.42038E-02  5105   0.173E-01    0.724E-01
RMM:   5    -0.413167094202E+03    0.30800E-01   -0.12860E-02  4729   0.119E-01    0.581E-02
RMM:   6    -0.413167178935E+03   -0.84733E-04   -0.23254E-03  5571   0.478E-02    0.302E-02
RMM:   7    -0.413167189297E+03   -0.10362E-04   -0.37304E-04  6005   0.169E-02    0.185E-02
RMM:   8    -0.413167182238E+03    0.70584E-05   -0.66191E-05  5192   0.889E-03    0.800E-03
RMM:   9    -0.413167176053E+03    0.61857E-05   -0.95479E-06  3479   0.371E-03    0.404E-03
RMM:  10    -0.413167174146E+03    0.19071E-05   -0.21898E-06  2592   0.220E-03    0.272E-03
RMM:  11    -0.413167171285E+03    0.28603E-05   -0.12623E-06  2518   0.178E-03    0.147E-03
RMM:  12    -0.413167168491E+03    0.27941E-05   -0.74022E-07  2472   0.139E-03    0.507E-04
RMM:  13    -0.413167167022E+03    0.14694E-05   -0.35738E-07  2065   0.988E-04    0.309E-04
RMM:  14    -0.413167165698E+03    0.13241E-05   -0.21717E-07  1613   0.795E-04    0.214E-04
RMM:  15    -0.413167163682E+03    0.20155E-05   -0.19116E-07  1450   0.740E-04    0.115E-04
RMM:  16    -0.413167161657E+03    0.20248E-05   -0.16417E-07  1420   0.706E-04    0.122E-04
RMM:  17    -0.413167159606E+03    0.20510E-05   -0.13873E-07  1356   0.667E-04    0.665E-05
RMM:  18    -0.413167158295E+03    0.13109E-05   -0.85052E-08  1090   0.589E-04    0.282E-05
RMM:  19    -0.413167157685E+03    0.61011E-06   -0.43604E-08   875   0.544E-04
   13 T=    61. E= -.41286682E+03 F= -.41316716E+03 E0= -.41314486E+03  EK= 0.30034E+00 SP= 0.00E+00 SK= 0.00E+00
       N       E                     dE             d eps       ncg     rms          rms(c)
RMM:   1    -0.413163093130E+03    0.40652E-02   -0.98789E+00  4292   0.702E-01    0.886E-01
RMM:   2    -0.413170528970E+03   -0.74358E-02   -0.12043E-01  4229   0.941E-02    0.639E-01
RMM:   3    -0.413168354724E+03    0.21742E-02   -0.11097E-02  4914   0.457E-02    0.137E-01
RMM:   4    -0.413202437970E+03   -0.34083E-01   -0.36168E-02  5134   0.158E-01    0.769E-01
RMM:   5    -0.413167643757E+03    0.34794E-01   -0.16734E-02  4796   0.128E-01    0.490E-02
RMM:   6    -0.413167857348E+03   -0.21359E-03   -0.28877E-03  5747   0.517E-02    0.314E-02
RMM:   7    -0.413167861598E+03   -0.42501E-05   -0.43141E-04  5733   0.185E-02    0.202E-02
RMM:   8    -0.413167856140E+03    0.54577E-05   -0.66000E-05  5132   0.857E-03    0.952E-03
RMM:   9    -0.413167853105E+03    0.30354E-05   -0.13576E-05  3999   0.415E-03    0.686E-03
RMM:  10    -0.413167852913E+03    0.19211E-06   -0.19027E-06  2572   0.212E-03
   14 T=    61. E= -.41286694E+03 F= -.41316785E+03 E0= -.41314558E+03  EK= 0.30091E+00 SP= 0.00E+00 SK= 0.00E+00
       N       E                     dE             d eps       ncg     rms          rms(c)
RMM:   1    -0.413163296914E+03    0.45562E-02   -0.99684E+00  4304   0.708E-01    0.890E-01
RMM:   2    -0.413171010910E+03   -0.77140E-02   -0.12209E-01  4311   0.950E-02    0.650E-01
RMM:   3    -0.413173338604E+03   -0.23277E-02   -0.15398E-02  5124   0.800E-02    0.326E-01
RMM:   4    -0.413195637105E+03   -0.22299E-01   -0.42850E-02  5086   0.176E-01    0.687E-01
RMM:   5    -0.413167859879E+03    0.27777E-01   -0.10854E-02  4691   0.112E-01    0.576E-02
RMM:   6    -0.413167905620E+03   -0.45741E-04   -0.20361E-03  5497   0.445E-02    0.281E-02
RMM:   7    -0.413167923856E+03   -0.18236E-04   -0.34042E-04  5991   0.165E-02    0.176E-02
RMM:   8    -0.413167923347E+03    0.50916E-06   -0.65185E-05  5184   0.885E-03    0.760E-03
RMM:   9    -0.413167921391E+03    0.19561E-05   -0.89775E-06  3409   0.372E-03    0.372E-03
RMM:  10    -0.413167922515E+03   -0.11243E-05   -0.18364E-06  2549   0.210E-03    0.241E-03
RMM:  11    -0.413167924102E+03   -0.15865E-05   -0.14824E-06  2539   0.186E-03    0.151E-03
RMM:  12    -0.413167924531E+03   -0.42972E-06   -0.68857E-07  2458   0.138E-03
   15 T=    61. E= -.41286670E+03 F= -.41316792E+03 E0= -.41314569E+03  EK= 0.30123E+00 SP= 0.00E+00 SK= 0.00E+00
       N       E                     dE             d eps       ncg     rms          rms(c)
RMM:   1    -0.413164795403E+03    0.31287E-02   -0.99821E+00  4299   0.711E-01    0.911E-01
RMM:   2    -0.413171524966E+03   -0.67296E-02   -0.12055E-01  4245   0.934E-02    0.644E-01
RMM:   3    -0.413169511233E+03    0.20137E-02   -0.11387E-02  4935   0.460E-02    0.145E-01
RMM:   4    -0.413204674583E+03   -0.35163E-01   -0.37427E-02  5136   0.160E-01    0.781E-01
RMM:   5    -0.413168753492E+03    0.35921E-01   -0.17316E-02  4794   0.130E-01    0.502E-02
RMM:   6    -0.413168970247E+03   -0.21676E-03   -0.30360E-03  5762   0.528E-02    0.325E-02
RMM:   7    -0.413168968013E+03    0.22337E-05   -0.44974E-04  5783   0.191E-02    0.210E-02
RMM:   8    -0.413168957248E+03    0.10765E-04   -0.72078E-05  5121   0.894E-03    0.103E-02
RMM:   9    -0.413168950763E+03    0.64849E-05   -0.14090E-05  4054   0.428E-03    0.736E-03
RMM:  10    -0.413168947071E+03    0.36920E-05   -0.20441E-06  2581   0.221E-03    0.467E-03
RMM:  11    -0.413168943980E+03    0.30918E-05   -0.13452E-06  2524   0.182E-03    0.255E-03
RMM:  12    -0.413168938640E+03    0.53397E-05   -0.17732E-06  2575   0.201E-03    0.968E-04
RMM:  13    -0.413168936753E+03    0.18869E-05   -0.54781E-07  2364   0.130E-03    0.710E-04
RMM:  14    -0.413168936830E+03   -0.76925E-07   -0.24016E-07  1910   0.860E-04
   16 T=    61. E= -.41286713E+03 F= -.41316894E+03 E0= -.41314674E+03  EK= 0.30180E+00 SP= 0.00E+00 SK= 0.00E+00
       N       E                     dE             d eps       ncg     rms          rms(c)
RMM:   1    -0.413164840241E+03    0.40965E-02   -0.99070E+00  4297   0.712E-01    0.892E-01
RMM:   2    -0.413172061317E+03   -0.72211E-02   -0.12048E-01  4251   0.917E-02    0.639E-01
RMM:   3    -0.413169710375E+03    0.23509E-02   -0.10897E-02  4859   0.426E-02    0.127E-01
RMM:   4    -0.413196941729E+03   -0.27231E-01   -0.28354E-02  5134   0.140E-01    0.689E-01
RMM:   5    -0.413169204461E+03    0.27737E-01   -0.13526E-02  4800   0.114E-01    0.458E-02
RMM:   6    -0.413169377038E+03   -0.17258E-03   -0.23736E-03  5809   0.462E-02    0.298E-02
RMM:   7    -0.413169376046E+03    0.99189E-06   -0.35726E-04  5684   0.176E-02    0.189E-02
RMM:   8    -0.413169366801E+03    0.92453E-05   -0.62396E-05  4987   0.837E-03    0.941E-03
RMM:   9    -0.413169362163E+03    0.46378E-05   -0.12502E-05  3938   0.404E-03    0.711E-03
RMM:  10    -0.413169359878E+03    0.22856E-05   -0.16800E-06  2552   0.210E-03    0.449E-03
RMM:  11    -0.413169357466E+03    0.24112E-05   -0.13867E-06  2522   0.187E-03    0.226E-03
RMM:  12    -0.413169354090E+03    0.33764E-05   -0.14410E-06  2532   0.184E-03    0.846E-04
RMM:  13    -0.413169353195E+03    0.89474E-06   -0.43740E-07  2252   0.117E-03
   17 T=    62. E= -.41286712E+03 F= -.41316935E+03 E0= -.41314719E+03  EK= 0.30223E+00 SP= 0.00E+00 SK= 0.00E+00
       N       E                     dE             d eps       ncg     rms          rms(c)
RMM:   1    -0.413165221504E+03    0.41326E-02   -0.99847E+00  4299   0.722E-01    0.888E-01
RMM:   2    -0.413172845695E+03   -0.76242E-02   -0.12287E-01  4253   0.948E-02    0.650E-01
RMM:   3    -0.413170189615E+03    0.26561E-02   -0.11423E-02  4850   0.447E-02    0.119E-01
RMM:   4    -0.413198120980E+03   -0.27931E-01   -0.29136E-02  5129   0.141E-01    0.697E-01
RMM:   5    -0.413169678086E+03    0.28443E-01   -0.13857E-02  4804   0.116E-01    0.453E-02
RMM:   6    -0.413169851226E+03   -0.17314E-03   -0.23995E-03  5807   0.465E-02    0.287E-02
RMM:   7    -0.413169856354E+03   -0.51283E-05   -0.35114E-04  5726   0.173E-02    0.184E-02
RMM:   8    -0.413169850394E+03    0.59601E-05   -0.64703E-05  5015   0.840E-03    0.939E-03
RMM:   9    -0.413169847611E+03    0.27830E-05   -0.12950E-05  4008   0.411E-03    0.706E-03
RMM:  10    -0.413169847712E+03   -0.10042E-06   -0.16814E-06  2553   0.209E-03
   18 T=    62. E= -.41286699E+03 F= -.41316985E+03 E0= -.41314773E+03  EK= 0.30285E+00 SP= 0.00E+00 SK= 0.00E+00
       N       E                     dE             d eps       ncg     rms          rms(c)
RMM:   1    -0.413166792290E+03    0.30553E-02   -0.10020E+01  4300   0.724E-01    0.910E-01
RMM:   2    -0.413173680265E+03   -0.68880E-02   -0.12157E-01  4305   0.982E-02    0.647E-01
RMM:   3    -0.413175456866E+03   -0.17766E-02   -0.14427E-02  5112   0.750E-02    0.299E-01
RMM:   4    -0.413200096620E+03   -0.24640E-01   -0.42111E-02  5089   0.173E-01    0.703E-01
RMM:   5    -0.413171036961E+03    0.29060E-01   -0.11810E-02  4705   0.115E-01    0.572E-02
RMM:   6    -0.413171094125E+03   -0.57165E-04   -0.21659E-03  5537   0.461E-02    0.298E-02
RMM:   7    -0.413171099623E+03   -0.54973E-05   -0.35727E-04  5990   0.167E-02    0.184E-02
RMM:   8    -0.413171092183E+03    0.74393E-05   -0.65807E-05  5161   0.892E-03    0.793E-03
RMM:   9    -0.413171085374E+03    0.68095E-05   -0.92843E-06  3442   0.374E-03    0.393E-03
RMM:  10    -0.413171082992E+03    0.23816E-05   -0.20607E-06  2574   0.217E-03    0.260E-03
RMM:  11    -0.413171079174E+03    0.38179E-05   -0.12421E-06  2514   0.178E-03    0.144E-03
RMM:  12    -0.413171075680E+03    0.34938E-05   -0.66856E-07  2449   0.137E-03    0.484E-04
RMM:  13    -0.413171073753E+03    0.19280E-05   -0.32930E-07  2034   0.964E-04    0.290E-04
RMM:  14    -0.413171071972E+03    0.17810E-05   -0.19373E-07  1542   0.776E-04    0.199E-04
RMM:  15    -0.413171069282E+03    0.26899E-05   -0.16329E-07  1416   0.728E-04    0.110E-04
RMM:  16    -0.413171066820E+03    0.24620E-05   -0.13235E-07  1377   0.686E-04    0.116E-04
RMM:  17    -0.413171063977E+03    0.28424E-05   -0.12167E-07  1376   0.661E-04    0.608E-05
RMM:  18    -0.413171062529E+03    0.14482E-05   -0.62986E-08  1000   0.573E-04    0.322E-05
RMM:  19    -0.413171061651E+03    0.87791E-06   -0.36138E-08   855   0.542E-04
   19 T=    62. E= -.41286720E+03 F= -.41317106E+03 E0= -.41314898E+03  EK= 0.30386E+00 SP= 0.00E+00 SK= 0.00E+00
       N       E                     dE             d eps       ncg     rms          rms(c)
RMM:   1    -0.413167058575E+03    0.40040E-02   -0.99733E+00  4297   0.725E-01    0.900E-01
RMM:   2    -0.413173823506E+03   -0.67649E-02   -0.12109E-01  4259   0.970E-02    0.641E-01
RMM:   3    -0.413172007980E+03    0.18155E-02   -0.11221E-02  4900   0.491E-02    0.147E-01
RMM:   4    -0.413207943054E+03   -0.35935E-01   -0.38410E-02  5133   0.162E-01    0.789E-01
RMM:   5    -0.413171237637E+03    0.36705E-01   -0.17852E-02  4788   0.132E-01    0.501E-02
RMM:   6    -0.413171433153E+03   -0.19552E-03   -0.29735E-03  5746   0.535E-02    0.325E-02
RMM:   7    -0.413171430370E+03    0.27832E-05   -0.45354E-04  5729   0.192E-02    0.208E-02
RMM:   8    -0.413171420545E+03    0.98249E-05   -0.72238E-05  5166   0.894E-03    0.100E-02
RMM:   9    -0.413171414187E+03    0.63581E-05   -0.14748E-05  4101   0.432E-03    0.705E-03
RMM:  10    -0.413171410618E+03    0.35688E-05   -0.20713E-06  2582   0.218E-03    0.450E-03
RMM:  11    -0.413171407596E+03    0.30220E-05   -0.12347E-06  2517   0.176E-03    0.244E-03
RMM:  12    -0.413171402628E+03    0.49680E-05   -0.15794E-06  2543   0.194E-03    0.932E-04
RMM:  13    -0.413171400784E+03    0.18441E-05   -0.50880E-07  2338   0.126E-03    0.689E-04
RMM:  14    -0.413171400911E+03   -0.12761E-06   -0.22985E-07  1875   0.843E-04
   20 T=    62. E= -.41286680E+03 F= -.41317140E+03 E0= -.41314937E+03  EK= 0.30460E+00 SP= 0.00E+00 SK= 0.00E+00
       N       E                     dE             d eps       ncg     rms          rms(c)
RMM:   1    -0.413167817677E+03    0.35831E-02   -0.10024E+01  4295   0.737E-01    0.889E-01
RMM:   2    -0.413175545683E+03   -0.77280E-02   -0.12395E-01  4271   0.970E-02    0.651E-01
RMM:   3    -0.413172883919E+03    0.26618E-02   -0.11377E-02  4837   0.460E-02    0.122E-01
RMM:   4    -0.413201502642E+03   -0.28619E-01   -0.29910E-02  5131   0.143E-01    0.705E-01
RMM:   5    -0.413172355590E+03    0.29147E-01   -0.14248E-02  4799   0.117E-01    0.458E-02
RMM:   6    -0.413172524727E+03   -0.16914E-03   -0.24691E-03  5798   0.475E-02    0.290E-02
RMM:   7    -0.413172531186E+03   -0.64588E-05   -0.35505E-04  5707   0.174E-02    0.184E-02
RMM:   8    -0.413172524865E+03    0.63211E-05   -0.67437E-05  5021   0.854E-03    0.960E-03
RMM:   9    -0.413172520956E+03    0.39087E-05   -0.13574E-05  4078   0.421E-03    0.715E-03
RMM:  10    -0.413172520218E+03    0.73842E-06   -0.17169E-06  2550   0.210E-03
   21 T=    62. E= -.41286693E+03 F= -.41317252E+03 E0= -.41315053E+03  EK= 0.30559E+00 SP= 0.00E+00 SK= 0.00E+00
       N       E                     dE             d eps       ncg     rms          rms(c)
RMM:   1    -0.413169277683E+03    0.32433E-02   -0.10081E+01  4300   0.744E-01    0.908E-01
RMM:   2    -0.413176368985E+03   -0.70913E-02   -0.12322E-01  4319   0.975E-02    0.651E-01
RMM:   3    -0.413178281689E+03   -0.19127E-02   -0.14822E-02  5113   0.768E-02    0.309E-01
RMM:   4    -0.413202620102E+03   -0.24338E-01   -0.43166E-02  5091   0.176E-01    0.703E-01
RMM:   5    -0.413173501989E+03    0.29118E-01   -0.11733E-02  4695   0.116E-01    0.572E-02
RMM:   6    -0.413173556006E+03   -0.54017E-04   -0.21770E-03  5537   0.463E-02    0.295E-02
RMM:   7    -0.413173564162E+03   -0.81556E-05   -0.35781E-04  5977   0.167E-02    0.185E-02
RMM:   8    -0.413173557461E+03    0.67001E-05   -0.67072E-05  5173   0.894E-03    0.795E-03
RMM:   9    -0.413173550672E+03    0.67896E-05   -0.95716E-06  3493   0.378E-03    0.389E-03
RMM:  10    -0.413173548398E+03    0.22736E-05   -0.19784E-06  2569   0.215E-03    0.258E-03
RMM:  11    -0.413173544602E+03    0.37961E-05   -0.12371E-06  2511   0.178E-03    0.146E-03
RMM:  12    -0.413173541170E+03    0.34323E-05   -0.65641E-07  2447   0.136E-03    0.480E-04
RMM:  13    -0.413173539167E+03    0.20023E-05   -0.31866E-07  2013   0.953E-04    0.275E-04
RMM:  14    -0.413173537004E+03    0.21633E-05   -0.19214E-07  1523   0.772E-04    0.177E-04
RMM:  15    -0.413173534488E+03    0.25162E-05   -0.14560E-07  1354   0.710E-04    0.105E-04
RMM:  16    -0.413173531973E+03    0.25151E-05   -0.12062E-07  1350   0.679E-04    0.110E-04
RMM:  17    -0.413173528908E+03    0.30652E-05   -0.11160E-07  1352   0.655E-04    0.589E-05
RMM:  18    -0.413173527423E+03    0.14848E-05   -0.57703E-08   994   0.573E-04    0.309E-05
RMM:  19    -0.413173526506E+03    0.91664E-06   -0.32814E-08   839   0.545E-04
   22 T=    62. E= -.41286696E+03 F= -.41317353E+03 E0= -.41315158E+03  EK= 0.30657E+00 SP= 0.00E+00 SK= 0.00E+00
       N       E                     dE             d eps       ncg     rms          rms(c)
RMM:   1    -0.413169938497E+03    0.35889E-02   -0.10061E+01  4295   0.740E-01    0.910E-01
RMM:   2    -0.413177056658E+03   -0.71182E-02   -0.12241E-01  4277   0.985E-02    0.645E-01
RMM:   3    -0.413174870031E+03    0.21866E-02   -0.11353E-02  4876   0.488E-02    0.148E-01
RMM:   4    -0.413210669995E+03   -0.35800E-01   -0.38172E-02  5136   0.162E-01    0.787E-01
RMM:   5    -0.413174096979E+03    0.36573E-01   -0.17749E-02  4786   0.132E-01    0.506E-02
RMM:   6    -0.413174301872E+03   -0.20489E-03   -0.31098E-03  5760   0.538E-02    0.328E-02
RMM:   7    -0.413174299060E+03    0.28117E-05   -0.45638E-04  5735   0.193E-02    0.211E-02
RMM:   8    -0.413174287758E+03    0.11302E-04   -0.76618E-05  5156   0.918E-03    0.106E-02
RMM:   9    -0.413174279819E+03    0.79390E-05   -0.15203E-05  4164   0.443E-03    0.753E-03
RMM:  10    -0.413174274872E+03    0.49473E-05   -0.21312E-06  2596   0.223E-03    0.483E-03
RMM:  11    -0.413174270680E+03    0.41919E-05   -0.13125E-06  2515   0.182E-03    0.265E-03
RMM:  12    -0.413174263839E+03    0.68406E-05   -0.16820E-06  2548   0.203E-03    0.957E-04
RMM:  13    -0.413174261123E+03    0.27160E-05   -0.54340E-07  2359   0.132E-03    0.739E-04
RMM:  14    -0.413174261467E+03   -0.34392E-06   -0.24702E-07  1915   0.872E-04
   23 T=    63. E= -.41286684E+03 F= -.41317426E+03 E0= -.41315237E+03  EK= 0.30743E+00 SP= 0.00E+00 SK= 0.00E+00
       N       E                     dE             d eps       ncg     rms          rms(c)
RMM:   1    -0.413172081312E+03    0.21798E-02   -0.10075E+01  4293   0.769E-01    0.891E-01
RMM:   2    -0.413179103858E+03   -0.70225E-02   -0.12521E-01  4280   0.101E-01    0.650E-01
RMM:   3    -0.413176159374E+03    0.29445E-02   -0.11159E-02  4776   0.454E-02    0.119E-01
RMM:   4    -0.413200531841E+03   -0.24372E-01   -0.25186E-02  5141   0.132E-01    0.652E-01
RMM:   5    -0.413175729890E+03    0.24802E-01   -0.12278E-02  4801   0.109E-01    0.440E-02
RMM:   6    -0.413175871598E+03   -0.14171E-03   -0.21161E-03  5812   0.438E-02    0.272E-02
RMM:   7    -0.413175874611E+03   -0.30135E-05   -0.27503E-04  5723   0.159E-02    0.153E-02
RMM:   8    -0.413175870270E+03    0.43418E-05   -0.60682E-05  5006   0.796E-03    0.964E-03
RMM:   9    -0.413175865069E+03    0.52002E-05   -0.12379E-05  4030   0.408E-03    0.716E-03
RMM:  10    -0.413175863323E+03    0.17464E-05   -0.16655E-06  2551   0.214E-03    0.456E-03
RMM:  11    -0.413175861215E+03    0.21078E-05   -0.15778E-06  2532   0.200E-03    0.229E-03
RMM:  12    -0.413175858236E+03    0.29796E-05   -0.12969E-06  2504   0.180E-03    0.716E-04
RMM:  13    -0.413175857382E+03    0.85319E-06   -0.41566E-07  2200   0.113E-03
   24 T=    63. E= -.41286724E+03 F= -.41317586E+03 E0= -.41315401E+03  EK= 0.30862E+00 SP= 0.00E+00 SK= 0.00E+00
       N       E                     dE             d eps       ncg     rms          rms(c)
RMM:   1    -0.413173015356E+03    0.28429E-02   -0.10159E+01  4298   0.776E-01    0.906E-01
RMM:   2    -0.413179929173E+03   -0.69138E-02   -0.12565E-01  4277   0.103E-01    0.656E-01
RMM:   3    -0.413177001137E+03    0.29280E-02   -0.11323E-02  4709   0.456E-02    0.115E-01
RMM:   4    -0.413196741615E+03   -0.19740E-01   -0.20242E-02  5144   0.118E-01    0.588E-01
RMM:   5    -0.413176688493E+03    0.20053E-01   -0.99127E-03  4813   0.980E-02    0.422E-02
RMM:   6    -0.413176795903E+03   -0.10741E-03   -0.17275E-03  5818   0.391E-02    0.253E-02
RMM:   7    -0.413176793954E+03    0.19493E-05   -0.19482E-04  5593   0.138E-02    0.118E-02
RMM:   8    -0.413176789227E+03    0.47266E-05   -0.34880E-05  4823   0.605E-03    0.825E-03
RMM:   9    -0.413176785782E+03    0.34447E-05   -0.75164E-06  3344   0.311E-03    0.628E-03
RMM:  10    -0.413176784185E+03    0.15976E-05   -0.14571E-06  2547   0.200E-03    0.423E-03
RMM:  11    -0.413176780239E+03    0.39452E-05   -0.20287E-06  2584   0.222E-03    0.197E-03
RMM:  12    -0.413176776185E+03    0.40546E-05   -0.11083E-06  2483   0.172E-03    0.105E-03
RMM:  13    -0.413176775871E+03    0.31384E-06   -0.31319E-07  2182   0.103E-03
   25 T=    63. E= -.41286704E+03 F= -.41317678E+03 E0= -.41315498E+03  EK= 0.30974E+00 SP= 0.00E+00 SK= 0.00E+00
       N       E                     dE             d eps       ncg     rms          rms(c)
RMM:   1    -0.413173979281E+03    0.27969E-02   -0.10167E+01  4293   0.762E-01    0.919E-01
RMM:   2    -0.413180647614E+03   -0.66683E-02   -0.12395E-01  4276   0.102E-01    0.650E-01
RMM:   3    -0.413178197751E+03    0.24499E-02   -0.11251E-02  4498   0.449E-02    0.116E-01
RMM:   4    -0.413187885897E+03   -0.96881E-02   -0.10030E-02  5147   0.837E-02    0.415E-01
RMM:   5    -0.413178121155E+03    0.97647E-02   -0.49666E-03  4830   0.687E-02    0.394E-02
RMM:   6    -0.413178144414E+03   -0.23259E-04   -0.89281E-04  5811   0.279E-02    0.216E-02
RMM:   7    -0.413178143033E+03    0.13816E-05   -0.16801E-04  5480   0.132E-02    0.144E-02
RMM:   8    -0.413178127350E+03    0.15683E-04   -0.26396E-05  4551   0.593E-03    0.689E-03
RMM:   9    -0.413178123920E+03    0.34291E-05   -0.50952E-06  3011   0.283E-03    0.522E-03
RMM:  10    -0.413178118827E+03    0.50937E-05   -0.12731E-06  2492   0.195E-03    0.297E-03
RMM:  11    -0.413178112063E+03    0.67635E-05   -0.99069E-07  2482   0.167E-03    0.148E-03
RMM:  12    -0.413178106261E+03    0.58020E-05   -0.50364E-07  2335   0.121E-03    0.650E-04
RMM:  13    -0.413178104435E+03    0.18262E-05   -0.24291E-07  1873   0.849E-04    0.323E-04
RMM:  14    -0.413178102010E+03    0.24249E-05   -0.14204E-07  1440   0.718E-04    0.223E-04
RMM:  15    -0.413178096361E+03    0.56493E-05   -0.14838E-07  1580   0.733E-04    0.160E-04
RMM:  16    -0.413178095407E+03    0.95355E-06   -0.51930E-08   922   0.591E-04
   26 T=    63. E= -.41286702E+03 F= -.41317810E+03 E0= -.41315635E+03  EK= 0.31108E+00 SP= 0.00E+00 SK= 0.00E+00
       N       E                     dE             d eps       ncg     rms          rms(c)
RMM:   1    -0.413175470991E+03    0.26254E-02   -0.10143E+01  4292   0.783E-01    0.897E-01
RMM:   2    -0.413182572565E+03   -0.71016E-02   -0.12573E-01  4273   0.105E-01    0.651E-01
RMM:   3    -0.413179978546E+03    0.25940E-02   -0.11291E-02  4656   0.494E-02    0.117E-01
RMM:   4    -0.413199929635E+03   -0.19951E-01   -0.20366E-02  5145   0.119E-01    0.591E-01
RMM:   5    -0.413179704560E+03    0.20225E-01   -0.10139E-02  4816   0.983E-02    0.422E-02
RMM:   6    -0.413179803892E+03   -0.99333E-04   -0.16833E-03  5822   0.388E-02    0.257E-02
RMM:   7    -0.413179802969E+03    0.92383E-06   -0.20386E-04  5566   0.143E-02    0.122E-02
RMM:   8    -0.413179798527E+03    0.44411E-05   -0.35586E-05  4814   0.618E-03    0.815E-03
RMM:   9    -0.413179795060E+03    0.34679E-05   -0.84112E-06  3493   0.326E-03    0.635E-03
RMM:  10    -0.413179793169E+03    0.18908E-05   -0.14941E-06  2542   0.205E-03    0.410E-03
RMM:  11    -0.413179789710E+03    0.34583E-05   -0.18705E-06  2577   0.211E-03    0.192E-03
RMM:  12    -0.413179785913E+03    0.37971E-05   -0.10483E-06  2477   0.168E-03    0.944E-04
RMM:  13    -0.413179785371E+03    0.54273E-06   -0.31460E-07  2164   0.103E-03
   27 T=    64. E= -.41286710E+03 F= -.41317979E+03 E0= -.41315809E+03  EK= 0.31268E+00 SP= 0.00E+00 SK= 0.00E+00
       N       E                     dE             d eps       ncg     rms          rms(c)
RMM:   1    -0.413177464941E+03    0.23210E-02   -0.10270E+01  4292   0.799E-01    0.906E-01
RMM:   2    -0.413183936209E+03   -0.64713E-02   -0.13011E-01  4274   0.107E-01    0.662E-01
RMM:   3    -0.413180993101E+03    0.29431E-02   -0.11434E-02  4351   0.465E-02    0.102E-01
RMM:   4    -0.413184936317E+03   -0.39432E-02   -0.44300E-03  5155   0.555E-02    0.267E-01
RMM:   5    -0.413180966600E+03    0.39697E-02   -0.20261E-03  4821   0.441E-02    0.360E-02
RMM:   6    -0.413180976672E+03   -0.10073E-04   -0.49994E-04  5746   0.208E-02    0.214E-02
RMM:   7    -0.413180968663E+03    0.80100E-05   -0.17660E-04  5229   0.135E-02    0.151E-02
RMM:   8    -0.413180957201E+03    0.11462E-04   -0.12007E-05  3760   0.483E-03    0.598E-03
RMM:   9    -0.413180955459E+03    0.17422E-05   -0.25940E-06  2632   0.224E-03    0.379E-03
RMM:  10    -0.413180953137E+03    0.23219E-05   -0.13329E-06  2483   0.185E-03    0.204E-03
RMM:  11    -0.413180950968E+03    0.21689E-05   -0.61799E-07  2380   0.133E-03    0.982E-04
RMM:  12    -0.413180948879E+03    0.20888E-05   -0.35963E-07  2041   0.979E-04    0.379E-04
RMM:  13    -0.413180947011E+03    0.18683E-05   -0.22081E-07  1647   0.801E-04    0.268E-04
RMM:  14    -0.413180944909E+03    0.21020E-05   -0.12966E-07  1273   0.693E-04    0.157E-04
RMM:  15    -0.413180942225E+03    0.26837E-05   -0.10391E-07  1208   0.663E-04    0.753E-05
RMM:  16    -0.413180940529E+03    0.16963E-05   -0.63852E-08  1056   0.607E-04    0.586E-05
RMM:  17    -0.413180938144E+03    0.23853E-05   -0.61977E-08  1108   0.598E-04    0.421E-05
RMM:  18    -0.413180937585E+03    0.55887E-06   -0.24562E-08   770   0.531E-04
   28 T=    64. E= -.41286674E+03 F= -.41318094E+03 E0= -.41315929E+03  EK= 0.31420E+00 SP= 0.00E+00 SK= 0.00E+00
       N       E                     dE             d eps       ncg     rms          rms(c)
RMM:   1    -0.413178785540E+03    0.21526E-02   -0.10296E+01  4286   0.783E-01    0.927E-01
RMM:   2    -0.413185694683E+03   -0.69091E-02   -0.12629E-01  4268   0.107E-01    0.656E-01
RMM:   3    -0.413183053240E+03    0.26414E-02   -0.11571E-02  4597   0.489E-02    0.123E-01
RMM:   4    -0.413198706704E+03   -0.15653E-01   -0.15900E-02  5157   0.106E-01    0.524E-01
RMM:   5    -0.413182932155E+03    0.15775E-01   -0.79379E-03  4818   0.865E-02    0.419E-02
RMM:   6    -0.413182992061E+03   -0.59905E-04   -0.13315E-03  5844   0.342E-02    0.250E-02
RMM:   7    -0.413182990144E+03    0.19165E-05   -0.19381E-04  5557   0.142E-02    0.137E-02
RMM:   8    -0.413182977553E+03    0.12592E-04   -0.35384E-05  4798   0.644E-03    0.782E-03
RMM:   9    -0.413182974847E+03    0.27052E-05   -0.78264E-06  3483   0.337E-03    0.617E-03
RMM:  10    -0.413182969648E+03    0.51995E-05   -0.12533E-06  2509   0.203E-03    0.357E-03
RMM:  11    -0.413182964297E+03    0.53509E-05   -0.10401E-06  2498   0.168E-03    0.184E-03
RMM:  12    -0.413182957882E+03    0.64153E-05   -0.87922E-07  2457   0.150E-03    0.849E-04
RMM:  13    -0.413182955964E+03    0.19177E-05   -0.31438E-07  2119   0.992E-04    0.443E-04
RMM:  14    -0.413182954738E+03    0.12257E-05   -0.14606E-07  1473   0.722E-04    0.346E-04
RMM:  15    -0.413182950895E+03    0.38437E-05   -0.12697E-07  1567   0.721E-04    0.174E-04
RMM:  16    -0.413182948670E+03    0.22244E-05   -0.65121E-08  1132   0.616E-04    0.170E-04
RMM:  17    -0.413182946364E+03    0.23063E-05   -0.45031E-08   948   0.579E-04    0.128E-04
RMM:  18    -0.413182943315E+03    0.30486E-05   -0.49484E-08  1019   0.585E-04    0.588E-05
RMM:  19    -0.413182942066E+03    0.12494E-05   -0.24346E-08   782   0.544E-04    0.247E-05
RMM:  20    -0.413182941505E+03    0.56101E-06   -0.15476E-08   729   0.535E-04
   29 T=    64. E= -.41286695E+03 F= -.41318294E+03 E0= -.41316134E+03  EK= 0.31599E+00 SP= 0.00E+00 SK= 0.00E+00
       N       E                     dE             d eps       ncg     rms          rms(c)
RMM:   1    -0.413180852199E+03    0.20899E-02   -0.10263E+01  4288   0.799E-01    0.907E-01
RMM:   2    -0.413187921725E+03   -0.70695E-02   -0.12770E-01  4267   0.114E-01    0.654E-01
RMM:   3    -0.413184980568E+03    0.29412E-02   -0.11434E-02  4473   0.506E-02    0.113E-01
RMM:   4    -0.413194377264E+03   -0.93967E-02   -0.97562E-03  5152   0.829E-02    0.409E-01
RMM:   5    -0.413184890703E+03    0.94866E-02   -0.48485E-03  4834   0.673E-02    0.389E-02
RMM:   6    -0.413184918054E+03   -0.27351E-04   -0.86639E-04  5830   0.276E-02    0.240E-02
RMM:   7    -0.413184916283E+03    0.17708E-05   -0.22130E-04  5393   0.149E-02    0.159E-02
RMM:   8    -0.413184899891E+03    0.16392E-04   -0.25495E-05  4556   0.625E-03    0.692E-03
RMM:   9    -0.413184897758E+03    0.21332E-05   -0.47334E-06  2957   0.275E-03    0.494E-03
RMM:  10    -0.413184894196E+03    0.35616E-05   -0.14005E-06  2495   0.195E-03    0.272E-03
RMM:  11    -0.413184890434E+03    0.37623E-05   -0.88408E-07  2466   0.159E-03    0.135E-03
RMM:  12    -0.413184887012E+03    0.34218E-05   -0.51376E-07  2313   0.120E-03    0.676E-04
RMM:  13    -0.413184885440E+03    0.15719E-05   -0.23704E-07  1865   0.853E-04    0.290E-04
RMM:  14    -0.413184883556E+03    0.18840E-05   -0.13189E-07  1348   0.700E-04    0.175E-04
RMM:  15    -0.413184880774E+03    0.27820E-05   -0.92192E-08  1192   0.659E-04    0.826E-05
RMM:  16    -0.413184879068E+03    0.17062E-05   -0.55870E-08   992   0.616E-04    0.671E-05
RMM:  17    -0.413184877245E+03    0.18227E-05   -0.44321E-08   975   0.602E-04    0.451E-05
RMM:  18    -0.413184874631E+03    0.26148E-05   -0.52693E-08  1117   0.609E-04    0.310E-05
RMM:  19    -0.413184874108E+03    0.52227E-06   -0.16941E-08   709   0.534E-04
   30 T=    65. E= -.41286710E+03 F= -.41318487E+03 E0= -.41316333E+03  EK= 0.31778E+00 SP= 0.00E+00 SK= 0.00E+00
       N       E                     dE             d eps       ncg     rms          rms(c)
RMM:   1    -0.413183074431E+03    0.18002E-02   -0.10393E+01  4291   0.826E-01    0.909E-01
RMM:   2    -0.413190105130E+03   -0.70307E-02   -0.13259E-01  4269   0.118E-01    0.667E-01
RMM:   3    -0.413186663590E+03    0.34415E-02   -0.11907E-02  4529   0.560E-02    0.110E-01
RMM:   4    -0.413199809610E+03   -0.13146E-01   -0.13413E-02  5145   0.970E-02    0.482E-01
RMM:   5    -0.413186539583E+03    0.13270E-01   -0.66833E-03  4822   0.791E-02    0.397E-02
RMM:   6    -0.413186588487E+03   -0.48904E-04   -0.11808E-03  5843   0.314E-02    0.241E-02
RMM:   7    -0.413186593621E+03   -0.51336E-05   -0.20576E-04  5514   0.142E-02    0.150E-02
RMM:   8    -0.413186579836E+03    0.13785E-04   -0.35028E-05  4751   0.661E-03    0.745E-03
RMM:   9    -0.413186578772E+03    0.10642E-05   -0.68094E-06  3268   0.322E-03    0.573E-03
RMM:  10    -0.413186576676E+03    0.20959E-05   -0.12735E-06  2503   0.198E-03    0.329E-03
RMM:  11    -0.413186574642E+03    0.20337E-05   -0.91769E-07  2490   0.159E-03    0.170E-03
RMM:  12    -0.413186572146E+03    0.24959E-05   -0.76127E-07  2442   0.139E-03    0.835E-04
RMM:  13    -0.413186571144E+03    0.10021E-05   -0.28810E-07  2056   0.947E-04    0.395E-04
RMM:  14    -0.413186570335E+03    0.80866E-06   -0.13633E-07  1394   0.706E-04
   31 T=    65. E= -.41286696E+03 F= -.41318657E+03 E0= -.41316507E+03  EK= 0.31961E+00 SP= 0.00E+00 SK= 0.00E+00
       N       E                     dE             d eps       ncg     rms          rms(c)
RMM:   1    -0.413184984370E+03    0.15868E-02   -0.10443E+01  4292   0.814E-01    0.933E-01
RMM:   2    -0.413192072012E+03   -0.70876E-02   -0.13040E-01  4270   0.120E-01    0.664E-01
RMM:   3    -0.413189239560E+03    0.28325E-02   -0.11849E-02  4398   0.557E-02    0.117E-01
RMM:   4    -0.413194679089E+03   -0.54395E-02   -0.59705E-03  5156   0.650E-02    0.312E-01
RMM:   5    -0.413189212675E+03    0.54664E-02   -0.28076E-03  4830   0.514E-02    0.387E-02
RMM:   6    -0.413189228656E+03   -0.15981E-04   -0.63964E-04  5739   0.241E-02    0.271E-02
RMM:   7    -0.413189205948E+03    0.22707E-04   -0.23261E-04  5236   0.152E-02    0.155E-02
RMM:   8    -0.413189194521E+03    0.11427E-04   -0.17333E-05  4113   0.536E-03    0.644E-03
RMM:   9    -0.413189191368E+03    0.31528E-05   -0.26087E-06  2650   0.224E-03    0.416E-03
RMM:  10    -0.413189185119E+03    0.62493E-05   -0.11948E-06  2481   0.179E-03    0.213E-03
RMM:  11    -0.413189179914E+03    0.52055E-05   -0.68365E-07  2412   0.136E-03    0.105E-03
RMM:  12    -0.413189174929E+03    0.49841E-05   -0.39140E-07  2156   0.105E-03    0.440E-04
RMM:  13    -0.413189171883E+03    0.30464E-05   -0.21062E-07  1702   0.804E-04    0.241E-04
RMM:  14    -0.413189168307E+03    0.35764E-05   -0.11497E-07  1261   0.683E-04    0.156E-04
RMM:  15    -0.413189163036E+03    0.52709E-05   -0.99984E-08  1272   0.670E-04    0.842E-05
RMM:  16    -0.413189160996E+03    0.20396E-05   -0.51670E-08   978   0.593E-04    0.678E-05
RMM:  17    -0.413189156620E+03    0.43763E-05   -0.71076E-08  1280   0.630E-04    0.404E-05
RMM:  18    -0.413189155293E+03    0.13270E-05   -0.29429E-08   842   0.542E-04    0.219E-05
RMM:  19    -0.413189154890E+03    0.40249E-06   -0.15145E-08   698   0.517E-04
   32 T=    66. E= -.41286736E+03 F= -.41318915E+03 E0= -.41316771E+03  EK= 0.32179E+00 SP= 0.00E+00 SK= 0.00E+00
       N       E                     dE             d eps       ncg     rms          rms(c)
RMM:   1    -0.413186642978E+03    0.25123E-02   -0.10418E+01  4291   0.827E-01    0.920E-01
RMM:   2    -0.413194180387E+03   -0.75374E-02   -0.13118E-01  4271   0.123E-01    0.659E-01
RMM:   3    -0.413191040024E+03    0.31404E-02   -0.11567E-02  4256   0.535E-02    0.114E-01
RMM:   4    -0.413191842615E+03   -0.80259E-03   -0.15132E-03  5062   0.313E-02    0.116E-01
RMM:   5    -0.413191140135E+03    0.70248E-03   -0.40508E-04  4785   0.203E-02    0.380E-02
RMM:   6    -0.413191147032E+03   -0.68971E-05   -0.30879E-04  5382   0.173E-02    0.273E-02
RMM:   7    -0.413191112694E+03    0.34339E-04   -0.18105E-04  4878   0.131E-02    0.156E-02
RMM:   8    -0.413191107844E+03    0.48494E-05   -0.18447E-05  4047   0.470E-03    0.532E-03
RMM:   9    -0.413191106377E+03    0.14670E-05   -0.24108E-06  2480   0.207E-03    0.268E-03
RMM:  10    -0.413191099777E+03    0.66005E-05   -0.87216E-07  2403   0.146E-03    0.111E-03
RMM:  11    -0.413191095417E+03    0.43603E-05   -0.36791E-07  2039   0.952E-04    0.412E-04
RMM:  12    -0.413191091712E+03    0.37048E-05   -0.19509E-07  1654   0.779E-04    0.241E-04
RMM:  13    -0.413191088671E+03    0.30406E-05   -0.10960E-07  1239   0.675E-04    0.158E-04
RMM:  14    -0.413191084441E+03    0.42297E-05   -0.82747E-08  1142   0.645E-04    0.873E-05
RMM:  15    -0.413191080489E+03    0.39529E-05   -0.62495E-08  1071   0.615E-04    0.769E-05
RMM:  16    -0.413191076901E+03    0.35873E-05   -0.49902E-08   971   0.589E-04    0.522E-05
RMM:  17    -0.413191075927E+03    0.97480E-06   -0.20993E-08   709   0.532E-04
   33 T=    66. E= -.41286721E+03 F= -.41319108E+03 E0= -.41316968E+03  EK= 0.32386E+00 SP= 0.00E+00 SK= 0.00E+00
       N       E                     dE             d eps       ncg     rms          rms(c)
RMM:   1    -0.413195267563E+03   -0.41907E-02   -0.10592E+01  4298   0.903E-01    0.912E-01
RMM:   2    -0.413196892971E+03   -0.16254E-02   -0.14774E-01  4269   0.134E-01    0.673E-01
RMM:   3    -0.413193388557E+03    0.35044E-02   -0.11214E-02  4215   0.549E-02    0.122E-01
RMM:   4    -0.413193544335E+03   -0.15578E-03   -0.10936E-03  4761   0.229E-02    0.479E-02
RMM:   5    -0.413193515044E+03    0.29291E-04   -0.13146E-04  4850   0.111E-02    0.438E-02
RMM:   6    -0.413193491665E+03    0.23379E-04   -0.25958E-04  5214   0.157E-02    0.254E-02
RMM:   7    -0.413193461565E+03    0.30100E-04   -0.16102E-04  4821   0.129E-02    0.140E-02
RMM:   8    -0.413193458562E+03    0.30026E-05   -0.16809E-05  3783   0.441E-03    0.429E-03
RMM:   9    -0.413193458063E+03    0.49877E-06   -0.22206E-06  2379   0.200E-03
   34 T=    66. E= -.41286720E+03 F= -.41319346E+03 E0= -.41317211E+03  EK= 0.32626E+00 SP= 0.00E+00 SK= 0.00E+00
       N       E                     dE             d eps       ncg     rms          rms(c)
RMM:   1    -0.413194338989E+03   -0.88043E-03   -0.10644E+01  4299   0.898E-01    0.937E-01
RMM:   2    -0.413199004893E+03   -0.46659E-02   -0.13717E-01  4266   0.129E-01    0.673E-01
RMM:   3    -0.413196072891E+03    0.29320E-02   -0.11826E-02  4418   0.569E-02    0.120E-01
RMM:   4    -0.413201200387E+03   -0.51275E-02   -0.56798E-03  5170   0.640E-02    0.303E-01
RMM:   5    -0.413196105514E+03    0.50949E-02   -0.26328E-03  4820   0.507E-02    0.404E-02
RMM:   6    -0.413196096427E+03    0.90866E-05   -0.59337E-04  5668   0.246E-02    0.304E-02
RMM:   7    -0.413196078543E+03    0.17885E-04   -0.23602E-04  5206   0.144E-02    0.153E-02
RMM:   8    -0.413196069320E+03    0.92225E-05   -0.23145E-05  4518   0.556E-03    0.666E-03
RMM:   9    -0.413196066822E+03    0.24976E-05   -0.35224E-06  2690   0.227E-03    0.345E-03
RMM:  10    -0.413196060090E+03    0.67324E-05   -0.10796E-06  2483   0.171E-03    0.177E-03
RMM:  11    -0.413196054461E+03    0.56292E-05   -0.55509E-07  2357   0.121E-03    0.985E-04
RMM:  12    -0.413196048988E+03    0.54726E-05   -0.35725E-07  2072   0.991E-04    0.371E-04
RMM:  13    -0.413196045206E+03    0.37824E-05   -0.18116E-07  1480   0.758E-04    0.221E-04
RMM:  14    -0.413196040831E+03    0.43751E-05   -0.11293E-07  1117   0.677E-04    0.170E-04
RMM:  15    -0.413196034174E+03    0.66572E-05   -0.11467E-07  1344   0.690E-04    0.911E-05
RMM:  16    -0.413196032032E+03    0.21414E-05   -0.59197E-08  1028   0.591E-04    0.718E-05
RMM:  17    -0.413196028211E+03    0.38210E-05   -0.57955E-08  1113   0.596E-04    0.357E-05
RMM:  18    -0.413196026694E+03    0.15170E-05   -0.30945E-08   832   0.535E-04    0.196E-05
RMM:  19    -0.413196026295E+03    0.39966E-06   -0.16153E-08   668   0.510E-04
   35 T=    67. E= -.41286718E+03 F= -.41319603E+03 E0= -.41317472E+03  EK= 0.32884E+00 SP= 0.00E+00 SK= 0.00E+00
       N       E                     dE             d eps       ncg     rms          rms(c)
RMM:   1    -0.413197752602E+03   -0.17259E-02   -0.10666E+01  4298   0.921E-01    0.937E-01
RMM:   2    -0.413200711104E+03   -0.29585E-02   -0.13591E-01  4249   0.130E-01    0.667E-01
RMM:   3    -0.413198218197E+03    0.24929E-02   -0.11947E-02  4640   0.572E-02    0.135E-01
RMM:   4    -0.413219812964E+03   -0.21595E-01   -0.21831E-02  5164   0.124E-01    0.616E-01
RMM:   5    -0.413198040768E+03    0.21772E-01   -0.11057E-02  4809   0.102E-01    0.452E-02
RMM:   6    -0.413198067328E+03   -0.26560E-04   -0.18169E-03  5837   0.408E-02    0.290E-02
RMM:   7    -0.413198073547E+03   -0.62191E-05   -0.30418E-04  5589   0.169E-02    0.173E-02
RMM:   8    -0.413198057755E+03    0.15791E-04   -0.54393E-05  4996   0.800E-03    0.893E-03
RMM:   9    -0.413198054671E+03    0.30839E-05   -0.11693E-05  3913   0.410E-03    0.635E-03
RMM:  10    -0.413198048496E+03    0.61757E-05   -0.16991E-06  2564   0.225E-03    0.357E-03
RMM:  11    -0.413198044055E+03    0.44405E-05   -0.92596E-07  2492   0.160E-03    0.210E-03
RMM:  12    -0.413198035247E+03    0.88077E-05   -0.12281E-06  2502   0.180E-03    0.108E-03
RMM:  13    -0.413198031309E+03    0.39382E-05   -0.44658E-07  2263   0.118E-03    0.590E-04
RMM:  14    -0.413198030576E+03    0.73339E-06   -0.19813E-07  1742   0.803E-04
   36 T=    67. E= -.41286672E+03 F= -.41319803E+03 E0= -.41317677E+03  EK= 0.33131E+00 SP= 0.00E+00 SK= 0.00E+00
       N       E                     dE             d eps       ncg     rms          rms(c)
RMM:   1    -0.413212350034E+03   -0.14319E-01   -0.10858E+01  4305   0.103E+00    0.921E-01
RMM:   2    -0.413204540235E+03    0.78098E-02   -0.15970E-01  4248   0.144E-01    0.679E-01
RMM:   3    -0.413201205011E+03    0.33352E-02   -0.10920E-02  4582   0.575E-02    0.149E-01
RMM:   4    -0.413218468413E+03   -0.17263E-01   -0.17711E-02  5161   0.113E-01    0.551E-01
RMM:   5    -0.413201096197E+03    0.17372E-01   -0.87802E-03  4808   0.913E-02    0.435E-02
RMM:   6    -0.413201108776E+03   -0.12579E-04   -0.14881E-03  5838   0.368E-02    0.283E-02
RMM:   7    -0.413201118766E+03   -0.99900E-05   -0.29580E-04  5525   0.165E-02    0.173E-02
RMM:   8    -0.413201102223E+03    0.16543E-04   -0.49913E-05  4962   0.787E-03    0.804E-03
RMM:   9    -0.413201100510E+03    0.17120E-05   -0.93110E-06  3599   0.376E-03    0.547E-03
RMM:  10    -0.413201096630E+03    0.38802E-05   -0.14474E-06  2534   0.209E-03    0.314E-03
RMM:  11    -0.413201092952E+03    0.36783E-05   -0.93276E-07  2497   0.157E-03    0.167E-03
RMM:  12    -0.413201087574E+03    0.53785E-05   -0.89885E-07  2465   0.149E-03    0.846E-04
RMM:  13    -0.413201085167E+03    0.24063E-05   -0.34128E-07  2100   0.100E-03    0.447E-04
RMM:  14    -0.413201084137E+03    0.10302E-05   -0.15792E-07  1433   0.729E-04    0.315E-04
RMM:  15    -0.413201080780E+03    0.33571E-05   -0.11530E-07  1301   0.695E-04    0.127E-04
RMM:  16    -0.413201078577E+03    0.22034E-05   -0.72335E-08  1077   0.636E-04    0.892E-05
RMM:  17    -0.413201076096E+03    0.24808E-05   -0.58207E-08  1092   0.617E-04    0.111E-04
RMM:  18    -0.413201073616E+03    0.24798E-05   -0.48298E-08  1070   0.593E-04    0.793E-05
RMM:  19    -0.413201072038E+03    0.15776E-05   -0.27728E-08   823   0.547E-04    0.377E-05
RMM:  20    -0.413201071738E+03    0.30005E-06   -0.15218E-08   702   0.526E-04
   37 T=    68. E= -.41286697E+03 F= -.41320107E+03 E0= -.41317985E+03  EK= 0.33410E+00 SP= 0.00E+00 SK= 0.00E+00
       N       E                     dE             d eps       ncg     rms          rms(c)
RMM:   1    -0.413221729645E+03   -0.20658E-01   -0.11043E+01  4306   0.108E+00    0.940E-01
RMM:   2    -0.413207205206E+03    0.14524E-01   -0.16436E-01  4249   0.137E-01    0.685E-01
RMM:   3    -0.413203979016E+03    0.32262E-02   -0.11165E-02  4800   0.572E-02    0.178E-01
RMM:   4    -0.413244565297E+03   -0.40586E-01   -0.41883E-02  5154   0.171E-01    0.836E-01
RMM:   5    -0.413203406860E+03    0.41158E-01   -0.20821E-02  4798   0.140E-01    0.520E-02
RMM:   6    -0.413203524117E+03   -0.11726E-03   -0.33230E-03  5859   0.539E-02    0.327E-02
RMM:   7    -0.413203530339E+03   -0.62215E-05   -0.37069E-04  5674   0.181E-02    0.166E-02
RMM:   8    -0.413203524839E+03    0.55001E-05   -0.50176E-05  4792   0.704E-03    0.876E-03
RMM:   9    -0.413203519963E+03    0.48759E-05   -0.11437E-05  3545   0.363E-03    0.571E-03
RMM:  10    -0.413203518242E+03    0.17208E-05   -0.27104E-06  2663   0.231E-03    0.411E-03
RMM:  11    -0.413203513818E+03    0.44242E-05   -0.14482E-06  2500   0.203E-03    0.226E-03
RMM:  12    -0.413203506884E+03    0.69339E-05   -0.15931E-06  2520   0.203E-03    0.106E-03
RMM:  13    -0.413203504894E+03    0.19900E-05   -0.49090E-07  2374   0.128E-03    0.714E-04
RMM:  14    -0.413203504624E+03    0.26968E-06   -0.21840E-07  1882   0.841E-04
   38 T=    69. E= -.41286683E+03 F= -.41320350E+03 E0= -.41318233E+03  EK= 0.33668E+00 SP= 0.00E+00 SK= 0.00E+00
       N       E                     dE             d eps       ncg     rms          rms(c)
RMM:   1    -0.413205147110E+03   -0.16422E-02   -0.10885E+01  4308   0.101E+00    0.954E-01
RMM:   2    -0.413209484915E+03   -0.43378E-02   -0.14209E-01  4254   0.125E-01    0.677E-01
RMM:   3    -0.413206530132E+03    0.29548E-02   -0.12174E-02  4833   0.551E-02    0.158E-01
RMM:   4    -0.413242254456E+03   -0.35724E-01   -0.36942E-02  5140   0.161E-01    0.787E-01
RMM:   5    -0.413206026028E+03    0.36228E-01   -0.18235E-02  4808   0.131E-01    0.515E-02
RMM:   6    -0.413206110967E+03   -0.84939E-04   -0.29423E-03  5838   0.507E-02    0.324E-02
RMM:   7    -0.413206119706E+03   -0.87384E-05   -0.38500E-04  5727   0.183E-02    0.181E-02
RMM:   8    -0.413206106664E+03    0.13042E-04   -0.71039E-05  5074   0.877E-03    0.106E-02
RMM:   9    -0.413206102165E+03    0.44992E-05   -0.20607E-05  4562   0.510E-03    0.719E-03
RMM:  10    -0.413206094581E+03    0.75832E-05   -0.27026E-06  2663   0.254E-03    0.427E-03
RMM:  11    -0.413206089707E+03    0.48745E-05   -0.12528E-06  2497   0.183E-03    0.262E-03
RMM:  12    -0.413206078085E+03    0.11622E-04   -0.16442E-06  2522   0.210E-03    0.123E-03
RMM:  13    -0.413206072731E+03    0.53538E-05   -0.62813E-07  2382   0.140E-03    0.841E-04
RMM:  14    -0.413206072462E+03    0.26912E-06   -0.25459E-07  1995   0.906E-04
   39 T=    69. E= -.41286684E+03 F= -.41320607E+03 E0= -.41318493E+03  EK= 0.33923E+00 SP= 0.00E+00 SK= 0.00E+00
       N       E                     dE             d eps       ncg     rms          rms(c)
RMM:   1    -0.413226247436E+03   -0.20175E-01   -0.11086E+01  4309   0.115E+00    0.931E-01
RMM:   2    -0.413212840633E+03    0.13407E-01   -0.16563E-01  4260   0.135E-01    0.683E-01
RMM:   3    -0.413209766460E+03    0.30742E-02   -0.11275E-02  4961   0.566E-02    0.198E-01
RMM:   4    -0.413260821061E+03   -0.51055E-01   -0.54872E-02  5137   0.195E-01    0.935E-01
RMM:   5    -0.413208714940E+03    0.52106E-01   -0.25860E-02  4787   0.157E-01    0.574E-02
RMM:   6    -0.413208879360E+03   -0.16442E-03   -0.41762E-03  5834   0.602E-02    0.345E-02
RMM:   7    -0.413208890147E+03   -0.10787E-04   -0.46841E-04  5768   0.197E-02    0.190E-02
RMM:   8    -0.413208889584E+03    0.56306E-06   -0.91301E-05  5199   0.926E-03    0.120E-02
RMM:   9    -0.413208879700E+03    0.98847E-05   -0.27864E-05  4708   0.566E-03    0.730E-03
RMM:  10    -0.413208875311E+03    0.43885E-05   -0.43622E-06  2810   0.295E-03    0.442E-03
RMM:  11    -0.413208871540E+03    0.37713E-05   -0.17632E-06  2519   0.215E-03    0.265E-03
RMM:  12    -0.413208863594E+03    0.79460E-05   -0.16128E-06  2520   0.211E-03    0.916E-04
RMM:  13    -0.413208859531E+03    0.40628E-05   -0.64950E-07  2410   0.142E-03    0.748E-04
RMM:  14    -0.413208859124E+03    0.40744E-06   -0.27490E-07  2048   0.936E-04
   40 T=    70. E= -.41286717E+03 F= -.41320886E+03 E0= -.41318776E+03  EK= 0.34169E+00 SP= 0.00E+00 SK= 0.00E+00
       N       E                     dE             d eps       ncg     rms          rms(c)
RMM:   1    -0.413227300183E+03   -0.18441E-01   -0.11205E+01  4310   0.119E+00    0.943E-01
RMM:   2    -0.413214882837E+03    0.12417E-01   -0.17373E-01  4265   0.142E-01    0.694E-01
RMM:   3    -0.413212281029E+03    0.26018E-02   -0.11832E-02  5011   0.613E-02    0.232E-01
RMM:   4    -0.413269097732E+03   -0.56817E-01   -0.64324E-02  5131   0.211E-01    0.989E-01
RMM:   5    -0.413210584832E+03    0.58513E-01   -0.28450E-02  4780   0.166E-01    0.614E-02
RMM:   6    -0.413210776889E+03   -0.19206E-03   -0.46818E-03  5823   0.637E-02    0.356E-02
RMM:   7    -0.413210793291E+03   -0.16402E-04   -0.56349E-04  5833   0.211E-02    0.223E-02
RMM:   8    -0.413210794602E+03   -0.13109E-05   -0.12702E-04  5271   0.110E-02    0.141E-02
RMM:   9    -0.413210780971E+03    0.13631E-04   -0.27978E-05  4711   0.614E-03    0.679E-03
RMM:  10    -0.413210776801E+03    0.41692E-05   -0.56633E-06  2991   0.305E-03    0.421E-03
RMM:  11    -0.413210773403E+03    0.33986E-05   -0.15826E-06  2507   0.208E-03    0.251E-03
RMM:  12    -0.413210766671E+03    0.67316E-05   -0.13609E-06  2499   0.195E-03    0.849E-04
RMM:  13    -0.413210762748E+03    0.39230E-05   -0.62696E-07  2412   0.137E-03    0.602E-04
RMM:  14    -0.413210762029E+03    0.71922E-06   -0.28111E-07  2043   0.932E-04
   41 T=    70. E= -.41286702E+03 F= -.41321076E+03 E0= -.41318969E+03  EK= 0.34374E+00 SP= 0.00E+00 SK= 0.00E+00
       N       E                     dE             d eps       ncg     rms          rms(c)
RMM:   1    -0.413217413293E+03   -0.66505E-02   -0.11110E+01  4311   0.118E+00    0.966E-01
RMM:   2    -0.413216477023E+03    0.93627E-03   -0.14923E-01  4289   0.136E-01    0.686E-01
RMM:   3    -0.413216329869E+03    0.14715E-03   -0.14601E-02  5073   0.737E-02    0.276E-01
RMM:   4    -0.413256031878E+03   -0.39702E-01   -0.54062E-02  5096   0.195E-01    0.853E-01
RMM:   5    -0.413213093802E+03    0.42938E-01   -0.19334E-02  4748   0.142E-01    0.596E-02
RMM:   6    -0.413213189616E+03   -0.95815E-04   -0.33972E-03  5793   0.546E-02    0.348E-02
RMM:   7    -0.413213195810E+03   -0.61942E-05   -0.45202E-04  5762   0.195E-02    0.218E-02
RMM:   8    -0.413213192335E+03    0.34755E-05   -0.12369E-04  5217   0.112E-02    0.130E-02
RMM:   9    -0.413213176688E+03    0.15647E-04   -0.21538E-05  4505   0.575E-03    0.548E-03
RMM:  10    -0.413213170729E+03    0.59591E-05   -0.46510E-06  2896   0.276E-03    0.347E-03
RMM:  11    -0.413213165098E+03    0.56307E-05   -0.12491E-06  2495   0.190E-03    0.192E-03
RMM:  12    -0.413213155691E+03    0.94069E-05   -0.86618E-07  2464   0.162E-03    0.716E-04
RMM:  13    -0.413213150197E+03    0.54944E-05   -0.41381E-07  2270   0.113E-03    0.385E-04
RMM:  14    -0.413213148229E+03    0.19675E-05   -0.21115E-07  1790   0.823E-04    0.261E-04
RMM:  15    -0.413213143238E+03    0.49910E-05   -0.12742E-07  1383   0.709E-04    0.131E-04
RMM:  16    -0.413213138570E+03    0.46680E-05   -0.88357E-08  1236   0.663E-04    0.140E-04
RMM:  17    -0.413213135112E+03    0.34580E-05   -0.63365E-08  1150   0.629E-04    0.892E-05
RMM:  18    -0.413213131653E+03    0.34589E-05   -0.55923E-08  1221   0.616E-04    0.618E-05
RMM:  19    -0.413213128914E+03    0.27393E-05   -0.39669E-08  1094   0.583E-04    0.380E-05
RMM:  20    -0.413213128492E+03    0.42241E-06   -0.17447E-08   760   0.529E-04
   42 T=    70. E= -.41286732E+03 F= -.41321313E+03 E0= -.41319209E+03  EK= 0.34581E+00 SP= 0.00E+00 SK= 0.00E+00
       N       E                     dE             d eps       ncg     rms          rms(c)
RMM:   1    -0.413235242475E+03   -0.22114E-01   -0.11225E+01  4312   0.133E+00    0.944E-01
RMM:   2    -0.413218437294E+03    0.16805E-01   -0.16329E-01  4309   0.148E-01    0.687E-01
RMM:   3    -0.413219762050E+03   -0.13248E-02   -0.15181E-02  5086   0.832E-02    0.330E-01
RMM:   4    -0.413253477592E+03   -0.33716E-01   -0.53201E-02  5085   0.195E-01    0.810E-01
RMM:   5    -0.413214962797E+03    0.38515E-01   -0.16631E-02  4722   0.135E-01    0.600E-02
RMM:   6    -0.413215017604E+03   -0.54807E-04   -0.29713E-03  5742   0.516E-02    0.339E-02
RMM:   7    -0.413215020847E+03   -0.32431E-05   -0.43116E-04  5776   0.190E-02    0.224E-02
RMM:   8    -0.413215017058E+03    0.37891E-05   -0.11746E-04  5180   0.111E-02    0.117E-02
RMM:   9    -0.413215004742E+03    0.12316E-04   -0.19663E-05  4435   0.557E-03    0.462E-03
RMM:  10    -0.413215001346E+03    0.33963E-05   -0.39423E-06  2790   0.256E-03    0.291E-03
RMM:  11    -0.413214997187E+03    0.41591E-05   -0.12510E-06  2494   0.185E-03    0.157E-03
RMM:  12    -0.413214991768E+03    0.54196E-05   -0.72485E-07  2433   0.145E-03    0.619E-04
RMM:  13    -0.413214988634E+03    0.31338E-05   -0.35743E-07  2061   0.102E-03    0.286E-04
RMM:  14    -0.413214986423E+03    0.22109E-05   -0.19720E-07  1578   0.790E-04    0.181E-04
RMM:  15    -0.413214982032E+03    0.43908E-05   -0.14173E-07  1312   0.720E-04    0.117E-04
RMM:  16    -0.413214980110E+03    0.19219E-05   -0.86906E-08  1121   0.657E-04    0.822E-05
RMM:  17    -0.413214977320E+03    0.27905E-05   -0.73201E-08  1184   0.651E-04    0.495E-05
RMM:  18    -0.413214974861E+03    0.24587E-05   -0.58934E-08  1162   0.623E-04    0.385E-05
RMM:  19    -0.413214973421E+03    0.14402E-05   -0.35242E-08   918   0.571E-04    0.208E-05
RMM:  20    -0.413214972784E+03    0.63635E-06   -0.21166E-08   779   0.548E-04
   43 T=    71. E= -.41286746E+03 F= -.41321497E+03 E0= -.41319396E+03  EK= 0.34751E+00 SP= 0.00E+00 SK= 0.00E+00
       N       E                     dE             d eps       ncg     rms          rms(c)
RMM:   1    -0.413233051330E+03   -0.18078E-01   -0.11299E+01  4312   0.135E+00    0.946E-01
RMM:   2    -0.413219727413E+03    0.13324E-01   -0.16797E-01  4315   0.162E-01    0.700E-01
RMM:   3    -0.413221929923E+03   -0.22025E-02   -0.16474E-02  5082   0.912E-02    0.360E-01
RMM:   4    -0.413253484151E+03   -0.31554E-01   -0.54242E-02  5062   0.198E-01    0.798E-01
RMM:   5    -0.413216005106E+03    0.37479E-01   -0.15748E-02  4714   0.133E-01    0.601E-02
RMM:   6    -0.413216042417E+03   -0.37311E-04   -0.28178E-03  5719   0.504E-02    0.333E-02
RMM:   7    -0.413216042713E+03   -0.29628E-06   -0.40503E-04  5773   0.186E-02    0.222E-02
RMM:   8    -0.413216039162E+03    0.35515E-05   -0.11147E-04  5168   0.109E-02    0.112E-02
RMM:   9    -0.413216028784E+03    0.10378E-04   -0.19338E-05  4410   0.553E-03    0.436E-03
RMM:  10    -0.413216026427E+03    0.23569E-05   -0.37126E-06  2779   0.248E-03    0.270E-03
RMM:  11    -0.413216023268E+03    0.31596E-05   -0.12808E-06  2503   0.183E-03    0.146E-03
RMM:  12    -0.413216019437E+03    0.38306E-05   -0.69642E-07  2431   0.140E-03    0.597E-04
RMM:  13    -0.413216017070E+03    0.23670E-05   -0.34453E-07  1966   0.978E-04    0.275E-04
RMM:  14    -0.413216015015E+03    0.20554E-05   -0.19765E-07  1515   0.779E-04    0.165E-04
RMM:  15    -0.413216011547E+03    0.34673E-05   -0.15256E-07  1336   0.726E-04    0.105E-04
RMM:  16    -0.413216009787E+03    0.17604E-05   -0.91847E-08  1139   0.660E-04    0.784E-05
RMM:  17    -0.413216007059E+03    0.27279E-05   -0.82061E-08  1246   0.655E-04    0.477E-05
RMM:  18    -0.413216005252E+03    0.18068E-05   -0.55302E-08  1086   0.605E-04    0.392E-05
RMM:  19    -0.413216004020E+03    0.12324E-05   -0.33414E-08   899   0.563E-04    0.193E-05
RMM:  20    -0.413216003579E+03    0.44089E-06   -0.19949E-08   761   0.539E-04
   44 T=    71. E= -.41286726E+03 F= -.41321600E+03 E0= -.41319502E+03  EK= 0.34875E+00 SP= 0.00E+00 SK= 0.00E+00
       N       E                     dE             d eps       ncg     rms          rms(c)
RMM:   1    -0.413246435022E+03   -0.30431E-01   -0.11416E+01  4311   0.150E+00    0.971E-01
RMM:   2    -0.413220255577E+03    0.26179E-01   -0.16671E-01  4337   0.168E-01    0.695E-01
RMM:   3    -0.413226896152E+03   -0.66406E-02   -0.20030E-02  5119   0.107E-01    0.448E-01
RMM:   4    -0.413240766272E+03   -0.13870E-01   -0.44437E-02  5040   0.182E-01    0.642E-01
RMM:   5    -0.413217207744E+03    0.23559E-01   -0.89030E-03  4641   0.108E-01    0.569E-02
RMM:   6    -0.413217185517E+03    0.22227E-04   -0.18063E-03  5578   0.410E-02    0.323E-02
RMM:   7    -0.413217180829E+03    0.46875E-05   -0.30530E-04  5624   0.169E-02    0.214E-02
RMM:   8    -0.413217172003E+03    0.88267E-05   -0.11411E-04  5084   0.111E-02    0.102E-02
RMM:   9    -0.413217158798E+03    0.13205E-04   -0.15216E-05  4264   0.534E-03    0.413E-03
RMM:  10    -0.413217154983E+03    0.38151E-05   -0.27026E-06  2687   0.226E-03    0.241E-03
RMM:  11    -0.413217148831E+03    0.61521E-05   -0.11450E-06  2480   0.176E-03    0.131E-03
RMM:  12    -0.413217142641E+03    0.61892E-05   -0.58414E-07  2405   0.132E-03    0.622E-04
RMM:  13    -0.413217139014E+03    0.36272E-05   -0.27592E-07  1865   0.910E-04    0.295E-04
RMM:  14    -0.413217135543E+03    0.34715E-05   -0.15473E-07  1372   0.722E-04    0.159E-04
RMM:  15    -0.413217130347E+03    0.51959E-05   -0.12153E-07  1262   0.691E-04    0.121E-04
RMM:  16    -0.413217127592E+03    0.27547E-05   -0.77980E-08  1107   0.637E-04    0.975E-05
RMM:  17    -0.413217122734E+03    0.48576E-05   -0.80791E-08  1318   0.653E-04    0.683E-05
RMM:  18    -0.413217120501E+03    0.22336E-05   -0.45454E-08  1013   0.576E-04    0.428E-05
RMM:  19    -0.413217119327E+03    0.11739E-05   -0.30759E-08   875   0.544E-04    0.235E-05
RMM:  20    -0.413217118727E+03    0.60029E-06   -0.19891E-08   769   0.527E-04
   45 T=    71. E= -.41286751E+03 F= -.41321712E+03 E0= -.41319615E+03  EK= 0.34961E+00 SP= 0.00E+00 SK= 0.00E+00
       N       E                     dE             d eps       ncg     rms          rms(c)
RMM:   1    -0.413250806133E+03   -0.33687E-01   -0.11353E+01  4311   0.158E+00    0.953E-01
RMM:   2    -0.413219859684E+03    0.30946E-01   -0.17534E-01  4364   0.181E-01    0.690E-01
RMM:   3    -0.413228690093E+03   -0.88304E-02   -0.21182E-02  5118   0.116E-01    0.498E-01
RMM:   4    -0.413236612458E+03   -0.79224E-02   -0.42839E-02  5026   0.180E-01    0.596E-01
RMM:   5    -0.413216689490E+03    0.19923E-01   -0.73973E-03  4605   0.102E-01    0.564E-02
RMM:   6    -0.413216647271E+03    0.42219E-04   -0.14715E-03  5452   0.377E-02    0.312E-02
RMM:   7    -0.413216644448E+03    0.28226E-05   -0.25649E-04  5615   0.157E-02    0.208E-02
RMM:   8    -0.413216635776E+03    0.86718E-05   -0.12182E-04  5083   0.114E-02    0.102E-02
RMM:   9    -0.413216622183E+03    0.13594E-04   -0.15826E-05  4297   0.551E-03    0.406E-03
RMM:  10    -0.413216619086E+03    0.30968E-05   -0.27577E-06  2699   0.223E-03    0.233E-03
RMM:  11    -0.413216613260E+03    0.58257E-05   -0.12383E-06  2490   0.179E-03    0.127E-03
RMM:  12    -0.413216608331E+03    0.49288E-05   -0.56640E-07  2415   0.131E-03    0.665E-04
RMM:  13    -0.413216604861E+03    0.34706E-05   -0.26348E-07  1795   0.894E-04    0.322E-04
RMM:  14    -0.413216601346E+03    0.35146E-05   -0.14636E-07  1360   0.712E-04    0.169E-04
RMM:  15    -0.413216597073E+03    0.42733E-05   -0.11029E-07  1237   0.676E-04    0.122E-04
RMM:  16    -0.413216594431E+03    0.26414E-05   -0.75128E-08  1133   0.628E-04    0.107E-04
RMM:  17    -0.413216590411E+03    0.40200E-05   -0.69361E-08  1209   0.629E-04    0.639E-05
RMM:  18    -0.413216587865E+03    0.25463E-05   -0.45174E-08  1032   0.577E-04    0.501E-05
RMM:  19    -0.413216586962E+03    0.90342E-06   -0.23704E-08   801   0.530E-04
   46 T=    71. E= -.41286727E+03 F= -.41321659E+03 E0= -.41319564E+03  EK= 0.34931E+00 SP= 0.00E+00 SK= 0.00E+00
       N       E                     dE             d eps       ncg     rms          rms(c)
RMM:   1    -0.413236589215E+03   -0.20001E-01   -0.11225E+01  4311   0.161E+00    0.940E-01
RMM:   2    -0.413218933902E+03    0.17655E-01   -0.17968E-01  4383   0.190E-01    0.702E-01
RMM:   3    -0.413228586872E+03   -0.96530E-02   -0.22241E-02  5113   0.123E-01    0.522E-01
RMM:   4    -0.413235879479E+03   -0.72926E-02   -0.45449E-02  5019   0.186E-01    0.605E-01
RMM:   5    -0.413215193525E+03    0.20686E-01   -0.76000E-03  4600   0.104E-01    0.576E-02
RMM:   6    -0.413215136370E+03    0.57156E-04   -0.14774E-03  5430   0.380E-02    0.308E-02
RMM:   7    -0.413215132765E+03    0.36049E-05   -0.25283E-04  5649   0.155E-02    0.210E-02
RMM:   8    -0.413215124953E+03    0.78112E-05   -0.12498E-04  5108   0.115E-02    0.103E-02
RMM:   9    -0.413215112371E+03    0.12583E-04   -0.16904E-05  4325   0.566E-03    0.404E-03
RMM:  10    -0.413215110295E+03    0.20756E-05   -0.29952E-06  2728   0.227E-03    0.234E-03
RMM:  11    -0.413215106335E+03    0.39595E-05   -0.13536E-06  2494   0.185E-03    0.129E-03
RMM:  12    -0.413215103237E+03    0.30985E-05   -0.60222E-07  2431   0.135E-03    0.704E-04
RMM:  13    -0.413215100550E+03    0.26867E-05   -0.29421E-07  1811   0.931E-04    0.332E-04
RMM:  14    -0.413215097956E+03    0.25942E-05   -0.16861E-07  1402   0.738E-04    0.177E-04
RMM:  15    -0.413215095037E+03    0.29188E-05   -0.12229E-07  1241   0.684E-04    0.111E-04
RMM:  16    -0.413215092947E+03    0.20901E-05   -0.84794E-08  1168   0.639E-04    0.101E-04
RMM:  17    -0.413215090503E+03    0.24442E-05   -0.70112E-08  1177   0.619E-04    0.538E-05
RMM:  18    -0.413215087990E+03    0.25127E-05   -0.57251E-08  1104   0.595E-04    0.456E-05
RMM:  19    -0.413215087489E+03    0.50152E-06   -0.24006E-08   767   0.527E-04
   47 T=    71. E= -.41286720E+03 F= -.41321509E+03 E0= -.41319416E+03  EK= 0.34789E+00 SP= 0.00E+00 SK= 0.00E+00
       N       E                     dE             d eps       ncg     rms          rms(c)
RMM:   1    -0.413243581084E+03   -0.28493E-01   -0.11219E+01  4306   0.174E+00    0.960E-01
RMM:   2    -0.413215623120E+03    0.27958E-01   -0.17758E-01  4438   0.200E-01    0.696E-01
RMM:   3    -0.413232616505E+03   -0.16993E-01   -0.28459E-02  5140   0.143E-01    0.629E-01
RMM:   4    -0.413224938141E+03    0.76784E-02   -0.41153E-02  4983   0.181E-01    0.483E-01
RMM:   5    -0.413212440956E+03    0.12497E-01   -0.47151E-03  4534   0.899E-02    0.568E-02
RMM:   6    -0.413212331666E+03    0.10929E-03   -0.70398E-04  4889   0.299E-02    0.297E-02
RMM:   7    -0.413212316023E+03    0.15643E-04   -0.16876E-04  5877   0.127E-02    0.123E-02
RMM:   8    -0.413212307054E+03    0.89688E-05   -0.43538E-05  5144   0.801E-03    0.785E-03
RMM:   9    -0.413212303190E+03    0.38638E-05   -0.92833E-06  3628   0.376E-03    0.346E-03
RMM:  10    -0.413212299747E+03    0.34424E-05   -0.19377E-06  2542   0.220E-03    0.229E-03
RMM:  11    -0.413212294329E+03    0.54180E-05   -0.13824E-06  2459   0.195E-03    0.148E-03
RMM:  12    -0.413212290680E+03    0.36490E-05   -0.50832E-07  2375   0.134E-03    0.847E-04
RMM:  13    -0.413212286710E+03    0.39705E-05   -0.24313E-07  1901   0.888E-04    0.444E-04
RMM:  14    -0.413212281007E+03    0.57033E-05   -0.19690E-07  1682   0.790E-04    0.404E-04
RMM:  15    -0.413212277222E+03    0.37843E-05   -0.92359E-08  1009   0.601E-04    0.158E-04
RMM:  16    -0.413212274915E+03    0.23074E-05   -0.60842E-08   957   0.583E-04    0.886E-05
RMM:  17    -0.413212270717E+03    0.41980E-05   -0.72395E-08  1173   0.616E-04    0.127E-04
RMM:  18    -0.413212269625E+03    0.10919E-05   -0.27588E-08   779   0.528E-04    0.924E-05
RMM:  19    -0.413212268859E+03    0.76575E-06   -0.16572E-08   686   0.507E-04
   48 T=    70. E= -.41286734E+03 F= -.41321227E+03 E0= -.41319135E+03  EK= 0.34493E+00 SP= 0.00E+00 SK= 0.00E+00
       N       E                     dE             d eps       ncg     rms          rms(c)
RMM:   1    -0.413243378602E+03   -0.31109E-01   -0.11026E+01  4306   0.185E+00    0.949E-01
RMM:   2    -0.413209898432E+03    0.33480E-01   -0.17623E-01  4502   0.209E-01    0.685E-01
RMM:   3    -0.413233801590E+03   -0.23903E-01   -0.34010E-02  5163   0.160E-01    0.718E-01
RMM:   4    -0.413215327631E+03    0.18474E-01   -0.39930E-02  4958   0.181E-01    0.407E-01
RMM:   5    -0.413207004478E+03    0.83232E-02   -0.42049E-03  4591   0.875E-02    0.622E-02
RMM:   6    -0.413206829945E+03    0.17453E-03   -0.44829E-04  4667   0.287E-02    0.321E-02
RMM:   7    -0.413206836683E+03   -0.67371E-05   -0.27889E-04  5756   0.174E-02    0.238E-02
RMM:   8    -0.413206802260E+03    0.34422E-04   -0.94932E-05  4996   0.111E-02    0.903E-03
RMM:   9    -0.413206795268E+03    0.69922E-05   -0.18055E-05  4676   0.545E-03    0.463E-03
RMM:  10    -0.413206791064E+03    0.42036E-05   -0.21908E-06  2612   0.237E-03    0.256E-03
RMM:  11    -0.413206784793E+03    0.62713E-05   -0.12761E-06  2492   0.186E-03    0.174E-03
RMM:  12    -0.413206781019E+03    0.37738E-05   -0.40516E-07  2383   0.118E-03    0.896E-04
RMM:  13    -0.413206776192E+03    0.48277E-05   -0.27197E-07  1958   0.884E-04    0.419E-04
RMM:  14    -0.413206770843E+03    0.53484E-05   -0.21257E-07  1801   0.790E-04    0.366E-04
RMM:  15    -0.413206766034E+03    0.48095E-05   -0.11642E-07  1148   0.634E-04    0.141E-04
RMM:  16    -0.413206763282E+03    0.27520E-05   -0.67853E-08  1004   0.590E-04    0.874E-05
RMM:  17    -0.413206759716E+03    0.35656E-05   -0.66708E-08  1123   0.604E-04    0.740E-05
RMM:  18    -0.413206758342E+03    0.13737E-05   -0.35432E-08   893   0.552E-04    0.591E-05
RMM:  19    -0.413206755761E+03    0.25812E-05   -0.39343E-08  1067   0.570E-04    0.377E-05
RMM:  20    -0.413206755081E+03    0.68019E-06   -0.17556E-08   759   0.502E-04
   49 T=    69. E= -.41286700E+03 F= -.41320676E+03 E0= -.41318584E+03  EK= 0.33976E+00 SP= 0.00E+00 SK= 0.00E+00
       N       E                     dE             d eps       ncg     rms          rms(c)
RMM:   1    -0.413222288688E+03   -0.15533E-01   -0.10659E+01  4305   0.188E+00    0.919E-01
RMM:   2    -0.413203511817E+03    0.18777E-01   -0.17324E-01  4520   0.219E-01    0.686E-01
RMM:   3    -0.413227984879E+03   -0.24473E-01   -0.34669E-02  5151   0.164E-01    0.733E-01
RMM:   4    -0.413208427765E+03    0.19557E-01   -0.41061E-02  4952   0.185E-01    0.406E-01
[...]
RMM:  10    -0.413160616980E+03   -0.67617E-05   -0.25831E-06  2598   0.212E-03    0.244E-03
RMM:  11    -0.413160624714E+03   -0.77341E-05   -0.12538E-06  2507   0.165E-03    0.127E-03
RMM:  12    -0.413160631300E+03   -0.65858E-05   -0.86037E-07  2434   0.131E-03    0.396E-04
RMM:  13    -0.413160633381E+03   -0.20807E-05   -0.33848E-07  1873   0.916E-04    0.280E-04
RMM:  14    -0.413160635902E+03   -0.25214E-05   -0.24433E-07  1431   0.794E-04    0.168E-04
RMM:  15    -0.413160638747E+03   -0.28444E-05   -0.26046E-07  1514   0.777E-04    0.102E-04
RMM:  16    -0.413160639712E+03   -0.96544E-06   -0.12995E-07  1242   0.674E-04
  136 T=    60. E= -.41286572E+03 F= -.41316064E+03 E0= -.41313990E+03  EK= 0.29492E+00 SP= 0.00E+00 SK= 0.00E+00
       N       E                     dE             d eps       ncg     rms          rms(c)
RMM:   1    -0.413153190362E+03    0.74484E-02   -0.10361E+01  4269   0.831E-01    0.859E-01
RMM:   2    -0.413162095060E+03   -0.89047E-02   -0.12195E-01  4294   0.980E-02    0.611E-01
RMM:   3    -0.413161260068E+03    0.83499E-03   -0.71114E-03  4983   0.466E-02    0.169E-01
RMM:   4    -0.413198667773E+03   -0.37408E-01   -0.40340E-02  5145   0.167E-01    0.804E-01
RMM:   5    -0.413160595659E+03    0.38072E-01   -0.18509E-02  4800   0.135E-01    0.510E-02
RMM:   6    -0.413160647910E+03   -0.52251E-04   -0.30844E-03  5713   0.521E-02    0.189E-02
RMM:   7    -0.413160688999E+03   -0.41088E-04   -0.37236E-04  5939   0.157E-02    0.134E-02
RMM:   8    -0.413160699224E+03   -0.10226E-04   -0.46591E-05  4910   0.645E-03    0.716E-03
RMM:   9    -0.413160704947E+03   -0.57230E-05   -0.87387E-06  3199   0.324E-03    0.362E-03
RMM:  10    -0.413160710935E+03   -0.59873E-05   -0.23379E-06  2567   0.203E-03    0.232E-03
RMM:  11    -0.413160717220E+03   -0.62855E-05   -0.11414E-06  2489   0.155E-03    0.116E-03
RMM:  12    -0.413160722495E+03   -0.52752E-05   -0.81250E-07  2375   0.125E-03    0.344E-04
RMM:  13    -0.413160724159E+03   -0.16637E-05   -0.32096E-07  1806   0.899E-04    0.259E-04
RMM:  14    -0.413160726401E+03   -0.22418E-05   -0.25860E-07  1461   0.800E-04    0.146E-04
RMM:  15    -0.413160728465E+03   -0.20637E-05   -0.24283E-07  1448   0.762E-04    0.945E-05
RMM:  16    -0.413160729138E+03   -0.67315E-06   -0.12706E-07  1268   0.673E-04
  137 T=    60. E= -.41286556E+03 F= -.41316073E+03 E0= -.41314000E+03  EK= 0.29517E+00 SP= 0.00E+00 SK= 0.00E+00
       N       E                     dE             d eps       ncg     rms          rms(c)
RMM:   1    -0.413152588607E+03    0.81399E-02   -0.10457E+01  4268   0.823E-01    0.874E-01
RMM:   2    -0.413161477093E+03   -0.88885E-02   -0.12061E-01  4291   0.999E-02    0.601E-01
RMM:   3    -0.413160993469E+03    0.48362E-03   -0.68452E-03  4982   0.415E-02    0.167E-01
RMM:   4    -0.413194101917E+03   -0.33108E-01   -0.34973E-02  5143   0.156E-01    0.758E-01
RMM:   5    -0.413160451422E+03    0.33650E-01   -0.16528E-02  4805   0.127E-01    0.487E-02
RMM:   6    -0.413160484796E+03   -0.33374E-04   -0.27298E-03  5712   0.492E-02    0.187E-02
RMM:   7    -0.413160513611E+03   -0.28816E-04   -0.32617E-04  5866   0.148E-02    0.128E-02
RMM:   8    -0.413160517424E+03   -0.38128E-05   -0.39380E-05  4530   0.579E-03    0.709E-03
RMM:   9    -0.413160518708E+03   -0.12834E-05   -0.68651E-06  3012   0.300E-03    0.359E-03
RMM:  10    -0.413160520914E+03   -0.22065E-05   -0.21228E-06  2560   0.196E-03    0.216E-03
RMM:  11    -0.413160522811E+03   -0.18972E-05   -0.11266E-06  2488   0.152E-03    0.994E-04
RMM:  12    -0.413160524105E+03   -0.12934E-05   -0.74998E-07  2335   0.121E-03    0.311E-04
RMM:  13    -0.413160524584E+03   -0.47910E-06   -0.31326E-07  1777   0.884E-04
  138 T=    60. E= -.41286559E+03 F= -.41316052E+03 E0= -.41313981E+03  EK= 0.29494E+00 SP= 0.00E+00 SK= 0.00E+00
       N       E                     dE             d eps       ncg     rms          rms(c)
RMM:   1    -0.413154533602E+03    0.59905E-02   -0.10449E+01  4265   0.841E-01    0.847E-01
RMM:   2    -0.413162166917E+03   -0.76333E-02   -0.12237E-01  4292   0.983E-02    0.602E-01
RMM:   3    -0.413161343852E+03    0.82307E-03   -0.59703E-03  4921   0.365E-02    0.147E-01
RMM:   4    -0.413181971045E+03   -0.20627E-01   -0.21244E-02  5152   0.122E-01    0.600E-01
RMM:   5    -0.413161161278E+03    0.20810E-01   -0.10388E-02  4816   0.997E-02    0.382E-02
RMM:   6    -0.413161168536E+03   -0.72576E-05   -0.17201E-03  5702   0.393E-02    0.140E-02
RMM:   7    -0.413161194751E+03   -0.26216E-04   -0.20304E-04  5629   0.118E-02    0.998E-03
RMM:   8    -0.413161202682E+03   -0.79311E-05   -0.23917E-05  3980   0.468E-03    0.583E-03
RMM:   9    -0.413161208805E+03   -0.61222E-05   -0.41243E-06  2747   0.259E-03    0.283E-03
RMM:  10    -0.413161214763E+03   -0.59586E-05   -0.17354E-06  2544   0.180E-03    0.162E-03
RMM:  11    -0.413161219560E+03   -0.47971E-05   -0.99233E-07  2460   0.139E-03    0.750E-04
RMM:  12    -0.413161222696E+03   -0.31359E-05   -0.59187E-07  2140   0.108E-03    0.279E-04
RMM:  13    -0.413161224551E+03   -0.18550E-05   -0.33626E-07  1650   0.862E-04    0.193E-04
RMM:  14    -0.413161226375E+03   -0.18233E-05   -0.32509E-07  1545   0.820E-04    0.952E-05
RMM:  15    -0.413161227151E+03   -0.77618E-06   -0.17899E-07  1399   0.714E-04
  139 T=    60. E= -.41286573E+03 F= -.41316123E+03 E0= -.41314053E+03  EK= 0.29550E+00 SP= 0.00E+00 SK= 0.00E+00
       N       E                     dE             d eps       ncg     rms          rms(c)
RMM:   1    -0.413156521083E+03    0.47053E-02   -0.10573E+01  4266   0.857E-01    0.852E-01
RMM:   2    -0.413162982673E+03   -0.64616E-02   -0.12696E-01  4288   0.100E-01    0.612E-01
RMM:   3    -0.413161639268E+03    0.13434E-02   -0.58520E-03  4850   0.375E-02    0.150E-01
RMM:   4    -0.413181390093E+03   -0.19751E-01   -0.20306E-02  5154   0.119E-01    0.587E-01
RMM:   5    -0.413161465246E+03    0.19925E-01   -0.10015E-02  4821   0.976E-02    0.365E-02
RMM:   6    -0.413161471332E+03   -0.60865E-05   -0.16335E-03  5726   0.384E-02    0.123E-02
RMM:   7    -0.413161498089E+03   -0.26757E-04   -0.19038E-04  5562   0.114E-02    0.934E-03
RMM:   8    -0.413161507087E+03   -0.89986E-05   -0.21519E-05  3835   0.437E-03    0.574E-03
RMM:   9    -0.413161515640E+03   -0.85529E-05   -0.37047E-06  2694   0.251E-03    0.275E-03
RMM:  10    -0.413161523413E+03   -0.77725E-05   -0.17933E-06  2545   0.181E-03    0.144E-03
RMM:  11    -0.413161528784E+03   -0.53708E-05   -0.92976E-07  2442   0.135E-03    0.665E-04
RMM:  12    -0.413161532301E+03   -0.35175E-05   -0.53889E-07  2062   0.104E-03    0.284E-04
RMM:  13    -0.413161534813E+03   -0.25121E-05   -0.35646E-07  1659   0.869E-04    0.181E-04
RMM:  14    -0.413161536963E+03   -0.21500E-05   -0.34167E-07  1669   0.832E-04    0.996E-05
RMM:  15    -0.413161537768E+03   -0.80515E-06   -0.17332E-07  1379   0.699E-04
  140 T=    60. E= -.41286549E+03 F= -.41316154E+03 E0= -.41314085E+03  EK= 0.29605E+00 SP= 0.00E+00 SK= 0.00E+00
       N       E                     dE             d eps       ncg     rms          rms(c)
RMM:   1    -0.413153398557E+03    0.81384E-02   -0.10530E+01  4264   0.836E-01    0.874E-01
RMM:   2    -0.413162458143E+03   -0.90596E-02   -0.12360E-01  4288   0.999E-02    0.604E-01
RMM:   3    -0.413161791913E+03    0.66623E-03   -0.62762E-03  4792   0.355E-02    0.151E-01
RMM:   4    -0.413172519889E+03   -0.10728E-01   -0.11159E-02  5163   0.897E-02    0.435E-01
RMM:   5    -0.413161710419E+03    0.10809E-01   -0.54785E-03  4833   0.725E-02    0.328E-02
RMM:   6    -0.413161695997E+03    0.14423E-04   -0.91635E-04  5684   0.297E-02    0.147E-02
RMM:   7    -0.413161709699E+03   -0.13703E-04   -0.11559E-04  5306   0.933E-03    0.888E-03
RMM:   8    -0.413161711922E+03   -0.22227E-05   -0.15396E-05  3723   0.418E-03    0.475E-03
RMM:   9    -0.413161712789E+03   -0.86712E-06   -0.27314E-06  2610   0.235E-03
  141 T=    60. E= -.41286561E+03 F= -.41316171E+03 E0= -.41314103E+03  EK= 0.29610E+00 SP= 0.00E+00 SK= 0.00E+00
       N       E                     dE             d eps       ncg     rms          rms(c)
RMM:   1    -0.413153384607E+03    0.83273E-02   -0.10368E+01  4274   0.831E-01    0.850E-01
RMM:   2    -0.413163067846E+03   -0.96832E-02   -0.12346E-01  4295   0.967E-02    0.601E-01
RMM:   3    -0.413162235131E+03    0.83271E-03   -0.59879E-03  4937   0.357E-02    0.152E-01
RMM:   4    -0.413181424443E+03   -0.19189E-01   -0.19768E-02  5159   0.118E-01    0.578E-01
RMM:   5    -0.413162115563E+03    0.19309E-01   -0.97470E-03  4829   0.962E-02    0.390E-02
RMM:   6    -0.413162103997E+03    0.11566E-04   -0.15504E-03  5703   0.382E-02    0.148E-02
RMM:   7    -0.413162127388E+03   -0.23392E-04   -0.19211E-04  5643   0.117E-02    0.101E-02
RMM:   8    -0.413162133839E+03   -0.64509E-05   -0.25689E-05  4235   0.498E-03    0.575E-03
RMM:   9    -0.413162137388E+03   -0.35481E-05   -0.44724E-06  2780   0.266E-03    0.259E-03
RMM:  10    -0.413162140637E+03   -0.32492E-05   -0.17100E-06  2551   0.181E-03    0.161E-03
RMM:  11    -0.413162143116E+03   -0.24792E-05   -0.10376E-06  2483   0.141E-03    0.850E-04
RMM:  12    -0.413162144317E+03   -0.12011E-05   -0.61442E-07  2092   0.107E-03    0.297E-04
RMM:  13    -0.413162144763E+03   -0.44621E-06   -0.37306E-07  1735   0.882E-04
  142 T=    60. E= -.41286573E+03 F= -.41316214E+03 E0= -.41314147E+03  EK= 0.29641E+00 SP= 0.00E+00 SK= 0.00E+00
       N       E                     dE             d eps       ncg     rms          rms(c)
RMM:   1    -0.413154188244E+03    0.79561E-02   -0.10333E+01  4264   0.835E-01    0.846E-01
RMM:   2    -0.413164369104E+03   -0.10181E-01   -0.12528E-01  4284   0.104E-01    0.614E-01
RMM:   3    -0.413162681530E+03    0.16876E-02   -0.61397E-03  4605   0.363E-02    0.131E-01
RMM:   4    -0.413163392174E+03   -0.71064E-03   -0.15678E-03  5185   0.339E-02    0.117E-01
RMM:   5    -0.413162658934E+03    0.73324E-03   -0.42498E-04  4840   0.215E-02    0.272E-02
RMM:   6    -0.413162636903E+03    0.22031E-04   -0.14468E-04  5234   0.130E-02    0.142E-02
RMM:   7    -0.413162656754E+03   -0.19851E-04   -0.42888E-05  4972   0.668E-03    0.709E-03
RMM:   8    -0.413162662553E+03   -0.57988E-05   -0.10638E-05  3658   0.399E-03    0.383E-03
RMM:   9    -0.413162664756E+03   -0.22029E-05   -0.84398E-07  2506   0.170E-03    0.221E-03
RMM:  10    -0.413162670598E+03   -0.58417E-05   -0.10562E-06  2464   0.143E-03    0.982E-04
RMM:  11    -0.413162674930E+03   -0.43321E-05   -0.81389E-07  2163   0.117E-03    0.454E-04
RMM:  12    -0.413162676820E+03   -0.18906E-05   -0.37604E-07  1873   0.878E-04    0.276E-04
RMM:  13    -0.413162678227E+03   -0.14072E-05   -0.27231E-07  1459   0.753E-04    0.178E-04
RMM:  14    -0.413162679451E+03   -0.12241E-05   -0.38808E-07  1706   0.809E-04    0.138E-04
RMM:  15    -0.413162679409E+03    0.42037E-07   -0.11323E-07  1111   0.588E-04
  143 T=    60. E= -.41286552E+03 F= -.41316268E+03 E0= -.41314202E+03  EK= 0.29716E+00 SP= 0.00E+00 SK= 0.00E+00
       N       E                     dE             d eps       ncg     rms          rms(c)
RMM:   1    -0.413155936728E+03    0.67427E-02   -0.10218E+01  4264   0.832E-01    0.869E-01
RMM:   2    -0.413164678308E+03   -0.87416E-02   -0.12177E-01  4287   0.992E-02    0.610E-01
RMM:   3    -0.413163424513E+03    0.12538E-02   -0.68398E-03  4703   0.364E-02    0.137E-01
RMM:   4    -0.413167222272E+03   -0.37978E-02   -0.44774E-03  5179   0.574E-02    0.261E-01
RMM:   5    -0.413163426162E+03    0.37961E-02   -0.19754E-03  4827   0.441E-02    0.329E-02
RMM:   6    -0.413163400619E+03    0.25543E-04   -0.41286E-04  5531   0.204E-02    0.191E-02
RMM:   7    -0.413163407270E+03   -0.66508E-05   -0.83965E-05  5183   0.823E-03    0.779E-03
RMM:   8    -0.413163407985E+03   -0.71494E-06   -0.17639E-05  4305   0.473E-03    0.461E-03
RMM:   9    -0.413163407998E+03   -0.12886E-07   -0.15763E-06  2579   0.201E-03
  144 T=    61. E= -.41286592E+03 F= -.41316341E+03 E0= -.41314276E+03  EK= 0.29749E+00 SP= 0.00E+00 SK= 0.00E+00
       N       E                     dE             d eps       ncg     rms          rms(c)
RMM:   1    -0.413156182865E+03    0.72251E-02   -0.99591E+00  4269   0.825E-01    0.855E-01
RMM:   2    -0.413164808714E+03   -0.86258E-02   -0.11916E-01  4290   0.980E-02    0.604E-01
RMM:   3    -0.413163405664E+03    0.14030E-02   -0.72099E-03  4892   0.388E-02    0.140E-01
RMM:   4    -0.413181195222E+03   -0.17790E-01   -0.18360E-02  5153   0.114E-01    0.558E-01
RMM:   5    -0.413163231246E+03    0.17964E-01   -0.90631E-03  4835   0.926E-02    0.443E-02
RMM:   6    -0.413163231385E+03   -0.13973E-06   -0.15348E-03  5702   0.368E-02    0.220E-02
RMM:   7    -0.413163243962E+03   -0.12577E-04   -0.21046E-04  5752   0.122E-02    0.116E-02
RMM:   8    -0.413163246639E+03   -0.26774E-05   -0.39898E-05  5016   0.652E-03    0.673E-03
RMM:   9    -0.413163245505E+03    0.11343E-05   -0.57593E-06  3047   0.300E-03    0.298E-03
RMM:  10    -0.413163246013E+03   -0.50828E-06   -0.23791E-06  2588   0.217E-03
  145 T=    61. E= -.41286562E+03 F= -.41316325E+03 E0= -.41314260E+03  EK= 0.29763E+00 SP= 0.00E+00 SK= 0.00E+00
       N       E                     dE             d eps       ncg     rms          rms(c)
RMM:   1    -0.413157716432E+03    0.55291E-02   -0.97859E+00  4278   0.822E-01    0.842E-01
RMM:   2    -0.413166575777E+03   -0.88593E-02   -0.11973E-01  4290   0.984E-02    0.617E-01
RMM:   3    -0.413164725592E+03    0.18502E-02   -0.82088E-03  4987   0.430E-02    0.138E-01
RMM:   4    -0.413195546384E+03   -0.30821E-01   -0.32583E-02  5148   0.150E-01    0.730E-01
RMM:   5    -0.413164236157E+03    0.31310E-01   -0.15462E-02  4822   0.122E-01    0.525E-02
RMM:   6    -0.413164293573E+03   -0.57416E-04   -0.25674E-03  5708   0.478E-02    0.231E-02
RMM:   7    -0.413164321282E+03   -0.27709E-04   -0.33914E-04  5967   0.150E-02    0.138E-02
RMM:   8    -0.413164328818E+03   -0.75357E-05   -0.54855E-05  5272   0.751E-03    0.776E-03
RMM:   9    -0.413164329930E+03   -0.11123E-05   -0.98187E-06  3414   0.358E-03    0.333E-03
RMM:  10    -0.413164333462E+03   -0.35324E-05   -0.29718E-06  2653   0.229E-03    0.230E-03
RMM:  11    -0.413164336281E+03   -0.28190E-05   -0.13737E-06  2525   0.174E-03    0.126E-03
RMM:  12    -0.413164337859E+03   -0.15775E-05   -0.88108E-07  2457   0.134E-03    0.459E-04
RMM:  13    -0.413164338143E+03   -0.28365E-06   -0.39651E-07  1899   0.934E-04
  146 T=    61. E= -.41286576E+03 F= -.41316434E+03 E0= -.41314370E+03  EK= 0.29858E+00 SP= 0.00E+00 SK= 0.00E+00
       N       E                     dE             d eps       ncg     rms          rms(c)
RMM:   1    -0.413159650533E+03    0.46873E-02   -0.95764E+00  4264   0.820E-01    0.861E-01
RMM:   2    -0.413167121658E+03   -0.74711E-02   -0.11585E-01  4289   0.981E-02    0.617E-01
RMM:   3    -0.413165133596E+03    0.19881E-02   -0.90085E-03  4875   0.416E-02    0.120E-01
RMM:   4    -0.413182934544E+03   -0.17801E-01   -0.18509E-02  5151   0.114E-01    0.559E-01
RMM:   5    -0.413164925881E+03    0.18009E-01   -0.90703E-03  4832   0.927E-02    0.469E-02
RMM:   6    -0.413164923877E+03    0.20039E-05   -0.15624E-03  5698   0.372E-02    0.259E-02
RMM:   7    -0.413164932794E+03   -0.89170E-05   -0.23756E-04  5750   0.128E-02    0.120E-02
RMM:   8    -0.413164933663E+03   -0.86940E-06   -0.36492E-05  4981   0.634E-03    0.658E-03
RMM:   9    -0.413164932390E+03    0.12732E-05   -0.55212E-06  3030   0.291E-03    0.334E-03
RMM:  10    -0.413164932218E+03    0.17215E-06   -0.20266E-06  2553   0.210E-03
  147 T=    61. E= -.41286585E+03 F= -.41316493E+03 E0= -.41314430E+03  EK= 0.29909E+00 SP= 0.00E+00 SK= 0.00E+00
       N       E                     dE             d eps       ncg     rms          rms(c)
RMM:   1    -0.413160474355E+03    0.44580E-02   -0.92643E+00  4276   0.806E-01    0.860E-01
RMM:   2    -0.413167144339E+03   -0.66700E-02   -0.11206E-01  4291   0.947E-02    0.612E-01
RMM:   3    -0.413165317003E+03    0.18273E-02   -0.10346E-02  5046   0.453E-02    0.144E-01
RMM:   4    -0.413198649303E+03   -0.33332E-01   -0.36232E-02  5137   0.158E-01    0.760E-01
RMM:   5    -0.413164666465E+03    0.33983E-01   -0.16721E-02  4818   0.127E-01    0.593E-02
RMM:   6    -0.413164704170E+03   -0.37704E-04   -0.27595E-03  5678   0.506E-02    0.287E-02
RMM:   7    -0.413164726924E+03   -0.22754E-04   -0.40433E-04  6048   0.168E-02    0.162E-02
RMM:   8    -0.413164725117E+03    0.18068E-05   -0.68089E-05  5369   0.866E-03    0.865E-03
RMM:   9    -0.413164720874E+03    0.42425E-05   -0.10959E-05  3557   0.386E-03    0.385E-03
RMM:  10    -0.413164718922E+03    0.19527E-05   -0.32663E-06  2699   0.244E-03    0.264E-03
RMM:  11    -0.413164716039E+03    0.28827E-05   -0.13795E-06  2507   0.185E-03    0.147E-03
RMM:  12    -0.413164712155E+03    0.38842E-05   -0.84488E-07  2492   0.142E-03    0.563E-04
RMM:  13    -0.413164709946E+03    0.22084E-05   -0.39649E-07  2083   0.994E-04    0.344E-04
RMM:  14    -0.413164707408E+03    0.25385E-05   -0.26342E-07  1732   0.842E-04    0.234E-04
RMM:  15    -0.413164704597E+03    0.28108E-05   -0.19544E-07  1509   0.761E-04    0.133E-04
RMM:  16    -0.413164700735E+03    0.38617E-05   -0.21006E-07  1722   0.773E-04    0.103E-04
RMM:  17    -0.413164698988E+03    0.17475E-05   -0.90624E-08  1240   0.608E-04    0.801E-05
RMM:  18    -0.413164697822E+03    0.11655E-05   -0.47937E-08   985   0.549E-04    0.294E-05
RMM:  19    -0.413164696609E+03    0.12128E-05   -0.34970E-08   971   0.535E-04    0.303E-05
RMM:  20    -0.413164696250E+03    0.35902E-06   -0.16442E-08   756   0.498E-04
  148 T=    61. E= -.41286552E+03 F= -.41316470E+03 E0= -.41314407E+03  EK= 0.29918E+00 SP= 0.00E+00 SK= 0.00E+00
       N       E                     dE             d eps       ncg     rms          rms(c)
RMM:   1    -0.413162463459E+03    0.22331E-02   -0.89772E+00  4264   0.798E-01    0.841E-01
RMM:   2    -0.413169219368E+03   -0.67559E-02   -0.11031E-01  4290   0.944E-02    0.619E-01
RMM:   3    -0.413166575488E+03    0.26439E-02   -0.11998E-02  4971   0.479E-02    0.122E-01
RMM:   4    -0.413197451352E+03   -0.30876E-01   -0.33443E-02  5135   0.152E-01    0.732E-01
RMM:   5    -0.413165957953E+03    0.31493E-01   -0.15388E-02  4814   0.122E-01    0.573E-02
RMM:   6    -0.413166000561E+03   -0.42608E-04   -0.26297E-03  5682   0.485E-02    0.286E-02
RMM:   7    -0.413166024507E+03   -0.23947E-04   -0.38243E-04  5979   0.158E-02    0.154E-02
RMM:   8    -0.413166027250E+03   -0.27430E-05   -0.55376E-05  5317   0.778E-03    0.770E-03
RMM:   9    -0.413166026663E+03    0.58733E-06   -0.95476E-06  3433   0.354E-03
  149 T=    61. E= -.41286581E+03 F= -.41316603E+03 E0= -.41314541E+03  EK= 0.30022E+00 SP= 0.00E+00 SK= 0.00E+00
       N       E                     dE             d eps       ncg     rms          rms(c)
RMM:   1    -0.413164354415E+03    0.16728E-02   -0.87257E+00  4266   0.794E-01    0.856E-01
RMM:   2    -0.413169840773E+03   -0.54864E-02   -0.10728E-01  4299   0.935E-02    0.626E-01
RMM:   3    -0.413169247158E+03    0.59362E-03   -0.15873E-02  5106   0.669E-02    0.231E-01
RMM:   4    -0.413199658358E+03   -0.30411E-01   -0.43085E-02  5105   0.175E-01    0.750E-01
RMM:   5    -0.413166512608E+03    0.33146E-01   -0.14964E-02  4788   0.125E-01    0.698E-02
RMM:   6    -0.413166414910E+03    0.97697E-04   -0.24813E-03  5459   0.497E-02    0.297E-02
RMM:   7    -0.413166452762E+03   -0.37851E-04   -0.48941E-04  6070   0.196E-02    0.195E-02
RMM:   8    -0.413166448942E+03    0.38200E-05   -0.88075E-05  5429   0.103E-02    0.918E-03
RMM:   9    -0.413166445727E+03    0.32147E-05   -0.14927E-05  4225   0.461E-03    0.420E-03
RMM:  10    -0.413166445895E+03   -0.16765E-06   -0.22075E-06  2590   0.221E-03
  150 T=    61. E= -.41286558E+03 F= -.41316645E+03 E0= -.41314583E+03  EK= 0.30087E+00 SP= 0.00E+00 SK= 0.00E+00
