       N       E                     dE             d eps       ncg     rms          rms(c)
RMM:   1     0.220127655379E+04    0.22013E+04   -0.52444E+04  2132   0.654E+02
RMM:   2     0.705456065449E+03   -0.14958E+04   -0.16263E+04  2132   0.177E+02
RMM:   3     0.137752736808E+03   -0.56770E+03   -0.65710E+03  2132   0.117E+02
RMM:   4    -0.159578131797E+03   -0.29733E+03   -0.27850E+03  2132   0.936E+01
RMM:   5    -0.287482853340E+03   -0.12790E+03   -0.11426E+03  2132   0.595E+01
RMM:   6    -0.349623966468E+03   -0.62141E+02   -0.55039E+02  2132   0.423E+01
RMM:   7    -0.382541531661E+03   -0.32918E+02   -0.30430E+02  2132   0.293E+01
RMM:   8    -0.404179347634E+03   -0.21638E+02   -0.18514E+02  2132   0.234E+01
RMM:   9    -0.435955307468E+03   -0.31776E+02   -0.30650E+02  6099   0.173E+01
RMM:  10    -0.441254485307E+03   -0.52992E+01   -0.63116E+01  6391   0.540E+00
RMM:  11    -0.442516727164E+03   -0.12622E+01   -0.11431E+01  6216   0.174E+00
RMM:  12    -0.442895680453E+03   -0.37895E+00   -0.27544E+00  6363   0.607E-01    0.134E+02
RMM:  13    -0.425643245423E+03    0.17252E+02   -0.81229E+01  4673   0.119E+01    0.712E+01
RMM:  14    -0.499752950441E+03   -0.74110E+02   -0.54225E+02  5418   0.233E+01    0.307E+01
RMM:  15    -0.415367323198E+03    0.84386E+02   -0.19795E+02  5069   0.163E+01    0.664E+00
RMM:  16    -0.414024007775E+03    0.13433E+01   -0.39244E+01  6084   0.608E+00    0.427E+00
RMM:  17    -0.413213138087E+03    0.81087E+00   -0.24471E+00  5364   0.186E+00    0.244E+00
RMM:  18    -0.413173735223E+03    0.39403E-01   -0.80050E-01  5986   0.919E-01    0.165E+00
RMM:  19    -0.413170150946E+03    0.35843E-02   -0.27584E-01  5671   0.570E-01    0.862E-01
RMM:  20    -0.413187902036E+03   -0.17751E-01   -0.24953E-01  5493   0.533E-01    0.589E-01
RMM:  21    -0.413169074181E+03    0.18828E-01   -0.34663E-02  4982   0.240E-01    0.267E-01
RMM:  22    -0.413166665136E+03    0.24090E-02   -0.17205E-02  6048   0.117E-01    0.143E-01
RMM:  23    -0.413165133294E+03    0.15318E-02   -0.57033E-03  5957   0.687E-02    0.846E-02
RMM:  24    -0.413163567020E+03    0.15663E-02   -0.15955E-03  5264   0.405E-02    0.473E-02
RMM:  25    -0.413162968646E+03    0.59837E-03   -0.87820E-04  5522   0.270E-02    0.350E-02
RMM:  26    -0.413163046483E+03   -0.77837E-04   -0.95822E-04  5778   0.320E-02    0.346E-02
RMM:  27    -0.413163428706E+03   -0.38222E-03   -0.20459E-04  4601   0.197E-02    0.216E-02
RMM:  28    -0.413163872081E+03   -0.44338E-03   -0.20249E-04  5192   0.201E-02    0.955E-03
RMM:  29    -0.413164257560E+03   -0.38548E-03   -0.12209E-04  4566   0.162E-02    0.469E-03
RMM:  30    -0.413164460097E+03   -0.20254E-03   -0.78790E-05  4356   0.997E-03    0.412E-03
RMM:  31    -0.413164581274E+03   -0.12118E-03   -0.56167E-05  3169   0.711E-03    0.340E-03
RMM:  32    -0.413164598147E+03   -0.16873E-04   -0.21641E-05  2992   0.301E-03    0.178E-03
RMM:  33    -0.413164604451E+03   -0.63034E-05   -0.86974E-06  2760   0.216E-03    0.591E-04
RMM:  34    -0.413164604715E+03   -0.26391E-06   -0.47202E-06  2657   0.170E-03
    1 T=    61. E= -.41286680E+03 F= -.41316460E+03 E0= -.41314211E+03  EK= 0.29781E+00 SP= 0.00E+00 SK= 0.00E+00
       N       E                     dE             d eps       ncg     rms          rms(c)
RMM:   1    -0.413175047062E+03   -0.10443E-01   -0.59905E+00  3989   0.476E-01    0.914E-01
RMM:   2    -0.413171737224E+03    0.33098E-02   -0.78357E-02  3959   0.712E-02    0.665E-01
RMM:   3    -0.413168473171E+03    0.32641E-02   -0.56338E-02  5107   0.819E-02    0.343E-01
RMM:   4    -0.413184155544E+03   -0.15682E-01   -0.27930E-02  5163   0.143E-01    0.599E-01
RMM:   5    -0.413164198779E+03    0.19957E-01   -0.10678E-02  4739   0.102E-01    0.456E-02
RMM:   6    -0.413164311258E+03   -0.11248E-03   -0.16711E-03  5661   0.399E-02    0.280E-02
RMM:   7    -0.413164327995E+03   -0.16737E-04   -0.28757E-04  5766   0.152E-02    0.185E-02
RMM:   8    -0.413164329679E+03   -0.16840E-05   -0.37534E-05  4775   0.698E-03    0.606E-03
RMM:   9    -0.413164333143E+03   -0.34644E-05   -0.74843E-06  3110   0.289E-03    0.397E-03
RMM:  10    -0.413164338544E+03   -0.54006E-05   -0.16744E-06  2546   0.185E-03    0.249E-03
RMM:  11    -0.413164342532E+03   -0.39880E-05   -0.10127E-06  2443   0.135E-03    0.117E-03
RMM:  12    -0.413164347803E+03   -0.52711E-05   -0.90193E-07  2448   0.124E-03    0.589E-04
RMM:  13    -0.413164350268E+03   -0.24655E-05   -0.47446E-07  1911   0.920E-04    0.362E-04
RMM:  14    -0.413164351232E+03   -0.96353E-06   -0.30203E-07  1427   0.738E-04
    2 T=    61. E= -.41286656E+03 F= -.41316435E+03 E0= -.41314185E+03  EK= 0.29780E+00 SP= 0.00E+00 SK= 0.00E+00
       N       E                     dE             d eps       ncg     rms          rms(c)
RMM:   1    -0.413176159795E+03   -0.11810E-01   -0.59367E+00  4184   0.474E-01    0.930E-01
RMM:   2    -0.413171934620E+03    0.42252E-02   -0.78751E-02  4010   0.708E-02    0.665E-01
RMM:   3    -0.413169737844E+03    0.21968E-02   -0.52855E-02  5125   0.842E-02    0.336E-01
RMM:   4    -0.413183864431E+03   -0.14127E-01   -0.28239E-02  5127   0.145E-01    0.585E-01
RMM:   5    -0.413164787796E+03    0.19077E-01   -0.94374E-03  4697   0.979E-02    0.443E-02
RMM:   6    -0.413164881675E+03   -0.93878E-04   -0.15371E-03  5616   0.385E-02    0.298E-02
RMM:   7    -0.413164885141E+03   -0.34661E-05   -0.27555E-04  5596   0.160E-02    0.202E-02
RMM:   8    -0.413164880697E+03    0.44434E-05   -0.40930E-05  4920   0.747E-03    0.721E-03
RMM:   9    -0.413164879813E+03    0.88420E-06   -0.75368E-06  3139   0.314E-03
    3 T=    61. E= -.41286680E+03 F= -.41316488E+03 E0= -.41314239E+03  EK= 0.29808E+00 SP= 0.00E+00 SK= 0.00E+00
       N       E                     dE             d eps       ncg     rms          rms(c)
RMM:   1    -0.413175356117E+03   -0.10475E-01   -0.59021E+00  4216   0.481E-01    0.915E-01
RMM:   2    -0.413171658896E+03    0.36972E-02   -0.78209E-02  4182   0.704E-02    0.658E-01
RMM:   3    -0.413175324909E+03   -0.36660E-02   -0.56694E-02  5188   0.109E-01    0.465E-01
RMM:   4    -0.413176081524E+03   -0.75662E-03   -0.27166E-02  5065   0.146E-01    0.471E-01
RMM:   5    -0.413164631950E+03    0.11450E-01   -0.63375E-03  4545   0.789E-02    0.431E-02
RMM:   6    -0.413164639494E+03   -0.75441E-05   -0.85619E-04  5335   0.285E-02    0.278E-02
RMM:   7    -0.413164642795E+03   -0.33002E-05   -0.17182E-04  5363   0.129E-02    0.169E-02
RMM:   8    -0.413164640170E+03    0.26242E-05   -0.26568E-05  4524   0.631E-03    0.507E-03
RMM:   9    -0.413164640820E+03   -0.64919E-06   -0.35600E-06  2695   0.235E-03
    4 T=    61. E= -.41286652E+03 F= -.41316464E+03 E0= -.41314215E+03  EK= 0.29812E+00 SP= 0.00E+00 SK= 0.00E+00
       N       E                     dE             d eps       ncg     rms          rms(c)
RMM:   1    -0.413175330878E+03   -0.10691E-01   -0.59933E+00  4235   0.489E-01    0.912E-01
RMM:   2    -0.413172007900E+03    0.33230E-02   -0.78481E-02  4059   0.681E-02    0.664E-01
RMM:   3    -0.413172266450E+03   -0.25855E-03   -0.58015E-02  5149   0.950E-02    0.417E-01
RMM:   4    -0.413179812793E+03   -0.75463E-02   -0.27109E-02  5087   0.144E-01    0.536E-01
RMM:   5    -0.413164727405E+03    0.15085E-01   -0.84545E-03  4629   0.893E-02    0.429E-02
RMM:   6    -0.413164792879E+03   -0.65474E-04   -0.11943E-03  5524   0.332E-02    0.275E-02
RMM:   7    -0.413164803202E+03   -0.10323E-04   -0.21889E-04  5503   0.142E-02    0.178E-02
RMM:   8    -0.413164806931E+03   -0.37293E-05   -0.30411E-05  4612   0.670E-03    0.560E-03
RMM:   9    -0.413164810189E+03   -0.32580E-05   -0.48646E-06  2873   0.263E-03    0.351E-03
RMM:  10    -0.413164814971E+03   -0.47811E-05   -0.12032E-06  2525   0.169E-03    0.213E-03
RMM:  11    -0.413164818240E+03   -0.32690E-05   -0.71736E-07  2354   0.124E-03    0.102E-03
RMM:  12    -0.413164822607E+03   -0.43680E-05   -0.82838E-07  2445   0.120E-03    0.536E-04
RMM:  13    -0.413164824824E+03   -0.22162E-05   -0.46867E-07  1835   0.914E-04    0.343E-04
RMM:  14    -0.413164825355E+03   -0.53103E-06   -0.22880E-07  1342   0.736E-04
    5 T=    61. E= -.41286659E+03 F= -.41316483E+03 E0= -.41314235E+03  EK= 0.29824E+00 SP= 0.00E+00 SK= 0.00E+00
       N       E                     dE             d eps       ncg     rms          rms(c)
RMM:   1    -0.413176458811E+03   -0.11634E-01   -0.59555E+00  4246   0.488E-01    0.927E-01
RMM:   2    -0.413172398881E+03    0.40599E-02   -0.78542E-02  4055   0.679E-02    0.665E-01
RMM:   3    -0.413170494249E+03    0.19046E-02   -0.53710E-02  5128   0.838E-02    0.351E-01
RMM:   4    -0.413183581899E+03   -0.13088E-01   -0.27939E-02  5098   0.144E-01    0.577E-01
RMM:   5    -0.413165202617E+03    0.18379E-01   -0.92620E-03  4684   0.959E-02    0.438E-02
RMM:   6    -0.413165299960E+03   -0.97344E-04   -0.14442E-03  5588   0.372E-02    0.294E-02
RMM:   7    -0.413165300478E+03   -0.51813E-06   -0.25907E-04  5589   0.153E-02    0.198E-02
RMM:   8    -0.413165294651E+03    0.58277E-05   -0.37133E-05  4842   0.748E-03    0.687E-03
RMM:   9    -0.413165294464E+03    0.18691E-06   -0.70696E-06  3045   0.306E-03
    6 T=    61. E= -.41286690E+03 F= -.41316529E+03 E0= -.41314283E+03  EK= 0.29839E+00 SP= 0.00E+00 SK= 0.00E+00
       N       E                     dE             d eps       ncg     rms          rms(c)
RMM:   1    -0.413175988773E+03   -0.10694E-01   -0.59124E+00  4267   0.493E-01    0.921E-01
RMM:   2    -0.413172068481E+03    0.39203E-02   -0.78322E-02  4222   0.696E-02    0.660E-01
RMM:   3    -0.413175079431E+03   -0.30110E-02   -0.55544E-02  5162   0.106E-01    0.448E-01
RMM:   4    -0.413177170898E+03   -0.20915E-02   -0.27218E-02  5057   0.145E-01    0.479E-01
RMM:   5    -0.413165081015E+03    0.12090E-01   -0.63504E-03  4556   0.800E-02    0.434E-02
RMM:   6    -0.413165096904E+03   -0.15889E-04   -0.92372E-04  5358   0.293E-02    0.282E-02
RMM:   7    -0.413165108016E+03   -0.11113E-04   -0.17945E-04  5406   0.131E-02    0.173E-02
RMM:   8    -0.413165104230E+03    0.37862E-05   -0.27790E-05  4573   0.649E-03    0.528E-03
RMM:   9    -0.413165103054E+03    0.11764E-05   -0.38511E-06  2724   0.240E-03    0.300E-03
RMM:  10    -0.413165102317E+03    0.73646E-06   -0.10943E-06  2498   0.158E-03
    7 T=    61. E= -.41286673E+03 F= -.41316510E+03 E0= -.41314265E+03  EK= 0.29837E+00 SP= 0.00E+00 SK= 0.00E+00
       N       E                     dE             d eps       ncg     rms          rms(c)
RMM:   1    -0.413176211371E+03   -0.11108E-01   -0.59796E+00  4273   0.504E-01    0.910E-01
RMM:   2    -0.413172941623E+03    0.32697E-02   -0.78354E-02  4137   0.715E-02    0.662E-01
RMM:   3    -0.413171591600E+03    0.13500E-02   -0.56707E-02  5084   0.904E-02    0.382E-01
RMM:   4    -0.413182892639E+03   -0.11301E-01   -0.27236E-02  5070   0.143E-01    0.568E-01
RMM:   5    -0.413165554199E+03    0.17338E-01   -0.93561E-03  4670   0.938E-02    0.426E-02
RMM:   6    -0.413165641022E+03   -0.86823E-04   -0.13885E-03  5603   0.359E-02    0.285E-02
RMM:   7    -0.413165644002E+03   -0.29797E-05   -0.25014E-04  5525   0.152E-02    0.190E-02
RMM:   8    -0.413165644188E+03   -0.18625E-06   -0.34771E-05  4775   0.698E-03    0.643E-03
RMM:   9    -0.413165646134E+03   -0.19459E-05   -0.59969E-06  2985   0.288E-03    0.394E-03
RMM:  10    -0.413165649411E+03   -0.32765E-05   -0.12441E-06  2524   0.178E-03    0.239E-03
RMM:  11    -0.413165651522E+03   -0.21110E-05   -0.73749E-07  2419   0.129E-03    0.117E-03
RMM:  12    -0.413165654137E+03   -0.26155E-05   -0.86947E-07  2462   0.127E-03    0.628E-04
RMM:  13    -0.413165654943E+03   -0.80617E-06   -0.40706E-07  1893   0.926E-04
    8 T=    61. E= -.41286698E+03 F= -.41316565E+03 E0= -.41314323E+03  EK= 0.29867E+00 SP= 0.00E+00 SK= 0.00E+00
       N       E                     dE             d eps       ncg     rms          rms(c)
RMM:   1    -0.413178203227E+03   -0.12549E-01   -0.59942E+00  4284   0.525E-01    0.923E-01
RMM:   2    -0.413173113092E+03    0.50901E-02   -0.80645E-02  4166   0.738E-02    0.666E-01
RMM:   3    -0.413170654974E+03    0.24581E-02   -0.54007E-02  5069   0.856E-02    0.344E-01
RMM:   4    -0.413185556603E+03   -0.14902E-01   -0.28510E-02  5088   0.145E-01    0.597E-01
RMM:   5    -0.413165741258E+03    0.19815E-01   -0.10028E-02  4692   0.993E-02    0.433E-02
RMM:   6    -0.413165849084E+03   -0.10783E-03   -0.16013E-03  5625   0.387E-02    0.298E-02
RMM:   7    -0.413165846556E+03    0.25278E-05   -0.27696E-04  5568   0.160E-02    0.202E-02
RMM:   8    -0.413165842290E+03    0.42657E-05   -0.39012E-05  4826   0.758E-03    0.725E-03
RMM:   9    -0.413165842086E+03    0.20448E-06   -0.76196E-06  3125   0.318E-03
    9 T=    61. E= -.41286692E+03 F= -.41316584E+03 E0= -.41314343E+03  EK= 0.29892E+00 SP= 0.00E+00 SK= 0.00E+00
       N       E                     dE             d eps       ncg     rms          rms(c)
RMM:   1    -0.413176985718E+03   -0.11143E-01   -0.59375E+00  4296   0.506E-01    0.928E-01
RMM:   2    -0.413172885890E+03    0.40998E-02   -0.78929E-02  4287   0.727E-02    0.662E-01
RMM:   3    -0.413177520740E+03   -0.46349E-02   -0.56415E-02  5148   0.114E-01    0.477E-01
RMM:   4    -0.413176780437E+03    0.74030E-03   -0.27400E-02  5032   0.146E-01    0.456E-01
RMM:   5    -0.413165916850E+03    0.10864E-01   -0.57500E-03  4528   0.765E-02    0.431E-02
RMM:   6    -0.413165910817E+03    0.60334E-05   -0.80314E-04  5312   0.275E-02    0.283E-02
RMM:   7    -0.413165901741E+03    0.90763E-05   -0.16626E-04  5282   0.130E-02    0.169E-02
RMM:   8    -0.413165896652E+03    0.50882E-05   -0.26204E-05  4460   0.637E-03    0.498E-03
RMM:   9    -0.413165894996E+03    0.16560E-05   -0.34306E-06  2669   0.232E-03    0.282E-03
RMM:  10    -0.413165892933E+03    0.20635E-05   -0.10725E-06  2479   0.154E-03    0.163E-03
RMM:  11    -0.413165890963E+03    0.19704E-05   -0.62481E-07  2113   0.112E-03    0.761E-04
RMM:  12    -0.413165887838E+03    0.31242E-05   -0.62451E-07  2262   0.107E-03    0.453E-04
RMM:  13    -0.413165884955E+03    0.28834E-05   -0.34698E-07  1606   0.828E-04    0.295E-04
RMM:  14    -0.413165882343E+03    0.26114E-05   -0.24555E-07  1411   0.746E-04    0.184E-04
RMM:  15    -0.413165878893E+03    0.34505E-05   -0.29981E-07  1717   0.783E-04    0.291E-04
RMM:  16    -0.413165874508E+03    0.43850E-05   -0.30548E-07  1456   0.725E-04    0.138E-04
RMM:  17    -0.413165873551E+03    0.95713E-06   -0.84168E-08   897   0.540E-04
   10 T=    61. E= -.41286666E+03 F= -.41316587E+03 E0= -.41314349E+03  EK= 0.29921E+00 SP= 0.00E+00 SK= 0.00E+00
       N       E                     dE             d eps       ncg     rms          rms(c)
RMM:   1    -0.413177216265E+03   -0.11342E-01   -0.59726E+00  4290   0.515E-01    0.910E-01
RMM:   2    -0.413173896554E+03    0.33197E-02   -0.78369E-02  4213   0.726E-02    0.661E-01
RMM:   3    -0.413171788346E+03    0.21082E-02   -0.55461E-02  5070   0.867E-02    0.362E-01
RMM:   4    -0.413185089694E+03   -0.13301E-01   -0.27592E-02  5073   0.143E-01    0.582E-01
RMM:   5    -0.413166551901E+03    0.18538E-01   -0.97529E-03  4683   0.964E-02    0.428E-02
RMM:   6    -0.413166651173E+03   -0.99272E-04   -0.14988E-03  5585   0.372E-02    0.290E-02
RMM:   7    -0.413166648057E+03    0.31154E-05   -0.26380E-04  5494   0.156E-02    0.196E-02
RMM:   8    -0.413166646900E+03    0.11571E-05   -0.36582E-05  4805   0.715E-03    0.682E-03
RMM:   9    -0.413166647877E+03   -0.97637E-06   -0.68311E-06  3055   0.302E-03
   11 T=    61. E= -.41286689E+03 F= -.41316665E+03 E0= -.41314429E+03  EK= 0.29976E+00 SP= 0.00E+00 SK= 0.00E+00
       N       E                     dE             d eps       ncg     rms          rms(c)
RMM:   1    -0.413177372862E+03   -0.10726E-01   -0.60198E+00  4294   0.519E-01    0.921E-01
RMM:   2    -0.413173824838E+03    0.35480E-02   -0.78994E-02  4304   0.721E-02    0.667E-01
RMM:   3    -0.413178434235E+03   -0.46094E-02   -0.59625E-02  5155   0.113E-01    0.493E-01
RMM:   4    -0.413177654981E+03    0.77925E-03   -0.27479E-02  5029   0.146E-01    0.470E-01
RMM:   5    -0.413166615037E+03    0.11040E-01   -0.66003E-03  4512   0.778E-02    0.423E-02
RMM:   6    -0.413166640073E+03   -0.25036E-04   -0.82455E-04  5279   0.275E-02    0.273E-02
RMM:   7    -0.413166649726E+03   -0.96526E-05   -0.16507E-04  5257   0.128E-02    0.162E-02
RMM:   8    -0.413166649995E+03   -0.26943E-06   -0.25012E-05  4387   0.623E-03    0.462E-03
RMM:   9    -0.413166651100E+03   -0.11048E-05   -0.31447E-06  2653   0.227E-03    0.287E-03
RMM:  10    -0.413166652955E+03   -0.18549E-05   -0.10038E-06  2464   0.149E-03    0.164E-03
RMM:  11    -0.413166653892E+03   -0.93730E-06   -0.57019E-07  2041   0.108E-03
   12 T=    61. E= -.41286669E+03 F= -.41316665E+03 E0= -.41314432E+03  EK= 0.29997E+00 SP= 0.00E+00 SK= 0.00E+00
       N       E                     dE             d eps       ncg     rms          rms(c)
RMM:   1    -0.413178534220E+03   -0.11881E-01   -0.59739E+00  4291   0.518E-01    0.932E-01
RMM:   2    -0.413174214132E+03    0.43201E-02   -0.79192E-02  4265   0.694E-02    0.665E-01
RMM:   3    -0.413172265822E+03    0.19483E-02   -0.52315E-02  5113   0.831E-02    0.339E-01
RMM:   4    -0.413186039700E+03   -0.13774E-01   -0.28598E-02  5086   0.145E-01    0.582E-01
RMM:   5    -0.413167125433E+03    0.18914E-01   -0.91728E-03  4688   0.964E-02    0.438E-02
RMM:   6    -0.413167225762E+03   -0.10033E-03   -0.15306E-03  5603   0.377E-02    0.303E-02
RMM:   7    -0.413167218571E+03    0.71908E-05   -0.27052E-04  5542   0.158E-02    0.206E-02
RMM:   8    -0.413167214084E+03    0.44870E-05   -0.38545E-05  4843   0.739E-03    0.742E-03
RMM:   9    -0.413167211290E+03    0.27940E-05   -0.72633E-06  3091   0.313E-03    0.426E-03
RMM:  10    -0.413167208606E+03    0.26841E-05   -0.13947E-06  2519   0.190E-03    0.256E-03
RMM:  11    -0.413167206147E+03    0.24586E-05   -0.77831E-07  2461   0.136E-03    0.132E-03
RMM:  12    -0.413167201419E+03    0.47279E-05   -0.94266E-07  2491   0.138E-03    0.743E-04
RMM:  13    -0.413167198358E+03    0.30615E-05   -0.38649E-07  2010   0.979E-04    0.480E-04
RMM:  14    -0.413167197362E+03    0.99572E-06   -0.16641E-07  1421   0.725E-04
   13 T=    61. E= -.41286685E+03 F= -.41316720E+03 E0= -.41314490E+03  EK= 0.30035E+00 SP= 0.00E+00 SK= 0.00E+00
       N       E                     dE             d eps       ncg     rms          rms(c)
RMM:   1    -0.413178563964E+03   -0.11366E-01   -0.59706E+00  4294   0.529E-01    0.912E-01
RMM:   2    -0.413175014865E+03    0.35491E-02   -0.78447E-02  4265   0.705E-02    0.660E-01
RMM:   3    -0.413173448013E+03    0.15669E-02   -0.54635E-02  5108   0.857E-02    0.364E-01
RMM:   4    -0.413186001324E+03   -0.12553E-01   -0.28085E-02  5077   0.144E-01    0.576E-01
RMM:   5    -0.413167819787E+03    0.18182E-01   -0.93915E-03  4679   0.955E-02    0.433E-02
RMM:   6    -0.413167917153E+03   -0.97366E-04   -0.14533E-03  5578   0.366E-02    0.291E-02
RMM:   7    -0.413167927705E+03   -0.10552E-04   -0.25632E-04  5518   0.154E-02    0.196E-02
RMM:   8    -0.413167924701E+03    0.30043E-05   -0.36609E-05  4810   0.720E-03    0.670E-03
RMM:   9    -0.413167923897E+03    0.80392E-06   -0.64796E-06  3024   0.301E-03
   14 T=    61. E= -.41286709E+03 F= -.41316792E+03 E0= -.41314566E+03  EK= 0.30083E+00 SP= 0.00E+00 SK= 0.00E+00
       N       E                     dE             d eps       ncg     rms          rms(c)
RMM:   1    -0.413178629417E+03   -0.10705E-01   -0.60569E+00  4299   0.531E-01    0.918E-01
RMM:   2    -0.413175315024E+03    0.33144E-02   -0.79288E-02  4316   0.722E-02    0.668E-01
RMM:   3    -0.413179596709E+03   -0.42817E-02   -0.60238E-02  5137   0.114E-01    0.492E-01
RMM:   4    -0.413179267413E+03    0.32930E-03   -0.27575E-02  5028   0.146E-01    0.477E-01
RMM:   5    -0.413167932471E+03    0.11335E-01   -0.68577E-03  4515   0.791E-02    0.421E-02
RMM:   6    -0.413167960661E+03   -0.28190E-04   -0.87122E-04  5333   0.277E-02    0.272E-02
RMM:   7    -0.413167961293E+03   -0.63241E-06   -0.17209E-04  5223   0.133E-02    0.164E-02
RMM:   8    -0.413167963777E+03   -0.24839E-05   -0.25562E-05  4361   0.632E-03    0.470E-03
RMM:   9    -0.413167964812E+03   -0.10348E-05   -0.33609E-06  2683   0.231E-03    0.297E-03
RMM:  10    -0.413167966425E+03   -0.16129E-05   -0.10227E-06  2472   0.152E-03    0.169E-03
RMM:  11    -0.413167966967E+03   -0.54219E-06   -0.54549E-07  2048   0.107E-03
   15 T=    61. E= -.41286680E+03 F= -.41316797E+03 E0= -.41314573E+03  EK= 0.30117E+00 SP= 0.00E+00 SK= 0.00E+00
       N       E                     dE             d eps       ncg     rms          rms(c)
RMM:   1    -0.413180271489E+03   -0.12305E-01   -0.60103E+00  4297   0.533E-01    0.934E-01
RMM:   2    -0.413176160157E+03    0.41113E-02   -0.79658E-02  4273   0.739E-02    0.667E-01
RMM:   3    -0.413173997921E+03    0.21622E-02   -0.52593E-02  5062   0.863E-02    0.338E-01
RMM:   4    -0.413188207780E+03   -0.14210E-01   -0.28701E-02  5071   0.146E-01    0.587E-01
RMM:   5    -0.413168938526E+03    0.19269E-01   -0.93692E-03  4681   0.975E-02    0.436E-02
RMM:   6    -0.413169046221E+03   -0.10769E-03   -0.15831E-03  5631   0.379E-02    0.306E-02
RMM:   7    -0.413169034307E+03    0.11914E-04   -0.27628E-04  5494   0.164E-02    0.207E-02
RMM:   8    -0.413169022705E+03    0.11602E-04   -0.38830E-05  4822   0.755E-03    0.750E-03
RMM:   9    -0.413169019347E+03    0.33578E-05   -0.76444E-06  3112   0.322E-03    0.438E-03
RMM:  10    -0.413169016398E+03    0.29490E-05   -0.13968E-06  2522   0.193E-03    0.264E-03
RMM:  11    -0.413169013608E+03    0.27898E-05   -0.78955E-07  2467   0.137E-03    0.137E-03
RMM:  12    -0.413169008134E+03    0.54742E-05   -0.94747E-07  2490   0.140E-03    0.752E-04
RMM:  13    -0.413169004243E+03    0.38913E-05   -0.38650E-07  2026   0.990E-04    0.488E-04
RMM:  14    -0.413169003384E+03    0.85881E-06   -0.16273E-07  1417   0.721E-04
   16 T=    61. E= -.41286711E+03 F= -.41316900E+03 E0= -.41314681E+03  EK= 0.30189E+00 SP= 0.00E+00 SK= 0.00E+00
       N       E                     dE             d eps       ncg     rms          rms(c)
RMM:   1    -0.413180212581E+03   -0.11208E-01   -0.59895E+00  4296   0.537E-01    0.917E-01
RMM:   2    -0.413176691209E+03    0.35214E-02   -0.79173E-02  4275   0.755E-02    0.661E-01
RMM:   3    -0.413174827332E+03    0.18639E-02   -0.53712E-02  5062   0.888E-02    0.354E-01
RMM:   4    -0.413188148041E+03   -0.13321E-01   -0.28428E-02  5061   0.145E-01    0.582E-01
RMM:   5    -0.413169359653E+03    0.18788E-01   -0.94320E-03  4678   0.966E-02    0.436E-02
RMM:   6    -0.413169450079E+03   -0.90425E-04   -0.15212E-03  5611   0.371E-02    0.297E-02
RMM:   7    -0.413169453099E+03   -0.30207E-05   -0.26755E-04  5485   0.161E-02    0.200E-02
RMM:   8    -0.413169449364E+03    0.37357E-05   -0.37790E-05  4778   0.761E-03    0.698E-03
RMM:   9    -0.413169447807E+03    0.15569E-05   -0.77866E-06  3072   0.319E-03    0.412E-03
RMM:  10    -0.413169446715E+03    0.10916E-05   -0.13729E-06  2525   0.190E-03    0.250E-03
RMM:  11    -0.413169445445E+03    0.12700E-05   -0.74643E-07  2436   0.133E-03    0.127E-03
RMM:  12    -0.413169442710E+03    0.27354E-05   -0.82053E-07  2469   0.131E-03    0.686E-04
RMM:  13    -0.413169440445E+03    0.22650E-05   -0.33509E-07  1924   0.934E-04    0.435E-04
RMM:  14    -0.413169439463E+03    0.98166E-06   -0.15414E-07  1344   0.711E-04
   17 T=    62. E= -.41286690E+03 F= -.41316944E+03 E0= -.41314728E+03  EK= 0.30254E+00 SP= 0.00E+00 SK= 0.00E+00
       N       E                     dE             d eps       ncg     rms          rms(c)
RMM:   1    -0.413180577003E+03   -0.11137E-01   -0.60974E+00  4292   0.545E-01    0.917E-01
RMM:   2    -0.413177443728E+03    0.31333E-02   -0.79828E-02  4276   0.762E-02    0.669E-01
RMM:   3    -0.413175583477E+03    0.18603E-02   -0.57001E-02  5059   0.909E-02    0.379E-01
RMM:   4    -0.413188125306E+03   -0.12542E-01   -0.28117E-02  5055   0.144E-01    0.581E-01
RMM:   5    -0.413169833939E+03    0.18291E-01   -0.97650E-03  4673   0.964E-02    0.428E-02
RMM:   6    -0.413169937817E+03   -0.10388E-03   -0.14997E-03  5612   0.365E-02    0.289E-02
RMM:   7    -0.413169930711E+03    0.71060E-05   -0.26191E-04  5484   0.157E-02    0.195E-02
RMM:   8    -0.413169927973E+03    0.27378E-05   -0.36178E-05  4767   0.734E-03    0.674E-03
RMM:   9    -0.413169928601E+03   -0.62779E-06   -0.68312E-06  3041   0.309E-03
   18 T=    62. E= -.41286672E+03 F= -.41316993E+03 E0= -.41314781E+03  EK= 0.30321E+00 SP= 0.00E+00 SK= 0.00E+00
       N       E                     dE             d eps       ncg     rms          rms(c)
RMM:   1    -0.413182302534E+03   -0.12375E-01   -0.60609E+00  4301   0.543E-01    0.934E-01
RMM:   2    -0.413178339818E+03    0.39627E-02   -0.80203E-02  4319   0.754E-02    0.669E-01
RMM:   3    -0.413182600070E+03   -0.42603E-02   -0.56972E-02  5140   0.112E-01    0.475E-01
RMM:   4    -0.413182725826E+03   -0.12576E-03   -0.28289E-02  5035   0.148E-01    0.469E-01
RMM:   5    -0.413171179560E+03    0.11546E-01   -0.60897E-03  4529   0.790E-02    0.431E-02
RMM:   6    -0.413171204424E+03   -0.24864E-04   -0.87855E-04  5338   0.281E-02    0.285E-02
RMM:   7    -0.413171199396E+03    0.50284E-05   -0.17493E-04  5232   0.137E-02    0.173E-02
RMM:   8    -0.413171194569E+03    0.48272E-05   -0.26890E-05  4438   0.683E-03    0.505E-03
RMM:   9    -0.413171192315E+03    0.22533E-05   -0.39568E-06  2732   0.246E-03    0.290E-03
RMM:  10    -0.413171189603E+03    0.27121E-05   -0.10849E-06  2493   0.158E-03    0.168E-03
RMM:  11    -0.413171187006E+03    0.25970E-05   -0.59574E-07  2098   0.112E-03    0.802E-04
RMM:  12    -0.413171182276E+03    0.47299E-05   -0.60104E-07  2256   0.108E-03    0.473E-04
RMM:  13    -0.413171178023E+03    0.42533E-05   -0.29221E-07  1535   0.808E-04    0.306E-04
RMM:  14    -0.413171174506E+03    0.35168E-05   -0.16546E-07  1172   0.689E-04    0.170E-04
RMM:  15    -0.413171169123E+03    0.53830E-05   -0.18152E-07  1351   0.716E-04    0.254E-04
RMM:  16    -0.413171162548E+03    0.65755E-05   -0.18008E-07  1339   0.688E-04    0.162E-04
RMM:  17    -0.413171161618E+03    0.92956E-06   -0.57356E-08   846   0.546E-04
   19 T=    62. E= -.41286709E+03 F= -.41317116E+03 E0= -.41314909E+03  EK= 0.30407E+00 SP= 0.00E+00 SK= 0.00E+00
       N       E                     dE             d eps       ncg     rms          rms(c)
RMM:   1    -0.413182571607E+03   -0.11409E-01   -0.60346E+00  4292   0.553E-01    0.924E-01
RMM:   2    -0.413178674124E+03    0.38975E-02   -0.80005E-02  4278   0.755E-02    0.664E-01
RMM:   3    -0.413176723403E+03    0.19507E-02   -0.52738E-02  5095   0.842E-02    0.344E-01
RMM:   4    -0.413191000217E+03   -0.14277E-01   -0.29273E-02  5080   0.147E-01    0.591E-01
RMM:   5    -0.413171487535E+03    0.19513E-01   -0.96010E-03  4685   0.985E-02    0.440E-02
RMM:   6    -0.413171591894E+03   -0.10436E-03   -0.15972E-03  5624   0.382E-02    0.303E-02
RMM:   7    -0.413171596752E+03   -0.48572E-05   -0.27686E-04  5501   0.163E-02    0.207E-02
RMM:   8    -0.413171593736E+03    0.30156E-05   -0.39373E-05  4812   0.784E-03    0.747E-03
RMM:   9    -0.413171591550E+03    0.21865E-05   -0.82491E-06  3119   0.332E-03    0.433E-03
RMM:  10    -0.413171590012E+03    0.15378E-05   -0.14584E-06  2533   0.195E-03    0.263E-03
RMM:  11    -0.413171588369E+03    0.16433E-05   -0.77985E-07  2466   0.136E-03    0.137E-03
RMM:  12    -0.413171584933E+03    0.34352E-05   -0.89244E-07  2486   0.137E-03    0.738E-04
RMM:  13    -0.413171582526E+03    0.24075E-05   -0.35665E-07  1994   0.962E-04    0.472E-04
RMM:  14    -0.413171581599E+03    0.92736E-06   -0.16253E-07  1402   0.719E-04
   20 T=    62. E= -.41286688E+03 F= -.41317158E+03 E0= -.41314955E+03  EK= 0.30470E+00 SP= 0.00E+00 SK= 0.00E+00
       N       E                     dE             d eps       ncg     rms          rms(c)
RMM:   1    -0.413183317279E+03   -0.11735E-01   -0.61296E+00  4292   0.557E-01    0.918E-01
RMM:   2    -0.413180022277E+03    0.32950E-02   -0.80098E-02  4284   0.745E-02    0.669E-01
RMM:   3    -0.413177951742E+03    0.20705E-02   -0.56396E-02  5090   0.845E-02    0.365E-01
RMM:   4    -0.413192144892E+03   -0.14193E-01   -0.28692E-02  5076   0.145E-01    0.596E-01
RMM:   5    -0.413172623481E+03    0.19521E-01   -0.10237E-02  4683   0.994E-02    0.433E-02
RMM:   6    -0.413172735575E+03   -0.11209E-03   -0.16124E-03  5645   0.381E-02    0.292E-02
RMM:   7    -0.413172738211E+03   -0.26352E-05   -0.27748E-04  5519   0.161E-02    0.200E-02
RMM:   8    -0.413172735959E+03    0.22514E-05   -0.38237E-05  4779   0.767E-03    0.714E-03
RMM:   9    -0.413172736076E+03   -0.11648E-06   -0.77127E-06  3133   0.332E-03
   21 T=    62. E= -.41286711E+03 F= -.41317274E+03 E0= -.41315075E+03  EK= 0.30562E+00 SP= 0.00E+00 SK= 0.00E+00
       N       E                     dE             d eps       ncg     rms          rms(c)
RMM:   1    -0.413184867309E+03   -0.12131E-01   -0.61240E+00  4300   0.557E-01    0.933E-01
RMM:   2    -0.413181015772E+03    0.38515E-02   -0.80759E-02  4332   0.757E-02    0.672E-01
RMM:   3    -0.413185835574E+03   -0.48198E-02   -0.58172E-02  5136   0.115E-01    0.487E-01
RMM:   4    -0.413185322123E+03    0.51345E-03   -0.28557E-02  5023   0.149E-01    0.471E-01
RMM:   5    -0.413173820077E+03    0.11502E-01   -0.62056E-03  4517   0.793E-02    0.429E-02
RMM:   6    -0.413173841044E+03   -0.20967E-04   -0.87984E-04  5340   0.281E-02    0.283E-02
RMM:   7    -0.413173844956E+03   -0.39127E-05   -0.17872E-04  5218   0.137E-02    0.174E-02
RMM:   8    -0.413173844099E+03    0.85754E-06   -0.27663E-05  4430   0.700E-03    0.507E-03
RMM:   9    -0.413173842325E+03    0.17741E-05   -0.40011E-06  2720   0.248E-03    0.293E-03
RMM:  10    -0.413173840152E+03    0.21726E-05   -0.10451E-06  2485   0.157E-03    0.170E-03
RMM:  11    -0.413173837919E+03    0.22326E-05   -0.58551E-07  2099   0.112E-03    0.811E-04
RMM:  12    -0.413173833607E+03    0.43123E-05   -0.59957E-07  2246   0.107E-03    0.480E-04
RMM:  13    -0.413173829145E+03    0.44618E-05   -0.30801E-07  1522   0.809E-04    0.297E-04
RMM:  14    -0.413173826031E+03    0.31138E-05   -0.15774E-07  1151   0.676E-04    0.169E-04
RMM:  15    -0.413173820267E+03    0.57643E-05   -0.18138E-07  1291   0.709E-04    0.252E-04
RMM:  16    -0.413173813880E+03    0.63873E-05   -0.15806E-07  1203   0.666E-04    0.154E-04
RMM:  17    -0.413173812835E+03    0.10446E-05   -0.57076E-08   838   0.559E-04    0.115E-04
RMM:  18    -0.413173810883E+03    0.19523E-05   -0.43800E-08   883   0.559E-04    0.501E-05
RMM:  19    -0.413173809862E+03    0.10210E-05   -0.26976E-08   765   0.536E-04    0.197E-05
RMM:  20    -0.413173809543E+03    0.31945E-06   -0.13409E-08   625   0.515E-04
   22 T=    62. E= -.41286719E+03 F= -.41317381E+03 E0= -.41315187E+03  EK= 0.30661E+00 SP= 0.00E+00 SK= 0.00E+00
       N       E                     dE             d eps       ncg     rms          rms(c)
RMM:   1    -0.413185717708E+03   -0.11908E-01   -0.60991E+00  4293   0.561E-01    0.933E-01
RMM:   2    -0.413181741187E+03    0.39765E-02   -0.80910E-02  4292   0.768E-02    0.668E-01
RMM:   3    -0.413179212993E+03    0.25282E-02   -0.52164E-02  5049   0.852E-02    0.327E-01
RMM:   4    -0.413195347788E+03   -0.16135E-01   -0.29699E-02  5079   0.148E-01    0.608E-01
RMM:   5    -0.413174495077E+03    0.20853E-01   -0.10122E-02  4697   0.102E-01    0.441E-02
RMM:   6    -0.413174614682E+03   -0.11961E-03   -0.17102E-03  5674   0.398E-02    0.310E-02
RMM:   7    -0.413174605601E+03    0.90814E-05   -0.29359E-04  5493   0.170E-02    0.213E-02
RMM:   8    -0.413174597528E+03    0.80729E-05   -0.42344E-05  4893   0.794E-03    0.800E-03
RMM:   9    -0.413174594511E+03    0.30173E-05   -0.89168E-06  3236   0.342E-03    0.467E-03
RMM:  10    -0.413174592222E+03    0.22880E-05   -0.14516E-06  2529   0.199E-03    0.285E-03
RMM:  11    -0.413174589897E+03    0.23256E-05   -0.83080E-07  2486   0.141E-03    0.149E-03
RMM:  12    -0.413174585341E+03    0.45563E-05   -0.10175E-06  2504   0.146E-03    0.800E-04
RMM:  13    -0.413174582168E+03    0.31730E-05   -0.40213E-07  2088   0.100E-03    0.518E-04
RMM:  14    -0.413174581514E+03    0.65389E-06   -0.17015E-07  1437   0.725E-04
   23 T=    63. E= -.41286697E+03 F= -.41317458E+03 E0= -.41315269E+03  EK= 0.30761E+00 SP= 0.00E+00 SK= 0.00E+00
       N       E                     dE             d eps       ncg     rms          rms(c)
RMM:   1    -0.413186818446E+03   -0.12236E-01   -0.61691E+00  4294   0.570E-01    0.920E-01
RMM:   2    -0.413183631703E+03    0.31867E-02   -0.81191E-02  4300   0.790E-02    0.670E-01
RMM:   3    -0.413180736871E+03    0.28948E-02   -0.55454E-02  5016   0.874E-02    0.343E-01
RMM:   4    -0.413197345257E+03   -0.16608E-01   -0.28879E-02  5081   0.146E-01    0.617E-01
RMM:   5    -0.413176050903E+03    0.21294E-01   -0.10933E-02  4710   0.104E-01    0.435E-02
RMM:   6    -0.413176162427E+03   -0.11152E-03   -0.17665E-03  5708   0.403E-02    0.299E-02
RMM:   7    -0.413176166635E+03   -0.42078E-05   -0.30023E-04  5510   0.171E-02    0.207E-02
RMM:   8    -0.413176164445E+03    0.21904E-05   -0.44359E-05  4802   0.837E-03    0.784E-03
RMM:   9    -0.413176163829E+03    0.61643E-06   -0.10229E-05  3291   0.362E-03    0.483E-03
RMM:  10    -0.413176164149E+03   -0.32046E-06   -0.15206E-06  2534   0.202E-03
   24 T=    63. E= -.41286718E+03 F= -.41317616E+03 E0= -.41315432E+03  EK= 0.30899E+00 SP= 0.00E+00 SK= 0.00E+00
       N       E                     dE             d eps       ncg     rms          rms(c)
RMM:   1    -0.413188195950E+03   -0.12032E-01   -0.62162E+00  4298   0.573E-01    0.933E-01
RMM:   2    -0.413184748373E+03    0.34476E-02   -0.81949E-02  4318   0.813E-02    0.676E-01
RMM:   3    -0.413185236288E+03   -0.48791E-03   -0.56774E-02  5076   0.105E-01    0.416E-01
RMM:   4    -0.413192990087E+03   -0.77538E-02   -0.28596E-02  5043   0.148E-01    0.543E-01
RMM:   5    -0.413177147311E+03    0.15843E-01   -0.80829E-03  4612   0.903E-02    0.435E-02
RMM:   6    -0.413177215520E+03   -0.68209E-04   -0.12868E-03  5577   0.336E-02    0.290E-02
RMM:   7    -0.413177212422E+03    0.30985E-05   -0.23205E-04  5396   0.151E-02    0.192E-02
RMM:   8    -0.413177207114E+03    0.53078E-05   -0.33552E-05  4676   0.726E-03    0.623E-03
RMM:   9    -0.413177205402E+03    0.17121E-05   -0.59248E-06  2925   0.289E-03    0.360E-03
RMM:  10    -0.413177203946E+03    0.14561E-05   -0.11578E-06  2509   0.175E-03    0.220E-03
RMM:  11    -0.413177202111E+03    0.18345E-05   -0.64535E-07  2335   0.124E-03    0.111E-03
RMM:  12    -0.413177198366E+03    0.37450E-05   -0.70900E-07  2428   0.121E-03    0.598E-04
RMM:  13    -0.413177195601E+03    0.27657E-05   -0.28903E-07  1786   0.862E-04    0.406E-04
RMM:  14    -0.413177193349E+03    0.22517E-05   -0.14713E-07  1249   0.690E-04    0.209E-04
RMM:  15    -0.413177188392E+03    0.49575E-05   -0.15558E-07  1333   0.706E-04    0.243E-04
RMM:  16    -0.413177181742E+03    0.66500E-05   -0.16151E-07  1230   0.674E-04    0.197E-04
RMM:  17    -0.413177180080E+03    0.16617E-05   -0.58872E-08   925   0.576E-04    0.145E-04
RMM:  18    -0.413177177201E+03    0.28787E-05   -0.49268E-08   978   0.583E-04    0.664E-05
RMM:  19    -0.413177176041E+03    0.11604E-05   -0.27480E-08   826   0.551E-04    0.216E-05
RMM:  20    -0.413177175641E+03    0.40008E-06   -0.13746E-08   692   0.530E-04
   25 T=    63. E= -.41286693E+03 F= -.41317718E+03 E0= -.41315538E+03  EK= 0.31025E+00 SP= 0.00E+00 SK= 0.00E+00
       N       E                     dE             d eps       ncg     rms          rms(c)
RMM:   1    -0.413189988179E+03   -0.12812E-01   -0.61905E+00  4293   0.575E-01    0.942E-01
RMM:   2    -0.413185873331E+03    0.41148E-02   -0.82473E-02  4299   0.792E-02    0.674E-01
RMM:   3    -0.413182663782E+03    0.32095E-02   -0.51733E-02  5017   0.864E-02    0.310E-01
RMM:   4    -0.413201027365E+03   -0.18364E-01   -0.30299E-02  5082   0.149E-01    0.629E-01
RMM:   5    -0.413178495200E+03    0.22532E-01   -0.10841E-02  4713   0.105E-01    0.447E-02
RMM:   6    -0.413178620008E+03   -0.12481E-03   -0.18664E-03  5733   0.412E-02    0.316E-02
RMM:   7    -0.413178618505E+03    0.15030E-05   -0.31168E-04  5506   0.176E-02    0.220E-02
RMM:   8    -0.413178612436E+03    0.60695E-05   -0.46039E-05  4893   0.837E-03    0.869E-03
RMM:   9    -0.413178608572E+03    0.38635E-05   -0.10222E-05  3362   0.369E-03    0.509E-03
RMM:  10    -0.413178605551E+03    0.30209E-05   -0.16338E-06  2543   0.208E-03    0.306E-03
RMM:  11    -0.413178602661E+03    0.28904E-05   -0.93201E-07  2499   0.150E-03    0.160E-03
RMM:  12    -0.413178597317E+03    0.53436E-05   -0.11676E-06  2510   0.156E-03    0.864E-04
RMM:  13    -0.413178593978E+03    0.33396E-05   -0.43075E-07  2159   0.105E-03    0.561E-04
RMM:  14    -0.413178593369E+03    0.60848E-06   -0.18381E-07  1512   0.742E-04
   26 T=    63. E= -.41286698E+03 F= -.41317859E+03 E0= -.41315685E+03  EK= 0.31162E+00 SP= 0.00E+00 SK= 0.00E+00
       N       E                     dE             d eps       ncg     rms          rms(c)
RMM:   1    -0.413191155336E+03   -0.12561E-01   -0.62267E+00  4294   0.585E-01    0.924E-01
RMM:   2    -0.413187902606E+03    0.32527E-02   -0.82256E-02  4290   0.805E-02    0.672E-01
RMM:   3    -0.413184297658E+03    0.36049E-02   -0.54153E-02  5025   0.822E-02    0.321E-01
RMM:   4    -0.413202996129E+03   -0.18698E-01   -0.29389E-02  5097   0.147E-01    0.634E-01
RMM:   5    -0.413180270473E+03    0.22726E-01   -0.11399E-02  4733   0.106E-01    0.439E-02
RMM:   6    -0.413180411863E+03   -0.14139E-03   -0.18874E-03  5760   0.412E-02    0.303E-02
RMM:   7    -0.413180418601E+03   -0.67380E-05   -0.31155E-04  5533   0.173E-02    0.214E-02
RMM:   8    -0.413180415536E+03    0.30648E-05   -0.47343E-05  4877   0.828E-03    0.870E-03
RMM:   9    -0.413180413633E+03    0.19025E-05   -0.97755E-06  3395   0.373E-03    0.524E-03
RMM:  10    -0.413180412803E+03    0.83054E-06   -0.16526E-06  2538   0.208E-03
   27 T=    64. E= -.41286728E+03 F= -.41318041E+03 E0= -.41315871E+03  EK= 0.31313E+00 SP= 0.00E+00 SK= 0.00E+00
       N       E                     dE             d eps       ncg     rms          rms(c)
RMM:   1    -0.413192576176E+03   -0.12163E-01   -0.63213E+00  4297   0.593E-01    0.934E-01
RMM:   2    -0.413189117876E+03    0.34583E-02   -0.84023E-02  4313   0.838E-02    0.680E-01
RMM:   3    -0.413189586303E+03   -0.46843E-03   -0.57738E-02  5103   0.102E-01    0.420E-01
RMM:   4    -0.413198151009E+03   -0.85647E-02   -0.29756E-02  5046   0.150E-01    0.557E-01
RMM:   5    -0.413181545111E+03    0.16606E-01   -0.86512E-03  4628   0.931E-02    0.439E-02
RMM:   6    -0.413181610419E+03   -0.65308E-04   -0.13705E-03  5612   0.343E-02    0.290E-02
RMM:   7    -0.413181607803E+03    0.26159E-05   -0.23932E-04  5403   0.154E-02    0.194E-02
RMM:   8    -0.413181606567E+03    0.12365E-05   -0.34568E-05  4693   0.752E-03    0.641E-03
RMM:   9    -0.413181605388E+03    0.11786E-05   -0.62709E-06  2957   0.303E-03    0.368E-03
RMM:  10    -0.413181604280E+03    0.11085E-05   -0.12415E-06  2515   0.180E-03    0.224E-03
RMM:  11    -0.413181602703E+03    0.15768E-05   -0.68938E-07  2363   0.127E-03    0.113E-03
RMM:  12    -0.413181599299E+03    0.34041E-05   -0.74035E-07  2432   0.123E-03    0.598E-04
RMM:  13    -0.413181596822E+03    0.24769E-05   -0.29354E-07  1803   0.872E-04    0.418E-04
RMM:  14    -0.413181594697E+03    0.21253E-05   -0.14676E-07  1256   0.692E-04    0.215E-04
RMM:  15    -0.413181589646E+03    0.50505E-05   -0.15989E-07  1361   0.714E-04    0.248E-04
RMM:  16    -0.413181583312E+03    0.63341E-05   -0.15259E-07  1280   0.674E-04    0.209E-04
RMM:  17    -0.413181581381E+03    0.19310E-05   -0.59931E-08   953   0.572E-04    0.157E-04
RMM:  18    -0.413181578374E+03    0.30074E-05   -0.47877E-08   962   0.574E-04    0.633E-05
RMM:  19    -0.413181577277E+03    0.10971E-05   -0.25667E-08   800   0.548E-04    0.257E-05
RMM:  20    -0.413181576785E+03    0.49147E-06   -0.16041E-08   729   0.533E-04
   28 T=    64. E= -.41286704E+03 F= -.41318158E+03 E0= -.41315993E+03  EK= 0.31453E+00 SP= 0.00E+00 SK= 0.00E+00
       N       E                     dE             d eps       ncg     rms          rms(c)
RMM:   1    -0.413195201417E+03   -0.13624E-01   -0.62937E+00  4292   0.596E-01    0.950E-01
RMM:   2    -0.413191035862E+03    0.41656E-02   -0.84189E-02  4291   0.846E-02    0.680E-01
RMM:   3    -0.413187145311E+03    0.38906E-02   -0.51567E-02  5033   0.789E-02    0.292E-01
RMM:   4    -0.413207680716E+03   -0.20535E-01   -0.30843E-02  5095   0.150E-01    0.649E-01
RMM:   5    -0.413183483475E+03    0.24197E-01   -0.11679E-02  4740   0.109E-01    0.450E-02
RMM:   6    -0.413183612881E+03   -0.12941E-03   -0.20329E-03  5780   0.427E-02    0.318E-02
RMM:   7    -0.413183620262E+03   -0.73806E-05   -0.32477E-04  5535   0.178E-02    0.224E-02
RMM:   8    -0.413183619630E+03    0.63155E-06   -0.51204E-05  4916   0.861E-03    0.956E-03
RMM:   9    -0.413183616535E+03    0.30947E-05   -0.10779E-05  3487   0.396E-03    0.562E-03
RMM:  10    -0.413183613603E+03    0.29324E-05   -0.19106E-06  2562   0.223E-03    0.334E-03
RMM:  11    -0.413183610536E+03    0.30665E-05   -0.10561E-06  2502   0.161E-03    0.173E-03
RMM:  12    -0.413183605188E+03    0.53483E-05   -0.13405E-06  2530   0.167E-03    0.989E-04
RMM:  13    -0.413183602306E+03    0.28825E-05   -0.44509E-07  2217   0.111E-03    0.646E-04
RMM:  14    -0.413183601488E+03    0.81741E-06   -0.19483E-07  1573   0.770E-04
   29 T=    64. E= -.41286727E+03 F= -.41318360E+03 E0= -.41316200E+03  EK= 0.31633E+00 SP= 0.00E+00 SK= 0.00E+00
       N       E                     dE             d eps       ncg     rms          rms(c)
RMM:   1    -0.413196818967E+03   -0.13217E-01   -0.63089E+00  4296   0.611E-01    0.932E-01
RMM:   2    -0.413193151831E+03    0.36671E-02   -0.84260E-02  4280   0.870E-02    0.675E-01
RMM:   3    -0.413188643167E+03    0.45087E-02   -0.52945E-02  4981   0.789E-02    0.294E-01
RMM:   4    -0.413209509544E+03   -0.20866E-01   -0.29502E-02  5106   0.146E-01    0.649E-01
RMM:   5    -0.413185348597E+03    0.24161E-01   -0.12035E-02  4745   0.110E-01    0.441E-02
RMM:   6    -0.413185490231E+03   -0.14163E-03   -0.20573E-03  5816   0.428E-02    0.307E-02
RMM:   7    -0.413185505346E+03   -0.15115E-04   -0.31357E-04  5553   0.177E-02    0.216E-02
RMM:   8    -0.413185503239E+03    0.21073E-05   -0.53803E-05  4873   0.891E-03    0.970E-03
RMM:   9    -0.413185500424E+03    0.28154E-05   -0.11955E-05  3571   0.415E-03    0.590E-03
RMM:  10    -0.413185498371E+03    0.20524E-05   -0.20177E-06  2575   0.232E-03    0.349E-03
RMM:  11    -0.413185495721E+03    0.26504E-05   -0.11643E-06  2502   0.171E-03    0.174E-03
RMM:  12    -0.413185491371E+03    0.43498E-05   -0.12739E-06  2513   0.167E-03    0.103E-03
RMM:  13    -0.413185489071E+03    0.22995E-05   -0.41092E-07  2215   0.110E-03    0.633E-04
RMM:  14    -0.413185488100E+03    0.97171E-06   -0.18816E-07  1556   0.764E-04
   30 T=    65. E= -.41286729E+03 F= -.41318549E+03 E0= -.41316394E+03  EK= 0.31820E+00 SP= 0.00E+00 SK= 0.00E+00
       N       E                     dE             d eps       ncg     rms          rms(c)
RMM:   1    -0.413198170141E+03   -0.12681E-01   -0.64360E+00  4299   0.617E-01    0.938E-01
RMM:   2    -0.413195256306E+03    0.29138E-02   -0.85865E-02  4284   0.935E-02    0.685E-01
RMM:   3    -0.413190299208E+03    0.49571E-02   -0.56028E-02  4939   0.834E-02    0.309E-01
RMM:   4    -0.413210539990E+03   -0.20241E-01   -0.28352E-02  5110   0.144E-01    0.643E-01
RMM:   5    -0.413186932692E+03    0.23607E-01   -0.11965E-02  4755   0.108E-01    0.434E-02
RMM:   6    -0.413187073628E+03   -0.14094E-03   -0.19833E-03  5832   0.421E-02    0.296E-02
RMM:   7    -0.413187089230E+03   -0.15602E-04   -0.29435E-04  5559   0.170E-02    0.205E-02
RMM:   8    -0.413187090872E+03   -0.16415E-05   -0.53760E-05  4905   0.849E-03    0.930E-03
RMM:   9    -0.413187089675E+03    0.11965E-05   -0.10699E-05  3581   0.402E-03    0.573E-03
RMM:  10    -0.413187089743E+03   -0.67743E-07   -0.19289E-06  2559   0.225E-03
   31 T=    65. E= -.41286702E+03 F= -.41318709E+03 E0= -.41316559E+03  EK= 0.32007E+00 SP= 0.00E+00 SK= 0.00E+00
       N       E                     dE             d eps       ncg     rms          rms(c)
RMM:   1    -0.413201336105E+03   -0.14246E-01   -0.64182E+00  4299   0.626E-01    0.957E-01
RMM:   2    -0.413197518952E+03    0.38172E-02   -0.86531E-02  4301   0.983E-02    0.686E-01
RMM:   3    -0.413196410842E+03    0.11081E-02   -0.54421E-02  5040   0.107E-01    0.377E-01
RMM:   4    -0.413208720568E+03   -0.12310E-01   -0.31056E-02  5049   0.153E-01    0.585E-01
RMM:   5    -0.413189549253E+03    0.19171E-01   -0.90878E-03  4661   0.973E-02    0.450E-02
RMM:   6    -0.413189643523E+03   -0.94271E-04   -0.15980E-03  5674   0.375E-02    0.312E-02
RMM:   7    -0.413189652193E+03   -0.86696E-05   -0.27655E-04  5412   0.167E-02    0.213E-02
RMM:   8    -0.413189647745E+03    0.44482E-05   -0.40654E-05  4834   0.797E-03    0.777E-03
RMM:   9    -0.413189643644E+03    0.41008E-05   -0.83242E-06  3113   0.339E-03    0.422E-03
RMM:  10    -0.413189639149E+03    0.44950E-05   -0.14793E-06  2531   0.201E-03    0.258E-03
RMM:  11    -0.413189634915E+03    0.42342E-05   -0.79143E-07  2460   0.140E-03    0.134E-03
RMM:  12    -0.413189627343E+03    0.75717E-05   -0.86596E-07  2476   0.136E-03    0.684E-04
RMM:  13    -0.413189623403E+03    0.39405E-05   -0.35421E-07  1997   0.958E-04    0.503E-04
RMM:  14    -0.413189620540E+03    0.28631E-05   -0.17305E-07  1443   0.732E-04    0.278E-04
RMM:  15    -0.413189612971E+03    0.75681E-05   -0.16951E-07  1499   0.734E-04    0.288E-04
RMM:  16    -0.413189604957E+03    0.80142E-05   -0.12528E-07  1243   0.658E-04    0.243E-04
RMM:  17    -0.413189601029E+03    0.39282E-05   -0.69722E-08  1041   0.588E-04    0.181E-04
RMM:  18    -0.413189597272E+03    0.37568E-05   -0.56708E-08  1077   0.591E-04    0.482E-05
RMM:  19    -0.413189596148E+03    0.11247E-05   -0.28967E-08   846   0.546E-04    0.426E-05
RMM:  20    -0.413189595851E+03    0.29698E-06   -0.14489E-08   713   0.526E-04
   32 T=    66. E= -.41286727E+03 F= -.41318960E+03 E0= -.41316815E+03  EK= 0.32232E+00 SP= 0.00E+00 SK= 0.00E+00
       N       E                     dE             d eps       ncg     rms          rms(c)
RMM:   1    -0.413203020247E+03   -0.13424E-01   -0.64209E+00  4297   0.651E-01    0.944E-01
RMM:   2    -0.413199283894E+03    0.37364E-02   -0.87617E-02  4275   0.101E-01    0.682E-01
RMM:   3    -0.413194099519E+03    0.51844E-02   -0.52255E-02  4865   0.882E-02    0.270E-01
RMM:   4    -0.413216114120E+03   -0.22015E-01   -0.28670E-02  5108   0.145E-01    0.656E-01
RMM:   5    -0.413191215976E+03    0.24898E-01   -0.12310E-02  4766   0.111E-01    0.441E-02
RMM:   6    -0.413191384343E+03   -0.16837E-03   -0.21100E-03  5811   0.434E-02    0.307E-02
RMM:   7    -0.413191410767E+03   -0.26424E-04   -0.29178E-04  5563   0.177E-02    0.205E-02
RMM:   8    -0.413191412104E+03   -0.13368E-05   -0.60446E-05  4911   0.894E-03    0.102E-02
RMM:   9    -0.413191408472E+03    0.36325E-05   -0.12553E-05  3787   0.431E-03    0.633E-03
RMM:  10    -0.413191406646E+03    0.18259E-05   -0.21892E-06  2587   0.245E-03    0.375E-03
RMM:  11    -0.413191404048E+03    0.25981E-05   -0.13254E-06  2519   0.180E-03    0.191E-03
RMM:  12    -0.413191399751E+03    0.42964E-05   -0.13733E-06  2516   0.179E-03    0.113E-03
RMM:  13    -0.413191397562E+03    0.21890E-05   -0.42404E-07  2254   0.114E-03    0.688E-04
RMM:  14    -0.413191396615E+03    0.94769E-06   -0.19406E-07  1619   0.779E-04
   33 T=    66. E= -.41286698E+03 F= -.41319140E+03 E0= -.41317000E+03  EK= 0.32442E+00 SP= 0.00E+00 SK= 0.00E+00
       N       E                     dE             d eps       ncg     rms          rms(c)
RMM:   1    -0.413205046439E+03   -0.13649E-01   -0.65561E+00  4306   0.655E-01    0.942E-01
RMM:   2    -0.413201735519E+03    0.33109E-02   -0.89559E-02  4271   0.104E-01    0.690E-01
RMM:   3    -0.413196105965E+03    0.56296E-02   -0.55735E-02  4754   0.868E-02    0.281E-01
RMM:   4    -0.413213048251E+03   -0.16942E-01   -0.21747E-02  5116   0.127E-01    0.581E-01
RMM:   5    -0.413193632787E+03    0.19415E-01   -0.97153E-03  4785   0.976E-02    0.409E-02
RMM:   6    -0.413193756352E+03   -0.12357E-03   -0.16450E-03  5827   0.380E-02    0.275E-02
RMM:   7    -0.413193775083E+03   -0.18731E-04   -0.18412E-04  5484   0.148E-02    0.151E-02
RMM:   8    -0.413193779267E+03   -0.41836E-05   -0.41273E-05  4841   0.702E-03    0.861E-03
RMM:   9    -0.413193776687E+03    0.25800E-05   -0.10664E-05  3724   0.375E-03    0.587E-03
RMM:  10    -0.413193776894E+03   -0.20695E-06   -0.17224E-06  2550   0.228E-03
   34 T=    67. E= -.41286710E+03 F= -.41319378E+03 E0= -.41317242E+03  EK= 0.32668E+00 SP= 0.00E+00 SK= 0.00E+00
       N       E                     dE             d eps       ncg     rms          rms(c)
RMM:   1    -0.413209770220E+03   -0.15994E-01   -0.65771E+00  4303   0.677E-01    0.963E-01
RMM:   2    -0.413203983318E+03    0.57869E-02   -0.90504E-02  4285   0.113E-01    0.693E-01
RMM:   3    -0.413200340940E+03    0.36424E-02   -0.53207E-02  4905   0.104E-01    0.303E-01
RMM:   4    -0.413222145673E+03   -0.21805E-01   -0.32477E-02  5083   0.154E-01    0.670E-01
RMM:   5    -0.413196336711E+03    0.25809E-01   -0.12500E-02  4737   0.113E-01    0.460E-02
RMM:   6    -0.413196494919E+03   -0.15821E-03   -0.22119E-03  5765   0.440E-02    0.326E-02
RMM:   7    -0.413196508041E+03   -0.13122E-04   -0.33961E-04  5535   0.181E-02    0.227E-02
RMM:   8    -0.413196508065E+03   -0.23600E-07   -0.54122E-05  4919   0.902E-03    0.973E-03
RMM:   9    -0.413196504013E+03    0.40516E-05   -0.12290E-05  3598   0.426E-03    0.565E-03
RMM:  10    -0.413196500191E+03    0.38217E-05   -0.21064E-06  2600   0.240E-03    0.342E-03
RMM:  11    -0.413196496118E+03    0.40732E-05   -0.10606E-06  2501   0.165E-03    0.180E-03
RMM:  12    -0.413196488672E+03    0.74462E-05   -0.12571E-06  2500   0.173E-03    0.990E-04
RMM:  13    -0.413196484919E+03    0.37533E-05   -0.44771E-07  2269   0.114E-03    0.716E-04
RMM:  14    -0.413196483335E+03    0.15842E-05   -0.20250E-07  1654   0.790E-04    0.415E-04
RMM:  15    -0.413196475941E+03    0.73936E-05   -0.19783E-07  1804   0.792E-04    0.379E-04
RMM:  16    -0.413196469268E+03    0.66733E-05   -0.12837E-07  1408   0.668E-04    0.423E-04
RMM:  17    -0.413196462799E+03    0.64685E-05   -0.86606E-08  1097   0.601E-04    0.333E-04
RMM:  18    -0.413196459521E+03    0.32782E-05   -0.58811E-08  1030   0.585E-04    0.995E-05
RMM:  19    -0.413196457253E+03    0.22680E-05   -0.46946E-08  1114   0.588E-04    0.114E-04
RMM:  20    -0.413196457080E+03    0.17356E-06   -0.16487E-08   706   0.513E-04
   35 T=    67. E= -.41286744E+03 F= -.41319646E+03 E0= -.41317515E+03  EK= 0.32901E+00 SP= 0.00E+00 SK= 0.00E+00
       N       E                     dE             d eps       ncg     rms          rms(c)
RMM:   1    -0.413210402419E+03   -0.13945E-01   -0.65583E+00  4305   0.695E-01    0.960E-01
RMM:   2    -0.413205969544E+03    0.44329E-02   -0.90880E-02  4266   0.118E-01    0.690E-01
RMM:   3    -0.413199782329E+03    0.61872E-02   -0.51795E-02  4464   0.928E-02    0.215E-01
RMM:   4    -0.413204046350E+03   -0.42640E-02   -0.69902E-03  5111   0.725E-02    0.315E-01
RMM:   5    -0.413198479293E+03    0.55671E-02   -0.27841E-03  4793   0.522E-02    0.371E-02
RMM:   6    -0.413198531261E+03   -0.51969E-04   -0.68306E-04  5681   0.250E-02    0.303E-02
RMM:   7    -0.413198543898E+03   -0.12636E-04   -0.20873E-04  5171   0.157E-02    0.196E-02
RMM:   8    -0.413198533607E+03    0.10290E-04   -0.24734E-05  4287   0.609E-03    0.664E-03
RMM:   9    -0.413198532156E+03    0.14511E-05   -0.42068E-06  2730   0.252E-03    0.369E-03
RMM:  10    -0.413198529291E+03    0.28652E-05   -0.12797E-06  2504   0.185E-03    0.186E-03
RMM:  11    -0.413198525869E+03    0.34223E-05   -0.75766E-07  2415   0.138E-03    0.887E-04
RMM:  12    -0.413198522481E+03    0.33873E-05   -0.39759E-07  2070   0.101E-03    0.476E-04
RMM:  13    -0.413198520003E+03    0.24783E-05   -0.18653E-07  1486   0.759E-04    0.256E-04
RMM:  14    -0.413198515817E+03    0.41865E-05   -0.12529E-07  1181   0.685E-04    0.207E-04
RMM:  15    -0.413198509344E+03    0.64721E-05   -0.11087E-07  1134   0.669E-04    0.114E-04
RMM:  16    -0.413198506249E+03    0.30951E-05   -0.63162E-08  1040   0.618E-04    0.103E-04
RMM:  17    -0.413198500737E+03    0.55121E-05   -0.66256E-08  1197   0.625E-04    0.614E-05
RMM:  18    -0.413198498740E+03    0.19968E-05   -0.33269E-08   900   0.557E-04    0.350E-05
RMM:  19    -0.413198497870E+03    0.86988E-06   -0.19405E-08   752   0.529E-04
   36 T=    67. E= -.41286724E+03 F= -.41319850E+03 E0= -.41317723E+03  EK= 0.33126E+00 SP= 0.00E+00 SK= 0.00E+00
       N       E                     dE             d eps       ncg     rms          rms(c)
RMM:   1    -0.413213668933E+03   -0.15170E-01   -0.66794E+00  4310   0.714E-01    0.948E-01
RMM:   2    -0.413209398032E+03    0.42709E-02   -0.95456E-02  4265   0.120E-01    0.695E-01
RMM:   3    -0.413203035521E+03    0.63625E-02   -0.54616E-02  4346   0.954E-02    0.241E-01
RMM:   4    -0.413201695241E+03    0.13403E-02   -0.27099E-03  4662   0.314E-02    0.524E-02
RMM:   5    -0.413201668029E+03    0.27211E-04   -0.20248E-04  4844   0.124E-02    0.426E-02
RMM:   6    -0.413201668484E+03   -0.45451E-06   -0.30274E-04  5129   0.163E-02    0.301E-02
RMM:   7    -0.413201677264E+03   -0.87798E-05   -0.14732E-04  4747   0.136E-02    0.212E-02
RMM:   8    -0.413201667831E+03    0.94326E-05   -0.30049E-05  4105   0.506E-03    0.518E-03
RMM:   9    -0.413201668738E+03   -0.90736E-06   -0.73619E-06  2415   0.219E-03
   37 T=    68. E= -.41286766E+03 F= -.41320167E+03 E0= -.41318045E+03  EK= 0.33401E+00 SP= 0.00E+00 SK= 0.00E+00
       N       E                     dE             d eps       ncg     rms          rms(c)
RMM:   1    -0.413217637085E+03   -0.15969E-01   -0.67457E+00  4310   0.743E-01    0.966E-01
RMM:   2    -0.413212300523E+03    0.53366E-02   -0.96130E-02  4268   0.115E-01    0.701E-01
RMM:   3    -0.413205643998E+03    0.66565E-02   -0.53357E-02  4496   0.883E-02    0.227E-01
RMM:   4    -0.413208852670E+03   -0.32087E-02   -0.65801E-03  5115   0.684E-02    0.288E-01
RMM:   5    -0.413204272535E+03    0.45801E-02   -0.22932E-03  4795   0.483E-02    0.385E-02
RMM:   6    -0.413204283498E+03   -0.10963E-04   -0.58487E-04  5553   0.244E-02    0.305E-02
RMM:   7    -0.413204301138E+03   -0.17640E-04   -0.19813E-04  5127   0.151E-02    0.196E-02
RMM:   8    -0.413204293983E+03    0.71549E-05   -0.31312E-05  4797   0.648E-03    0.736E-03
RMM:   9    -0.413204292964E+03    0.10192E-05   -0.59665E-06  2726   0.257E-03    0.322E-03
RMM:  10    -0.413204290006E+03    0.29582E-05   -0.13929E-06  2493   0.176E-03    0.162E-03
RMM:  11    -0.413204285864E+03    0.41418E-05   -0.67372E-07  2340   0.122E-03    0.758E-04
RMM:  12    -0.413204282131E+03    0.37329E-05   -0.33659E-07  1891   0.907E-04    0.386E-04
RMM:  13    -0.413204277680E+03    0.44514E-05   -0.19774E-07  1357   0.747E-04    0.240E-04
RMM:  14    -0.413204271520E+03    0.61601E-05   -0.16476E-07  1277   0.708E-04    0.197E-04
RMM:  15    -0.413204260939E+03    0.10581E-04   -0.19185E-07  1486   0.736E-04    0.161E-04
RMM:  16    -0.413204257874E+03    0.30650E-05   -0.72739E-08  1046   0.593E-04    0.122E-04
RMM:  17    -0.413204254209E+03    0.36650E-05   -0.51675E-08  1006   0.576E-04    0.501E-05
RMM:  18    -0.413204252522E+03    0.16872E-05   -0.30719E-08   790   0.531E-04    0.298E-05
RMM:  19    -0.413204251716E+03    0.80599E-06   -0.21041E-08   685   0.515E-04
   38 T=    69. E= -.41286753E+03 F= -.41320425E+03 E0= -.41318307E+03  EK= 0.33673E+00 SP= 0.00E+00 SK= 0.00E+00
       N       E                     dE             d eps       ncg     rms          rms(c)
RMM:   1    -0.413219749757E+03   -0.15497E-01   -0.67346E+00  4308   0.774E-01    0.976E-01
RMM:   2    -0.413214865717E+03    0.48840E-02   -0.95289E-02  4263   0.113E-01    0.700E-01
RMM:   3    -0.413208406274E+03    0.64594E-02   -0.51576E-02  4646   0.854E-02    0.212E-01
RMM:   4    -0.413221059968E+03   -0.12654E-01   -0.15540E-02  5121   0.107E-01    0.499E-01
RMM:   5    -0.413206967675E+03    0.14092E-01   -0.70229E-03  4802   0.830E-02    0.415E-02
RMM:   6    -0.413206989854E+03   -0.22179E-04   -0.12474E-03  5714   0.346E-02    0.308E-02
RMM:   7    -0.413207009958E+03   -0.20104E-04   -0.27833E-04  5433   0.169E-02    0.209E-02
RMM:   8    -0.413206998914E+03    0.11044E-04   -0.44243E-05  5024   0.768E-03    0.915E-03
RMM:   9    -0.413206997651E+03    0.12628E-05   -0.87164E-06  3179   0.349E-03    0.462E-03
RMM:  10    -0.413206994823E+03    0.28278E-05   -0.15829E-06  2531   0.208E-03    0.256E-03
RMM:  11    -0.413206990919E+03    0.39043E-05   -0.10289E-06  2494   0.158E-03    0.126E-03
RMM:  12    -0.413206986351E+03    0.45682E-05   -0.63652E-07  2333   0.126E-03    0.786E-04
RMM:  13    -0.413206983721E+03    0.26292E-05   -0.25894E-07  1917   0.886E-04    0.409E-04
RMM:  14    -0.413206981130E+03    0.25918E-05   -0.13883E-07  1285   0.703E-04    0.211E-04
RMM:  15    -0.413206975111E+03    0.60186E-05   -0.11395E-07  1228   0.690E-04    0.161E-04
RMM:  16    -0.413206970770E+03    0.43414E-05   -0.76829E-08  1089   0.640E-04    0.134E-04
RMM:  17    -0.413206966178E+03    0.45913E-05   -0.63780E-08  1145   0.623E-04    0.110E-04
RMM:  18    -0.413206961927E+03    0.42519E-05   -0.52556E-08  1138   0.601E-04    0.505E-05
RMM:  19    -0.413206960973E+03    0.95327E-06   -0.23373E-08   781   0.536E-04
   39 T=    69. E= -.41286736E+03 F= -.41320696E+03 E0= -.41318582E+03  EK= 0.33960E+00 SP= 0.00E+00 SK= 0.00E+00
       N       E                     dE             d eps       ncg     rms          rms(c)
RMM:   1    -0.413223897770E+03   -0.16936E-01   -0.68296E+00  4308   0.808E-01    0.960E-01
RMM:   2    -0.413218460071E+03    0.54377E-02   -0.99075E-02  4261   0.114E-01    0.702E-01
RMM:   3    -0.413212225618E+03    0.62345E-02   -0.53959E-02  4739   0.900E-02    0.248E-01
RMM:   4    -0.413231194406E+03   -0.18969E-01   -0.23356E-02  5114   0.130E-01    0.605E-01
RMM:   5    -0.413210201146E+03    0.20993E-01   -0.10365E-02  4794   0.101E-01    0.438E-02
RMM:   6    -0.413210238800E+03   -0.37653E-04   -0.17668E-03  5774   0.401E-02    0.298E-02
RMM:   7    -0.413210271518E+03   -0.32718E-04   -0.30111E-04  5573   0.166E-02    0.205E-02
RMM:   8    -0.413210263566E+03    0.79517E-05   -0.55884E-05  5054   0.817E-03    0.984E-03
RMM:   9    -0.413210264818E+03   -0.12526E-05   -0.11269E-05  3617   0.409E-03    0.527E-03
RMM:  10    -0.413210264566E+03    0.25234E-06   -0.20043E-06  2579   0.223E-03
   40 T=    70. E= -.41286762E+03 F= -.41321026E+03 E0= -.41318916E+03  EK= 0.34265E+00 SP= 0.00E+00 SK= 0.00E+00
       N       E                     dE             d eps       ncg     rms          rms(c)
RMM:   1    -0.413226052827E+03   -0.15788E-01   -0.69317E+00  4315   0.831E-01    0.972E-01
RMM:   2    -0.413221031014E+03    0.50218E-02   -0.10226E-01  4291   0.115E-01    0.711E-01
RMM:   3    -0.413217034745E+03    0.39963E-02   -0.55540E-02  4974   0.102E-01    0.319E-01
RMM:   4    -0.413242227636E+03   -0.25193E-01   -0.38303E-02  5076   0.167E-01    0.719E-01
RMM:   5    -0.413212547071E+03    0.29681E-01   -0.13991E-02  4747   0.121E-01    0.488E-02
RMM:   6    -0.413212614832E+03   -0.67760E-04   -0.23988E-03  5776   0.457E-02    0.304E-02
RMM:   7    -0.413212635444E+03   -0.20612E-04   -0.28661E-04  5659   0.163E-02    0.191E-02
RMM:   8    -0.413212640713E+03   -0.52689E-05   -0.70974E-05  5079   0.859E-03    0.111E-02
RMM:   9    -0.413212634623E+03    0.60900E-05   -0.16542E-05  4244   0.482E-03    0.566E-03
RMM:  10    -0.413212632559E+03    0.20643E-05   -0.27417E-06  2654   0.254E-03    0.331E-03
RMM:  11    -0.413212630193E+03    0.23653E-05   -0.12075E-06  2500   0.174E-03    0.187E-03
RMM:  12    -0.413212624373E+03    0.58204E-05   -0.12682E-06  2509   0.169E-03    0.970E-04
RMM:  13    -0.413212619788E+03    0.45850E-05   -0.48845E-07  2283   0.115E-03    0.622E-04
RMM:  14    -0.413212618261E+03    0.15268E-05   -0.20748E-07  1627   0.784E-04    0.335E-04
RMM:  15    -0.413212611545E+03    0.67161E-05   -0.17681E-07  1484   0.758E-04    0.299E-04
RMM:  16    -0.413212605803E+03    0.57423E-05   -0.12272E-07  1381   0.686E-04    0.338E-04
RMM:  17    -0.413212602900E+03    0.29026E-05   -0.65133E-08  1039   0.585E-04    0.237E-04
RMM:  18    -0.413212597302E+03    0.55985E-05   -0.74238E-08  1324   0.630E-04    0.141E-04
RMM:  19    -0.413212595572E+03    0.17298E-05   -0.37177E-08   931   0.546E-04    0.459E-05
RMM:  20    -0.413212594496E+03    0.10755E-05   -0.24640E-08   852   0.536E-04    0.670E-05
RMM:  21    -0.413212594112E+03    0.38445E-06   -0.14526E-08   730   0.513E-04
   41 T=    70. E= -.41286727E+03 F= -.41321259E+03 E0= -.41319152E+03  EK= 0.34532E+00 SP= 0.00E+00 SK= 0.00E+00
       N       E                     dE             d eps       ncg     rms          rms(c)
RMM:   1    -0.413233682448E+03   -0.21088E-01   -0.69606E+00  4314   0.923E-01    0.986E-01
RMM:   2    -0.413223593562E+03    0.10089E-01   -0.10980E-01  4312   0.124E-01    0.711E-01
RMM:   3    -0.413217763110E+03    0.58305E-02   -0.48548E-02  4919   0.876E-02    0.230E-01
RMM:   4    -0.413248758439E+03   -0.30995E-01   -0.38326E-02  5110   0.166E-01    0.757E-01
RMM:   5    -0.413215288381E+03    0.33470E-01   -0.15905E-02  4780   0.126E-01    0.500E-02
RMM:   6    -0.413215371238E+03   -0.82857E-04   -0.26847E-03  5792   0.484E-02    0.314E-02
RMM:   7    -0.413215402775E+03   -0.31538E-04   -0.31591E-04  5699   0.166E-02    0.187E-02
RMM:   8    -0.413215402329E+03    0.44596E-06   -0.48779E-05  4913   0.723E-03    0.931E-03
RMM:   9    -0.413215403119E+03   -0.78946E-06   -0.19451E-05  4418   0.469E-03    0.670E-03
RMM:  10    -0.413215398153E+03    0.49659E-05   -0.31220E-06  2681   0.275E-03    0.368E-03
RMM:  11    -0.413215395529E+03    0.26236E-05   -0.13813E-06  2500   0.188E-03    0.215E-03
RMM:  12    -0.413215389013E+03    0.65168E-05   -0.14204E-06  2492   0.190E-03    0.117E-03
RMM:  13    -0.413215385325E+03    0.36876E-05   -0.51820E-07  2367   0.127E-03    0.777E-04
RMM:  14    -0.413215384175E+03    0.11500E-05   -0.21676E-07  1812   0.836E-04    0.435E-04
RMM:  15    -0.413215379410E+03    0.47650E-05   -0.13694E-07  1544   0.739E-04    0.245E-04
RMM:  16    -0.413215374745E+03    0.46644E-05   -0.84852E-08  1259   0.649E-04    0.309E-04
RMM:  17    -0.413215371217E+03    0.35282E-05   -0.51976E-08  1020   0.589E-04    0.259E-04
RMM:  18    -0.413215365578E+03    0.56390E-05   -0.55220E-08  1148   0.606E-04    0.113E-04
RMM:  19    -0.413215363774E+03    0.18041E-05   -0.29264E-08   903   0.555E-04    0.532E-05
RMM:  20    -0.413215362717E+03    0.10573E-05   -0.22776E-08   872   0.542E-04    0.320E-05
RMM:  21    -0.413215362323E+03    0.39351E-06   -0.13344E-08   737   0.519E-04
   42 T=    71. E= -.41286731E+03 F= -.41321536E+03 E0= -.41319432E+03  EK= 0.34805E+00 SP= 0.00E+00 SK= 0.00E+00
       N       E                     dE             d eps       ncg     rms          rms(c)
RMM:   1    -0.413232671123E+03   -0.17308E-01   -0.69624E+00  4314   0.937E-01    0.971E-01
RMM:   2    -0.413226029811E+03    0.66413E-02   -0.10297E-01  4374   0.120E-01    0.708E-01
RMM:   3    -0.413220655510E+03    0.53743E-02   -0.53182E-02  4932   0.934E-02    0.272E-01
RMM:   4    -0.413248629165E+03   -0.27974E-01   -0.36861E-02  5102   0.163E-01    0.733E-01
RMM:   5    -0.413217519974E+03    0.31109E-01   -0.14855E-02  4778   0.123E-01    0.492E-02
RMM:   6    -0.413217585274E+03   -0.65300E-04   -0.24741E-03  5776   0.466E-02    0.301E-02
RMM:   7    -0.413217617881E+03   -0.32608E-04   -0.29916E-04  5728   0.163E-02    0.182E-02
RMM:   8    -0.413217616913E+03    0.96815E-06   -0.55198E-05  5033   0.766E-03    0.973E-03
RMM:   9    -0.413217617313E+03   -0.39981E-06   -0.18312E-05  4368   0.474E-03    0.608E-03
RMM:  10    -0.413217614372E+03    0.29412E-05   -0.27206E-06  2639   0.264E-03    0.350E-03
RMM:  11    -0.413217612741E+03    0.16309E-05   -0.11789E-06  2500   0.176E-03    0.204E-03
RMM:  12    -0.413217608165E+03    0.45760E-05   -0.12910E-06  2503   0.177E-03    0.115E-03
RMM:  13    -0.413217604953E+03    0.32124E-05   -0.50258E-07  2339   0.121E-03    0.756E-04
RMM:  14    -0.413217603641E+03    0.13119E-05   -0.20467E-07  1714   0.803E-04    0.390E-04
RMM:  15    -0.413217599607E+03    0.40341E-05   -0.13403E-07  1384   0.716E-04    0.193E-04
RMM:  16    -0.413217595450E+03    0.41563E-05   -0.93674E-08  1253   0.663E-04    0.257E-04
RMM:  17    -0.413217592207E+03    0.32429E-05   -0.58977E-08  1030   0.604E-04    0.212E-04
RMM:  18    -0.413217587836E+03    0.43718E-05   -0.59702E-08  1203   0.614E-04    0.147E-04
RMM:  19    -0.413217585310E+03    0.25255E-05   -0.35113E-08   954   0.562E-04    0.458E-05
RMM:  20    -0.413217584629E+03    0.68150E-06   -0.19588E-08   784   0.530E-04
   43 T=    71. E= -.41286729E+03 F= -.41321758E+03 E0= -.41319657E+03  EK= 0.35029E+00 SP= 0.00E+00 SK= 0.00E+00
       N       E                     dE             d eps       ncg     rms          rms(c)
RMM:   1    -0.413235135374E+03   -0.17550E-01   -0.70960E+00  4314   0.102E+00    0.975E-01
RMM:   2    -0.413227480396E+03    0.76550E-02   -0.10824E-01  4395   0.132E-01    0.717E-01
RMM:   3    -0.413222713374E+03    0.47670E-02   -0.54840E-02  4960   0.996E-02    0.302E-01
RMM:   4    -0.413251436263E+03   -0.28723E-01   -0.40639E-02  5092   0.172E-01    0.752E-01
RMM:   5    -0.413218667817E+03    0.32768E-01   -0.15377E-02  4761   0.126E-01    0.503E-02
RMM:   6    -0.413218734483E+03   -0.66665E-04   -0.25777E-03  5777   0.474E-02    0.294E-02
RMM:   7    -0.413218766351E+03   -0.31868E-04   -0.28480E-04  5695   0.158E-02    0.171E-02
RMM:   8    -0.413218769957E+03   -0.36062E-05   -0.39596E-05  4691   0.649E-03    0.732E-03
RMM:   9    -0.413218769533E+03    0.42390E-06   -0.87031E-06  3270   0.343E-03
   44 T=    72. E= -.41286708E+03 F= -.41321877E+03 E0= -.41319778E+03  EK= 0.35169E+00 SP= 0.00E+00 SK= 0.00E+00
       N       E                     dE             d eps       ncg     rms          rms(c)
RMM:   1    -0.413238010852E+03   -0.19241E-01   -0.70542E+00  4315   0.106E+00    0.993E-01
RMM:   2    -0.413228687462E+03    0.93234E-02   -0.10833E-01  4460   0.135E-01    0.716E-01
RMM:   3    -0.413233956238E+03   -0.52688E-02   -0.58310E-02  5100   0.137E-01    0.500E-01
RMM:   4    -0.413236694116E+03   -0.27379E-02   -0.38119E-02  5011   0.173E-01    0.544E-01
RMM:   5    -0.413220094484E+03    0.16600E-01   -0.65080E-03  4569   0.925E-02    0.483E-02
RMM:   6    -0.413220079680E+03    0.14804E-04   -0.12349E-03  5445   0.340E-02    0.293E-02
RMM:   7    -0.413220087622E+03   -0.79419E-05   -0.24036E-04  5347   0.160E-02    0.216E-02
RMM:   8    -0.413220083860E+03    0.37616E-05   -0.66955E-05  4950   0.942E-03    0.855E-03
RMM:   9    -0.413220077596E+03    0.62642E-05   -0.78969E-06  3146   0.392E-03    0.376E-03
RMM:  10    -0.413220072509E+03    0.50869E-05   -0.14616E-06  2544   0.197E-03    0.209E-03
RMM:  11    -0.413220066241E+03    0.62678E-05   -0.95756E-07  2473   0.148E-03    0.105E-03
RMM:  12    -0.413220059191E+03    0.70503E-05   -0.54612E-07  2188   0.112E-03    0.519E-04
RMM:  13    -0.413220053450E+03    0.57409E-05   -0.27640E-07  1703   0.850E-04    0.299E-04
RMM:  14    -0.413220048136E+03    0.53139E-05   -0.16612E-07  1305   0.720E-04    0.159E-04
RMM:  15    -0.413220037005E+03    0.11131E-04   -0.17749E-07  1648   0.762E-04    0.168E-04
RMM:  16    -0.413220030527E+03    0.64788E-05   -0.10627E-07  1354   0.648E-04    0.107E-04
RMM:  17    -0.413220025199E+03    0.53275E-05   -0.74969E-08  1217   0.610E-04    0.606E-05
RMM:  18    -0.413220023193E+03    0.20066E-05   -0.43118E-08   981   0.551E-04    0.395E-05
RMM:  19    -0.413220022555E+03    0.63730E-06   -0.26645E-08   812   0.523E-04
   45 T=    72. E= -.41286750E+03 F= -.41322002E+03 E0= -.41319906E+03  EK= 0.35252E+00 SP= 0.00E+00 SK= 0.00E+00
       N       E                     dE             d eps       ncg     rms          rms(c)
RMM:   1    -0.413237493712E+03   -0.17471E-01   -0.70080E+00  4314   0.113E+00    0.976E-01
RMM:   2    -0.413228039364E+03    0.94543E-02   -0.10925E-01  4430   0.142E-01    0.710E-01
RMM:   3    -0.413226154334E+03    0.18850E-02   -0.52287E-02  5020   0.115E-01    0.355E-01
RMM:   4    -0.413247578733E+03   -0.21424E-01   -0.41426E-02  5064   0.176E-01    0.697E-01
RMM:   5    -0.413219504533E+03    0.28074E-01   -0.12155E-02  4710   0.117E-01    0.509E-02
RMM:   6    -0.413219529295E+03   -0.24761E-04   -0.21153E-03  5708   0.436E-02    0.287E-02
RMM:   7    -0.413219555374E+03   -0.26079E-04   -0.25444E-04  5716   0.155E-02    0.178E-02
RMM:   8    -0.413219564577E+03   -0.92038E-05   -0.79649E-05  5145   0.912E-03    0.113E-02
RMM:   9    -0.413219555676E+03    0.89014E-05   -0.17043E-05  4298   0.510E-03    0.481E-03
RMM:  10    -0.413219553014E+03    0.26621E-05   -0.31946E-06  2716   0.261E-03    0.298E-03
RMM:  11    -0.413219550283E+03    0.27308E-05   -0.12188E-06  2492   0.179E-03    0.156E-03
RMM:  12    -0.413219544903E+03    0.53800E-05   -0.82452E-07  2459   0.145E-03    0.803E-04
RMM:  13    -0.413219540358E+03    0.45455E-05   -0.35659E-07  2055   0.993E-04    0.377E-04
RMM:  14    -0.413219537834E+03    0.25235E-05   -0.17554E-07  1419   0.740E-04    0.186E-04
RMM:  15    -0.413219531663E+03    0.61713E-05   -0.13908E-07  1280   0.710E-04    0.162E-04
RMM:  16    -0.413219527889E+03    0.37735E-05   -0.93526E-08  1222   0.660E-04    0.126E-04
RMM:  17    -0.413219523940E+03    0.39488E-05   -0.77529E-08  1281   0.640E-04    0.715E-05
RMM:  18    -0.413219520147E+03    0.37938E-05   -0.56562E-08  1161   0.597E-04    0.358E-05
RMM:  19    -0.413219518428E+03    0.17191E-05   -0.32616E-08   897   0.545E-04    0.333E-05
RMM:  20    -0.413219518214E+03    0.21387E-06   -0.18208E-08   719   0.517E-04
   46 T=    72. E= -.41286745E+03 F= -.41321952E+03 E0= -.41319857E+03  EK= 0.35207E+00 SP= 0.00E+00 SK= 0.00E+00
       N       E                     dE             d eps       ncg     rms          rms(c)
RMM:   1    -0.413238612698E+03   -0.19094E-01   -0.70988E+00  4314   0.125E+00    0.965E-01
RMM:   2    -0.413227135712E+03    0.11477E-01   -0.11508E-01  4462   0.157E-01    0.716E-01
RMM:   3    -0.413228456153E+03   -0.13204E-02   -0.56231E-02  5047   0.132E-01    0.438E-01
RMM:   4    -0.413242474080E+03   -0.14018E-01   -0.42638E-02  5043   0.182E-01    0.654E-01
RMM:   5    -0.413218128486E+03    0.24346E-01   -0.10258E-02  4661   0.111E-01    0.505E-02
RMM:   6    -0.413218117217E+03    0.11269E-04   -0.17447E-03  5618   0.402E-02    0.266E-02
RMM:   7    -0.413218138913E+03   -0.21696E-04   -0.23376E-04  5666   0.153E-02    0.179E-02
RMM:   8    -0.413218146778E+03   -0.78650E-05   -0.86142E-05  5110   0.977E-03    0.102E-02
RMM:   9    -0.413218141983E+03    0.47947E-05   -0.12322E-05  3900   0.481E-03    0.423E-03
RMM:  10    -0.413218140433E+03    0.15506E-05   -0.29613E-06  2713   0.240E-03    0.262E-03
RMM:  11    -0.413218138253E+03    0.21792E-05   -0.12586E-06  2496   0.173E-03    0.124E-03
RMM:  12    -0.413218134680E+03    0.35732E-05   -0.75884E-07  2380   0.134E-03    0.635E-04
RMM:  13    -0.413218131596E+03    0.30845E-05   -0.35079E-07  1836   0.940E-04    0.286E-04
RMM:  14    -0.413218128757E+03    0.28384E-05   -0.19980E-07  1395   0.759E-04    0.152E-04
RMM:  15    -0.413218124141E+03    0.46164E-05   -0.17542E-07  1442   0.744E-04    0.124E-04
RMM:  16    -0.413218120818E+03    0.33234E-05   -0.12276E-07  1344   0.674E-04    0.937E-05
RMM:  17    -0.413218115696E+03    0.51211E-05   -0.11450E-07  1440   0.672E-04    0.533E-05
RMM:  18    -0.413218113897E+03    0.17992E-05   -0.55223E-08   997   0.559E-04    0.383E-05
RMM:  19    -0.413218112923E+03    0.97378E-06   -0.31756E-08   825   0.529E-04
   47 T=    71. E= -.41286758E+03 F= -.41321811E+03 E0= -.41319718E+03  EK= 0.35053E+00 SP= 0.00E+00 SK= 0.00E+00
       N       E                     dE             d eps       ncg     rms          rms(c)
RMM:   1    -0.413239921113E+03   -0.21807E-01   -0.70264E+00  4311   0.134E+00    0.979E-01
RMM:   2    -0.413224249167E+03    0.15672E-01   -0.11433E-01  4500   0.168E-01    0.714E-01
RMM:   3    -0.413230090301E+03   -0.58411E-02   -0.55461E-02  5086   0.145E-01    0.505E-01
RMM:   4    -0.413233693376E+03   -0.36031E-02   -0.40506E-02  5010   0.180E-01    0.563E-01
RMM:   5    -0.413215687451E+03    0.18006E-01   -0.69514E-03  4605   0.980E-02    0.505E-02
RMM:   6    -0.413215647029E+03    0.40422E-04   -0.11969E-03  5334   0.344E-02    0.261E-02
RMM:   7    -0.413215670143E+03   -0.23115E-04   -0.17068E-04  5622   0.134E-02    0.156E-02
RMM:   8    -0.413215677286E+03   -0.71423E-05   -0.81360E-05  5189   0.939E-03    0.104E-02
RMM:   9    -0.413215667278E+03    0.10008E-04   -0.12057E-05  3942   0.478E-03    0.396E-03
RMM:  10    -0.413215664373E+03    0.29046E-05   -0.29101E-06  2711   0.242E-03    0.237E-03
RMM:  11    -0.413215659947E+03    0.44266E-05   -0.12641E-06  2489   0.181E-03    0.119E-03
RMM:  12    -0.413215655479E+03    0.44675E-05   -0.57908E-07  2330   0.127E-03    0.660E-04
RMM:  13    -0.413215651379E+03    0.41006E-05   -0.27059E-07  1753   0.896E-04    0.308E-04
RMM:  14    -0.413215646688E+03    0.46904E-05   -0.16385E-07  1422   0.738E-04    0.160E-04
RMM:  15    -0.413215641914E+03    0.47743E-05   -0.11532E-07  1274   0.684E-04    0.117E-04
RMM:  16    -0.413215637857E+03    0.40574E-05   -0.83212E-08  1219   0.642E-04    0.839E-05
RMM:  17    -0.413215630997E+03    0.68594E-05   -0.88119E-08  1457   0.660E-04    0.716E-05
RMM:  18    -0.413215629931E+03    0.10661E-05   -0.32189E-08   834   0.520E-04    0.500E-05
RMM:  19    -0.413215628075E+03    0.18561E-05   -0.27708E-08   859   0.525E-04    0.200E-05
RMM:  20    -0.413215627611E+03    0.46417E-06   -0.14696E-08   682   0.495E-04
   48 T=    71. E= -.41286789E+03 F= -.41321563E+03 E0= -.41319470E+03  EK= 0.34774E+00 SP= 0.00E+00 SK= 0.00E+00
       N       E                     dE             d eps       ncg     rms          rms(c)
RMM:   1    -0.413235594970E+03   -0.19967E-01   -0.68900E+00  4308   0.142E+00    0.965E-01
RMM:   2    -0.413219145925E+03    0.16449E-01   -0.11471E-01  4569   0.175E-01    0.703E-01
RMM:   3    -0.413233093432E+03   -0.13948E-01   -0.58133E-02  5110   0.165E-01    0.622E-01
RMM:   4    -0.413222910981E+03    0.10182E-01   -0.40696E-02  4972   0.184E-01    0.465E-01
RMM:   5    -0.413210743243E+03    0.12168E-01   -0.48566E-03  4570   0.885E-02    0.512E-02
RMM:   6    -0.413210655582E+03    0.87661E-04   -0.63589E-04  4859   0.285E-02    0.262E-02
RMM:   7    -0.413210686459E+03   -0.30877E-04   -0.14867E-04  5701   0.133E-02    0.126E-02
RMM:   8    -0.413210685201E+03    0.12576E-05   -0.41409E-05  5180   0.760E-03    0.833E-03
RMM:   9    -0.413210682397E+03    0.28040E-05   -0.11390E-05  3953   0.408E-03    0.367E-03
RMM:  10    -0.413210678866E+03    0.35307E-05   -0.18811E-06  2564   0.224E-03    0.240E-03
RMM:  11    -0.413210673611E+03    0.52550E-05   -0.11292E-06  2471   0.178E-03    0.148E-03
RMM:  12    -0.413210670086E+03    0.35252E-05   -0.45790E-07  2393   0.119E-03    0.795E-04
RMM:  13    -0.413210665573E+03    0.45135E-05   -0.26637E-07  1888   0.895E-04    0.387E-04
RMM:  14    -0.413210659274E+03    0.62988E-05   -0.20632E-07  1728   0.790E-04    0.433E-04
RMM:  15    -0.413210654807E+03    0.44670E-05   -0.93085E-08  1024   0.606E-04    0.190E-04
RMM:  16    -0.413210651315E+03    0.34919E-05   -0.69558E-08  1062   0.602E-04    0.957E-05
RMM:  17    -0.413210646905E+03    0.44101E-05   -0.61611E-08  1144   0.605E-04    0.108E-04
RMM:  18    -0.413210645382E+03    0.15224E-05   -0.32471E-08   857   0.541E-04    0.818E-05
RMM:  19    -0.413210641488E+03    0.38948E-05   -0.40526E-08  1073   0.576E-04    0.458E-05
RMM:  20    -0.413210640030E+03    0.14573E-05   -0.19277E-08   731   0.511E-04    0.355E-05
RMM:  21    -0.413210639926E+03    0.10428E-06   -0.88217E-09   588   0.484E-04
   49 T=    70. E= -.41286760E+03 F= -.41321064E+03 E0= -.41318972E+03  EK= 0.34304E+00 SP= 0.00E+00 SK= 0.00E+00
       N       E                     dE             d eps       ncg     rms          rms(c)
RMM:   1    -0.413230284271E+03   -0.19644E-01   -0.68437E+00  4308   0.155E+00    0.934E-01
RMM:   2    -0.413213314344E+03    0.16970E-01   -0.12386E-01  4701   0.188E-01    0.701E-01
RMM:   3    -0.413238816541E+03   -0.25502E-01   -0.64617E-02  5131   0.192E-01    0.763E-01
RMM:   4    -0.413214011364E+03    0.24805E-01   -0.46419E-02  4933   0.200E-01    0.412E-01
RMM:   5    -0.413204743887E+03    0.92675E-02   -0.49677E-03  4673   0.921E-02    0.570E-02
RMM:   6    -0.413204603793E+03    0.14009E-03   -0.49940E-04  4709   0.285E-02    0.272E-02
RMM:   7    -0.413204639281E+03   -0.35488E-04   -0.23675E-04  5649   0.173E-02    0.202E-02
RMM:   8    -0.413204621085E+03    0.18196E-04   -0.60490E-05  5030   0.908E-03    0.965E-03
RMM:   9    -0.413204619486E+03    0.15994E-05   -0.18446E-05  4830   0.539E-03    0.429E-03
RMM:  10    -0.413204616612E+03    0.28739E-05   -0.25612E-06  2693   0.248E-03    0.263E-03
RMM:  11    -0.413204612532E+03    0.40793E-05   -0.12638E-06  2499   0.189E-03    0.192E-03
RMM:  12    -0.413204609244E+03    0.32886E-05   -0.48131E-07  2340   0.117E-03    0.952E-04
RMM:  13    -0.413204605939E+03    0.33051E-05   -0.32704E-07  2060   0.920E-04    0.384E-04
RMM:  14    -0.413204601820E+03    0.41188E-05   -0.24042E-07  1710   0.793E-04    0.324E-04
RMM:  15    -0.413204596580E+03    0.52398E-05   -0.17795E-07  1311   0.699E-04    0.137E-04
RMM:  16    -0.413204593663E+03    0.29170E-05   -0.10628E-07  1188   0.629E-04    0.925E-05
RMM:  17    -0.413204589621E+03    0.40421E-05   -0.98854E-08  1281   0.630E-04    0.715E-05
RMM:  18    -0.413204586815E+03    0.28063E-05   -0.64532E-08  1089   0.575E-04    0.514E-05
RMM:  19    -0.413204585067E+03    0.17480E-05   -0.39955E-08   910   0.539E-04    0.270E-05
RMM:  20    -0.413204584076E+03    0.99080E-06   -0.28706E-08   867   0.520E-04
   50 T=    69. E= -.41286790E+03 F= -.41320458E+03 E0= -.41318366E+03  EK= 0.33668E+00 SP= 0.00E+00 SK= 0.00E+00
       N       E                     dE             d eps       ncg     rms          rms(c)
RMM:   1    -0.413223075818E+03   -0.18491E-01   -0.66892E+00  4307   0.163E+00    0.934E-01
RMM:   2    -0.413204167598E+03    0.18908E-01   -0.12435E-01  4791   0.197E-01    0.695E-01
RMM:   3    -0.413240784468E+03   -0.36617E-01   -0.69667E-02  5148   0.212E-01    0.874E-01
RMM:   4    -0.413202073743E+03    0.38711E-01   -0.49117E-02  4916   0.209E-01    0.341E-01
RMM:   5    -0.413195894930E+03    0.61788E-02   -0.54123E-03  5010   0.958E-02    0.688E-02
RMM:   6    -0.413195663245E+03    0.23169E-03   -0.55138E-04  4622   0.315E-02    0.306E-02
RMM:   7    -0.413195688042E+03   -0.24797E-04   -0.26505E-04  5653   0.183E-02    0.229E-02
RMM:   8    -0.413195675746E+03    0.12296E-04   -0.71134E-05  5063   0.102E-02    0.113E-02
RMM:   9    -0.413195672334E+03    0.34124E-05   -0.19480E-05  4659   0.564E-03    0.420E-03
RMM:  10    -0.413195668489E+03    0.38453E-05   -0.35232E-06  2820   0.266E-03    0.274E-03
RMM:  11    -0.413195663235E+03    0.52533E-05   -0.94138E-07  2504   0.174E-03    0.151E-03
RMM:  12    -0.413195659295E+03    0.39403E-05   -0.46813E-07  2215   0.112E-03    0.656E-04
[...]
RMM:  13    -0.413165853937E+03   -0.24968E-05   -0.28437E-07  1867   0.873E-04    0.280E-04
RMM:  14    -0.413165855907E+03   -0.19707E-05   -0.16476E-07  1387   0.733E-04    0.171E-04
RMM:  15    -0.413165859329E+03   -0.34221E-05   -0.17444E-07  1437   0.735E-04    0.122E-04
RMM:  16    -0.413165861168E+03   -0.18387E-05   -0.94582E-08  1241   0.648E-04    0.741E-05
RMM:  17    -0.413165863670E+03   -0.25018E-05   -0.94834E-08  1400   0.656E-04    0.623E-05
RMM:  18    -0.413165864884E+03   -0.12139E-05   -0.43021E-08   987   0.554E-04    0.343E-05
RMM:  19    -0.413165865971E+03   -0.10869E-05   -0.26282E-08   844   0.531E-04    0.186E-05
RMM:  20    -0.413165866409E+03   -0.43888E-06   -0.15073E-08   722   0.515E-04
  139 T=    61. E= -.41286800E+03 F= -.41316587E+03 E0= -.41314511E+03  EK= 0.29786E+00 SP= 0.00E+00 SK= 0.00E+00
       N       E                     dE             d eps       ncg     rms          rms(c)
RMM:   1    -0.413174436688E+03   -0.85707E-02   -0.57355E+00  4265   0.736E-01    0.887E-01
RMM:   2    -0.413171365686E+03    0.30710E-02   -0.74773E-02  4388   0.868E-02    0.635E-01
RMM:   3    -0.413169169514E+03    0.21962E-02   -0.45569E-02  5070   0.872E-02    0.311E-01
RMM:   4    -0.413183769049E+03   -0.14600E-01   -0.27322E-02  5057   0.143E-01    0.582E-01
RMM:   5    -0.413164771161E+03    0.18998E-01   -0.91865E-03  4717   0.994E-02    0.493E-02
RMM:   6    -0.413164754478E+03    0.16683E-04   -0.15076E-03  5499   0.387E-02    0.284E-02
RMM:   7    -0.413164779286E+03   -0.24807E-04   -0.29016E-04  5732   0.166E-02    0.209E-02
RMM:   8    -0.413164783070E+03   -0.37844E-05   -0.62859E-05  5086   0.916E-03    0.815E-03
RMM:   9    -0.413164784219E+03   -0.11487E-05   -0.10062E-05  3315   0.373E-03    0.374E-03
RMM:  10    -0.413164785466E+03   -0.12468E-05   -0.14299E-06  2539   0.195E-03    0.248E-03
RMM:  11    -0.413164787742E+03   -0.22762E-05   -0.10839E-06  2502   0.157E-03    0.134E-03
RMM:  12    -0.413164789407E+03   -0.16656E-05   -0.50186E-07  2263   0.113E-03    0.523E-04
RMM:  13    -0.413164791143E+03   -0.17361E-05   -0.29480E-07  1902   0.887E-04    0.284E-04
RMM:  14    -0.413164792559E+03   -0.14157E-05   -0.16825E-07  1387   0.737E-04    0.176E-04
RMM:  15    -0.413164795191E+03   -0.26319E-05   -0.19007E-07  1480   0.749E-04    0.123E-04
RMM:  16    -0.413164796657E+03   -0.14659E-05   -0.96340E-08  1253   0.646E-04    0.756E-05
RMM:  17    -0.413164798673E+03   -0.20158E-05   -0.92251E-08  1326   0.641E-04    0.595E-05
RMM:  18    -0.413164799816E+03   -0.11435E-05   -0.45376E-08   987   0.557E-04    0.321E-05
RMM:  19    -0.413164800839E+03   -0.10229E-05   -0.27138E-08   849   0.534E-04    0.193E-05
RMM:  20    -0.413164801356E+03   -0.51708E-06   -0.16899E-08   745   0.521E-04
  140 T=    60. E= -.41286773E+03 F= -.41316480E+03 E0= -.41314407E+03  EK= 0.29707E+00 SP= 0.00E+00 SK= 0.00E+00
       N       E                     dE             d eps       ncg     rms          rms(c)
RMM:   1    -0.413174661461E+03   -0.98606E-02   -0.56502E+00  4265   0.742E-01    0.874E-01
RMM:   2    -0.413171392410E+03    0.32691E-02   -0.73948E-02  4383   0.876E-02    0.635E-01
RMM:   3    -0.413169336199E+03    0.20562E-02   -0.50275E-02  5063   0.898E-02    0.338E-01
RMM:   4    -0.413182949628E+03   -0.13613E-01   -0.26099E-02  5065   0.140E-01    0.576E-01
RMM:   5    -0.413164671450E+03    0.18278E-01   -0.94846E-03  4719   0.984E-02    0.473E-02
RMM:   6    -0.413164658074E+03    0.13376E-04   -0.14450E-03  5510   0.380E-02    0.267E-02
RMM:   7    -0.413164687894E+03   -0.29820E-04   -0.26980E-04  5733   0.159E-02    0.196E-02
RMM:   8    -0.413164694334E+03   -0.64398E-05   -0.57832E-05  5081   0.864E-03    0.738E-03
RMM:   9    -0.413164698193E+03   -0.38597E-05   -0.88437E-06  3193   0.355E-03    0.370E-03
RMM:  10    -0.413164701532E+03   -0.33389E-05   -0.13036E-06  2536   0.187E-03    0.250E-03
RMM:  11    -0.413164707161E+03   -0.56285E-05   -0.11200E-06  2505   0.153E-03    0.128E-03
RMM:  12    -0.413164710578E+03   -0.34177E-05   -0.48001E-07  2206   0.109E-03    0.493E-04
RMM:  13    -0.413164714002E+03   -0.34236E-05   -0.28334E-07  1804   0.869E-04    0.257E-04
RMM:  14    -0.413164716512E+03   -0.25101E-05   -0.16639E-07  1385   0.734E-04    0.165E-04
RMM:  15    -0.413164720947E+03   -0.44347E-05   -0.18349E-07  1497   0.752E-04    0.118E-04
RMM:  16    -0.413164723121E+03   -0.21744E-05   -0.99487E-08  1333   0.648E-04    0.788E-05
RMM:  17    -0.413164725814E+03   -0.26929E-05   -0.86836E-08  1284   0.631E-04    0.549E-05
RMM:  18    -0.413164727109E+03   -0.12953E-05   -0.44309E-08   981   0.554E-04    0.306E-05
RMM:  19    -0.413164728074E+03   -0.96419E-06   -0.27880E-08   859   0.537E-04
  141 T=    60. E= -.41286809E+03 F= -.41316473E+03 E0= -.41314401E+03  EK= 0.29663E+00 SP= 0.00E+00 SK= 0.00E+00
       N       E                     dE             d eps       ncg     rms          rms(c)
RMM:   1    -0.413174188226E+03   -0.94611E-02   -0.55484E+00  4265   0.722E-01    0.887E-01
RMM:   2    -0.413170706722E+03    0.34815E-02   -0.72013E-02  4381   0.857E-02    0.639E-01
RMM:   3    -0.413168039895E+03    0.26668E-02   -0.51348E-02  5043   0.873E-02    0.327E-01
RMM:   4    -0.413181792520E+03   -0.13753E-01   -0.24825E-02  5065   0.136E-01    0.571E-01
RMM:   5    -0.413163841792E+03    0.17951E-01   -0.94222E-03  4735   0.971E-02    0.461E-02
RMM:   6    -0.413163833306E+03    0.84859E-05   -0.14206E-03  5536   0.374E-02    0.265E-02
RMM:   7    -0.413163862605E+03   -0.29299E-04   -0.25912E-04  5748   0.153E-02    0.194E-02
RMM:   8    -0.413163869461E+03   -0.68564E-05   -0.54949E-05  5088   0.823E-03    0.744E-03
RMM:   9    -0.413163872597E+03   -0.31355E-05   -0.82504E-06  3120   0.338E-03    0.362E-03
RMM:  10    -0.413163875496E+03   -0.28991E-05   -0.12458E-06  2528   0.182E-03    0.245E-03
RMM:  11    -0.413163880211E+03   -0.47150E-05   -0.10990E-06  2502   0.148E-03    0.122E-03
RMM:  12    -0.413163883213E+03   -0.30023E-05   -0.47413E-07  2181   0.107E-03    0.468E-04
RMM:  13    -0.413163886222E+03   -0.30092E-05   -0.27712E-07  1747   0.860E-04    0.249E-04
RMM:  14    -0.413163888522E+03   -0.23001E-05   -0.16569E-07  1362   0.737E-04    0.162E-04
RMM:  15    -0.413163892614E+03   -0.40914E-05   -0.18704E-07  1546   0.757E-04    0.121E-04
RMM:  16    -0.413163894694E+03   -0.20799E-05   -0.99857E-08  1309   0.643E-04    0.802E-05
RMM:  17    -0.413163897222E+03   -0.25277E-05   -0.87395E-08  1298   0.632E-04    0.528E-05
RMM:  18    -0.413163898394E+03   -0.11724E-05   -0.45469E-08   990   0.553E-04    0.303E-05
RMM:  19    -0.413163899423E+03   -0.10295E-05   -0.27877E-08   850   0.532E-04    0.162E-05
RMM:  20    -0.413163899890E+03   -0.46639E-06   -0.18797E-08   756   0.519E-04
  142 T=    60. E= -.41286781E+03 F= -.41316390E+03 E0= -.41314319E+03  EK= 0.29609E+00 SP= 0.00E+00 SK= 0.00E+00
       N       E                     dE             d eps       ncg     rms          rms(c)
RMM:   1    -0.413174280404E+03   -0.10381E-01   -0.53990E+00  4264   0.716E-01    0.897E-01
RMM:   2    -0.413169933600E+03    0.43468E-02   -0.71223E-02  4388   0.843E-02    0.636E-01
RMM:   3    -0.413166764682E+03    0.31689E-02   -0.49893E-02  5045   0.836E-02    0.295E-01
RMM:   4    -0.413181708707E+03   -0.14944E-01   -0.24461E-02  5080   0.135E-01    0.574E-01
RMM:   5    -0.413163243098E+03    0.18466E-01   -0.94034E-03  4747   0.983E-02    0.458E-02
RMM:   6    -0.413163241196E+03    0.19022E-05   -0.14662E-03  5574   0.380E-02    0.269E-02
RMM:   7    -0.413163274028E+03   -0.32832E-04   -0.26108E-04  5775   0.153E-02    0.197E-02
RMM:   8    -0.413163277523E+03   -0.34947E-05   -0.55289E-05  5075   0.834E-03    0.793E-03
RMM:   9    -0.413163277655E+03   -0.13191E-06   -0.86650E-06  3116   0.348E-03
  143 T=    60. E= -.41286778E+03 F= -.41316328E+03 E0= -.41314258E+03  EK= 0.29550E+00 SP= 0.00E+00 SK= 0.00E+00
       N       E                     dE             d eps       ncg     rms          rms(c)
RMM:   1    -0.413173742512E+03   -0.10465E-01   -0.53053E+00  4267   0.713E-01    0.878E-01
RMM:   2    -0.413169758923E+03    0.39836E-02   -0.69496E-02  4408   0.830E-02    0.632E-01
RMM:   3    -0.413167766984E+03    0.19919E-02   -0.53967E-02  5084   0.881E-02    0.345E-01
RMM:   4    -0.413179059898E+03   -0.11293E-01   -0.23206E-02  5058   0.132E-01    0.544E-01
RMM:   5    -0.413163121319E+03    0.15939E-01   -0.88953E-03  4729   0.929E-02    0.463E-02
RMM:   6    -0.413163090021E+03    0.31297E-04   -0.12385E-03  5426   0.354E-02    0.249E-02
RMM:   7    -0.413163128238E+03   -0.38217E-04   -0.22874E-04  5800   0.145E-02    0.182E-02
RMM:   8    -0.413163137158E+03   -0.89203E-05   -0.51557E-05  5134   0.801E-03    0.697E-03
RMM:   9    -0.413163141760E+03   -0.46019E-05   -0.80155E-06  3099   0.334E-03    0.360E-03
RMM:  10    -0.413163145272E+03   -0.35119E-05   -0.12191E-06  2530   0.181E-03    0.252E-03
RMM:  11    -0.413163151986E+03   -0.67136E-05   -0.12942E-06  2514   0.157E-03    0.128E-03
RMM:  12    -0.413163155399E+03   -0.34134E-05   -0.47331E-07  2160   0.108E-03    0.540E-04
RMM:  13    -0.413163159707E+03   -0.43077E-05   -0.31513E-07  1860   0.893E-04    0.278E-04
RMM:  14    -0.413163163317E+03   -0.36097E-05   -0.20201E-07  1502   0.753E-04    0.187E-04
RMM:  15    -0.413163168655E+03   -0.53389E-05   -0.23440E-07  1695   0.788E-04    0.153E-04
RMM:  16    -0.413163171678E+03   -0.30225E-05   -0.11727E-07  1328   0.640E-04    0.892E-05
RMM:  17    -0.413163174981E+03   -0.33029E-05   -0.99894E-08  1311   0.632E-04    0.561E-05
RMM:  18    -0.413163176409E+03   -0.14285E-05   -0.50844E-08  1031   0.547E-04    0.435E-05
RMM:  19    -0.413163177997E+03   -0.15877E-05   -0.35774E-08   953   0.535E-04    0.264E-05
RMM:  20    -0.413163178458E+03   -0.46128E-06   -0.18349E-08   762   0.502E-04
  144 T=    60. E= -.41286810E+03 F= -.41316318E+03 E0= -.41314249E+03  EK= 0.29508E+00 SP= 0.00E+00 SK= 0.00E+00
       N       E                     dE             d eps       ncg     rms          rms(c)
RMM:   1    -0.413173539348E+03   -0.10361E-01   -0.52776E+00  4264   0.710E-01    0.887E-01
RMM:   2    -0.413169197179E+03    0.43422E-02   -0.68880E-02  4394   0.828E-02    0.638E-01
RMM:   3    -0.413165711064E+03    0.34861E-02   -0.56010E-02  5019   0.804E-02    0.323E-01
RMM:   4    -0.413179139714E+03   -0.13429E-01   -0.21587E-02  5089   0.127E-01    0.553E-01
RMM:   5    -0.413162309229E+03    0.16830E-01   -0.93103E-03  4761   0.945E-02    0.425E-02
RMM:   6    -0.413162305994E+03    0.32343E-05   -0.13334E-03  5602   0.363E-02    0.245E-02
RMM:   7    -0.413162330862E+03   -0.24868E-04   -0.22760E-04  5751   0.143E-02    0.174E-02
RMM:   8    -0.413162339113E+03   -0.82509E-05   -0.47466E-05  5036   0.774E-03    0.678E-03
RMM:   9    -0.413162342992E+03   -0.38792E-05   -0.72447E-06  3047   0.321E-03    0.357E-03
RMM:  10    -0.413162346783E+03   -0.37904E-05   -0.12760E-06  2541   0.173E-03    0.244E-03
RMM:  11    -0.413162352072E+03   -0.52890E-05   -0.11156E-06  2465   0.141E-03    0.106E-03
RMM:  12    -0.413162356306E+03   -0.42338E-05   -0.52263E-07  2092   0.106E-03    0.393E-04
RMM:  13    -0.413162359385E+03   -0.30794E-05   -0.26709E-07  1648   0.841E-04    0.237E-04
RMM:  14    -0.413162362012E+03   -0.26271E-05   -0.17326E-07  1342   0.739E-04    0.156E-04
RMM:  15    -0.413162366612E+03   -0.46000E-05   -0.20095E-07  1633   0.780E-04    0.139E-04
RMM:  16    -0.413162368873E+03   -0.22607E-05   -0.10764E-07  1376   0.643E-04    0.991E-05
RMM:  17    -0.413162371043E+03   -0.21699E-05   -0.79265E-08  1168   0.593E-04    0.482E-05
RMM:  18    -0.413162372170E+03   -0.11271E-05   -0.47288E-08   969   0.545E-04    0.294E-05
RMM:  19    -0.413162373222E+03   -0.10523E-05   -0.31893E-08   866   0.534E-04    0.172E-05
RMM:  20    -0.413162373628E+03   -0.40570E-06   -0.19563E-08   750   0.521E-04
  145 T=    60. E= -.41286774E+03 F= -.41316237E+03 E0= -.41314170E+03  EK= 0.29464E+00 SP= 0.00E+00 SK= 0.00E+00
       N       E                     dE             d eps       ncg     rms          rms(c)
RMM:   1    -0.413174240097E+03   -0.11867E-01   -0.51490E+00  4264   0.702E-01    0.903E-01
RMM:   2    -0.413169049275E+03    0.51908E-02   -0.68532E-02  4395   0.822E-02    0.637E-01
RMM:   3    -0.413164962113E+03    0.40872E-02   -0.53214E-02  5012   0.754E-02    0.280E-01
RMM:   4    -0.413179399736E+03   -0.14438E-01   -0.21185E-02  5099   0.125E-01    0.554E-01
RMM:   5    -0.413162251860E+03    0.17148E-01   -0.90578E-03  4773   0.948E-02    0.423E-02
RMM:   6    -0.413162243026E+03    0.88342E-05   -0.13630E-03  5638   0.365E-02    0.251E-02
RMM:   7    -0.413162266219E+03   -0.23193E-04   -0.22684E-04  5793   0.139E-02    0.180E-02
RMM:   8    -0.413162270659E+03   -0.44403E-05   -0.46482E-05  5046   0.759E-03    0.736E-03
RMM:   9    -0.413162270882E+03   -0.22281E-06   -0.75700E-06  3042   0.332E-03
  146 T=    60. E= -.41286798E+03 F= -.41316227E+03 E0= -.41314161E+03  EK= 0.29429E+00 SP= 0.00E+00 SK= 0.00E+00
       N       E                     dE             d eps       ncg     rms          rms(c)
RMM:   1    -0.413173261948E+03   -0.10991E-01   -0.50656E+00  4268   0.703E-01    0.884E-01
RMM:   2    -0.413168418334E+03    0.48436E-02   -0.67225E-02  4401   0.824E-02    0.630E-01
RMM:   3    -0.413165268903E+03    0.31494E-02   -0.55598E-02  5045   0.814E-02    0.316E-01
RMM:   4    -0.413177924954E+03   -0.12656E-01   -0.21186E-02  5076   0.126E-01    0.542E-01
RMM:   5    -0.413161815112E+03    0.16110E-01   -0.89934E-03  4765   0.933E-02    0.437E-02
RMM:   6    -0.413161790040E+03    0.25073E-04   -0.12520E-03  5545   0.353E-02    0.236E-02
RMM:   7    -0.413161824054E+03   -0.34014E-04   -0.21040E-04  5810   0.134E-02    0.170E-02
RMM:   8    -0.413161832485E+03   -0.84319E-05   -0.45123E-05  5108   0.750E-03    0.674E-03
RMM:   9    -0.413161835945E+03   -0.34596E-05   -0.72073E-06  3013   0.320E-03    0.359E-03
RMM:  10    -0.413161838999E+03   -0.30536E-05   -0.13148E-06  2546   0.174E-03    0.251E-03
RMM:  11    -0.413161844529E+03   -0.55304E-05   -0.14231E-06  2509   0.153E-03    0.115E-03
RMM:  12    -0.413161847965E+03   -0.34361E-05   -0.52701E-07  2072   0.108E-03    0.497E-04
RMM:  13    -0.413161851680E+03   -0.37152E-05   -0.32922E-07  1823   0.891E-04    0.271E-04
RMM:  14    -0.413161855420E+03   -0.37397E-05   -0.24106E-07  1543   0.781E-04    0.200E-04
RMM:  15    -0.413161859916E+03   -0.44959E-05   -0.24736E-07  1693   0.788E-04    0.145E-04
RMM:  16    -0.413161862875E+03   -0.29591E-05   -0.13384E-07  1338   0.654E-04    0.929E-05
RMM:  17    -0.413161865990E+03   -0.31146E-05   -0.11323E-07  1339   0.639E-04    0.658E-05
RMM:  18    -0.413161867030E+03   -0.10403E-05   -0.50658E-08   965   0.537E-04    0.420E-05
RMM:  19    -0.413161868547E+03   -0.15169E-05   -0.38827E-08   957   0.540E-04    0.278E-05
RMM:  20    -0.413161868908E+03   -0.36130E-06   -0.18928E-08   759   0.506E-04
  147 T=    60. E= -.41286797E+03 F= -.41316187E+03 E0= -.41314121E+03  EK= 0.29390E+00 SP= 0.00E+00 SK= 0.00E+00
       N       E                     dE             d eps       ncg     rms          rms(c)
RMM:   1    -0.413173049479E+03   -0.11181E-01   -0.50956E+00  4265   0.704E-01    0.886E-01
RMM:   2    -0.413168242756E+03    0.48067E-02   -0.66771E-02  4388   0.821E-02    0.637E-01
RMM:   3    -0.413163918947E+03    0.43238E-02   -0.58682E-02  4948   0.739E-02    0.312E-01
RMM:   4    -0.413174642221E+03   -0.10723E-01   -0.16768E-02  5114   0.110E-01    0.492E-01
RMM:   5    -0.413161231024E+03    0.13411E-01   -0.72554E-03  4785   0.846E-02    0.381E-02
RMM:   6    -0.413161244455E+03   -0.13430E-04   -0.11182E-03  5651   0.328E-02    0.228E-02
RMM:   7    -0.413161273944E+03   -0.29489E-04   -0.18615E-04  5715   0.125E-02    0.153E-02
RMM:   8    -0.413161283647E+03   -0.97032E-05   -0.37552E-05  4919   0.672E-03    0.603E-03
RMM:   9    -0.413161287772E+03   -0.41249E-05   -0.57906E-06  2973   0.289E-03    0.360E-03
RMM:  10    -0.413161292188E+03   -0.44162E-05   -0.12240E-06  2535   0.166E-03    0.247E-03
RMM:  11    -0.413161297681E+03   -0.54925E-05   -0.10786E-06  2419   0.131E-03    0.995E-04
RMM:  12    -0.413161303090E+03   -0.54099E-05   -0.60842E-07  2094   0.106E-03    0.389E-04
RMM:  13    -0.413161306042E+03   -0.29517E-05   -0.24349E-07  1539   0.806E-04    0.261E-04
RMM:  14    -0.413161309381E+03   -0.33383E-05   -0.18823E-07  1410   0.747E-04    0.141E-04
RMM:  15    -0.413161313592E+03   -0.42119E-05   -0.19440E-07  1618   0.749E-04    0.164E-04
RMM:  16    -0.413161316680E+03   -0.30874E-05   -0.12203E-07  1336   0.649E-04    0.113E-04
RMM:  17    -0.413161318276E+03   -0.15958E-05   -0.69975E-08  1081   0.577E-04    0.503E-05
RMM:  18    -0.413161319668E+03   -0.13923E-05   -0.47165E-08   975   0.553E-04    0.226E-05
RMM:  19    -0.413161320394E+03   -0.72582E-06   -0.28573E-08   824   0.529E-04
  148 T=    60. E= -.41286781E+03 F= -.41316132E+03 E0= -.41314066E+03  EK= 0.29351E+00 SP= 0.00E+00 SK= 0.00E+00
       N       E                     dE             d eps       ncg     rms          rms(c)
RMM:   1    -0.413174222549E+03   -0.12903E-01   -0.49996E+00  4264   0.706E-01    0.901E-01
RMM:   2    -0.413168195889E+03    0.60267E-02   -0.69416E-02  4382   0.843E-02    0.637E-01
RMM:   3    -0.413163386481E+03    0.48094E-02   -0.54813E-02  4931   0.694E-02    0.263E-01
RMM:   4    -0.413173515469E+03   -0.10129E-01   -0.14749E-02  5125   0.103E-01    0.465E-01
RMM:   5    -0.413161357374E+03    0.12158E-01   -0.63164E-03  4797   0.797E-02    0.371E-02
RMM:   6    -0.413161357239E+03    0.13437E-06   -0.10324E-03  5664   0.316E-02    0.234E-02
RMM:   7    -0.413161375340E+03   -0.18101E-04   -0.17701E-04  5676   0.122E-02    0.160E-02
RMM:   8    -0.413161379840E+03   -0.44999E-05   -0.35920E-05  4867   0.671E-03    0.629E-03
RMM:   9    -0.413161380561E+03   -0.72129E-06   -0.61026E-06  2944   0.290E-03
  149 T=    60. E= -.41286813E+03 F= -.41316138E+03 E0= -.41314073E+03  EK= 0.29325E+00 SP= 0.00E+00 SK= 0.00E+00
       N       E                     dE             d eps       ncg     rms          rms(c)
RMM:   1    -0.413172608265E+03   -0.11228E-01   -0.49364E+00  4265   0.698E-01    0.889E-01
RMM:   2    -0.413167295034E+03    0.53132E-02   -0.66014E-02  4380   0.828E-02    0.629E-01
RMM:   3    -0.413163087144E+03    0.42079E-02   -0.55815E-02  4979   0.741E-02    0.284E-01
RMM:   4    -0.413175109874E+03   -0.12023E-01   -0.17664E-02  5109   0.114E-01    0.509E-01
RMM:   5    -0.413160635410E+03    0.14474E-01   -0.77870E-03  4790   0.876E-02    0.407E-02
RMM:   6    -0.413160612418E+03    0.22992E-04   -0.11837E-03  5609   0.341E-02    0.229E-02
RMM:   7    -0.413160634919E+03   -0.22501E-04   -0.19276E-04  5734   0.125E-02    0.156E-02
RMM:   8    -0.413160642692E+03   -0.77736E-05   -0.39542E-05  4991   0.708E-03    0.645E-03
RMM:   9    -0.413160645101E+03   -0.24088E-05   -0.62215E-06  2951   0.308E-03    0.346E-03
RMM:  10    -0.413160647788E+03   -0.26873E-05   -0.14981E-06  2550   0.178E-03    0.240E-03
RMM:  11    -0.413160651904E+03   -0.41156E-05   -0.13357E-06  2487   0.148E-03    0.105E-03
RMM:  12    -0.413160655713E+03   -0.38091E-05   -0.65270E-07  2143   0.113E-03    0.445E-04
RMM:  13    -0.413160658471E+03   -0.27582E-05   -0.31157E-07  1763   0.862E-04    0.301E-04
RMM:  14    -0.413160662087E+03   -0.36157E-05   -0.27601E-07  1582   0.793E-04    0.184E-04
RMM:  15    -0.413160665856E+03   -0.37691E-05   -0.26090E-07  1626   0.772E-04    0.150E-04
RMM:  16    -0.413160668974E+03   -0.31175E-05   -0.16682E-07  1452   0.696E-04    0.107E-04
RMM:  17    -0.413160671628E+03   -0.26546E-05   -0.11619E-07  1262   0.626E-04    0.604E-05
RMM:  18    -0.413160672446E+03   -0.81808E-06   -0.50441E-08   934   0.537E-04
  150 T=    60. E= -.41286776E+03 F= -.41316067E+03 E0= -.41314002E+03  EK= 0.29291E+00 SP= 0.00E+00 SK= 0.00E+00
