       N       E                     dE             d eps       ncg     rms          rms(c)
RMM:   1     0.220138513381E+04    0.22014E+04   -0.52438E+04  2132   0.654E+02
RMM:   2     0.705202837281E+03   -0.14962E+04   -0.16263E+04  2132   0.177E+02
RMM:   3     0.137597786974E+03   -0.56761E+03   -0.65708E+03  2132   0.117E+02
RMM:   4    -0.159371346607E+03   -0.29697E+03   -0.27867E+03  2132   0.936E+01
RMM:   5    -0.287511626658E+03   -0.12814E+03   -0.11434E+03  2132   0.595E+01
RMM:   6    -0.349784726255E+03   -0.62273E+02   -0.55104E+02  2132   0.423E+01
RMM:   7    -0.382663330195E+03   -0.32879E+02   -0.30392E+02  2132   0.293E+01
RMM:   8    -0.404101729706E+03   -0.21438E+02   -0.18440E+02  2132   0.233E+01
RMM:   9    -0.435911868104E+03   -0.31810E+02   -0.30755E+02  6104   0.173E+01
RMM:  10    -0.441298903684E+03   -0.53870E+01   -0.64041E+01  6400   0.540E+00
RMM:  11    -0.442497107593E+03   -0.11982E+01   -0.11146E+01  6221   0.174E+00
RMM:  12    -0.442872371891E+03   -0.37526E+00   -0.26134E+00  6369   0.602E-01    0.134E+02
RMM:  13    -0.425618806294E+03    0.17254E+02   -0.81417E+01  4678   0.119E+01    0.712E+01
RMM:  14    -0.499724256109E+03   -0.74105E+02   -0.54325E+02  5426   0.233E+01    0.307E+01
RMM:  15    -0.414801107385E+03    0.84923E+02   -0.19782E+02  5059   0.163E+01    0.635E+00
RMM:  16    -0.414032702265E+03    0.76841E+00   -0.39338E+01  6068   0.607E+00    0.427E+00
RMM:  17    -0.413214961456E+03    0.81774E+00   -0.24103E+00  5348   0.184E+00    0.244E+00
RMM:  18    -0.413172030509E+03    0.42931E-01   -0.83050E-01  5981   0.934E-01    0.162E+00
RMM:  19    -0.413168716110E+03    0.33144E-02   -0.29628E-01  5691   0.583E-01    0.855E-01
RMM:  20    -0.413183356329E+03   -0.14640E-01   -0.21322E-01  5390   0.505E-01    0.539E-01
RMM:  21    -0.413167201629E+03    0.16155E-01   -0.34127E-02  4977   0.235E-01    0.242E-01
RMM:  22    -0.413165938606E+03    0.12630E-02   -0.13120E-02  6079   0.955E-02    0.152E-01
RMM:  23    -0.413164234934E+03    0.17037E-02   -0.63384E-03  5781   0.758E-02    0.851E-02
RMM:  24    -0.413162940900E+03    0.12940E-02   -0.15939E-03  5296   0.402E-02    0.374E-02
RMM:  25    -0.413162707166E+03    0.23373E-03   -0.80422E-04  5798   0.245E-02    0.299E-02
RMM:  26    -0.413162919713E+03   -0.21255E-03   -0.59269E-04  5763   0.259E-02    0.294E-02
RMM:  27    -0.413163371512E+03   -0.45180E-03   -0.18754E-04  4550   0.194E-02    0.174E-02
RMM:  28    -0.413163880088E+03   -0.50858E-03   -0.19921E-04  5167   0.204E-02    0.938E-03
RMM:  29    -0.413164224943E+03   -0.34485E-03   -0.97951E-05  4391   0.141E-02    0.395E-03
RMM:  30    -0.413164440751E+03   -0.21581E-03   -0.78639E-05  4285   0.101E-02    0.360E-03
RMM:  31    -0.413164531979E+03   -0.91228E-04   -0.43570E-05  3112   0.554E-03    0.254E-03
RMM:  32    -0.413164552361E+03   -0.20382E-04   -0.16662E-05  2918   0.275E-03    0.134E-03
RMM:  33    -0.413164559785E+03   -0.74235E-05   -0.79517E-06  2773   0.203E-03    0.548E-04
RMM:  34    -0.413164561983E+03   -0.21981E-05   -0.35803E-06  2611   0.154E-03    0.691E-04
RMM:  35    -0.413164561426E+03    0.55713E-06   -0.22160E-06  2114   0.108E-03
    1 T=    61. E= -.41286676E+03 F= -.41316456E+03 E0= -.41314206E+03  EK= 0.29780E+00 SP= 0.00E+00 SK= 0.00E+00
       N       E                     dE             d eps       ncg     rms          rms(c)
RMM:   1    -0.413160808229E+03    0.37538E-02   -0.95814E+00  3991   0.638E-01    0.885E-01
RMM:   2    -0.413167732697E+03   -0.69245E-02   -0.11730E-01  3923   0.902E-02    0.648E-01
RMM:   3    -0.413164657506E+03    0.30752E-02   -0.13103E-02  4890   0.460E-02    0.113E-01
RMM:   4    -0.413193211753E+03   -0.28554E-01   -0.30907E-02  5204   0.145E-01    0.704E-01
RMM:   5    -0.413164059007E+03    0.29153E-01   -0.14249E-02  4844   0.119E-01    0.477E-02
RMM:   6    -0.413164261901E+03   -0.20289E-03   -0.25135E-03  5795   0.487E-02    0.317E-02
RMM:   7    -0.413164271431E+03   -0.95294E-05   -0.42597E-04  5763   0.186E-02    0.202E-02
RMM:   8    -0.413164270790E+03    0.64026E-06   -0.61751E-05  5121   0.832E-03    0.912E-03
RMM:   9    -0.413164273231E+03   -0.24410E-05   -0.13083E-05  3788   0.385E-03    0.684E-03
RMM:  10    -0.413164278397E+03   -0.51659E-05   -0.22564E-06  2598   0.216E-03    0.431E-03
RMM:  11    -0.413164283266E+03   -0.48691E-05   -0.13467E-06  2532   0.172E-03    0.235E-03
RMM:  12    -0.413164290996E+03   -0.77297E-05   -0.18818E-06  2587   0.192E-03    0.987E-04
RMM:  13    -0.413164293424E+03   -0.24277E-05   -0.64266E-07  2358   0.126E-03    0.693E-04
RMM:  14    -0.413164293187E+03    0.23665E-06   -0.32962E-07  1866   0.842E-04
    2 T=    61. E= -.41286655E+03 F= -.41316429E+03 E0= -.41314179E+03  EK= 0.29775E+00 SP= 0.00E+00 SK= 0.00E+00
       N       E                     dE             d eps       ncg     rms          rms(c)
RMM:   1    -0.413161873379E+03    0.24200E-02   -0.95872E+00  4189   0.644E-01    0.906E-01
RMM:   2    -0.413167865096E+03   -0.59917E-02   -0.11562E-01  3966   0.895E-02    0.643E-01
RMM:   3    -0.413165080193E+03    0.27849E-02   -0.12595E-02  4801   0.423E-02    0.111E-01
RMM:   4    -0.413186759411E+03   -0.21679E-01   -0.22403E-02  5179   0.125E-01    0.617E-01
RMM:   5    -0.413164707719E+03    0.22052E-01   -0.10813E-02  4838   0.103E-01    0.450E-02
RMM:   6    -0.413164859689E+03   -0.15197E-03   -0.19114E-03  5791   0.424E-02    0.307E-02
RMM:   7    -0.413164855014E+03    0.46752E-05   -0.35560E-04  5642   0.179E-02    0.191E-02
RMM:   8    -0.413164846772E+03    0.82426E-05   -0.51325E-05  4980   0.796E-03    0.894E-03
RMM:   9    -0.413164845603E+03    0.11683E-05   -0.10439E-05  3631   0.359E-03    0.686E-03
RMM:  10    -0.413164846026E+03   -0.42229E-06   -0.17977E-06  2557   0.217E-03
    3 T=    61. E= -.41286686E+03 F= -.41316485E+03 E0= -.41314235E+03  EK= 0.29798E+00 SP= 0.00E+00 SK= 0.00E+00
       N       E                     dE             d eps       ncg     rms          rms(c)
RMM:   1    -0.413161372894E+03    0.34727E-02   -0.95108E+00  4221   0.645E-01    0.890E-01
RMM:   2    -0.413167610628E+03   -0.62377E-02   -0.11511E-01  4172   0.908E-02    0.637E-01
RMM:   3    -0.413168440289E+03   -0.82966E-03   -0.15154E-02  5137   0.717E-02    0.277E-01
RMM:   4    -0.413194366390E+03   -0.25926E-01   -0.41785E-02  5132   0.173E-01    0.712E-01
RMM:   5    -0.413164528521E+03    0.29838E-01   -0.12261E-02  4734   0.117E-01    0.602E-02
RMM:   6    -0.413164592934E+03   -0.64413E-04   -0.22754E-03  5547   0.476E-02    0.306E-02
RMM:   7    -0.413164615409E+03   -0.22475E-04   -0.39709E-04  6030   0.173E-02    0.188E-02
RMM:   8    -0.413164613241E+03    0.21675E-05   -0.69661E-05  5232   0.918E-03    0.807E-03
RMM:   9    -0.413164611355E+03    0.18861E-05   -0.96083E-06  3501   0.371E-03    0.411E-03
RMM:  10    -0.413164612628E+03   -0.12732E-05   -0.21517E-06  2591   0.221E-03    0.273E-03
RMM:  11    -0.413164614357E+03   -0.17284E-05   -0.14157E-06  2532   0.186E-03    0.154E-03
RMM:  12    -0.413164615309E+03   -0.95199E-06   -0.80327E-07  2495   0.144E-03
    4 T=    61. E= -.41286665E+03 F= -.41316462E+03 E0= -.41314213E+03  EK= 0.29797E+00 SP= 0.00E+00 SK= 0.00E+00
       N       E                     dE             d eps       ncg     rms          rms(c)
RMM:   1    -0.413161323575E+03    0.32908E-02   -0.95663E+00  4237   0.651E-01    0.883E-01
RMM:   2    -0.413168151766E+03   -0.68282E-02   -0.11727E-01  4037   0.906E-02    0.647E-01
RMM:   3    -0.413165199623E+03    0.29521E-02   -0.13099E-02  4917   0.462E-02    0.115E-01
RMM:   4    -0.413195049079E+03   -0.29849E-01   -0.31433E-02  5148   0.148E-01    0.721E-01
RMM:   5    -0.413164573190E+03    0.30476E-01   -0.14658E-02  4819   0.120E-01    0.475E-02
RMM:   6    -0.413164768899E+03   -0.19571E-03   -0.24850E-03  5767   0.489E-02    0.312E-02
RMM:   7    -0.413164777933E+03   -0.90346E-05   -0.41209E-04  5772   0.185E-02    0.199E-02
RMM:   8    -0.413164776297E+03    0.16357E-05   -0.62707E-05  5060   0.844E-03    0.924E-03
RMM:   9    -0.413164777680E+03   -0.13824E-05   -0.12404E-05  3831   0.394E-03    0.687E-03
RMM:  10    -0.413164781920E+03   -0.42402E-05   -0.18671E-06  2577   0.214E-03    0.433E-03
RMM:  11    -0.413164786201E+03   -0.42814E-05   -0.12974E-06  2533   0.178E-03    0.226E-03
RMM:  12    -0.413164792186E+03   -0.59845E-05   -0.17891E-06  2590   0.190E-03    0.979E-04
RMM:  13    -0.413164793502E+03   -0.13164E-05   -0.50326E-07  2331   0.122E-03    0.629E-04
RMM:  14    -0.413164793451E+03    0.51165E-07   -0.21833E-07  1758   0.814E-04
    5 T=    61. E= -.41286669E+03 F= -.41316479E+03 E0= -.41314232E+03  EK= 0.29810E+00 SP= 0.00E+00 SK= 0.00E+00
       N       E                     dE             d eps       ncg     rms          rms(c)
RMM:   1    -0.413162236640E+03    0.25569E-02   -0.95859E+00  4248   0.657E-01    0.902E-01
RMM:   2    -0.413168170026E+03   -0.59334E-02   -0.11596E-01  4069   0.912E-02    0.645E-01
RMM:   3    -0.413165484667E+03    0.26854E-02   -0.12738E-02  4798   0.435E-02    0.109E-01
RMM:   4    -0.413187846806E+03   -0.22362E-01   -0.22992E-02  5152   0.126E-01    0.626E-01
RMM:   5    -0.413165089433E+03    0.22757E-01   -0.11088E-02  4822   0.104E-01    0.452E-02
RMM:   6    -0.413165246997E+03   -0.15756E-03   -0.19622E-03  5775   0.428E-02    0.310E-02
RMM:   7    -0.413165242928E+03    0.40687E-05   -0.36061E-04  5634   0.180E-02    0.192E-02
RMM:   8    -0.413165235701E+03    0.72266E-05   -0.49609E-05  4944   0.787E-03    0.889E-03
RMM:   9    -0.413165234543E+03    0.11579E-05   -0.98150E-06  3540   0.354E-03    0.682E-03
RMM:  10    -0.413165235025E+03   -0.48153E-06   -0.16829E-06  2547   0.214E-03
    6 T=    61. E= -.41286687E+03 F= -.41316524E+03 E0= -.41314277E+03  EK= 0.29837E+00 SP= 0.00E+00 SK= 0.00E+00
       N       E                     dE             d eps       ncg     rms          rms(c)
RMM:   1    -0.413161883204E+03    0.33513E-02   -0.95316E+00  4255   0.658E-01    0.897E-01
RMM:   2    -0.413167857958E+03   -0.59748E-02   -0.11529E-01  4194   0.904E-02    0.639E-01
RMM:   3    -0.413168513954E+03   -0.65600E-03   -0.14997E-02  5109   0.695E-02    0.267E-01
RMM:   4    -0.413195852769E+03   -0.27339E-01   -0.42051E-02  5115   0.173E-01    0.725E-01
RMM:   5    -0.413164917753E+03    0.30935E-01   -0.12925E-02  4744   0.119E-01    0.598E-02
RMM:   6    -0.413164995026E+03   -0.77273E-04   -0.23336E-03  5559   0.483E-02    0.311E-02
RMM:   7    -0.413165011989E+03   -0.16963E-04   -0.39700E-04  6014   0.174E-02    0.190E-02
RMM:   8    -0.413165008649E+03    0.33404E-05   -0.68709E-05  5217   0.914E-03    0.809E-03
RMM:   9    -0.413165005193E+03    0.34562E-05   -0.95144E-06  3487   0.370E-03    0.418E-03
RMM:  10    -0.413165005175E+03    0.17855E-07   -0.22264E-06  2589   0.223E-03
    7 T=    61. E= -.41286657E+03 F= -.41316501E+03 E0= -.41314256E+03  EK= 0.29843E+00 SP= 0.00E+00 SK= 0.00E+00
       N       E                     dE             d eps       ncg     rms          rms(c)
RMM:   1    -0.413162125468E+03    0.28797E-02   -0.95449E+00  4262   0.663E-01    0.882E-01
RMM:   2    -0.413168931039E+03   -0.68056E-02   -0.11672E-01  4130   0.908E-02    0.645E-01
RMM:   3    -0.413166297744E+03    0.26333E-02   -0.13202E-02  4955   0.502E-02    0.136E-01
RMM:   4    -0.413202429480E+03   -0.36132E-01   -0.39058E-02  5143   0.165E-01    0.792E-01
RMM:   5    -0.413165368647E+03    0.37061E-01   -0.17597E-02  4803   0.132E-01    0.513E-02
RMM:   6    -0.413165581968E+03   -0.21332E-03   -0.29507E-03  5749   0.537E-02    0.323E-02
RMM:   7    -0.413165592030E+03   -0.10062E-04   -0.47029E-04  5835   0.193E-02    0.208E-02
RMM:   8    -0.413165590757E+03    0.12732E-05   -0.70132E-05  5195   0.884E-03    0.956E-03
RMM:   9    -0.413165590605E+03    0.15157E-06   -0.13530E-05  3930   0.412E-03    0.664E-03
RMM:  10    -0.413165593653E+03   -0.30478E-05   -0.21278E-06  2585   0.219E-03    0.423E-03
RMM:  11    -0.413165596358E+03   -0.27048E-05   -0.12163E-06  2529   0.173E-03    0.228E-03
RMM:  12    -0.413165600375E+03   -0.40169E-05   -0.17875E-06  2584   0.192E-03    0.949E-04
RMM:  13    -0.413165601550E+03   -0.11747E-05   -0.60384E-07  2362   0.128E-03    0.715E-04
RMM:  14    -0.413165601316E+03    0.23362E-06   -0.24218E-07  1863   0.850E-04
    8 T=    61. E= -.41286682E+03 F= -.41316560E+03 E0= -.41314317E+03  EK= 0.29879E+00 SP= 0.00E+00 SK= 0.00E+00
       N       E                     dE             d eps       ncg     rms          rms(c)
RMM:   1    -0.413162622270E+03    0.29793E-02   -0.95874E+00  4280   0.672E-01    0.897E-01
RMM:   2    -0.413169079358E+03   -0.64571E-02   -0.11646E-01  4160   0.920E-02    0.648E-01
RMM:   3    -0.413166047430E+03    0.30319E-02   -0.12874E-02  4808   0.441E-02    0.108E-01
RMM:   4    -0.413189640796E+03   -0.23593E-01   -0.24351E-02  5145   0.130E-01    0.643E-01
RMM:   5    -0.413165613903E+03    0.24027E-01   -0.11634E-02  4809   0.107E-01    0.453E-02
RMM:   6    -0.413165779326E+03   -0.16542E-03   -0.20923E-03  5780   0.436E-02    0.301E-02
RMM:   7    -0.413165780572E+03   -0.12460E-05   -0.35352E-04  5642   0.178E-02    0.192E-02
RMM:   8    -0.413165773090E+03    0.74823E-05   -0.56609E-05  4969   0.821E-03    0.928E-03
RMM:   9    -0.413165771633E+03    0.14574E-05   -0.11172E-05  3743   0.379E-03    0.714E-03
RMM:  10    -0.413165772277E+03   -0.64409E-06   -0.17001E-06  2549   0.216E-03
    9 T=    61. E= -.41286672E+03 F= -.41316577E+03 E0= -.41314336E+03  EK= 0.29905E+00 SP= 0.00E+00 SK= 0.00E+00
       N       E                     dE             d eps       ncg     rms          rms(c)
RMM:   1    -0.413162934710E+03    0.28369E-02   -0.95591E+00  4295   0.672E-01    0.904E-01
RMM:   2    -0.413168875052E+03   -0.59403E-02   -0.11526E-01  4296   0.925E-02    0.641E-01
RMM:   3    -0.413170202366E+03   -0.13273E-02   -0.15814E-02  5118   0.751E-02    0.295E-01
RMM:   4    -0.413193221006E+03   -0.23019E-01   -0.40108E-02  5096   0.170E-01    0.684E-01
RMM:   5    -0.413165773351E+03    0.27448E-01   -0.10989E-02  4715   0.112E-01    0.593E-02
RMM:   6    -0.413165823469E+03   -0.50119E-04   -0.20827E-03  5502   0.454E-02    0.312E-02
RMM:   7    -0.413165836889E+03   -0.13420E-04   -0.36604E-04  5986   0.171E-02    0.189E-02
RMM:   8    -0.413165830609E+03    0.62803E-05   -0.65974E-05  5171   0.912E-03    0.795E-03
RMM:   9    -0.413165825829E+03    0.47797E-05   -0.86333E-06  3429   0.366E-03    0.406E-03
RMM:  10    -0.413165824692E+03    0.11374E-05   -0.19403E-06  2564   0.218E-03    0.266E-03
RMM:  11    -0.413165822738E+03    0.19537E-05   -0.13405E-06  2521   0.182E-03    0.148E-03
RMM:  12    -0.413165820841E+03    0.18963E-05   -0.74942E-07  2473   0.141E-03    0.560E-04
RMM:  13    -0.413165819739E+03    0.11025E-05   -0.37206E-07  2074   0.100E-03    0.306E-04
RMM:  14    -0.413165818611E+03    0.11283E-05   -0.24060E-07  1629   0.807E-04    0.208E-04
RMM:  15    -0.413165817117E+03    0.14941E-05   -0.20006E-07  1453   0.742E-04    0.123E-04
RMM:  16    -0.413165815448E+03    0.16682E-05   -0.17717E-07  1396   0.708E-04    0.124E-04
RMM:  17    -0.413165813740E+03    0.17085E-05   -0.15159E-07  1307   0.666E-04    0.700E-05
RMM:  18    -0.413165812704E+03    0.10358E-05   -0.85429E-08  1056   0.594E-04    0.348E-05
RMM:  19    -0.413165812119E+03    0.58522E-06   -0.47391E-08   871   0.551E-04
   10 T=    61. E= -.41286653E+03 F= -.41316581E+03 E0= -.41314343E+03  EK= 0.29928E+00 SP= 0.00E+00 SK= 0.00E+00
       N       E                     dE             d eps       ncg     rms          rms(c)
RMM:   1    -0.413163227314E+03    0.25854E-02   -0.95249E+00  4291   0.677E-01    0.882E-01
RMM:   2    -0.413169834690E+03   -0.66074E-02   -0.11635E-01  4211   0.912E-02    0.643E-01
RMM:   3    -0.413167110509E+03    0.27242E-02   -0.12972E-02  4910   0.480E-02    0.126E-01
RMM:   4    -0.413200011188E+03   -0.32901E-01   -0.35026E-02  5142   0.156E-01    0.756E-01
RMM:   5    -0.413166359763E+03    0.33651E-01   -0.16089E-02  4796   0.126E-01    0.498E-02
RMM:   6    -0.413166575054E+03   -0.21529E-03   -0.28384E-03  5745   0.512E-02    0.326E-02
RMM:   7    -0.413166579311E+03   -0.42569E-05   -0.44756E-04  5715   0.191E-02    0.208E-02
RMM:   8    -0.413166574380E+03    0.49304E-05   -0.66032E-05  5123   0.868E-03    0.972E-03
RMM:   9    -0.413166573080E+03    0.13004E-05   -0.13427E-05  3955   0.411E-03    0.711E-03
RMM:  10    -0.413166574594E+03   -0.15142E-05   -0.19285E-06  2570   0.217E-03    0.450E-03
RMM:  11    -0.413166576110E+03   -0.15162E-05   -0.12105E-06  2510   0.174E-03    0.245E-03
RMM:  12    -0.413166578396E+03   -0.22855E-05   -0.17275E-06  2569   0.194E-03    0.976E-04
RMM:  13    -0.413166578949E+03   -0.55318E-06   -0.53445E-07  2354   0.127E-03
   11 T=    61. E= -.41286686E+03 F= -.41316658E+03 E0= -.41314422E+03  EK= 0.29972E+00 SP= 0.00E+00 SK= 0.00E+00
       N       E                     dE             d eps       ncg     rms          rms(c)
RMM:   1    -0.413163349578E+03    0.32288E-02   -0.95926E+00  4294   0.682E-01    0.893E-01
RMM:   2    -0.413169810320E+03   -0.64607E-02   -0.11708E-01  4233   0.936E-02    0.650E-01
RMM:   3    -0.413166858948E+03    0.29514E-02   -0.13120E-02  4837   0.451E-02    0.109E-01
RMM:   4    -0.413192817628E+03   -0.25959E-01   -0.27007E-02  5134   0.137E-01    0.673E-01
RMM:   5    -0.413166357664E+03    0.26460E-01   -0.12765E-02  4800   0.112E-01    0.461E-02
RMM:   6    -0.413166533666E+03   -0.17600E-03   -0.22994E-03  5787   0.454E-02    0.301E-02
RMM:   7    -0.413166539837E+03   -0.61708E-05   -0.36253E-04  5692   0.179E-02    0.193E-02
RMM:   8    -0.413166532887E+03    0.69499E-05   -0.62397E-05  4992   0.846E-03    0.959E-03
RMM:   9    -0.413166531090E+03    0.17968E-05   -0.12244E-05  3917   0.400E-03    0.732E-03
RMM:  10    -0.413166532015E+03   -0.92541E-06   -0.17366E-06  2555   0.215E-03
   12 T=    61. E= -.41286656E+03 F= -.41316653E+03 E0= -.41314420E+03  EK= 0.29998E+00 SP= 0.00E+00 SK= 0.00E+00
       N       E                     dE             d eps       ncg     rms          rms(c)
RMM:   1    -0.413164397640E+03    0.21335E-02   -0.95845E+00  4300   0.684E-01    0.909E-01
RMM:   2    -0.413169874506E+03   -0.54769E-02   -0.11571E-01  4304   0.913E-02    0.643E-01
RMM:   3    -0.413172348198E+03   -0.24737E-02   -0.16710E-02  5129   0.785E-02    0.320E-01
RMM:   4    -0.413191967883E+03   -0.19620E-01   -0.39091E-02  5087   0.168E-01    0.652E-01
RMM:   5    -0.413167080020E+03    0.24888E-01   -0.96057E-03  4691   0.106E-01    0.586E-02
RMM:   6    -0.413167109032E+03   -0.29012E-04   -0.18795E-03  5470   0.429E-02    0.312E-02
RMM:   7    -0.413167118755E+03   -0.97227E-05   -0.34424E-04  5966   0.168E-02    0.188E-02
RMM:   8    -0.413167111733E+03    0.70221E-05   -0.63081E-05  5142   0.904E-03    0.779E-03
RMM:   9    -0.413167106140E+03    0.55927E-05   -0.81850E-06  3395   0.364E-03    0.395E-03
RMM:  10    -0.413167104396E+03    0.17436E-05   -0.17727E-06  2543   0.214E-03    0.255E-03
RMM:  11    -0.413167101283E+03    0.31131E-05   -0.13045E-06  2516   0.180E-03    0.147E-03
RMM:  12    -0.413167098635E+03    0.26482E-05   -0.69473E-07  2464   0.139E-03    0.563E-04
RMM:  13    -0.413167096989E+03    0.16465E-05   -0.35784E-07  2083   0.989E-04    0.315E-04
RMM:  14    -0.413167095452E+03    0.15366E-05   -0.21632E-07  1602   0.796E-04    0.215E-04
RMM:  15    -0.413167093085E+03    0.23672E-05   -0.20207E-07  1475   0.751E-04    0.132E-04
RMM:  16    -0.413167090918E+03    0.21669E-05   -0.16429E-07  1420   0.700E-04    0.129E-04
RMM:  17    -0.413167088510E+03    0.24077E-05   -0.15113E-07  1369   0.670E-04    0.726E-05
RMM:  18    -0.413167087512E+03    0.99804E-06   -0.68033E-08   975   0.571E-04
   13 T=    61. E= -.41286664E+03 F= -.41316709E+03 E0= -.41314479E+03  EK= 0.30045E+00 SP= 0.00E+00 SK= 0.00E+00
       N       E                     dE             d eps       ncg     rms          rms(c)
RMM:   1    -0.413164699818E+03    0.23887E-02   -0.95186E+00  4293   0.699E-01    0.885E-01
RMM:   2    -0.413170866697E+03   -0.61669E-02   -0.11651E-01  4253   0.924E-02    0.641E-01
RMM:   3    -0.413168377011E+03    0.24897E-02   -0.12938E-02  4921   0.479E-02    0.132E-01
RMM:   4    -0.413202548729E+03   -0.34172E-01   -0.36650E-02  5138   0.159E-01    0.770E-01
RMM:   5    -0.413167571906E+03    0.34977E-01   -0.16709E-02  4788   0.128E-01    0.508E-02
RMM:   6    -0.413167792285E+03   -0.22038E-03   -0.29921E-03  5749   0.523E-02    0.333E-02
RMM:   7    -0.413167794242E+03   -0.19570E-05   -0.45974E-04  5696   0.193E-02    0.212E-02
RMM:   8    -0.413167787563E+03    0.66781E-05   -0.69050E-05  5151   0.885E-03    0.100E-02
RMM:   9    -0.413167784506E+03    0.30574E-05   -0.14043E-05  4041   0.420E-03    0.727E-03
RMM:  10    -0.413167784194E+03    0.31199E-06   -0.19825E-06  2570   0.219E-03
   14 T=    61. E= -.41286679E+03 F= -.41316778E+03 E0= -.41314552E+03  EK= 0.30099E+00 SP= 0.00E+00 SK= 0.00E+00
       N       E                     dE             d eps       ncg     rms          rms(c)
RMM:   1    -0.413164629998E+03    0.31545E-02   -0.96020E+00  4301   0.692E-01    0.891E-01
RMM:   2    -0.413171290101E+03   -0.66601E-02   -0.11759E-01  4330   0.919E-02    0.652E-01
RMM:   3    -0.413174672972E+03   -0.33829E-02   -0.18456E-02  5130   0.868E-02    0.359E-01
RMM:   4    -0.413191771094E+03   -0.17098E-01   -0.41009E-02  5068   0.173E-01    0.638E-01
RMM:   5    -0.413167765309E+03    0.24006E-01   -0.88228E-03  4663   0.104E-01    0.581E-02
RMM:   6    -0.413167777101E+03   -0.11792E-04   -0.17413E-03  5413   0.412E-02    0.293E-02
RMM:   7    -0.413167796985E+03   -0.19883E-04   -0.32323E-04  5973   0.165E-02    0.180E-02
RMM:   8    -0.413167796744E+03    0.24057E-06   -0.62237E-05  5138   0.895E-03    0.742E-03
RMM:   9    -0.413167795053E+03    0.16911E-05   -0.81976E-06  3374   0.367E-03    0.374E-03
RMM:  10    -0.413167796071E+03   -0.10180E-05   -0.15531E-06  2528   0.206E-03    0.238E-03
RMM:  11    -0.413167797670E+03   -0.15988E-05   -0.13956E-06  2535   0.182E-03    0.151E-03
RMM:  12    -0.413167798098E+03   -0.42775E-06   -0.65764E-07  2460   0.136E-03
   15 T=    61. E= -.41286641E+03 F= -.41316780E+03 E0= -.41314556E+03  EK= 0.30139E+00 SP= 0.00E+00 SK= 0.00E+00
       N       E                     dE             d eps       ncg     rms          rms(c)
RMM:   1    -0.413166137814E+03    0.16599E-02   -0.96055E+00  4299   0.696E-01    0.911E-01
RMM:   2    -0.413171986454E+03   -0.58486E-02   -0.11621E-01  4264   0.919E-02    0.646E-01
RMM:   3    -0.413169474571E+03    0.25119E-02   -0.13192E-02  4945   0.479E-02    0.138E-01
RMM:   4    -0.413204345007E+03   -0.34870E-01   -0.37448E-02  5133   0.161E-01    0.778E-01
RMM:   5    -0.413168654486E+03    0.35691E-01   -0.17149E-02  4790   0.130E-01    0.514E-02
RMM:   6    -0.413168868402E+03   -0.21392E-03   -0.30000E-03  5757   0.530E-02    0.343E-02
RMM:   7    -0.413168861786E+03    0.66161E-05   -0.47085E-04  5728   0.199E-02    0.219E-02
RMM:   8    -0.413168850545E+03    0.11242E-04   -0.73586E-05  5154   0.923E-03    0.106E-02
RMM:   9    -0.413168844394E+03    0.61501E-05   -0.14609E-05  4081   0.432E-03    0.760E-03
RMM:  10    -0.413168840525E+03    0.38698E-05   -0.21165E-06  2582   0.226E-03    0.473E-03
RMM:  11    -0.413168837550E+03    0.29747E-05   -0.12537E-06  2514   0.178E-03    0.267E-03
RMM:  12    -0.413168832019E+03    0.55309E-05   -0.19317E-06  2587   0.208E-03    0.109E-03
RMM:  13    -0.413168829314E+03    0.27051E-05   -0.61620E-07  2392   0.137E-03    0.856E-04
RMM:  14    -0.413168829632E+03   -0.31810E-06   -0.25439E-07  1952   0.886E-04
   16 T=    62. E= -.41286668E+03 F= -.41316883E+03 E0= -.41314663E+03  EK= 0.30215E+00 SP= 0.00E+00 SK= 0.00E+00
       N       E                     dE             d eps       ncg     rms          rms(c)
RMM:   1    -0.413166194064E+03    0.26352E-02   -0.95315E+00  4297   0.700E-01    0.892E-01
RMM:   2    -0.413172536079E+03   -0.63420E-02   -0.11602E-01  4265   0.917E-02    0.642E-01
RMM:   3    -0.413169668017E+03    0.28681E-02   -0.12810E-02  4863   0.452E-02    0.118E-01
RMM:   4    -0.413197494270E+03   -0.27826E-01   -0.29135E-02  5131   0.142E-01    0.696E-01
RMM:   5    -0.413169111795E+03    0.28382E-01   -0.13755E-02  4797   0.116E-01    0.475E-02
RMM:   6    -0.413169290105E+03   -0.17831E-03   -0.24438E-03  5802   0.471E-02    0.313E-02
RMM:   7    -0.413169289567E+03    0.53871E-06   -0.38109E-04  5675   0.184E-02    0.198E-02
RMM:   8    -0.413169279256E+03    0.10310E-04   -0.66375E-05  5027   0.873E-03    0.999E-03
RMM:   9    -0.413169274488E+03    0.47683E-05   -0.13036E-05  3997   0.413E-03    0.753E-03
RMM:  10    -0.413169272016E+03    0.24722E-05   -0.18451E-06  2565   0.219E-03    0.468E-03
RMM:  11    -0.413169269855E+03    0.21604E-05   -0.12805E-06  2510   0.183E-03    0.252E-03
RMM:  12    -0.413169266386E+03    0.34694E-05   -0.16124E-06  2548   0.194E-03    0.973E-04
RMM:  13    -0.413169264902E+03    0.14835E-05   -0.50704E-07  2328   0.126E-03    0.634E-04
RMM:  14    -0.413169264833E+03    0.68958E-07   -0.22986E-07  1848   0.840E-04
   17 T=    62. E= -.41286652E+03 F= -.41316926E+03 E0= -.41314711E+03  EK= 0.30274E+00 SP= 0.00E+00 SK= 0.00E+00
       N       E                     dE             d eps       ncg     rms          rms(c)
RMM:   1    -0.413166678131E+03    0.25868E-02   -0.96115E+00  4298   0.706E-01    0.889E-01
RMM:   2    -0.413173278006E+03   -0.65999E-02   -0.11826E-01  4269   0.931E-02    0.653E-01
RMM:   3    -0.413170180034E+03    0.30980E-02   -0.13605E-02  4874   0.471E-02    0.113E-01
RMM:   4    -0.413199393103E+03   -0.29213E-01   -0.30747E-02  5126   0.146E-01    0.713E-01
RMM:   5    -0.413169573307E+03    0.29820E-01   -0.14424E-02  4790   0.118E-01    0.478E-02
RMM:   6    -0.413169760440E+03   -0.18713E-03   -0.25467E-03  5769   0.484E-02    0.313E-02
RMM:   7    -0.413169765177E+03   -0.47372E-05   -0.40777E-04  5677   0.186E-02    0.201E-02
RMM:   8    -0.413169758353E+03    0.68244E-05   -0.65529E-05  5063   0.867E-03    0.977E-03
RMM:   9    -0.413169755765E+03    0.25877E-05   -0.13085E-05  3955   0.410E-03    0.729E-03
RMM:  10    -0.413169756003E+03   -0.23760E-06   -0.18034E-06  2553   0.215E-03
   18 T=    62. E= -.41286640E+03 F= -.41316976E+03 E0= -.41314764E+03  EK= 0.30336E+00 SP= 0.00E+00 SK= 0.00E+00
       N       E                     dE             d eps       ncg     rms          rms(c)
RMM:   1    -0.413168577449E+03    0.11783E-02   -0.96305E+00  4305   0.718E-01    0.910E-01
RMM:   2    -0.413174110445E+03   -0.55330E-02   -0.11709E-01  4332   0.927E-02    0.650E-01
RMM:   3    -0.413176655981E+03   -0.25455E-02   -0.17339E-02  5119   0.814E-02    0.330E-01
RMM:   4    -0.413196190576E+03   -0.19535E-01   -0.40292E-02  5074   0.171E-01    0.655E-01
RMM:   5    -0.413170978260E+03    0.25212E-01   -0.96535E-03  4681   0.107E-01    0.583E-02
RMM:   6    -0.413171003084E+03   -0.24824E-04   -0.18903E-03  5449   0.432E-02    0.311E-02
RMM:   7    -0.413171013917E+03   -0.10832E-04   -0.34644E-04  5955   0.168E-02    0.190E-02
RMM:   8    -0.413171005819E+03    0.80977E-05   -0.64992E-05  5142   0.912E-03    0.792E-03
RMM:   9    -0.413170999288E+03    0.65314E-05   -0.83827E-06  3403   0.372E-03    0.397E-03
RMM:  10    -0.413170996985E+03    0.23026E-05   -0.17773E-06  2542   0.215E-03    0.256E-03
RMM:  11    -0.413170993028E+03    0.39571E-05   -0.12583E-06  2506   0.179E-03    0.147E-03
RMM:  12    -0.413170989622E+03    0.34058E-05   -0.65680E-07  2456   0.137E-03    0.545E-04
RMM:  13    -0.413170987498E+03    0.21240E-05   -0.33063E-07  2055   0.973E-04    0.305E-04
RMM:  14    -0.413170985578E+03    0.19198E-05   -0.19190E-07  1551   0.776E-04    0.209E-04
RMM:  15    -0.413170982469E+03    0.31097E-05   -0.16777E-07  1432   0.733E-04    0.129E-04
RMM:  16    -0.413170979757E+03    0.27113E-05   -0.12815E-07  1323   0.674E-04    0.125E-04
RMM:  17    -0.413170976552E+03    0.32051E-05   -0.12339E-07  1352   0.666E-04    0.706E-05
RMM:  18    -0.413170975153E+03    0.13987E-05   -0.59529E-08   962   0.573E-04    0.409E-05
RMM:  19    -0.413170974219E+03    0.93440E-06   -0.34472E-08   840   0.548E-04
   19 T=    62. E= -.41286675E+03 F= -.41317097E+03 E0= -.41314890E+03  EK= 0.30422E+00 SP= 0.00E+00 SK= 0.00E+00
       N       E                     dE             d eps       ncg     rms          rms(c)
RMM:   1    -0.413168524717E+03    0.24504E-02   -0.95671E+00  4297   0.710E-01    0.900E-01
RMM:   2    -0.413174244929E+03   -0.57202E-02   -0.11656E-01  4271   0.928E-02    0.644E-01
RMM:   3    -0.413172071089E+03    0.21738E-02   -0.13257E-02  4946   0.496E-02    0.143E-01
RMM:   4    -0.413208526729E+03   -0.36456E-01   -0.39703E-02  5125   0.165E-01    0.795E-01
RMM:   5    -0.413171143611E+03    0.37383E-01   -0.17985E-02  4785   0.133E-01    0.523E-02
RMM:   6    -0.413171346216E+03   -0.20260E-03   -0.30772E-03  5740   0.544E-02    0.346E-02
RMM:   7    -0.413171342963E+03    0.32535E-05   -0.48735E-04  5706   0.200E-02    0.219E-02
RMM:   8    -0.413171332509E+03    0.10454E-04   -0.75458E-05  5203   0.934E-03    0.105E-02
RMM:   9    -0.413171326218E+03    0.62912E-05   -0.15257E-05  4129   0.438E-03    0.733E-03
RMM:  10    -0.413171322552E+03    0.36661E-05   -0.21750E-06  2586   0.225E-03    0.463E-03
RMM:  11    -0.413171319898E+03    0.26534E-05   -0.11320E-06  2503   0.171E-03    0.266E-03
RMM:  12    -0.413171314923E+03    0.49749E-05   -0.17338E-06  2558   0.201E-03    0.106E-03
RMM:  13    -0.413171312368E+03    0.25551E-05   -0.60375E-07  2380   0.135E-03    0.873E-04
RMM:  14    -0.413171312650E+03   -0.28240E-06   -0.25460E-07  1961   0.889E-04
   20 T=    62. E= -.41286647E+03 F= -.41317131E+03 E0= -.41314928E+03  EK= 0.30484E+00 SP= 0.00E+00 SK= 0.00E+00
       N       E                     dE             d eps       ncg     rms          rms(c)
RMM:   1    -0.413169433897E+03    0.18785E-02   -0.96154E+00  4296   0.720E-01    0.889E-01
RMM:   2    -0.413175933438E+03   -0.64995E-02   -0.11882E-01  4282   0.935E-02    0.653E-01
RMM:   3    -0.413172879105E+03    0.30543E-02   -0.13702E-02  4851   0.482E-02    0.112E-01
RMM:   4    -0.413201537302E+03   -0.28658E-01   -0.30116E-02  5128   0.144E-01    0.706E-01
RMM:   5    -0.413172292610E+03    0.29245E-01   -0.14211E-02  4797   0.117E-01    0.474E-02
RMM:   6    -0.413172466311E+03   -0.17370E-03   -0.25008E-03  5795   0.479E-02    0.303E-02
RMM:   7    -0.413172472407E+03   -0.60962E-05   -0.37474E-04  5693   0.182E-02    0.192E-02
RMM:   8    -0.413172464936E+03    0.74709E-05   -0.71078E-05  5047   0.886E-03    0.102E-02
RMM:   9    -0.413172460954E+03    0.39822E-05   -0.13884E-05  4113   0.426E-03    0.758E-03
RMM:  10    -0.413172460220E+03    0.73402E-06   -0.18271E-06  2559   0.218E-03
   21 T=    62. E= -.41286670E+03 F= -.41317246E+03 E0= -.41315047E+03  EK= 0.30576E+00 SP= 0.00E+00 SK= 0.00E+00
       N       E                     dE             d eps       ncg     rms          rms(c)
RMM:   1    -0.413175420098E+03   -0.29591E-02   -0.96991E+00  4299   0.765E-01    0.909E-01
RMM:   2    -0.413176899056E+03   -0.14790E-02   -0.11811E-01  4329   0.958E-02    0.654E-01
RMM:   3    -0.413179392282E+03   -0.24932E-02   -0.17811E-02  5110   0.832E-02    0.333E-01
RMM:   4    -0.413199368384E+03   -0.19976E-01   -0.41392E-02  5084   0.173E-01    0.662E-01
RMM:   5    -0.413173523333E+03    0.25845E-01   -0.98740E-03  4677   0.108E-01    0.577E-02
RMM:   6    -0.413173562079E+03   -0.38746E-04   -0.19664E-03  5484   0.437E-02    0.310E-02
RMM:   7    -0.413173570894E+03   -0.88151E-05   -0.34345E-04  5933   0.170E-02    0.189E-02
RMM:   8    -0.413173564501E+03    0.63928E-05   -0.64409E-05  5123   0.909E-03    0.786E-03
RMM:   9    -0.413173558358E+03    0.61431E-05   -0.87143E-06  3414   0.371E-03    0.400E-03
RMM:  10    -0.413173556144E+03    0.22134E-05   -0.18500E-06  2561   0.213E-03    0.260E-03
RMM:  11    -0.413173552375E+03    0.37692E-05   -0.11700E-06  2500   0.175E-03    0.146E-03
RMM:  12    -0.413173548936E+03    0.34393E-05   -0.64773E-07  2447   0.136E-03    0.516E-04
RMM:  13    -0.413173546856E+03    0.20801E-05   -0.32153E-07  2043   0.963E-04    0.293E-04
RMM:  14    -0.413173544784E+03    0.20717E-05   -0.18679E-07  1553   0.767E-04    0.194E-04
RMM:  15    -0.413173541829E+03    0.29555E-05   -0.14499E-07  1322   0.705E-04    0.120E-04
RMM:  16    -0.413173539205E+03    0.26238E-05   -0.11268E-07  1289   0.668E-04    0.123E-04
RMM:  17    -0.413173535963E+03    0.32420E-05   -0.10759E-07  1307   0.657E-04    0.699E-05
RMM:  18    -0.413173534247E+03    0.17159E-05   -0.58408E-08  1023   0.583E-04    0.359E-05
RMM:  19    -0.413173533291E+03    0.95584E-06   -0.31514E-08   855   0.547E-04
   22 T=    62. E= -.41286678E+03 F= -.41317353E+03 E0= -.41315159E+03  EK= 0.30676E+00 SP= 0.00E+00 SK= 0.00E+00
       N       E                     dE             d eps       ncg     rms          rms(c)
RMM:   1    -0.413171609751E+03    0.19245E-02   -0.96217E+00  4295   0.722E-01    0.910E-01
RMM:   2    -0.413177565392E+03   -0.59556E-02   -0.11738E-01  4287   0.940E-02    0.648E-01
RMM:   3    -0.413174853725E+03    0.27117E-02   -0.13427E-02  4902   0.498E-02    0.138E-01
RMM:   4    -0.413209710575E+03   -0.34857E-01   -0.37417E-02  5133   0.161E-01    0.777E-01
RMM:   5    -0.413174052332E+03    0.35658E-01   -0.17269E-02  4788   0.130E-01    0.516E-02
RMM:   6    -0.413174255960E+03   -0.20363E-03   -0.30043E-03  5759   0.533E-02    0.345E-02
RMM:   7    -0.413174251678E+03    0.42828E-05   -0.46801E-04  5669   0.201E-02    0.218E-02
RMM:   8    -0.413174239300E+03    0.12377E-04   -0.77975E-05  5172   0.947E-03    0.109E-02
RMM:   9    -0.413174231773E+03    0.75276E-05   -0.15172E-05  4141   0.443E-03    0.775E-03
RMM:  10    -0.413174226830E+03    0.49428E-05   -0.21565E-06  2582   0.228E-03    0.486E-03
RMM:  11    -0.413174223105E+03    0.37246E-05   -0.12295E-06  2508   0.178E-03    0.277E-03
RMM:  12    -0.413174216330E+03    0.67756E-05   -0.18496E-06  2569   0.209E-03    0.111E-03
RMM:  13    -0.413174213253E+03    0.30770E-05   -0.60126E-07  2378   0.138E-03    0.846E-04
RMM:  14    -0.413174213480E+03   -0.22717E-06   -0.26208E-07  1985   0.900E-04
   23 T=    63. E= -.41286649E+03 F= -.41317421E+03 E0= -.41315232E+03  EK= 0.30773E+00 SP= 0.00E+00 SK= 0.00E+00
       N       E                     dE             d eps       ncg     rms          rms(c)
RMM:   1    -0.413172903191E+03    0.13101E-02   -0.96312E+00  4294   0.735E-01    0.892E-01
RMM:   2    -0.413179643091E+03   -0.67399E-02   -0.11913E-01  4284   0.968E-02    0.653E-01
RMM:   3    -0.413176075908E+03    0.35672E-02   -0.13588E-02  4755   0.471E-02    0.102E-01
RMM:   4    -0.413198184475E+03   -0.22109E-01   -0.22773E-02  5130   0.126E-01    0.622E-01
RMM:   5    -0.413175680124E+03    0.22504E-01   -0.11079E-02  4803   0.103E-01    0.448E-02
RMM:   6    -0.413175807772E+03   -0.12765E-03   -0.19418E-03  5817   0.416E-02    0.274E-02
RMM:   7    -0.413175811984E+03   -0.42114E-05   -0.23788E-04  5632   0.154E-02    0.139E-02
RMM:   8    -0.413175808849E+03    0.31344E-05   -0.48044E-05  4957   0.713E-03    0.954E-03
RMM:   9    -0.413175804752E+03    0.40968E-05   -0.10525E-05  3798   0.368E-03    0.723E-03
RMM:  10    -0.413175803269E+03    0.14838E-05   -0.16294E-06  2542   0.216E-03    0.451E-03
RMM:  11    -0.413175801303E+03    0.19656E-05   -0.17667E-06  2552   0.207E-03    0.223E-03
RMM:  12    -0.413175798516E+03    0.27870E-05   -0.12958E-06  2502   0.181E-03    0.869E-04
RMM:  13    -0.413175797786E+03    0.72984E-06   -0.41316E-07  2229   0.114E-03
   24 T=    63. E= -.41286674E+03 F= -.41317580E+03 E0= -.41315395E+03  EK= 0.30906E+00 SP= 0.00E+00 SK= 0.00E+00
       N       E                     dE             d eps       ncg     rms          rms(c)
RMM:   1    -0.413174239681E+03    0.15588E-02   -0.97055E+00  4297   0.746E-01    0.907E-01
RMM:   2    -0.413180484763E+03   -0.62451E-02   -0.12004E-01  4281   0.100E-01    0.659E-01
RMM:   3    -0.413176893004E+03    0.35918E-02   -0.13742E-02  4652   0.472E-02    0.951E-02
RMM:   4    -0.413193054427E+03   -0.16161E-01   -0.16493E-02  5141   0.107E-01    0.534E-01
RMM:   5    -0.413176640391E+03    0.16414E-01   -0.81360E-03  4814   0.883E-02    0.427E-02
RMM:   6    -0.413176721744E+03   -0.81353E-04   -0.14675E-03  5818   0.355E-02    0.251E-02
RMM:   7    -0.413176719741E+03    0.20028E-05   -0.16268E-04  5520   0.130E-02    0.115E-02
RMM:   8    -0.413176714203E+03    0.55383E-05   -0.25064E-05  4472   0.523E-03    0.786E-03
RMM:   9    -0.413176711919E+03    0.22844E-05   -0.39637E-06  2789   0.255E-03    0.504E-03
RMM:  10    -0.413176710397E+03    0.15216E-05   -0.93864E-07  2479   0.162E-03    0.375E-03
RMM:  11    -0.413176705795E+03    0.46016E-05   -0.20438E-06  2567   0.233E-03    0.207E-03
RMM:  12    -0.413176703692E+03    0.21037E-05   -0.81845E-07  2427   0.155E-03    0.115E-03
RMM:  13    -0.413176703005E+03    0.68682E-06   -0.27626E-07  2086   0.945E-04
   25 T=    63. E= -.41286648E+03 F= -.41317670E+03 E0= -.41315491E+03  EK= 0.31022E+00 SP= 0.00E+00 SK= 0.00E+00
       N       E                     dE             d eps       ncg     rms          rms(c)
RMM:   1    -0.413175676438E+03    0.10273E-02   -0.97003E+00  4293   0.739E-01    0.919E-01
RMM:   2    -0.413181298040E+03   -0.56216E-02   -0.11872E-01  4280   0.982E-02    0.653E-01
RMM:   3    -0.413178285186E+03    0.30129E-02   -0.13525E-02  4652   0.468E-02    0.106E-01
RMM:   4    -0.413195187796E+03   -0.16903E-01   -0.17295E-02  5145   0.110E-01    0.546E-01
RMM:   5    -0.413178024153E+03    0.17164E-01   -0.86132E-03  4818   0.904E-02    0.441E-02
RMM:   6    -0.413178098215E+03   -0.74062E-04   -0.14998E-03  5820   0.362E-02    0.263E-02
RMM:   7    -0.413178090491E+03    0.77240E-05   -0.17389E-04  5493   0.138E-02    0.120E-02
RMM:   8    -0.413178083168E+03    0.73234E-05   -0.26153E-05  4518   0.541E-03    0.804E-03
RMM:   9    -0.413178077227E+03    0.59405E-05   -0.44993E-06  2883   0.266E-03    0.517E-03
RMM:  10    -0.413178074897E+03    0.23298E-05   -0.11622E-06  2492   0.178E-03    0.376E-03
RMM:  11    -0.413178065765E+03    0.91329E-05   -0.19241E-06  2555   0.229E-03    0.197E-03
RMM:  12    -0.413178060720E+03    0.50450E-05   -0.88729E-07  2434   0.160E-03    0.116E-03
RMM:  13    -0.413178059919E+03    0.80013E-06   -0.30045E-07  2174   0.100E-03
   26 T=    63. E= -.41286651E+03 F= -.41317806E+03 E0= -.41315631E+03  EK= 0.31155E+00 SP= 0.00E+00 SK= 0.00E+00
       N       E                     dE             d eps       ncg     rms          rms(c)
RMM:   1    -0.413177968930E+03    0.91789E-04   -0.96775E+00  4289   0.778E-01    0.897E-01
RMM:   2    -0.413183281079E+03   -0.53121E-02   -0.12075E-01  4277   0.103E-01    0.654E-01
RMM:   3    -0.413180005148E+03    0.32759E-02   -0.13658E-02  4574   0.490E-02    0.924E-02
RMM:   4    -0.413192798204E+03   -0.12793E-01   -0.13020E-02  5143   0.953E-02    0.476E-01
RMM:   5    -0.413179844912E+03    0.12953E-01   -0.65317E-03  4826   0.784E-02    0.415E-02
RMM:   6    -0.413179895141E+03   -0.50228E-04   -0.11524E-03  5843   0.313E-02    0.236E-02
RMM:   7    -0.413179895646E+03   -0.50495E-06   -0.14985E-04  5543   0.128E-02    0.125E-02
RMM:   8    -0.413179886725E+03    0.89207E-05   -0.27638E-05  4645   0.566E-03    0.767E-03
RMM:   9    -0.413179885318E+03    0.14067E-05   -0.58776E-06  3157   0.301E-03    0.601E-03
RMM:  10    -0.413179882193E+03    0.31256E-05   -0.12081E-06  2501   0.196E-03    0.338E-03
RMM:  11    -0.413179878518E+03    0.36744E-05   -0.11926E-06  2502   0.177E-03    0.173E-03
RMM:  12    -0.413179874701E+03    0.38173E-05   -0.72181E-07  2396   0.138E-03    0.736E-04
RMM:  13    -0.413179873580E+03    0.11206E-05   -0.28816E-07  2030   0.931E-04    0.455E-04
RMM:  14    -0.413179872623E+03    0.95749E-06   -0.13790E-07  1428   0.710E-04
   27 T=    64. E= -.41286676E+03 F= -.41317987E+03 E0= -.41315817E+03  EK= 0.31311E+00 SP= 0.00E+00 SK= 0.00E+00
       N       E                     dE             d eps       ncg     rms          rms(c)
RMM:   1    -0.413179458782E+03    0.41480E-03   -0.97828E+00  4293   0.774E-01    0.907E-01
RMM:   2    -0.413184557113E+03   -0.50983E-02   -0.12243E-01  4276   0.104E-01    0.665E-01
RMM:   3    -0.413181218624E+03    0.33385E-02   -0.14338E-02  4663   0.521E-02    0.967E-02
RMM:   4    -0.413200023433E+03   -0.18805E-01   -0.19182E-02  5137   0.116E-01    0.575E-01
RMM:   5    -0.413180935500E+03    0.19088E-01   -0.95582E-03  4819   0.949E-02    0.439E-02
RMM:   6    -0.413181024043E+03   -0.88543E-04   -0.16179E-03  5830   0.377E-02    0.267E-02
RMM:   7    -0.413181025697E+03   -0.16531E-05   -0.20030E-04  5511   0.145E-02    0.126E-02
RMM:   8    -0.413181019452E+03    0.62442E-05   -0.27888E-05  4532   0.563E-03    0.775E-03
RMM:   9    -0.413181018127E+03    0.13254E-05   -0.56110E-06  3013   0.285E-03    0.537E-03
RMM:  10    -0.413181016439E+03    0.16882E-05   -0.11367E-06  2506   0.179E-03    0.381E-03
RMM:  11    -0.413181013027E+03    0.34120E-05   -0.18465E-06  2546   0.222E-03    0.197E-03
RMM:  12    -0.413181010911E+03    0.21154E-05   -0.96213E-07  2462   0.162E-03    0.116E-03
RMM:  13    -0.413181010190E+03    0.72096E-06   -0.30384E-07  2176   0.100E-03
   28 T=    64. E= -.41286650E+03 F= -.41318101E+03 E0= -.41315936E+03  EK= 0.31451E+00 SP= 0.00E+00 SK= 0.00E+00
       N       E                     dE             d eps       ncg     rms          rms(c)
RMM:   1    -0.413181015049E+03   -0.41379E-05   -0.97870E+00  4292   0.767E-01    0.927E-01
RMM:   2    -0.413186428635E+03   -0.54136E-02   -0.12050E-01  4276   0.105E-01    0.660E-01
RMM:   3    -0.413183087907E+03    0.33407E-02   -0.13999E-02  4418   0.484E-02    0.945E-02
RMM:   4    -0.413188401854E+03   -0.53139E-02   -0.56497E-03  5157   0.628E-02    0.309E-01
RMM:   5    -0.413183058791E+03    0.53431E-02   -0.27715E-03  4835   0.511E-02    0.405E-02
RMM:   6    -0.413183083265E+03   -0.24473E-04   -0.67166E-04  5730   0.244E-02    0.263E-02
RMM:   7    -0.413183063516E+03    0.19748E-04   -0.22523E-04  5234   0.155E-02    0.163E-02
RMM:   8    -0.413183050626E+03    0.12890E-04   -0.16580E-05  4032   0.541E-03    0.672E-03
RMM:   9    -0.413183047268E+03    0.33584E-05   -0.27137E-06  2672   0.227E-03    0.447E-03
RMM:  10    -0.413183041414E+03    0.58538E-05   -0.13455E-06  2495   0.187E-03    0.237E-03
RMM:  11    -0.413183035711E+03    0.57028E-05   -0.75831E-07  2422   0.144E-03    0.111E-03
RMM:  12    -0.413183030721E+03    0.49906E-05   -0.42346E-07  2161   0.109E-03    0.472E-04
RMM:  13    -0.413183027370E+03    0.33512E-05   -0.24616E-07  1780   0.844E-04    0.274E-04
RMM:  14    -0.413183023399E+03    0.39703E-05   -0.13904E-07  1383   0.713E-04    0.174E-04
RMM:  15    -0.413183018185E+03    0.52142E-05   -0.11303E-07  1302   0.679E-04    0.918E-05
RMM:  16    -0.413183015792E+03    0.23928E-05   -0.62944E-08  1053   0.608E-04    0.738E-05
RMM:  17    -0.413183011153E+03    0.46390E-05   -0.84857E-08  1348   0.642E-04    0.493E-05
RMM:  18    -0.413183010115E+03    0.10384E-05   -0.31470E-08   842   0.535E-04    0.248E-05
RMM:  19    -0.413183009650E+03    0.46492E-06   -0.17080E-08   717   0.513E-04
   29 T=    64. E= -.41286667E+03 F= -.41318301E+03 E0= -.41316141E+03  EK= 0.31634E+00 SP= 0.00E+00 SK= 0.00E+00
       N       E                     dE             d eps       ncg     rms          rms(c)
RMM:   1    -0.413183219202E+03   -0.20909E-03   -0.97494E+00  4287   0.798E-01    0.907E-01
RMM:   2    -0.413188690495E+03   -0.54713E-02   -0.12205E-01  4272   0.113E-01    0.657E-01
RMM:   3    -0.413185031171E+03    0.36593E-02   -0.14013E-02  4538   0.536E-02    0.966E-02
RMM:   4    -0.413197640764E+03   -0.12610E-01   -0.12825E-02  5145   0.950E-02    0.473E-01
RMM:   5    -0.413184884242E+03    0.12757E-01   -0.64723E-03  4828   0.778E-02    0.420E-02
RMM:   6    -0.413184933827E+03   -0.49585E-04   -0.11527E-03  5840   0.315E-02    0.255E-02
RMM:   7    -0.413184938452E+03   -0.46254E-05   -0.22037E-04  5459   0.151E-02    0.162E-02
RMM:   8    -0.413184922822E+03    0.15631E-04   -0.33202E-05  4721   0.667E-03    0.789E-03
RMM:   9    -0.413184920952E+03    0.18692E-05   -0.64197E-06  3170   0.313E-03    0.589E-03
RMM:  10    -0.413184917509E+03    0.34433E-05   -0.14478E-06  2500   0.206E-03    0.328E-03
RMM:  11    -0.413184914130E+03    0.33788E-05   -0.96140E-07  2483   0.165E-03    0.169E-03
RMM:  12    -0.413184910397E+03    0.37333E-05   -0.75686E-07  2446   0.139E-03    0.902E-04
RMM:  13    -0.413184908797E+03    0.15998E-05   -0.29641E-07  2063   0.960E-04    0.395E-04
RMM:  14    -0.413184907471E+03    0.13265E-05   -0.15019E-07  1471   0.726E-04    0.260E-04
RMM:  15    -0.413184904818E+03    0.26532E-05   -0.10954E-07  1363   0.685E-04    0.113E-04
RMM:  16    -0.413184902619E+03    0.21983E-05   -0.65573E-08  1061   0.625E-04    0.105E-04
RMM:  17    -0.413184900997E+03    0.16227E-05   -0.41253E-08   898   0.586E-04    0.742E-05
RMM:  18    -0.413184897786E+03    0.32106E-05   -0.58680E-08  1081   0.611E-04    0.297E-05
RMM:  19    -0.413184897065E+03    0.72122E-06   -0.20974E-08   756   0.546E-04
   30 T=    65. E= -.41286663E+03 F= -.41318490E+03 E0= -.41316335E+03  EK= 0.31827E+00 SP= 0.00E+00 SK= 0.00E+00
       N       E                     dE             d eps       ncg     rms          rms(c)
RMM:   1    -0.413184817340E+03    0.80446E-04   -0.98660E+00  4292   0.798E-01    0.910E-01
RMM:   2    -0.413190933287E+03   -0.61159E-02   -0.12442E-01  4276   0.114E-01    0.670E-01
RMM:   3    -0.413186777327E+03    0.41560E-02   -0.15027E-02  4556   0.606E-02    0.912E-02
RMM:   4    -0.413202849357E+03   -0.16072E-01   -0.16240E-02  5136   0.107E-01    0.532E-01
RMM:   5    -0.413186549900E+03    0.16299E-01   -0.82176E-03  4815   0.876E-02    0.431E-02
RMM:   6    -0.413186620796E+03   -0.70896E-04   -0.14212E-03  5850   0.349E-02    0.261E-02
RMM:   7    -0.413186627001E+03   -0.62049E-05   -0.20333E-04  5549   0.145E-02    0.140E-02
RMM:   8    -0.413186617824E+03    0.91767E-05   -0.34035E-05  4753   0.634E-03    0.812E-03
RMM:   9    -0.413186617456E+03    0.36836E-06   -0.84768E-06  3566   0.342E-03
   31 T=    65. E= -.41286638E+03 F= -.41318662E+03 E0= -.41316512E+03  EK= 0.32023E+00 SP= 0.00E+00 SK= 0.00E+00
       N       E                     dE             d eps       ncg     rms          rms(c)
RMM:   1    -0.413188854890E+03   -0.22371E-02   -0.99126E+00  4293   0.812E-01    0.933E-01
RMM:   2    -0.413193122098E+03   -0.42672E-02   -0.12439E-01  4312   0.120E-01    0.668E-01
RMM:   3    -0.413193567464E+03   -0.44537E-03   -0.17596E-02  5042   0.868E-02    0.294E-01
RMM:   4    -0.413221888563E+03   -0.28321E-01   -0.45059E-02  5079   0.180E-01    0.743E-01
RMM:   5    -0.413189143618E+03    0.32745E-01   -0.13477E-02  4722   0.122E-01    0.579E-02
RMM:   6    -0.413189246362E+03   -0.10274E-03   -0.26593E-03  5711   0.491E-02    0.342E-02
RMM:   7    -0.413189248506E+03   -0.21443E-05   -0.42621E-04  5814   0.186E-02    0.219E-02
RMM:   8    -0.413189240662E+03    0.78435E-05   -0.81190E-05  5144   0.996E-03    0.976E-03
RMM:   9    -0.413189230982E+03    0.96803E-05   -0.12148E-05  3879   0.433E-03    0.488E-03
RMM:  10    -0.413189225962E+03    0.50202E-05   -0.26045E-06  2648   0.236E-03    0.323E-03
RMM:  11    -0.413189220015E+03    0.59468E-05   -0.11790E-06  2499   0.179E-03    0.169E-03
RMM:  12    -0.413189212614E+03    0.74012E-05   -0.82746E-07  2458   0.149E-03    0.567E-04
RMM:  13    -0.413189209115E+03    0.34989E-05   -0.42096E-07  2242   0.109E-03    0.354E-04
RMM:  14    -0.413189206831E+03    0.22839E-05   -0.22688E-07  1745   0.829E-04    0.267E-04
RMM:  15    -0.413189200760E+03    0.60709E-05   -0.17413E-07  1525   0.759E-04    0.198E-04
RMM:  16    -0.413189197476E+03    0.32847E-05   -0.10049E-07  1194   0.657E-04    0.171E-04
RMM:  17    -0.413189193364E+03    0.41121E-05   -0.86717E-08  1189   0.645E-04    0.101E-04
RMM:  18    -0.413189191268E+03    0.20954E-05   -0.58150E-08  1065   0.604E-04    0.483E-05
RMM:  19    -0.413189188586E+03    0.26818E-05   -0.51607E-08  1084   0.599E-04    0.333E-05
RMM:  20    -0.413189188299E+03    0.28759E-06   -0.22629E-08   786   0.543E-04
   32 T=    66. E= -.41286668E+03 F= -.41318919E+03 E0= -.41316774E+03  EK= 0.32251E+00 SP= 0.00E+00 SK= 0.00E+00
       N       E                     dE             d eps       ncg     rms          rms(c)
RMM:   1    -0.413190231914E+03   -0.10433E-02   -0.98728E+00  4297   0.821E-01    0.921E-01
RMM:   2    -0.413194850894E+03   -0.46190E-02   -0.12517E-01  4283   0.122E-01    0.664E-01
RMM:   3    -0.413191112976E+03    0.37379E-02   -0.14421E-02  4309   0.605E-02    0.898E-02
RMM:   4    -0.413192883462E+03   -0.17705E-02   -0.22503E-03  5150   0.395E-02    0.179E-01
RMM:   5    -0.413191140911E+03    0.17426E-02   -0.94313E-04  4813   0.303E-02    0.403E-02
RMM:   6    -0.413191166504E+03   -0.25593E-04   -0.46099E-04  5501   0.210E-02    0.299E-02
RMM:   7    -0.413191129283E+03    0.37220E-04   -0.21511E-04  4995   0.150E-02    0.167E-02
RMM:   8    -0.413191122741E+03    0.65423E-05   -0.23995E-05  4422   0.534E-03    0.602E-03
RMM:   9    -0.413191121046E+03    0.16952E-05   -0.25927E-06  2557   0.217E-03    0.349E-03
RMM:  10    -0.413191116036E+03    0.50103E-05   -0.86592E-07  2451   0.153E-03    0.181E-03
RMM:  11    -0.413191111442E+03    0.45941E-05   -0.52960E-07  2276   0.111E-03    0.675E-04
RMM:  12    -0.413191107413E+03    0.40282E-05   -0.27220E-07  1869   0.863E-04    0.256E-04
RMM:  13    -0.413191104177E+03    0.32358E-05   -0.14269E-07  1380   0.714E-04    0.214E-04
RMM:  14    -0.413191101180E+03    0.29971E-05   -0.79263E-08  1048   0.640E-04    0.138E-04
RMM:  15    -0.413191096050E+03    0.51304E-05   -0.93340E-08  1257   0.664E-04    0.938E-05
RMM:  16    -0.413191093419E+03    0.26311E-05   -0.50826E-08  1004   0.595E-04    0.929E-05
RMM:  17    -0.413191090908E+03    0.25111E-05   -0.37040E-08   906   0.568E-04    0.404E-05
RMM:  18    -0.413191090015E+03    0.89293E-06   -0.20841E-08   751   0.534E-04
   33 T=    66. E= -.41286651E+03 F= -.41319109E+03 E0= -.41316969E+03  EK= 0.32458E+00 SP= 0.00E+00 SK= 0.00E+00
       N       E                     dE             d eps       ncg     rms          rms(c)
RMM:   1    -0.413193991324E+03   -0.29004E-02   -0.99869E+00  4300   0.857E-01    0.915E-01
RMM:   2    -0.413197413954E+03   -0.34226E-02   -0.13001E-01  4277   0.128E-01    0.676E-01
RMM:   3    -0.413193457257E+03    0.39567E-02   -0.15181E-02  4279   0.654E-02    0.772E-02
RMM:   4    -0.413194513056E+03   -0.10558E-02   -0.15182E-03  5159   0.317E-02    0.139E-01
RMM:   5    -0.413193491114E+03    0.10219E-02   -0.56885E-04  4805   0.237E-02    0.395E-02
RMM:   6    -0.413193516267E+03   -0.25153E-04   -0.40089E-04  5455   0.192E-02    0.283E-02
RMM:   7    -0.413193486815E+03    0.29452E-04   -0.20028E-04  4924   0.144E-02    0.187E-02
RMM:   8    -0.413193479969E+03    0.68466E-05   -0.24733E-05  4214   0.510E-03    0.592E-03
RMM:   9    -0.413193479409E+03    0.55990E-06   -0.26546E-06  2521   0.214E-03
   34 T=    67. E= -.41286656E+03 F= -.41319348E+03 E0= -.41317213E+03  EK= 0.32692E+00 SP= 0.00E+00 SK= 0.00E+00
       N       E                     dE             d eps       ncg     rms          rms(c)
RMM:   1    -0.413207510303E+03   -0.14030E-01   -0.10150E+01  4303   0.937E-01    0.937E-01
RMM:   2    -0.413199772006E+03    0.77383E-02   -0.14412E-01  4273   0.134E-01    0.679E-01
RMM:   3    -0.413196148528E+03    0.36235E-02   -0.14028E-02  4365   0.632E-02    0.111E-01
RMM:   4    -0.413199525394E+03   -0.33769E-02   -0.40010E-03  5179   0.539E-02    0.246E-01
RMM:   5    -0.413196205548E+03    0.33198E-02   -0.17181E-03  4816   0.414E-02    0.421E-02
RMM:   6    -0.413196208113E+03   -0.25652E-05   -0.53066E-04  5593   0.234E-02    0.322E-02
RMM:   7    -0.413196185370E+03    0.22743E-04   -0.25512E-04  5042   0.155E-02    0.173E-02
RMM:   8    -0.413196176463E+03    0.89063E-05   -0.24614E-05  4573   0.563E-03    0.695E-03
RMM:   9    -0.413196174213E+03    0.22502E-05   -0.36186E-06  2631   0.227E-03    0.347E-03
RMM:  10    -0.413196167867E+03    0.63465E-05   -0.10941E-06  2476   0.172E-03    0.185E-03
RMM:  11    -0.413196162685E+03    0.51815E-05   -0.55188E-07  2310   0.118E-03    0.914E-04
RMM:  12    -0.413196156867E+03    0.58183E-05   -0.36529E-07  2037   0.991E-04    0.341E-04
RMM:  13    -0.413196152546E+03    0.43207E-05   -0.18730E-07  1468   0.762E-04    0.239E-04
RMM:  14    -0.413196147847E+03    0.46995E-05   -0.11372E-07  1067   0.672E-04    0.175E-04
RMM:  15    -0.413196140721E+03    0.71258E-05   -0.12633E-07  1292   0.695E-04    0.102E-04
RMM:  16    -0.413196138211E+03    0.25098E-05   -0.61980E-08   986   0.597E-04    0.840E-05
RMM:  17    -0.413196134946E+03    0.32651E-05   -0.51087E-08   956   0.578E-04    0.334E-05
RMM:  18    -0.413196133589E+03    0.13571E-05   -0.25504E-08   687   0.529E-04    0.233E-05
RMM:  19    -0.413196133076E+03    0.51288E-06   -0.15689E-08   578   0.513E-04
   35 T=    67. E= -.41286671E+03 F= -.41319613E+03 E0= -.41317482E+03  EK= 0.32942E+00 SP= 0.00E+00 SK= 0.00E+00
       N       E                     dE             d eps       ncg     rms          rms(c)
RMM:   1    -0.413196901736E+03   -0.76815E-03   -0.10009E+01  4301   0.871E-01    0.937E-01
RMM:   2    -0.413201697983E+03   -0.47962E-02   -0.12933E-01  4259   0.131E-01    0.672E-01
RMM:   3    -0.413198366082E+03    0.33319E-02   -0.14935E-02  4492   0.663E-02    0.104E-01
RMM:   4    -0.413210324594E+03   -0.11959E-01   -0.12117E-02  5166   0.927E-02    0.462E-01
RMM:   5    -0.413198293072E+03    0.12032E-01   -0.61010E-03  4812   0.765E-02    0.444E-02
RMM:   6    -0.413198307685E+03   -0.14613E-04   -0.12302E-03  5791   0.336E-02    0.305E-02
RMM:   7    -0.413198306106E+03    0.15789E-05   -0.31927E-04  5385   0.177E-02    0.194E-02
RMM:   8    -0.413198287823E+03    0.18283E-04   -0.36519E-05  4881   0.724E-03    0.890E-03
RMM:   9    -0.413198284985E+03    0.28379E-05   -0.63180E-06  3090   0.313E-03    0.580E-03
RMM:  10    -0.413198279485E+03    0.54998E-05   -0.16322E-06  2521   0.220E-03    0.306E-03
RMM:  11    -0.413198274036E+03    0.54487E-05   -0.11365E-06  2495   0.175E-03    0.156E-03
RMM:  12    -0.413198268195E+03    0.58407E-05   -0.72999E-07  2432   0.142E-03    0.802E-04
RMM:  13    -0.413198265332E+03    0.28632E-05   -0.33384E-07  2082   0.993E-04    0.397E-04
RMM:  14    -0.413198263048E+03    0.22842E-05   -0.16840E-07  1548   0.750E-04    0.250E-04
RMM:  15    -0.413198258946E+03    0.41018E-05   -0.10367E-07  1272   0.676E-04    0.114E-04
RMM:  16    -0.413198255540E+03    0.34064E-05   -0.65540E-08  1046   0.631E-04    0.838E-05
RMM:  17    -0.413198253156E+03    0.23841E-05   -0.44992E-08   944   0.600E-04    0.568E-05
RMM:  18    -0.413198248673E+03    0.44831E-05   -0.56232E-08  1184   0.626E-04    0.313E-05
RMM:  19    -0.413198247473E+03    0.11995E-05   -0.24457E-08   824   0.550E-04    0.230E-05
RMM:  20    -0.413198247017E+03    0.45566E-06   -0.13349E-08   692   0.531E-04
   36 T=    68. E= -.41286647E+03 F= -.41319825E+03 E0= -.41317698E+03  EK= 0.33178E+00 SP= 0.00E+00 SK= 0.00E+00
       N       E                     dE             d eps       ncg     rms          rms(c)
RMM:   1    -0.413206000148E+03   -0.77527E-02   -0.10132E+01  4303   0.945E-01    0.923E-01
RMM:   2    -0.413205488752E+03    0.51140E-03   -0.13916E-01  4260   0.135E-01    0.681E-01
RMM:   3    -0.413201386757E+03    0.41020E-02   -0.14946E-02  4591   0.633E-02    0.107E-01
RMM:   4    -0.413219739724E+03   -0.18353E-01   -0.18606E-02  5153   0.115E-01    0.569E-01
RMM:   5    -0.413201217726E+03    0.18522E-01   -0.94023E-03  4811   0.943E-02    0.460E-02
RMM:   6    -0.413201238319E+03   -0.20593E-04   -0.16667E-03  5830   0.387E-02    0.300E-02
RMM:   7    -0.413201253489E+03   -0.15170E-04   -0.32574E-04  5503   0.175E-02    0.191E-02
RMM:   8    -0.413201236918E+03    0.16570E-04   -0.51521E-05  4963   0.808E-03    0.912E-03
RMM:   9    -0.413201235863E+03    0.10551E-05   -0.99411E-06  3637   0.387E-03    0.625E-03
RMM:  10    -0.413201232980E+03    0.28831E-05   -0.17240E-06  2548   0.226E-03    0.346E-03
RMM:  11    -0.413201230525E+03    0.24549E-05   -0.10332E-06  2495   0.167E-03    0.190E-03
RMM:  12    -0.413201226498E+03    0.40276E-05   -0.11254E-06  2490   0.166E-03    0.986E-04
RMM:  13    -0.413201224485E+03    0.20127E-05   -0.41603E-07  2205   0.111E-03    0.517E-04
RMM:  14    -0.413201223717E+03    0.76810E-06   -0.19538E-07  1647   0.786E-04
   37 T=    68. E= -.41286675E+03 F= -.41320122E+03 E0= -.41318000E+03  EK= 0.33448E+00 SP= 0.00E+00 SK= 0.00E+00
       N       E                     dE             d eps       ncg     rms          rms(c)
RMM:   1    -0.413214071643E+03   -0.12847E-01   -0.10276E+01  4307   0.100E+00    0.940E-01
RMM:   2    -0.413208249521E+03    0.58221E-02   -0.15176E-01  4260   0.131E-01    0.688E-01
RMM:   3    -0.413204081913E+03    0.41676E-02   -0.14192E-02  4757   0.578E-02    0.142E-01
RMM:   4    -0.413236635841E+03   -0.32554E-01   -0.33467E-02  5149   0.153E-01    0.752E-01
RMM:   5    -0.413203646694E+03    0.32989E-01   -0.16674E-02  4804   0.125E-01    0.512E-02
RMM:   6    -0.413203712466E+03   -0.65772E-04   -0.27249E-03  5844   0.493E-02    0.329E-02
RMM:   7    -0.413203721575E+03   -0.91093E-05   -0.35748E-04  5652   0.181E-02    0.175E-02
RMM:   8    -0.413203712533E+03    0.90428E-05   -0.59937E-05  5002   0.810E-03    0.102E-02
RMM:   9    -0.413203711077E+03    0.14556E-05   -0.19810E-05  4507   0.486E-03    0.769E-03
RMM:  10    -0.413203705267E+03    0.58096E-05   -0.26021E-06  2654   0.262E-03    0.434E-03
RMM:  11    -0.413203702336E+03    0.29313E-05   -0.12806E-06  2500   0.184E-03    0.272E-03
RMM:  12    -0.413203694586E+03    0.77498E-05   -0.19395E-06  2555   0.223E-03    0.138E-03
RMM:  13    -0.413203690999E+03    0.35871E-05   -0.69875E-07  2403   0.147E-03    0.878E-04
RMM:  14    -0.413203690618E+03    0.38152E-06   -0.27030E-07  2051   0.934E-04
   38 T=    69. E= -.41286661E+03 F= -.41320369E+03 E0= -.41318251E+03  EK= 0.33708E+00 SP= 0.00E+00 SK= 0.00E+00
       N       E                     dE             d eps       ncg     rms          rms(c)
RMM:   1    -0.413206465997E+03   -0.27750E-02   -0.10180E+01  4307   0.969E-01    0.953E-01
RMM:   2    -0.413210639613E+03   -0.41736E-02   -0.13424E-01  4261   0.124E-01    0.682E-01
RMM:   3    -0.413206818425E+03    0.38212E-02   -0.15447E-02  4870   0.571E-02    0.143E-01
RMM:   4    -0.413243878553E+03   -0.37060E-01   -0.39072E-02  5138   0.165E-01    0.801E-01
RMM:   5    -0.413206174750E+03    0.37704E-01   -0.18762E-02  4797   0.134E-01    0.542E-02
RMM:   6    -0.413206265075E+03   -0.90325E-04   -0.31386E-03  5830   0.525E-02    0.345E-02
RMM:   7    -0.413206275229E+03   -0.10155E-04   -0.40170E-04  5694   0.189E-02    0.186E-02
RMM:   8    -0.413206263844E+03    0.11386E-04   -0.63508E-05  5020   0.826E-03    0.106E-02
RMM:   9    -0.413206261209E+03    0.26350E-05   -0.22037E-05  4585   0.503E-03    0.805E-03
RMM:  10    -0.413206253164E+03    0.80446E-05   -0.29896E-06  2678   0.275E-03    0.452E-03
RMM:  11    -0.413206248748E+03    0.44162E-05   -0.14093E-06  2502   0.193E-03    0.282E-03
RMM:  12    -0.413206237526E+03    0.11222E-04   -0.19644E-06  2554   0.226E-03    0.137E-03
RMM:  13    -0.413206232407E+03    0.51194E-05   -0.72281E-07  2425   0.151E-03    0.886E-04
RMM:  14    -0.413206231906E+03    0.50140E-06   -0.28387E-07  2108   0.960E-04
   39 T=    69. E= -.41286648E+03 F= -.41320623E+03 E0= -.41318509E+03  EK= 0.33975E+00 SP= 0.00E+00 SK= 0.00E+00
       N       E                     dE             d eps       ncg     rms          rms(c)
RMM:   1    -0.413223602013E+03   -0.17370E-01   -0.10334E+01  4309   0.110E+00    0.931E-01
RMM:   2    -0.413214162047E+03    0.94400E-02   -0.15757E-01  4262   0.133E-01    0.688E-01
RMM:   3    -0.413210189725E+03    0.39723E-02   -0.14232E-02  4940   0.602E-02    0.179E-01
RMM:   4    -0.413259563045E+03   -0.49373E-01   -0.53628E-02  5132   0.193E-01    0.921E-01
RMM:   5    -0.413209104604E+03    0.50458E-01   -0.24876E-02  4788   0.154E-01    0.586E-02
RMM:   6    -0.413209255375E+03   -0.15077E-03   -0.40815E-03  5829   0.598E-02    0.362E-02
RMM:   7    -0.413209268562E+03   -0.13187E-04   -0.49060E-04  5762   0.203E-02    0.199E-02
RMM:   8    -0.413209269075E+03   -0.51306E-06   -0.92625E-05  5182   0.947E-03    0.125E-02
RMM:   9    -0.413209259617E+03    0.94583E-05   -0.26894E-05  4688   0.562E-03    0.773E-03
RMM:  10    -0.413209255374E+03    0.42428E-05   -0.42335E-06  2805   0.297E-03    0.465E-03
RMM:  11    -0.413209252039E+03    0.33347E-05   -0.16970E-06  2509   0.213E-03    0.284E-03
RMM:  12    -0.413209244416E+03    0.76227E-05   -0.18531E-06  2537   0.221E-03    0.108E-03
RMM:  13    -0.413209240031E+03    0.43858E-05   -0.75267E-07  2438   0.151E-03    0.859E-04
RMM:  14    -0.413209239716E+03    0.31426E-06   -0.30632E-07  2139   0.985E-04
   40 T=    70. E= -.41286668E+03 F= -.41320924E+03 E0= -.41318813E+03  EK= 0.34256E+00 SP= 0.00E+00 SK= 0.00E+00
       N       E                     dE             d eps       ncg     rms          rms(c)
RMM:   1    -0.413222337823E+03   -0.13098E-01   -0.10416E+01  4311   0.112E+00    0.947E-01
RMM:   2    -0.413216316356E+03    0.60215E-02   -0.14537E-01  4264   0.139E-01    0.697E-01
RMM:   3    -0.413212773674E+03    0.35427E-02   -0.16621E-02  4985   0.662E-02    0.189E-01
RMM:   4    -0.413262484670E+03   -0.49711E-01   -0.56796E-02  5132   0.199E-01    0.927E-01
RMM:   5    -0.413211145510E+03    0.51339E-01   -0.24652E-02  4787   0.155E-01    0.596E-02
RMM:   6    -0.413211305185E+03   -0.15967E-03   -0.41433E-03  5816   0.602E-02    0.362E-02
RMM:   7    -0.413211321309E+03   -0.16124E-04   -0.50876E-04  5778   0.207E-02    0.209E-02
RMM:   8    -0.413211323684E+03   -0.23745E-05   -0.10869E-04  5225   0.103E-02    0.136E-02
RMM:   9    -0.413211312112E+03    0.11571E-04   -0.26362E-05  4701   0.582E-03    0.744E-03
RMM:  10    -0.413211308304E+03    0.38084E-05   -0.44951E-06  2841   0.298E-03    0.451E-03
RMM:  11    -0.413211305325E+03    0.29785E-05   -0.15185E-06  2499   0.207E-03    0.273E-03
RMM:  12    -0.413211298675E+03    0.66498E-05   -0.16507E-06  2532   0.209E-03    0.106E-03
RMM:  13    -0.413211294390E+03    0.42852E-05   -0.71065E-07  2437   0.146E-03    0.742E-04
RMM:  14    -0.413211293842E+03    0.54777E-06   -0.30063E-07  2108   0.968E-04
   41 T=    70. E= -.41286630E+03 F= -.41321129E+03 E0= -.41319022E+03  EK= 0.34499E+00 SP= 0.00E+00 SK= 0.00E+00
       N       E                     dE             d eps       ncg     rms          rms(c)
RMM:   1    -0.413221419184E+03   -0.10125E-01   -0.10384E+01  4311   0.115E+00    0.967E-01
RMM:   2    -0.413218318585E+03    0.31006E-02   -0.14385E-01  4295   0.135E-01    0.692E-01
RMM:   3    -0.413216722289E+03    0.15963E-02   -0.17620E-02  5060   0.742E-02    0.253E-01
RMM:   4    -0.413258984538E+03   -0.42262E-01   -0.55624E-02  5097   0.198E-01    0.873E-01
RMM:   5    -0.413213753386E+03    0.45231E-01   -0.20502E-02  4759   0.145E-01    0.614E-02
RMM:   6    -0.413213857210E+03   -0.10382E-03   -0.36057E-03  5779   0.567E-02    0.370E-02
RMM:   7    -0.413213865763E+03   -0.85536E-05   -0.49791E-04  5742   0.207E-02    0.226E-02
RMM:   8    -0.413213864930E+03    0.83353E-06   -0.13114E-04  5230   0.116E-02    0.139E-02
RMM:   9    -0.413213849461E+03    0.15469E-04   -0.22470E-05  4528   0.588E-03    0.623E-03
RMM:  10    -0.413213843410E+03    0.60509E-05   -0.50752E-06  2983   0.291E-03    0.386E-03
RMM:  11    -0.413213838282E+03    0.51282E-05   -0.12752E-06  2496   0.195E-03    0.220E-03
RMM:  12    -0.413213828788E+03    0.94936E-05   -0.10550E-06  2475   0.176E-03    0.848E-04
RMM:  13    -0.413213822942E+03    0.58464E-05   -0.49913E-07  2362   0.124E-03    0.486E-04
RMM:  14    -0.413213821496E+03    0.14453E-05   -0.24714E-07  1947   0.877E-04    0.340E-04
RMM:  15    -0.413213818242E+03    0.32546E-05   -0.13258E-07  1447   0.709E-04    0.177E-04
RMM:  16    -0.413213811494E+03    0.67479E-05   -0.10795E-07  1366   0.693E-04    0.200E-04
RMM:  17    -0.413213808986E+03    0.25074E-05   -0.55715E-08   999   0.609E-04    0.119E-04
RMM:  18    -0.413213804137E+03    0.48491E-05   -0.63869E-08  1293   0.642E-04    0.997E-05
RMM:  19    -0.413213801800E+03    0.23371E-05   -0.38006E-08  1044   0.577E-04    0.526E-05
RMM:  20    -0.413213800665E+03    0.11350E-05   -0.22958E-08   863   0.544E-04    0.256E-05
RMM:  21    -0.413213800385E+03    0.28055E-06   -0.13922E-08   738   0.523E-04
   42 T=    71. E= -.41286643E+03 F= -.41321380E+03 E0= -.41319276E+03  EK= 0.34737E+00 SP= 0.00E+00 SK= 0.00E+00
       N       E                     dE             d eps       ncg     rms          rms(c)
RMM:   1    -0.413246720270E+03   -0.32920E-01   -0.10567E+01  4312   0.133E+00    0.943E-01
RMM:   2    -0.413220504626E+03    0.26216E-01   -0.17493E-01  4304   0.151E-01    0.695E-01
RMM:   3    -0.413220099841E+03    0.40478E-03   -0.16341E-02  5070   0.811E-02    0.317E-01
RMM:   4    -0.413260407896E+03   -0.40308E-01   -0.58885E-02  5095   0.205E-01    0.869E-01
RMM:   5    -0.413215762581E+03    0.44645E-01   -0.19755E-02  4735   0.145E-01    0.646E-02
RMM:   6    -0.413215841312E+03   -0.78731E-04   -0.35097E-03  5734   0.561E-02    0.369E-02
RMM:   7    -0.413215850975E+03   -0.96634E-05   -0.52380E-04  5797   0.207E-02    0.246E-02
RMM:   8    -0.413215849660E+03    0.13147E-05   -0.13442E-04  5196   0.120E-02    0.130E-02
RMM:   9    -0.413215837885E+03    0.11776E-04   -0.22268E-05  4534   0.592E-03    0.513E-03
RMM:  10    -0.413215834746E+03    0.31388E-05   -0.48525E-06  2920   0.275E-03    0.327E-03
RMM:  11    -0.413215831140E+03    0.36060E-05   -0.13549E-06  2498   0.192E-03    0.180E-03
RMM:  12    -0.413215825899E+03    0.52412E-05   -0.81222E-07  2459   0.153E-03    0.682E-04
RMM:  13    -0.413215822623E+03    0.32754E-05   -0.40639E-07  2177   0.108E-03    0.324E-04
RMM:  14    -0.413215820570E+03    0.20530E-05   -0.21878E-07  1739   0.828E-04    0.220E-04
RMM:  15    -0.413215817022E+03    0.35485E-05   -0.13988E-07  1364   0.719E-04    0.111E-04
RMM:  16    -0.413215814263E+03    0.27591E-05   -0.89957E-08  1150   0.662E-04    0.876E-05
RMM:  17    -0.413215811952E+03    0.23104E-05   -0.66311E-08  1110   0.638E-04    0.555E-05
RMM:  18    -0.413215809184E+03    0.27684E-05   -0.56462E-08  1133   0.627E-04    0.349E-05
RMM:  19    -0.413215807303E+03    0.18814E-05   -0.38203E-08  1026   0.592E-04    0.243E-05
RMM:  20    -0.413215806655E+03    0.64796E-06   -0.19977E-08   804   0.553E-04
   43 T=    71. E= -.41286648E+03 F= -.41321581E+03 E0= -.41319479E+03  EK= 0.34932E+00 SP= 0.00E+00 SK= 0.00E+00
       N       E                     dE             d eps       ncg     rms          rms(c)
RMM:   1    -0.413225876683E+03   -0.10069E-01   -0.10439E+01  4312   0.127E+00    0.949E-01
RMM:   2    -0.413222000594E+03    0.38761E-02   -0.15234E-01  4311   0.155E-01    0.705E-01
RMM:   3    -0.413222819357E+03   -0.81876E-03   -0.20567E-02  5071   0.930E-02    0.337E-01
RMM:   4    -0.413255704650E+03   -0.32885E-01   -0.55354E-02  5070   0.200E-01    0.807E-01
RMM:   5    -0.413217016192E+03    0.38688E-01   -0.15981E-02  4705   0.133E-01    0.612E-02
RMM:   6    -0.413217068758E+03   -0.52566E-04   -0.30082E-03  5719   0.518E-02    0.352E-02
RMM:   7    -0.413217072691E+03   -0.39330E-05   -0.45813E-04  5736   0.198E-02    0.231E-02
RMM:   8    -0.413217071432E+03    0.12586E-05   -0.12150E-04  5164   0.115E-02    0.120E-02
RMM:   9    -0.413217061587E+03    0.98452E-05   -0.18595E-05  4379   0.554E-03    0.494E-03
RMM:  10    -0.413217059237E+03    0.23502E-05   -0.39289E-06  2791   0.258E-03    0.307E-03
RMM:  11    -0.413217056583E+03    0.26541E-05   -0.12651E-06  2493   0.186E-03    0.165E-03
RMM:  12    -0.413217052532E+03    0.40503E-05   -0.81875E-07  2452   0.150E-03    0.675E-04
RMM:  13    -0.413217049991E+03    0.25410E-05   -0.40423E-07  2131   0.107E-03    0.305E-04
RMM:  14    -0.413217048269E+03    0.17228E-05   -0.21874E-07  1661   0.812E-04    0.202E-04
RMM:  15    -0.413217044700E+03    0.35688E-05   -0.15575E-07  1371   0.728E-04    0.125E-04
RMM:  16    -0.413217042890E+03    0.18098E-05   -0.91649E-08  1114   0.656E-04    0.868E-05
RMM:  17    -0.413217040678E+03    0.22116E-05   -0.73295E-08  1123   0.642E-04    0.500E-05
RMM:  18    -0.413217038266E+03    0.24124E-05   -0.61761E-08  1165   0.630E-04    0.349E-05
RMM:  19    -0.413217036722E+03    0.15445E-05   -0.39259E-08   998   0.586E-04    0.253E-05
RMM:  20    -0.413217035983E+03    0.73812E-06   -0.22972E-08   800   0.549E-04
   44 T=    71. E= -.41286632E+03 F= -.41321704E+03 E0= -.41319605E+03  EK= 0.35072E+00 SP= 0.00E+00 SK= 0.00E+00
       N       E                     dE             d eps       ncg     rms          rms(c)
RMM:   1    -0.413260968661E+03   -0.43932E-01   -0.10734E+01  4312   0.149E+00    0.972E-01
RMM:   2    -0.413222931610E+03    0.38037E-01   -0.16959E-01  4324   0.165E-01    0.702E-01
RMM:   3    -0.413227159151E+03   -0.42275E-02   -0.21547E-02  5109   0.104E-01    0.423E-01
RMM:   4    -0.413246188178E+03   -0.19029E-01   -0.48377E-02  5053   0.189E-01    0.692E-01
RMM:   5    -0.413218432638E+03    0.27756E-01   -0.10734E-02  4668   0.115E-01    0.608E-02
RMM:   6    -0.413218415216E+03    0.17423E-04   -0.21380E-03  5617   0.447E-02    0.354E-02
RMM:   7    -0.413218415133E+03    0.82731E-07   -0.37740E-04  5642   0.187E-02    0.233E-02
RMM:   8    -0.413218408603E+03    0.65300E-05   -0.12164E-04  5088   0.117E-02    0.110E-02
RMM:   9    -0.413218395984E+03    0.12619E-04   -0.16178E-05  4331   0.551E-03    0.447E-03
RMM:  10    -0.413218392176E+03    0.38084E-05   -0.31394E-06  2748   0.237E-03    0.264E-03
RMM:  11    -0.413218386550E+03    0.56261E-05   -0.11831E-06  2480   0.180E-03    0.144E-03
RMM:  12    -0.413218380537E+03    0.60125E-05   -0.63834E-07  2431   0.137E-03    0.653E-04
RMM:  13    -0.413218376828E+03    0.37090E-05   -0.30913E-07  1949   0.954E-04    0.305E-04
RMM:  14    -0.413218373456E+03    0.33722E-05   -0.17381E-07  1503   0.753E-04    0.174E-04
RMM:  15    -0.413218368489E+03    0.49666E-05   -0.12568E-07  1287   0.700E-04    0.121E-04
RMM:  16    -0.413218365486E+03    0.30030E-05   -0.82124E-08  1121   0.648E-04    0.887E-05
RMM:  17    -0.413218360741E+03    0.47454E-05   -0.82975E-08  1325   0.663E-04    0.622E-05
RMM:  18    -0.413218358686E+03    0.20553E-05   -0.46858E-08  1058   0.585E-04    0.458E-05
RMM:  19    -0.413218357032E+03    0.16534E-05   -0.31240E-08   915   0.557E-04    0.216E-05
RMM:  20    -0.413218356561E+03    0.47109E-06   -0.17782E-08   757   0.529E-04
   45 T=    72. E= -.41286672E+03 F= -.41321836E+03 E0= -.41319739E+03  EK= 0.35163E+00 SP= 0.00E+00 SK= 0.00E+00
       N       E                     dE             d eps       ncg     rms          rms(c)
RMM:   1    -0.413250842858E+03   -0.32486E-01   -0.10508E+01  4311   0.153E+00    0.954E-01
RMM:   2    -0.413222722821E+03    0.28120E-01   -0.16921E-01  4350   0.177E-01    0.697E-01
RMM:   3    -0.413229438330E+03   -0.67155E-02   -0.23261E-02  5110   0.115E-01    0.476E-01
RMM:   4    -0.413240773434E+03   -0.11335E-01   -0.45782E-02  5035   0.186E-01    0.628E-01
RMM:   5    -0.413218117675E+03    0.22656E-01   -0.82369E-03  4622   0.106E-01    0.594E-02
RMM:   6    -0.413218077914E+03    0.39761E-04   -0.17287E-03  5497   0.405E-02    0.338E-02
RMM:   7    -0.413218078016E+03   -0.10241E-06   -0.32224E-04  5594   0.175E-02    0.227E-02
RMM:   8    -0.413218069907E+03    0.81086E-05   -0.12686E-04  5077   0.118E-02    0.106E-02
RMM:   9    -0.413218057599E+03    0.12309E-04   -0.15458E-05  4295   0.549E-03    0.429E-03
RMM:  10    -0.413218054323E+03    0.32758E-05   -0.28397E-06  2715   0.227E-03    0.248E-03
RMM:  11    -0.413218048924E+03    0.53990E-05   -0.11812E-06  2481   0.178E-03    0.133E-03
RMM:  12    -0.413218043876E+03    0.50481E-05   -0.59593E-07  2409   0.132E-03    0.668E-04
RMM:  13    -0.413218040346E+03    0.35298E-05   -0.28707E-07  1873   0.919E-04    0.316E-04
RMM:  14    -0.413218036894E+03    0.34525E-05   -0.16151E-07  1399   0.730E-04    0.171E-04
RMM:  15    -0.413218032635E+03    0.42583E-05   -0.11766E-07  1245   0.684E-04    0.117E-04
RMM:  16    -0.413218029724E+03    0.29111E-05   -0.78107E-08  1099   0.637E-04    0.915E-05
RMM:  17    -0.413218024943E+03    0.47818E-05   -0.84957E-08  1341   0.659E-04    0.679E-05
RMM:  18    -0.413218023215E+03    0.17277E-05   -0.41410E-08   978   0.569E-04    0.455E-05
RMM:  19    -0.413218021806E+03    0.14092E-05   -0.30493E-08   897   0.545E-04    0.250E-05
RMM:  20    -0.413218021266E+03    0.53927E-06   -0.17261E-08   738   0.518E-04
   46 T=    72. E= -.41286662E+03 F= -.41321802E+03 E0= -.41319707E+03  EK= 0.35140E+00 SP= 0.00E+00 SK= 0.00E+00
       N       E                     dE             d eps       ncg     rms          rms(c)
RMM:   1    -0.413233441667E+03   -0.15420E-01   -0.10338E+01  4312   0.152E+00    0.943E-01
RMM:   2    -0.413221963043E+03    0.11479E-01   -0.16239E-01  4371   0.183E-01    0.706E-01
RMM:   3    -0.413230855694E+03   -0.88927E-02   -0.26681E-02  5102   0.127E-01    0.514E-01
RMM:   4    -0.413238369464E+03   -0.75138E-02   -0.47344E-02  5023   0.191E-01    0.606E-01
RMM:   5    -0.413216957108E+03    0.21412E-01   -0.72685E-03  4599   0.103E-01    0.586E-02
RMM:   6    -0.413216902254E+03    0.54854E-04   -0.15557E-03  5431   0.386E-02    0.319E-02
RMM:   7    -0.413216903912E+03   -0.16574E-05   -0.28872E-04  5581   0.167E-02    0.216E-02
RMM:   8    -0.413216898281E+03    0.56312E-05   -0.12950E-04  5081   0.118E-02    0.103E-02
RMM:   9    -0.413216887147E+03    0.11134E-04   -0.14925E-05  4242   0.544E-03    0.421E-03
RMM:  10    -0.413216885015E+03    0.21316E-05   -0.28446E-06  2705   0.226E-03    0.242E-03
RMM:  11    -0.413216881315E+03    0.37002E-05   -0.12600E-06  2496   0.180E-03    0.126E-03
RMM:  12    -0.413216878054E+03    0.32612E-05   -0.60273E-07  2384   0.132E-03    0.683E-04
RMM:  13    -0.413216875337E+03    0.27167E-05   -0.29986E-07  1833   0.930E-04    0.315E-04
RMM:  14    -0.413216872671E+03    0.26662E-05   -0.17119E-07  1386   0.738E-04    0.168E-04
RMM:  15    -0.413216869663E+03    0.30085E-05   -0.12450E-07  1251   0.689E-04    0.111E-04
RMM:  16    -0.413216867556E+03    0.21062E-05   -0.85354E-08  1151   0.642E-04    0.879E-05
RMM:  17    -0.413216863682E+03    0.38746E-05   -0.92674E-08  1359   0.669E-04    0.605E-05
RMM:  18    -0.413216862408E+03    0.12742E-05   -0.40796E-08   917   0.561E-04    0.397E-05
RMM:  19    -0.413216861306E+03    0.11017E-05   -0.26855E-08   826   0.540E-04    0.241E-05
RMM:  20    -0.413216860548E+03    0.75791E-06   -0.19536E-08   760   0.526E-04
   47 T=    71. E= -.41286676E+03 F= -.41321686E+03 E0= -.41319592E+03  EK= 0.35010E+00 SP= 0.00E+00 SK= 0.00E+00
       N       E                     dE             d eps       ncg     rms          rms(c)
RMM:   1    -0.413241502419E+03   -0.24641E-01   -0.10310E+01  4307   0.167E+00    0.961E-01
RMM:   2    -0.413219347299E+03    0.22155E-01   -0.16839E-01  4416   0.197E-01    0.703E-01
RMM:   3    -0.413235356762E+03   -0.16009E-01   -0.31675E-02  5135   0.145E-01    0.626E-01
RMM:   4    -0.413228097456E+03    0.72593E-02   -0.43544E-02  4984   0.186E-01    0.490E-01
RMM:   5    -0.413214627646E+03    0.13470E-01   -0.46445E-03  4542   0.904E-02    0.587E-02
RMM:   6    -0.413214514028E+03    0.11362E-03   -0.77391E-04  4948   0.309E-02    0.310E-02
RMM:   7    -0.413214506883E+03    0.71453E-05   -0.17805E-04  5710   0.131E-02    0.139E-02
RMM:   8    -0.413214511038E+03   -0.41558E-05   -0.94368E-05  5261   0.986E-03    0.117E-02
RMM:   9    -0.413214496417E+03    0.14622E-04   -0.22302E-05  4576   0.580E-03    0.455E-03
RMM:  10    -0.413214494006E+03    0.24104E-05   -0.30804E-06  2709   0.247E-03    0.243E-03
RMM:  11    -0.413214488343E+03    0.56631E-05   -0.16440E-06  2471   0.205E-03    0.141E-03
RMM:  12    -0.413214484515E+03    0.38279E-05   -0.67113E-07  2383   0.144E-03    0.848E-04
RMM:  13    -0.413214480407E+03    0.41084E-05   -0.31446E-07  1940   0.100E-03    0.453E-04
RMM:  14    -0.413214475952E+03    0.44553E-05   -0.16575E-07  1596   0.749E-04    0.271E-04
RMM:  15    -0.413214471998E+03    0.39541E-05   -0.92071E-08  1040   0.614E-04    0.141E-04
RMM:  16    -0.413214469151E+03    0.28469E-05   -0.69510E-08  1020   0.594E-04    0.111E-04
RMM:  17    -0.413214465143E+03    0.40079E-05   -0.69338E-08  1117   0.614E-04    0.816E-05
RMM:  18    -0.413214462856E+03    0.22870E-05   -0.38996E-08   920   0.568E-04    0.614E-05
RMM:  19    -0.413214461591E+03    0.12650E-05   -0.22114E-08   728   0.523E-04    0.386E-05
RMM:  20    -0.413214460609E+03    0.98161E-06   -0.18973E-08   730   0.515E-04
   48 T=    71. E= -.41286701E+03 F= -.41321446E+03 E0= -.41319353E+03  EK= 0.34745E+00 SP= 0.00E+00 SK= 0.00E+00
       N       E                     dE             d eps       ncg     rms          rms(c)
RMM:   1    -0.413240359093E+03   -0.25898E-01   -0.10104E+01  4306   0.179E+00    0.950E-01
RMM:   2    -0.413214320864E+03    0.26038E-01   -0.16576E-01  4481   0.207E-01    0.692E-01
RMM:   3    -0.413238439923E+03   -0.24119E-01   -0.37969E-02  5151   0.164E-01    0.728E-01
RMM:   4    -0.413218625142E+03    0.19815E-01   -0.42356E-02  4952   0.187E-01    0.403E-01
RMM:   5    -0.413209940187E+03    0.86850E-02   -0.39099E-03  4605   0.870E-02    0.636E-02
RMM:   6    -0.413209759381E+03    0.18081E-03   -0.43546E-04  4670   0.287E-02    0.330E-02
RMM:   7    -0.413209777057E+03   -0.17676E-04   -0.31479E-04  5754   0.185E-02    0.245E-02
RMM:   8    -0.413209742887E+03    0.34170E-04   -0.10297E-04  5008   0.116E-02    0.982E-03
RMM:   9    -0.413209737599E+03    0.52882E-05   -0.21783E-05  5148   0.589E-03    0.490E-03
RMM:  10    -0.413209733726E+03    0.38721E-05   -0.25116E-06  2658   0.247E-03    0.266E-03
RMM:  11    -0.413209727994E+03    0.57320E-05   -0.15713E-06  2500   0.205E-03    0.196E-03
RMM:  12    -0.413209724206E+03    0.37885E-05   -0.46816E-07  2412   0.128E-03    0.103E-03
RMM:  13    -0.413209720077E+03    0.41291E-05   -0.26016E-07  2047   0.883E-04    0.488E-04
RMM:  14    -0.413209714659E+03    0.54177E-05   -0.21947E-07  1792   0.799E-04    0.349E-04
RMM:  15    -0.413209709662E+03    0.49972E-05   -0.11544E-07  1153   0.648E-04    0.151E-04
RMM:  16    -0.413209706788E+03    0.28743E-05   -0.69802E-08  1034   0.600E-04    0.882E-05
RMM:  17    -0.413209702524E+03    0.42637E-05   -0.73099E-08  1204   0.625E-04    0.685E-05
RMM:  18    -0.413209700559E+03    0.19649E-05   -0.40828E-08   992   0.559E-04    0.570E-05
RMM:  19    -0.413209699004E+03    0.15553E-05   -0.28417E-08   895   0.528E-04    0.336E-05
RMM:  20    -0.413209697818E+03    0.11856E-05   -0.21664E-08   850   0.516E-04    0.234E-05
RMM:  21    -0.413209697510E+03    0.30801E-06   -0.12169E-08   691   0.483E-04
   49 T=    70. E= -.41286684E+03 F= -.41320970E+03 E0= -.41318877E+03  EK= 0.34286E+00 SP= 0.00E+00 SK= 0.00E+00
       N       E                     dE             d eps       ncg     rms          rms(c)
RMM:   1    -0.413231442525E+03   -0.21745E-01   -0.98786E+00  4306   0.187E+00    0.922E-01
RMM:   2    -0.413208694102E+03    0.22748E-01   -0.16269E-01  4518   0.218E-01    0.692E-01
RMM:   3    -0.413235764231E+03   -0.27070E-01   -0.40787E-02  5152   0.174E-01    0.766E-01
[...]
RMM:  17    -0.413159705366E+03   -0.16948E-05   -0.14445E-07  1304   0.654E-04    0.647E-05
RMM:  18    -0.413159706139E+03   -0.77268E-06   -0.83600E-08  1001   0.576E-04
  137 T=    60. E= -.41286540E+03 F= -.41315971E+03 E0= -.41313898E+03  EK= 0.29430E+00 SP= 0.00E+00 SK= 0.00E+00
       N       E                     dE             d eps       ncg     rms          rms(c)
RMM:   1    -0.413165166159E+03   -0.54608E-02   -0.70396E+00  4264   0.700E-01    0.877E-01
RMM:   2    -0.413165329096E+03   -0.16294E-03   -0.85997E-02  4318   0.840E-02    0.635E-01
RMM:   3    -0.413163109760E+03    0.22193E-02   -0.30333E-02  5063   0.729E-02    0.242E-01
RMM:   4    -0.413186836104E+03   -0.23726E-01   -0.35150E-02  5092   0.159E-01    0.678E-01
RMM:   5    -0.413160147790E+03    0.26688E-01   -0.11991E-02  4742   0.114E-01    0.563E-02
RMM:   6    -0.413160144416E+03    0.33741E-05   -0.21509E-03  5544   0.455E-02    0.317E-02
RMM:   7    -0.413160169077E+03   -0.24661E-04   -0.37308E-04  5872   0.173E-02    0.202E-02
RMM:   8    -0.413160169229E+03   -0.15107E-06   -0.67530E-05  5238   0.918E-03    0.945E-03
RMM:   9    -0.413160169522E+03   -0.29305E-06   -0.86377E-06  3299   0.371E-03
  138 T=    60. E= -.41286558E+03 F= -.41316017E+03 E0= -.41313945E+03  EK= 0.29459E+00 SP= 0.00E+00 SK= 0.00E+00
       N       E                     dE             d eps       ncg     rms          rms(c)
RMM:   1    -0.413163924529E+03   -0.37553E-02   -0.71575E+00  4266   0.710E-01    0.871E-01
RMM:   2    -0.413164692207E+03   -0.76768E-03   -0.87195E-02  4323   0.852E-02    0.628E-01
RMM:   3    -0.413166166416E+03   -0.14742E-02   -0.30224E-02  5140   0.900E-02    0.343E-01
RMM:   4    -0.413178157065E+03   -0.11991E-01   -0.33096E-02  5061   0.157E-01    0.565E-01
RMM:   5    -0.413159818942E+03    0.18338E-01   -0.74099E-03  4685   0.974E-02    0.596E-02
RMM:   6    -0.413159729969E+03    0.88974E-04   -0.14507E-03  5258   0.385E-02    0.310E-02
RMM:   7    -0.413159760393E+03   -0.30424E-04   -0.32373E-04  5910   0.171E-02    0.203E-02
RMM:   8    -0.413159757001E+03    0.33924E-05   -0.64942E-05  5257   0.934E-03    0.921E-03
RMM:   9    -0.413159757894E+03   -0.89297E-06   -0.11298E-05  4009   0.432E-03    0.397E-03
RMM:  10    -0.413159760527E+03   -0.26335E-05   -0.15703E-06  2555   0.204E-03    0.254E-03
RMM:  11    -0.413159765909E+03   -0.53821E-05   -0.14435E-06  2528   0.182E-03    0.147E-03
RMM:  12    -0.413159769773E+03   -0.38636E-05   -0.88526E-07  2496   0.140E-03    0.686E-04
RMM:  13    -0.413159772049E+03   -0.22762E-05   -0.46185E-07  2071   0.100E-03    0.382E-04
RMM:  14    -0.413159774171E+03   -0.21216E-05   -0.32434E-07  1606   0.823E-04    0.247E-04
RMM:  15    -0.413159776980E+03   -0.28096E-05   -0.49517E-07  1838   0.880E-04    0.254E-04
RMM:  16    -0.413159778250E+03   -0.12696E-05   -0.25103E-07  1383   0.698E-04    0.169E-04
RMM:  17    -0.413159779437E+03   -0.11874E-05   -0.27217E-07  1428   0.719E-04    0.971E-05
RMM:  18    -0.413159779811E+03   -0.37405E-06   -0.97820E-08  1041   0.588E-04
  139 T=    60. E= -.41286528E+03 F= -.41315978E+03 E0= -.41313907E+03  EK= 0.29450E+00 SP= 0.00E+00 SK= 0.00E+00
       N       E                     dE             d eps       ncg     rms          rms(c)
RMM:   1    -0.413163909305E+03   -0.41299E-02   -0.73671E+00  4264   0.724E-01    0.858E-01
RMM:   2    -0.413165529231E+03   -0.16199E-02   -0.89050E-02  4311   0.860E-02    0.631E-01
RMM:   3    -0.413162288137E+03    0.32411E-02   -0.27300E-02  4995   0.661E-02    0.193E-01
RMM:   4    -0.413189427050E+03   -0.27139E-01   -0.33791E-02  5112   0.155E-01    0.704E-01
RMM:   5    -0.413160544774E+03    0.28882E-01   -0.13503E-02  4765   0.119E-01    0.553E-02
RMM:   6    -0.413160568876E+03   -0.24102E-04   -0.23761E-03  5627   0.474E-02    0.319E-02
RMM:   7    -0.413160593566E+03   -0.24690E-04   -0.39410E-04  5849   0.176E-02    0.194E-02
RMM:   8    -0.413160597988E+03   -0.44218E-05   -0.63917E-05  5241   0.888E-03    0.915E-03
RMM:   9    -0.413160600828E+03   -0.28400E-05   -0.90485E-06  3319   0.367E-03    0.460E-03
RMM:  10    -0.413160608167E+03   -0.73395E-05   -0.24783E-06  2618   0.225E-03    0.288E-03
RMM:  11    -0.413160615050E+03   -0.68830E-05   -0.12413E-06  2508   0.172E-03    0.141E-03
RMM:  12    -0.413160622084E+03   -0.70334E-05   -0.95169E-07  2474   0.144E-03    0.594E-04
RMM:  13    -0.413160625081E+03   -0.29972E-05   -0.43526E-07  2102   0.104E-03    0.379E-04
RMM:  14    -0.413160627356E+03   -0.22751E-05   -0.25958E-07  1664   0.830E-04    0.232E-04
RMM:  15    -0.413160630986E+03   -0.36303E-05   -0.29029E-07  1672   0.811E-04    0.195E-04
RMM:  16    -0.413160633138E+03   -0.21519E-05   -0.19810E-07  1405   0.710E-04    0.136E-04
RMM:  17    -0.413160634112E+03   -0.97334E-06   -0.11953E-07  1191   0.627E-04
  140 T=    60. E= -.41286562E+03 F= -.41316063E+03 E0= -.41313993E+03  EK= 0.29501E+00 SP= 0.00E+00 SK= 0.00E+00
       N       E                     dE             d eps       ncg     rms          rms(c)
RMM:   1    -0.413163543885E+03   -0.29107E-02   -0.75780E+00  4264   0.735E-01    0.870E-01
RMM:   2    -0.413165321006E+03   -0.17771E-02   -0.91052E-02  4309   0.877E-02    0.633E-01
RMM:   3    -0.413161765568E+03    0.35554E-02   -0.24266E-02  4949   0.599E-02    0.152E-01
RMM:   4    -0.413188302029E+03   -0.26536E-01   -0.30636E-02  5128   0.147E-01    0.689E-01
RMM:   5    -0.413160669031E+03    0.27633E-01   -0.13222E-02  4793   0.115E-01    0.544E-02
RMM:   6    -0.413160696991E+03   -0.27960E-04   -0.23339E-03  5655   0.471E-02    0.329E-02
RMM:   7    -0.413160717083E+03   -0.20092E-04   -0.39419E-04  5815   0.176E-02    0.193E-02
RMM:   8    -0.413160718371E+03   -0.12878E-05   -0.61289E-05  5260   0.856E-03    0.920E-03
RMM:   9    -0.413160719294E+03   -0.92237E-06   -0.87180E-06  3303   0.353E-03
  141 T=    60. E= -.41286553E+03 F= -.41316072E+03 E0= -.41314002E+03  EK= 0.29519E+00 SP= 0.00E+00 SK= 0.00E+00
       N       E                     dE             d eps       ncg     rms          rms(c)
RMM:   1    -0.413162908547E+03   -0.21902E-02   -0.77456E+00  4267   0.750E-01    0.876E-01
RMM:   2    -0.413164500820E+03   -0.15923E-02   -0.92677E-02  4323   0.879E-02    0.626E-01
RMM:   3    -0.413164727778E+03   -0.22696E-03   -0.23559E-02  5141   0.773E-02    0.278E-01
RMM:   4    -0.413184428728E+03   -0.19701E-01   -0.35823E-02  5082   0.161E-01    0.640E-01
RMM:   5    -0.413160638816E+03    0.23790E-01   -0.10059E-02  4734   0.108E-01    0.639E-02
RMM:   6    -0.413160535407E+03    0.10341E-03   -0.18579E-03  5358   0.437E-02    0.321E-02
RMM:   7    -0.413160568010E+03   -0.32602E-04   -0.39651E-04  5993   0.184E-02    0.209E-02
RMM:   8    -0.413160564096E+03    0.39132E-05   -0.79102E-05  5317   0.997E-03    0.982E-03
RMM:   9    -0.413160562998E+03    0.10981E-05   -0.13421E-05  4205   0.456E-03    0.425E-03
RMM:  10    -0.413160564761E+03   -0.17624E-05   -0.18521E-06  2576   0.211E-03    0.278E-03
RMM:  11    -0.413160568524E+03   -0.37635E-05   -0.15394E-06  2533   0.191E-03    0.158E-03
RMM:  12    -0.413160571418E+03   -0.28935E-05   -0.96489E-07  2502   0.147E-03    0.712E-04
RMM:  13    -0.413160572816E+03   -0.13985E-05   -0.45192E-07  2067   0.102E-03    0.398E-04
RMM:  14    -0.413160574424E+03   -0.16081E-05   -0.35921E-07  1739   0.868E-04    0.255E-04
RMM:  15    -0.413160575989E+03   -0.15645E-05   -0.37039E-07  1713   0.830E-04    0.221E-04
RMM:  16    -0.413160576941E+03   -0.95257E-06   -0.28355E-07  1489   0.744E-04
  142 T=    60. E= -.41286540E+03 F= -.41316058E+03 E0= -.41313989E+03  EK= 0.29518E+00 SP= 0.00E+00 SK= 0.00E+00
       N       E                     dE             d eps       ncg     rms          rms(c)
RMM:   1    -0.413162538339E+03   -0.19624E-02   -0.79239E+00  4265   0.756E-01    0.855E-01
RMM:   2    -0.413165546269E+03   -0.30079E-02   -0.94453E-02  4308   0.888E-02    0.625E-01
RMM:   3    -0.413161891505E+03    0.36548E-02   -0.20353E-02  4865   0.519E-02    0.102E-01
RMM:   4    -0.413179266824E+03   -0.17375E-01   -0.18579E-02  5138   0.115E-01    0.556E-01
RMM:   5    -0.413161452878E+03    0.17814E-01   -0.87815E-03  4821   0.924E-02    0.491E-02
RMM:   6    -0.413161470104E+03   -0.17226E-04   -0.16049E-03  5657   0.393E-02    0.325E-02
RMM:   7    -0.413161478655E+03   -0.85505E-05   -0.31651E-04  5631   0.159E-02    0.172E-02
RMM:   8    -0.413161480246E+03   -0.15914E-05   -0.47433E-05  5168   0.751E-03    0.845E-03
RMM:   9    -0.413161481728E+03   -0.14816E-05   -0.60001E-06  3039   0.298E-03    0.456E-03
RMM:  10    -0.413161487887E+03   -0.61590E-05   -0.20681E-06  2564   0.215E-03    0.261E-03
RMM:  11    -0.413161492877E+03   -0.49908E-05   -0.10134E-06  2491   0.159E-03    0.122E-03
RMM:  12    -0.413161497545E+03   -0.46679E-05   -0.75344E-07  2366   0.130E-03    0.594E-04
RMM:  13    -0.413161500586E+03   -0.30401E-05   -0.42048E-07  2057   0.100E-03    0.337E-04
RMM:  14    -0.413161502169E+03   -0.15836E-05   -0.22398E-07  1542   0.792E-04    0.215E-04
RMM:  15    -0.413161504868E+03   -0.26988E-05   -0.27305E-07  1632   0.798E-04    0.166E-04
RMM:  16    -0.413161506502E+03   -0.16339E-05   -0.19660E-07  1462   0.711E-04    0.140E-04
RMM:  17    -0.413161506759E+03   -0.25718E-06   -0.85946E-08  1048   0.584E-04
  143 T=    60. E= -.41286576E+03 F= -.41316151E+03 E0= -.41314082E+03  EK= 0.29574E+00 SP= 0.00E+00 SK= 0.00E+00
       N       E                     dE             d eps       ncg     rms          rms(c)
RMM:   1    -0.413161851506E+03   -0.34500E-03   -0.81987E+00  4264   0.772E-01    0.865E-01
RMM:   2    -0.413165267506E+03   -0.34160E-02   -0.97157E-02  4308   0.909E-02    0.631E-01
RMM:   3    -0.413161476855E+03    0.37907E-02   -0.18887E-02  4730   0.483E-02    0.743E-02
RMM:   4    -0.413168566194E+03   -0.70893E-02   -0.75085E-03  5155   0.745E-02    0.359E-01
RMM:   5    -0.413161314159E+03    0.72520E-02   -0.37004E-03  4842   0.600E-02    0.443E-02
RMM:   6    -0.413161316156E+03   -0.19970E-05   -0.80991E-04  5548   0.290E-02    0.315E-02
RMM:   7    -0.413161317475E+03   -0.13187E-05   -0.23345E-04  5399   0.137E-02    0.159E-02
RMM:   8    -0.413161317014E+03    0.46089E-06   -0.32800E-05  4954   0.651E-03    0.772E-03
RMM:   9    -0.413161318801E+03   -0.17866E-05   -0.45486E-06  2787   0.244E-03    0.372E-03
RMM:  10    -0.413161325147E+03   -0.63466E-05   -0.14656E-06  2520   0.185E-03    0.197E-03
RMM:  11    -0.413161329858E+03   -0.47104E-05   -0.77988E-07  2447   0.137E-03    0.100E-03
RMM:  12    -0.413161334207E+03   -0.43497E-05   -0.56638E-07  2179   0.112E-03    0.432E-04
RMM:  13    -0.413161337775E+03   -0.35678E-05   -0.39843E-07  1932   0.917E-04    0.262E-04
RMM:  14    -0.413161339519E+03   -0.17437E-05   -0.19619E-07  1388   0.739E-04    0.203E-04
RMM:  15    -0.413161342013E+03   -0.24943E-05   -0.23735E-07  1419   0.749E-04    0.107E-04
RMM:  16    -0.413161343373E+03   -0.13601E-05   -0.17072E-07  1386   0.685E-04    0.951E-05
RMM:  17    -0.413161343590E+03   -0.21702E-06   -0.74041E-08   967   0.572E-04
  144 T=    60. E= -.41286534E+03 F= -.41316134E+03 E0= -.41314066E+03  EK= 0.29600E+00 SP= 0.00E+00 SK= 0.00E+00
       N       E                     dE             d eps       ncg     rms          rms(c)
RMM:   1    -0.413161779939E+03   -0.43657E-03   -0.84021E+00  4264   0.782E-01    0.880E-01
RMM:   2    -0.413165049160E+03   -0.32692E-02   -0.98527E-02  4301   0.924E-02    0.624E-01
RMM:   3    -0.413161709098E+03    0.33401E-02   -0.16213E-02  4598   0.452E-02    0.639E-02
RMM:   4    -0.413162905579E+03   -0.11965E-02   -0.16321E-03  5180   0.356E-02    0.151E-01
RMM:   5    -0.413161709177E+03    0.11964E-02   -0.73905E-04  4883   0.273E-02    0.452E-02
RMM:   6    -0.413161703244E+03    0.59332E-05   -0.41331E-04  5316   0.209E-02    0.324E-02
RMM:   7    -0.413161678226E+03    0.25017E-04   -0.19091E-04  4925   0.124E-02    0.165E-02
RMM:   8    -0.413161673577E+03    0.46488E-05   -0.18685E-05  4421   0.522E-03    0.772E-03
RMM:   9    -0.413161674793E+03   -0.12153E-05   -0.65235E-06  2662   0.247E-03    0.244E-03
RMM:  10    -0.413161676128E+03   -0.13356E-05   -0.17343E-06  2513   0.193E-03    0.121E-03
RMM:  11    -0.413161676981E+03   -0.85281E-06   -0.97352E-07  2460   0.147E-03
  145 T=    60. E= -.41286550E+03 F= -.41316168E+03 E0= -.41314100E+03  EK= 0.29618E+00 SP= 0.00E+00 SK= 0.00E+00
       N       E                     dE             d eps       ncg     rms          rms(c)
RMM:   1    -0.413160992307E+03    0.68382E-03   -0.85455E+00  4264   0.790E-01    0.856E-01
RMM:   2    -0.413165418944E+03   -0.44266E-02   -0.10047E-01  4306   0.921E-02    0.619E-01
RMM:   3    -0.413162219995E+03    0.31989E-02   -0.15014E-02  4588   0.427E-02    0.593E-02
RMM:   4    -0.413163293568E+03   -0.10736E-02   -0.14465E-03  5214   0.336E-02    0.144E-01
RMM:   5    -0.413162217284E+03    0.10763E-02   -0.64752E-04  4864   0.259E-02    0.421E-02
RMM:   6    -0.413162219162E+03   -0.18780E-05   -0.36714E-04  5342   0.197E-02    0.307E-02
RMM:   7    -0.413162210409E+03    0.87529E-05   -0.19410E-04  4951   0.120E-02    0.174E-02
RMM:   8    -0.413162206285E+03    0.41239E-05   -0.18107E-05  4384   0.507E-03    0.818E-03
RMM:   9    -0.413162208504E+03   -0.22188E-05   -0.74842E-06  2644   0.256E-03    0.241E-03
RMM:  10    -0.413162213334E+03   -0.48298E-05   -0.16805E-06  2507   0.196E-03    0.148E-03
RMM:  11    -0.413162218289E+03   -0.49554E-05   -0.11087E-06  2482   0.155E-03    0.772E-04
RMM:  12    -0.413162220384E+03   -0.20946E-05   -0.47714E-07  2129   0.106E-03    0.358E-04
RMM:  13    -0.413162222889E+03   -0.25050E-05   -0.39994E-07  1769   0.885E-04    0.343E-04
RMM:  14    -0.413162224592E+03   -0.17026E-05   -0.30374E-07  1584   0.780E-04    0.221E-04
RMM:  15    -0.413162225707E+03   -0.11150E-05   -0.22184E-07  1357   0.709E-04    0.832E-05
RMM:  16    -0.413162226392E+03   -0.68526E-06   -0.19088E-07  1349   0.673E-04
  146 T=    60. E= -.41286564E+03 F= -.41316223E+03 E0= -.41314156E+03  EK= 0.29658E+00 SP= 0.00E+00 SK= 0.00E+00
       N       E                     dE             d eps       ncg     rms          rms(c)
RMM:   1    -0.413160311091E+03    0.19146E-02   -0.88429E+00  4264   0.804E-01    0.860E-01
RMM:   2    -0.413165533809E+03   -0.52227E-02   -0.10420E-01  4301   0.945E-02    0.628E-01
RMM:   3    -0.413162287970E+03    0.32458E-02   -0.14642E-02  4698   0.456E-02    0.639E-02
RMM:   4    -0.413167534450E+03   -0.52465E-02   -0.56059E-03  5162   0.642E-02    0.308E-01
RMM:   5    -0.413162244743E+03    0.52897E-02   -0.27522E-03  4848   0.516E-02    0.433E-02
RMM:   6    -0.413162232938E+03    0.11805E-04   -0.63308E-04  5524   0.254E-02    0.300E-02
RMM:   7    -0.413162239580E+03   -0.66425E-05   -0.21379E-04  5398   0.124E-02    0.158E-02
RMM:   8    -0.413162238559E+03    0.10211E-05   -0.28568E-05  4856   0.596E-03    0.727E-03
RMM:   9    -0.413162240661E+03   -0.21016E-05   -0.48617E-06  2708   0.244E-03    0.312E-03
RMM:  10    -0.413162246953E+03   -0.62926E-05   -0.14341E-06  2524   0.181E-03    0.165E-03
RMM:  11    -0.413162252976E+03   -0.60228E-05   -0.92985E-07  2448   0.142E-03    0.819E-04
RMM:  12    -0.413162256369E+03   -0.33931E-05   -0.49366E-07  2116   0.106E-03    0.375E-04
RMM:  13    -0.413162259329E+03   -0.29597E-05   -0.36065E-07  1853   0.892E-04    0.259E-04
RMM:  14    -0.413162261613E+03   -0.22842E-05   -0.26021E-07  1510   0.776E-04    0.221E-04
RMM:  15    -0.413162263207E+03   -0.15942E-05   -0.19818E-07  1348   0.716E-04    0.740E-05
RMM:  16    -0.413162264012E+03   -0.80500E-06   -0.13881E-07  1248   0.652E-04
  147 T=    60. E= -.41286529E+03 F= -.41316226E+03 E0= -.41314160E+03  EK= 0.29697E+00 SP= 0.00E+00 SK= 0.00E+00
       N       E                     dE             d eps       ncg     rms          rms(c)
RMM:   1    -0.413160718040E+03    0.15452E-02   -0.90595E+00  4264   0.817E-01    0.881E-01
RMM:   2    -0.413165687351E+03   -0.49693E-02   -0.10523E-01  4300   0.961E-02    0.622E-01
RMM:   3    -0.413163142692E+03    0.25447E-02   -0.12857E-02  4833   0.441E-02    0.930E-02
RMM:   4    -0.413175866390E+03   -0.12724E-01   -0.13246E-02  5154   0.969E-02    0.475E-01
RMM:   5    -0.413163021341E+03    0.12845E-01   -0.65354E-03  4839   0.786E-02    0.482E-02
RMM:   6    -0.413163021800E+03   -0.45935E-06   -0.12228E-03  5636   0.338E-02    0.317E-02
RMM:   7    -0.413163017323E+03    0.44774E-05   -0.26124E-04  5667   0.142E-02    0.148E-02
RMM:   8    -0.413163015352E+03    0.19708E-05   -0.38454E-05  5094   0.672E-03    0.732E-03
RMM:   9    -0.413163014634E+03    0.71781E-06   -0.49007E-06  2935   0.276E-03
  148 T=    61. E= -.41286569E+03 F= -.41316301E+03 E0= -.41314235E+03  EK= 0.29733E+00 SP= 0.00E+00 SK= 0.00E+00
       N       E                     dE             d eps       ncg     rms          rms(c)
RMM:   1    -0.413159607972E+03    0.34074E-02   -0.91813E+00  4266   0.824E-01    0.862E-01
RMM:   2    -0.413165390080E+03   -0.57821E-02   -0.10691E-01  4313   0.957E-02    0.614E-01
RMM:   3    -0.413163778679E+03    0.16114E-02   -0.12202E-02  5034   0.519E-02    0.146E-01
RMM:   4    -0.413197379407E+03   -0.33601E-01   -0.37653E-02  5135   0.162E-01    0.765E-01
RMM:   5    -0.413162930621E+03    0.34449E-01   -0.16719E-02  4825   0.128E-01    0.633E-02
RMM:   6    -0.413162956032E+03   -0.25411E-04   -0.28077E-03  5628   0.515E-02    0.304E-02
RMM:   7    -0.413162983167E+03   -0.27135E-04   -0.44354E-04  6075   0.176E-02    0.174E-02
RMM:   8    -0.413162985083E+03   -0.19162E-05   -0.77984E-05  5405   0.929E-03    0.922E-03
RMM:   9    -0.413162983812E+03    0.12711E-05   -0.11192E-05  3643   0.400E-03    0.403E-03
RMM:  10    -0.413162986150E+03   -0.23384E-05   -0.32203E-06  2708   0.242E-03    0.270E-03
RMM:  11    -0.413162988453E+03   -0.23026E-05   -0.15571E-06  2521   0.191E-03    0.155E-03
RMM:  12    -0.413162989999E+03   -0.15462E-05   -0.93424E-07  2494   0.145E-03    0.580E-04
RMM:  13    -0.413162990652E+03   -0.65313E-06   -0.45573E-07  2105   0.103E-03
  149 T=    61. E= -.41286546E+03 F= -.41316299E+03 E0= -.41314233E+03  EK= 0.29753E+00 SP= 0.00E+00 SK= 0.00E+00
       N       E                     dE             d eps       ncg     rms          rms(c)
RMM:   1    -0.413159187916E+03    0.38021E-02   -0.94472E+00  4264   0.835E-01    0.858E-01
RMM:   2    -0.413166160745E+03   -0.69728E-02   -0.11128E-01  4303   0.978E-02    0.625E-01
RMM:   3    -0.413163695234E+03    0.24655E-02   -0.11304E-02  4909   0.464E-02    0.102E-01
RMM:   4    -0.413184573873E+03   -0.20879E-01   -0.21748E-02  5149   0.124E-01    0.604E-01
RMM:   5    -0.413163413197E+03    0.21161E-01   -0.10543E-02  4833   0.100E-01    0.501E-02
RMM:   6    -0.413163430815E+03   -0.17619E-04   -0.18030E-03  5689   0.404E-02    0.284E-02
RMM:   7    -0.413163449868E+03   -0.19052E-04   -0.28507E-04  5839   0.141E-02    0.135E-02
RMM:   8    -0.413163455810E+03   -0.59420E-05   -0.42302E-05  5143   0.682E-03    0.702E-03
RMM:   9    -0.413163457807E+03   -0.19970E-05   -0.65586E-06  3159   0.305E-03    0.369E-03
RMM:  10    -0.413163463511E+03   -0.57045E-05   -0.21462E-06  2561   0.214E-03    0.231E-03
RMM:  11    -0.413163468519E+03   -0.50081E-05   -0.11779E-06  2515   0.162E-03    0.113E-03
RMM:  12    -0.413163472381E+03   -0.38615E-05   -0.76753E-07  2410   0.126E-03    0.541E-04
RMM:  13    -0.413163474234E+03   -0.18537E-05   -0.38921E-07  1905   0.926E-04    0.295E-04
RMM:  14    -0.413163475536E+03   -0.13019E-05   -0.24787E-07  1496   0.789E-04    0.196E-04
RMM:  15    -0.413163476739E+03   -0.12029E-05   -0.21865E-07  1377   0.744E-04    0.111E-04
RMM:  16    -0.413163477515E+03   -0.77605E-06   -0.18977E-07  1425   0.722E-04
  150 T=    61. E= -.41286538E+03 F= -.41316348E+03 E0= -.41314282E+03  EK= 0.29810E+00 SP= 0.00E+00 SK= 0.00E+00
