       N       E                     dE             d eps       ncg     rms          rms(c)
RMM:   1     0.220189788631E+04    0.22019E+04   -0.52440E+04  2132   0.654E+02
RMM:   2     0.706003314484E+03   -0.14959E+04   -0.16265E+04  2132   0.177E+02
RMM:   3     0.138123105004E+03   -0.56788E+03   -0.65725E+03  2132   0.117E+02
RMM:   4    -0.159381089830E+03   -0.29750E+03   -0.27864E+03  2132   0.936E+01
RMM:   5    -0.287498195499E+03   -0.12812E+03   -0.11450E+03  2132   0.595E+01
RMM:   6    -0.349970930111E+03   -0.62473E+02   -0.55187E+02  2132   0.423E+01
RMM:   7    -0.382849561950E+03   -0.32879E+02   -0.30421E+02  2132   0.293E+01
RMM:   8    -0.404289285542E+03   -0.21440E+02   -0.18391E+02  2132   0.233E+01
RMM:   9    -0.436014303813E+03   -0.31725E+02   -0.30630E+02  6106   0.173E+01
RMM:  10    -0.441306174331E+03   -0.52919E+01   -0.63021E+01  6399   0.540E+00
RMM:  11    -0.442527517058E+03   -0.12213E+01   -0.11272E+01  6218   0.173E+00
RMM:  12    -0.442898361463E+03   -0.37084E+00   -0.26571E+00  6365   0.600E-01    0.134E+02
RMM:  13    -0.425620105320E+03    0.17278E+02   -0.80932E+01  4670   0.119E+01    0.713E+01
RMM:  14    -0.499944773453E+03   -0.74325E+02   -0.54197E+02  5418   0.233E+01    0.308E+01
RMM:  15    -0.416197601814E+03    0.83747E+02   -0.20075E+02  5089   0.164E+01    0.724E+00
RMM:  16    -0.414020774039E+03    0.21768E+01   -0.39799E+01  6085   0.613E+00    0.428E+00
RMM:  17    -0.413217841360E+03    0.80293E+00   -0.25174E+00  5411   0.188E+00    0.245E+00
RMM:  18    -0.413176669785E+03    0.41172E-01   -0.76667E-01  5976   0.904E-01    0.168E+00
RMM:  19    -0.413169689537E+03    0.69802E-02   -0.27656E-01  5710   0.567E-01    0.880E-01
RMM:  20    -0.413188191750E+03   -0.18502E-01   -0.26070E-01  5581   0.536E-01    0.600E-01
RMM:  21    -0.413168833770E+03    0.19358E-01   -0.33849E-02  5014   0.236E-01    0.280E-01
RMM:  22    -0.413165847511E+03    0.29863E-02   -0.19826E-02  5931   0.132E-01    0.135E-01
RMM:  23    -0.413164790106E+03    0.10574E-02   -0.53046E-03  6011   0.651E-02    0.840E-02
RMM:  24    -0.413163398117E+03    0.13920E-02   -0.16304E-03  5320   0.416E-02    0.488E-02
RMM:  25    -0.413162833544E+03    0.56457E-03   -0.85045E-04  5175   0.280E-02    0.387E-02
RMM:  26    -0.413162930160E+03   -0.96615E-04   -0.97507E-04  5806   0.323E-02    0.340E-02
RMM:  27    -0.413163358471E+03   -0.42831E-03   -0.19355E-04  4521   0.207E-02    0.197E-02
RMM:  28    -0.413163781272E+03   -0.42280E-03   -0.16468E-04  5188   0.180E-02    0.886E-03
RMM:  29    -0.413164162287E+03   -0.38101E-03   -0.10827E-04  4546   0.155E-02    0.459E-03
RMM:  30    -0.413164393836E+03   -0.23155E-03   -0.79421E-05  4368   0.105E-02    0.441E-03
RMM:  31    -0.413164521769E+03   -0.12793E-03   -0.54370E-05  3170   0.701E-03    0.335E-03
RMM:  32    -0.413164543399E+03   -0.21630E-04   -0.20439E-05  2989   0.310E-03    0.172E-03
RMM:  33    -0.413164553138E+03   -0.97390E-05   -0.82413E-06  2811   0.230E-03    0.544E-04
RMM:  34    -0.413164554348E+03   -0.12103E-05   -0.44764E-06  2636   0.159E-03    0.575E-04
RMM:  35    -0.413164553443E+03    0.90573E-06   -0.20771E-06  2283   0.121E-03
    1 T=    61. E= -.41286673E+03 F= -.41316455E+03 E0= -.41314206E+03  EK= 0.29783E+00 SP= 0.00E+00 SK= 0.00E+00
       N       E                     dE             d eps       ncg     rms          rms(c)
RMM:   1    -0.413166466314E+03   -0.19120E-02   -0.82201E+00  3979   0.593E-01    0.889E-01
RMM:   2    -0.413169360361E+03   -0.28940E-02   -0.10230E-01  3881   0.850E-02    0.655E-01
RMM:   3    -0.413165046710E+03    0.43137E-02   -0.23601E-02  4918   0.569E-02    0.135E-01
RMM:   4    -0.413192261145E+03   -0.27214E-01   -0.30646E-02  5186   0.146E-01    0.693E-01
RMM:   5    -0.413164036224E+03    0.28225E-01   -0.13428E-02  4831   0.116E-01    0.501E-02
RMM:   6    -0.413164238471E+03   -0.20225E-03   -0.25113E-03  5763   0.490E-02    0.352E-02
RMM:   7    -0.413164240445E+03   -0.19741E-05   -0.46403E-04  5700   0.199E-02    0.223E-02
RMM:   8    -0.413164237564E+03    0.28811E-05   -0.57660E-05  5203   0.852E-03    0.983E-03
RMM:   9    -0.413164239653E+03   -0.20893E-05   -0.12390E-05  3720   0.374E-03    0.719E-03
RMM:  10    -0.413164244798E+03   -0.51441E-05   -0.23596E-06  2602   0.231E-03    0.427E-03
RMM:  11    -0.413164248610E+03   -0.38122E-05   -0.12576E-06  2519   0.170E-03    0.244E-03
RMM:  12    -0.413164255371E+03   -0.67617E-05   -0.18329E-06  2578   0.192E-03    0.107E-03
RMM:  13    -0.413164258666E+03   -0.32947E-05   -0.76886E-07  2416   0.135E-03    0.850E-04
RMM:  14    -0.413164258467E+03    0.19925E-06   -0.35942E-07  1940   0.885E-04
    2 T=    61. E= -.41286651E+03 F= -.41316426E+03 E0= -.41314176E+03  EK= 0.29775E+00 SP= 0.00E+00 SK= 0.00E+00
       N       E                     dE             d eps       ncg     rms          rms(c)
RMM:   1    -0.413167072931E+03   -0.28143E-02   -0.81970E+00  4188   0.586E-01    0.906E-01
RMM:   2    -0.413169599022E+03   -0.25261E-02   -0.10101E-01  3958   0.833E-02    0.652E-01
RMM:   3    -0.413165491577E+03    0.41074E-02   -0.21946E-02  4915   0.516E-02    0.119E-01
RMM:   4    -0.413192086797E+03   -0.26595E-01   -0.28723E-02  5150   0.142E-01    0.685E-01
RMM:   5    -0.413164668714E+03    0.27418E-01   -0.12940E-02  4817   0.114E-01    0.497E-02
RMM:   6    -0.413164867894E+03   -0.19918E-03   -0.24055E-03  5753   0.480E-02    0.357E-02
RMM:   7    -0.413164854961E+03    0.12934E-04   -0.44161E-04  5606   0.202E-02    0.224E-02
RMM:   8    -0.413164843902E+03    0.11058E-04   -0.59355E-05  5128   0.886E-03    0.105E-02
RMM:   9    -0.413164842354E+03    0.15487E-05   -0.11995E-05  3744   0.386E-03    0.767E-03
RMM:  10    -0.413164842695E+03   -0.34185E-06   -0.22125E-06  2588   0.240E-03
    3 T=    61. E= -.41286693E+03 F= -.41316484E+03 E0= -.41314235E+03  EK= 0.29791E+00 SP= 0.00E+00 SK= 0.00E+00
       N       E                     dE             d eps       ncg     rms          rms(c)
RMM:   1    -0.413166488729E+03   -0.16464E-02   -0.81361E+00  4218   0.589E-01    0.891E-01
RMM:   2    -0.413169126970E+03   -0.26382E-02   -0.10059E-01  4252   0.832E-02    0.646E-01
RMM:   3    -0.413172337971E+03   -0.32110E-02   -0.26936E-02  5174   0.930E-02    0.374E-01
RMM:   4    -0.413184171727E+03   -0.11834E-01   -0.36574E-02  5097   0.166E-01    0.579E-01
RMM:   5    -0.413164604055E+03    0.19568E-01   -0.70047E-03  4654   0.954E-02    0.579E-02
RMM:   6    -0.413164594247E+03    0.98080E-05   -0.14423E-03  5375   0.389E-02    0.323E-02
RMM:   7    -0.413164614046E+03   -0.19799E-04   -0.30902E-04  5922   0.166E-02    0.190E-02
RMM:   8    -0.413164609305E+03    0.47413E-05   -0.52936E-05  5104   0.866E-03    0.759E-03
RMM:   9    -0.413164607952E+03    0.13524E-05   -0.64365E-06  3209   0.337E-03    0.385E-03
RMM:  10    -0.413164609110E+03   -0.11571E-05   -0.14861E-06  2526   0.207E-03    0.239E-03
RMM:  11    -0.413164610616E+03   -0.15069E-05   -0.11823E-06  2526   0.170E-03    0.131E-03
RMM:  12    -0.413164611425E+03   -0.80825E-06   -0.73433E-07  2467   0.134E-03
    4 T=    61. E= -.41286676E+03 F= -.41316461E+03 E0= -.41314212E+03  EK= 0.29785E+00 SP= 0.00E+00 SK= 0.00E+00
       N       E                     dE             d eps       ncg     rms          rms(c)
RMM:   1    -0.413166486885E+03   -0.18763E-02   -0.82056E+00  4235   0.595E-01    0.886E-01
RMM:   2    -0.413169568112E+03   -0.30812E-02   -0.10174E-01  4014   0.820E-02    0.654E-01
RMM:   3    -0.413165852600E+03    0.37155E-02   -0.23854E-02  4970   0.571E-02    0.152E-01
RMM:   4    -0.413196357398E+03   -0.30505E-01   -0.34470E-02  5140   0.156E-01    0.736E-01
RMM:   5    -0.413164546158E+03    0.31811E-01   -0.14801E-02  4803   0.122E-01    0.511E-02
RMM:   6    -0.413164756887E+03   -0.21073E-03   -0.26619E-03  5737   0.509E-02    0.351E-02
RMM:   7    -0.413164756996E+03   -0.10920E-06   -0.46406E-04  5713   0.201E-02    0.224E-02
RMM:   8    -0.413164753884E+03    0.31128E-05   -0.62630E-05  5168   0.897E-03    0.102E-02
RMM:   9    -0.413164755156E+03   -0.12725E-05   -0.12359E-05  3818   0.400E-03    0.724E-03
RMM:  10    -0.413164759700E+03   -0.45436E-05   -0.21600E-06  2595   0.236E-03    0.433E-03
RMM:  11    -0.413164763129E+03   -0.34290E-05   -0.11728E-06  2529   0.172E-03    0.243E-03
RMM:  12    -0.413164768907E+03   -0.57781E-05   -0.18725E-06  2598   0.198E-03    0.110E-03
RMM:  13    -0.413164771273E+03   -0.23657E-05   -0.69073E-07  2418   0.135E-03    0.852E-04
RMM:  14    -0.413164771056E+03    0.21704E-06   -0.26109E-07  1942   0.879E-04
    5 T=    61. E= -.41286677E+03 F= -.41316477E+03 E0= -.41314229E+03  EK= 0.29800E+00 SP= 0.00E+00 SK= 0.00E+00
       N       E                     dE             d eps       ncg     rms          rms(c)
RMM:   1    -0.413167340262E+03   -0.25690E-02   -0.82056E+00  4246   0.598E-01    0.903E-01
RMM:   2    -0.413169780143E+03   -0.24399E-02   -0.10134E-01  4015   0.818E-02    0.653E-01
RMM:   3    -0.413165907620E+03    0.38725E-02   -0.22229E-02  4912   0.508E-02    0.120E-01
RMM:   4    -0.413192258260E+03   -0.26351E-01   -0.28369E-02  5134   0.141E-01    0.682E-01
RMM:   5    -0.413165065544E+03    0.27193E-01   -0.12791E-02  4806   0.113E-01    0.495E-02
RMM:   6    -0.413165268872E+03   -0.20333E-03   -0.24321E-03  5742   0.476E-02    0.353E-02
RMM:   7    -0.413165262207E+03    0.66643E-05   -0.42923E-04  5593   0.200E-02    0.223E-02
RMM:   8    -0.413165250908E+03    0.11300E-04   -0.58360E-05  5056   0.870E-03    0.105E-02
RMM:   9    -0.413165248946E+03    0.19619E-05   -0.11561E-05  3722   0.383E-03    0.771E-03
RMM:  10    -0.413165249215E+03   -0.26947E-06   -0.21046E-06  2575   0.237E-03
    6 T=    61. E= -.41286691E+03 F= -.41316525E+03 E0= -.41314279E+03  EK= 0.29834E+00 SP= 0.00E+00 SK= 0.00E+00
       N       E                     dE             d eps       ncg     rms          rms(c)
RMM:   1    -0.413167117721E+03   -0.18688E-02   -0.81606E+00  4258   0.607E-01    0.898E-01
RMM:   2    -0.413169501394E+03   -0.23837E-02   -0.10086E-01  4276   0.827E-02    0.647E-01
RMM:   3    -0.413172407444E+03   -0.29060E-02   -0.26594E-02  5147   0.911E-02    0.367E-01
RMM:   4    -0.413184931688E+03   -0.12524E-01   -0.36623E-02  5079   0.165E-01    0.584E-01
RMM:   5    -0.413164972358E+03    0.19959E-01   -0.71951E-03  4661   0.959E-02    0.580E-02
RMM:   6    -0.413164971602E+03    0.75637E-06   -0.14922E-03  5383   0.393E-02    0.326E-02
RMM:   7    -0.413164980481E+03   -0.88791E-05   -0.31015E-04  5910   0.164E-02    0.191E-02
RMM:   8    -0.413164974378E+03    0.61029E-05   -0.52470E-05  5096   0.857E-03    0.761E-03
RMM:   9    -0.413164971886E+03    0.24921E-05   -0.62850E-06  3162   0.332E-03    0.390E-03
RMM:  10    -0.413164971819E+03    0.67423E-07   -0.15127E-06  2524   0.207E-03
    7 T=    61. E= -.41286649E+03 F= -.41316497E+03 E0= -.41314252E+03  EK= 0.29848E+00 SP= 0.00E+00 SK= 0.00E+00
       N       E                     dE             d eps       ncg     rms          rms(c)
RMM:   1    -0.413167290737E+03   -0.23189E-02   -0.81972E+00  4269   0.608E-01    0.885E-01
RMM:   2    -0.413170555876E+03   -0.32651E-02   -0.10146E-01  4086   0.837E-02    0.652E-01
RMM:   3    -0.413166738615E+03    0.38173E-02   -0.23569E-02  4960   0.587E-02    0.156E-01
RMM:   4    -0.413198197703E+03   -0.31459E-01   -0.35857E-02  5133   0.159E-01    0.747E-01
RMM:   5    -0.413165374166E+03    0.32824E-01   -0.15316E-02  4797   0.124E-01    0.518E-02
RMM:   6    -0.413165585939E+03   -0.21177E-03   -0.27114E-03  5724   0.516E-02    0.354E-02
RMM:   7    -0.413165585294E+03    0.64475E-06   -0.47153E-04  5704   0.201E-02    0.225E-02
RMM:   8    -0.413165579866E+03    0.54283E-05   -0.63913E-05  5213   0.889E-03    0.101E-02
RMM:   9    -0.413165579258E+03    0.60798E-06   -0.12220E-05  3827   0.393E-03    0.711E-03
RMM:  10    -0.413165581864E+03   -0.26061E-05   -0.21241E-06  2575   0.230E-03    0.426E-03
RMM:  11    -0.413165583951E+03   -0.20876E-05   -0.10908E-06  2517   0.168E-03    0.243E-03
RMM:  12    -0.413165587562E+03   -0.36106E-05   -0.18168E-06  2585   0.195E-03    0.110E-03
RMM:  13    -0.413165589072E+03   -0.15106E-05   -0.74698E-07  2433   0.137E-03    0.909E-04
RMM:  14    -0.413165588814E+03    0.25891E-06   -0.25971E-07  1941   0.883E-04
    8 T=    61. E= -.41286674E+03 F= -.41316559E+03 E0= -.41314316E+03  EK= 0.29885E+00 SP= 0.00E+00 SK= 0.00E+00
       N       E                     dE             d eps       ncg     rms          rms(c)
RMM:   1    -0.413167821708E+03   -0.22326E-02   -0.82243E+00  4279   0.611E-01    0.899E-01
RMM:   2    -0.413170702067E+03   -0.28804E-02   -0.10135E-01  4122   0.841E-02    0.655E-01
RMM:   3    -0.413166510823E+03    0.41912E-02   -0.22811E-02  4897   0.549E-02    0.128E-01
RMM:   4    -0.413194044163E+03   -0.27533E-01   -0.29941E-02  5129   0.145E-01    0.698E-01
RMM:   5    -0.413165567222E+03    0.28477E-01   -0.13518E-02  4800   0.116E-01    0.494E-02
RMM:   6    -0.413165764484E+03   -0.19726E-03   -0.24365E-03  5746   0.483E-02    0.348E-02
RMM:   7    -0.413165755773E+03    0.87104E-05   -0.42611E-04  5627   0.199E-02    0.220E-02
RMM:   8    -0.413165747679E+03    0.80940E-05   -0.59850E-05  5071   0.881E-03    0.104E-02
RMM:   9    -0.413165745929E+03    0.17506E-05   -0.11850E-05  3759   0.389E-03    0.756E-03
RMM:  10    -0.413165746535E+03   -0.60614E-06   -0.20914E-06  2570   0.235E-03
    9 T=    61. E= -.41286671E+03 F= -.41316575E+03 E0= -.41314334E+03  EK= 0.29903E+00 SP= 0.00E+00 SK= 0.00E+00
       N       E                     dE             d eps       ncg     rms          rms(c)
RMM:   1    -0.413168027129E+03   -0.22812E-02   -0.81893E+00  4291   0.620E-01    0.904E-01
RMM:   2    -0.413170578657E+03   -0.25515E-02   -0.10114E-01  4318   0.859E-02    0.650E-01
RMM:   3    -0.413173071243E+03   -0.24926E-02   -0.26524E-02  5139   0.915E-02    0.363E-01
RMM:   4    -0.413186085187E+03   -0.13014E-01   -0.36696E-02  5075   0.165E-01    0.588E-01
RMM:   5    -0.413165813364E+03    0.20272E-01   -0.73250E-03  4655   0.962E-02    0.578E-02
RMM:   6    -0.413165824438E+03   -0.11074E-04   -0.15443E-03  5407   0.395E-02    0.330E-02
RMM:   7    -0.413165833779E+03   -0.93411E-05   -0.31336E-04  5882   0.165E-02    0.193E-02
RMM:   8    -0.413165826324E+03    0.74550E-05   -0.52931E-05  5083   0.867E-03    0.769E-03
RMM:   9    -0.413165822652E+03    0.36721E-05   -0.64599E-06  3164   0.336E-03    0.398E-03
RMM:  10    -0.413165821429E+03    0.12226E-05   -0.15593E-06  2527   0.209E-03    0.246E-03
RMM:  11    -0.413165819561E+03    0.18679E-05   -0.11352E-06  2504   0.169E-03    0.130E-03
RMM:  12    -0.413165817568E+03    0.19936E-05   -0.73953E-07  2466   0.136E-03    0.556E-04
RMM:  13    -0.413165816305E+03    0.12627E-05   -0.37481E-07  2078   0.991E-04    0.324E-04
RMM:  14    -0.413165814979E+03    0.13257E-05   -0.23214E-07  1582   0.791E-04    0.209E-04
RMM:  15    -0.413165812699E+03    0.22802E-05   -0.26093E-07  1602   0.777E-04    0.199E-04
RMM:  16    -0.413165810594E+03    0.21055E-05   -0.19050E-07  1345   0.695E-04    0.155E-04
RMM:  17    -0.413165808812E+03    0.17815E-05   -0.13997E-07  1273   0.653E-04    0.755E-05
RMM:  18    -0.413165807444E+03    0.13686E-05   -0.92368E-08  1092   0.597E-04    0.465E-05
RMM:  19    -0.413165806869E+03    0.57452E-06   -0.43345E-08   835   0.541E-04
   10 T=    61. E= -.41286659E+03 F= -.41316581E+03 E0= -.41314342E+03  EK= 0.29922E+00 SP= 0.00E+00 SK= 0.00E+00
       N       E                     dE             d eps       ncg     rms          rms(c)
RMM:   1    -0.413168321608E+03   -0.25142E-02   -0.81812E+00  4290   0.619E-01    0.885E-01
RMM:   2    -0.413171343193E+03   -0.30216E-02   -0.10134E-01  4200   0.829E-02    0.650E-01
RMM:   3    -0.413167790389E+03    0.35528E-02   -0.23172E-02  4966   0.576E-02    0.155E-01
RMM:   4    -0.413199614251E+03   -0.31824E-01   -0.36469E-02  5131   0.160E-01    0.751E-01
RMM:   5    -0.413166418262E+03    0.33196E-01   -0.15576E-02  4790   0.125E-01    0.519E-02
RMM:   6    -0.413166629423E+03   -0.21116E-03   -0.27098E-03  5709   0.516E-02    0.358E-02
RMM:   7    -0.413166626318E+03    0.31053E-05   -0.47088E-04  5618   0.203E-02    0.225E-02
RMM:   8    -0.413166619549E+03    0.67685E-05   -0.65275E-05  5224   0.905E-03    0.102E-02
RMM:   9    -0.413166617993E+03    0.15561E-05   -0.12702E-05  3894   0.403E-03    0.709E-03
RMM:  10    -0.413166619595E+03   -0.16018E-05   -0.21400E-06  2580   0.234E-03    0.427E-03
RMM:  11    -0.413166620788E+03   -0.11925E-05   -0.10055E-06  2499   0.163E-03    0.248E-03
RMM:  12    -0.413166622804E+03   -0.20165E-05   -0.15841E-06  2545   0.190E-03    0.112E-03
RMM:  13    -0.413166623543E+03   -0.73845E-06   -0.67207E-07  2409   0.135E-03
   11 T=    61. E= -.41286693E+03 F= -.41316662E+03 E0= -.41314426E+03  EK= 0.29970E+00 SP= 0.00E+00 SK= 0.00E+00
       N       E                     dE             d eps       ncg     rms          rms(c)
RMM:   1    -0.413168524890E+03   -0.19021E-02   -0.82443E+00  4295   0.625E-01    0.896E-01
RMM:   2    -0.413171298123E+03   -0.27732E-02   -0.10204E-01  4216   0.824E-02    0.657E-01
RMM:   3    -0.413167420137E+03    0.38780E-02   -0.23365E-02  4912   0.547E-02    0.137E-01
RMM:   4    -0.413196106264E+03   -0.28686E-01   -0.31716E-02  5123   0.149E-01    0.712E-01
RMM:   5    -0.413166352210E+03    0.29754E-01   -0.14006E-02  4792   0.118E-01    0.499E-02
RMM:   6    -0.413166556786E+03   -0.20458E-03   -0.26087E-03  5751   0.491E-02    0.344E-02
RMM:   7    -0.413166554687E+03    0.20986E-05   -0.42983E-04  5660   0.199E-02    0.222E-02
RMM:   8    -0.413166544835E+03    0.98520E-05   -0.64409E-05  5043   0.897E-03    0.107E-02
RMM:   9    -0.413166542787E+03    0.20475E-05   -0.12631E-05  3867   0.405E-03    0.781E-03
RMM:  10    -0.413166543616E+03   -0.82823E-06   -0.21163E-06  2575   0.237E-03
   12 T=    61. E= -.41286655E+03 F= -.41316654E+03 E0= -.41314421E+03  EK= 0.30000E+00 SP= 0.00E+00 SK= 0.00E+00
       N       E                     dE             d eps       ncg     rms          rms(c)
RMM:   1    -0.413172096632E+03   -0.55538E-02   -0.82519E+00  4304   0.653E-01    0.908E-01
RMM:   2    -0.413171589611E+03    0.50702E-03   -0.10951E-01  4321   0.847E-02    0.653E-01
RMM:   3    -0.413174856506E+03   -0.32669E-02   -0.25996E-02  5143   0.913E-02    0.375E-01
RMM:   4    -0.413187863571E+03   -0.13007E-01   -0.38433E-02  5073   0.168E-01    0.594E-01
RMM:   5    -0.413167152294E+03    0.20711E-01   -0.74331E-03  4649   0.970E-02    0.591E-02
RMM:   6    -0.413167154017E+03   -0.17227E-05   -0.15578E-03  5380   0.396E-02    0.332E-02
RMM:   7    -0.413167169361E+03   -0.15345E-04   -0.31622E-04  5887   0.168E-02    0.195E-02
RMM:   8    -0.413167159810E+03    0.95516E-05   -0.56815E-05  5100   0.892E-03    0.778E-03
RMM:   9    -0.413167154354E+03    0.54558E-05   -0.68947E-06  3252   0.351E-03    0.393E-03
RMM:  10    -0.413167152565E+03    0.17887E-05   -0.15425E-06  2525   0.209E-03    0.245E-03
RMM:  11    -0.413167149597E+03    0.29688E-05   -0.11730E-06  2507   0.172E-03    0.137E-03
RMM:  12    -0.413167146940E+03    0.26565E-05   -0.68428E-07  2450   0.135E-03    0.579E-04
RMM:  13    -0.413167145146E+03    0.17935E-05   -0.35738E-07  2085   0.984E-04    0.339E-04
RMM:  14    -0.413167143429E+03    0.17172E-05   -0.21229E-07  1576   0.778E-04    0.226E-04
RMM:  15    -0.413167140345E+03    0.30838E-05   -0.23720E-07  1547   0.767E-04    0.188E-04
RMM:  16    -0.413167137730E+03    0.26156E-05   -0.16807E-07  1341   0.685E-04    0.150E-04
RMM:  17    -0.413167135286E+03    0.24442E-05   -0.13341E-07  1271   0.654E-04    0.784E-05
RMM:  18    -0.413167133906E+03    0.13792E-05   -0.72220E-08   998   0.577E-04    0.461E-05
RMM:  19    -0.413167133023E+03    0.88345E-06   -0.42309E-08   855   0.546E-04
   13 T=    61. E= -.41286656E+03 F= -.41316713E+03 E0= -.41314483E+03  EK= 0.30058E+00 SP= 0.00E+00 SK= 0.00E+00
       N       E                     dE             d eps       ncg     rms          rms(c)
RMM:   1    -0.413169628537E+03   -0.24946E-02   -0.81873E+00  4294   0.632E-01    0.888E-01
RMM:   2    -0.413172405151E+03   -0.27766E-02   -0.10144E-01  4229   0.824E-02    0.649E-01
RMM:   3    -0.413168963736E+03    0.34414E-02   -0.22823E-02  4978   0.568E-02    0.156E-01
RMM:   4    -0.413201456025E+03   -0.32492E-01   -0.37526E-02  5120   0.162E-01    0.758E-01
RMM:   5    -0.413167562965E+03    0.33893E-01   -0.15871E-02  4791   0.126E-01    0.525E-02
RMM:   6    -0.413167773743E+03   -0.21078E-03   -0.27700E-03  5711   0.520E-02    0.362E-02
RMM:   7    -0.413167761737E+03    0.12006E-04   -0.47974E-04  5624   0.204E-02    0.228E-02
RMM:   8    -0.413167751945E+03    0.97916E-05   -0.67010E-05  5221   0.915E-03    0.103E-02
RMM:   9    -0.413167749209E+03    0.27359E-05   -0.12857E-05  3898   0.405E-03    0.716E-03
RMM:  10    -0.413167749198E+03    0.11696E-07   -0.21457E-06  2576   0.234E-03
   14 T=    61. E= -.41286657E+03 F= -.41316775E+03 E0= -.41314548E+03  EK= 0.30118E+00 SP= 0.00E+00 SK= 0.00E+00
       N       E                     dE             d eps       ncg     rms          rms(c)
RMM:   1    -0.413169675776E+03   -0.19266E-02   -0.82777E+00  4301   0.642E-01    0.895E-01
RMM:   2    -0.413172812657E+03   -0.31369E-02   -0.10256E-01  4314   0.851E-02    0.659E-01
RMM:   3    -0.413176227940E+03   -0.34153E-02   -0.29283E-02  5127   0.966E-02    0.391E-01
RMM:   4    -0.413188254857E+03   -0.12027E-01   -0.38883E-02  5062   0.170E-01    0.593E-01
RMM:   5    -0.413167769643E+03    0.20485E-01   -0.74442E-03  4632   0.979E-02    0.566E-02
RMM:   6    -0.413167784351E+03   -0.14708E-04   -0.15419E-03  5373   0.389E-02    0.316E-02
RMM:   7    -0.413167801581E+03   -0.17230E-04   -0.30138E-04  5874   0.162E-02    0.187E-02
RMM:   8    -0.413167798988E+03    0.25931E-05   -0.52934E-05  5075   0.853E-03    0.741E-03
RMM:   9    -0.413167797673E+03    0.13149E-05   -0.59794E-06  3077   0.330E-03    0.383E-03
RMM:  10    -0.413167798798E+03   -0.11248E-05   -0.14523E-06  2515   0.202E-03    0.238E-03
RMM:  11    -0.413167800018E+03   -0.12204E-05   -0.10845E-06  2489   0.165E-03    0.127E-03
RMM:  12    -0.413167800476E+03   -0.45813E-06   -0.67286E-07  2437   0.131E-03
   15 T=    61. E= -.41286625E+03 F= -.41316780E+03 E0= -.41314557E+03  EK= 0.30155E+00 SP= 0.00E+00 SK= 0.00E+00
       N       E                     dE             d eps       ncg     rms          rms(c)
RMM:   1    -0.413171403164E+03   -0.36031E-02   -0.82624E+00  4295   0.649E-01    0.911E-01
RMM:   2    -0.413173703467E+03   -0.23003E-02   -0.10218E-01  4247   0.854E-02    0.655E-01
RMM:   3    -0.413170032480E+03    0.36710E-02   -0.22339E-02  4972   0.573E-02    0.152E-01
RMM:   4    -0.413203304614E+03   -0.33272E-01   -0.38056E-02  5118   0.163E-01    0.766E-01
RMM:   5    -0.413168695906E+03    0.34609E-01   -0.16176E-02  4784   0.127E-01    0.531E-02
RMM:   6    -0.413168904252E+03   -0.20835E-03   -0.28777E-03  5731   0.531E-02    0.373E-02
RMM:   7    -0.413168886727E+03    0.17525E-04   -0.49902E-04  5668   0.211E-02    0.237E-02
RMM:   8    -0.413168875044E+03    0.11683E-04   -0.70520E-05  5192   0.956E-03    0.110E-02
RMM:   9    -0.413168869177E+03    0.58675E-05   -0.13524E-05  3921   0.420E-03    0.767E-03
RMM:  10    -0.413168865210E+03    0.39668E-05   -0.23501E-06  2599   0.245E-03    0.454E-03
RMM:  11    -0.413168862645E+03    0.25643E-05   -0.11704E-06  2512   0.174E-03    0.263E-03
RMM:  12    -0.413168857415E+03    0.52305E-05   -0.18241E-06  2577   0.206E-03    0.118E-03
RMM:  13    -0.413168854035E+03    0.33801E-05   -0.71810E-07  2431   0.143E-03    0.961E-04
RMM:  14    -0.413168854051E+03   -0.15891E-07   -0.27468E-07  2008   0.921E-04
   16 T=    62. E= -.41286665E+03 F= -.41316885E+03 E0= -.41314666E+03  EK= 0.30220E+00 SP= 0.00E+00 SK= 0.00E+00
       N       E                     dE             d eps       ncg     rms          rms(c)
RMM:   1    -0.413171238489E+03   -0.23845E-02   -0.82054E+00  4295   0.645E-01    0.893E-01
RMM:   2    -0.413174187675E+03   -0.29492E-02   -0.10175E-01  4253   0.860E-02    0.650E-01
RMM:   3    -0.413170200269E+03    0.39874E-02   -0.22286E-02  4922   0.551E-02    0.135E-01
RMM:   4    -0.413200174751E+03   -0.29974E-01   -0.33251E-02  5122   0.152E-01    0.727E-01
RMM:   5    -0.413169149981E+03    0.31025E-01   -0.14742E-02  4785   0.120E-01    0.507E-02
RMM:   6    -0.413169345310E+03   -0.19533E-03   -0.26455E-03  5747   0.502E-02    0.354E-02
RMM:   7    -0.413169336595E+03    0.87148E-05   -0.44511E-04  5617   0.202E-02    0.226E-02
RMM:   8    -0.413169323291E+03    0.13304E-04   -0.67329E-05  5098   0.926E-03    0.109E-02
RMM:   9    -0.413169318324E+03    0.49673E-05   -0.13080E-05  3888   0.414E-03    0.782E-03
RMM:  10    -0.413169315807E+03    0.25167E-05   -0.22073E-06  2579   0.240E-03    0.462E-03
RMM:  11    -0.413169314015E+03    0.17920E-05   -0.12370E-06  2511   0.180E-03    0.258E-03
RMM:  12    -0.413169310674E+03    0.33417E-05   -0.17715E-06  2566   0.203E-03    0.115E-03
RMM:  13    -0.413169308437E+03    0.22364E-05   -0.60117E-07  2389   0.135E-03    0.881E-04
RMM:  14    -0.413169308479E+03   -0.41848E-07   -0.25265E-07  1959   0.881E-04
   17 T=    62. E= -.41286660E+03 F= -.41316931E+03 E0= -.41314715E+03  EK= 0.30271E+00 SP= 0.00E+00 SK= 0.00E+00
       N       E                     dE             d eps       ncg     rms          rms(c)
RMM:   1    -0.413171714048E+03   -0.24056E-02   -0.82959E+00  4296   0.652E-01    0.893E-01
RMM:   2    -0.413174789522E+03   -0.30755E-02   -0.10319E-01  4248   0.863E-02    0.659E-01
RMM:   3    -0.413170892822E+03    0.38967E-02   -0.24135E-02  4926   0.577E-02    0.149E-01
RMM:   4    -0.413201353096E+03   -0.30460E-01   -0.34341E-02  5119   0.155E-01    0.734E-01
RMM:   5    -0.413169668459E+03    0.31685E-01   -0.14989E-02  4783   0.122E-01    0.506E-02
RMM:   6    -0.413169857583E+03   -0.18912E-03   -0.26727E-03  5736   0.506E-02    0.347E-02
RMM:   7    -0.413169856934E+03    0.64961E-06   -0.44516E-04  5628   0.202E-02    0.223E-02
RMM:   8    -0.413169847236E+03    0.96977E-05   -0.66886E-05  5105   0.923E-03    0.106E-02
RMM:   9    -0.413169844342E+03    0.28939E-05   -0.13071E-05  3886   0.417E-03    0.756E-03
RMM:  10    -0.413169844680E+03   -0.33742E-06   -0.21636E-06  2582   0.240E-03
   18 T=    62. E= -.41286657E+03 F= -.41316984E+03 E0= -.41314773E+03  EK= 0.30328E+00 SP= 0.00E+00 SK= 0.00E+00
       N       E                     dE             d eps       ncg     rms          rms(c)
RMM:   1    -0.413173295339E+03   -0.34510E-02   -0.82937E+00  4299   0.656E-01    0.911E-01
RMM:   2    -0.413175665157E+03   -0.23698E-02   -0.10297E-01  4333   0.862E-02    0.658E-01
RMM:   3    -0.413178991253E+03   -0.33261E-02   -0.27727E-02  5133   0.943E-02    0.380E-01
RMM:   4    -0.413191097894E+03   -0.12107E-01   -0.37869E-02  5062   0.167E-01    0.586E-01
RMM:   5    -0.413171004435E+03    0.20093E-01   -0.71740E-03  4640   0.959E-02    0.568E-02
RMM:   6    -0.413171018567E+03   -0.14132E-04   -0.15619E-03  5401   0.389E-02    0.331E-02
RMM:   7    -0.413171016666E+03    0.19006E-05   -0.30549E-04  5827   0.166E-02    0.192E-02
RMM:   8    -0.413171008567E+03    0.80995E-05   -0.52356E-05  5036   0.873E-03    0.761E-03
RMM:   9    -0.413171003755E+03    0.48119E-05   -0.65655E-06  3148   0.340E-03    0.398E-03
RMM:  10    -0.413171001271E+03    0.24837E-05   -0.14943E-06  2512   0.206E-03    0.245E-03
RMM:  11    -0.413170997926E+03    0.33445E-05   -0.99695E-07  2477   0.163E-03    0.128E-03
RMM:  12    -0.413170994272E+03    0.36545E-05   -0.66415E-07  2444   0.132E-03    0.526E-04
RMM:  13    -0.413170992020E+03    0.22521E-05   -0.33694E-07  2049   0.969E-04    0.317E-04
RMM:  14    -0.413170989955E+03    0.20648E-05   -0.19132E-07  1526   0.763E-04    0.208E-04
RMM:  15    -0.413170985893E+03    0.40619E-05   -0.19891E-07  1547   0.754E-04    0.209E-04
RMM:  16    -0.413170982767E+03    0.31263E-05   -0.12887E-07  1238   0.657E-04    0.160E-04
RMM:  17    -0.413170980044E+03    0.27229E-05   -0.10047E-07  1180   0.630E-04    0.748E-05
RMM:  18    -0.413170977754E+03    0.22900E-05   -0.70853E-08  1044   0.594E-04    0.450E-05
RMM:  19    -0.413170976927E+03    0.82731E-06   -0.33932E-08   817   0.549E-04
   19 T=    62. E= -.41286682E+03 F= -.41317098E+03 E0= -.41314890E+03  EK= 0.30416E+00 SP= 0.00E+00 SK= 0.00E+00
       N       E                     dE             d eps       ncg     rms          rms(c)
RMM:   1    -0.413175130605E+03   -0.41529E-02   -0.82659E+00  4295   0.682E-01    0.901E-01
RMM:   2    -0.413175869000E+03   -0.73839E-03   -0.10458E-01  4249   0.881E-02    0.652E-01
RMM:   3    -0.413172633349E+03    0.32357E-02   -0.22116E-02  4993   0.570E-02    0.156E-01
RMM:   4    -0.413206757499E+03   -0.34124E-01   -0.39510E-02  5121   0.166E-01    0.775E-01
RMM:   5    -0.413171233807E+03    0.35524E-01   -0.16675E-02  4783   0.129E-01    0.538E-02
RMM:   6    -0.413171436064E+03   -0.20226E-03   -0.29591E-03  5709   0.536E-02    0.373E-02
RMM:   7    -0.413171422767E+03    0.13297E-04   -0.50349E-04  5630   0.211E-02    0.237E-02
RMM:   8    -0.413171410303E+03    0.12464E-04   -0.73129E-05  5236   0.968E-03    0.109E-02
RMM:   9    -0.413171404643E+03    0.56603E-05   -0.14188E-05  4015   0.430E-03    0.750E-03
RMM:  10    -0.413171401196E+03    0.34470E-05   -0.23224E-06  2594   0.242E-03    0.453E-03
RMM:  11    -0.413171399170E+03    0.20257E-05   -0.10456E-06  2499   0.167E-03    0.272E-03
RMM:  12    -0.413171394858E+03    0.43114E-05   -0.16637E-06  2540   0.201E-03    0.121E-03
RMM:  13    -0.413171392171E+03    0.26875E-05   -0.73175E-07  2410   0.144E-03    0.954E-04
RMM:  14    -0.413171391939E+03    0.23181E-06   -0.28827E-07  2045   0.945E-04
   20 T=    62. E= -.41286649E+03 F= -.41317139E+03 E0= -.41314936E+03  EK= 0.30490E+00 SP= 0.00E+00 SK= 0.00E+00
       N       E                     dE             d eps       ncg     rms          rms(c)
RMM:   1    -0.413174410359E+03   -0.30182E-02   -0.83205E+00  4293   0.665E-01    0.893E-01
RMM:   2    -0.413177395966E+03   -0.29856E-02   -0.10380E-01  4257   0.868E-02    0.659E-01
RMM:   3    -0.413173408238E+03    0.39877E-02   -0.23951E-02  4923   0.551E-02    0.139E-01
RMM:   4    -0.413202087306E+03   -0.28679E-01   -0.31822E-02  5125   0.149E-01    0.712E-01
RMM:   5    -0.413172332088E+03    0.29755E-01   -0.14186E-02  4785   0.118E-01    0.497E-02
RMM:   6    -0.413172518703E+03   -0.18662E-03   -0.25478E-03  5771   0.490E-02    0.336E-02
RMM:   7    -0.413172516994E+03    0.17085E-05   -0.41074E-04  5617   0.197E-02    0.216E-02
RMM:   8    -0.413172508411E+03    0.85834E-05   -0.68199E-05  5064   0.917E-03    0.108E-02
RMM:   9    -0.413172504994E+03    0.34167E-05   -0.13049E-05  3927   0.415E-03    0.778E-03
RMM:  10    -0.413172504451E+03    0.54280E-06   -0.20726E-06  2559   0.234E-03
   21 T=    62. E= -.41286656E+03 F= -.41317250E+03 E0= -.41315052E+03  EK= 0.30594E+00 SP= 0.00E+00 SK= 0.00E+00
       N       E                     dE             d eps       ncg     rms          rms(c)
RMM:   1    -0.413176157261E+03   -0.36523E-02   -0.83518E+00  4299   0.676E-01    0.910E-01
RMM:   2    -0.413178566255E+03   -0.24090E-02   -0.10375E-01  4342   0.866E-02    0.662E-01
RMM:   3    -0.413181659442E+03   -0.30932E-02   -0.28266E-02  5129   0.948E-02    0.381E-01
RMM:   4    -0.413194493580E+03   -0.12834E-01   -0.38949E-02  5062   0.170E-01    0.597E-01
RMM:   5    -0.413173620724E+03    0.20873E-01   -0.75199E-03  4639   0.980E-02    0.564E-02
RMM:   6    -0.413173642880E+03   -0.22156E-04   -0.16145E-03  5411   0.396E-02    0.329E-02
RMM:   7    -0.413173642628E+03    0.25112E-06   -0.31271E-04  5791   0.166E-02    0.193E-02
RMM:   8    -0.413173636282E+03    0.63465E-05   -0.52971E-05  5052   0.862E-03    0.767E-03
RMM:   9    -0.413173631352E+03    0.49301E-05   -0.65260E-06  3134   0.334E-03    0.403E-03
RMM:  10    -0.413173628909E+03    0.24429E-05   -0.15252E-06  2517   0.207E-03    0.249E-03
RMM:  11    -0.413173625766E+03    0.31431E-05   -0.97100E-07  2475   0.161E-03    0.129E-03
RMM:  12    -0.413173622129E+03    0.36366E-05   -0.65954E-07  2438   0.131E-03    0.507E-04
RMM:  13    -0.413173619950E+03    0.21793E-05   -0.32841E-07  2032   0.962E-04    0.311E-04
RMM:  14    -0.413173617905E+03    0.20448E-05   -0.18541E-07  1541   0.759E-04    0.199E-04
RMM:  15    -0.413173614006E+03    0.38990E-05   -0.17176E-07  1480   0.731E-04    0.197E-04
RMM:  16    -0.413173610961E+03    0.30452E-05   -0.11171E-07  1177   0.648E-04    0.164E-04
RMM:  17    -0.413173608332E+03    0.26285E-05   -0.85450E-08  1125   0.618E-04    0.773E-05
RMM:  18    -0.413173605899E+03    0.24335E-05   -0.63600E-08  1036   0.592E-04    0.384E-05
RMM:  19    -0.413173604757E+03    0.11416E-05   -0.30923E-08   809   0.552E-04    0.330E-05
RMM:  20    -0.413173604295E+03    0.46259E-06   -0.16601E-08   727   0.540E-04
   22 T=    62. E= -.41286665E+03 F= -.41317360E+03 E0= -.41315166E+03  EK= 0.30696E+00 SP= 0.00E+00 SK= 0.00E+00
       N       E                     dE             d eps       ncg     rms          rms(c)
RMM:   1    -0.413180055143E+03   -0.64504E-02   -0.83541E+00  4293   0.710E-01    0.909E-01
RMM:   2    -0.413179240789E+03    0.81435E-03   -0.11192E-01  4280   0.897E-02    0.657E-01
RMM:   3    -0.413175231972E+03    0.40088E-02   -0.21144E-02  4948   0.547E-02    0.139E-01
RMM:   4    -0.413209601074E+03   -0.34369E-01   -0.38290E-02  5125   0.163E-01    0.775E-01
RMM:   5    -0.413174135806E+03    0.35465E-01   -0.16936E-02  4787   0.129E-01    0.533E-02
RMM:   6    -0.413174334879E+03   -0.19907E-03   -0.29784E-03  5745   0.534E-02    0.374E-02
RMM:   7    -0.413174325447E+03    0.94323E-05   -0.49833E-04  5626   0.213E-02    0.238E-02
RMM:   8    -0.413174312351E+03    0.13096E-04   -0.75999E-05  5209   0.983E-03    0.114E-02
RMM:   9    -0.413174305664E+03    0.66865E-05   -0.14686E-05  4084   0.438E-03    0.798E-03
RMM:  10    -0.413174301159E+03    0.45057E-05   -0.23408E-06  2598   0.245E-03    0.481E-03
RMM:  11    -0.413174298252E+03    0.29063E-05   -0.11719E-06  2506   0.175E-03    0.283E-03
RMM:  12    -0.413174292498E+03    0.57540E-05   -0.18909E-06  2573   0.211E-03    0.124E-03
RMM:  13    -0.413174288778E+03    0.37202E-05   -0.71798E-07  2407   0.145E-03    0.103E-03
RMM:  14    -0.413174288944E+03   -0.16608E-06   -0.28585E-07  2035   0.936E-04
   23 T=    63. E= -.41286651E+03 F= -.41317429E+03 E0= -.41315239E+03  EK= 0.30778E+00 SP= 0.00E+00 SK= 0.00E+00
       N       E                     dE             d eps       ncg     rms          rms(c)
RMM:   1    -0.413177853834E+03   -0.35651E-02   -0.83484E+00  4295   0.674E-01    0.895E-01
RMM:   2    -0.413181179596E+03   -0.33258E-02   -0.10419E-01  4280   0.887E-02    0.659E-01
RMM:   3    -0.413176637293E+03    0.45423E-02   -0.23715E-02  4859   0.574E-02    0.127E-01
RMM:   4    -0.413202759933E+03   -0.26123E-01   -0.28285E-02  5116   0.141E-01    0.679E-01
RMM:   5    -0.413175753686E+03    0.27006E-01   -0.12972E-02  4791   0.113E-01    0.485E-02
RMM:   6    -0.413175918712E+03   -0.16503E-03   -0.23463E-03  5808   0.461E-02    0.320E-02
RMM:   7    -0.413175919407E+03   -0.69437E-06   -0.33942E-04  5634   0.184E-02    0.195E-02
RMM:   8    -0.413175909513E+03    0.98939E-05   -0.65898E-05  5004   0.878E-03    0.108E-02
RMM:   9    -0.413175904714E+03    0.47991E-05   -0.12496E-05  3955   0.414E-03    0.786E-03
RMM:  10    -0.413175903068E+03    0.16456E-05   -0.19742E-06  2558   0.234E-03    0.467E-03
RMM:  11    -0.413175901688E+03    0.13797E-05   -0.14882E-06  2523   0.194E-03    0.245E-03
RMM:  12    -0.413175899485E+03    0.22032E-05   -0.15815E-06  2533   0.193E-03    0.109E-03
RMM:  13    -0.413175898230E+03    0.12553E-05   -0.49927E-07  2318   0.126E-03    0.680E-04
RMM:  14    -0.413175897887E+03    0.34313E-06   -0.23187E-07  1868   0.845E-04
   24 T=    63. E= -.41286693E+03 F= -.41317590E+03 E0= -.41315405E+03  EK= 0.30897E+00 SP= 0.00E+00 SK= 0.00E+00
       N       E                     dE             d eps       ncg     rms          rms(c)
RMM:   1    -0.413179140633E+03   -0.32424E-02   -0.84103E+00  4294   0.679E-01    0.909E-01
RMM:   2    -0.413182035775E+03   -0.28951E-02   -0.10486E-01  4279   0.896E-02    0.666E-01
RMM:   3    -0.413177717358E+03    0.43184E-02   -0.23693E-02  4884   0.580E-02    0.131E-01
RMM:   4    -0.413206212792E+03   -0.28495E-01   -0.31114E-02  5119   0.148E-01    0.708E-01
RMM:   5    -0.413176765081E+03    0.29448E-01   -0.14041E-02  4790   0.118E-01    0.502E-02
RMM:   6    -0.413176937887E+03   -0.17281E-03   -0.25770E-03  5794   0.487E-02    0.348E-02
RMM:   7    -0.413176927955E+03    0.99323E-05   -0.42407E-04  5594   0.202E-02    0.221E-02
RMM:   8    -0.413176915155E+03    0.12800E-04   -0.66572E-05  5074   0.932E-03    0.110E-02
RMM:   9    -0.413176909980E+03    0.51747E-05   -0.13173E-05  3918   0.416E-03    0.788E-03
RMM:  10    -0.413176907141E+03    0.28388E-05   -0.21112E-06  2568   0.238E-03    0.467E-03
RMM:  11    -0.413176905085E+03    0.20565E-05   -0.12894E-06  2515   0.183E-03    0.258E-03
RMM:  12    -0.413176901498E+03    0.35868E-05   -0.16790E-06  2540   0.200E-03    0.113E-03
RMM:  13    -0.413176899183E+03    0.23149E-05   -0.56899E-07  2370   0.133E-03    0.820E-04
RMM:  14    -0.413176899058E+03    0.12455E-06   -0.25263E-07  1950   0.875E-04
   25 T=    63. E= -.41286684E+03 F= -.41317690E+03 E0= -.41315510E+03  EK= 0.31006E+00 SP= 0.00E+00 SK= 0.00E+00
       N       E                     dE             d eps       ncg     rms          rms(c)
RMM:   1    -0.413185920425E+03   -0.90212E-02   -0.84501E+00  4292   0.743E-01    0.919E-01
RMM:   2    -0.413183029194E+03    0.28912E-02   -0.11180E-01  4282   0.958E-02    0.662E-01
RMM:   3    -0.413178752910E+03    0.42763E-02   -0.21432E-02  4857   0.544E-02    0.111E-01
RMM:   4    -0.413205696265E+03   -0.26943E-01   -0.28510E-02  5124   0.141E-01    0.687E-01
RMM:   5    -0.413178088489E+03    0.27608E-01   -0.13431E-02  4794   0.114E-01    0.498E-02
RMM:   6    -0.413178236397E+03   -0.14791E-03   -0.24261E-03  5815   0.470E-02    0.340E-02
RMM:   7    -0.413178228748E+03    0.76487E-05   -0.36435E-04  5616   0.193E-02    0.205E-02
RMM:   8    -0.413178216012E+03    0.12736E-04   -0.68086E-05  5007   0.908E-03    0.113E-02
RMM:   9    -0.413178208929E+03    0.70833E-05   -0.13284E-05  4008   0.422E-03    0.820E-03
RMM:  10    -0.413178203577E+03    0.53523E-05   -0.21343E-06  2580   0.241E-03    0.483E-03
RMM:  11    -0.413178198890E+03    0.46865E-05   -0.14700E-06  2528   0.194E-03    0.263E-03
RMM:  12    -0.413178191669E+03    0.72208E-05   -0.17381E-06  2554   0.203E-03    0.114E-03
RMM:  13    -0.413178187864E+03    0.38059E-05   -0.55287E-07  2348   0.132E-03    0.743E-04
RMM:  14    -0.413178187632E+03    0.23171E-06   -0.25654E-07  1921   0.877E-04
   26 T=    63. E= -.41286682E+03 F= -.41317819E+03 E0= -.41315644E+03  EK= 0.31137E+00 SP= 0.00E+00 SK= 0.00E+00
       N       E                     dE             d eps       ncg     rms          rms(c)
RMM:   1    -0.413185328716E+03   -0.71409E-02   -0.84260E+00  4294   0.723E-01    0.901E-01
RMM:   2    -0.413184915733E+03    0.41298E-03   -0.10516E-01  4277   0.932E-02    0.661E-01
RMM:   3    -0.413180671788E+03    0.42439E-02   -0.23431E-02  4842   0.567E-02    0.117E-01
RMM:   4    -0.413204956199E+03   -0.24284E-01   -0.25811E-02  5123   0.135E-01    0.655E-01
RMM:   5    -0.413179928565E+03    0.25028E-01   -0.12135E-02  4795   0.108E-01    0.480E-02
RMM:   6    -0.413180070742E+03   -0.14218E-03   -0.21876E-03  5819   0.446E-02    0.321E-02
RMM:   7    -0.413180068503E+03    0.22393E-05   -0.32666E-04  5607   0.183E-02    0.194E-02
RMM:   8    -0.413180058569E+03    0.99338E-05   -0.61083E-05  4974   0.867E-03    0.107E-02
RMM:   9    -0.413180053168E+03    0.54007E-05   -0.11708E-05  3830   0.402E-03    0.773E-03
RMM:  10    -0.413180050137E+03    0.30310E-05   -0.19755E-06  2560   0.236E-03    0.451E-03
RMM:  11    -0.413180047414E+03    0.27232E-05   -0.14792E-06  2527   0.194E-03    0.232E-03
RMM:  12    -0.413180043570E+03    0.38438E-05   -0.14038E-06  2513   0.186E-03    0.101E-03
RMM:  13    -0.413180041579E+03    0.19912E-05   -0.47949E-07  2305   0.122E-03    0.637E-04
RMM:  14    -0.413180041082E+03    0.49702E-06   -0.22410E-07  1809   0.832E-04
   27 T=    64. E= -.41286707E+03 F= -.41318004E+03 E0= -.41315834E+03  EK= 0.31297E+00 SP= 0.00E+00 SK= 0.00E+00
       N       E                     dE             d eps       ncg     rms          rms(c)
RMM:   1    -0.413183535135E+03   -0.34936E-02   -0.84996E+00  4294   0.708E-01    0.910E-01
RMM:   2    -0.413186156161E+03   -0.26210E-02   -0.10748E-01  4276   0.966E-02    0.671E-01
RMM:   3    -0.413181706481E+03    0.44497E-02   -0.24320E-02  4826   0.574E-02    0.119E-01
RMM:   4    -0.413205560680E+03   -0.23854E-01   -0.25342E-02  5134   0.134E-01    0.650E-01
RMM:   5    -0.413180941321E+03    0.24619E-01   -0.11965E-02  4796   0.108E-01    0.478E-02
RMM:   6    -0.413181084308E+03   -0.14299E-03   -0.21623E-03  5826   0.444E-02    0.323E-02
RMM:   7    -0.413181082609E+03    0.16991E-05   -0.33637E-04  5601   0.185E-02    0.197E-02
RMM:   8    -0.413181073039E+03    0.95693E-05   -0.60057E-05  4962   0.866E-03    0.106E-02
RMM:   9    -0.413181068549E+03    0.44905E-05   -0.11576E-05  3791   0.398E-03    0.765E-03
RMM:  10    -0.413181066503E+03    0.20461E-05   -0.19785E-06  2552   0.236E-03    0.445E-03
RMM:  11    -0.413181064646E+03    0.18567E-05   -0.14693E-06  2524   0.194E-03    0.228E-03
RMM:  12    -0.413181061930E+03    0.27160E-05   -0.14175E-06  2514   0.187E-03    0.103E-03
RMM:  13    -0.413181060460E+03    0.14695E-05   -0.48851E-07  2327   0.123E-03    0.656E-04
RMM:  14    -0.413181059938E+03    0.52288E-06   -0.22642E-07  1824   0.836E-04
   28 T=    64. E= -.41286665E+03 F= -.41318106E+03 E0= -.41315941E+03  EK= 0.31441E+00 SP= 0.00E+00 SK= 0.00E+00
       N       E                     dE             d eps       ncg     rms          rms(c)
RMM:   1    -0.413191151711E+03   -0.10091E-01   -0.85535E+00  4292   0.776E-01    0.927E-01
RMM:   2    -0.413188181982E+03    0.29697E-02   -0.10939E-01  4273   0.101E-01    0.668E-01
RMM:   3    -0.413183477896E+03    0.47041E-02   -0.22528E-02  4694   0.536E-02    0.907E-02
RMM:   4    -0.413200027897E+03   -0.16550E-01   -0.16959E-02  5139   0.109E-01    0.542E-01
RMM:   5    -0.413183085315E+03    0.16943E-01   -0.84073E-03  4813   0.891E-02    0.459E-02
RMM:   6    -0.413183170595E+03   -0.85279E-04   -0.15477E-03  5845   0.369E-02    0.294E-02
RMM:   7    -0.413183163452E+03    0.71427E-05   -0.18269E-04  5491   0.148E-02    0.139E-02
RMM:   8    -0.413183157044E+03    0.64079E-05   -0.27757E-05  4558   0.569E-03    0.881E-03
RMM:   9    -0.413183152482E+03    0.45621E-05   -0.68504E-06  3291   0.304E-03    0.644E-03
RMM:  10    -0.413183148680E+03    0.38019E-05   -0.16107E-06  2529   0.217E-03    0.383E-03
RMM:  11    -0.413183142847E+03    0.58328E-05   -0.17220E-06  2552   0.205E-03    0.196E-03
RMM:  12    -0.413183136689E+03    0.61579E-05   -0.11120E-06  2481   0.172E-03    0.114E-03
RMM:  13    -0.413183134798E+03    0.18916E-05   -0.38961E-07  2254   0.112E-03    0.637E-04
RMM:  14    -0.413183133716E+03    0.10815E-05   -0.17975E-07  1683   0.768E-04    0.489E-04
RMM:  15    -0.413183128099E+03    0.56171E-05   -0.25866E-07  2277   0.893E-04    0.652E-04
RMM:  16    -0.413183124561E+03    0.35379E-05   -0.10970E-07  1385   0.657E-04    0.542E-04
RMM:  17    -0.413183123694E+03    0.86738E-06   -0.32632E-08   834   0.526E-04
   29 T=    64. E= -.41286691E+03 F= -.41318312E+03 E0= -.41316153E+03  EK= 0.31622E+00 SP= 0.00E+00 SK= 0.00E+00
       N       E                     dE             d eps       ncg     rms          rms(c)
RMM:   1    -0.413188354101E+03   -0.52295E-02   -0.84856E+00  4291   0.737E-01    0.909E-01
RMM:   2    -0.413190341022E+03   -0.19869E-02   -0.10800E-01  4275   0.104E-01    0.664E-01
RMM:   3    -0.413185437430E+03    0.49036E-02   -0.23125E-02  4712   0.601E-02    0.102E-01
RMM:   4    -0.413205680455E+03   -0.20243E-01   -0.20967E-02  5135   0.121E-01    0.599E-01
RMM:   5    -0.413184886379E+03    0.20794E-01   -0.10276E-02  4803   0.987E-02    0.466E-02
RMM:   6    -0.413184994699E+03   -0.10832E-03   -0.18318E-03  5847   0.402E-02    0.300E-02
RMM:   7    -0.413184992285E+03    0.24144E-05   -0.21410E-04  5535   0.153E-02    0.144E-02
RMM:   8    -0.413184985719E+03    0.65659E-05   -0.28435E-05  4532   0.572E-03    0.874E-03
RMM:   9    -0.413184981728E+03    0.39910E-05   -0.59323E-06  3097   0.294E-03    0.541E-03
RMM:  10    -0.413184980552E+03    0.11763E-05   -0.14520E-06  2523   0.193E-03    0.386E-03
RMM:  11    -0.413184976430E+03    0.41214E-05   -0.17105E-06  2526   0.216E-03    0.206E-03
RMM:  12    -0.413184973150E+03    0.32804E-05   -0.11549E-06  2475   0.173E-03    0.128E-03
RMM:  13    -0.413184971955E+03    0.11953E-05   -0.37856E-07  2290   0.112E-03    0.644E-04
RMM:  14    -0.413184970999E+03    0.95593E-06   -0.17223E-07  1647   0.760E-04
   30 T=    65. E= -.41286693E+03 F= -.41318497E+03 E0= -.41316342E+03  EK= 0.31804E+00 SP= 0.00E+00 SK= 0.00E+00
       N       E                     dE             d eps       ncg     rms          rms(c)
RMM:   1    -0.413191108528E+03   -0.61366E-02   -0.86186E+00  4293   0.768E-01    0.913E-01
RMM:   2    -0.413192450151E+03   -0.13416E-02   -0.11266E-01  4273   0.111E-01    0.676E-01
RMM:   3    -0.413187093343E+03    0.53568E-02   -0.24574E-02  4632   0.644E-02    0.101E-01
RMM:   4    -0.413203748942E+03   -0.16656E-01   -0.17069E-02  5138   0.111E-01    0.546E-01
RMM:   5    -0.413186598823E+03    0.17150E-01   -0.84750E-03  4804   0.895E-02    0.449E-02
RMM:   6    -0.413186687677E+03   -0.88854E-04   -0.15528E-03  5847   0.367E-02    0.288E-02
RMM:   7    -0.413186691462E+03   -0.37851E-05   -0.19911E-04  5490   0.150E-02    0.149E-02
RMM:   8    -0.413186683172E+03    0.82902E-05   -0.31170E-05  4670   0.607E-03    0.870E-03
RMM:   9    -0.413186682934E+03    0.23813E-06   -0.84037E-06  3532   0.335E-03
   31 T=    65. E= -.41286678E+03 F= -.41318668E+03 E0= -.41316519E+03  EK= 0.31990E+00 SP= 0.00E+00 SK= 0.00E+00
       N       E                     dE             d eps       ncg     rms          rms(c)
RMM:   1    -0.413197939000E+03   -0.11256E-01   -0.86723E+00  4297   0.793E-01    0.932E-01
RMM:   2    -0.413194762724E+03    0.31763E-02   -0.12130E-01  4300   0.115E-01    0.676E-01
RMM:   3    -0.413193943470E+03    0.81925E-03   -0.24748E-02  5039   0.919E-02    0.293E-01
RMM:   4    -0.413222115287E+03   -0.28172E-01   -0.45893E-02  5070   0.182E-01    0.744E-01
RMM:   5    -0.413189163670E+03    0.32952E-01   -0.13481E-02  4720   0.121E-01    0.590E-02
RMM:   6    -0.413189281647E+03   -0.11798E-03   -0.27150E-03  5694   0.500E-02    0.363E-02
RMM:   7    -0.413189286945E+03   -0.52973E-05   -0.45953E-04  5743   0.198E-02    0.236E-02
RMM:   8    -0.413189280370E+03    0.65751E-05   -0.81985E-05  5136   0.104E-02    0.104E-02
RMM:   9    -0.413189271870E+03    0.84999E-05   -0.12237E-05  3847   0.439E-03    0.533E-03
RMM:  10    -0.413189266735E+03    0.51352E-05   -0.26526E-06  2654   0.244E-03    0.343E-03
RMM:  11    -0.413189261485E+03    0.52494E-05   -0.11655E-06  2499   0.179E-03    0.179E-03
RMM:  12    -0.413189253894E+03    0.75913E-05   -0.96711E-07  2475   0.158E-03    0.651E-04
RMM:  13    -0.413189249989E+03    0.39049E-05   -0.48015E-07  2300   0.116E-03    0.416E-04
RMM:  14    -0.413189247869E+03    0.21197E-05   -0.25095E-07  1848   0.854E-04    0.320E-04
RMM:  15    -0.413189242433E+03    0.54367E-05   -0.17784E-07  1570   0.761E-04    0.210E-04
RMM:  16    -0.413189237374E+03    0.50586E-05   -0.12005E-07  1267   0.676E-04    0.223E-04
RMM:  17    -0.413189232950E+03    0.44240E-05   -0.89405E-08  1151   0.632E-04    0.143E-04
RMM:  18    -0.413189230489E+03    0.24615E-05   -0.59874E-08  1037   0.602E-04    0.577E-05
RMM:  19    -0.413189227430E+03    0.30589E-05   -0.56725E-08  1159   0.610E-04    0.471E-05
RMM:  20    -0.413189227156E+03    0.27316E-06   -0.21328E-08   758   0.539E-04
   32 T=    66. E= -.41286708E+03 F= -.41318923E+03 E0= -.41316778E+03  EK= 0.32215E+00 SP= 0.00E+00 SK= 0.00E+00
       N       E                     dE             d eps       ncg     rms          rms(c)
RMM:   1    -0.413197226136E+03   -0.79987E-02   -0.86271E+00  4298   0.808E-01    0.921E-01
RMM:   2    -0.413196326514E+03    0.89962E-03   -0.11645E-01  4276   0.118E-01    0.671E-01
RMM:   3    -0.413191325382E+03    0.50011E-02   -0.22651E-02  4485   0.677E-02    0.757E-02
RMM:   4    -0.413200224720E+03   -0.88993E-02   -0.90030E-03  5142   0.802E-02    0.401E-01
RMM:   5    -0.413191120587E+03    0.91041E-02   -0.45983E-03  4820   0.657E-02    0.434E-02
RMM:   6    -0.413191175580E+03   -0.54992E-04   -0.10462E-03  5773   0.295E-02    0.299E-02
RMM:   7    -0.413191167639E+03    0.79404E-05   -0.26753E-04  5328   0.167E-02    0.194E-02
RMM:   8    -0.413191150435E+03    0.17205E-04   -0.26368E-05  4546   0.648E-03    0.860E-03
RMM:   9    -0.413191147957E+03    0.24770E-05   -0.47240E-06  2909   0.274E-03    0.589E-03
RMM:  10    -0.413191144089E+03    0.38681E-05   -0.16964E-06  2522   0.212E-03    0.313E-03
RMM:  11    -0.413191140182E+03    0.39076E-05   -0.11239E-06  2473   0.176E-03    0.156E-03
RMM:  12    -0.413191136458E+03    0.37242E-05   -0.64384E-07  2382   0.134E-03    0.765E-04
RMM:  13    -0.413191134403E+03    0.20541E-05   -0.32401E-07  2005   0.963E-04    0.360E-04
RMM:  14    -0.413191132012E+03    0.23913E-05   -0.17503E-07  1581   0.757E-04    0.230E-04
RMM:  15    -0.413191128471E+03    0.35411E-05   -0.10533E-07  1264   0.671E-04    0.128E-04
RMM:  16    -0.413191125461E+03    0.30104E-05   -0.65209E-08  1029   0.623E-04    0.860E-05
RMM:  17    -0.413191122855E+03    0.26051E-05   -0.43207E-08   927   0.598E-04    0.512E-05
RMM:  18    -0.413191118953E+03    0.39026E-05   -0.56328E-08  1146   0.623E-04    0.525E-05
RMM:  19    -0.413191118141E+03    0.81148E-06   -0.19765E-08   771   0.551E-04
   33 T=    66. E= -.41286687E+03 F= -.41319112E+03 E0= -.41316972E+03  EK= 0.32425E+00 SP= 0.00E+00 SK= 0.00E+00
       N       E                     dE             d eps       ncg     rms          rms(c)
RMM:   1    -0.413201720959E+03   -0.10602E-01   -0.87638E+00  4305   0.812E-01    0.916E-01
RMM:   2    -0.413198968101E+03    0.27529E-02   -0.12570E-01  4276   0.123E-01    0.682E-01
RMM:   3    -0.413193612064E+03    0.53560E-02   -0.23192E-02  4356   0.715E-02    0.664E-02
RMM:   4    -0.413197179465E+03   -0.35674E-02   -0.37158E-03  5150   0.524E-02    0.258E-01
RMM:   5    -0.413193498327E+03    0.36811E-02   -0.19210E-03  4826   0.426E-02    0.411E-02
RMM:   6    -0.413193545098E+03   -0.46772E-04   -0.66102E-04  5620   0.241E-02    0.310E-02
RMM:   7    -0.413193519463E+03    0.25635E-04   -0.23463E-04  5107   0.162E-02    0.188E-02
RMM:   8    -0.413193509819E+03    0.96445E-05   -0.25342E-05  4419   0.572E-03    0.703E-03
RMM:   9    -0.413193508997E+03    0.82133E-06   -0.27907E-06  2622   0.228E-03
   34 T=    66. E= -.41286694E+03 F= -.41319351E+03 E0= -.41317216E+03  EK= 0.32657E+00 SP= 0.00E+00 SK= 0.00E+00
       N       E                     dE             d eps       ncg     rms          rms(c)
RMM:   1    -0.413204051165E+03   -0.10541E-01   -0.87961E+00  4304   0.829E-01    0.940E-01
RMM:   2    -0.413201201942E+03    0.28492E-02   -0.11746E-01  4274   0.125E-01    0.684E-01
RMM:   3    -0.413197003756E+03    0.41982E-02   -0.24111E-02  4709   0.824E-02    0.128E-01
RMM:   4    -0.413228907147E+03   -0.31903E-01   -0.33738E-02  5118   0.154E-01    0.747E-01
RMM:   5    -0.413196063464E+03    0.32844E-01   -0.16046E-02  4798   0.124E-01    0.517E-02
RMM:   6    -0.413196222808E+03   -0.15934E-03   -0.27896E-03  5822   0.500E-02    0.344E-02
RMM:   7    -0.413196226645E+03   -0.38372E-05   -0.33759E-04  5561   0.182E-02    0.175E-02
RMM:   8    -0.413196214997E+03    0.11648E-04   -0.41714E-05  4720   0.685E-03    0.965E-03
RMM:   9    -0.413196213309E+03    0.16877E-05   -0.15302E-05  4206   0.414E-03    0.789E-03
RMM:  10    -0.413196207472E+03    0.58368E-05   -0.28710E-06  2701   0.256E-03    0.473E-03
RMM:  11    -0.413196203110E+03    0.43626E-05   -0.16791E-06  2537   0.205E-03    0.274E-03
RMM:  12    -0.413196194603E+03    0.85069E-05   -0.21760E-06  2591   0.227E-03    0.131E-03
RMM:  13    -0.413196191837E+03    0.27659E-05   -0.56244E-07  2410   0.140E-03    0.803E-04
RMM:  14    -0.413196191285E+03    0.55208E-06   -0.23720E-07  2006   0.877E-04
   35 T=    67. E= -.41286709E+03 F= -.41319619E+03 E0= -.41317488E+03  EK= 0.32911E+00 SP= 0.00E+00 SK= 0.00E+00
       N       E                     dE             d eps       ncg     rms          rms(c)
RMM:   1    -0.413214914936E+03   -0.18723E-01   -0.88763E+00  4301   0.941E-01    0.937E-01
RMM:   2    -0.413203252816E+03    0.11662E-01   -0.12787E-01  4263   0.137E-01    0.680E-01
RMM:   3    -0.413198465587E+03    0.47872E-02   -0.22068E-02  4414   0.748E-02    0.724E-02
RMM:   4    -0.413205108304E+03   -0.66427E-02   -0.67659E-03  5164   0.696E-02    0.348E-01
RMM:   5    -0.413198372198E+03    0.67361E-02   -0.34914E-03  4828   0.577E-02    0.437E-02
RMM:   6    -0.413198407149E+03   -0.34952E-04   -0.89086E-04  5703   0.289E-02    0.312E-02
RMM:   7    -0.413198390062E+03    0.17088E-04   -0.26980E-04  5225   0.172E-02    0.196E-02
RMM:   8    -0.413198374838E+03    0.15223E-04   -0.27930E-05  4657   0.638E-03    0.861E-03
RMM:   9    -0.413198371968E+03    0.28703E-05   -0.42590E-06  2790   0.266E-03    0.528E-03
RMM:  10    -0.413198366330E+03    0.56378E-05   -0.15316E-06  2500   0.208E-03    0.281E-03
RMM:  11    -0.413198360448E+03    0.58819E-05   -0.99443E-07  2456   0.163E-03    0.137E-03
RMM:  12    -0.413198354769E+03    0.56797E-05   -0.55126E-07  2292   0.125E-03    0.650E-04
RMM:  13    -0.413198351041E+03    0.37274E-05   -0.29061E-07  1893   0.918E-04    0.326E-04
RMM:  14    -0.413198346831E+03    0.42108E-05   -0.15226E-07  1386   0.726E-04    0.230E-04
RMM:  15    -0.413198341272E+03    0.55584E-05   -0.93731E-08  1078   0.655E-04    0.132E-04
RMM:  16    -0.413198336797E+03    0.44751E-05   -0.68436E-08  1004   0.626E-04    0.862E-05
RMM:  17    -0.413198332793E+03    0.40045E-05   -0.52644E-08   997   0.609E-04    0.520E-05
RMM:  18    -0.413198328688E+03    0.41045E-05   -0.47158E-08  1037   0.596E-04    0.348E-05
RMM:  19    -0.413198328047E+03    0.64082E-06   -0.15429E-08   613   0.521E-04
   36 T=    67. E= -.41286679E+03 F= -.41319833E+03 E0= -.41317707E+03  EK= 0.33154E+00 SP= 0.00E+00 SK= 0.00E+00
       N       E                     dE             d eps       ncg     rms          rms(c)
RMM:   1    -0.413204468986E+03   -0.61403E-02   -0.88283E+00  4309   0.837E-01    0.927E-01
RMM:   2    -0.413206803510E+03   -0.23345E-02   -0.11707E-01  4263   0.127E-01    0.686E-01
RMM:   3    -0.413201492438E+03    0.53111E-02   -0.25339E-02  4447   0.748E-02    0.810E-02
RMM:   4    -0.413207743312E+03   -0.62509E-02   -0.64588E-03  5161   0.690E-02    0.341E-01
RMM:   5    -0.413201263642E+03    0.64797E-02   -0.32866E-03  4818   0.562E-02    0.429E-02
RMM:   6    -0.413201294237E+03   -0.30595E-04   -0.86970E-04  5647   0.287E-02    0.324E-02
RMM:   7    -0.413201280043E+03    0.14194E-04   -0.29212E-04  5192   0.176E-02    0.197E-02
RMM:   8    -0.413201268906E+03    0.11137E-04   -0.32475E-05  4925   0.666E-03    0.874E-03
RMM:   9    -0.413201267653E+03    0.12531E-05   -0.45874E-06  2807   0.264E-03    0.497E-03
RMM:  10    -0.413201265978E+03    0.16748E-05   -0.15136E-06  2505   0.205E-03    0.263E-03
RMM:  11    -0.413201263907E+03    0.20710E-05   -0.94000E-07  2470   0.156E-03    0.124E-03
RMM:  12    -0.413201261671E+03    0.22364E-05   -0.53762E-07  2309   0.119E-03    0.595E-04
RMM:  13    -0.413201259783E+03    0.18881E-05   -0.28942E-07  1881   0.890E-04    0.306E-04
RMM:  14    -0.413201257642E+03    0.21405E-05   -0.15054E-07  1352   0.713E-04    0.209E-04
RMM:  15    -0.413201254542E+03    0.31003E-05   -0.95637E-08  1062   0.654E-04    0.113E-04
RMM:  16    -0.413201252011E+03    0.25311E-05   -0.69826E-08  1019   0.628E-04    0.709E-05
RMM:  17    -0.413201249936E+03    0.20750E-05   -0.45840E-08   943   0.601E-04    0.487E-05
RMM:  18    -0.413201246785E+03    0.31505E-05   -0.49529E-08  1075   0.605E-04    0.308E-05
RMM:  19    -0.413201246017E+03    0.76788E-06   -0.18473E-08   727   0.540E-04
   37 T=    68. E= -.41286696E+03 F= -.41320125E+03 E0= -.41318003E+03  EK= 0.33428E+00 SP= 0.00E+00 SK= 0.00E+00
       N       E                     dE             d eps       ncg     rms          rms(c)
RMM:   1    -0.413208624724E+03   -0.73779E-02   -0.89214E+00  4311   0.875E-01    0.945E-01
RMM:   2    -0.413209674366E+03   -0.10496E-02   -0.11868E-01  4258   0.124E-01    0.692E-01
RMM:   3    -0.413204346059E+03    0.53283E-02   -0.25055E-02  4652   0.704E-02    0.996E-02
RMM:   4    -0.413224326690E+03   -0.19981E-01   -0.20527E-02  5140   0.121E-01    0.597E-01
RMM:   5    -0.413203883244E+03    0.20443E-01   -0.10208E-02  4812   0.985E-02    0.481E-02
RMM:   6    -0.413203919795E+03   -0.36550E-04   -0.18287E-03  5803   0.409E-02    0.326E-02
RMM:   7    -0.413203934611E+03   -0.14816E-04   -0.35233E-04  5496   0.186E-02    0.210E-02
RMM:   8    -0.413203917106E+03    0.17505E-04   -0.54280E-05  5054   0.833E-03    0.103E-02
RMM:   9    -0.413203915532E+03    0.15736E-05   -0.10332E-05  3639   0.393E-03    0.666E-03
RMM:  10    -0.413203912224E+03    0.33087E-05   -0.20404E-06  2587   0.239E-03    0.359E-03
RMM:  11    -0.413203909370E+03    0.28531E-05   -0.11105E-06  2499   0.173E-03    0.198E-03
RMM:  12    -0.413203904756E+03    0.46140E-05   -0.11728E-06  2500   0.171E-03    0.106E-03
RMM:  13    -0.413203902265E+03    0.24918E-05   -0.43615E-07  2261   0.115E-03    0.561E-04
RMM:  14    -0.413203901293E+03    0.97209E-06   -0.20817E-07  1755   0.805E-04
   38 T=    69. E= -.41286692E+03 F= -.41320390E+03 E0= -.41318272E+03  EK= 0.33698E+00 SP= 0.00E+00 SK= 0.00E+00
       N       E                     dE             d eps       ncg     rms          rms(c)
RMM:   1    -0.413227950288E+03   -0.24048E-01   -0.90908E+00  4308   0.102E+00    0.954E-01
RMM:   2    -0.413212345317E+03    0.15605E-01   -0.13692E-01  4260   0.127E-01    0.690E-01
RMM:   3    -0.413207065322E+03    0.52800E-02   -0.21610E-02  4836   0.632E-02    0.124E-01
RMM:   4    -0.413241063548E+03   -0.33998E-01   -0.35704E-02  5129   0.158E-01    0.769E-01
RMM:   5    -0.413206420662E+03    0.34643E-01   -0.17190E-02  4800   0.128E-01    0.539E-02
RMM:   6    -0.413206501329E+03   -0.80666E-04   -0.29115E-03  5820   0.510E-02    0.357E-02
RMM:   7    -0.413206509461E+03   -0.81321E-05   -0.39475E-04  5638   0.192E-02    0.198E-02
RMM:   8    -0.413206497681E+03    0.11780E-04   -0.61642E-05  5040   0.831E-03    0.111E-02
RMM:   9    -0.413206495252E+03    0.24290E-05   -0.20072E-05  4501   0.491E-03    0.810E-03
RMM:  10    -0.413206488137E+03    0.71149E-05   -0.28221E-06  2667   0.274E-03    0.447E-03
RMM:  11    -0.413206484331E+03    0.38059E-05   -0.13126E-06  2504   0.188E-03    0.276E-03
RMM:  12    -0.413206474857E+03    0.94745E-05   -0.19546E-06  2552   0.221E-03    0.142E-03
RMM:  13    -0.413206470241E+03    0.46157E-05   -0.71260E-07  2424   0.149E-03    0.915E-04
RMM:  14    -0.413206469420E+03    0.82123E-06   -0.28235E-07  2110   0.954E-04
   39 T=    69. E= -.41286682E+03 F= -.41320647E+03 E0= -.41318533E+03  EK= 0.33964E+00 SP= 0.00E+00 SK= 0.00E+00
       N       E                     dE             d eps       ncg     rms          rms(c)
RMM:   1    -0.413216142503E+03   -0.96723E-02   -0.89811E+00  4311   0.960E-01    0.938E-01
RMM:   2    -0.413215815902E+03    0.32660E-03   -0.12203E-01  4258   0.124E-01    0.691E-01
RMM:   3    -0.413210599479E+03    0.52164E-02   -0.25308E-02  4861   0.706E-02    0.139E-01
RMM:   4    -0.413245844822E+03   -0.35245E-01   -0.38490E-02  5130   0.164E-01    0.786E-01
RMM:   5    -0.413209535594E+03    0.36309E-01   -0.17635E-02  4797   0.130E-01    0.539E-02
RMM:   6    -0.413209628175E+03   -0.92581E-04   -0.30187E-03  5821   0.517E-02    0.345E-02
RMM:   7    -0.413209642825E+03   -0.14649E-04   -0.38743E-04  5653   0.188E-02    0.189E-02
RMM:   8    -0.413209634208E+03    0.86164E-05   -0.54662E-05  4961   0.774E-03    0.103E-02
RMM:   9    -0.413209634149E+03    0.59285E-07   -0.20755E-05  4521   0.481E-03    0.808E-03
RMM:  10    -0.413209628285E+03    0.58643E-05   -0.31522E-06  2706   0.280E-03    0.440E-03
RMM:  11    -0.413209625531E+03    0.27540E-05   -0.14552E-06  2505   0.195E-03    0.270E-03
RMM:  12    -0.413209618501E+03    0.70301E-05   -0.19979E-06  2556   0.222E-03    0.134E-03
RMM:  13    -0.413209615014E+03    0.34869E-05   -0.71124E-07  2435   0.148E-03    0.872E-04
RMM:  14    -0.413209614403E+03    0.61068E-06   -0.28030E-07  2072   0.944E-04
   40 T=    70. E= -.41286718E+03 F= -.41320961E+03 E0= -.41318851E+03  EK= 0.34244E+00 SP= 0.00E+00 SK= 0.00E+00
       N       E                     dE             d eps       ncg     rms          rms(c)
RMM:   1    -0.413224820556E+03   -0.15206E-01   -0.91554E+00  4306   0.104E+00    0.948E-01
RMM:   2    -0.413218241918E+03    0.65786E-02   -0.13995E-01  4263   0.134E-01    0.704E-01
RMM:   3    -0.413213357878E+03    0.48840E-02   -0.23722E-02  4958   0.723E-02    0.174E-01
RMM:   4    -0.413259838269E+03   -0.46480E-01   -0.53215E-02  5127   0.193E-01    0.899E-01
RMM:   5    -0.413211680985E+03    0.48157E-01   -0.22971E-02  4781   0.149E-01    0.590E-02
RMM:   6    -0.413211823451E+03   -0.14247E-03   -0.39253E-03  5817   0.587E-02    0.367E-02
RMM:   7    -0.413211835851E+03   -0.12400E-04   -0.47622E-04  5731   0.203E-02    0.208E-02
RMM:   8    -0.413211837741E+03   -0.18901E-05   -0.92458E-05  5195   0.961E-03    0.130E-02
RMM:   9    -0.413211828467E+03    0.92742E-05   -0.24822E-05  4618   0.551E-03    0.770E-03
RMM:  10    -0.413211825052E+03    0.34151E-05   -0.41933E-06  2801   0.301E-03    0.456E-03
RMM:  11    -0.413211822434E+03    0.26181E-05   -0.15518E-06  2505   0.207E-03    0.278E-03
RMM:  12    -0.413211816200E+03    0.62337E-05   -0.17333E-06  2533   0.212E-03    0.114E-03
RMM:  13    -0.413211811913E+03    0.42873E-05   -0.75672E-07  2444   0.149E-03    0.809E-04
RMM:  14    -0.413211811208E+03    0.70481E-06   -0.31331E-07  2133   0.982E-04
   41 T=    70. E= -.41286691E+03 F= -.41321181E+03 E0= -.41319074E+03  EK= 0.34490E+00 SP= 0.00E+00 SK= 0.00E+00
       N       E                     dE             d eps       ncg     rms          rms(c)
RMM:   1    -0.413245384440E+03   -0.33573E-01   -0.93282E+00  4311   0.119E+00    0.966E-01
RMM:   2    -0.413220444967E+03    0.24939E-01   -0.15664E-01  4290   0.140E-01    0.702E-01
RMM:   3    -0.413216505218E+03    0.39397E-02   -0.21167E-02  5017   0.721E-02    0.216E-01
RMM:   4    -0.413266484029E+03   -0.49979E-01   -0.60031E-02  5123   0.205E-01    0.934E-01
RMM:   5    -0.413214311009E+03    0.52173E-01   -0.24555E-02  4775   0.156E-01    0.631E-02
RMM:   6    -0.413214470253E+03   -0.15924E-03   -0.42406E-03  5797   0.612E-02    0.393E-02
RMM:   7    -0.413214480237E+03   -0.99835E-05   -0.55013E-04  5748   0.218E-02    0.243E-02
RMM:   8    -0.413214479154E+03    0.10830E-05   -0.13196E-04  5247   0.117E-02    0.151E-02
RMM:   9    -0.413214464402E+03    0.14751E-04   -0.25939E-05  4633   0.611E-03    0.727E-03
RMM:  10    -0.413214458721E+03    0.56811E-05   -0.55767E-06  3027   0.311E-03    0.443E-03
RMM:  11    -0.413214454483E+03    0.42381E-05   -0.14512E-06  2508   0.203E-03    0.264E-03
RMM:  12    -0.413214445514E+03    0.89697E-05   -0.14566E-06  2503   0.199E-03    0.107E-03
RMM:  13    -0.413214439405E+03    0.61085E-05   -0.66604E-07  2433   0.142E-03    0.700E-04
RMM:  14    -0.413214438465E+03    0.94032E-06   -0.30100E-07  2097   0.966E-04
   42 T=    71. E= -.41286707E+03 F= -.41321444E+03 E0= -.41319340E+03  EK= 0.34737E+00 SP= 0.00E+00 SK= 0.00E+00
       N       E                     dE             d eps       ncg     rms          rms(c)
RMM:   1    -0.413231279053E+03   -0.16840E-01   -0.91451E+00  4311   0.116E+00    0.949E-01
RMM:   2    -0.413222698814E+03    0.85802E-02   -0.13210E-01  4314   0.136E-01    0.698E-01
RMM:   3    -0.413219869616E+03    0.28292E-02   -0.26148E-02  5043   0.833E-02    0.244E-01
RMM:   4    -0.413260049452E+03   -0.40180E-01   -0.53983E-02  5105   0.196E-01    0.855E-01
RMM:   5    -0.413216539784E+03    0.43510E-01   -0.19356E-02  4759   0.141E-01    0.602E-02
RMM:   6    -0.413216646066E+03   -0.10628E-03   -0.35094E-03  5787   0.556E-02    0.366E-02
RMM:   7    -0.413216650167E+03   -0.41007E-05   -0.46261E-04  5702   0.205E-02    0.223E-02
RMM:   8    -0.413216649978E+03    0.18878E-06   -0.11873E-04  5219   0.112E-02    0.138E-02
RMM:   9    -0.413216637230E+03    0.12748E-04   -0.20977E-05  4477   0.565E-03    0.653E-03
RMM:  10    -0.413216632803E+03    0.44272E-05   -0.45099E-06  2891   0.287E-03    0.397E-03
RMM:  11    -0.413216629444E+03    0.33595E-05   -0.12823E-06  2503   0.192E-03    0.231E-03
RMM:  12    -0.413216622115E+03    0.73284E-05   -0.12410E-06  2497   0.183E-03    0.100E-03
RMM:  13    -0.413216616972E+03    0.51427E-05   -0.58312E-07  2388   0.131E-03    0.593E-04
RMM:  14    -0.413216615876E+03    0.10961E-05   -0.26740E-07  1998   0.901E-04    0.392E-04
RMM:  15    -0.413216613363E+03    0.25136E-05   -0.13913E-07  1438   0.714E-04    0.222E-04
RMM:  16    -0.413216606879E+03    0.64834E-05   -0.13276E-07  1567   0.727E-04    0.291E-04
RMM:  17    -0.413216604875E+03    0.20049E-05   -0.54782E-08   954   0.590E-04    0.185E-04
RMM:  18    -0.413216599415E+03    0.54594E-05   -0.73068E-08  1327   0.642E-04    0.163E-04
RMM:  19    -0.413216597719E+03    0.16962E-05   -0.32246E-08   907   0.552E-04    0.629E-05
RMM:  20    -0.413216596130E+03    0.15890E-05   -0.30674E-08   967   0.562E-04    0.720E-05
RMM:  21    -0.413216595981E+03    0.14857E-06   -0.12017E-08   693   0.521E-04
   43 T=    71. E= -.41286714E+03 F= -.41321660E+03 E0= -.41319559E+03  EK= 0.34945E+00 SP= 0.00E+00 SK= 0.00E+00
       N       E                     dE             d eps       ncg     rms          rms(c)
RMM:   1    -0.413228440028E+03   -0.11844E-01   -0.92060E+00  4315   0.116E+00    0.954E-01
RMM:   2    -0.413224257299E+03    0.41827E-02   -0.13356E-01  4329   0.145E-01    0.709E-01
RMM:   3    -0.413222638175E+03    0.16191E-02   -0.28888E-02  5051   0.937E-02    0.294E-01
RMM:   4    -0.413258092034E+03   -0.35454E-01   -0.54308E-02  5097   0.198E-01    0.823E-01
RMM:   5    -0.413217775549E+03    0.40316E-01   -0.17121E-02  4736   0.135E-01    0.601E-02
RMM:   6    -0.413217852289E+03   -0.76740E-04   -0.31884E-03  5755   0.532E-02    0.354E-02
RMM:   7    -0.413217861362E+03   -0.90733E-05   -0.46171E-04  5691   0.203E-02    0.228E-02
RMM:   8    -0.413217861097E+03    0.26504E-06   -0.12050E-04  5198   0.115E-02    0.129E-02
RMM:   9    -0.413217851672E+03    0.94247E-05   -0.17999E-05  4333   0.546E-03    0.574E-03
RMM:  10    -0.413217849599E+03    0.20733E-05   -0.40477E-06  2828   0.270E-03    0.352E-03
RMM:  11    -0.413217847702E+03    0.18967E-05   -0.12208E-06  2501   0.184E-03    0.196E-03
RMM:  12    -0.413217843696E+03    0.40058E-05   -0.10872E-06  2488   0.168E-03    0.853E-04
RMM:  13    -0.413217840776E+03    0.29203E-05   -0.50304E-07  2314   0.119E-03    0.446E-04
RMM:  14    -0.413217839631E+03    0.11448E-05   -0.23948E-07  1822   0.846E-04    0.291E-04
RMM:  15    -0.413217836632E+03    0.29996E-05   -0.14947E-07  1407   0.724E-04    0.144E-04
RMM:  16    -0.413217833777E+03    0.28550E-05   -0.10017E-07  1208   0.664E-04    0.132E-04
RMM:  17    -0.413217831541E+03    0.22361E-05   -0.66885E-08  1070   0.625E-04    0.945E-05
RMM:  18    -0.413217829052E+03    0.24886E-05   -0.53988E-08  1076   0.613E-04    0.588E-05
RMM:  19    -0.413217826341E+03    0.27112E-05   -0.46530E-08  1114   0.603E-04    0.360E-05
RMM:  20    -0.413217825827E+03    0.51383E-06   -0.19655E-08   776   0.544E-04
   44 T=    71. E= -.41286693E+03 F= -.41321783E+03 E0= -.41319684E+03  EK= 0.35090E+00 SP= 0.00E+00 SK= 0.00E+00
       N       E                     dE             d eps       ncg     rms          rms(c)
RMM:   1    -0.413240751991E+03   -0.22926E-01   -0.92662E+00  4311   0.130E+00    0.974E-01
RMM:   2    -0.413225327060E+03    0.15425E-01   -0.14147E-01  4329   0.156E-01    0.708E-01
RMM:   3    -0.413225999559E+03   -0.67250E-03   -0.28020E-02  5071   0.102E-01    0.354E-01
RMM:   4    -0.413252288568E+03   -0.26289E-01   -0.50794E-02  5072   0.193E-01    0.748E-01
RMM:   5    -0.413219197028E+03    0.33092E-01   -0.13084E-02  4708   0.122E-01    0.605E-02
RMM:   6    -0.413219225031E+03   -0.28003E-04   -0.25915E-03  5696   0.484E-02    0.359E-02
RMM:   7    -0.413219231758E+03   -0.67268E-05   -0.42536E-04  5639   0.199E-02    0.236E-02
RMM:   8    -0.413219224983E+03    0.67744E-05   -0.11912E-04  5133   0.118E-02    0.121E-02
RMM:   9    -0.413219213832E+03    0.11151E-04   -0.15170E-05  4209   0.535E-03    0.511E-03
RMM:  10    -0.413219209704E+03    0.41285E-05   -0.35786E-06  2782   0.254E-03    0.309E-03
RMM:  11    -0.413219205474E+03    0.42300E-05   -0.11386E-06  2490   0.179E-03    0.166E-03
RMM:  12    -0.413219198766E+03    0.67074E-05   -0.79826E-07  2455   0.150E-03    0.724E-04
RMM:  13    -0.413219194799E+03    0.39679E-05   -0.37714E-07  2142   0.106E-03    0.331E-04
RMM:  14    -0.413219192370E+03    0.24281E-05   -0.20149E-07  1672   0.802E-04    0.219E-04
RMM:  15    -0.413219186562E+03    0.58080E-05   -0.14030E-07  1390   0.728E-04    0.158E-04
RMM:  16    -0.413219184055E+03    0.25073E-05   -0.81516E-08  1133   0.650E-04    0.102E-04
RMM:  17    -0.413219180570E+03    0.34853E-05   -0.67028E-08  1181   0.638E-04    0.628E-05
RMM:  18    -0.413219176923E+03    0.36472E-05   -0.57621E-08  1211   0.621E-04    0.400E-05
RMM:  19    -0.413219174786E+03    0.21363E-05   -0.36548E-08  1022   0.574E-04    0.299E-05
RMM:  20    -0.413219174244E+03    0.54226E-06   -0.19169E-08   791   0.534E-04
   45 T=    72. E= -.41286727E+03 F= -.41321917E+03 E0= -.41319821E+03  EK= 0.35191E+00 SP= 0.00E+00 SK= 0.00E+00
       N       E                     dE             d eps       ncg     rms          rms(c)
RMM:   1    -0.413237546856E+03   -0.18372E-01   -0.91407E+00  4312   0.137E+00    0.956E-01
RMM:   2    -0.413225037576E+03    0.12509E-01   -0.14064E-01  4349   0.165E-01    0.702E-01
RMM:   3    -0.413228054213E+03   -0.30166E-02   -0.29705E-02  5075   0.114E-01    0.408E-01
RMM:   4    -0.413246353252E+03   -0.18299E-01   -0.48118E-02  5061   0.190E-01    0.682E-01
RMM:   5    -0.413218902990E+03    0.27450E-01   -0.10082E-02  4671   0.112E-01    0.592E-02
RMM:   6    -0.413218890874E+03    0.12117E-04   -0.21019E-03  5631   0.439E-02    0.339E-02
RMM:   7    -0.413218894879E+03   -0.40048E-05   -0.36997E-04  5595   0.188E-02    0.226E-02
RMM:   8    -0.413218886568E+03    0.83102E-05   -0.11935E-04  5091   0.118E-02    0.111E-02
RMM:   9    -0.413218876080E+03    0.10488E-04   -0.13820E-05  4130   0.523E-03    0.463E-03
RMM:  10    -0.413218872622E+03    0.34582E-05   -0.30202E-06  2729   0.238E-03    0.274E-03
RMM:  11    -0.413218868473E+03    0.41490E-05   -0.10932E-06  2486   0.173E-03    0.143E-03
RMM:  12    -0.413218862823E+03    0.56496E-05   -0.70128E-07  2422   0.139E-03    0.681E-04
RMM:  13    -0.413218859296E+03    0.35277E-05   -0.33387E-07  1983   0.986E-04    0.299E-04
RMM:  14    -0.413218856491E+03    0.28048E-05   -0.18542E-07  1514   0.766E-04    0.179E-04
RMM:  15    -0.413218851211E+03    0.52794E-05   -0.13790E-07  1306   0.716E-04    0.129E-04
RMM:  16    -0.413218848775E+03    0.24360E-05   -0.85138E-08  1132   0.653E-04    0.851E-05
RMM:  17    -0.413218844116E+03    0.46593E-05   -0.85905E-08  1361   0.667E-04    0.573E-05
RMM:  18    -0.413218841672E+03    0.24437E-05   -0.51788E-08  1098   0.592E-04    0.359E-05
RMM:  19    -0.413218839933E+03    0.17392E-05   -0.34361E-08   953   0.558E-04    0.205E-05
RMM:  20    -0.413218839561E+03    0.37187E-06   -0.20011E-08   759   0.525E-04
   46 T=    72. E= -.41286709E+03 F= -.41321884E+03 E0= -.41319790E+03  EK= 0.35175E+00 SP= 0.00E+00 SK= 0.00E+00
       N       E                     dE             d eps       ncg     rms          rms(c)
RMM:   1    -0.413232013797E+03   -0.13174E-01   -0.91195E+00  4312   0.139E+00    0.948E-01
RMM:   2    -0.413224171029E+03    0.78428E-02   -0.14062E-01  4366   0.171E-01    0.709E-01
RMM:   3    -0.413229395339E+03   -0.52243E-02   -0.33041E-02  5080   0.125E-01    0.457E-01
RMM:   4    -0.413242877717E+03   -0.13482E-01   -0.48688E-02  5041   0.193E-01    0.653E-01
RMM:   5    -0.413217710636E+03    0.25167E-01   -0.87399E-03  4648   0.108E-01    0.586E-02
RMM:   6    -0.413217677231E+03    0.33405E-04   -0.18721E-03  5553   0.415E-02    0.315E-02
RMM:   7    -0.413217682823E+03   -0.55923E-05   -0.33132E-04  5586   0.180E-02    0.217E-02
RMM:   8    -0.413217675722E+03    0.71012E-05   -0.12056E-04  5087   0.117E-02    0.104E-02
RMM:   9    -0.413217666841E+03    0.88809E-05   -0.13172E-05  4067   0.516E-03    0.438E-03
RMM:  10    -0.413217664670E+03    0.21708E-05   -0.28033E-06  2697   0.232E-03    0.256E-03
RMM:  11    -0.413217661740E+03    0.29307E-05   -0.11471E-06  2493   0.173E-03    0.131E-03
RMM:  12    -0.413217658125E+03    0.36144E-05   -0.69306E-07  2392   0.135E-03    0.679E-04
RMM:  13    -0.413217655471E+03    0.26543E-05   -0.33774E-07  1906   0.961E-04    0.297E-04
RMM:  14    -0.413217652981E+03    0.24900E-05   -0.19483E-07  1429   0.759E-04    0.166E-04
RMM:  15    -0.413217649332E+03    0.36487E-05   -0.15608E-07  1336   0.723E-04    0.115E-04
RMM:  16    -0.413217647156E+03    0.21761E-05   -0.99707E-08  1184   0.659E-04    0.821E-05
RMM:  17    -0.413217642728E+03    0.44279E-05   -0.10802E-07  1452   0.686E-04    0.594E-05
RMM:  18    -0.413217641272E+03    0.14565E-05   -0.51053E-08   996   0.568E-04    0.329E-05
RMM:  19    -0.413217639873E+03    0.13987E-05   -0.35071E-08   907   0.546E-04    0.178E-05
RMM:  20    -0.413217639414E+03    0.45897E-06   -0.21203E-08   751   0.521E-04
   47 T=    71. E= -.41286708E+03 F= -.41321764E+03 E0= -.41319671E+03  EK= 0.35056E+00 SP= 0.00E+00 SK= 0.00E+00
       N       E                     dE             d eps       ncg     rms          rms(c)
RMM:   1    -0.413236323746E+03   -0.18684E-01   -0.90630E+00  4310   0.152E+00    0.963E-01
RMM:   2    -0.413221623456E+03    0.14700E-01   -0.14518E-01  4398   0.185E-01    0.707E-01
RMM:   3    -0.413232567159E+03   -0.10944E-01   -0.35584E-02  5104   0.141E-01    0.556E-01
RMM:   4    -0.413232700269E+03   -0.13311E-03   -0.45098E-02  5003   0.189E-01    0.543E-01
RMM:   5    -0.413215423716E+03    0.17277E-01   -0.53574E-03  4570   0.934E-02    0.578E-02
RMM:   6    -0.413215343845E+03    0.79871E-04   -0.11295E-03  5219   0.342E-02    0.303E-02
RMM:   7    -0.413215345388E+03   -0.15426E-05   -0.22855E-04  5521   0.153E-02    0.189E-02
RMM:   8    -0.413215342277E+03    0.31105E-05   -0.12477E-04  5142   0.117E-02    0.111E-02
RMM:   9    -0.413215328960E+03    0.13318E-04   -0.14209E-05  4184   0.540E-03    0.433E-03
RMM:  10    -0.413215325941E+03    0.30188E-05   -0.31498E-06  2734   0.235E-03    0.240E-03
RMM:  11    -0.413215320765E+03    0.51756E-05   -0.11925E-06  2465   0.180E-03    0.124E-03
RMM:  12    -0.413215316542E+03    0.42237E-05   -0.57317E-07  2335   0.129E-03    0.711E-04
RMM:  13    -0.413215312542E+03    0.39999E-05   -0.28356E-07  1780   0.927E-04    0.331E-04
RMM:  14    -0.413215308309E+03    0.42325E-05   -0.16202E-07  1393   0.744E-04    0.175E-04
RMM:  15    -0.413215304223E+03    0.40859E-05   -0.11323E-07  1258   0.687E-04    0.121E-04
RMM:  16    -0.413215301259E+03    0.29641E-05   -0.78990E-08  1179   0.639E-04    0.937E-05
RMM:  17    -0.413215296291E+03    0.49678E-05   -0.80026E-08  1309   0.642E-04    0.605E-05
RMM:  18    -0.413215294568E+03    0.17233E-05   -0.35429E-08   892   0.543E-04    0.490E-05
RMM:  19    -0.413215293203E+03    0.13646E-05   -0.24627E-08   774   0.523E-04    0.249E-05
RMM:  20    -0.413215292226E+03    0.97782E-06   -0.20177E-08   753   0.521E-04
   48 T=    71. E= -.41286721E+03 F= -.41321529E+03 E0= -.41319438E+03  EK= 0.34808E+00 SP= 0.00E+00 SK= 0.00E+00
       N       E                     dE             d eps       ncg     rms          rms(c)
RMM:   1    -0.413236586297E+03   -0.21293E-01   -0.89106E+00  4306   0.165E+00    0.951E-01
RMM:   2    -0.413216772786E+03    0.19814E-01   -0.14879E-01  4444   0.197E-01    0.697E-01
RMM:   3    -0.413234362585E+03   -0.17590E-01   -0.39021E-02  5134   0.157E-01    0.652E-01
RMM:   4    -0.413222698548E+03    0.11664E-01   -0.43531E-02  4970   0.189E-01    0.455E-01
RMM:   5    -0.413210788800E+03    0.11910E-01   -0.38987E-03  4557   0.865E-02    0.591E-02
RMM:   6    -0.413210659785E+03    0.12901E-03   -0.60057E-04  4809   0.290E-02    0.304E-02
RMM:   7    -0.413210657295E+03    0.24904E-05   -0.18547E-04  5793   0.143E-02    0.136E-02
RMM:   8    -0.413210650227E+03    0.70685E-05   -0.49753E-05  5232   0.859E-03    0.861E-03
RMM:   9    -0.413210646698E+03    0.35283E-05   -0.13067E-05  4105   0.429E-03    0.397E-03
RMM:  10    -0.413210642889E+03    0.38092E-05   -0.20653E-06  2595   0.230E-03    0.245E-03
RMM:  11    -0.413210637088E+03    0.58007E-05   -0.12568E-06  2471   0.190E-03    0.152E-03
RMM:  12    -0.413210633560E+03    0.35280E-05   -0.47441E-07  2417   0.127E-03    0.857E-04
RMM:  13    -0.413210629205E+03    0.43557E-05   -0.26906E-07  2020   0.909E-04    0.457E-04
RMM:  14    -0.413210623003E+03    0.62013E-05   -0.20739E-07  1671   0.792E-04    0.391E-04
RMM:  15    -0.413210619145E+03    0.38581E-05   -0.96161E-08  1063   0.615E-04    0.171E-04
RMM:  16    -0.413210616519E+03    0.26263E-05   -0.69022E-08  1066   0.599E-04    0.908E-05
RMM:  17    -0.413210611671E+03    0.48481E-05   -0.75473E-08  1276   0.631E-04    0.135E-04
RMM:  18    -0.413210610646E+03    0.10252E-05   -0.29812E-08   825   0.526E-04    0.101E-04
RMM:  19    -0.413210608891E+03    0.17549E-05   -0.28606E-08   873   0.530E-04    0.481E-05
RMM:  20    -0.413210606899E+03    0.19923E-05   -0.25456E-08   862   0.524E-04    0.247E-05
RMM:  21    -0.413210606695E+03    0.20370E-06   -0.92820E-09   608   0.478E-04
   49 T=    70. E= -.41286689E+03 F= -.41321061E+03 E0= -.41318970E+03  EK= 0.34372E+00 SP= 0.00E+00 SK= 0.00E+00
       N       E                     dE             d eps       ncg     rms          rms(c)
RMM:   1    -0.413232115319E+03   -0.21508E-01   -0.87881E+00  4306   0.178E+00    0.926E-01
RMM:   2    -0.413211180008E+03    0.20935E-01   -0.14546E-01  4506   0.210E-01    0.696E-01
RMM:   3    -0.413234195834E+03   -0.23016E-01   -0.44613E-02  5139   0.174E-01    0.720E-01
RMM:   4    -0.413214962953E+03    0.19233E-01   -0.45362E-02  4950   0.195E-01    0.417E-01
RMM:   5    -0.413204905874E+03    0.10057E-01   -0.37887E-03  4612   0.872E-02    0.622E-02
RMM:   6    -0.413204735740E+03    0.17013E-03   -0.46042E-04  4695   0.283E-02    0.304E-02
RMM:   7    -0.413204750667E+03   -0.14927E-04   -0.28657E-04  5748   0.183E-02    0.213E-02
RMM:   8    -0.413204727769E+03    0.22897E-04   -0.82044E-05  5069   0.104E-02    0.101E-02
RMM:   9    -0.413204724579E+03    0.31901E-05   -0.20552E-05  5042   0.576E-03    0.466E-03
RMM:  10    -0.413204721731E+03    0.28479E-05   -0.25116E-06  2683   0.244E-03    0.259E-03
[...]
       N       E                     dE             d eps       ncg     rms          rms(c)
RMM:   1    -0.413834812124E+03   -0.12330E+00   -0.18994E+01  4284   0.826E+00    0.107E+00
RMM:   2    -0.413786707056E+03    0.48105E-01   -0.56170E-01  5375   0.885E-01    0.970E-01
RMM:   3    -0.413800124285E+03   -0.13417E-01   -0.11428E-01  5457   0.376E-01    0.105E+00
RMM:   4    -0.413765962426E+03    0.34162E-01   -0.59352E-02  5226   0.292E-01    0.584E-01
RMM:   5    -0.413762242787E+03    0.37196E-02   -0.15549E-02  4596   0.178E-01    0.198E-01
RMM:   6    -0.413763280788E+03   -0.10380E-02   -0.13493E-02  5398   0.134E-01    0.155E-01
RMM:   7    -0.413761780126E+03    0.15007E-02   -0.37289E-03  5071   0.756E-02    0.567E-02
RMM:   8    -0.413761751311E+03    0.28814E-04   -0.10196E-03  5828   0.362E-02    0.333E-02
RMM:   9    -0.413761722857E+03    0.28454E-04   -0.28026E-04  5457   0.205E-02    0.256E-02
RMM:  10    -0.413761700059E+03    0.22798E-04   -0.73336E-05  5156   0.113E-02    0.924E-03
RMM:  11    -0.413761703768E+03   -0.37093E-05   -0.35890E-05  5309   0.653E-03    0.724E-03
RMM:  12    -0.413761706639E+03   -0.28705E-05   -0.52947E-06  3090   0.357E-03    0.356E-03
RMM:  13    -0.413761711758E+03   -0.51196E-05   -0.34851E-06  2862   0.272E-03    0.159E-03
RMM:  14    -0.413761719291E+03   -0.75325E-05   -0.18631E-06  2633   0.217E-03    0.819E-04
RMM:  15    -0.413761724811E+03   -0.55201E-05   -0.12179E-06  2543   0.156E-03    0.588E-04
RMM:  16    -0.413761730723E+03   -0.59118E-05   -0.13422E-06  2483   0.151E-03    0.455E-04
RMM:  17    -0.413761735387E+03   -0.46644E-05   -0.12215E-06  2343   0.132E-03    0.289E-04
RMM:  18    -0.413761738071E+03   -0.26843E-05   -0.67334E-07  1860   0.957E-04    0.183E-04
RMM:  19    -0.413761740094E+03   -0.20224E-05   -0.47278E-07  1704   0.848E-04    0.132E-04
RMM:  20    -0.413761741165E+03   -0.10711E-05   -0.21575E-07  1374   0.674E-04    0.898E-05
RMM:  21    -0.413761742479E+03   -0.13136E-05   -0.15694E-07  1291   0.636E-04    0.659E-05
RMM:  22    -0.413761743110E+03   -0.63152E-06   -0.79233E-08  1034   0.563E-04
  139 T=   180. E= -.41287945E+03 F= -.41376174E+03 E0= -.41374066E+03  EK= 0.88229E+00 SP= 0.00E+00 SK= 0.00E+00
       N       E                     dE             d eps       ncg     rms          rms(c)
RMM:   1    -0.413791306485E+03   -0.29564E-01   -0.19308E+01  4266   0.818E+00    0.134E+00
RMM:   2    -0.413728147173E+03    0.63159E-01   -0.65102E-01  5354   0.898E-01    0.103E+00
RMM:   3    -0.413821200958E+03   -0.93054E-01   -0.17497E-01  5379   0.448E-01    0.154E+00
RMM:   4    -0.413725106358E+03    0.96095E-01   -0.98633E-02  5129   0.372E-01    0.655E-01
RMM:   5    -0.413718009932E+03    0.70964E-02   -0.30356E-02  4880   0.234E-01    0.124E-01
RMM:   6    -0.413718202168E+03   -0.19224E-03   -0.73236E-03  6005   0.938E-02    0.845E-02
RMM:   7    -0.413718078185E+03    0.12398E-03   -0.12440E-03  5556   0.408E-02    0.519E-02
RMM:   8    -0.413718007997E+03    0.70188E-04   -0.56379E-04  5684   0.278E-02    0.315E-02
RMM:   9    -0.413717999203E+03    0.87940E-05   -0.28024E-04  5711   0.192E-02    0.283E-02
RMM:  10    -0.413717968375E+03    0.30828E-04   -0.80373E-05  5139   0.120E-02    0.965E-03
RMM:  11    -0.413717971559E+03   -0.31840E-05   -0.47135E-05  5659   0.737E-03    0.834E-03
RMM:  12    -0.413717972658E+03   -0.10990E-05   -0.66137E-06  3408   0.407E-03    0.364E-03
RMM:  13    -0.413717976771E+03   -0.41131E-05   -0.35055E-06  2827   0.283E-03    0.175E-03
RMM:  14    -0.413717983361E+03   -0.65897E-05   -0.18423E-06  2619   0.219E-03    0.909E-04
RMM:  15    -0.413717988512E+03   -0.51516E-05   -0.13067E-06  2553   0.166E-03    0.622E-04
RMM:  16    -0.413717994371E+03   -0.58587E-05   -0.15096E-06  2517   0.160E-03    0.576E-04
RMM:  17    -0.413717998957E+03   -0.45863E-05   -0.12695E-06  2434   0.136E-03    0.450E-04
RMM:  18    -0.413718000852E+03   -0.18945E-05   -0.48858E-07  1684   0.862E-04    0.309E-04
RMM:  19    -0.413718003480E+03   -0.26281E-05   -0.60448E-07  1978   0.957E-04    0.159E-04
RMM:  20    -0.413718004781E+03   -0.13005E-05   -0.24594E-07  1356   0.690E-04    0.102E-04
RMM:  21    -0.413718005679E+03   -0.89798E-06   -0.13300E-07  1134   0.610E-04
  140 T=   171. E= -.41287743E+03 F= -.41371801E+03 E0= -.41369547E+03  EK= 0.84058E+00 SP= 0.00E+00 SK= 0.00E+00
       N       E                     dE             d eps       ncg     rms          rms(c)
RMM:   1    -0.413725356099E+03   -0.73513E-02   -0.17388E+01  4264   0.751E+00    0.115E+00
RMM:   2    -0.413634217212E+03    0.91139E-01   -0.59525E-01  5352   0.836E-01    0.852E-01
RMM:   3    -0.413723843811E+03   -0.89627E-01   -0.14802E-01  5353   0.418E-01    0.141E+00
RMM:   4    -0.413636174959E+03    0.87669E-01   -0.75796E-02  5117   0.320E-01    0.588E-01
RMM:   5    -0.413630997654E+03    0.51773E-02   -0.24753E-02  5040   0.208E-01    0.141E-01
RMM:   6    -0.413631220861E+03   -0.22321E-03   -0.66151E-03  5846   0.941E-02    0.908E-02
RMM:   7    -0.413630966976E+03    0.25388E-03   -0.18418E-03  5431   0.490E-02    0.540E-02
RMM:   8    -0.413630887764E+03    0.79213E-04   -0.48244E-04  5610   0.276E-02    0.309E-02
RMM:   9    -0.413630876587E+03    0.11176E-04   -0.26619E-04  5613   0.194E-02    0.269E-02
RMM:  10    -0.413630854113E+03    0.22474E-04   -0.59058E-05  4993   0.106E-02    0.102E-02
RMM:  11    -0.413630854169E+03   -0.55785E-07   -0.45831E-05  5686   0.745E-03    0.762E-03
RMM:  12    -0.413630853606E+03    0.56251E-06   -0.53633E-06  3069   0.369E-03
  141 T=   155. E= -.41286931E+03 F= -.41363085E+03 E0= -.41360747E+03  EK= 0.76155E+00 SP= 0.00E+00 SK= 0.00E+00
       N       E                     dE             d eps       ncg     rms          rms(c)
RMM:   1    -0.413738318910E+03   -0.10746E+00   -0.16362E+01  4264   0.685E+00    0.948E-01
RMM:   2    -0.413617032418E+03    0.12129E+00   -0.65987E-01  5326   0.831E-01    0.821E-01
RMM:   3    -0.413652767495E+03   -0.35735E-01   -0.95208E-02  5413   0.345E-01    0.102E+00
RMM:   4    -0.413617551755E+03    0.35216E-01   -0.41698E-02  5184   0.238E-01    0.533E-01
RMM:   5    -0.413614423189E+03    0.31286E-02   -0.14377E-02  4550   0.170E-01    0.200E-01
RMM:   6    -0.413614111846E+03    0.31134E-03   -0.33782E-03  4855   0.810E-02    0.655E-02
RMM:   7    -0.413614069926E+03    0.41920E-04   -0.91204E-04  5528   0.361E-02    0.380E-02
RMM:   8    -0.413614038510E+03    0.31416E-04   -0.36387E-04  5557   0.222E-02    0.264E-02
RMM:   9    -0.413614022165E+03    0.16345E-04   -0.15549E-04  5364   0.148E-02    0.186E-02
RMM:  10    -0.413614011208E+03    0.10957E-04   -0.44037E-05  5326   0.871E-03    0.845E-03
RMM:  11    -0.413614011917E+03   -0.70863E-06   -0.23433E-05  4949   0.558E-03    0.669E-03
RMM:  12    -0.413614011777E+03    0.14028E-06   -0.38228E-06  2878   0.318E-03
  142 T=   150. E= -.41287531E+03 F= -.41361401E+03 E0= -.41359044E+03  EK= 0.73870E+00 SP= 0.00E+00 SK= 0.00E+00
       N       E                     dE             d eps       ncg     rms          rms(c)
RMM:   1    -0.413680226744E+03   -0.66215E-01   -0.16903E+01  4275   0.687E+00    0.152E+00
RMM:   2    -0.413612535520E+03    0.67691E-01   -0.84959E-01  5368   0.857E-01    0.127E+00
RMM:   3    -0.413712163516E+03   -0.99628E-01   -0.18600E-01  5366   0.460E-01    0.161E+00
RMM:   4    -0.413620799219E+03    0.91364E-01   -0.12665E-01  5183   0.397E-01    0.731E-01
RMM:   5    -0.413606388492E+03    0.14411E-01   -0.46876E-02  4780   0.289E-01    0.176E-01
RMM:   6    -0.413606278912E+03    0.10958E-03   -0.92955E-03  5699   0.115E-01    0.122E-01
RMM:   7    -0.413605715913E+03    0.56300E-03   -0.25786E-03  5098   0.603E-02    0.675E-02
RMM:   8    -0.413605594544E+03    0.12137E-03   -0.72853E-04  5589   0.345E-02    0.309E-02
RMM:   9    -0.413605603083E+03   -0.85395E-05   -0.28189E-04  5835   0.191E-02    0.275E-02
RMM:  10    -0.413605584856E+03    0.18228E-04   -0.72096E-05  5174   0.112E-02    0.908E-03
RMM:  11    -0.413605588060E+03   -0.32042E-05   -0.35876E-05  5305   0.629E-03    0.777E-03
RMM:  12    -0.413605587788E+03    0.27135E-06   -0.49029E-06  3016   0.338E-03
  143 T=   147. E= -.41288254E+03 F= -.41360559E+03 E0= -.41358222E+03  EK= 0.72305E+00 SP= 0.00E+00 SK= 0.00E+00
       N       E                     dE             d eps       ncg     rms          rms(c)
RMM:   1    -0.413551412517E+03    0.54176E-01   -0.15739E+01  4277   0.687E+00    0.158E+00
RMM:   2    -0.413520400020E+03    0.31012E-01   -0.70955E-01  5385   0.805E-01    0.133E+00
RMM:   3    -0.413618219037E+03   -0.97819E-01   -0.18201E-01  5370   0.452E-01    0.167E+00
RMM:   4    -0.413524389810E+03    0.93829E-01   -0.14297E-01  5187   0.424E-01    0.707E-01
RMM:   5    -0.413508678902E+03    0.15711E-01   -0.55010E-02  4826   0.309E-01    0.157E-01
RMM:   6    -0.413508867318E+03   -0.18842E-03   -0.13606E-02  5702   0.134E-01    0.143E-01
RMM:   7    -0.413507846160E+03    0.10212E-02   -0.29185E-03  4967   0.668E-02    0.654E-02
RMM:   8    -0.413507789097E+03    0.57064E-04   -0.96134E-04  5698   0.367E-02    0.310E-02
RMM:   9    -0.413507803623E+03   -0.14527E-04   -0.27441E-04  5874   0.189E-02    0.286E-02
RMM:  10    -0.413507784512E+03    0.19111E-04   -0.75124E-05  5199   0.112E-02    0.926E-03
RMM:  11    -0.413507788632E+03   -0.41205E-05   -0.37144E-05  5311   0.624E-03    0.694E-03
RMM:  12    -0.413507790032E+03   -0.13997E-05   -0.43761E-06  2922   0.321E-03    0.283E-03
RMM:  13    -0.413507791163E+03   -0.11307E-05   -0.16721E-06  2616   0.200E-03    0.134E-03
RMM:  14    -0.413507791970E+03   -0.80775E-06   -0.89641E-07  2429   0.149E-03
  144 T=   128. E= -.41287854E+03 F= -.41350779E+03 E0= -.41348479E+03  EK= 0.62926E+00 SP= 0.00E+00 SK= 0.00E+00
       N       E                     dE             d eps       ncg     rms          rms(c)
RMM:   1    -0.413391951248E+03    0.11584E+00   -0.12036E+01  4277   0.629E+00    0.124E+00
RMM:   2    -0.413366919423E+03    0.25032E-01   -0.41211E-01  5394   0.677E-01    0.109E+00
RMM:   3    -0.413400391401E+03   -0.33472E-01   -0.97381E-02  5450   0.338E-01    0.123E+00
RMM:   4    -0.413360954000E+03    0.39437E-01   -0.77499E-02  5235   0.319E-01    0.540E-01
RMM:   5    -0.413353836006E+03    0.71180E-02   -0.37370E-02  4821   0.253E-01    0.161E-01
RMM:   6    -0.413353176102E+03    0.65990E-03   -0.98927E-03  5407   0.121E-01    0.118E-01
RMM:   7    -0.413352431310E+03    0.74479E-03   -0.16473E-03  4729   0.555E-02    0.474E-02
RMM:   8    -0.413352422436E+03    0.88737E-05   -0.59575E-04  5667   0.284E-02    0.275E-02
RMM:   9    -0.413352433967E+03   -0.11531E-04   -0.17817E-04  5641   0.158E-02    0.230E-02
RMM:  10    -0.413352426336E+03    0.76318E-05   -0.35259E-05  5003   0.779E-03    0.107E-02
RMM:  11    -0.413352429824E+03   -0.34884E-05   -0.32496E-05  5183   0.621E-03    0.488E-03
RMM:  12    -0.413352433615E+03   -0.37909E-05   -0.35415E-06  2833   0.291E-03    0.237E-03
RMM:  13    -0.413352435024E+03   -0.14087E-05   -0.12935E-06  2572   0.170E-03    0.124E-03
RMM:  14    -0.413352436097E+03   -0.10732E-05   -0.87987E-07  2417   0.136E-03    0.676E-04
RMM:  15    -0.413352436366E+03   -0.26905E-06   -0.67380E-07  2069   0.110E-03
  145 T=    98. E= -.41287251E+03 F= -.41335244E+03 E0= -.41332969E+03  EK= 0.47993E+00 SP= 0.00E+00 SK= 0.00E+00
       N       E                     dE             d eps       ncg     rms          rms(c)
RMM:   1    -0.413255140787E+03    0.97295E-01   -0.76918E+00  4277   0.516E+00    0.810E-01
RMM:   2    -0.413244035125E+03    0.11106E-01   -0.20117E-01  5391   0.512E-01    0.775E-01
RMM:   3    -0.413245988435E+03   -0.19533E-02   -0.41909E-02  5533   0.227E-01    0.756E-01
RMM:   4    -0.413235101700E+03    0.10887E-01   -0.26945E-02  5272   0.193E-01    0.367E-01
RMM:   5    -0.413234000323E+03    0.11014E-02   -0.20197E-02  4907   0.179E-01    0.164E-01
RMM:   6    -0.413232840137E+03    0.11602E-02   -0.60132E-03  5055   0.982E-02    0.861E-02
RMM:   7    -0.413232474456E+03    0.36568E-03   -0.74617E-04  4576   0.413E-02    0.369E-02
RMM:   8    -0.413232479959E+03   -0.55026E-05   -0.31320E-04  5784   0.203E-02    0.258E-02
RMM:   9    -0.413232485036E+03   -0.50769E-05   -0.92636E-05  4931   0.122E-02    0.145E-02
RMM:  10    -0.413232486131E+03   -0.10949E-05   -0.21797E-05  4629   0.602E-03    0.733E-03
RMM:  11    -0.413232490084E+03   -0.39533E-05   -0.13722E-05  4310   0.461E-03    0.364E-03
RMM:  12    -0.413232494131E+03   -0.40468E-05   -0.25260E-06  2704   0.257E-03    0.214E-03
RMM:  13    -0.413232495551E+03   -0.14206E-05   -0.98278E-07  2523   0.151E-03    0.101E-03
RMM:  14    -0.413232496936E+03   -0.13850E-05   -0.91570E-07  2325   0.135E-03    0.490E-04
RMM:  15    -0.413232497340E+03   -0.40319E-06   -0.73502E-07  2074   0.109E-03
  146 T=    75. E= -.41286291E+03 F= -.41323250E+03 E0= -.41320978E+03  EK= 0.36959E+00 SP= 0.00E+00 SK= 0.00E+00
       N       E                     dE             d eps       ncg     rms          rms(c)
RMM:   1    -0.413268099048E+03   -0.35602E-01   -0.61887E+00  4271   0.464E+00    0.738E-01
RMM:   2    -0.413282432199E+03   -0.14333E-01   -0.22117E-01  5401   0.461E-01    0.683E-01
RMM:   3    -0.413282726791E+03   -0.29459E-03   -0.37992E-02  5437   0.214E-01    0.656E-01
RMM:   4    -0.413274248273E+03    0.84785E-02   -0.25959E-02  5231   0.192E-01    0.284E-01
RMM:   5    -0.413272125622E+03    0.21227E-02   -0.17314E-02  4978   0.161E-01    0.127E-01
RMM:   6    -0.413271351451E+03    0.77417E-03   -0.37192E-03  5183   0.798E-02    0.684E-02
RMM:   7    -0.413271175944E+03    0.17551E-03   -0.40722E-04  4515   0.306E-02    0.298E-02
RMM:   8    -0.413271184453E+03   -0.85085E-05   -0.26865E-04  5578   0.190E-02    0.200E-02
RMM:   9    -0.413271189904E+03   -0.54511E-05   -0.68313E-05  5449   0.969E-03    0.149E-02
RMM:  10    -0.413271188043E+03    0.18616E-05   -0.22324E-05  4959   0.602E-03    0.582E-03
RMM:  11    -0.413271191664E+03   -0.36214E-05   -0.15891E-05  4568   0.449E-03    0.422E-03
RMM:  12    -0.413271193911E+03   -0.22469E-05   -0.19488E-06  2623   0.240E-03    0.192E-03
RMM:  13    -0.413271194985E+03   -0.10747E-05   -0.77109E-07  2473   0.146E-03    0.110E-03
RMM:  14    -0.413271196350E+03   -0.13642E-05   -0.70712E-07  2287   0.126E-03    0.413E-04
RMM:  15    -0.413271196927E+03   -0.57771E-06   -0.43771E-07  1863   0.949E-04
  147 T=    83. E= -.41286576E+03 F= -.41327120E+03 E0= -.41324831E+03  EK= 0.40544E+00 SP= 0.00E+00 SK= 0.00E+00
       N       E                     dE             d eps       ncg     rms          rms(c)
RMM:   1    -0.413454934531E+03   -0.18374E+00   -0.92897E+00  4278   0.511E+00    0.123E+00
RMM:   2    -0.413445931751E+03    0.90028E-02   -0.40509E-01  5378   0.583E-01    0.102E+00
RMM:   3    -0.413481123062E+03   -0.35191E-01   -0.10826E-01  5350   0.345E-01    0.121E+00
RMM:   4    -0.413437463748E+03    0.43659E-01   -0.76000E-02  5187   0.320E-01    0.418E-01
RMM:   5    -0.413430744736E+03    0.67190E-02   -0.36484E-02  4994   0.239E-01    0.154E-01
RMM:   6    -0.413430079568E+03    0.66517E-03   -0.97398E-03  5483   0.118E-01    0.118E-01
RMM:   7    -0.413429543427E+03    0.53614E-03   -0.11124E-03  4570   0.474E-02    0.444E-02
RMM:   8    -0.413429543794E+03   -0.36705E-06   -0.68595E-04  5680   0.297E-02    0.208E-02
RMM:   9    -0.413429549789E+03   -0.59953E-05   -0.11203E-04  5859   0.117E-02    0.171E-02
RMM:  10    -0.413429544126E+03    0.56632E-05   -0.34372E-05  5117   0.716E-03    0.635E-03
RMM:  11    -0.413429546807E+03   -0.26810E-05   -0.16161E-05  4480   0.441E-03    0.467E-03
RMM:  12    -0.413429548204E+03   -0.13969E-05   -0.22157E-06  2688   0.248E-03    0.168E-03
RMM:  13    -0.413429549146E+03   -0.94190E-06   -0.72534E-07  2455   0.149E-03
  148 T=   113. E= -.41287599E+03 F= -.41342955E+03 E0= -.41340639E+03  EK= 0.55356E+00 SP= 0.00E+00 SK= 0.00E+00
       N       E                     dE             d eps       ncg     rms          rms(c)
RMM:   1    -0.413668765655E+03   -0.23922E+00   -0.13423E+01  4295   0.603E+00    0.118E+00
RMM:   2    -0.413582463495E+03    0.86302E-01   -0.44709E-01  5362   0.686E-01    0.108E+00
RMM:   3    -0.413593640095E+03   -0.11177E-01   -0.10121E-01  5406   0.347E-01    0.110E+00
RMM:   4    -0.413566784284E+03    0.26856E-01   -0.64337E-02  5271   0.293E-01    0.471E-01
RMM:   5    -0.413562835467E+03    0.39488E-02   -0.35939E-02  4938   0.244E-01    0.211E-01
RMM:   6    -0.413562034856E+03    0.80061E-03   -0.14017E-02  5335   0.142E-01    0.155E-01
RMM:   7    -0.413560912629E+03    0.11222E-02   -0.18380E-03  4533   0.631E-02    0.525E-02
RMM:   8    -0.413560922571E+03   -0.99413E-05   -0.10697E-03  5878   0.356E-02    0.252E-02
RMM:   9    -0.413560923903E+03   -0.13319E-05   -0.17218E-04  5613   0.152E-02    0.200E-02
RMM:  10    -0.413560916362E+03    0.75400E-05   -0.38208E-05  5106   0.789E-03    0.850E-03
RMM:  11    -0.413560919447E+03   -0.30841E-05   -0.19017E-05  4719   0.491E-03    0.438E-03
RMM:  12    -0.413560922935E+03   -0.34882E-05   -0.25418E-06  2734   0.259E-03    0.169E-03
RMM:  13    -0.413560925126E+03   -0.21908E-05   -0.85302E-07  2499   0.160E-03    0.819E-04
RMM:  14    -0.413560927262E+03   -0.21366E-05   -0.51271E-07  2385   0.117E-03    0.478E-04
RMM:  15    -0.413560929135E+03   -0.18728E-05   -0.32004E-07  1798   0.902E-04    0.336E-04
RMM:  16    -0.413560931405E+03   -0.22702E-05   -0.31036E-07  1753   0.869E-04    0.163E-04
RMM:  17    -0.413560932614E+03   -0.12090E-05   -0.17747E-07  1375   0.717E-04    0.952E-05
RMM:  18    -0.413560934486E+03   -0.18722E-05   -0.19397E-07  1502   0.731E-04    0.673E-05
RMM:  19    -0.413560935228E+03   -0.74162E-06   -0.10111E-07  1130   0.609E-04
  149 T=   139. E= -.41287939E+03 F= -.41356094E+03 E0= -.41353762E+03  EK= 0.68155E+00 SP= 0.00E+00 SK= 0.00E+00
       N       E                     dE             d eps       ncg     rms          rms(c)
RMM:   1    -0.413708310391E+03   -0.14738E+00   -0.14912E+01  4298   0.676E+00    0.848E-01
RMM:   2    -0.413616507779E+03    0.91803E-01   -0.41218E-01  5381   0.710E-01    0.897E-01
RMM:   3    -0.413609148208E+03    0.73596E-02   -0.68605E-02  5563   0.296E-01    0.792E-01
RMM:   4    -0.413599137816E+03    0.10010E-01   -0.24528E-02  5330   0.186E-01    0.445E-01
RMM:   5    -0.413599732103E+03   -0.59429E-03   -0.20195E-02  4908   0.184E-01    0.266E-01
RMM:   6    -0.413598913122E+03    0.81898E-03   -0.13746E-02  5096   0.141E-01    0.154E-01
RMM:   7    -0.413597783669E+03    0.11295E-02   -0.22184E-03  4779   0.677E-02    0.606E-02
RMM:   8    -0.413597784176E+03   -0.50709E-06   -0.10844E-03  5950   0.355E-02    0.383E-02
RMM:   9    -0.413597757880E+03    0.26296E-04   -0.23877E-04  4677   0.190E-02    0.174E-02
RMM:  10    -0.413597757753E+03    0.12753E-06   -0.59725E-05  5559   0.940E-03    0.915E-03
RMM:  11    -0.413597761024E+03   -0.32708E-05   -0.15520E-05  4336   0.509E-03    0.524E-03
RMM:  12    -0.413597766415E+03   -0.53911E-05   -0.45445E-06  2998   0.312E-03    0.248E-03
RMM:  13    -0.413597770292E+03   -0.38778E-05   -0.14384E-06  2596   0.186E-03    0.112E-03
RMM:  14    -0.413597773957E+03   -0.36646E-05   -0.10388E-06  2535   0.150E-03    0.608E-04
RMM:  15    -0.413597776776E+03   -0.28186E-05   -0.71860E-07  2315   0.117E-03    0.384E-04
RMM:  16    -0.413597778874E+03   -0.20989E-05   -0.49216E-07  1863   0.967E-04    0.247E-04
RMM:  17    -0.413597780401E+03   -0.15263E-05   -0.33537E-07  1632   0.838E-04    0.135E-04
RMM:  18    -0.413597782137E+03   -0.17366E-05   -0.40301E-07  1857   0.875E-04    0.104E-04
RMM:  19    -0.413597782702E+03   -0.56448E-06   -0.14703E-07  1134   0.630E-04
  150 T=   147. E= -.41287738E+03 F= -.41359778E+03 E0= -.41357454E+03  EK= 0.72041E+00 SP= 0.00E+00 SK= 0.00E+00
