       N       E                     dE             d eps       ncg     rms          rms(c)
RMM:   1     0.220131134076E+04    0.22013E+04   -0.52443E+04  2132   0.654E+02
RMM:   2     0.705764273387E+03   -0.14955E+04   -0.16264E+04  2132   0.177E+02
RMM:   3     0.138068851613E+03   -0.56770E+03   -0.65706E+03  2132   0.117E+02
RMM:   4    -0.159247063344E+03   -0.29732E+03   -0.27843E+03  2132   0.936E+01
RMM:   5    -0.287439377334E+03   -0.12819E+03   -0.11443E+03  2132   0.595E+01
RMM:   6    -0.349842229247E+03   -0.62403E+02   -0.55180E+02  2132   0.423E+01
RMM:   7    -0.382733401653E+03   -0.32891E+02   -0.30444E+02  2132   0.293E+01
RMM:   8    -0.404233612242E+03   -0.21500E+02   -0.18424E+02  2132   0.233E+01
RMM:   9    -0.436043412943E+03   -0.31810E+02   -0.30719E+02  6103   0.173E+01
RMM:  10    -0.441306892504E+03   -0.52635E+01   -0.62769E+01  6393   0.540E+00
RMM:  11    -0.442527716008E+03   -0.12208E+01   -0.11134E+01  6221   0.173E+00
RMM:  12    -0.442894239134E+03   -0.36652E+00   -0.27523E+00  6362   0.602E-01    0.134E+02
RMM:  13    -0.425571949428E+03    0.17322E+02   -0.80865E+01  4675   0.119E+01    0.712E+01
RMM:  14    -0.498927562857E+03   -0.73356E+02   -0.53643E+02  5417   0.232E+01    0.306E+01
RMM:  15    -0.416623431854E+03    0.82304E+02   -0.20043E+02  5113   0.163E+01    0.751E+00
RMM:  16    -0.414023693230E+03    0.25997E+01   -0.39730E+01  6091   0.612E+00    0.429E+00
RMM:  17    -0.413211430893E+03    0.81226E+00   -0.26100E+00  5407   0.191E+00    0.244E+00
RMM:  18    -0.413175723743E+03    0.35707E-01   -0.75359E-01  5982   0.891E-01    0.169E+00
RMM:  19    -0.413171965553E+03    0.37582E-02   -0.25901E-01  5692   0.552E-01    0.905E-01
RMM:  20    -0.413192595804E+03   -0.20630E-01   -0.30988E-01  5583   0.575E-01    0.661E-01
RMM:  21    -0.413169655442E+03    0.22940E-01   -0.36215E-02  4994   0.247E-01    0.316E-01
RMM:  22    -0.413165556017E+03    0.40994E-02   -0.26388E-02  5828   0.158E-01    0.139E-01
RMM:  23    -0.413164734877E+03    0.82114E-03   -0.61733E-03  6054   0.694E-02    0.875E-02
RMM:  24    -0.413163499662E+03    0.12352E-02   -0.18415E-03  5326   0.436E-02    0.535E-02
RMM:  25    -0.413162822390E+03    0.67727E-03   -0.92078E-04  4997   0.299E-02    0.442E-02
RMM:  26    -0.413162867761E+03   -0.45371E-04   -0.10790E-03  5739   0.338E-02    0.324E-02
RMM:  27    -0.413163286194E+03   -0.41843E-03   -0.21543E-04  4562   0.206E-02    0.182E-02
RMM:  28    -0.413163722154E+03   -0.43596E-03   -0.15089E-04  4976   0.170E-02    0.105E-02
RMM:  29    -0.413164093158E+03   -0.37100E-03   -0.11238E-04  4634   0.152E-02    0.439E-03
RMM:  30    -0.413164352265E+03   -0.25911E-03   -0.88467E-05  4436   0.112E-02    0.426E-03
RMM:  31    -0.413164490377E+03   -0.13811E-03   -0.59445E-05  3321   0.732E-03    0.368E-03
RMM:  32    -0.413164520966E+03   -0.30590E-04   -0.23777E-05  2986   0.330E-03    0.194E-03
RMM:  33    -0.413164534374E+03   -0.13408E-04   -0.95626E-06  2823   0.230E-03    0.705E-04
RMM:  34    -0.413164536688E+03   -0.23146E-05   -0.51155E-06  2617   0.157E-03    0.476E-04
RMM:  35    -0.413164536843E+03   -0.15483E-06   -0.22439E-06  2367   0.129E-03
    1 T=    61. E= -.41286674E+03 F= -.41316454E+03 E0= -.41314204E+03  EK= 0.29780E+00 SP= 0.00E+00 SK= 0.00E+00
       N       E                     dE             d eps       ncg     rms          rms(c)
RMM:   1    -0.413164355833E+03    0.18086E-03   -0.86770E+00  3981   0.602E-01    0.887E-01
RMM:   2    -0.413168841263E+03   -0.44854E-02   -0.10671E-01  3945   0.875E-02    0.653E-01
RMM:   3    -0.413164694905E+03    0.41464E-02   -0.19334E-02  4846   0.521E-02    0.106E-01
RMM:   4    -0.413188809027E+03   -0.24114E-01   -0.26112E-02  5194   0.135E-01    0.650E-01
RMM:   5    -0.413164041097E+03    0.24768E-01   -0.11946E-02  4841   0.109E-01    0.482E-02
RMM:   6    -0.413164227421E+03   -0.18632E-03   -0.22423E-03  5773   0.460E-02    0.342E-02
RMM:   7    -0.413164226696E+03    0.72465E-06   -0.42834E-04  5664   0.191E-02    0.211E-02
RMM:   8    -0.413164223931E+03    0.27648E-05   -0.51326E-05  5112   0.798E-03    0.921E-03
RMM:   9    -0.413164226155E+03   -0.22243E-05   -0.11083E-05  3557   0.349E-03    0.690E-03
RMM:  10    -0.413164231000E+03   -0.48450E-05   -0.22237E-06  2591   0.222E-03    0.409E-03
RMM:  11    -0.413164235196E+03   -0.41955E-05   -0.13223E-06  2521   0.172E-03    0.222E-03
RMM:  12    -0.413164241684E+03   -0.64877E-05   -0.16901E-06  2562   0.183E-03    0.930E-04
RMM:  13    -0.413164244248E+03   -0.25642E-05   -0.67630E-07  2367   0.125E-03    0.674E-04
RMM:  14    -0.413164244315E+03   -0.66888E-07   -0.35238E-07  1867   0.845E-04
    2 T=    61. E= -.41286649E+03 F= -.41316424E+03 E0= -.41314174E+03  EK= 0.29775E+00 SP= 0.00E+00 SK= 0.00E+00
       N       E                     dE             d eps       ncg     rms          rms(c)
RMM:   1    -0.413165362406E+03   -0.11182E-02   -0.86687E+00  4182   0.612E-01    0.905E-01
RMM:   2    -0.413169059714E+03   -0.36973E-02   -0.10583E-01  3957   0.861E-02    0.649E-01
RMM:   3    -0.413165289642E+03    0.37701E-02   -0.18161E-02  4887   0.490E-02    0.107E-01
RMM:   4    -0.413191224917E+03   -0.25935E-01   -0.27408E-02  5159   0.138E-01    0.674E-01
RMM:   5    -0.413164656209E+03    0.26569E-01   -0.12656E-02  4822   0.112E-01    0.491E-02
RMM:   6    -0.413164846833E+03   -0.19062E-03   -0.23385E-03  5767   0.473E-02    0.351E-02
RMM:   7    -0.413164834372E+03    0.12462E-04   -0.43505E-04  5606   0.199E-02    0.217E-02
RMM:   8    -0.413164824012E+03    0.10360E-04   -0.57849E-05  5120   0.863E-03    0.101E-02
RMM:   9    -0.413164822304E+03    0.17077E-05   -0.11774E-05  3701   0.378E-03    0.752E-03
RMM:  10    -0.413164822519E+03   -0.21463E-06   -0.21251E-06  2584   0.233E-03
    3 T=    61. E= -.41286685E+03 F= -.41316482E+03 E0= -.41314233E+03  EK= 0.29797E+00 SP= 0.00E+00 SK= 0.00E+00
       N       E                     dE             d eps       ncg     rms          rms(c)
RMM:   1    -0.413164918223E+03   -0.95918E-04   -0.86045E+00  4221   0.618E-01    0.890E-01
RMM:   2    -0.413168562807E+03   -0.36446E-02   -0.10549E-01  4202   0.850E-02    0.643E-01
RMM:   3    -0.413170924361E+03   -0.23616E-02   -0.22350E-02  5169   0.859E-02    0.341E-01
RMM:   4    -0.413187015818E+03   -0.16091E-01   -0.38021E-02  5103   0.168E-01    0.619E-01
RMM:   5    -0.413164551591E+03    0.22464E-01   -0.83316E-03  4685   0.101E-01    0.595E-02
RMM:   6    -0.413164557818E+03   -0.62275E-05   -0.16657E-03  5420   0.416E-02    0.320E-02
RMM:   7    -0.413164583173E+03   -0.25355E-04   -0.34144E-04  5963   0.170E-02    0.193E-02
RMM:   8    -0.413164579221E+03    0.39521E-05   -0.60849E-05  5166   0.904E-03    0.790E-03
RMM:   9    -0.413164577466E+03    0.17551E-05   -0.75027E-06  3361   0.357E-03    0.400E-03
RMM:  10    -0.413164578548E+03   -0.10825E-05   -0.16271E-06  2539   0.213E-03    0.253E-03
RMM:  11    -0.413164580125E+03   -0.15772E-05   -0.13233E-06  2533   0.179E-03    0.144E-03
RMM:  12    -0.413164580889E+03   -0.76379E-06   -0.76938E-07  2488   0.140E-03
    4 T=    61. E= -.41286665E+03 F= -.41316458E+03 E0= -.41314209E+03  EK= 0.29793E+00 SP= 0.00E+00 SK= 0.00E+00
       N       E                     dE             d eps       ncg     rms          rms(c)
RMM:   1    -0.413164700670E+03   -0.12054E-03   -0.86673E+00  4235   0.614E-01    0.885E-01
RMM:   2    -0.413169024651E+03   -0.43240E-02   -0.10687E-01  3974   0.843E-02    0.651E-01
RMM:   3    -0.413165494357E+03    0.35303E-02   -0.19491E-02  4979   0.519E-02    0.128E-01
RMM:   4    -0.413196412078E+03   -0.30918E-01   -0.33790E-02  5146   0.154E-01    0.737E-01
RMM:   5    -0.413164514279E+03    0.31898E-01   -0.14950E-02  4810   0.122E-01    0.507E-02
RMM:   6    -0.413164724576E+03   -0.21030E-03   -0.26754E-03  5750   0.509E-02    0.343E-02
RMM:   7    -0.413164729905E+03   -0.53287E-05   -0.46403E-04  5730   0.200E-02    0.220E-02
RMM:   8    -0.413164725402E+03    0.45024E-05   -0.65384E-05  5157   0.890E-03    0.101E-02
RMM:   9    -0.413164726214E+03   -0.81181E-06   -0.12542E-05  3848   0.398E-03    0.734E-03
RMM:  10    -0.413164730274E+03   -0.40594E-05   -0.20994E-06  2586   0.229E-03    0.444E-03
RMM:  11    -0.413164733620E+03   -0.33460E-05   -0.11878E-06  2527   0.174E-03    0.250E-03
RMM:  12    -0.413164739164E+03   -0.55445E-05   -0.19513E-06  2606   0.201E-03    0.112E-03
RMM:  13    -0.413164741170E+03   -0.20056E-05   -0.64139E-07  2405   0.134E-03    0.822E-04
RMM:  14    -0.413164741065E+03    0.10489E-06   -0.25365E-07  1935   0.873E-04
    5 T=    61. E= -.41286666E+03 F= -.41316474E+03 E0= -.41314226E+03  EK= 0.29808E+00 SP= 0.00E+00 SK= 0.00E+00
       N       E                     dE             d eps       ncg     rms          rms(c)
RMM:   1    -0.413165559212E+03   -0.81804E-03   -0.86752E+00  4246   0.619E-01    0.902E-01
RMM:   2    -0.413169207313E+03   -0.36481E-02   -0.10627E-01  3970   0.841E-02    0.651E-01
RMM:   3    -0.413165651742E+03    0.35556E-02   -0.18347E-02  4892   0.468E-02    0.104E-01
RMM:   4    -0.413190307224E+03   -0.24655E-01   -0.25907E-02  5136   0.134E-01    0.658E-01
RMM:   5    -0.413165046310E+03    0.25261E-01   -0.12005E-02  4810   0.109E-01    0.484E-02
RMM:   6    -0.413165230097E+03   -0.18379E-03   -0.22690E-03  5750   0.458E-02    0.340E-02
RMM:   7    -0.413165223614E+03    0.64832E-05   -0.41459E-04  5597   0.195E-02    0.215E-02
RMM:   8    -0.413165212857E+03    0.10756E-04   -0.56080E-05  5001   0.849E-03    0.101E-02
RMM:   9    -0.413165211529E+03    0.13281E-05   -0.11183E-05  3664   0.374E-03    0.762E-03
RMM:  10    -0.413165211954E+03   -0.42473E-06   -0.20109E-06  2565   0.232E-03
    6 T=    61. E= -.41286681E+03 F= -.41316521E+03 E0= -.41314275E+03  EK= 0.29840E+00 SP= 0.00E+00 SK= 0.00E+00
       N       E                     dE             d eps       ncg     rms          rms(c)
RMM:   1    -0.413165345404E+03   -0.13387E-03   -0.86297E+00  4257   0.626E-01    0.897E-01
RMM:   2    -0.413168972232E+03   -0.36268E-02   -0.10573E-01  4257   0.843E-02    0.645E-01
RMM:   3    -0.413170970070E+03   -0.19978E-02   -0.22046E-02  5140   0.837E-02    0.333E-01
RMM:   4    -0.413188052824E+03   -0.17083E-01   -0.38241E-02  5088   0.167E-01    0.628E-01
RMM:   5    -0.413164939709E+03    0.23113E-01   -0.86687E-03  4685   0.102E-01    0.594E-02
RMM:   6    -0.413164959075E+03   -0.19366E-04   -0.17435E-03  5428   0.421E-02    0.325E-02
RMM:   7    -0.413164977366E+03   -0.18291E-04   -0.34448E-04  5956   0.170E-02    0.194E-02
RMM:   8    -0.413164971937E+03    0.54297E-05   -0.59273E-05  5131   0.894E-03    0.792E-03
RMM:   9    -0.413164968690E+03    0.32471E-05   -0.71081E-06  3283   0.348E-03    0.408E-03
RMM:  10    -0.413164968563E+03    0.12632E-06   -0.16959E-06  2546   0.214E-03
    7 T=    61. E= -.41286647E+03 F= -.41316497E+03 E0= -.41314252E+03  EK= 0.29850E+00 SP= 0.00E+00 SK= 0.00E+00
       N       E                     dE             d eps       ncg     rms          rms(c)
RMM:   1    -0.413165572900E+03   -0.60421E-03   -0.86590E+00  4269   0.627E-01    0.883E-01
RMM:   2    -0.413170025396E+03   -0.44525E-02   -0.10651E-01  4077   0.863E-02    0.650E-01
RMM:   3    -0.413166436746E+03    0.35887E-02   -0.19278E-02  4968   0.539E-02    0.134E-01
RMM:   4    -0.413198915055E+03   -0.32478E-01   -0.35847E-02  5134   0.158E-01    0.755E-01
RMM:   5    -0.413165364027E+03    0.33551E-01   -0.15757E-02  4798   0.125E-01    0.518E-02
RMM:   6    -0.413165576078E+03   -0.21205E-03   -0.27649E-03  5727   0.520E-02    0.347E-02
RMM:   7    -0.413165578165E+03   -0.20867E-05   -0.47704E-04  5737   0.200E-02    0.221E-02
RMM:   8    -0.413165573349E+03    0.48162E-05   -0.66019E-05  5188   0.893E-03    0.101E-02
RMM:   9    -0.413165572852E+03    0.49618E-06   -0.12802E-05  3874   0.399E-03    0.717E-03
RMM:  10    -0.413165575506E+03   -0.26540E-05   -0.21236E-06  2585   0.227E-03    0.435E-03
RMM:  11    -0.413165577706E+03   -0.21995E-05   -0.11463E-06  2520   0.171E-03    0.244E-03
RMM:  12    -0.413165581279E+03   -0.35729E-05   -0.18869E-06  2597   0.197E-03    0.108E-03
RMM:  13    -0.413165582635E+03   -0.13560E-05   -0.68873E-07  2422   0.135E-03    0.864E-04
RMM:  14    -0.413165582393E+03    0.24196E-06   -0.25194E-07  1922   0.869E-04
    8 T=    61. E= -.41286672E+03 F= -.41316558E+03 E0= -.41314315E+03  EK= 0.29886E+00 SP= 0.00E+00 SK= 0.00E+00
       N       E                     dE             d eps       ncg     rms          rms(c)
RMM:   1    -0.413166015408E+03   -0.43277E-03   -0.86956E+00  4283   0.632E-01    0.898E-01
RMM:   2    -0.413170171224E+03   -0.41558E-02   -0.10645E-01  4122   0.875E-02    0.653E-01
RMM:   3    -0.413166217196E+03    0.39540E-02   -0.18719E-02  4847   0.511E-02    0.107E-01
RMM:   4    -0.413191969198E+03   -0.25752E-01   -0.27127E-02  5133   0.138E-01    0.673E-01
RMM:   5    -0.413165558765E+03    0.26410E-01   -0.12647E-02  4807   0.111E-01    0.482E-02
RMM:   6    -0.413165739648E+03   -0.18088E-03   -0.22743E-03  5756   0.463E-02    0.333E-02
RMM:   7    -0.413165735177E+03    0.44712E-05   -0.40454E-04  5622   0.193E-02    0.211E-02
RMM:   8    -0.413165725628E+03    0.95497E-05   -0.58506E-05  5023   0.862E-03    0.101E-02
RMM:   9    -0.413165724003E+03    0.16240E-05   -0.11714E-05  3759   0.385E-03    0.752E-03
RMM:  10    -0.413165724478E+03   -0.47491E-06   -0.19822E-06  2565   0.229E-03
    9 T=    61. E= -.41286663E+03 F= -.41316572E+03 E0= -.41314332E+03  EK= 0.29909E+00 SP= 0.00E+00 SK= 0.00E+00
       N       E                     dE             d eps       ncg     rms          rms(c)
RMM:   1    -0.413167532825E+03   -0.18088E-02   -0.86792E+00  4291   0.651E-01    0.903E-01
RMM:   2    -0.413170059037E+03   -0.25262E-02   -0.10589E-01  4276   0.883E-02    0.646E-01
RMM:   3    -0.413171650526E+03   -0.15915E-02   -0.21984E-02  5134   0.840E-02    0.329E-01
RMM:   4    -0.413189134944E+03   -0.17484E-01   -0.38192E-02  5078   0.167E-01    0.631E-01
RMM:   5    -0.413165776289E+03    0.23359E-01   -0.87864E-03  4687   0.102E-01    0.590E-02
RMM:   6    -0.413165804418E+03   -0.28129E-04   -0.17856E-03  5446   0.422E-02    0.329E-02
RMM:   7    -0.413165817653E+03   -0.13235E-04   -0.34389E-04  5912   0.171E-02    0.195E-02
RMM:   8    -0.413165810582E+03    0.70707E-05   -0.59009E-05  5100   0.901E-03    0.793E-03
RMM:   9    -0.413165806258E+03    0.43239E-05   -0.74614E-06  3271   0.351E-03    0.414E-03
RMM:  10    -0.413165804961E+03    0.12970E-05   -0.17602E-06  2549   0.216E-03    0.262E-03
RMM:  11    -0.413165803042E+03    0.19189E-05   -0.12141E-06  2511   0.175E-03    0.140E-03
RMM:  12    -0.413165801054E+03    0.19878E-05   -0.76524E-07  2471   0.140E-03    0.579E-04
RMM:  13    -0.413165799890E+03    0.11643E-05   -0.38834E-07  2133   0.102E-03    0.331E-04
RMM:  14    -0.413165798769E+03    0.11206E-05   -0.23318E-07  1641   0.802E-04    0.219E-04
RMM:  15    -0.413165796874E+03    0.18956E-05   -0.23525E-07  1554   0.768E-04    0.172E-04
RMM:  16    -0.413165794918E+03    0.19560E-05   -0.19160E-07  1380   0.707E-04    0.152E-04
RMM:  17    -0.413165793200E+03    0.17173E-05   -0.14149E-07  1275   0.656E-04    0.780E-05
RMM:  18    -0.413165791848E+03    0.13528E-05   -0.92661E-08  1055   0.601E-04    0.427E-05
RMM:  19    -0.413165791259E+03    0.58895E-06   -0.47742E-08   864   0.553E-04
   10 T=    61. E= -.41286651E+03 F= -.41316579E+03 E0= -.41314341E+03  EK= 0.29928E+00 SP= 0.00E+00 SK= 0.00E+00
       N       E                     dE             d eps       ncg     rms          rms(c)
RMM:   1    -0.413166503554E+03   -0.71171E-03   -0.86504E+00  4292   0.640E-01    0.884E-01
RMM:   2    -0.413170796675E+03   -0.42931E-02   -0.10645E-01  4197   0.859E-02    0.647E-01
RMM:   3    -0.413167410262E+03    0.33864E-02   -0.18892E-02  4952   0.531E-02    0.132E-01
RMM:   4    -0.413199764616E+03   -0.32354E-01   -0.35637E-02  5129   0.157E-01    0.753E-01
RMM:   5    -0.413166380648E+03    0.33384E-01   -0.15811E-02  4794   0.125E-01    0.515E-02
RMM:   6    -0.413166590285E+03   -0.20964E-03   -0.27339E-03  5719   0.515E-02    0.351E-02
RMM:   7    -0.413166588774E+03    0.15108E-05   -0.46895E-04  5648   0.201E-02    0.220E-02
RMM:   8    -0.413166581524E+03    0.72496E-05   -0.66195E-05  5190   0.903E-03    0.101E-02
RMM:   9    -0.413166579936E+03    0.15881E-05   -0.13113E-05  3902   0.407E-03    0.718E-03
RMM:  10    -0.413166581406E+03   -0.14699E-05   -0.20733E-06  2578   0.228E-03    0.437E-03
RMM:  11    -0.413166582601E+03   -0.11951E-05   -0.10808E-06  2503   0.167E-03    0.249E-03
RMM:  12    -0.413166584563E+03   -0.19617E-05   -0.16266E-06  2553   0.193E-03    0.109E-03
RMM:  13    -0.413166585242E+03   -0.67936E-06   -0.62606E-07  2384   0.134E-03
   11 T=    61. E= -.41286687E+03 F= -.41316659E+03 E0= -.41314423E+03  EK= 0.29971E+00 SP= 0.00E+00 SK= 0.00E+00
       N       E                     dE             d eps       ncg     rms          rms(c)
RMM:   1    -0.413166688354E+03   -0.10379E-03   -0.87174E+00  4296   0.645E-01    0.894E-01
RMM:   2    -0.413170749407E+03   -0.40611E-02   -0.10715E-01  4200   0.854E-02    0.654E-01
RMM:   3    -0.413167078446E+03    0.36710E-02   -0.19056E-02  4872   0.510E-02    0.111E-01
RMM:   4    -0.413194047930E+03   -0.26969E-01   -0.28737E-02  5123   0.141E-01    0.688E-01
RMM:   5    -0.413166342766E+03    0.27705E-01   -0.13177E-02  4796   0.114E-01    0.487E-02
RMM:   6    -0.413166534367E+03   -0.19160E-03   -0.24340E-03  5770   0.473E-02    0.328E-02
RMM:   7    -0.413166537219E+03   -0.28519E-05   -0.40317E-04  5659   0.192E-02    0.212E-02
RMM:   8    -0.413166527341E+03    0.98780E-05   -0.63934E-05  4993   0.880E-03    0.104E-02
RMM:   9    -0.413166525485E+03    0.18563E-05   -0.12589E-05  3897   0.404E-03    0.780E-03
RMM:  10    -0.413166526062E+03   -0.57691E-06   -0.20122E-06  2564   0.232E-03
   12 T=    61. E= -.41286655E+03 F= -.41316653E+03 E0= -.41314420E+03  EK= 0.29998E+00 SP= 0.00E+00 SK= 0.00E+00
       N       E                     dE             d eps       ncg     rms          rms(c)
RMM:   1    -0.413167623497E+03   -0.10980E-02   -0.87049E+00  4309   0.650E-01    0.908E-01
RMM:   2    -0.413170958702E+03   -0.33352E-02   -0.10662E-01  4308   0.852E-02    0.649E-01
RMM:   3    -0.413174400943E+03   -0.34422E-02   -0.23163E-02  5135   0.891E-02    0.365E-01
RMM:   4    -0.413187609691E+03   -0.13209E-01   -0.37449E-02  5070   0.166E-01    0.591E-01
RMM:   5    -0.413167119386E+03    0.20490E-01   -0.73584E-03  4648   0.961E-02    0.585E-02
RMM:   6    -0.413167120305E+03   -0.91834E-06   -0.15497E-03  5381   0.394E-02    0.327E-02
RMM:   7    -0.413167133132E+03   -0.12828E-04   -0.31092E-04  5892   0.166E-02    0.190E-02
RMM:   8    -0.413167125747E+03    0.73854E-05   -0.56247E-05  5107   0.878E-03    0.763E-03
RMM:   9    -0.413167120690E+03    0.50571E-05   -0.66777E-06  3215   0.342E-03    0.393E-03
RMM:  10    -0.413167118833E+03    0.18571E-05   -0.15155E-06  2516   0.208E-03    0.245E-03
RMM:  11    -0.413167115767E+03    0.30661E-05   -0.11702E-06  2510   0.172E-03    0.137E-03
RMM:  12    -0.413167113185E+03    0.25820E-05   -0.66478E-07  2451   0.134E-03    0.573E-04
RMM:  13    -0.413167111446E+03    0.17387E-05   -0.34943E-07  2077   0.978E-04    0.334E-04
RMM:  14    -0.413167109841E+03    0.16053E-05   -0.20595E-07  1563   0.774E-04    0.222E-04
RMM:  15    -0.413167106991E+03    0.28493E-05   -0.22302E-07  1509   0.753E-04    0.176E-04
RMM:  16    -0.413167104620E+03    0.23708E-05   -0.15662E-07  1289   0.676E-04    0.142E-04
RMM:  17    -0.413167102268E+03    0.23523E-05   -0.13107E-07  1262   0.655E-04    0.754E-05
RMM:  18    -0.413167101016E+03    0.12523E-05   -0.70253E-08   999   0.579E-04    0.471E-05
RMM:  19    -0.413167100072E+03    0.94399E-06   -0.42511E-08   847   0.549E-04
   13 T=    61. E= -.41286659E+03 F= -.41316710E+03 E0= -.41314480E+03  EK= 0.30051E+00 SP= 0.00E+00 SK= 0.00E+00
       N       E                     dE             d eps       ncg     rms          rms(c)
RMM:   1    -0.413167794414E+03   -0.69340E-03   -0.86623E+00  4293   0.653E-01    0.886E-01
RMM:   2    -0.413171846995E+03   -0.40526E-02   -0.10657E-01  4216   0.849E-02    0.646E-01
RMM:   3    -0.413168609516E+03    0.32375E-02   -0.18621E-02  4960   0.522E-02    0.136E-01
RMM:   4    -0.413201905364E+03   -0.33296E-01   -0.37050E-02  5127   0.160E-01    0.764E-01
RMM:   5    -0.413167528558E+03    0.34377E-01   -0.16208E-02  4790   0.127E-01    0.525E-02
RMM:   6    -0.413167743648E+03   -0.21509E-03   -0.29159E-03  5732   0.524E-02    0.356E-02
RMM:   7    -0.413167741804E+03    0.18438E-05   -0.48650E-04  5646   0.204E-02    0.227E-02
RMM:   8    -0.413167734337E+03    0.74667E-05   -0.69764E-05  5201   0.920E-03    0.105E-02
RMM:   9    -0.413167731231E+03    0.31059E-05   -0.13503E-05  3972   0.414E-03    0.749E-03
RMM:  10    -0.413167730915E+03    0.31625E-06   -0.21356E-06  2570   0.231E-03
   14 T=    61. E= -.41286667E+03 F= -.41316773E+03 E0= -.41314546E+03  EK= 0.30107E+00 SP= 0.00E+00 SK= 0.00E+00
       N       E                     dE             d eps       ncg     rms          rms(c)
RMM:   1    -0.413167891695E+03   -0.16046E-03   -0.87527E+00  4301   0.658E-01    0.892E-01
RMM:   2    -0.413172293994E+03   -0.44023E-02   -0.10773E-01  4298   0.877E-02    0.656E-01
RMM:   3    -0.413176143842E+03   -0.38498E-02   -0.25136E-02  5136   0.949E-02    0.388E-01
RMM:   4    -0.413188688339E+03   -0.12544E-01   -0.39632E-02  5062   0.171E-01    0.597E-01
RMM:   5    -0.413167781406E+03    0.20907E-01   -0.74016E-03  4635   0.977E-02    0.576E-02
RMM:   6    -0.413167782100E+03   -0.69462E-06   -0.15538E-03  5368   0.390E-02    0.312E-02
RMM:   7    -0.413167800091E+03   -0.17991E-04   -0.30515E-04  5903   0.163E-02    0.185E-02
RMM:   8    -0.413167797340E+03    0.27519E-05   -0.57002E-05  5094   0.876E-03    0.742E-03
RMM:   9    -0.413167795446E+03    0.18931E-05   -0.65399E-06  3167   0.343E-03    0.382E-03
RMM:  10    -0.413167796419E+03   -0.97206E-06   -0.14381E-06  2510   0.204E-03
   15 T=    61. E= -.41286634E+03 F= -.41316780E+03 E0= -.41314556E+03  EK= 0.30145E+00 SP= 0.00E+00 SK= 0.00E+00
       N       E                     dE             d eps       ncg     rms          rms(c)
RMM:   1    -0.413169449999E+03   -0.16546E-02   -0.87520E+00  4300   0.668E-01    0.910E-01
RMM:   2    -0.413173129131E+03   -0.36791E-02   -0.10715E-01  4229   0.891E-02    0.652E-01
RMM:   3    -0.413169716966E+03    0.34122E-02   -0.18330E-02  4953   0.538E-02    0.137E-01
RMM:   4    -0.413203719941E+03   -0.34003E-01   -0.37578E-02  5121   0.161E-01    0.771E-01
RMM:   5    -0.413168671020E+03    0.35049E-01   -0.16608E-02  4791   0.128E-01    0.529E-02
RMM:   6    -0.413168874106E+03   -0.20309E-03   -0.29064E-03  5744   0.533E-02    0.366E-02
RMM:   7    -0.413168866428E+03    0.76784E-05   -0.49709E-04  5696   0.209E-02    0.232E-02
RMM:   8    -0.413168853664E+03    0.12764E-04   -0.72005E-05  5190   0.946E-03    0.109E-02
RMM:   9    -0.413168847895E+03    0.57686E-05   -0.13635E-05  3942   0.418E-03    0.767E-03
RMM:  10    -0.413168844074E+03    0.38213E-05   -0.22795E-06  2586   0.239E-03    0.461E-03
RMM:  11    -0.413168841410E+03    0.26638E-05   -0.11623E-06  2507   0.175E-03    0.267E-03
RMM:  12    -0.413168836054E+03    0.53561E-05   -0.19222E-06  2589   0.208E-03    0.117E-03
RMM:  13    -0.413168832880E+03    0.31743E-05   -0.70358E-07  2426   0.142E-03    0.941E-04
RMM:  14    -0.413168832922E+03   -0.42433E-07   -0.26931E-07  1994   0.914E-04
   16 T=    62. E= -.41286667E+03 F= -.41316883E+03 E0= -.41314664E+03  EK= 0.30217E+00 SP= 0.00E+00 SK= 0.00E+00
       N       E                     dE             d eps       ncg     rms          rms(c)
RMM:   1    -0.413169431797E+03   -0.59892E-03   -0.86963E+00  4297   0.671E-01    0.892E-01
RMM:   2    -0.413173620882E+03   -0.41891E-02   -0.10685E-01  4244   0.915E-02    0.647E-01
RMM:   3    -0.413169928742E+03    0.36921E-02   -0.18161E-02  4886   0.522E-02    0.118E-01
RMM:   4    -0.413199665243E+03   -0.29737E-01   -0.31991E-02  5125   0.149E-01    0.721E-01
RMM:   5    -0.413169124270E+03    0.30541E-01   -0.14606E-02  4792   0.119E-01    0.503E-02
RMM:   6    -0.413169320776E+03   -0.19651E-03   -0.26518E-03  5771   0.495E-02    0.346E-02
RMM:   7    -0.413169313316E+03    0.74601E-05   -0.43345E-04  5635   0.200E-02    0.220E-02
RMM:   8    -0.413169300338E+03    0.12978E-04   -0.67774E-05  5073   0.913E-03    0.108E-02
RMM:   9    -0.413169295476E+03    0.48617E-05   -0.13222E-05  3941   0.413E-03    0.790E-03
RMM:  10    -0.413169292667E+03    0.28089E-05   -0.21240E-06  2574   0.236E-03    0.474E-03
RMM:  11    -0.413169290656E+03    0.20114E-05   -0.12704E-06  2516   0.182E-03    0.264E-03
RMM:  12    -0.413169287098E+03    0.35579E-05   -0.17870E-06  2567   0.205E-03    0.112E-03
RMM:  13    -0.413169285255E+03    0.18425E-05   -0.58709E-07  2382   0.135E-03    0.813E-04
RMM:  14    -0.413169285202E+03    0.53580E-07   -0.25296E-07  1959   0.880E-04
   17 T=    62. E= -.41286662E+03 F= -.41316929E+03 E0= -.41314713E+03  EK= 0.30267E+00 SP= 0.00E+00 SK= 0.00E+00
       N       E                     dE             d eps       ncg     rms          rms(c)
RMM:   1    -0.413169794278E+03   -0.50902E-03   -0.87843E+00  4298   0.670E-01    0.891E-01
RMM:   2    -0.413174200339E+03   -0.44061E-02   -0.10855E-01  4241   0.890E-02    0.657E-01
RMM:   3    -0.413170505054E+03    0.36953E-02   -0.19481E-02  4902   0.527E-02    0.121E-01
RMM:   4    -0.413200439879E+03   -0.29935E-01   -0.32481E-02  5120   0.150E-01    0.724E-01
RMM:   5    -0.413169624793E+03    0.30815E-01   -0.14784E-02  4789   0.120E-01    0.499E-02
RMM:   6    -0.413169820546E+03   -0.19575E-03   -0.26160E-03  5760   0.496E-02    0.336E-02
RMM:   7    -0.413169819374E+03    0.11717E-05   -0.43510E-04  5635   0.198E-02    0.216E-02
RMM:   8    -0.413169810150E+03    0.92238E-05   -0.66896E-05  5080   0.914E-03    0.104E-02
RMM:   9    -0.413169807305E+03    0.28448E-05   -0.13347E-05  3926   0.414E-03    0.759E-03
RMM:  10    -0.413169807355E+03   -0.49193E-07   -0.20462E-06  2568   0.230E-03
   18 T=    62. E= -.41286657E+03 F= -.41316981E+03 E0= -.41314769E+03  EK= 0.30324E+00 SP= 0.00E+00 SK= 0.00E+00
       N       E                     dE             d eps       ncg     rms          rms(c)
RMM:   1    -0.413172602868E+03   -0.27956E-02   -0.88085E+00  4303   0.696E-01    0.910E-01
RMM:   2    -0.413175048435E+03   -0.24456E-02   -0.10963E-01  4309   0.904E-02    0.655E-01
RMM:   3    -0.413178028712E+03   -0.29803E-02   -0.23110E-02  5134   0.892E-02    0.359E-01
RMM:   4    -0.413193135189E+03   -0.15106E-01   -0.39159E-02  5067   0.169E-01    0.614E-01
RMM:   5    -0.413170955212E+03    0.22180E-01   -0.80668E-03  4657   0.998E-02    0.584E-02
RMM:   6    -0.413170969938E+03   -0.14726E-04   -0.16860E-03  5414   0.407E-02    0.326E-02
RMM:   7    -0.413170977602E+03   -0.76646E-05   -0.32637E-04  5884   0.170E-02    0.193E-02
RMM:   8    -0.413170968965E+03    0.86370E-05   -0.58426E-05  5108   0.892E-03    0.780E-03
RMM:   9    -0.413170962975E+03    0.59906E-05   -0.71924E-06  3249   0.350E-03    0.403E-03
RMM:  10    -0.413170960571E+03    0.24035E-05   -0.15980E-06  2525   0.211E-03    0.254E-03
RMM:  11    -0.413170956811E+03    0.37603E-05   -0.11180E-06  2495   0.172E-03    0.139E-03
RMM:  12    -0.413170953393E+03    0.34175E-05   -0.67118E-07  2451   0.135E-03    0.551E-04
RMM:  13    -0.413170951246E+03    0.21470E-05   -0.34271E-07  2071   0.984E-04    0.326E-04
RMM:  14    -0.413170949330E+03    0.19167E-05   -0.19470E-07  1566   0.774E-04    0.220E-04
RMM:  15    -0.413170945624E+03    0.37051E-05   -0.19580E-07  1469   0.748E-04    0.174E-04
RMM:  16    -0.413170942920E+03    0.27042E-05   -0.12621E-07  1232   0.663E-04    0.142E-04
RMM:  17    -0.413170939816E+03    0.31044E-05   -0.11801E-07  1264   0.656E-04    0.739E-05
RMM:  18    -0.413170938046E+03    0.17700E-05   -0.66044E-08   993   0.588E-04    0.471E-05
RMM:  19    -0.413170936981E+03    0.10650E-05   -0.38154E-08   854   0.555E-04    0.359E-05
RMM:  20    -0.413170936732E+03    0.24860E-06   -0.19361E-08   722   0.531E-04
   19 T=    62. E= -.41286679E+03 F= -.41317094E+03 E0= -.41314886E+03  EK= 0.30415E+00 SP= 0.00E+00 SK= 0.00E+00
       N       E                     dE             d eps       ncg     rms          rms(c)
RMM:   1    -0.413171783939E+03   -0.84696E-03   -0.87572E+00  4297   0.689E-01    0.900E-01
RMM:   2    -0.413175242552E+03   -0.34586E-02   -0.10808E-01  4239   0.880E-02    0.649E-01
RMM:   3    -0.413172304310E+03    0.29382E-02   -0.18237E-02  4973   0.530E-02    0.142E-01
RMM:   4    -0.413207131359E+03   -0.34827E-01   -0.39052E-02  5126   0.164E-01    0.780E-01
RMM:   5    -0.413171180999E+03    0.35950E-01   -0.17106E-02  4789   0.130E-01    0.534E-02
RMM:   6    -0.413171389898E+03   -0.20890E-03   -0.29480E-03  5739   0.534E-02    0.366E-02
RMM:   7    -0.413171381470E+03    0.84277E-05   -0.49757E-04  5648   0.209E-02    0.231E-02
RMM:   8    -0.413171368951E+03    0.12519E-04   -0.74389E-05  5221   0.958E-03    0.108E-02
RMM:   9    -0.413171362906E+03    0.60453E-05   -0.14339E-05  4033   0.429E-03    0.752E-03
RMM:  10    -0.413171359417E+03    0.34892E-05   -0.22187E-06  2579   0.236E-03    0.460E-03
RMM:  11    -0.413171357222E+03    0.21952E-05   -0.10821E-06  2502   0.169E-03    0.271E-03
RMM:  12    -0.413171352814E+03    0.44075E-05   -0.16874E-06  2549   0.202E-03    0.117E-03
RMM:  13    -0.413171350222E+03    0.25924E-05   -0.70057E-07  2410   0.142E-03    0.946E-04
RMM:  14    -0.413171350194E+03    0.27805E-07   -0.27806E-07  2021   0.928E-04
   20 T=    62. E= -.41286646E+03 F= -.41317135E+03 E0= -.41314932E+03  EK= 0.30489E+00 SP= 0.00E+00 SK= 0.00E+00
       N       E                     dE             d eps       ncg     rms          rms(c)
RMM:   1    -0.413172426773E+03   -0.10766E-02   -0.88246E+00  4292   0.683E-01    0.891E-01
RMM:   2    -0.413176822700E+03   -0.43959E-02   -0.10932E-01  4242   0.888E-02    0.657E-01
RMM:   3    -0.413173051121E+03    0.37716E-02   -0.19286E-02  4895   0.505E-02    0.114E-01
RMM:   4    -0.413201009631E+03   -0.27959E-01   -0.30040E-02  5120   0.144E-01    0.700E-01
RMM:   5    -0.413172291145E+03    0.28718E-01   -0.13813E-02  4787   0.116E-01    0.489E-02
RMM:   6    -0.413172469384E+03   -0.17824E-03   -0.24815E-03  5796   0.477E-02    0.322E-02
RMM:   7    -0.413172471994E+03   -0.26100E-05   -0.38480E-04  5630   0.190E-02    0.205E-02
RMM:   8    -0.413172463339E+03    0.86554E-05   -0.69140E-05  5025   0.903E-03    0.106E-02
RMM:   9    -0.413172459733E+03    0.36056E-05   -0.13238E-05  3979   0.419E-03    0.783E-03
RMM:  10    -0.413172459201E+03    0.53205E-06   -0.19830E-06  2559   0.231E-03
   21 T=    62. E= -.41286658E+03 F= -.41317246E+03 E0= -.41315047E+03  EK= 0.30588E+00 SP= 0.00E+00 SK= 0.00E+00
       N       E                     dE             d eps       ncg     rms          rms(c)
RMM:   1    -0.413173994525E+03   -0.15348E-02   -0.88645E+00  4299   0.694E-01    0.909E-01
RMM:   2    -0.413177934227E+03   -0.39397E-02   -0.10921E-01  4325   0.887E-02    0.659E-01
RMM:   3    -0.413180158068E+03   -0.22238E-02   -0.23109E-02  5126   0.878E-02    0.347E-01
RMM:   4    -0.413197632835E+03   -0.17475E-01   -0.40710E-02  5075   0.172E-01    0.639E-01
RMM:   5    -0.413173554883E+03    0.24078E-01   -0.89660E-03  4659   0.104E-01    0.578E-02
RMM:   6    -0.413173591932E+03   -0.37050E-04   -0.18524E-03  5448   0.424E-02    0.326E-02
RMM:   7    -0.413173596800E+03   -0.48673E-05   -0.34488E-04  5872   0.172E-02    0.197E-02
RMM:   8    -0.413173589448E+03    0.73514E-05   -0.60369E-05  5110   0.900E-03    0.803E-03
RMM:   9    -0.413173583876E+03    0.55725E-05   -0.76583E-06  3292   0.356E-03    0.420E-03
RMM:  10    -0.413173581480E+03    0.23954E-05   -0.17457E-06  2544   0.213E-03    0.266E-03
RMM:  11    -0.413173578097E+03    0.33829E-05   -0.10751E-06  2488   0.169E-03    0.140E-03
RMM:  12    -0.413173574469E+03    0.36282E-05   -0.68721E-07  2449   0.136E-03    0.523E-04
RMM:  13    -0.413173572400E+03    0.20690E-05   -0.33952E-07  2094   0.985E-04    0.317E-04
RMM:  14    -0.413173570659E+03    0.17411E-05   -0.18880E-07  1605   0.769E-04    0.215E-04
RMM:  15    -0.413173567348E+03    0.33112E-05   -0.15861E-07  1391   0.718E-04    0.156E-04
RMM:  16    -0.413173564535E+03    0.28128E-05   -0.11338E-07  1227   0.659E-04    0.153E-04
RMM:  17    -0.413173561906E+03    0.26289E-05   -0.84646E-08  1109   0.626E-04    0.765E-05
RMM:  18    -0.413173559470E+03    0.24359E-05   -0.67546E-08  1053   0.604E-04    0.352E-05
RMM:  19    -0.413173558338E+03    0.11321E-05   -0.33701E-08   845   0.560E-04    0.270E-05
RMM:  20    -0.413173557918E+03    0.42005E-06   -0.16837E-08   727   0.541E-04
   22 T=    62. E= -.41286666E+03 F= -.41317356E+03 E0= -.41315162E+03  EK= 0.30690E+00 SP= 0.00E+00 SK= 0.00E+00
       N       E                     dE             d eps       ncg     rms          rms(c)
RMM:   1    -0.413177777794E+03   -0.42195E-02   -0.88763E+00  4294   0.720E-01    0.909E-01
RMM:   2    -0.413178559436E+03   -0.78164E-03   -0.10880E-01  4266   0.897E-02    0.653E-01
RMM:   3    -0.413175045179E+03    0.35143E-02   -0.18258E-02  4912   0.544E-02    0.133E-01
RMM:   4    -0.413208723736E+03   -0.33679E-01   -0.37017E-02  5121   0.160E-01    0.766E-01
RMM:   5    -0.413174058010E+03    0.34666E-01   -0.16526E-02  4783   0.128E-01    0.530E-02
RMM:   6    -0.413174269552E+03   -0.21154E-03   -0.30318E-03  5755   0.528E-02    0.367E-02
RMM:   7    -0.413174261516E+03    0.80362E-05   -0.48929E-04  5628   0.210E-02    0.233E-02
RMM:   8    -0.413174247549E+03    0.13966E-04   -0.75734E-05  5144   0.970E-03    0.114E-02
RMM:   9    -0.413174240827E+03    0.67221E-05   -0.14622E-05  4073   0.436E-03    0.812E-03
RMM:  10    -0.413174236152E+03    0.46750E-05   -0.22982E-06  2592   0.243E-03    0.493E-03
RMM:  11    -0.413174233080E+03    0.30727E-05   -0.12005E-06  2505   0.178E-03    0.292E-03
RMM:  12    -0.413174226969E+03    0.61112E-05   -0.19593E-06  2581   0.215E-03    0.123E-03
RMM:  13    -0.413174223389E+03    0.35798E-05   -0.70890E-07  2415   0.145E-03    0.999E-04
RMM:  14    -0.413174223612E+03   -0.22311E-06   -0.28578E-07  2044   0.939E-04
   23 T=    63. E= -.41286642E+03 F= -.41317422E+03 E0= -.41315233E+03  EK= 0.30781E+00 SP= 0.00E+00 SK= 0.00E+00
       N       E                     dE             d eps       ncg     rms          rms(c)
RMM:   1    -0.413179291069E+03   -0.50677E-02   -0.89101E+00  4295   0.730E-01    0.894E-01
RMM:   2    -0.413180556965E+03   -0.12659E-02   -0.10984E-01  4268   0.915E-02    0.657E-01
RMM:   3    -0.413176236753E+03    0.43202E-02   -0.18996E-02  4787   0.523E-02    0.995E-02
RMM:   4    -0.413199112254E+03   -0.22876E-01   -0.23864E-02  5121   0.129E-01    0.634E-01
RMM:   5    -0.413175690898E+03    0.23421E-01   -0.11447E-02  4799   0.105E-01    0.467E-02
RMM:   6    -0.413175818897E+03   -0.12800E-03   -0.20238E-03  5814   0.426E-02    0.294E-02
RMM:   7    -0.413175819212E+03   -0.31537E-06   -0.25967E-04  5635   0.164E-02    0.160E-02
RMM:   8    -0.413175814158E+03    0.50539E-05   -0.54413E-05  4985   0.773E-03    0.102E-02
RMM:   9    -0.413175809398E+03    0.47602E-05   -0.10798E-05  3826   0.384E-03    0.751E-03
RMM:  10    -0.413175807796E+03    0.16022E-05   -0.18186E-06  2553   0.226E-03    0.446E-03
RMM:  11    -0.413175806144E+03    0.16522E-05   -0.16006E-06  2534   0.200E-03    0.229E-03
RMM:  12    -0.413175803738E+03    0.24056E-05   -0.13290E-06  2499   0.182E-03    0.942E-04
RMM:  13    -0.413175802808E+03    0.93059E-06   -0.45213E-07  2269   0.118E-03
   24 T=    63. E= -.41286679E+03 F= -.41317580E+03 E0= -.41315396E+03  EK= 0.30902E+00 SP= 0.00E+00 SK= 0.00E+00
       N       E                     dE             d eps       ncg     rms          rms(c)
RMM:   1    -0.413177618507E+03   -0.18148E-02   -0.89533E+00  4298   0.722E-01    0.908E-01
RMM:   2    -0.413181381685E+03   -0.37632E-02   -0.11082E-01  4273   0.924E-02    0.663E-01
RMM:   3    -0.413177217087E+03    0.41646E-02   -0.18873E-02  4792   0.516E-02    0.986E-02
RMM:   4    -0.413200215596E+03   -0.22999E-01   -0.23916E-02  5127   0.129E-01    0.636E-01
RMM:   5    -0.413176699061E+03    0.23517E-01   -0.11478E-02  4798   0.105E-01    0.470E-02
RMM:   6    -0.413176826830E+03   -0.12777E-03   -0.20430E-03  5819   0.428E-02    0.300E-02
RMM:   7    -0.413176823980E+03    0.28500E-05   -0.27736E-04  5651   0.168E-02    0.170E-02
RMM:   8    -0.413176816037E+03    0.79424E-05   -0.57213E-05  4979   0.805E-03    0.103E-02
RMM:   9    -0.413176810646E+03    0.53907E-05   -0.11280E-05  3840   0.393E-03    0.761E-03
RMM:  10    -0.413176807972E+03    0.26748E-05   -0.18335E-06  2553   0.228E-03    0.449E-03
RMM:  11    -0.413176805365E+03    0.26072E-05   -0.14979E-06  2523   0.195E-03    0.235E-03
RMM:  12    -0.413176801614E+03    0.37502E-05   -0.13525E-06  2500   0.184E-03    0.953E-04
RMM:  13    -0.413176799998E+03    0.16165E-05   -0.47232E-07  2286   0.121E-03    0.609E-04
RMM:  14    -0.413176799547E+03    0.45089E-06   -0.22292E-07  1802   0.830E-04
   25 T=    63. E= -.41286667E+03 F= -.41317680E+03 E0= -.41315500E+03  EK= 0.31013E+00 SP= 0.00E+00 SK= 0.00E+00
       N       E                     dE             d eps       ncg     rms          rms(c)
RMM:   1    -0.413182531679E+03   -0.57317E-02   -0.89878E+00  4295   0.745E-01    0.919E-01
RMM:   2    -0.413182248640E+03    0.28304E-03   -0.11115E-01  4270   0.940E-02    0.658E-01
RMM:   3    -0.413178626765E+03    0.36219E-02   -0.18079E-02  4859   0.527E-02    0.114E-01
RMM:   4    -0.413207347417E+03   -0.28721E-01   -0.30376E-02  5126   0.145E-01    0.708E-01
RMM:   5    -0.413177980252E+03    0.29367E-01   -0.14343E-02  4794   0.117E-01    0.506E-02
RMM:   6    -0.413178135259E+03   -0.15501E-03   -0.25571E-03  5797   0.487E-02    0.352E-02
RMM:   7    -0.413178121692E+03    0.13567E-04   -0.42604E-04  5612   0.201E-02    0.219E-02
RMM:   8    -0.413178107418E+03    0.14274E-04   -0.68621E-05  5070   0.934E-03    0.110E-02
RMM:   9    -0.413178100339E+03    0.70787E-05   -0.13437E-05  3955   0.421E-03    0.798E-03
RMM:  10    -0.413178094621E+03    0.57182E-05   -0.21762E-06  2575   0.242E-03    0.474E-03
RMM:  11    -0.413178090299E+03    0.43222E-05   -0.12565E-06  2519   0.181E-03    0.270E-03
RMM:  12    -0.413178082521E+03    0.77780E-05   -0.17753E-06  2556   0.207E-03    0.117E-03
RMM:  13    -0.413178077849E+03    0.46724E-05   -0.61500E-07  2386   0.137E-03    0.881E-04
RMM:  14    -0.413178078080E+03   -0.23178E-06   -0.26803E-07  1990   0.901E-04
   26 T=    63. E= -.41286659E+03 F= -.41317808E+03 E0= -.41315633E+03  EK= 0.31149E+00 SP= 0.00E+00 SK= 0.00E+00
       N       E                     dE             d eps       ncg     rms          rms(c)
RMM:   1    -0.413180869228E+03   -0.27914E-02   -0.89560E+00  4295   0.735E-01    0.898E-01
RMM:   2    -0.413184169941E+03   -0.33007E-02   -0.11225E-01  4271   0.968E-02    0.658E-01
RMM:   3    -0.413180309504E+03    0.38604E-02   -0.18487E-02  4778   0.519E-02    0.965E-02
RMM:   4    -0.413202568000E+03   -0.22258E-01   -0.23080E-02  5137   0.127E-01    0.625E-01
RMM:   5    -0.413179835063E+03    0.22733E-01   -0.11211E-02  4802   0.103E-01    0.468E-02
RMM:   6    -0.413179947662E+03   -0.11260E-03   -0.19648E-03  5831   0.421E-02    0.293E-02
RMM:   7    -0.413179946536E+03    0.11260E-05   -0.24135E-04  5607   0.159E-02    0.150E-02
RMM:   8    -0.413179941969E+03    0.45672E-05   -0.47249E-05  4944   0.723E-03    0.996E-03
RMM:   9    -0.413179937170E+03    0.47985E-05   -0.10347E-05  3781   0.368E-03    0.741E-03
RMM:  10    -0.413179934522E+03    0.26478E-05   -0.17706E-06  2546   0.228E-03    0.439E-03
RMM:  11    -0.413179931736E+03    0.27868E-05   -0.15210E-06  2536   0.194E-03    0.233E-03
RMM:  12    -0.413179927488E+03    0.42472E-05   -0.13774E-06  2505   0.186E-03    0.969E-04
RMM:  13    -0.413179925873E+03    0.16153E-05   -0.44941E-07  2280   0.119E-03    0.629E-04
RMM:  14    -0.413179925472E+03    0.40081E-06   -0.20739E-07  1757   0.814E-04
   27 T=    64. E= -.41286680E+03 F= -.41317993E+03 E0= -.41315823E+03  EK= 0.31313E+00 SP= 0.00E+00 SK= 0.00E+00
       N       E                     dE             d eps       ncg     rms          rms(c)
RMM:   1    -0.413181092383E+03   -0.11665E-02   -0.90605E+00  4291   0.726E-01    0.909E-01
RMM:   2    -0.413185405283E+03   -0.43129E-02   -0.11311E-01  4269   0.969E-02    0.668E-01
RMM:   3    -0.413181348475E+03    0.40568E-02   -0.19373E-02  4742   0.535E-02    0.941E-02
RMM:   4    -0.413202181477E+03   -0.20833E-01   -0.21524E-02  5136   0.123E-01    0.606E-01
RMM:   5    -0.413180888833E+03    0.21293E-01   -0.10533E-02  4807   0.100E-01    0.462E-02
RMM:   6    -0.413181002000E+03   -0.11317E-03   -0.18754E-03  5829   0.411E-02    0.298E-02
RMM:   7    -0.413181000722E+03    0.12785E-05   -0.26989E-04  5620   0.167E-02    0.168E-02
RMM:   8    -0.413180994577E+03    0.61452E-05   -0.52860E-05  4955   0.783E-03    0.101E-02
RMM:   9    -0.413180989928E+03    0.46488E-05   -0.10129E-05  3706   0.377E-03    0.736E-03
RMM:  10    -0.413180987893E+03    0.20347E-05   -0.18027E-06  2541   0.227E-03    0.426E-03
RMM:  11    -0.413180985732E+03    0.21609E-05   -0.14285E-06  2520   0.192E-03    0.218E-03
RMM:  12    -0.413180982860E+03    0.28718E-05   -0.12703E-06  2498   0.177E-03    0.953E-04
RMM:  13    -0.413180981568E+03    0.12921E-05   -0.45404E-07  2268   0.118E-03    0.603E-04
RMM:  14    -0.413180981008E+03    0.55986E-06   -0.21329E-07  1778   0.818E-04
   28 T=    64. E= -.41286644E+03 F= -.41318098E+03 E0= -.41315933E+03  EK= 0.31454E+00 SP= 0.00E+00 SK= 0.00E+00
       N       E                     dE             d eps       ncg     rms          rms(c)
RMM:   1    -0.413183833021E+03   -0.28515E-02   -0.90825E+00  4294   0.752E-01    0.927E-01
RMM:   2    -0.413187355700E+03   -0.35227E-02   -0.11321E-01  4271   0.100E-01    0.664E-01
RMM:   3    -0.413183258070E+03    0.40976E-02   -0.18219E-02  4662   0.504E-02    0.872E-02
RMM:   4    -0.413198705464E+03   -0.15447E-01   -0.15722E-02  5144   0.105E-01    0.523E-01
RMM:   5    -0.413183001862E+03    0.15704E-01   -0.79131E-03  4822   0.862E-02    0.453E-02
RMM:   6    -0.413183073006E+03   -0.71144E-04   -0.14318E-03  5830   0.355E-02    0.279E-02
RMM:   7    -0.413183064891E+03    0.81148E-05   -0.17326E-04  5484   0.141E-02    0.131E-02
RMM:   8    -0.413183057109E+03    0.77825E-05   -0.22272E-05  4256   0.513E-03    0.808E-03
RMM:   9    -0.413183051305E+03    0.58036E-05   -0.42346E-06  2830   0.271E-03    0.452E-03
RMM:  10    -0.413183047769E+03    0.35362E-05   -0.10972E-06  2488   0.175E-03    0.291E-03
RMM:  11    -0.413183039831E+03    0.79379E-05   -0.17192E-06  2550   0.209E-03    0.158E-03
RMM:  12    -0.413183035948E+03    0.38828E-05   -0.59218E-07  2366   0.135E-03    0.780E-04
RMM:  13    -0.413183034925E+03    0.10228E-05   -0.27301E-07  1997   0.907E-04    0.422E-04
RMM:  14    -0.413183030963E+03    0.39619E-05   -0.18693E-07  1734   0.785E-04    0.314E-04
RMM:  15    -0.413183026685E+03    0.42782E-05   -0.17982E-07  1834   0.769E-04    0.493E-04
RMM:  16    -0.413183025603E+03    0.10824E-05   -0.61866E-08  1024   0.593E-04    0.386E-04
RMM:  17    -0.413183023634E+03    0.19683E-05   -0.39974E-08   867   0.556E-04    0.264E-04
RMM:  18    -0.413183019500E+03    0.41345E-05   -0.66571E-08  1085   0.611E-04    0.674E-05
RMM:  19    -0.413183018675E+03    0.82452E-06   -0.28465E-08   879   0.566E-04
   29 T=    64. E= -.41286673E+03 F= -.41318302E+03 E0= -.41316142E+03  EK= 0.31629E+00 SP= 0.00E+00 SK= 0.00E+00
       N       E                     dE             d eps       ncg     rms          rms(c)
RMM:   1    -0.413190931538E+03   -0.79120E-02   -0.91159E+00  4287   0.818E-01    0.907E-01
RMM:   2    -0.413189578738E+03    0.13528E-02   -0.12226E-01  4266   0.117E-01    0.662E-01
RMM:   3    -0.413185031840E+03    0.45469E-02   -0.17503E-02  4559   0.562E-02    0.846E-02
RMM:   4    -0.413198175003E+03   -0.13143E-01   -0.13295E-02  5131   0.965E-02    0.483E-01
RMM:   5    -0.413184836857E+03    0.13338E-01   -0.67559E-03  4819   0.796E-02    0.437E-02
RMM:   6    -0.413184894793E+03   -0.57936E-04   -0.12227E-03  5832   0.327E-02    0.265E-02
RMM:   7    -0.413184897511E+03   -0.27177E-05   -0.19499E-04  5502   0.146E-02    0.153E-02
RMM:   8    -0.413184885219E+03    0.12292E-04   -0.31318E-05  4700   0.626E-03    0.830E-03
RMM:   9    -0.413184883644E+03    0.15748E-05   -0.64388E-06  3183   0.312E-03    0.631E-03
RMM:  10    -0.413184880371E+03    0.32725E-05   -0.14895E-06  2506   0.211E-03    0.348E-03
RMM:  11    -0.413184877329E+03    0.30421E-05   -0.10444E-06  2492   0.169E-03    0.183E-03
RMM:  12    -0.413184873818E+03    0.35117E-05   -0.83395E-07  2458   0.145E-03    0.993E-04
RMM:  13    -0.413184872320E+03    0.14980E-05   -0.32704E-07  2144   0.100E-03    0.448E-04
RMM:  14    -0.413184871200E+03    0.11192E-05   -0.15949E-07  1507   0.737E-04    0.312E-04
RMM:  15    -0.413184868558E+03    0.26418E-05   -0.12537E-07  1503   0.708E-04    0.148E-04
RMM:  16    -0.413184866051E+03    0.25072E-05   -0.75653E-08  1138   0.632E-04    0.153E-04
RMM:  17    -0.413184864390E+03    0.16617E-05   -0.40304E-08   863   0.575E-04    0.988E-05
RMM:  18    -0.413184860923E+03    0.34668E-05   -0.56690E-08   985   0.601E-04    0.392E-05
RMM:  19    -0.413184860208E+03    0.71508E-06   -0.20382E-08   759   0.553E-04
   30 T=    65. E= -.41286674E+03 F= -.41318486E+03 E0= -.41316331E+03  EK= 0.31812E+00 SP= 0.00E+00 SK= 0.00E+00
       N       E                     dE             d eps       ncg     rms          rms(c)
RMM:   1    -0.413186558869E+03   -0.16979E-02   -0.91879E+00  4293   0.755E-01    0.912E-01
RMM:   2    -0.413191643295E+03   -0.50844E-02   -0.11582E-01  4268   0.113E-01    0.673E-01
RMM:   3    -0.413186763560E+03    0.48797E-02   -0.19783E-02  4556   0.624E-02    0.802E-02
RMM:   4    -0.413200515431E+03   -0.13752E-01   -0.13860E-02  5140   0.992E-02    0.495E-01
RMM:   5    -0.413186479514E+03    0.14036E-01   -0.70434E-03  4815   0.815E-02    0.436E-02
RMM:   6    -0.413186549174E+03   -0.69661E-04   -0.12906E-03  5829   0.336E-02    0.267E-02
RMM:   7    -0.413186556626E+03   -0.74518E-05   -0.20493E-04  5493   0.149E-02    0.156E-02
RMM:   8    -0.413186544688E+03    0.11939E-04   -0.33269E-05  4733   0.644E-03    0.840E-03
RMM:   9    -0.413186544074E+03    0.61322E-06   -0.68567E-06  3247   0.319E-03
   31 T=    65. E= -.41286651E+03 F= -.41318654E+03 E0= -.41316505E+03  EK= 0.32004E+00 SP= 0.00E+00 SK= 0.00E+00
       N       E                     dE             d eps       ncg     rms          rms(c)
RMM:   1    -0.413200845495E+03   -0.14301E-01   -0.93408E+00  4294   0.852E-01    0.933E-01
RMM:   2    -0.413193874472E+03    0.69710E-02   -0.12930E-01  4299   0.122E-01    0.673E-01
RMM:   3    -0.413192480205E+03    0.13943E-02   -0.19609E-02  5016   0.847E-02    0.258E-01
RMM:   4    -0.413227608436E+03   -0.35128E-01   -0.49003E-02  5093   0.187E-01    0.805E-01
RMM:   5    -0.413189002749E+03    0.38606E-01   -0.16754E-02  4754   0.133E-01    0.592E-02
RMM:   6    -0.413189162319E+03   -0.15957E-03   -0.31809E-03  5736   0.543E-02    0.369E-02
RMM:   7    -0.413189167770E+03   -0.54508E-05   -0.50624E-04  5780   0.206E-02    0.242E-02
RMM:   8    -0.413189159290E+03    0.84804E-05   -0.93151E-05  5164   0.108E-02    0.112E-02
RMM:   9    -0.413189149580E+03    0.97095E-05   -0.14311E-05  4021   0.470E-03    0.593E-03
RMM:  10    -0.413189144155E+03    0.54255E-05   -0.31523E-06  2702   0.256E-03    0.390E-03
RMM:  11    -0.413189139199E+03    0.49556E-05   -0.12323E-06  2504   0.183E-03    0.208E-03
RMM:  12    -0.413189131440E+03    0.77590E-05   -0.10854E-06  2478   0.170E-03    0.732E-04
RMM:  13    -0.413189127410E+03    0.40303E-05   -0.54366E-07  2350   0.123E-03    0.472E-04
RMM:  14    -0.413189125792E+03    0.16174E-05   -0.27667E-07  1964   0.896E-04    0.362E-04
RMM:  15    -0.413189122803E+03    0.29899E-05   -0.15507E-07  1469   0.730E-04    0.171E-04
RMM:  16    -0.413189117165E+03    0.56376E-05   -0.13816E-07  1441   0.711E-04    0.221E-04
RMM:  17    -0.413189113629E+03    0.35362E-05   -0.79857E-08  1060   0.624E-04    0.157E-04
RMM:  18    -0.413189109790E+03    0.38392E-05   -0.72212E-08  1127   0.625E-04    0.762E-05
RMM:  19    -0.413189107458E+03    0.23319E-05   -0.54441E-08  1100   0.595E-04    0.341E-05
RMM:  20    -0.413189106834E+03    0.62378E-06   -0.23995E-08   787   0.543E-04
   32 T=    66. E= -.41286676E+03 F= -.41318911E+03 E0= -.41316766E+03  EK= 0.32235E+00 SP= 0.00E+00 SK= 0.00E+00
       N       E                     dE             d eps       ncg     rms          rms(c)
RMM:   1    -0.413196705361E+03   -0.75979E-02   -0.92696E+00  4299   0.841E-01    0.920E-01
RMM:   2    -0.413195544063E+03    0.11613E-02   -0.12372E-01  4273   0.121E-01    0.668E-01
RMM:   3    -0.413191103063E+03    0.44410E-02   -0.17901E-02  4400   0.640E-02    0.753E-02
RMM:   4    -0.413195653397E+03   -0.45503E-02   -0.48006E-03  5160   0.582E-02    0.287E-01
RMM:   5    -0.413191063258E+03    0.45901E-02   -0.23940E-03  4829   0.476E-02    0.421E-02
RMM:   6    -0.413191105684E+03   -0.42426E-04   -0.71100E-04  5665   0.252E-02    0.307E-02
RMM:   7    -0.413191075574E+03    0.30110E-04   -0.25618E-04  5160   0.165E-02    0.180E-02
RMM:   8    -0.413191064306E+03    0.11268E-04   -0.23873E-05  4531   0.589E-03    0.743E-03
RMM:   9    -0.413191062219E+03    0.20863E-05   -0.30275E-06  2677   0.231E-03    0.478E-03
RMM:  10    -0.413191057972E+03    0.42475E-05   -0.11523E-06  2484   0.177E-03    0.263E-03
RMM:  11    -0.413191053838E+03    0.41341E-05   -0.81465E-07  2429   0.143E-03    0.115E-03
RMM:  12    -0.413191050130E+03    0.37076E-05   -0.43104E-07  2219   0.108E-03    0.510E-04
RMM:  13    -0.413191047435E+03    0.26947E-05   -0.23741E-07  1795   0.833E-04    0.274E-04
RMM:  14    -0.413191044548E+03    0.28876E-05   -0.11842E-07  1238   0.679E-04    0.183E-04
RMM:  15    -0.413191040758E+03    0.37897E-05   -0.80453E-08  1082   0.639E-04    0.885E-05
RMM:  16    -0.413191037973E+03    0.27846E-05   -0.57401E-08  1014   0.615E-04    0.699E-05
RMM:  17    -0.413191034946E+03    0.30273E-05   -0.51766E-08  1053   0.602E-04    0.459E-05
RMM:  18    -0.413191032386E+03    0.25606E-05   -0.37567E-08   946   0.575E-04    0.316E-05
RMM:  19    -0.413191031747E+03    0.63825E-06   -0.14948E-08   686   0.531E-04
   33 T=    66. E= -.41286650E+03 F= -.41319103E+03 E0= -.41316963E+03  EK= 0.32453E+00 SP= 0.00E+00 SK= 0.00E+00
       N       E                     dE             d eps       ncg     rms          rms(c)
RMM:   1    -0.413193760596E+03   -0.27282E-02   -0.93431E+00  4301   0.802E-01    0.917E-01
RMM:   2    -0.413198104613E+03   -0.43440E-02   -0.12016E-01  4263   0.124E-01    0.678E-01
RMM:   3    -0.413193486847E+03    0.46178E-02   -0.19817E-02  4345   0.707E-02    0.636E-02
RMM:   4    -0.413197654906E+03   -0.41681E-02   -0.42943E-03  5155   0.557E-02    0.276E-01
RMM:   5    -0.413193405973E+03    0.42489E-02   -0.22201E-03  4836   0.458E-02    0.411E-02
RMM:   6    -0.413193447422E+03   -0.41449E-04   -0.67038E-04  5665   0.243E-02    0.293E-02
RMM:   7    -0.413193426116E+03    0.21306E-04   -0.24027E-04  5160   0.161E-02    0.184E-02
RMM:   8    -0.413193415611E+03    0.10504E-04   -0.22191E-05  4309   0.566E-03    0.716E-03
RMM:   9    -0.413193414652E+03    0.95907E-06   -0.27646E-06  2630   0.226E-03
   34 T=    67. E= -.41286653E+03 F= -.41319341E+03 E0= -.41317206E+03  EK= 0.32689E+00 SP= 0.00E+00 SK= 0.00E+00
       N       E                     dE             d eps       ncg     rms          rms(c)
RMM:   1    -0.413203623042E+03   -0.10207E-01   -0.94766E+00  4303   0.889E-01    0.937E-01
RMM:   2    -0.413200413792E+03    0.32092E-02   -0.13347E-01  4270   0.133E-01    0.682E-01
RMM:   3    -0.413196566800E+03    0.38470E-02   -0.17951E-02  4677   0.748E-02    0.122E-01
RMM:   4    -0.413228627202E+03   -0.32060E-01   -0.33213E-02  5139   0.153E-01    0.746E-01
RMM:   5    -0.413195943699E+03    0.32684E-01   -0.16164E-02  4802   0.124E-01    0.518E-02
RMM:   6    -0.413196106581E+03   -0.16288E-03   -0.28849E-03  5825   0.500E-02    0.340E-02
RMM:   7    -0.413196112092E+03   -0.55114E-05   -0.35725E-04  5609   0.184E-02    0.179E-02
RMM:   8    -0.413196099228E+03    0.12865E-04   -0.50824E-05  4913   0.754E-03    0.103E-02
RMM:   9    -0.413196097180E+03    0.20480E-05   -0.18227E-05  4399   0.456E-03    0.862E-03
RMM:  10    -0.413196090173E+03    0.70063E-05   -0.26302E-06  2642   0.266E-03    0.506E-03
RMM:  11    -0.413196086187E+03    0.39863E-05   -0.14550E-06  2510   0.194E-03    0.312E-03
RMM:  12    -0.413196076793E+03    0.93943E-05   -0.23556E-06  2633   0.238E-03    0.138E-03
RMM:  13    -0.413196073097E+03    0.36958E-05   -0.67875E-07  2422   0.150E-03    0.870E-04
RMM:  14    -0.413196072603E+03    0.49377E-06   -0.26795E-07  2065   0.935E-04
   35 T=    67. E= -.41286670E+03 F= -.41319607E+03 E0= -.41317477E+03  EK= 0.32937E+00 SP= 0.00E+00 SK= 0.00E+00
       N       E                     dE             d eps       ncg     rms          rms(c)
RMM:   1    -0.413204468231E+03   -0.83951E-02   -0.94700E+00  4300   0.911E-01    0.937E-01
RMM:   2    -0.413202317454E+03    0.21508E-02   -0.12425E-01  4251   0.133E-01    0.675E-01
RMM:   3    -0.413198365655E+03    0.39518E-02   -0.18462E-02  4497   0.718E-02    0.859E-02
RMM:   4    -0.413210284420E+03   -0.11919E-01   -0.12022E-02  5159   0.922E-02    0.462E-01
RMM:   5    -0.413198241705E+03    0.12043E-01   -0.61323E-03  4823   0.765E-02    0.455E-02
RMM:   6    -0.413198268128E+03   -0.26423E-04   -0.12916E-03  5784   0.341E-02    0.312E-02
RMM:   7    -0.413198264623E+03    0.35042E-05   -0.32388E-04  5356   0.181E-02    0.204E-02
RMM:   8    -0.413198245057E+03    0.19566E-04   -0.36553E-05  4861   0.729E-03    0.941E-03
RMM:   9    -0.413198241818E+03    0.32390E-05   -0.65337E-06  3094   0.318E-03    0.619E-03
RMM:  10    -0.413198235478E+03    0.63405E-05   -0.17984E-06  2545   0.228E-03    0.328E-03
RMM:  11    -0.413198229301E+03    0.61770E-05   -0.11522E-06  2478   0.180E-03    0.172E-03
RMM:  12    -0.413198222500E+03    0.68011E-05   -0.78773E-07  2443   0.148E-03    0.868E-04
RMM:  13    -0.413198219014E+03    0.34858E-05   -0.36464E-07  2116   0.103E-03    0.418E-04
RMM:  14    -0.413198216311E+03    0.27027E-05   -0.18803E-07  1606   0.778E-04    0.274E-04
RMM:  15    -0.413198211170E+03    0.51410E-05   -0.11794E-07  1330   0.703E-04    0.139E-04
RMM:  16    -0.413198206624E+03    0.45461E-05   -0.76405E-08  1121   0.650E-04    0.110E-04
RMM:  17    -0.413198203391E+03    0.32328E-05   -0.45684E-08   846   0.599E-04    0.645E-05
RMM:  18    -0.413198198026E+03    0.53650E-05   -0.63106E-08  1205   0.637E-04    0.354E-05
RMM:  19    -0.413198196864E+03    0.11628E-05   -0.24696E-08   751   0.539E-04    0.257E-05
RMM:  20    -0.413198196224E+03    0.63956E-06   -0.14079E-08   627   0.519E-04
   36 T=    68. E= -.41286649E+03 F= -.41319820E+03 E0= -.41317693E+03  EK= 0.33171E+00 SP= 0.00E+00 SK= 0.00E+00
       N       E                     dE             d eps       ncg     rms          rms(c)
RMM:   1    -0.413209044049E+03   -0.10847E-01   -0.95761E+00  4308   0.923E-01    0.925E-01
RMM:   2    -0.413205921163E+03    0.31229E-02   -0.12569E-01  4247   0.132E-01    0.682E-01
RMM:   3    -0.413201236324E+03    0.46848E-02   -0.19495E-02  4468   0.690E-02    0.730E-02
RMM:   4    -0.413210259289E+03   -0.90230E-02   -0.91198E-03  5160   0.807E-02    0.404E-01
RMM:   5    -0.413201113851E+03    0.91454E-02   -0.46714E-03  4827   0.669E-02    0.439E-02
RMM:   6    -0.413201137106E+03   -0.23255E-04   -0.10396E-03  5739   0.309E-02    0.311E-02
RMM:   7    -0.413201135320E+03    0.17855E-05   -0.31609E-04  5295   0.178E-02    0.200E-02
RMM:   8    -0.413201121021E+03    0.14299E-04   -0.33579E-05  4822   0.694E-03    0.889E-03
RMM:   9    -0.413201119898E+03    0.11227E-05   -0.54821E-06  2925   0.286E-03    0.540E-03
RMM:  10    -0.413201117857E+03    0.20413E-05   -0.16438E-06  2527   0.214E-03    0.287E-03
RMM:  11    -0.413201115394E+03    0.24626E-05   -0.10458E-06  2480   0.168E-03    0.144E-03
RMM:  12    -0.413201112744E+03    0.26507E-05   -0.62709E-07  2377   0.130E-03    0.705E-04
RMM:  13    -0.413201110989E+03    0.17544E-05   -0.31786E-07  1992   0.942E-04    0.340E-04
RMM:  14    -0.413201109118E+03    0.18713E-05   -0.16368E-07  1452   0.734E-04    0.211E-04
RMM:  15    -0.413201106232E+03    0.28855E-05   -0.10260E-07  1164   0.664E-04    0.116E-04
RMM:  16    -0.413201103856E+03    0.23766E-05   -0.69563E-08  1014   0.628E-04    0.732E-05
RMM:  17    -0.413201101991E+03    0.18644E-05   -0.44818E-08   925   0.601E-04    0.457E-05
RMM:  18    -0.413201098801E+03    0.31909E-05   -0.52097E-08  1064   0.612E-04    0.274E-05
RMM:  19    -0.413201097963E+03    0.83796E-06   -0.21773E-08   772   0.553E-04
   37 T=    68. E= -.41286678E+03 F= -.41320110E+03 E0= -.41317988E+03  EK= 0.33432E+00 SP= 0.00E+00 SK= 0.00E+00
       N       E                     dE             d eps       ncg     rms          rms(c)
RMM:   1    -0.413212094602E+03   -0.10996E-01   -0.96808E+00  4309   0.953E-01    0.943E-01
RMM:   2    -0.413208696993E+03    0.33976E-02   -0.13274E-01  4246   0.130E-01    0.689E-01
RMM:   3    -0.413204103640E+03    0.45934E-02   -0.18712E-02  4721   0.652E-02    0.111E-01
RMM:   4    -0.413232863988E+03   -0.28760E-01   -0.29607E-02  5136   0.144E-01    0.709E-01
RMM:   5    -0.413203636896E+03    0.29227E-01   -0.14656E-02  4803   0.118E-01    0.509E-02
RMM:   6    -0.413203692100E+03   -0.55204E-04   -0.24673E-03  5833   0.470E-02    0.329E-02
RMM:   7    -0.413203705182E+03   -0.13081E-04   -0.34900E-04  5628   0.182E-02    0.184E-02
RMM:   8    -0.413203694672E+03    0.10509E-04   -0.59051E-05  5011   0.818E-03    0.104E-02
RMM:   9    -0.413203693438E+03    0.12341E-05   -0.17282E-05  4390   0.467E-03    0.766E-03
RMM:  10    -0.413203688845E+03    0.45935E-05   -0.23673E-06  2632   0.255E-03    0.425E-03
RMM:  11    -0.413203686404E+03    0.24408E-05   -0.12071E-06  2510   0.177E-03    0.263E-03
RMM:  12    -0.413203680277E+03    0.61266E-05   -0.17923E-06  2542   0.213E-03    0.135E-03
RMM:  13    -0.413203677296E+03    0.29811E-05   -0.64670E-07  2381   0.141E-03    0.830E-04
RMM:  14    -0.413203676739E+03    0.55683E-06   -0.25917E-07  2017   0.908E-04
   38 T=    69. E= -.41286676E+03 F= -.41320368E+03 E0= -.41318250E+03  EK= 0.33692E+00 SP= 0.00E+00 SK= 0.00E+00
       N       E                     dE             d eps       ncg     rms          rms(c)
RMM:   1    -0.413216771663E+03   -0.13094E-01   -0.97272E+00  4307   0.102E+00    0.954E-01
RMM:   2    -0.413211206161E+03    0.55655E-02   -0.13004E-01  4248   0.125E-01    0.685E-01
RMM:   3    -0.413206789954E+03    0.44162E-02   -0.18548E-02  4842   0.609E-02    0.129E-01
RMM:   4    -0.413241514790E+03   -0.34725E-01   -0.36517E-02  5129   0.160E-01    0.777E-01
RMM:   5    -0.413206126633E+03    0.35388E-01   -0.17543E-02  4798   0.129E-01    0.541E-02
RMM:   6    -0.413206209927E+03   -0.83293E-04   -0.29951E-03  5822   0.514E-02    0.351E-02
RMM:   7    -0.413206220071E+03   -0.10145E-04   -0.39773E-04  5644   0.191E-02    0.190E-02
RMM:   8    -0.413206208585E+03    0.11486E-04   -0.60446E-05  5010   0.818E-03    0.107E-02
RMM:   9    -0.413206206227E+03    0.23580E-05   -0.20628E-05  4526   0.488E-03    0.812E-03
RMM:  10    -0.413206198553E+03    0.76739E-05   -0.28535E-06  2670   0.272E-03    0.454E-03
RMM:  11    -0.413206194324E+03    0.42290E-05   -0.13551E-06  2500   0.190E-03    0.280E-03
RMM:  12    -0.413206183911E+03    0.10413E-04   -0.19230E-06  2549   0.222E-03    0.138E-03
RMM:  13    -0.413206179120E+03    0.47917E-05   -0.69963E-07  2418   0.149E-03    0.885E-04
RMM:  14    -0.413206178473E+03    0.64609E-06   -0.27800E-07  2098   0.949E-04
   39 T=    69. E= -.41286659E+03 F= -.41320618E+03 E0= -.41318504E+03  EK= 0.33959E+00 SP= 0.00E+00 SK= 0.00E+00
       N       E                     dE             d eps       ncg     rms          rms(c)
RMM:   1    -0.413220002547E+03   -0.13823E-01   -0.97757E+00  4309   0.104E+00    0.934E-01
RMM:   2    -0.413214669074E+03    0.53335E-02   -0.13880E-01  4249   0.127E-01    0.689E-01
RMM:   3    -0.413210195396E+03    0.44737E-02   -0.18448E-02  4927   0.649E-02    0.152E-01
RMM:   4    -0.413253590865E+03   -0.43395E-01   -0.47390E-02  5130   0.182E-01    0.866E-01
RMM:   5    -0.413209109533E+03    0.44481E-01   -0.21731E-02  4790   0.145E-01    0.569E-02
RMM:   6    -0.413209240544E+03   -0.13101E-03   -0.36551E-03  5824   0.567E-02    0.358E-02
RMM:   7    -0.413209252403E+03   -0.11859E-04   -0.43854E-04  5677   0.197E-02    0.189E-02
RMM:   8    -0.413209248436E+03    0.39671E-05   -0.60527E-05  4943   0.777E-03    0.103E-02
RMM:   9    -0.413209243766E+03    0.46701E-05   -0.19742E-05  4435   0.461E-03    0.752E-03
RMM:  10    -0.413209240537E+03    0.32285E-05   -0.50932E-06  3022   0.298E-03    0.452E-03
RMM:  11    -0.413209237082E+03    0.34551E-05   -0.16027E-06  2501   0.210E-03    0.276E-03
RMM:  12    -0.413209229005E+03    0.80772E-05   -0.18834E-06  2526   0.221E-03    0.110E-03
RMM:  13    -0.413209225486E+03    0.35190E-05   -0.65658E-07  2429   0.145E-03    0.864E-04
RMM:  14    -0.413209225335E+03    0.15021E-06   -0.27959E-07  2099   0.937E-04
   40 T=    70. E= -.41286679E+03 F= -.41320923E+03 E0= -.41318812E+03  EK= 0.34244E+00 SP= 0.00E+00 SK= 0.00E+00
       N       E                     dE             d eps       ncg     rms          rms(c)
RMM:   1    -0.413217075954E+03   -0.78505E-02   -0.98626E+00  4308   0.105E+00    0.949E-01
RMM:   2    -0.413216875245E+03    0.20071E-03   -0.13516E-01  4254   0.134E-01    0.698E-01
RMM:   3    -0.413212766004E+03    0.41092E-02   -0.20040E-02  4973   0.688E-02    0.173E-01
RMM:   4    -0.413258843900E+03   -0.46078E-01   -0.52512E-02  5129   0.191E-01    0.895E-01
RMM:   5    -0.413211197251E+03    0.47647E-01   -0.22810E-02  4790   0.149E-01    0.586E-02
RMM:   6    -0.413211336747E+03   -0.13950E-03   -0.38827E-03  5820   0.584E-02    0.364E-02
RMM:   7    -0.413211350137E+03   -0.13390E-04   -0.47852E-04  5736   0.204E-02    0.205E-02
RMM:   8    -0.413211352399E+03   -0.22622E-05   -0.96944E-05  5183   0.982E-03    0.131E-02
RMM:   9    -0.413211342483E+03    0.99159E-05   -0.24309E-05  4624   0.554E-03    0.763E-03
RMM:  10    -0.413211338817E+03    0.36662E-05   -0.40008E-06  2781   0.293E-03    0.457E-03
RMM:  11    -0.413211335973E+03    0.28434E-05   -0.14629E-06  2499   0.203E-03    0.279E-03
RMM:  12    -0.413211329242E+03    0.67316E-05   -0.17348E-06  2535   0.212E-03    0.114E-03
RMM:  13    -0.413211324948E+03    0.42940E-05   -0.74295E-07  2442   0.148E-03    0.795E-04
RMM:  14    -0.413211324304E+03    0.64346E-06   -0.30968E-07  2130   0.980E-04
   41 T=    70. E= -.41286638E+03 F= -.41321132E+03 E0= -.41319026E+03  EK= 0.34494E+00 SP= 0.00E+00 SK= 0.00E+00
       N       E                     dE             d eps       ncg     rms          rms(c)
RMM:   1    -0.413233657793E+03   -0.22333E-01   -0.10027E+01  4311   0.121E+00    0.967E-01
RMM:   2    -0.413218916253E+03    0.14742E-01   -0.14390E-01  4284   0.135E-01    0.695E-01
RMM:   3    -0.413216456369E+03    0.24599E-02   -0.19608E-02  5056   0.742E-02    0.236E-01
RMM:   4    -0.413260643690E+03   -0.44187E-01   -0.56327E-02  5110   0.199E-01    0.887E-01
RMM:   5    -0.413213760518E+03    0.46883E-01   -0.21496E-02  4766   0.148E-01    0.619E-02
RMM:   6    -0.413213883651E+03   -0.12313E-03   -0.37755E-03  5794   0.580E-02    0.379E-02
RMM:   7    -0.413213890932E+03   -0.72817E-05   -0.50849E-04  5713   0.210E-02    0.229E-02
RMM:   8    -0.413213889467E+03    0.14653E-05   -0.13059E-04  5233   0.116E-02    0.143E-02
RMM:   9    -0.413213874372E+03    0.15095E-04   -0.23793E-05  4569   0.594E-03    0.669E-03
RMM:  10    -0.413213868438E+03    0.59340E-05   -0.52705E-06  3004   0.299E-03    0.411E-03
RMM:  11    -0.413213863735E+03    0.47023E-05   -0.13093E-06  2500   0.197E-03    0.240E-03
RMM:  12    -0.413213854271E+03    0.94639E-05   -0.11951E-06  2482   0.185E-03    0.952E-04
RMM:  13    -0.413213848230E+03    0.60416E-05   -0.56207E-07  2387   0.131E-03    0.566E-04
RMM:  14    -0.413213847006E+03    0.12244E-05   -0.27191E-07  2029   0.915E-04    0.392E-04
RMM:  15    -0.413213844469E+03    0.25369E-05   -0.14017E-07  1490   0.719E-04    0.238E-04
RMM:  16    -0.413213836715E+03    0.77538E-05   -0.12971E-07  1564   0.731E-04    0.285E-04
RMM:  17    -0.413213834851E+03    0.18640E-05   -0.54398E-08   966   0.592E-04    0.182E-04
RMM:  18    -0.413213829060E+03    0.57905E-05   -0.69115E-08  1329   0.641E-04    0.142E-04
RMM:  19    -0.413213827029E+03    0.20312E-05   -0.35470E-08   967   0.560E-04    0.639E-05
RMM:  20    -0.413213825484E+03    0.15446E-05   -0.28733E-08   949   0.558E-04    0.581E-05
RMM:  21    -0.413213825304E+03    0.18004E-06   -0.13415E-08   706   0.519E-04
   42 T=    71. E= -.41286647E+03 F= -.41321383E+03 E0= -.41319279E+03  EK= 0.34736E+00 SP= 0.00E+00 SK= 0.00E+00
       N       E                     dE             d eps       ncg     rms          rms(c)
RMM:   1    -0.413236271910E+03   -0.22446E-01   -0.10020E+01  4311   0.125E+00    0.945E-01
RMM:   2    -0.413221058730E+03    0.15213E-01   -0.15616E-01  4293   0.144E-01    0.696E-01
RMM:   3    -0.413219873547E+03    0.11852E-02   -0.19334E-02  5069   0.819E-02    0.290E-01
RMM:   4    -0.413260219106E+03   -0.40346E-01   -0.57815E-02  5098   0.203E-01    0.864E-01
RMM:   5    -0.413215802346E+03    0.44417E-01   -0.19524E-02  4749   0.143E-01    0.629E-02
RMM:   6    -0.413215895740E+03   -0.93394E-04   -0.35071E-03  5769   0.561E-02    0.376E-02
RMM:   7    -0.413215899063E+03   -0.33230E-05   -0.52763E-04  5739   0.210E-02    0.245E-02
RMM:   8    -0.413215895637E+03    0.34259E-05   -0.13073E-04  5199   0.119E-02    0.133E-02
RMM:   9    -0.413215883968E+03    0.11669E-04   -0.20318E-05  4443   0.573E-03    0.562E-03
RMM:  10    -0.413215880588E+03    0.33796E-05   -0.46792E-06  2906   0.278E-03    0.355E-03
RMM:  11    -0.413215877426E+03    0.31625E-05   -0.12764E-06  2496   0.190E-03    0.197E-03
RMM:  12    -0.413215871906E+03    0.55198E-05   -0.96965E-07  2478   0.164E-03    0.748E-04
RMM:  13    -0.413215868357E+03    0.35494E-05   -0.46667E-07  2293   0.117E-03    0.391E-04
RMM:  14    -0.413215866935E+03    0.14219E-05   -0.24037E-07  1880   0.863E-04    0.279E-04
RMM:  15    -0.413215864240E+03    0.26947E-05   -0.13768E-07  1439   0.720E-04    0.135E-04
RMM:  16    -0.413215860504E+03    0.37359E-05   -0.96490E-08  1188   0.666E-04    0.112E-04
RMM:  17    -0.413215858347E+03    0.21571E-05   -0.61068E-08  1057   0.626E-04    0.737E-05
RMM:  18    -0.413215855476E+03    0.28713E-05   -0.53906E-08  1116   0.624E-04    0.474E-05
RMM:  19    -0.413215853227E+03    0.22484E-05   -0.41176E-08  1071   0.597E-04    0.309E-05
RMM:  20    -0.413215852376E+03    0.85160E-06   -0.21836E-08   828   0.552E-04
   43 T=    71. E= -.41286652E+03 F= -.41321585E+03 E0= -.41319485E+03  EK= 0.34934E+00 SP= 0.00E+00 SK= 0.00E+00
       N       E                     dE             d eps       ncg     rms          rms(c)
RMM:   1    -0.413233956980E+03   -0.18104E-01   -0.10107E+01  4313   0.129E+00    0.948E-01
RMM:   2    -0.413222492238E+03    0.11465E-01   -0.15831E-01  4303   0.154E-01    0.708E-01
RMM:   3    -0.413222015315E+03    0.47692E-03   -0.20940E-02  5067   0.895E-02    0.317E-01
RMM:   4    -0.413260205469E+03   -0.38190E-01   -0.58794E-02  5093   0.206E-01    0.852E-01
RMM:   5    -0.413216935846E+03    0.43270E-01   -0.18482E-02  4731   0.141E-01    0.630E-02
RMM:   6    -0.413217010258E+03   -0.74412E-04   -0.33662E-03  5745   0.549E-02    0.364E-02
RMM:   7    -0.413217013541E+03   -0.32834E-05   -0.50370E-04  5754   0.207E-02    0.241E-02
RMM:   8    -0.413217009803E+03    0.37381E-05   -0.12903E-04  5187   0.119E-02    0.128E-02
RMM:   9    -0.413216999420E+03    0.10383E-04   -0.19962E-05  4421   0.573E-03    0.519E-03
RMM:  10    -0.413216997125E+03    0.22947E-05   -0.45566E-06  2872   0.271E-03    0.329E-03
RMM:  11    -0.413216994693E+03    0.24323E-05   -0.12925E-06  2495   0.188E-03    0.179E-03
RMM:  12    -0.413216990670E+03    0.40228E-05   -0.88522E-07  2467   0.155E-03    0.708E-04
RMM:  13    -0.413216987951E+03    0.27186E-05   -0.43753E-07  2206   0.111E-03    0.338E-04
RMM:  14    -0.413216986355E+03    0.15964E-05   -0.23067E-07  1757   0.833E-04    0.224E-04
RMM:  15    -0.413216983121E+03    0.32341E-05   -0.15362E-07  1376   0.727E-04    0.121E-04
RMM:  16    -0.413216980879E+03    0.22421E-05   -0.95552E-08  1158   0.663E-04    0.914E-05
RMM:  17    -0.413216978842E+03    0.20368E-05   -0.70411E-08  1120   0.638E-04    0.602E-05
RMM:  18    -0.413216976218E+03    0.26237E-05   -0.59370E-08  1146   0.628E-04    0.362E-05
RMM:  19    -0.413216974301E+03    0.19173E-05   -0.42880E-08  1073   0.594E-04    0.272E-05
RMM:  20    -0.413216973644E+03    0.65727E-06   -0.20609E-08   802   0.545E-04
   44 T=    71. E= -.41286627E+03 F= -.41321697E+03 E0= -.41319599E+03  EK= 0.35070E+00 SP= 0.00E+00 SK= 0.00E+00
       N       E                     dE             d eps       ncg     rms          rms(c)
RMM:   1    -0.413250427885E+03   -0.33454E-01   -0.10245E+01  4311   0.143E+00    0.972E-01
RMM:   2    -0.413223194643E+03    0.27233E-01   -0.16595E-01  4311   0.165E-01    0.704E-01
RMM:   3    -0.413225536897E+03   -0.23423E-02   -0.21806E-02  5087   0.100E-01    0.386E-01
RMM:   4    -0.413250561797E+03   -0.25025E-01   -0.51307E-02  5065   0.194E-01    0.743E-01
RMM:   5    -0.413218213553E+03    0.32348E-01   -0.12933E-02  4694   0.123E-01    0.621E-02
RMM:   6    -0.413218228258E+03   -0.14706E-04   -0.25286E-03  5673   0.481E-02    0.367E-02
RMM:   7    -0.413218223288E+03    0.49701E-05   -0.42600E-04  5680   0.197E-02    0.241E-02
RMM:   8    -0.413218216001E+03    0.72869E-05   -0.12358E-04  5107   0.120E-02    0.118E-02
RMM:   9    -0.413218203307E+03    0.12694E-04   -0.16881E-05  4351   0.562E-03    0.476E-03
RMM:  10    -0.413218199286E+03    0.40214E-05   -0.36710E-06  2784   0.251E-03    0.289E-03
RMM:  11    -0.413218194126E+03    0.51596E-05   -0.12383E-06  2494   0.184E-03    0.156E-03
RMM:  12    -0.413218187679E+03    0.64474E-05   -0.71432E-07  2436   0.143E-03    0.655E-04
RMM:  13    -0.413218183927E+03    0.37520E-05   -0.34741E-07  2042   0.101E-03    0.310E-04
RMM:  14    -0.413218180959E+03    0.29683E-05   -0.19389E-07  1592   0.788E-04    0.190E-04
RMM:  15    -0.413218175588E+03    0.53708E-05   -0.13971E-07  1363   0.722E-04    0.131E-04
RMM:  16    -0.413218172941E+03    0.26469E-05   -0.84558E-08  1140   0.654E-04    0.878E-05
RMM:  17    -0.413218168845E+03    0.40955E-05   -0.77395E-08  1280   0.652E-04    0.535E-05
RMM:  18    -0.413218166143E+03    0.27023E-05   -0.52669E-08  1110   0.601E-04    0.423E-05
RMM:  19    -0.413218164077E+03    0.20659E-05   -0.37018E-08   991   0.571E-04    0.237E-05
RMM:  20    -0.413218163687E+03    0.39030E-06   -0.18677E-08   748   0.532E-04
   45 T=    72. E= -.41286659E+03 F= -.41321816E+03 E0= -.41319720E+03  EK= 0.35157E+00 SP= 0.00E+00 SK= 0.00E+00
       N       E                     dE             d eps       ncg     rms          rms(c)
RMM:   1    -0.413244570718E+03   -0.26407E-01   -0.10101E+01  4312   0.148E+00    0.955E-01
RMM:   2    -0.413222818169E+03    0.21753E-01   -0.15892E-01  4318   0.175E-01    0.698E-01
RMM:   3    -0.413227684060E+03   -0.48659E-02   -0.24147E-02  5092   0.112E-01    0.438E-01
RMM:   4    -0.413243555008E+03   -0.15871E-01   -0.47396E-02  5050   0.188E-01    0.664E-01
RMM:   5    -0.413217818421E+03    0.25737E-01   -0.94294E-03  4648   0.111E-01    0.596E-02
RMM:   6    -0.413217799585E+03    0.18836E-04   -0.20087E-03  5596   0.429E-02    0.347E-02
RMM:   7    -0.413217789515E+03    0.10070E-04   -0.35774E-04  5596   0.184E-02    0.228E-02
RMM:   8    -0.413217779132E+03    0.10382E-04   -0.12207E-04  5078   0.118E-02    0.109E-02
RMM:   9    -0.413217767132E+03    0.12001E-04   -0.15268E-05  4253   0.544E-03    0.451E-03
RMM:  10    -0.413217763637E+03    0.34952E-05   -0.30011E-06  2719   0.235E-03    0.266E-03
RMM:  11    -0.413217758746E+03    0.48910E-05   -0.11526E-06  2486   0.177E-03    0.140E-03
RMM:  12    -0.413217753174E+03    0.55715E-05   -0.65375E-07  2414   0.136E-03    0.653E-04
RMM:  13    -0.413217749739E+03    0.34348E-05   -0.31394E-07  1944   0.960E-04    0.304E-04
RMM:  14    -0.413217746713E+03    0.30268E-05   -0.17749E-07  1492   0.755E-04    0.176E-04
RMM:  15    -0.413217741880E+03    0.48323E-05   -0.13284E-07  1306   0.708E-04    0.124E-04
RMM:  16    -0.413217739385E+03    0.24956E-05   -0.84001E-08  1145   0.649E-04    0.876E-05
RMM:  17    -0.413217734819E+03    0.45656E-05   -0.85240E-08  1358   0.663E-04    0.617E-05
RMM:  18    -0.413217732916E+03    0.19030E-05   -0.46264E-08  1009   0.577E-04    0.377E-05
RMM:  19    -0.413217731118E+03    0.17981E-05   -0.34856E-08   942   0.558E-04    0.199E-05
RMM:  20    -0.413217730803E+03    0.31503E-06   -0.19382E-08   740   0.523E-04
   46 T=    72. E= -.41286646E+03 F= -.41321773E+03 E0= -.41319679E+03  EK= 0.35127E+00 SP= 0.00E+00 SK= 0.00E+00
       N       E                     dE             d eps       ncg     rms          rms(c)
RMM:   1    -0.413232087239E+03   -0.14356E-01   -0.10018E+01  4312   0.149E+00    0.945E-01
RMM:   2    -0.413221919803E+03    0.10167E-01   -0.15543E-01  4346   0.180E-01    0.707E-01
RMM:   3    -0.413228600466E+03   -0.66807E-02   -0.27063E-02  5089   0.123E-01    0.474E-01
RMM:   4    -0.413240928261E+03   -0.12328E-01   -0.48543E-02  5036   0.192E-01    0.644E-01
RMM:   5    -0.413216578136E+03    0.24350E-01   -0.84317E-03  4620   0.107E-01    0.589E-02
RMM:   6    -0.413216540621E+03    0.37515E-04   -0.18335E-03  5540   0.410E-02    0.326E-02
RMM:   7    -0.413216535174E+03    0.54473E-05   -0.32460E-04  5604   0.177E-02    0.219E-02
RMM:   8    -0.413216526109E+03    0.90648E-05   -0.12537E-04  5081   0.119E-02    0.105E-02
RMM:   9    -0.413216515160E+03    0.10949E-04   -0.14616E-05  4195   0.542E-03    0.437E-03
RMM:  10    -0.413216512911E+03    0.22487E-05   -0.30713E-06  2713   0.233E-03    0.255E-03
RMM:  11    -0.413216509476E+03    0.34357E-05   -0.12252E-06  2492   0.179E-03    0.131E-03
RMM:  12    -0.413216505852E+03    0.36240E-05   -0.65884E-07  2394   0.135E-03    0.670E-04
RMM:  13    -0.413216503266E+03    0.25858E-05   -0.32420E-07  1896   0.958E-04    0.308E-04
RMM:  14    -0.413216500792E+03    0.24737E-05   -0.18746E-07  1437   0.756E-04    0.171E-04
RMM:  15    -0.413216497460E+03    0.33318E-05   -0.14461E-07  1310   0.712E-04    0.114E-04
RMM:  16    -0.413216495477E+03    0.19835E-05   -0.92645E-08  1171   0.654E-04    0.859E-05
RMM:  17    -0.413216491681E+03    0.37960E-05   -0.10077E-07  1411   0.672E-04    0.612E-05
RMM:  18    -0.413216490294E+03    0.13873E-05   -0.48266E-08   987   0.568E-04    0.359E-05
RMM:  19    -0.413216488974E+03    0.13193E-05   -0.35368E-08   907   0.545E-04    0.198E-05
RMM:  20    -0.413216488447E+03    0.52726E-06   -0.20712E-08   755   0.518E-04
   47 T=    71. E= -.41286663E+03 F= -.41321649E+03 E0= -.41319556E+03  EK= 0.34986E+00 SP= 0.00E+00 SK= 0.00E+00
       N       E                     dE             d eps       ncg     rms          rms(c)
RMM:   1    -0.413245903207E+03   -0.29414E-01   -0.10080E+01  4306   0.167E+00    0.960E-01
RMM:   2    -0.413219252456E+03    0.26651E-01   -0.17347E-01  4401   0.197E-01    0.705E-01
RMM:   3    -0.413231018390E+03   -0.11766E-01   -0.28674E-02  5126   0.136E-01    0.570E-01
RMM:   4    -0.413231182854E+03   -0.16446E-03   -0.44659E-02  5004   0.187E-01    0.548E-01
RMM:   5    -0.413214154538E+03    0.17028E-01   -0.57970E-03  4567   0.963E-02    0.593E-02
RMM:   6    -0.413214068709E+03    0.85829E-04   -0.11274E-03  5228   0.347E-02    0.319E-02
RMM:   7    -0.413214061990E+03    0.67192E-05   -0.23251E-04  5560   0.153E-02    0.199E-02
RMM:   8    -0.413214055389E+03    0.66005E-05   -0.14049E-04  5147   0.124E-02    0.118E-02
RMM:   9    -0.413214039245E+03    0.16144E-04   -0.18061E-05  4418   0.597E-03    0.446E-03
RMM:  10    -0.413214036134E+03    0.31119E-05   -0.32925E-06  2756   0.239E-03    0.246E-03
RMM:  11    -0.413214030187E+03    0.59463E-05   -0.13533E-06  2474   0.190E-03    0.130E-03
RMM:  12    -0.413214025982E+03    0.42048E-05   -0.60933E-07  2393   0.135E-03    0.750E-04
RMM:  13    -0.413214021979E+03    0.40039E-05   -0.29453E-07  1829   0.951E-04    0.370E-04
RMM:  14    -0.413214017864E+03    0.41144E-05   -0.16110E-07  1428   0.743E-04    0.203E-04
RMM:  15    -0.413214013936E+03    0.39280E-05   -0.10854E-07  1207   0.674E-04    0.126E-04
RMM:  16    -0.413214011172E+03    0.27641E-05   -0.76587E-08  1142   0.629E-04    0.106E-04
RMM:  17    -0.413214007348E+03    0.38236E-05   -0.73500E-08  1230   0.626E-04    0.606E-05
RMM:  18    -0.413214004985E+03    0.23636E-05   -0.43018E-08   976   0.565E-04    0.491E-05
RMM:  19    -0.413214004212E+03    0.77238E-06   -0.21814E-08   725   0.517E-04
   48 T=    71. E= -.41286696E+03 F= -.41321400E+03 E0= -.41319309E+03  EK= 0.34704E+00 SP= 0.00E+00 SK= 0.00E+00
       N       E                     dE             d eps       ncg     rms          rms(c)
RMM:   1    -0.413242098096E+03   -0.28093E-01   -0.98870E+00  4305   0.178E+00    0.949E-01
RMM:   2    -0.413214028981E+03    0.28069E-01   -0.16953E-01  4446   0.206E-01    0.693E-01
RMM:   3    -0.413232224580E+03   -0.18196E-01   -0.33483E-02  5140   0.153E-01    0.658E-01
RMM:   4    -0.413220706055E+03    0.11519E-01   -0.42150E-02  4972   0.185E-01    0.456E-01
RMM:   5    -0.413209266259E+03    0.11440E-01   -0.42207E-03  4539   0.881E-02    0.600E-02
RMM:   6    -0.413209137163E+03    0.12910E-03   -0.60640E-04  4824   0.293E-02    0.317E-02
RMM:   7    -0.413209127256E+03    0.99069E-05   -0.20916E-04  5836   0.148E-02    0.148E-02
RMM:   8    -0.413209120468E+03    0.67878E-05   -0.85624E-05  5207   0.105E-02    0.116E-02
RMM:   9    -0.413209112049E+03    0.84193E-05   -0.19975E-05  4518   0.546E-03    0.441E-03
RMM:  10    -0.413209108239E+03    0.38097E-05   -0.29135E-06  2677   0.262E-03    0.244E-03
RMM:  11    -0.413209102174E+03    0.60650E-05   -0.17095E-06  2492   0.215E-03    0.154E-03
RMM:  12    -0.413209098111E+03    0.40629E-05   -0.64889E-07  2425   0.147E-03    0.917E-04
RMM:  13    -0.413209094034E+03    0.40771E-05   -0.30686E-07  2150   0.982E-04    0.541E-04
RMM:  14    -0.413209087526E+03    0.65080E-05   -0.22949E-07  1817   0.843E-04    0.428E-04
RMM:  15    -0.413209083863E+03    0.36632E-05   -0.10402E-07  1103   0.633E-04    0.183E-04
RMM:  16    -0.413209081632E+03    0.22309E-05   -0.75000E-08  1092   0.605E-04    0.967E-05
RMM:  17    -0.413209076932E+03    0.46993E-05   -0.84687E-08  1281   0.642E-04    0.150E-04
RMM:  18    -0.413209075942E+03    0.99040E-06   -0.33094E-08   844   0.546E-04
   49 T=    70. E= -.41286686E+03 F= -.41320908E+03 E0= -.41318817E+03  EK= 0.34221E+00 SP= 0.00E+00 SK= 0.00E+00
       N       E                     dE             d eps       ncg     rms          rms(c)
RMM:   1    -0.413233983862E+03   -0.24907E-01   -0.97121E+00  4305   0.189E+00    0.925E-01
RMM:   2    -0.413207964014E+03    0.26020E-01   -0.15807E-01  4488   0.216E-01    0.692E-01
[...]
RMM:   8    -0.413149871712E+03   -0.28397E-04   -0.81856E-05  4675   0.142E-02    0.130E-02
RMM:   9    -0.413149889295E+03   -0.17583E-04   -0.35486E-05  5002   0.736E-03    0.661E-03
RMM:  10    -0.413149904721E+03   -0.15427E-04   -0.13640E-05  3889   0.479E-03    0.382E-03
RMM:  11    -0.413149911387E+03   -0.66658E-05   -0.47893E-06  2957   0.289E-03    0.224E-03
RMM:  12    -0.413149915325E+03   -0.39377E-05   -0.34949E-06  2846   0.235E-03    0.117E-03
RMM:  13    -0.413149915372E+03   -0.47112E-07   -0.28074E-06  2632   0.199E-03
  138 T=    60. E= -.41285581E+03 F= -.41314992E+03 E0= -.41312859E+03  EK= 0.29410E+00 SP= 0.00E+00 SK= 0.00E+00
       N       E                     dE             d eps       ncg     rms          rms(c)
RMM:   1    -0.413266953585E+03   -0.11704E+00   -0.71431E+00  4264   0.473E+00    0.600E-01
RMM:   2    -0.413276293874E+03   -0.93403E-02   -0.34733E-01  5491   0.547E-01    0.653E-01
RMM:   3    -0.413271891634E+03    0.44022E-02   -0.39456E-02  5665   0.207E-01    0.546E-01
RMM:   4    -0.413267687400E+03    0.42042E-02   -0.13284E-02  4957   0.147E-01    0.281E-01
RMM:   5    -0.413269233789E+03   -0.15464E-02   -0.15592E-02  5028   0.150E-01    0.167E-01
RMM:   6    -0.413267734467E+03    0.14993E-02   -0.50850E-03  4929   0.891E-02    0.763E-02
RMM:   7    -0.413267700383E+03    0.34084E-04   -0.11487E-03  5472   0.444E-02    0.444E-02
RMM:   8    -0.413267727544E+03   -0.27161E-04   -0.18213E-04  4782   0.199E-02    0.160E-02
RMM:   9    -0.413267738667E+03   -0.11123E-04   -0.68530E-05  5556   0.974E-03    0.884E-03
RMM:  10    -0.413267745749E+03   -0.70820E-05   -0.16761E-05  4337   0.511E-03    0.487E-03
RMM:  11    -0.413267749934E+03   -0.41854E-05   -0.50913E-06  3013   0.312E-03    0.238E-03
RMM:  12    -0.413267751428E+03   -0.14939E-05   -0.24826E-06  2737   0.213E-03    0.138E-03
RMM:  13    -0.413267751077E+03    0.35104E-06   -0.16476E-06  2568   0.177E-03
  139 T=    83. E= -.41285888E+03 F= -.41326775E+03 E0= -.41324680E+03  EK= 0.40887E+00 SP= 0.00E+00 SK= 0.00E+00
       N       E                     dE             d eps       ncg     rms          rms(c)
RMM:   1    -0.413415670323E+03   -0.14792E+00   -0.11318E+01  4264   0.606E+00    0.967E-01
RMM:   2    -0.413408900382E+03    0.67699E-02   -0.50652E-01  5454   0.711E-01    0.951E-01
RMM:   3    -0.413409096837E+03   -0.19645E-03   -0.77086E-02  5642   0.295E-01    0.884E-01
RMM:   4    -0.413394732493E+03    0.14364E-01   -0.32398E-02  4853   0.235E-01    0.358E-01
RMM:   5    -0.413396659257E+03   -0.19268E-02   -0.31670E-02  5027   0.214E-01    0.218E-01
RMM:   6    -0.413393522292E+03    0.31370E-02   -0.83302E-03  4892   0.118E-01    0.938E-02
RMM:   7    -0.413393379896E+03    0.14240E-03   -0.17485E-03  5402   0.548E-02    0.537E-02
RMM:   8    -0.413393391380E+03   -0.11484E-04   -0.38459E-04  4964   0.261E-02    0.199E-02
RMM:   9    -0.413393395530E+03   -0.41501E-05   -0.11156E-04  5704   0.122E-02    0.114E-02
RMM:  10    -0.413393396614E+03   -0.10842E-05   -0.25713E-05  4918   0.615E-03    0.627E-03
RMM:  11    -0.413393398181E+03   -0.15661E-05   -0.64094E-06  3176   0.345E-03    0.337E-03
RMM:  12    -0.413393398984E+03   -0.80331E-06   -0.24473E-06  2716   0.227E-03
  140 T=   107. E= -.41286844E+03 F= -.41339340E+03 E0= -.41337276E+03  EK= 0.52496E+00 SP= 0.00E+00 SK= 0.00E+00
       N       E                     dE             d eps       ncg     rms          rms(c)
RMM:   1    -0.413466758952E+03   -0.73361E-01   -0.14637E+01  4265   0.693E+00    0.135E+00
RMM:   2    -0.413435889880E+03    0.30869E-01   -0.59416E-01  5407   0.792E-01    0.121E+00
RMM:   3    -0.413461741966E+03   -0.25852E-01   -0.12952E-01  5587   0.378E-01    0.127E+00
RMM:   4    -0.413421916631E+03    0.39825E-01   -0.58444E-02  4857   0.317E-01    0.386E-01
RMM:   5    -0.413422400500E+03   -0.48387E-03   -0.46363E-02  5036   0.258E-01    0.241E-01
RMM:   6    -0.413418505326E+03    0.38952E-02   -0.10344E-02  4905   0.133E-01    0.101E-01
RMM:   7    -0.413418227827E+03    0.27750E-03   -0.19970E-03  5317   0.590E-02    0.535E-02
RMM:   8    -0.413418215875E+03    0.11952E-04   -0.51795E-04  5173   0.285E-02    0.235E-02
RMM:   9    -0.413418215517E+03    0.35742E-06   -0.15608E-04  5655   0.144E-02    0.141E-02
RMM:  10    -0.413418212904E+03    0.26127E-05   -0.38786E-05  5275   0.740E-03    0.743E-03
RMM:  11    -0.413418212208E+03    0.69631E-06   -0.86632E-06  3388   0.375E-03
  141 T=   110. E= -.41287550E+03 F= -.41341821E+03 E0= -.41339780E+03  EK= 0.54271E+00 SP= 0.00E+00 SK= 0.00E+00
       N       E                     dE             d eps       ncg     rms          rms(c)
RMM:   1    -0.413354127535E+03    0.64085E-01   -0.13594E+01  4264   0.675E+00    0.140E+00
RMM:   2    -0.413326812977E+03    0.27315E-01   -0.52885E-01  5329   0.711E-01    0.114E+00
RMM:   3    -0.413423908958E+03   -0.97096E-01   -0.17372E-01  5519   0.419E-01    0.152E+00
RMM:   4    -0.413325195221E+03    0.98714E-01   -0.81390E-02  4783   0.355E-01    0.281E-01
RMM:   5    -0.413324589485E+03    0.60574E-03   -0.37074E-02  5355   0.229E-01    0.189E-01
RMM:   6    -0.413322916542E+03    0.16729E-02   -0.73509E-03  5223   0.107E-01    0.911E-02
RMM:   7    -0.413322705598E+03    0.21094E-03   -0.17462E-03  5506   0.506E-02    0.499E-02
RMM:   8    -0.413322700484E+03    0.51146E-05   -0.42918E-04  5518   0.263E-02    0.271E-02
RMM:   9    -0.413322693449E+03    0.70348E-05   -0.13197E-04  5494   0.136E-02    0.154E-02
RMM:  10    -0.413322690631E+03    0.28178E-05   -0.48413E-05  5524   0.797E-03    0.793E-03
RMM:  11    -0.413322689598E+03    0.10328E-05   -0.91179E-06  3475   0.372E-03    0.462E-03
RMM:  12    -0.413322689070E+03    0.52830E-06   -0.26652E-06  2644   0.276E-03
  142 T=    95. E= -.41285644E+03 F= -.41332269E+03 E0= -.41330242E+03  EK= 0.46625E+00 SP= 0.00E+00 SK= 0.00E+00
       N       E                     dE             d eps       ncg     rms          rms(c)
RMM:   1    -0.413389987511E+03   -0.67298E-01   -0.12040E+01  4276   0.668E+00    0.115E+00
RMM:   2    -0.413381817067E+03    0.81704E-02   -0.43252E-01  5396   0.668E-01    0.942E-01
RMM:   3    -0.413428614147E+03   -0.46797E-01   -0.10950E-01  5517   0.343E-01    0.122E+00
RMM:   4    -0.413376024451E+03    0.52590E-01   -0.69631E-02  5017   0.314E-01    0.448E-01
RMM:   5    -0.413371657997E+03    0.43665E-02   -0.30942E-02  4804   0.232E-01    0.157E-01
RMM:   6    -0.413371080086E+03    0.57791E-03   -0.96146E-03  5395   0.117E-01    0.114E-01
RMM:   7    -0.413370473957E+03    0.60613E-03   -0.15213E-03  4796   0.523E-02    0.513E-02
RMM:   8    -0.413370468605E+03    0.53514E-05   -0.63098E-04  5599   0.305E-02    0.300E-02
RMM:   9    -0.413370473601E+03   -0.49959E-05   -0.15655E-04  5488   0.153E-02    0.214E-02
RMM:  10    -0.413370466129E+03    0.74720E-05   -0.67283E-05  5351   0.100E-02    0.731E-03
RMM:  11    -0.413370471155E+03   -0.50260E-05   -0.27086E-05  4997   0.563E-03    0.722E-03
RMM:  12    -0.413370471541E+03   -0.38626E-06   -0.41765E-06  2971   0.316E-03
  143 T=   104. E= -.41285791E+03 F= -.41337047E+03 E0= -.41335017E+03  EK= 0.51256E+00 SP= 0.00E+00 SK= 0.00E+00
       N       E                     dE             d eps       ncg     rms          rms(c)
RMM:   1    -0.413602902227E+03   -0.23243E+00   -0.16263E+01  4284   0.774E+00    0.191E+00
RMM:   2    -0.413607941763E+03   -0.50395E-02   -0.64211E-01  5359   0.919E-01    0.178E+00
RMM:   3    -0.413617704887E+03   -0.97631E-02   -0.21905E-01  5390   0.501E-01    0.176E+00
RMM:   4    -0.413545279733E+03    0.72425E-01   -0.16430E-01  5180   0.469E-01    0.772E-01
RMM:   5    -0.413536757042E+03    0.85227E-02   -0.94871E-02  4910   0.387E-01    0.349E-01
RMM:   6    -0.413530612279E+03    0.61448E-02   -0.28911E-02  5088   0.213E-01    0.176E-01
RMM:   7    -0.413529431466E+03    0.11808E-02   -0.21975E-03  4475   0.759E-02    0.830E-02
RMM:   8    -0.413529387094E+03    0.44371E-04   -0.93347E-04  5268   0.393E-02    0.454E-02
RMM:   9    -0.413529413075E+03   -0.25981E-04   -0.37362E-04  5223   0.246E-02    0.240E-02
RMM:  10    -0.413529414397E+03   -0.13214E-05   -0.84979E-05  5501   0.112E-02    0.122E-02
RMM:  11    -0.413529426586E+03   -0.12190E-04   -0.49653E-05  5385   0.824E-03    0.797E-03
RMM:  12    -0.413529435424E+03   -0.88380E-05   -0.10033E-05  3754   0.441E-03    0.443E-03
RMM:  13    -0.413529438575E+03   -0.31506E-05   -0.42327E-06  2966   0.290E-03    0.209E-03
RMM:  14    -0.413529440358E+03   -0.17833E-05   -0.23853E-06  2700   0.224E-03    0.112E-03
RMM:  15    -0.413529440047E+03    0.31185E-06   -0.19708E-06  2597   0.187E-03
  144 T=   131. E= -.41288448E+03 F= -.41352944E+03 E0= -.41350894E+03  EK= 0.64496E+00 SP= 0.00E+00 SK= 0.00E+00
       N       E                     dE             d eps       ncg     rms          rms(c)
RMM:   1    -0.413570259884E+03   -0.40820E-01   -0.17890E+01  4290   0.797E+00    0.199E+00
RMM:   2    -0.413557097624E+03    0.13162E-01   -0.69808E-01  5342   0.973E-01    0.190E+00
RMM:   3    -0.413566153870E+03   -0.90562E-02   -0.22845E-01  5464   0.512E-01    0.187E+00
RMM:   4    -0.413491851469E+03    0.74302E-01   -0.15022E-01  5190   0.452E-01    0.874E-01
RMM:   5    -0.413489049789E+03    0.28017E-02   -0.11901E-01  4959   0.422E-01    0.424E-01
RMM:   6    -0.413479122697E+03    0.99271E-02   -0.39451E-02  5015   0.247E-01    0.193E-01
RMM:   7    -0.413477473958E+03    0.16487E-02   -0.31479E-03  4534   0.910E-02    0.906E-02
RMM:   8    -0.413477427490E+03    0.46468E-04   -0.13765E-03  5506   0.454E-02    0.536E-02
RMM:   9    -0.413477445853E+03   -0.18363E-04   -0.45647E-04  4944   0.279E-02    0.222E-02
RMM:  10    -0.413477455489E+03   -0.96366E-05   -0.11274E-04  5714   0.127E-02    0.133E-02
RMM:  11    -0.413477463624E+03   -0.81351E-05   -0.37868E-05  5177   0.748E-03    0.745E-03
RMM:  12    -0.413477472289E+03   -0.86645E-05   -0.11077E-05  3909   0.447E-03    0.453E-03
RMM:  13    -0.413477476664E+03   -0.43749E-05   -0.41923E-06  2950   0.293E-03    0.236E-03
RMM:  14    -0.413477478655E+03   -0.19910E-05   -0.25088E-06  2736   0.222E-03    0.140E-03
RMM:  15    -0.413477478326E+03    0.32895E-06   -0.18676E-06  2567   0.180E-03
  145 T=   124. E= -.41286903E+03 F= -.41347748E+03 E0= -.41345683E+03  EK= 0.60845E+00 SP= 0.00E+00 SK= 0.00E+00
       N       E                     dE             d eps       ncg     rms          rms(c)
RMM:   1    -0.413413837188E+03    0.63641E-01   -0.13868E+01  4294   0.714E+00    0.116E+00
RMM:   2    -0.413409759016E+03    0.40782E-02   -0.45269E-01  5304   0.769E-01    0.121E+00
RMM:   3    -0.413396299101E+03    0.13460E-01   -0.10677E-01  5568   0.357E-01    0.110E+00
RMM:   4    -0.413370027444E+03    0.26272E-01   -0.49027E-02  5227   0.262E-01    0.582E-01
RMM:   5    -0.413370981676E+03   -0.95423E-03   -0.47004E-02  4948   0.265E-01    0.324E-01
RMM:   6    -0.413366798970E+03    0.41827E-02   -0.21726E-02  4998   0.180E-01    0.151E-01
RMM:   7    -0.413365796515E+03    0.10025E-02   -0.23575E-03  4762   0.731E-02    0.725E-02
RMM:   8    -0.413365753641E+03    0.42874E-04   -0.85641E-04  5727   0.345E-02    0.444E-02
RMM:   9    -0.413365744176E+03    0.94655E-05   -0.28633E-04  4670   0.223E-02    0.159E-02
RMM:  10    -0.413365751436E+03   -0.72606E-05   -0.75112E-05  5678   0.105E-02    0.105E-02
RMM:  11    -0.413365753286E+03   -0.18496E-05   -0.17243E-05  4411   0.530E-03    0.570E-03
RMM:  12    -0.413365756541E+03   -0.32547E-05   -0.65005E-06  3340   0.361E-03    0.353E-03
RMM:  13    -0.413365758250E+03   -0.17094E-05   -0.21835E-06  2683   0.234E-03    0.163E-03
RMM:  14    -0.413365758221E+03    0.28638E-07   -0.13389E-06  2558   0.170E-03
  146 T=   104. E= -.41285465E+03 F= -.41336576E+03 E0= -.41334517E+03  EK= 0.51111E+00 SP= 0.00E+00 SK= 0.00E+00
       N       E                     dE             d eps       ncg     rms          rms(c)
RMM:   1    -0.413408872696E+03   -0.43114E-01   -0.12153E+01  4297   0.683E+00    0.103E+00
RMM:   2    -0.413408415337E+03    0.45736E-03   -0.32456E-01  5242   0.661E-01    0.101E+00
RMM:   3    -0.413398897288E+03    0.95180E-02   -0.87948E-02  5488   0.323E-01    0.919E-01
RMM:   4    -0.413379838677E+03    0.19059E-01   -0.51676E-02  5254   0.259E-01    0.462E-01
RMM:   5    -0.413376934524E+03    0.29042E-02   -0.32598E-02  4984   0.220E-01    0.234E-01
RMM:   6    -0.413375584632E+03    0.13499E-02   -0.11859E-02  5178   0.137E-01    0.130E-01
RMM:   7    -0.413374859042E+03    0.72559E-03   -0.13835E-03  4432   0.572E-02    0.513E-02
RMM:   8    -0.413374879475E+03   -0.20432E-04   -0.10325E-03  5673   0.352E-02    0.362E-02
RMM:   9    -0.413374860070E+03    0.19405E-04   -0.14836E-04  5199   0.153E-02    0.214E-02
RMM:  10    -0.413374853058E+03    0.70114E-05   -0.87331E-05  5592   0.109E-02    0.810E-03
RMM:  11    -0.413374856096E+03   -0.30377E-05   -0.19239E-05  4609   0.507E-03    0.581E-03
RMM:  12    -0.413374856983E+03   -0.88758E-06   -0.35748E-06  2826   0.301E-03
  147 T=   104. E= -.41286231E+03 F= -.41337486E+03 E0= -.41335446E+03  EK= 0.51255E+00 SP= 0.00E+00 SK= 0.00E+00
       N       E                     dE             d eps       ncg     rms          rms(c)
RMM:   1    -0.413452752160E+03   -0.77896E-01   -0.12835E+01  4298   0.713E+00    0.105E+00
RMM:   2    -0.413447314056E+03    0.54381E-02   -0.30224E-01  5199   0.681E-01    0.104E+00
RMM:   3    -0.413436972857E+03    0.10341E-01   -0.81555E-02  5529   0.314E-01    0.940E-01
RMM:   4    -0.413420529766E+03    0.16443E-01   -0.47219E-02  5247   0.248E-01    0.483E-01
RMM:   5    -0.413419471520E+03    0.10582E-02   -0.34532E-02  5025   0.225E-01    0.254E-01
RMM:   6    -0.413417399579E+03    0.20719E-02   -0.14179E-02  5138   0.148E-01    0.140E-01
RMM:   7    -0.413416534090E+03    0.86549E-03   -0.15392E-03  4459   0.616E-02    0.485E-02
RMM:   8    -0.413416554620E+03   -0.20529E-04   -0.98900E-04  5794   0.344E-02    0.324E-02
RMM:   9    -0.413416537658E+03    0.16962E-04   -0.13730E-04  5086   0.147E-02    0.164E-02
RMM:  10    -0.413416540385E+03   -0.27277E-05   -0.68100E-05  5637   0.958E-03    0.815E-03
RMM:  11    -0.413416548899E+03   -0.85135E-05   -0.12195E-05  4050   0.454E-03    0.516E-03
RMM:  12    -0.413416556068E+03   -0.71691E-05   -0.38776E-06  2891   0.304E-03    0.230E-03
RMM:  13    -0.413416562942E+03   -0.68743E-05   -0.15055E-06  2589   0.199E-03    0.110E-03
RMM:  14    -0.413416569685E+03   -0.67427E-05   -0.11631E-06  2512   0.161E-03    0.643E-04
RMM:  15    -0.413416575283E+03   -0.55982E-05   -0.81221E-07  2232   0.124E-03    0.386E-04
RMM:  16    -0.413416580857E+03   -0.55741E-05   -0.84326E-07  2225   0.119E-03    0.245E-04
RMM:  17    -0.413416585235E+03   -0.43780E-05   -0.67441E-07  2015   0.104E-03    0.160E-04
RMM:  18    -0.413416588255E+03   -0.30193E-05   -0.43255E-07  1692   0.854E-04    0.104E-04
RMM:  19    -0.413416590475E+03   -0.22209E-05   -0.24501E-07  1492   0.728E-04    0.643E-05
RMM:  20    -0.413416592068E+03   -0.15922E-05   -0.13473E-07  1220   0.640E-04    0.457E-05
RMM:  21    -0.413416593003E+03   -0.93500E-06   -0.71987E-08  1019   0.589E-04
  148 T=   113. E= -.41286352E+03 F= -.41341659E+03 E0= -.41339639E+03  EK= 0.55307E+00 SP= 0.00E+00 SK= 0.00E+00
       N       E                     dE             d eps       ncg     rms          rms(c)
RMM:   1    -0.413484088591E+03   -0.67497E-01   -0.13486E+01  4298   0.730E+00    0.847E-01
RMM:   2    -0.413470080451E+03    0.14008E-01   -0.29321E-01  5191   0.687E-01    0.883E-01
RMM:   3    -0.413462300189E+03    0.77803E-02   -0.64767E-02  5618   0.278E-01    0.797E-01
RMM:   4    -0.413449994896E+03    0.12305E-01   -0.25184E-02  5267   0.186E-01    0.474E-01
RMM:   5    -0.413451098162E+03   -0.11033E-02   -0.21193E-02  5008   0.179E-01    0.263E-01
RMM:   6    -0.413449569279E+03    0.15289E-02   -0.14491E-02  5030   0.146E-01    0.140E-01
RMM:   7    -0.413448578140E+03    0.99114E-03   -0.20126E-03  4653   0.665E-02    0.506E-02
RMM:   8    -0.413448570793E+03    0.73470E-05   -0.82206E-04  5970   0.316E-02    0.327E-02
RMM:   9    -0.413448540274E+03    0.30519E-04   -0.15552E-04  4608   0.166E-02    0.124E-02
RMM:  10    -0.413448549372E+03   -0.90986E-05   -0.71652E-05  5686   0.979E-03    0.979E-03
RMM:  11    -0.413448557891E+03   -0.85192E-05   -0.10480E-05  3943   0.452E-03    0.511E-03
RMM:  12    -0.413448570872E+03   -0.12981E-04   -0.65605E-06  3394   0.364E-03    0.290E-03
RMM:  13    -0.413448584747E+03   -0.13874E-04   -0.21975E-06  2683   0.251E-03    0.138E-03
RMM:  14    -0.413448597778E+03   -0.13031E-04   -0.18421E-06  2656   0.198E-03    0.859E-04
RMM:  15    -0.413448609691E+03   -0.11913E-04   -0.15941E-06  2574   0.165E-03    0.585E-04
RMM:  16    -0.413448620378E+03   -0.10687E-04   -0.16318E-06  2519   0.150E-03    0.373E-04
RMM:  17    -0.413448626289E+03   -0.59110E-05   -0.84855E-07  2002   0.107E-03    0.242E-04
RMM:  18    -0.413448633428E+03   -0.71386E-05   -0.10581E-06  2270   0.119E-03    0.165E-04
RMM:  19    -0.413448636122E+03   -0.26937E-05   -0.32209E-07  1460   0.737E-04    0.101E-04
RMM:  20    -0.413448639435E+03   -0.33136E-05   -0.22787E-07  1427   0.702E-04    0.757E-05
RMM:  21    -0.413448640776E+03   -0.13407E-05   -0.10657E-07  1146   0.606E-04    0.486E-05
RMM:  22    -0.413448641814E+03   -0.10385E-05   -0.66299E-08  1059   0.579E-04    0.320E-05
RMM:  23    -0.413448642411E+03   -0.59636E-06   -0.45611E-08  1028   0.558E-04
  149 T=   119. E= -.41286168E+03 F= -.41344864E+03 E0= -.41342864E+03  EK= 0.58696E+00 SP= 0.00E+00 SK= 0.00E+00
       N       E                     dE             d eps       ncg     rms          rms(c)
RMM:   1    -0.413533377496E+03   -0.84736E-01   -0.14365E+01  4294   0.736E+00    0.910E-01
RMM:   2    -0.413494166906E+03    0.39211E-01   -0.30834E-01  5181   0.717E-01    0.859E-01
RMM:   3    -0.413502206204E+03   -0.80393E-02   -0.71985E-02  5634   0.285E-01    0.909E-01
RMM:   4    -0.413481977742E+03    0.20228E-01   -0.29109E-02  5218   0.200E-01    0.532E-01
RMM:   5    -0.413482630921E+03   -0.65318E-03   -0.22543E-02  5000   0.187E-01    0.240E-01
RMM:   6    -0.413481296227E+03    0.13347E-02   -0.15804E-02  5048   0.149E-01    0.146E-01
RMM:   7    -0.413480036264E+03    0.12600E-02   -0.23690E-03  4687   0.705E-02    0.473E-02
RMM:   8    -0.413480028981E+03    0.72831E-05   -0.90535E-04  5993   0.332E-02    0.320E-02
RMM:   9    -0.413479988589E+03    0.40392E-04   -0.16429E-04  4641   0.171E-02    0.134E-02
RMM:  10    -0.413479993711E+03   -0.51221E-05   -0.75054E-05  5737   0.989E-03    0.979E-03
RMM:  11    -0.413480003265E+03   -0.95543E-05   -0.11620E-05  4015   0.479E-03    0.539E-03
RMM:  12    -0.413480017161E+03   -0.13896E-04   -0.69375E-06  3417   0.383E-03    0.313E-03
RMM:  13    -0.413480032613E+03   -0.15452E-04   -0.26647E-06  2743   0.271E-03    0.160E-03
RMM:  14    -0.413480046882E+03   -0.14269E-04   -0.20504E-06  2677   0.212E-03    0.984E-04
RMM:  15    -0.413480060117E+03   -0.13235E-04   -0.18176E-06  2654   0.178E-03    0.667E-04
RMM:  16    -0.413480072299E+03   -0.12182E-04   -0.19077E-06  2608   0.163E-03    0.437E-04
RMM:  17    -0.413480079627E+03   -0.73286E-05   -0.11643E-06  2147   0.121E-03    0.268E-04
RMM:  18    -0.413480086452E+03   -0.68245E-05   -0.10699E-06  2323   0.120E-03    0.177E-04
RMM:  19    -0.413480089623E+03   -0.31712E-05   -0.41155E-07  1556   0.775E-04    0.110E-04
RMM:  20    -0.413480092573E+03   -0.29502E-05   -0.26401E-07  1416   0.700E-04    0.803E-05
RMM:  21    -0.413480094186E+03   -0.16127E-05   -0.13698E-07  1200   0.616E-04    0.535E-05
RMM:  22    -0.413480095345E+03   -0.11590E-05   -0.85799E-08  1095   0.586E-04    0.363E-05
RMM:  23    -0.413480095842E+03   -0.49724E-06   -0.51045E-08  1002   0.552E-04
  150 T=   126. E= -.41286111E+03 F= -.41348010E+03 E0= -.41346029E+03  EK= 0.61899E+00 SP= 0.00E+00 SK= 0.00E+00
