       N       E                     dE             d eps       ncg     rms          rms(c)
RMM:   1     0.220183615581E+04    0.22018E+04   -0.52440E+04  2132   0.654E+02
RMM:   2     0.705523698383E+03   -0.14963E+04   -0.16263E+04  2132   0.177E+02
RMM:   3     0.137951463672E+03   -0.56757E+03   -0.65709E+03  2132   0.117E+02
RMM:   4    -0.159456560275E+03   -0.29741E+03   -0.27878E+03  2132   0.937E+01
RMM:   5    -0.287547241448E+03   -0.12809E+03   -0.11458E+03  2132   0.595E+01
RMM:   6    -0.349805648200E+03   -0.62258E+02   -0.55098E+02  2132   0.423E+01
RMM:   7    -0.382655938406E+03   -0.32850E+02   -0.30381E+02  2132   0.293E+01
RMM:   8    -0.404216754941E+03   -0.21561E+02   -0.18473E+02  2132   0.233E+01
RMM:   9    -0.436021930988E+03   -0.31805E+02   -0.30663E+02  6101   0.173E+01
RMM:  10    -0.441325560772E+03   -0.53036E+01   -0.63161E+01  6397   0.539E+00
RMM:  11    -0.442527943126E+03   -0.12024E+01   -0.11029E+01  6216   0.172E+00
RMM:  12    -0.442897403767E+03   -0.36946E+00   -0.27071E+00  6369   0.597E-01    0.134E+02
RMM:  13    -0.425670904918E+03    0.17226E+02   -0.81581E+01  4678   0.120E+01    0.712E+01
RMM:  14    -0.500228850458E+03   -0.74558E+02   -0.54715E+02  5423   0.233E+01    0.308E+01
RMM:  15    -0.414576460126E+03    0.85652E+02   -0.19758E+02  5072   0.163E+01    0.629E+00
RMM:  16    -0.414036328238E+03    0.54013E+00   -0.39390E+01  6082   0.605E+00    0.426E+00
RMM:  17    -0.413219116249E+03    0.81721E+00   -0.23531E+00  5372   0.182E+00    0.245E+00
RMM:  18    -0.413167439720E+03    0.51677E-01   -0.86648E-01  5953   0.957E-01    0.160E+00
RMM:  19    -0.413167955857E+03   -0.51614E-03   -0.29933E-01  5722   0.579E-01    0.843E-01
RMM:  20    -0.413181826894E+03   -0.13871E-01   -0.18840E-01  5401   0.476E-01    0.509E-01
RMM:  21    -0.413167940796E+03    0.13886E-01   -0.33396E-02  5012   0.221E-01    0.236E-01
RMM:  22    -0.413166599844E+03    0.13410E-02   -0.13060E-02  6084   0.927E-02    0.146E-01
RMM:  23    -0.413164854276E+03    0.17456E-02   -0.55520E-03  5803   0.686E-02    0.804E-02
RMM:  24    -0.413163272684E+03    0.15816E-02   -0.17431E-03  5506   0.405E-02    0.342E-02
RMM:  25    -0.413162974141E+03    0.29854E-03   -0.81860E-04  5823   0.235E-02    0.284E-02
RMM:  26    -0.413163127267E+03   -0.15313E-03   -0.55364E-04  5824   0.241E-02    0.298E-02
RMM:  27    -0.413163548533E+03   -0.42127E-03   -0.18706E-04  4517   0.198E-02    0.160E-02
RMM:  28    -0.413164029024E+03   -0.48049E-03   -0.20169E-04  5194   0.204E-02    0.886E-03
RMM:  29    -0.413164351937E+03   -0.32291E-03   -0.94320E-05  4352   0.138E-02    0.425E-03
RMM:  30    -0.413164542099E+03   -0.19016E-03   -0.66175E-05  4049   0.913E-03    0.299E-03
RMM:  31    -0.413164646900E+03   -0.10480E-03   -0.45177E-05  3090   0.616E-03    0.215E-03
RMM:  32    -0.413164667415E+03   -0.20515E-04   -0.18621E-05  2945   0.283E-03    0.112E-03
RMM:  33    -0.413164674675E+03   -0.72598E-05   -0.77155E-06  2749   0.199E-03    0.537E-04
RMM:  34    -0.413164675818E+03   -0.11436E-05   -0.36967E-06  2592   0.146E-03    0.642E-04
RMM:  35    -0.413164674693E+03    0.11255E-05   -0.19415E-06  1992   0.103E-03    0.667E-04
RMM:  36    -0.413164673290E+03    0.14027E-05   -0.36697E-06  1447   0.823E-04    0.293E-04
RMM:  37    -0.413164673089E+03    0.20072E-06   -0.10106E-06  1524   0.772E-04
    1 T=    61. E= -.41286688E+03 F= -.41316467E+03 E0= -.41314217E+03  EK= 0.29779E+00 SP= 0.00E+00 SK= 0.00E+00
       N       E                     dE             d eps       ncg     rms          rms(c)
RMM:   1    -0.413169009169E+03   -0.43359E-02   -0.75000E+00  3989   0.551E-01    0.894E-01
RMM:   2    -0.413170242057E+03   -0.12329E-02   -0.93792E-02  3855   0.805E-02    0.658E-01
RMM:   3    -0.413166173382E+03    0.40687E-02   -0.32227E-02  5005   0.680E-02    0.207E-01
RMM:   4    -0.413194415397E+03   -0.28242E-01   -0.35278E-02  5170   0.158E-01    0.718E-01
RMM:   5    -0.413164150075E+03    0.30265E-01   -0.14002E-02  4797   0.121E-01    0.511E-02
RMM:   6    -0.413164363726E+03   -0.21365E-03   -0.26458E-03  5728   0.504E-02    0.353E-02
RMM:   7    -0.413164362182E+03    0.15439E-05   -0.47074E-04  5686   0.199E-02    0.230E-02
RMM:   8    -0.413164357558E+03    0.46243E-05   -0.62541E-05  5277   0.884E-03    0.101E-02
RMM:   9    -0.413164359235E+03   -0.16771E-05   -0.12647E-05  3802   0.389E-03    0.696E-03
RMM:  10    -0.413164364551E+03   -0.53159E-05   -0.24270E-06  2605   0.236E-03    0.415E-03
RMM:  11    -0.413164368081E+03   -0.35304E-05   -0.11670E-06  2516   0.166E-03    0.242E-03
RMM:  12    -0.413164374745E+03   -0.66640E-05   -0.17969E-06  2577   0.191E-03    0.112E-03
RMM:  13    -0.413164378366E+03   -0.36212E-05   -0.82467E-07  2441   0.137E-03    0.902E-04
RMM:  14    -0.413164378216E+03    0.15086E-06   -0.35424E-07  1964   0.905E-04
    2 T=    61. E= -.41286668E+03 F= -.41316438E+03 E0= -.41314188E+03  EK= 0.29770E+00 SP= 0.00E+00 SK= 0.00E+00
       N       E                     dE             d eps       ncg     rms          rms(c)
RMM:   1    -0.413170033686E+03   -0.56553E-02   -0.74673E+00  4188   0.552E-01    0.909E-01
RMM:   2    -0.413170383299E+03   -0.34961E-03   -0.93680E-02  3820   0.781E-02    0.656E-01
RMM:   3    -0.413166144244E+03    0.42391E-02   -0.29339E-02  4996   0.575E-02    0.163E-01
RMM:   4    -0.413193535885E+03   -0.27392E-01   -0.31443E-02  5153   0.149E-01    0.701E-01
RMM:   5    -0.413164795575E+03    0.28740E-01   -0.13416E-02  4809   0.117E-01    0.499E-02
RMM:   6    -0.413164996351E+03   -0.20078E-03   -0.25001E-03  5746   0.491E-02    0.364E-02
RMM:   7    -0.413164980886E+03    0.15466E-04   -0.44967E-04  5631   0.202E-02    0.230E-02
RMM:   8    -0.413164969922E+03    0.10963E-04   -0.59223E-05  5190   0.884E-03    0.105E-02
RMM:   9    -0.413164967863E+03    0.20595E-05   -0.11935E-05  3758   0.386E-03    0.745E-03
RMM:  10    -0.413164967956E+03   -0.93620E-07   -0.22162E-06  2586   0.239E-03
    3 T=    61. E= -.41286706E+03 F= -.41316497E+03 E0= -.41314247E+03  EK= 0.29791E+00 SP= 0.00E+00 SK= 0.00E+00
       N       E                     dE             d eps       ncg     rms          rms(c)
RMM:   1    -0.413169436582E+03   -0.44687E-02   -0.74118E+00  4220   0.556E-01    0.895E-01
RMM:   2    -0.413170005560E+03   -0.56898E-03   -0.93198E-02  4246   0.770E-02    0.650E-01
RMM:   3    -0.413173985550E+03   -0.39800E-02   -0.34963E-02  5184   0.100E-01    0.411E-01
RMM:   4    -0.413181434292E+03   -0.74487E-02   -0.34796E-02  5087   0.162E-01    0.539E-01
RMM:   5    -0.413164730064E+03    0.16704E-01   -0.60996E-03  4610   0.899E-02    0.548E-02
RMM:   6    -0.413164721140E+03    0.89237E-05   -0.12705E-03  5336   0.360E-02    0.318E-02
RMM:   7    -0.413164728434E+03   -0.72937E-05   -0.26327E-04  5799   0.155E-02    0.182E-02
RMM:   8    -0.413164726376E+03    0.20581E-05   -0.43654E-05  5045   0.791E-03    0.707E-03
RMM:   9    -0.413164725558E+03    0.81810E-06   -0.48610E-06  2937   0.297E-03
    4 T=    61. E= -.41286685E+03 F= -.41316473E+03 E0= -.41314224E+03  EK= 0.29788E+00 SP= 0.00E+00 SK= 0.00E+00
       N       E                     dE             d eps       ncg     rms          rms(c)
RMM:   1    -0.413169405310E+03   -0.46789E-02   -0.74871E+00  4236   0.563E-01    0.891E-01
RMM:   2    -0.413170495208E+03   -0.10899E-02   -0.93997E-02  4046   0.776E-02    0.657E-01
RMM:   3    -0.413169869543E+03    0.62566E-03   -0.34295E-02  5116   0.839E-02    0.314E-01
RMM:   4    -0.413190319136E+03   -0.20450E-01   -0.37956E-02  5112   0.166E-01    0.665E-01
RMM:   5    -0.413164744709E+03    0.25574E-01   -0.10758E-02  4707   0.111E-01    0.542E-02
RMM:   6    -0.413164853987E+03   -0.10928E-03   -0.20276E-03  5613   0.449E-02    0.323E-02
RMM:   7    -0.413164874653E+03   -0.20666E-04   -0.36266E-04  5834   0.171E-02    0.200E-02
RMM:   8    -0.413164875018E+03   -0.36549E-06   -0.49627E-05  5098   0.819E-03    0.792E-03
RMM:   9    -0.413164876806E+03   -0.17874E-05   -0.75352E-06  3230   0.328E-03    0.465E-03
RMM:  10    -0.413164881495E+03   -0.46894E-05   -0.18514E-06  2559   0.215E-03    0.288E-03
RMM:  11    -0.413164885208E+03   -0.37131E-05   -0.10056E-06  2510   0.159E-03    0.146E-03
RMM:  12    -0.413164889995E+03   -0.47868E-05   -0.10343E-06  2508   0.147E-03    0.675E-04
RMM:  13    -0.413164892431E+03   -0.24362E-05   -0.54552E-07  2215   0.110E-03    0.395E-04
RMM:  14    -0.413164892973E+03   -0.54122E-06   -0.24471E-07  1663   0.807E-04
    5 T=    61. E= -.41286685E+03 F= -.41316489E+03 E0= -.41314242E+03  EK= 0.29805E+00 SP= 0.00E+00 SK= 0.00E+00
       N       E                     dE             d eps       ncg     rms          rms(c)
RMM:   1    -0.413170302679E+03   -0.54102E-02   -0.74738E+00  4247   0.565E-01    0.906E-01
RMM:   2    -0.413170681584E+03   -0.37890E-03   -0.93827E-02  3980   0.776E-02    0.658E-01
RMM:   3    -0.413167123996E+03    0.35576E-02   -0.30195E-02  5044   0.614E-02    0.193E-01
RMM:   4    -0.413196501115E+03   -0.29377E-01   -0.36005E-02  5135   0.160E-01    0.730E-01
RMM:   5    -0.413165188587E+03    0.31313E-01   -0.14378E-02  4785   0.122E-01    0.524E-02
RMM:   6    -0.413165385048E+03   -0.19646E-03   -0.25876E-03  5701   0.506E-02    0.360E-02
RMM:   7    -0.413165375232E+03    0.98163E-05   -0.46135E-04  5680   0.198E-02    0.229E-02
RMM:   8    -0.413165368681E+03    0.65514E-05   -0.61050E-05  5267   0.882E-03    0.993E-03
RMM:   9    -0.413165366841E+03    0.18399E-05   -0.11393E-05  3745   0.382E-03    0.667E-03
RMM:  10    -0.413165367322E+03   -0.48182E-06   -0.21007E-06  2571   0.231E-03
    6 T=    61. E= -.41286700E+03 F= -.41316537E+03 E0= -.41314290E+03  EK= 0.29837E+00 SP= 0.00E+00 SK= 0.00E+00
       N       E                     dE             d eps       ncg     rms          rms(c)
RMM:   1    -0.413169984087E+03   -0.46172E-02   -0.74273E+00  4255   0.570E-01    0.901E-01
RMM:   2    -0.413170390610E+03   -0.40652E-03   -0.93401E-02  4239   0.787E-02    0.652E-01
RMM:   3    -0.413172517755E+03   -0.21271E-02   -0.33355E-02  5150   0.927E-02    0.369E-01
RMM:   4    -0.413184542218E+03   -0.12024E-01   -0.35583E-02  5080   0.163E-01    0.580E-01
RMM:   5    -0.413165081329E+03    0.19461E-01   -0.74009E-03  4656   0.958E-02    0.551E-02
RMM:   6    -0.413165103871E+03   -0.22542E-04   -0.14837E-03  5406   0.389E-02    0.325E-02
RMM:   7    -0.413165119860E+03   -0.15989E-04   -0.29671E-04  5839   0.161E-02    0.192E-02
RMM:   8    -0.413165113392E+03    0.64686E-05   -0.47948E-05  5051   0.826E-03    0.757E-03
RMM:   9    -0.413165111017E+03    0.23743E-05   -0.59438E-06  3039   0.317E-03    0.395E-03
RMM:  10    -0.413165110718E+03    0.29928E-06   -0.15093E-06  2525   0.202E-03
    7 T=    61. E= -.41286666E+03 F= -.41316511E+03 E0= -.41314266E+03  EK= 0.29845E+00 SP= 0.00E+00 SK= 0.00E+00
       N       E                     dE             d eps       ncg     rms          rms(c)
RMM:   1    -0.413170233685E+03   -0.51227E-02   -0.74716E+00  4269   0.576E-01    0.890E-01
RMM:   2    -0.413171513685E+03   -0.12800E-02   -0.93601E-02  4077   0.804E-02    0.656E-01
RMM:   3    -0.413167960390E+03    0.35533E-02   -0.32169E-02  5021   0.688E-02    0.222E-01
RMM:   4    -0.413196557380E+03   -0.28597E-01   -0.36800E-02  5124   0.162E-01    0.728E-01
RMM:   5    -0.413165532382E+03    0.31025E-01   -0.14160E-02  4771   0.122E-01    0.518E-02
RMM:   6    -0.413165733237E+03   -0.20085E-03   -0.25796E-03  5694   0.503E-02    0.349E-02
RMM:   7    -0.413165732565E+03    0.67193E-06   -0.44925E-04  5703   0.196E-02    0.225E-02
RMM:   8    -0.413165726425E+03    0.61394E-05   -0.59500E-05  5189   0.879E-03    0.977E-03
RMM:   9    -0.413165726026E+03    0.39966E-06   -0.11222E-05  3682   0.381E-03    0.651E-03
RMM:  10    -0.413165728666E+03   -0.26399E-05   -0.20742E-06  2578   0.230E-03    0.388E-03
RMM:  11    -0.413165730590E+03   -0.19242E-05   -0.10404E-06  2516   0.164E-03    0.216E-03
RMM:  12    -0.413165733757E+03   -0.31674E-05   -0.15240E-06  2548   0.182E-03    0.100E-03
RMM:  13    -0.413165735176E+03   -0.14193E-05   -0.72488E-07  2411   0.132E-03    0.826E-04
RMM:  14    -0.413165734932E+03    0.24431E-06   -0.25844E-07  1909   0.868E-04
    8 T=    61. E= -.41286698E+03 F= -.41316573E+03 E0= -.41314331E+03  EK= 0.29876E+00 SP= 0.00E+00 SK= 0.00E+00
       N       E                     dE             d eps       ncg     rms          rms(c)
RMM:   1    -0.413170840022E+03   -0.51048E-02   -0.74855E+00  4280   0.582E-01    0.903E-01
RMM:   2    -0.413171612272E+03   -0.77225E-03   -0.93739E-02  4108   0.815E-02    0.659E-01
RMM:   3    -0.413167367780E+03    0.42445E-02   -0.30858E-02  4950   0.636E-02    0.184E-01
RMM:   4    -0.413195448684E+03   -0.28081E-01   -0.33088E-02  5127   0.153E-01    0.713E-01
RMM:   5    -0.413165705873E+03    0.29743E-01   -0.13936E-02  4791   0.119E-01    0.499E-02
RMM:   6    -0.413165909685E+03   -0.20381E-03   -0.25116E-03  5720   0.494E-02    0.358E-02
RMM:   7    -0.413165897559E+03    0.12126E-04   -0.44129E-04  5611   0.200E-02    0.227E-02
RMM:   8    -0.413165889501E+03    0.80573E-05   -0.58800E-05  5174   0.878E-03    0.103E-02
RMM:   9    -0.413165887724E+03    0.17778E-05   -0.11625E-05  3741   0.385E-03    0.718E-03
RMM:  10    -0.413165888316E+03   -0.59203E-06   -0.20658E-06  2574   0.232E-03
    9 T=    61. E= -.41286694E+03 F= -.41316589E+03 E0= -.41314348E+03  EK= 0.29895E+00 SP= 0.00E+00 SK= 0.00E+00
       N       E                     dE             d eps       ncg     rms          rms(c)
RMM:   1    -0.413170973300E+03   -0.50856E-02   -0.74443E+00  4287   0.582E-01    0.907E-01
RMM:   2    -0.413171468244E+03   -0.49494E-03   -0.93727E-02  4299   0.811E-02    0.654E-01
RMM:   3    -0.413174511135E+03   -0.30429E-02   -0.34305E-02  5143   0.986E-02    0.395E-01
RMM:   4    -0.413183573726E+03   -0.90626E-02   -0.35017E-02  5061   0.162E-01    0.552E-01
RMM:   5    -0.413165962726E+03    0.17611E-01   -0.64749E-03  4629   0.914E-02    0.548E-02
RMM:   6    -0.413165964585E+03   -0.18591E-05   -0.13519E-03  5367   0.368E-02    0.326E-02
RMM:   7    -0.413165970262E+03   -0.56765E-05   -0.27426E-04  5769   0.157E-02    0.188E-02
RMM:   8    -0.413165963601E+03    0.66605E-05   -0.45083E-05  5051   0.800E-03    0.727E-03
RMM:   9    -0.413165960200E+03    0.34010E-05   -0.51299E-06  2954   0.303E-03    0.377E-03
RMM:  10    -0.413165958851E+03    0.13497E-05   -0.14251E-06  2519   0.198E-03    0.226E-03
RMM:  11    -0.413165957035E+03    0.18162E-05   -0.95968E-07  2472   0.155E-03    0.114E-03
RMM:  12    -0.413165954878E+03    0.21563E-05   -0.71592E-07  2441   0.129E-03    0.499E-04
RMM:  13    -0.413165953491E+03    0.13870E-05   -0.34600E-07  1965   0.946E-04    0.312E-04
RMM:  14    -0.413165951885E+03    0.16060E-05   -0.23016E-07  1532   0.778E-04    0.187E-04
RMM:  15    -0.413165949107E+03    0.27787E-05   -0.29657E-07  1749   0.799E-04    0.257E-04
RMM:  16    -0.413165946584E+03    0.25228E-05   -0.20414E-07  1334   0.686E-04    0.163E-04
RMM:  17    -0.413165945154E+03    0.14294E-05   -0.11371E-07  1120   0.611E-04    0.809E-05
RMM:  18    -0.413165943535E+03    0.16198E-05   -0.93107E-08  1075   0.595E-04    0.479E-05
RMM:  19    -0.413165943212E+03    0.32224E-06   -0.36310E-08   782   0.534E-04
   10 T=    61. E= -.41286679E+03 F= -.41316594E+03 E0= -.41314356E+03  EK= 0.29915E+00 SP= 0.00E+00 SK= 0.00E+00
       N       E                     dE             d eps       ncg     rms          rms(c)
RMM:   1    -0.413171346404E+03   -0.54029E-02   -0.74454E+00  4287   0.589E-01    0.889E-01
RMM:   2    -0.413172343674E+03   -0.99727E-03   -0.93539E-02  4177   0.794E-02    0.654E-01
RMM:   3    -0.413168642381E+03    0.37013E-02   -0.31502E-02  5009   0.643E-02    0.207E-01
RMM:   4    -0.413197404649E+03   -0.28762E-01   -0.35821E-02  5121   0.159E-01    0.726E-01
RMM:   5    -0.413166548810E+03    0.30856E-01   -0.14308E-02  4773   0.121E-01    0.510E-02
RMM:   6    -0.413166748974E+03   -0.20016E-03   -0.25424E-03  5692   0.499E-02    0.355E-02
RMM:   7    -0.413166742623E+03    0.63514E-05   -0.44519E-04  5598   0.198E-02    0.225E-02
RMM:   8    -0.413166738805E+03    0.38176E-05   -0.59479E-05  5200   0.879E-03    0.988E-03
RMM:   9    -0.413166737833E+03    0.97223E-06   -0.11492E-05  3763   0.383E-03    0.669E-03
RMM:  10    -0.413166739826E+03   -0.19927E-05   -0.20294E-06  2563   0.227E-03    0.396E-03
RMM:  11    -0.413166741082E+03   -0.12566E-05   -0.95113E-07  2493   0.159E-03    0.225E-03
RMM:  12    -0.413166743199E+03   -0.21164E-05   -0.13696E-06  2520   0.179E-03    0.106E-03
RMM:  13    -0.413166743966E+03   -0.76683E-06   -0.63411E-07  2400   0.130E-03
   11 T=    61. E= -.41286712E+03 F= -.41316674E+03 E0= -.41314438E+03  EK= 0.29962E+00 SP= 0.00E+00 SK= 0.00E+00
       N       E                     dE             d eps       ncg     rms          rms(c)
RMM:   1    -0.413171590594E+03   -0.48474E-02   -0.74986E+00  4291   0.591E-01    0.900E-01
RMM:   2    -0.413172247012E+03   -0.65642E-03   -0.94082E-02  4192   0.778E-02    0.661E-01
RMM:   3    -0.413168239799E+03    0.40072E-02   -0.31722E-02  4963   0.621E-02    0.191E-01
RMM:   4    -0.413196095846E+03   -0.27856E-01   -0.33213E-02  5118   0.153E-01    0.711E-01
RMM:   5    -0.413166497892E+03    0.29598E-01   -0.13868E-02  4777   0.118E-01    0.495E-02
RMM:   6    -0.413166701375E+03   -0.20348E-03   -0.25150E-03  5740   0.490E-02    0.349E-02
RMM:   7    -0.413166694469E+03    0.69067E-05   -0.42725E-04  5636   0.198E-02    0.225E-02
RMM:   8    -0.413166686288E+03    0.81801E-05   -0.59672E-05  5066   0.879E-03    0.104E-02
RMM:   9    -0.413166684769E+03    0.15200E-05   -0.11730E-05  3725   0.391E-03    0.727E-03
RMM:  10    -0.413166685861E+03   -0.10926E-05   -0.20582E-06  2566   0.232E-03    0.426E-03
RMM:  11    -0.413166686695E+03   -0.83398E-06   -0.11359E-06  2502   0.172E-03
   12 T=    61. E= -.41286679E+03 F= -.41316669E+03 E0= -.41314436E+03  EK= 0.29990E+00 SP= 0.00E+00 SK= 0.00E+00
       N       E                     dE             d eps       ncg     rms          rms(c)
RMM:   1    -0.413172524817E+03   -0.58390E-02   -0.74663E+00  4293   0.595E-01    0.912E-01
RMM:   2    -0.413172436741E+03    0.88076E-04   -0.94130E-02  4215   0.794E-02    0.657E-01
RMM:   3    -0.413168309068E+03    0.41277E-02   -0.29213E-02  4950   0.550E-02    0.151E-01
RMM:   4    -0.413194097819E+03   -0.25789E-01   -0.29011E-02  5126   0.143E-01    0.679E-01
RMM:   5    -0.413167147486E+03    0.26950E-01   -0.12788E-02  4795   0.113E-01    0.486E-02
RMM:   6    -0.413167329048E+03   -0.18156E-03   -0.23257E-03  5769   0.470E-02    0.347E-02
RMM:   7    -0.413167314539E+03    0.14509E-04   -0.40084E-04  5639   0.197E-02    0.224E-02
RMM:   8    -0.413167300079E+03    0.14460E-04   -0.56551E-05  4953   0.871E-03    0.106E-02
RMM:   9    -0.413167295316E+03    0.47628E-05   -0.11919E-05  3759   0.391E-03    0.763E-03
RMM:  10    -0.413167291984E+03    0.33320E-05   -0.21751E-06  2575   0.240E-03    0.440E-03
RMM:  11    -0.413167289374E+03    0.26094E-05   -0.13251E-06  2521   0.185E-03    0.240E-03
RMM:  12    -0.413167284873E+03    0.45011E-05   -0.16542E-06  2558   0.194E-03    0.111E-03
RMM:  13    -0.413167282164E+03    0.27089E-05   -0.56100E-07  2373   0.130E-03    0.778E-04
RMM:  14    -0.413167282139E+03    0.25386E-07   -0.23462E-07  1868   0.841E-04
   13 T=    61. E= -.41286686E+03 F= -.41316728E+03 E0= -.41314498E+03  EK= 0.30042E+00 SP= 0.00E+00 SK= 0.00E+00
       N       E                     dE             d eps       ncg     rms          rms(c)
RMM:   1    -0.413172623335E+03   -0.53412E-02   -0.74359E+00  4293   0.598E-01    0.892E-01
RMM:   2    -0.413173408827E+03   -0.78549E-03   -0.93477E-02  4222   0.799E-02    0.653E-01
RMM:   3    -0.413169553207E+03    0.38556E-02   -0.30863E-02  4983   0.615E-02    0.191E-01
RMM:   4    -0.413198047219E+03   -0.28494E-01   -0.34396E-02  5117   0.156E-01    0.719E-01
RMM:   5    -0.413167745560E+03    0.30302E-01   -0.14138E-02  4778   0.120E-01    0.505E-02
RMM:   6    -0.413167939862E+03   -0.19430E-03   -0.25314E-03  5707   0.497E-02    0.357E-02
RMM:   7    -0.413167926992E+03    0.12870E-04   -0.44278E-04  5598   0.200E-02    0.228E-02
RMM:   8    -0.413167918771E+03    0.82208E-05   -0.59860E-05  5188   0.878E-03    0.102E-02
RMM:   9    -0.413167915881E+03    0.28900E-05   -0.11580E-05  3740   0.385E-03    0.700E-03
RMM:  10    -0.413167915427E+03    0.45489E-06   -0.20568E-06  2562   0.232E-03
   14 T=    61. E= -.41286697E+03 F= -.41316792E+03 E0= -.41314565E+03  EK= 0.30095E+00 SP= 0.00E+00 SK= 0.00E+00
       N       E                     dE             d eps       ncg     rms          rms(c)
RMM:   1    -0.413172717824E+03   -0.48019E-02   -0.75196E+00  4302   0.605E-01    0.899E-01
RMM:   2    -0.413173880962E+03   -0.11631E-02   -0.94285E-02  4307   0.824E-02    0.662E-01
RMM:   3    -0.413177667972E+03   -0.37870E-02   -0.38045E-02  5137   0.104E-01    0.424E-01
RMM:   4    -0.413185479951E+03   -0.78120E-02   -0.36284E-02  5056   0.165E-01    0.555E-01
RMM:   5    -0.413167943814E+03    0.17536E-01   -0.67401E-03  4599   0.932E-02    0.534E-02
RMM:   6    -0.413167961659E+03   -0.17845E-04   -0.13555E-03  5360   0.360E-02    0.312E-02
RMM:   7    -0.413167967177E+03   -0.55179E-05   -0.26449E-04  5722   0.153E-02    0.180E-02
RMM:   8    -0.413167964749E+03    0.24282E-05   -0.42197E-05  4998   0.770E-03    0.683E-03
RMM:   9    -0.413167964055E+03    0.69416E-06   -0.46922E-06  2883   0.293E-03
   15 T=    61. E= -.41286668E+03 F= -.41316796E+03 E0= -.41314573E+03  EK= 0.30129E+00 SP= 0.00E+00 SK= 0.00E+00
       N       E                     dE             d eps       ncg     rms          rms(c)
RMM:   1    -0.413174554967E+03   -0.65902E-02   -0.74892E+00  4295   0.615E-01    0.914E-01
RMM:   2    -0.413174633959E+03   -0.78992E-04   -0.94450E-02  4273   0.827E-02    0.659E-01
RMM:   3    -0.413173943259E+03    0.69070E-03   -0.32184E-02  5083   0.840E-02    0.303E-01
RMM:   4    -0.413194232185E+03   -0.20289E-01   -0.37914E-02  5082   0.166E-01    0.658E-01
RMM:   5    -0.413168950014E+03    0.25282E-01   -0.10324E-02  4696   0.109E-01    0.547E-02
RMM:   6    -0.413169046240E+03   -0.96226E-04   -0.20429E-03  5597   0.446E-02    0.342E-02
RMM:   7    -0.413169034245E+03    0.11995E-04   -0.36945E-04  5763   0.178E-02    0.211E-02
RMM:   8    -0.413169024713E+03    0.95321E-05   -0.52122E-05  5098   0.857E-03    0.845E-03
RMM:   9    -0.413169020122E+03    0.45915E-05   -0.81176E-06  3292   0.342E-03    0.487E-03
RMM:  10    -0.413169016982E+03    0.31398E-05   -0.18956E-06  2552   0.221E-03    0.298E-03
RMM:  11    -0.413169014146E+03    0.28357E-05   -0.95412E-07  2483   0.161E-03    0.153E-03
RMM:  12    -0.413169009574E+03    0.45727E-05   -0.94264E-07  2487   0.149E-03    0.699E-04
RMM:  13    -0.413169006176E+03    0.33974E-05   -0.48476E-07  2259   0.111E-03    0.431E-04
RMM:  14    -0.413169005117E+03    0.10587E-05   -0.21896E-07  1696   0.801E-04    0.291E-04
RMM:  15    -0.413168999230E+03    0.58875E-05   -0.35623E-07  2050   0.905E-04    0.523E-04
RMM:  16    -0.413168996245E+03    0.29850E-05   -0.14181E-07  1196   0.639E-04    0.358E-04
RMM:  17    -0.413168994315E+03    0.19299E-05   -0.89400E-08  1012   0.587E-04    0.243E-04
RMM:  18    -0.413168992503E+03    0.18117E-05   -0.70306E-08  1035   0.590E-04    0.978E-05
RMM:  19    -0.413168990698E+03    0.18056E-05   -0.69404E-08  1178   0.614E-04    0.141E-04
RMM:  20    -0.413168990716E+03   -0.18033E-07   -0.19022E-08   724   0.538E-04
   16 T=    61. E= -.41286701E+03 F= -.41316899E+03 E0= -.41314679E+03  EK= 0.30198E+00 SP= 0.00E+00 SK= 0.00E+00
       N       E                     dE             d eps       ncg     rms          rms(c)
RMM:   1    -0.413175968810E+03   -0.69781E-02   -0.74540E+00  4294   0.632E-01    0.897E-01
RMM:   2    -0.413175102702E+03    0.86611E-03   -0.93712E-02  4239   0.813E-02    0.654E-01
RMM:   3    -0.413171478324E+03    0.36244E-02   -0.30847E-02  5001   0.661E-02    0.205E-01
RMM:   4    -0.413200817990E+03   -0.29340E-01   -0.36953E-02  5111   0.161E-01    0.732E-01
RMM:   5    -0.413169324920E+03    0.31493E-01   -0.14504E-02  4769   0.122E-01    0.517E-02
RMM:   6    -0.413169514023E+03   -0.18910E-03   -0.26211E-03  5699   0.503E-02    0.364E-02
RMM:   7    -0.413169495640E+03    0.18383E-04   -0.45458E-04  5588   0.201E-02    0.232E-02
RMM:   8    -0.413169486167E+03    0.94734E-05   -0.62492E-05  5218   0.898E-03    0.103E-02
RMM:   9    -0.413169482688E+03    0.34790E-05   -0.11941E-05  3809   0.395E-03    0.687E-03
RMM:  10    -0.413169481376E+03    0.13113E-05   -0.20932E-06  2562   0.234E-03    0.408E-03
RMM:  11    -0.413169480530E+03    0.84605E-06   -0.95563E-07  2491   0.161E-03
   17 T=    62. E= -.41286693E+03 F= -.41316948E+03 E0= -.41314732E+03  EK= 0.30255E+00 SP= 0.00E+00 SK= 0.00E+00
       N       E                     dE             d eps       ncg     rms          rms(c)
RMM:   1    -0.413174937678E+03   -0.54563E-02   -0.75309E+00  4296   0.617E-01    0.898E-01
RMM:   2    -0.413175802108E+03   -0.86443E-03   -0.94819E-02  4245   0.805E-02    0.663E-01
RMM:   3    -0.413171546458E+03    0.42557E-02   -0.33031E-02  4949   0.630E-02    0.196E-01
RMM:   4    -0.413198612363E+03   -0.27066E-01   -0.32109E-02  5111   0.150E-01    0.702E-01
RMM:   5    -0.413169817220E+03    0.28795E-01   -0.13619E-02  4780   0.117E-01    0.489E-02
RMM:   6    -0.413170014895E+03   -0.19768E-03   -0.24663E-03  5745   0.483E-02    0.345E-02
RMM:   7    -0.413170003959E+03    0.10936E-04   -0.42144E-04  5631   0.197E-02    0.223E-02
RMM:   8    -0.413169995253E+03    0.87056E-05   -0.56966E-05  5031   0.862E-03    0.102E-02
RMM:   9    -0.413169993551E+03    0.17019E-05   -0.11551E-05  3704   0.387E-03    0.720E-03
RMM:  10    -0.413169994108E+03   -0.55671E-06   -0.20459E-06  2562   0.232E-03
   18 T=    62. E= -.41286682E+03 F= -.41316999E+03 E0= -.41314788E+03  EK= 0.30318E+00 SP= 0.00E+00 SK= 0.00E+00
       N       E                     dE             d eps       ncg     rms          rms(c)
RMM:   1    -0.413176547889E+03   -0.65543E-02   -0.75105E+00  4300   0.621E-01    0.915E-01
RMM:   2    -0.413176684501E+03   -0.13661E-03   -0.94895E-02  4353   0.805E-02    0.662E-01
RMM:   3    -0.413180065379E+03   -0.33809E-02   -0.35833E-02  5134   0.100E-01    0.403E-01
RMM:   4    -0.413189094464E+03   -0.90291E-02   -0.35905E-02  5052   0.164E-01    0.557E-01
RMM:   5    -0.413171166932E+03    0.17928E-01   -0.65647E-03  4603   0.926E-02    0.540E-02
RMM:   6    -0.413171181479E+03   -0.14547E-04   -0.14197E-03  5381   0.367E-02    0.325E-02
RMM:   7    -0.413171175281E+03    0.61984E-05   -0.27526E-04  5667   0.162E-02    0.188E-02
RMM:   8    -0.413171169309E+03    0.59713E-05   -0.44096E-05  4996   0.799E-03    0.721E-03
RMM:   9    -0.413171165088E+03    0.42218E-05   -0.53139E-06  2956   0.304E-03    0.386E-03
RMM:  10    -0.413171162278E+03    0.28092E-05   -0.14477E-06  2510   0.199E-03    0.229E-03
RMM:  11    -0.413171159217E+03    0.30611E-05   -0.85997E-07  2454   0.151E-03    0.115E-03
RMM:  12    -0.413171155049E+03    0.41684E-05   -0.67876E-07  2438   0.128E-03    0.513E-04
RMM:  13    -0.413171152281E+03    0.27676E-05   -0.32757E-07  1948   0.940E-04    0.307E-04
RMM:  14    -0.413171149972E+03    0.23093E-05   -0.18505E-07  1467   0.745E-04    0.189E-04
RMM:  15    -0.413171144774E+03    0.51975E-05   -0.23006E-07  1644   0.776E-04    0.276E-04
RMM:  16    -0.413171141281E+03    0.34935E-05   -0.12605E-07  1153   0.638E-04    0.185E-04
RMM:  17    -0.413171139345E+03    0.19356E-05   -0.75292E-08  1010   0.589E-04    0.971E-05
RMM:  18    -0.413171136805E+03    0.25402E-05   -0.67505E-08  1052   0.595E-04    0.328E-05
RMM:  19    -0.413171135781E+03    0.10242E-05   -0.34410E-08   850   0.556E-04    0.420E-05
RMM:  20    -0.413171135357E+03    0.42378E-06   -0.16696E-08   716   0.534E-04
   19 T=    62. E= -.41286705E+03 F= -.41317114E+03 E0= -.41314906E+03  EK= 0.30409E+00 SP= 0.00E+00 SK= 0.00E+00
       N       E                     dE             d eps       ncg     rms          rms(c)
RMM:   1    -0.413176839229E+03   -0.57034E-02   -0.74680E+00  4294   0.629E-01    0.905E-01
RMM:   2    -0.413176933069E+03   -0.93840E-04   -0.94685E-02  4243   0.824E-02    0.656E-01
RMM:   3    -0.413173574501E+03    0.33586E-02   -0.30606E-02  5033   0.650E-02    0.203E-01
RMM:   4    -0.413203416593E+03   -0.29842E-01   -0.37795E-02  5106   0.163E-01    0.738E-01
RMM:   5    -0.413171365894E+03    0.32051E-01   -0.14721E-02  4767   0.123E-01    0.523E-02
RMM:   6    -0.413171570344E+03   -0.20445E-03   -0.26798E-03  5702   0.508E-02    0.367E-02
RMM:   7    -0.413171558412E+03    0.11932E-04   -0.46366E-04  5590   0.205E-02    0.236E-02
RMM:   8    -0.413171545756E+03    0.12656E-04   -0.64869E-05  5208   0.932E-03    0.105E-02
RMM:   9    -0.413171541090E+03    0.46659E-05   -0.12587E-05  3846   0.411E-03    0.696E-03
RMM:  10    -0.413171538364E+03    0.27257E-05   -0.22154E-06  2576   0.239E-03    0.413E-03
RMM:  11    -0.413171536580E+03    0.17839E-05   -0.10045E-06  2501   0.163E-03    0.241E-03
RMM:  12    -0.413171532794E+03    0.37858E-05   -0.15050E-06  2535   0.189E-03    0.113E-03
RMM:  13    -0.413171529856E+03    0.29385E-05   -0.68529E-07  2421   0.137E-03    0.931E-04
RMM:  14    -0.413171529663E+03    0.19248E-06   -0.26596E-07  1983   0.902E-04
   20 T=    62. E= -.41286671E+03 F= -.41317153E+03 E0= -.41314950E+03  EK= 0.30481E+00 SP= 0.00E+00 SK= 0.00E+00
       N       E                     dE             d eps       ncg     rms          rms(c)
RMM:   1    -0.413178105092E+03   -0.65752E-02   -0.75468E+00  4295   0.636E-01    0.898E-01
RMM:   2    -0.413178403859E+03   -0.29877E-03   -0.95530E-02  4246   0.825E-02    0.663E-01
RMM:   3    -0.413174382222E+03    0.40216E-02   -0.33047E-02  4979   0.626E-02    0.201E-01
RMM:   4    -0.413202486368E+03   -0.28104E-01   -0.33984E-02  5111   0.155E-01    0.716E-01
RMM:   5    -0.413172469403E+03    0.30017E-01   -0.14154E-02  4778   0.120E-01    0.496E-02
RMM:   6    -0.413172670165E+03   -0.20076E-03   -0.25422E-03  5740   0.490E-02    0.346E-02
RMM:   7    -0.413172665773E+03    0.43923E-05   -0.42331E-04  5588   0.199E-02    0.225E-02
RMM:   8    -0.413172655509E+03    0.10264E-04   -0.62603E-05  5086   0.908E-03    0.105E-02
RMM:   9    -0.413172652341E+03    0.31681E-05   -0.12126E-05  3771   0.405E-03    0.726E-03
RMM:  10    -0.413172652333E+03    0.75888E-08   -0.20979E-06  2569   0.235E-03
   21 T=    62. E= -.41286686E+03 F= -.41317265E+03 E0= -.41315066E+03  EK= 0.30579E+00 SP= 0.00E+00 SK= 0.00E+00
       N       E                     dE             d eps       ncg     rms          rms(c)
RMM:   1    -0.413179113281E+03   -0.64609E-02   -0.75487E+00  4298   0.629E-01    0.915E-01
RMM:   2    -0.413179558151E+03   -0.44487E-03   -0.95082E-02  4338   0.857E-02    0.666E-01
RMM:   3    -0.413182684193E+03   -0.31260E-02   -0.36548E-02  5127   0.101E-01    0.403E-01
RMM:   4    -0.413192367210E+03   -0.96830E-02   -0.36626E-02  5050   0.165E-01    0.567E-01
RMM:   5    -0.413173801676E+03    0.18566E-01   -0.69535E-03  4610   0.948E-02    0.533E-02
RMM:   6    -0.413173834506E+03   -0.32829E-04   -0.14753E-03  5402   0.373E-02    0.323E-02
RMM:   7    -0.413173835963E+03   -0.14572E-05   -0.28193E-04  5666   0.161E-02    0.190E-02
RMM:   8    -0.413173829065E+03    0.68985E-05   -0.45424E-05  5009   0.807E-03    0.728E-03
RMM:   9    -0.413173824755E+03    0.43099E-05   -0.57097E-06  2987   0.311E-03    0.393E-03
RMM:  10    -0.413173822261E+03    0.24935E-05   -0.13914E-06  2507   0.198E-03    0.238E-03
RMM:  11    -0.413173819466E+03    0.27953E-05   -0.87382E-07  2464   0.150E-03    0.120E-03
RMM:  12    -0.413173815665E+03    0.38010E-05   -0.66285E-07  2434   0.127E-03    0.524E-04
RMM:  13    -0.413173813342E+03    0.23225E-05   -0.31770E-07  1982   0.935E-04    0.335E-04
RMM:  14    -0.413173811395E+03    0.19470E-05   -0.17395E-07  1459   0.734E-04    0.218E-04
RMM:  15    -0.413173806687E+03    0.47087E-05   -0.19624E-07  1575   0.750E-04    0.258E-04
RMM:  16    -0.413173802707E+03    0.39802E-05   -0.12132E-07  1128   0.640E-04    0.179E-04
RMM:  17    -0.413173800390E+03    0.23169E-05   -0.74360E-08  1007   0.593E-04    0.900E-05
RMM:  18    -0.413173797302E+03    0.30878E-05   -0.69802E-08  1072   0.602E-04    0.517E-05
RMM:  19    -0.413173796567E+03    0.73445E-06   -0.28315E-08   795   0.548E-04
   22 T=    62. E= -.41286699E+03 F= -.41317380E+03 E0= -.41315185E+03  EK= 0.30681E+00 SP= 0.00E+00 SK= 0.00E+00
       N       E                     dE             d eps       ncg     rms          rms(c)
RMM:   1    -0.413179996079E+03   -0.61988E-02   -0.75141E+00  4296   0.639E-01    0.914E-01
RMM:   2    -0.413180191469E+03   -0.19539E-03   -0.95219E-02  4260   0.832E-02    0.661E-01
RMM:   3    -0.413176267023E+03    0.39244E-02   -0.30680E-02  4957   0.676E-02    0.191E-01
RMM:   4    -0.413206573310E+03   -0.30306E-01   -0.36999E-02  5108   0.161E-01    0.740E-01
RMM:   5    -0.413174317002E+03    0.32256E-01   -0.15017E-02  4774   0.123E-01    0.519E-02
RMM:   6    -0.413174512041E+03   -0.19504E-03   -0.27342E-03  5716   0.512E-02    0.372E-02
RMM:   7    -0.413174500979E+03    0.11061E-04   -0.46765E-04  5576   0.208E-02    0.238E-02
RMM:   8    -0.413174490643E+03    0.10336E-04   -0.66524E-05  5215   0.934E-03    0.109E-02
RMM:   9    -0.413174485248E+03    0.53957E-05   -0.12809E-05  3877   0.409E-03    0.736E-03
RMM:  10    -0.413174481396E+03    0.38514E-05   -0.22565E-06  2580   0.242E-03    0.437E-03
RMM:  11    -0.413174478825E+03    0.25710E-05   -0.10691E-06  2510   0.168E-03    0.255E-03
RMM:  12    -0.413174473524E+03    0.53014E-05   -0.16504E-06  2556   0.197E-03    0.118E-03
RMM:  13    -0.413174469824E+03    0.37001E-05   -0.70347E-07  2418   0.139E-03    0.957E-04
RMM:  14    -0.413174469571E+03    0.25333E-06   -0.27392E-07  2009   0.914E-04
   23 T=    63. E= -.41286673E+03 F= -.41317447E+03 E0= -.41315257E+03  EK= 0.30774E+00 SP= 0.00E+00 SK= 0.00E+00
       N       E                     dE             d eps       ncg     rms          rms(c)
RMM:   1    -0.413181156076E+03   -0.66863E-02   -0.75519E+00  4297   0.639E-01    0.901E-01
RMM:   2    -0.413182240837E+03   -0.10848E-02   -0.95595E-02  4274   0.847E-02    0.664E-01
RMM:   3    -0.413177580128E+03    0.46607E-02   -0.33083E-02  4903   0.686E-02    0.192E-01
RMM:   4    -0.413204852846E+03   -0.27273E-01   -0.31995E-02  5108   0.150E-01    0.703E-01
RMM:   5    -0.413175895386E+03    0.28957E-01   -0.13747E-02  4783   0.118E-01    0.489E-02
RMM:   6    -0.413176082632E+03   -0.18725E-03   -0.25130E-03  5776   0.482E-02    0.338E-02
RMM:   7    -0.413176083341E+03   -0.70895E-06   -0.39755E-04  5605   0.195E-02    0.220E-02
RMM:   8    -0.413176073505E+03    0.98365E-05   -0.64571E-05  5040   0.902E-03    0.109E-02
RMM:   9    -0.413176069691E+03    0.38136E-05   -0.12439E-05  3861   0.409E-03    0.761E-03
RMM:  10    -0.413176068542E+03    0.11493E-05   -0.20885E-06  2559   0.238E-03    0.448E-03
RMM:  11    -0.413176067619E+03    0.92242E-06   -0.12350E-06  2508   0.180E-03
   24 T=    63. E= -.41286704E+03 F= -.41317607E+03 E0= -.41315422E+03  EK= 0.30903E+00 SP= 0.00E+00 SK= 0.00E+00
       N       E                     dE             d eps       ncg     rms          rms(c)
RMM:   1    -0.413182533042E+03   -0.64645E-02   -0.75994E+00  4297   0.642E-01    0.915E-01
RMM:   2    -0.413183121445E+03   -0.58840E-03   -0.96155E-02  4283   0.852E-02    0.670E-01
RMM:   3    -0.413178188777E+03    0.49327E-02   -0.32643E-02  4842   0.642E-02    0.169E-01
RMM:   4    -0.413201947494E+03   -0.23759E-01   -0.26619E-02  5112   0.138E-01    0.655E-01
RMM:   5    -0.413176926200E+03    0.25021E-01   -0.11921E-02  4785   0.109E-01    0.471E-02
RMM:   6    -0.413177073715E+03   -0.14751E-03   -0.21907E-03  5813   0.444E-02    0.309E-02
RMM:   7    -0.413177075998E+03   -0.22829E-05   -0.27363E-04  5696   0.169E-02    0.178E-02
RMM:   8    -0.413177070545E+03    0.54526E-05   -0.58737E-05  4981   0.809E-03    0.108E-02
RMM:   9    -0.413177065507E+03    0.50381E-05   -0.11598E-05  3892   0.401E-03    0.767E-03
RMM:  10    -0.413177063371E+03    0.21368E-05   -0.19867E-06  2564   0.235E-03    0.444E-03
RMM:  11    -0.413177061296E+03    0.20746E-05   -0.14594E-06  2520   0.192E-03    0.242E-03
RMM:  12    -0.413177057655E+03    0.36405E-05   -0.15761E-06  2538   0.192E-03    0.111E-03
RMM:  13    -0.413177055390E+03    0.22658E-05   -0.48093E-07  2318   0.124E-03    0.687E-04
RMM:  14    -0.413177055069E+03    0.32056E-06   -0.21873E-07  1769   0.823E-04
   25 T=    63. E= -.41286685E+03 F= -.41317706E+03 E0= -.41315526E+03  EK= 0.31021E+00 SP= 0.00E+00 SK= 0.00E+00
       N       E                     dE             d eps       ncg     rms          rms(c)
RMM:   1    -0.413184371542E+03   -0.73162E-02   -0.75764E+00  4293   0.657E-01    0.923E-01
RMM:   2    -0.413184113101E+03    0.25844E-03   -0.96992E-02  4278   0.866E-02    0.667E-01
RMM:   3    -0.413179657385E+03    0.44557E-02   -0.30674E-02  4919   0.636E-02    0.164E-01
RMM:   4    -0.413208173149E+03   -0.28516E-01   -0.32643E-02  5112   0.152E-01    0.714E-01
RMM:   5    -0.413178263598E+03    0.29910E-01   -0.14175E-02  4780   0.119E-01    0.505E-02
RMM:   6    -0.413178443269E+03   -0.17967E-03   -0.26161E-03  5774   0.495E-02    0.362E-02
RMM:   7    -0.413178437487E+03    0.57819E-05   -0.43646E-04  5596   0.203E-02    0.234E-02
RMM:   8    -0.413178426252E+03    0.11235E-04   -0.65016E-05  5078   0.933E-03    0.113E-02
RMM:   9    -0.413178419953E+03    0.62990E-05   -0.12796E-05  3833   0.416E-03    0.785E-03
RMM:  10    -0.413178414680E+03    0.52733E-05   -0.23280E-06  2594   0.249E-03    0.454E-03
RMM:  11    -0.413178410838E+03    0.38420E-05   -0.12389E-06  2509   0.181E-03    0.258E-03
RMM:  12    -0.413178403531E+03    0.73065E-05   -0.18705E-06  2581   0.206E-03    0.122E-03
RMM:  13    -0.413178399154E+03    0.43773E-05   -0.64269E-07  2402   0.138E-03    0.896E-04
RMM:  14    -0.413178398826E+03    0.32763E-06   -0.26648E-07  1983   0.896E-04
   26 T=    63. E= -.41286677E+03 F= -.41317840E+03 E0= -.41315665E+03  EK= 0.31163E+00 SP= 0.00E+00 SK= 0.00E+00
       N       E                     dE             d eps       ncg     rms          rms(c)
RMM:   1    -0.413185488459E+03   -0.70893E-02   -0.75794E+00  4294   0.654E-01    0.906E-01
RMM:   2    -0.413186055957E+03   -0.56750E-03   -0.96492E-02  4269   0.904E-02    0.665E-01
RMM:   3    -0.413181448933E+03    0.46070E-02   -0.32430E-02  4912   0.622E-02    0.172E-01
RMM:   4    -0.413206710753E+03   -0.25262E-01   -0.28747E-02  5120   0.143E-01    0.675E-01
RMM:   5    -0.413180117828E+03    0.26593E-01   -0.12699E-02  4783   0.112E-01    0.478E-02
RMM:   6    -0.413180262111E+03   -0.14428E-03   -0.23073E-03  5806   0.461E-02    0.324E-02
RMM:   7    -0.413180264427E+03   -0.23157E-05   -0.34104E-04  5633   0.185E-02    0.204E-02
RMM:   8    -0.413180255882E+03    0.85443E-05   -0.63259E-05  4983   0.881E-03    0.109E-02
RMM:   9    -0.413180250841E+03    0.50411E-05   -0.12215E-05  3868   0.411E-03    0.765E-03
RMM:  10    -0.413180248314E+03    0.25277E-05   -0.20620E-06  2563   0.239E-03    0.442E-03
RMM:  11    -0.413180246173E+03    0.21409E-05   -0.13438E-06  2519   0.185E-03    0.241E-03
RMM:  12    -0.413180242400E+03    0.37727E-05   -0.15887E-06  2532   0.194E-03    0.115E-03
RMM:  13    -0.413180240264E+03    0.21359E-05   -0.52923E-07  2337   0.128E-03    0.735E-04
RMM:  14    -0.413180239680E+03    0.58393E-06   -0.23584E-07  1860   0.849E-04
   27 T=    64. E= -.41286695E+03 F= -.41318024E+03 E0= -.41315854E+03  EK= 0.31329E+00 SP= 0.00E+00 SK= 0.00E+00
       N       E                     dE             d eps       ncg     rms          rms(c)
RMM:   1    -0.413187981211E+03   -0.77409E-02   -0.76854E+00  4293   0.672E-01    0.916E-01
RMM:   2    -0.413187276316E+03    0.70490E-03   -0.98942E-02  4270   0.907E-02    0.675E-01
RMM:   3    -0.413182460193E+03    0.48161E-02   -0.33787E-02  4912   0.618E-02    0.176E-01
RMM:   4    -0.413206764213E+03   -0.24304E-01   -0.27597E-02  5123   0.141E-01    0.663E-01
RMM:   5    -0.413181097217E+03    0.25667E-01   -0.12277E-02  4781   0.111E-01    0.475E-02
RMM:   6    -0.413181254630E+03   -0.15741E-03   -0.22426E-03  5806   0.457E-02    0.326E-02
RMM:   7    -0.413181260780E+03   -0.61494E-05   -0.34603E-04  5598   0.188E-02    0.208E-02
RMM:   8    -0.413181253938E+03    0.68419E-05   -0.61371E-05  4944   0.899E-03    0.108E-02
RMM:   9    -0.413181250245E+03    0.36932E-05   -0.11773E-05  3781   0.412E-03    0.757E-03
RMM:  10    -0.413181248772E+03    0.14725E-05   -0.22517E-06  2592   0.253E-03    0.436E-03
RMM:  11    -0.413181247283E+03    0.14891E-05   -0.14356E-06  2531   0.192E-03    0.231E-03
RMM:  12    -0.413181244700E+03    0.25830E-05   -0.15396E-06  2520   0.196E-03    0.112E-03
RMM:  13    -0.413181243204E+03    0.14966E-05   -0.51772E-07  2329   0.127E-03    0.709E-04
RMM:  14    -0.413181242568E+03    0.63560E-06   -0.23608E-07  1855   0.848E-04
   28 T=    64. E= -.41286648E+03 F= -.41318124E+03 E0= -.41315959E+03  EK= 0.31476E+00 SP= 0.00E+00 SK= 0.00E+00
       N       E                     dE             d eps       ncg     rms          rms(c)
RMM:   1    -0.413190079846E+03   -0.88366E-02   -0.76630E+00  4292   0.686E-01    0.932E-01
RMM:   2    -0.413189373948E+03    0.70590E-03   -0.98962E-02  4273   0.947E-02    0.673E-01
RMM:   3    -0.413184268638E+03    0.51053E-02   -0.31280E-02  4837   0.624E-02    0.146E-01
RMM:   4    -0.413208286744E+03   -0.24018E-01   -0.26198E-02  5124   0.137E-01    0.655E-01
RMM:   5    -0.413183237210E+03    0.25050E-01   -0.12097E-02  4785   0.109E-01    0.481E-02
RMM:   6    -0.413183375819E+03   -0.13861E-03   -0.22029E-03  5825   0.452E-02    0.336E-02
RMM:   7    -0.413183370298E+03    0.55212E-05   -0.33368E-04  5588   0.187E-02    0.206E-02
RMM:   8    -0.413183359562E+03    0.10736E-04   -0.60972E-05  4976   0.883E-03    0.111E-02
RMM:   9    -0.413183353217E+03    0.63453E-05   -0.11599E-05  3791   0.404E-03    0.775E-03
RMM:  10    -0.413183348242E+03    0.49744E-05   -0.21966E-06  2582   0.247E-03    0.442E-03
RMM:  11    -0.413183343641E+03    0.46009E-05   -0.14773E-06  2531   0.194E-03    0.233E-03
RMM:  12    -0.413183336840E+03    0.68012E-05   -0.16198E-06  2546   0.197E-03    0.119E-03
RMM:  13    -0.413183334068E+03    0.27727E-05   -0.53571E-07  2354   0.128E-03    0.740E-04
RMM:  14    -0.413183332989E+03    0.10784E-05   -0.24471E-07  1893   0.857E-04    0.505E-04
RMM:  15    -0.413183328547E+03    0.44422E-05   -0.19341E-07  1888   0.803E-04    0.338E-04
RMM:  16    -0.413183324231E+03    0.43162E-05   -0.14008E-07  1603   0.704E-04    0.411E-04
RMM:  17    -0.413183322064E+03    0.21664E-05   -0.53651E-08   929   0.565E-04    0.330E-04
RMM:  18    -0.413183317524E+03    0.45399E-05   -0.69612E-08  1048   0.600E-04    0.713E-05
RMM:  19    -0.413183315072E+03    0.24520E-05   -0.46597E-08  1039   0.593E-04    0.137E-04
RMM:  20    -0.413183314928E+03    0.14480E-06   -0.14303E-08   699   0.530E-04
   29 T=    64. E= -.41286671E+03 F= -.41318331E+03 E0= -.41316172E+03  EK= 0.31660E+00 SP= 0.00E+00 SK= 0.00E+00
       N       E                     dE             d eps       ncg     rms          rms(c)
RMM:   1    -0.413190854240E+03   -0.75392E-02   -0.76330E+00  4294   0.679E-01    0.915E-01
RMM:   2    -0.413191508368E+03   -0.65413E-03   -0.98009E-02  4270   0.983E-02    0.669E-01
RMM:   3    -0.413186380785E+03    0.51276E-02   -0.32651E-02  4833   0.687E-02    0.167E-01
RMM:   4    -0.413212047032E+03   -0.25666E-01   -0.28644E-02  5120   0.143E-01    0.679E-01
RMM:   5    -0.413185060915E+03    0.26986E-01   -0.12984E-02  4786   0.113E-01    0.482E-02
RMM:   6    -0.413185219863E+03   -0.15895E-03   -0.23347E-03  5823   0.461E-02    0.333E-02
RMM:   7    -0.413185222844E+03   -0.29813E-05   -0.33999E-04  5614   0.185E-02    0.205E-02
RMM:   8    -0.413185215076E+03    0.77677E-05   -0.63460E-05  5017   0.873E-03    0.111E-02
RMM:   9    -0.413185209697E+03    0.53790E-05   -0.11872E-05  3841   0.408E-03    0.768E-03
RMM:  10    -0.413185207210E+03    0.24874E-05   -0.21106E-06  2569   0.240E-03    0.444E-03
RMM:  11    -0.413185205038E+03    0.21720E-05   -0.13834E-06  2517   0.189E-03    0.237E-03
RMM:  12    -0.413185201513E+03    0.35244E-05   -0.16417E-06  2546   0.195E-03    0.120E-03
RMM:  13    -0.413185199799E+03    0.17143E-05   -0.52598E-07  2357   0.128E-03    0.748E-04
RMM:  14    -0.413185199124E+03    0.67471E-06   -0.23457E-07  1885   0.850E-04
   30 T=    65. E= -.41286676E+03 F= -.41318520E+03 E0= -.41316365E+03  EK= 0.31844E+00 SP= 0.00E+00 SK= 0.00E+00
       N       E                     dE             d eps       ncg     rms          rms(c)
RMM:   1    -0.413194805926E+03   -0.96061E-02   -0.77714E+00  4296   0.702E-01    0.921E-01
RMM:   2    -0.413193524812E+03    0.12811E-02   -0.99596E-02  4265   0.101E-01    0.680E-01
RMM:   3    -0.413187953816E+03    0.55710E-02   -0.35299E-02  4753   0.713E-02    0.175E-01
RMM:   4    -0.413208450135E+03   -0.20496E-01   -0.22669E-02  5131   0.128E-01    0.612E-01
RMM:   5    -0.413186720499E+03    0.21730E-01   -0.10582E-02  4794   0.102E-01    0.457E-02
RMM:   6    -0.413186855822E+03   -0.13532E-03   -0.18934E-03  5848   0.411E-02    0.303E-02
RMM:   7    -0.413186860598E+03   -0.47762E-05   -0.23989E-04  5586   0.163E-02    0.167E-02
RMM:   8    -0.413186857362E+03    0.32364E-05   -0.48505E-05  4947   0.749E-03    0.101E-02
RMM:   9    -0.413186853274E+03    0.40878E-05   -0.99555E-06  3685   0.371E-03    0.712E-03
RMM:  10    -0.413186852260E+03    0.10142E-05   -0.18534E-06  2540   0.229E-03    0.405E-03
RMM:  11    -0.413186850883E+03    0.13770E-05   -0.14749E-06  2524   0.192E-03    0.206E-03
RMM:  12    -0.413186848618E+03    0.22644E-05   -0.13010E-06  2497   0.179E-03    0.111E-03
RMM:  13    -0.413186847385E+03    0.12333E-05   -0.43534E-07  2277   0.116E-03    0.669E-04
RMM:  14    -0.413186846666E+03    0.71938E-06   -0.19703E-07  1726   0.795E-04
   31 T=    65. E= -.41286664E+03 F= -.41318685E+03 E0= -.41316535E+03  EK= 0.32021E+00 SP= 0.00E+00 SK= 0.00E+00
       N       E                     dE             d eps       ncg     rms          rms(c)
RMM:   1    -0.413196986041E+03   -0.10139E-01   -0.77474E+00  4300   0.721E-01    0.939E-01
RMM:   2    -0.413195808073E+03    0.11780E-02   -0.10053E-01  4267   0.104E-01    0.680E-01
RMM:   3    -0.413190259744E+03    0.55483E-02   -0.32584E-02  4694   0.708E-02    0.139E-01
RMM:   4    -0.413209446737E+03   -0.19187E-01   -0.20454E-02  5129   0.121E-01    0.589E-01
RMM:   5    -0.413189360922E+03    0.20086E-01   -0.98683E-03  4804   0.973E-02    0.460E-02
RMM:   6    -0.413189485791E+03   -0.12487E-03   -0.17852E-03  5843   0.398E-02    0.311E-02
RMM:   7    -0.413189487869E+03   -0.20783E-05   -0.21302E-04  5530   0.159E-02    0.156E-02
RMM:   8    -0.413189482358E+03    0.55107E-05   -0.35617E-05  4747   0.642E-03    0.944E-03
RMM:   9    -0.413189477617E+03    0.47414E-05   -0.87998E-06  3493   0.337E-03    0.693E-03
RMM:  10    -0.413189473623E+03    0.39935E-05   -0.18396E-06  2550   0.232E-03    0.396E-03
RMM:  11    -0.413189468719E+03    0.49044E-05   -0.16192E-06  2540   0.199E-03    0.202E-03
RMM:  12    -0.413189462212E+03    0.65068E-05   -0.12999E-06  2493   0.182E-03    0.116E-03
RMM:  13    -0.413189460013E+03    0.21995E-05   -0.43207E-07  2301   0.117E-03    0.698E-04
RMM:  14    -0.413189458949E+03    0.10636E-05   -0.19487E-07  1746   0.790E-04    0.514E-04
RMM:  15    -0.413189453247E+03    0.57015E-05   -0.22881E-07  2197   0.857E-04    0.596E-04
RMM:  16    -0.413189448623E+03    0.46240E-05   -0.12401E-07  1492   0.682E-04    0.553E-04
RMM:  17    -0.413189447326E+03    0.12976E-05   -0.34148E-08   834   0.525E-04    0.450E-04
RMM:  18    -0.413189443156E+03    0.41702E-05   -0.56333E-08  1002   0.587E-04    0.154E-04
RMM:  19    -0.413189440058E+03    0.30975E-05   -0.45116E-08  1097   0.604E-04    0.123E-04
RMM:  20    -0.413189439600E+03    0.45781E-06   -0.25309E-08   928   0.554E-04
   32 T=    66. E= -.41286709E+03 F= -.41318944E+03 E0= -.41316799E+03  EK= 0.32235E+00 SP= 0.00E+00 SK= 0.00E+00
       N       E                     dE             d eps       ncg     rms          rms(c)
RMM:   1    -0.413198413292E+03   -0.89732E-02   -0.77175E+00  4299   0.731E-01    0.927E-01
RMM:   2    -0.413197496608E+03    0.91668E-03   -0.10128E-01  4263   0.106E-01    0.676E-01
RMM:   3    -0.413192039384E+03    0.54572E-02   -0.32778E-02  4671   0.731E-02    0.140E-01
RMM:   4    -0.413209952608E+03   -0.17913E-01   -0.19047E-02  5128   0.117E-01    0.570E-01
RMM:   5    -0.413191171913E+03    0.18781E-01   -0.93066E-03  4807   0.941E-02    0.451E-02
RMM:   6    -0.413191283501E+03   -0.11159E-03   -0.16369E-03  5823   0.380E-02    0.298E-02
RMM:   7    -0.413191289356E+03   -0.58551E-05   -0.18570E-04  5481   0.148E-02    0.145E-02
RMM:   8    -0.413191282146E+03    0.72104E-05   -0.27318E-05  4491   0.562E-03    0.834E-03
RMM:   9    -0.413191281246E+03    0.90014E-06   -0.86302E-06  3565   0.333E-03
   33 T=    66. E= -.41286692E+03 F= -.41319128E+03 E0= -.41316988E+03  EK= 0.32436E+00 SP= 0.00E+00 SK= 0.00E+00
       N       E                     dE             d eps       ncg     rms          rms(c)
RMM:   1    -0.413201388559E+03   -0.10106E-01   -0.78362E+00  4304   0.737E-01    0.926E-01
RMM:   2    -0.413200170494E+03    0.12181E-02   -0.10265E-01  4300   0.111E-01    0.685E-01
RMM:   3    -0.413201193931E+03   -0.10234E-02   -0.40020E-02  5043   0.115E-01    0.377E-01
RMM:   4    -0.413217607324E+03   -0.16413E-01   -0.39315E-02  5036   0.171E-01    0.645E-01
RMM:   5    -0.413193521968E+03    0.24085E-01   -0.97227E-03  4664   0.107E-01    0.528E-02
RMM:   6    -0.413193619562E+03   -0.97593E-04   -0.19855E-03  5671   0.421E-02    0.339E-02
RMM:   7    -0.413193625078E+03   -0.55162E-05   -0.35684E-04  5523   0.181E-02    0.215E-02
RMM:   8    -0.413193622428E+03    0.26502E-05   -0.57270E-05  5050   0.912E-03    0.875E-03
RMM:   9    -0.413193618469E+03    0.39587E-05   -0.87378E-06  3352   0.376E-03    0.467E-03
RMM:  10    -0.413193616268E+03    0.22009E-05   -0.18377E-06  2553   0.223E-03    0.287E-03
RMM:  11    -0.413193613609E+03    0.26588E-05   -0.10054E-06  2493   0.163E-03    0.148E-03
RMM:  12    -0.413193609312E+03    0.42972E-05   -0.88871E-07  2466   0.146E-03    0.619E-04
RMM:  13    -0.413193606897E+03    0.24148E-05   -0.40893E-07  2180   0.106E-03    0.438E-04
RMM:  14    -0.413193605142E+03    0.17549E-05   -0.20747E-07  1654   0.787E-04    0.304E-04
RMM:  15    -0.413193599218E+03    0.59242E-05   -0.21802E-07  1726   0.787E-04    0.353E-04
RMM:  16    -0.413193595226E+03    0.39925E-05   -0.10608E-07  1080   0.624E-04    0.242E-04
RMM:  17    -0.413193591453E+03    0.37721E-05   -0.87392E-08  1067   0.615E-04    0.154E-04
RMM:  18    -0.413193588736E+03    0.27173E-05   -0.60524E-08  1049   0.600E-04    0.466E-05
RMM:  19    -0.413193586620E+03    0.21165E-05   -0.41183E-08   976   0.584E-04    0.739E-05
RMM:  20    -0.413193586447E+03    0.17226E-06   -0.17421E-08   705   0.541E-04
   34 T=    67. E= -.41286688E+03 F= -.41319359E+03 E0= -.41317223E+03  EK= 0.32671E+00 SP= 0.00E+00 SK= 0.00E+00
       N       E                     dE             d eps       ncg     rms          rms(c)
RMM:   1    -0.413202990660E+03   -0.94040E-02   -0.78367E+00  4303   0.741E-01    0.945E-01
RMM:   2    -0.413202297750E+03    0.69291E-03   -0.10334E-01  4256   0.117E-01    0.688E-01
RMM:   3    -0.413196735622E+03    0.55621E-02   -0.34043E-02  4413   0.806E-02    0.123E-01
RMM:   4    -0.413200541534E+03   -0.38059E-02   -0.44594E-03  5141   0.590E-02    0.278E-01
RMM:   5    -0.413196232945E+03    0.43086E-02   -0.21894E-03  4811   0.457E-02    0.408E-02
RMM:   6    -0.413196297703E+03   -0.64758E-04   -0.70180E-04  5611   0.253E-02    0.323E-02
RMM:   7    -0.413196273695E+03    0.24008E-04   -0.23544E-04  5123   0.165E-02    0.186E-02
RMM:   8    -0.413196264347E+03    0.93475E-05   -0.26779E-05  4617   0.599E-03    0.717E-03
RMM:   9    -0.413196262658E+03    0.16898E-05   -0.32431E-06  2681   0.239E-03    0.429E-03
RMM:  10    -0.413196259497E+03    0.31604E-05   -0.11612E-06  2487   0.180E-03    0.221E-03
RMM:  11    -0.413196256099E+03    0.33984E-05   -0.74028E-07  2430   0.140E-03    0.995E-04
RMM:  12    -0.413196252999E+03    0.30995E-05   -0.38505E-07  2163   0.103E-03    0.472E-04
RMM:  13    -0.413196250411E+03    0.25888E-05   -0.20564E-07  1651   0.791E-04    0.265E-04
RMM:  14    -0.413196247113E+03    0.32980E-05   -0.10651E-07  1152   0.664E-04    0.187E-04
RMM:  15    -0.413196242724E+03    0.43891E-05   -0.83267E-08  1070   0.639E-04    0.937E-05
RMM:  16    -0.413196239290E+03    0.34335E-05   -0.57386E-08  1010   0.616E-04    0.911E-05
RMM:  17    -0.413196235628E+03    0.36621E-05   -0.53387E-08  1104   0.606E-04    0.580E-05
RMM:  18    -0.413196233055E+03    0.25728E-05   -0.31834E-08   910   0.563E-04    0.373E-05
RMM:  19    -0.413196232337E+03    0.71767E-06   -0.15550E-08   701   0.526E-04
   35 T=    67. E= -.41286693E+03 F= -.41319623E+03 E0= -.41317492E+03  EK= 0.32930E+00 SP= 0.00E+00 SK= 0.00E+00
       N       E                     dE             d eps       ncg     rms          rms(c)
RMM:   1    -0.413209495055E+03   -0.13262E-01   -0.78646E+00  4303   0.805E-01    0.943E-01
RMM:   2    -0.413204138281E+03    0.53568E-02   -0.10892E-01  4251   0.127E-01    0.685E-01
RMM:   3    -0.413198617009E+03    0.55213E-02   -0.32420E-02  4308   0.810E-02    0.100E-01
RMM:   4    -0.413198513633E+03    0.10338E-03   -0.51340E-04  4965   0.216E-02    0.730E-02
RMM:   5    -0.413198325090E+03    0.18854E-03   -0.20790E-04  4795   0.140E-02    0.459E-02
RMM:   6    -0.413198363730E+03   -0.38640E-04   -0.46895E-04  5228   0.210E-02    0.343E-02
RMM:   7    -0.413198321924E+03    0.41806E-04   -0.18429E-04  4775   0.155E-02    0.194E-02
RMM:   8    -0.413198314829E+03    0.70956E-05   -0.34999E-05  4709   0.580E-03    0.648E-03
RMM:   9    -0.413198313306E+03    0.15230E-05   -0.77164E-06  2529   0.242E-03    0.247E-03
RMM:  10    -0.413198307030E+03    0.62755E-05   -0.11119E-06  2384   0.164E-03    0.101E-03
RMM:  11    -0.413198303856E+03    0.31737E-05   -0.28148E-07  1818   0.874E-04    0.562E-04
RMM:  12    -0.413198299514E+03    0.43427E-05   -0.15201E-07  1298   0.718E-04    0.383E-04
RMM:  13    -0.413198294975E+03    0.45387E-05   -0.11421E-07  1194   0.668E-04    0.209E-04
RMM:  14    -0.413198287808E+03    0.71670E-05   -0.12784E-07  1156   0.667E-04    0.212E-04
RMM:  15    -0.413198285273E+03    0.25353E-05   -0.33898E-08   733   0.564E-04    0.171E-04
RMM:  16    -0.413198280539E+03    0.47342E-05   -0.43271E-08   950   0.597E-04    0.689E-05
RMM:  17    -0.413198278759E+03    0.17797E-05   -0.20269E-08   726   0.538E-04    0.533E-05
RMM:  18    -0.413198278085E+03    0.67419E-06   -0.93968E-09   573   0.512E-04
   36 T=    68. E= -.41286646E+03 F= -.41319828E+03 E0= -.41317702E+03  EK= 0.33181E+00 SP= 0.00E+00 SK= 0.00E+00
       N       E                     dE             d eps       ncg     rms          rms(c)
RMM:   1    -0.413209110543E+03   -0.10832E-01   -0.79216E+00  4310   0.791E-01    0.934E-01
RMM:   2    -0.413207727493E+03    0.13831E-02   -0.10689E-01  4248   0.126E-01    0.690E-01
RMM:   3    -0.413201904216E+03    0.58233E-02   -0.36140E-02  4379   0.849E-02    0.140E-01
RMM:   4    -0.413204106257E+03   -0.22020E-02   -0.32730E-03  5140   0.511E-02    0.227E-01
RMM:   5    -0.413201312479E+03    0.27938E-02   -0.14219E-03  4795   0.376E-02    0.405E-02
RMM:   6    -0.413201358745E+03   -0.46266E-04   -0.58063E-04  5480   0.241E-02    0.327E-02
RMM:   7    -0.413201344318E+03    0.14427E-04   -0.22428E-04  5018   0.164E-02    0.190E-02
RMM:   8    -0.413201337113E+03    0.72055E-05   -0.30990E-05  4860   0.616E-03    0.741E-03
RMM:   9    -0.413201336767E+03    0.34545E-06   -0.46308E-06  2681   0.245E-03
   37 T=    68. E= -.41286665E+03 F= -.41320134E+03 E0= -.41318012E+03  EK= 0.33469E+00 SP= 0.00E+00 SK= 0.00E+00
       N       E                     dE             d eps       ncg     rms          rms(c)
RMM:   1    -0.413211835524E+03   -0.10498E-01   -0.79764E+00  4308   0.822E-01    0.952E-01
RMM:   2    -0.413210702282E+03    0.11332E-02   -0.10922E-01  4256   0.123E-01    0.698E-01
RMM:   3    -0.413204837826E+03    0.58645E-02   -0.35548E-02  4679   0.816E-02    0.150E-01
RMM:   4    -0.413224481545E+03   -0.19644E-01   -0.21176E-02  5132   0.124E-01    0.599E-01
RMM:   5    -0.413203910489E+03    0.20571E-01   -0.10175E-02  4801   0.990E-02    0.471E-02
RMM:   6    -0.413203955034E+03   -0.44545E-04   -0.18128E-03  5776   0.411E-02    0.332E-02
RMM:   7    -0.413203968386E+03   -0.13352E-04   -0.35979E-04  5477   0.189E-02    0.217E-02
RMM:   8    -0.413203951735E+03    0.16651E-04   -0.54199E-05  5101   0.842E-03    0.102E-02
RMM:   9    -0.413203950106E+03    0.16288E-05   -0.10095E-05  3507   0.387E-03    0.621E-03
RMM:  10    -0.413203946259E+03    0.38475E-05   -0.20973E-06  2588   0.240E-03    0.335E-03
RMM:  11    -0.413203942387E+03    0.38717E-05   -0.11577E-06  2501   0.174E-03    0.179E-03
RMM:  12    -0.413203936471E+03    0.59166E-05   -0.10790E-06  2485   0.164E-03    0.999E-04
RMM:  13    -0.413203933222E+03    0.32488E-05   -0.41377E-07  2215   0.111E-03    0.546E-04
RMM:  14    -0.413203931516E+03    0.17058E-05   -0.20020E-07  1674   0.791E-04    0.353E-04
RMM:  15    -0.413203925144E+03    0.63721E-05   -0.16979E-07  1616   0.760E-04    0.238E-04
RMM:  16    -0.413203920876E+03    0.42680E-05   -0.95699E-08  1207   0.650E-04    0.216E-04
RMM:  17    -0.413203915833E+03    0.50427E-05   -0.75119E-08  1158   0.624E-04    0.181E-04
RMM:  18    -0.413203911075E+03    0.47586E-05   -0.61702E-08  1149   0.611E-04    0.565E-05
RMM:  19    -0.413203909792E+03    0.12827E-05   -0.28595E-08   848   0.552E-04    0.401E-05
RMM:  20    -0.413203908962E+03    0.83003E-06   -0.20410E-08   806   0.536E-04
   38 T=    69. E= -.41286651E+03 F= -.41320391E+03 E0= -.41318273E+03  EK= 0.33740E+00 SP= 0.00E+00 SK= 0.00E+00
       N       E                     dE             d eps       ncg     rms          rms(c)
RMM:   1    -0.413220512670E+03   -0.16603E-01   -0.80199E+00  4306   0.901E-01    0.960E-01
RMM:   2    -0.413213339889E+03    0.71728E-02   -0.11602E-01  4246   0.120E-01    0.695E-01
RMM:   3    -0.413207363878E+03    0.59760E-02   -0.32489E-02  4762   0.727E-02    0.131E-01
RMM:   4    -0.413232911454E+03   -0.25548E-01   -0.27304E-02  5132   0.139E-01    0.675E-01
RMM:   5    -0.413206499327E+03    0.26412E-01   -0.12983E-02  4801   0.111E-01    0.498E-02
RMM:   6    -0.413206569117E+03   -0.69790E-04   -0.22980E-03  5810   0.453E-02    0.340E-02
RMM:   7    -0.413206585998E+03   -0.16881E-04   -0.34103E-04  5580   0.182E-02    0.205E-02
RMM:   8    -0.413206573174E+03    0.12824E-04   -0.59655E-05  5057   0.828E-03    0.111E-02
RMM:   9    -0.413206571233E+03    0.19417E-05   -0.14270E-05  4117   0.446E-03    0.743E-03
RMM:  10    -0.413206566435E+03    0.47980E-05   -0.24144E-06  2631   0.256E-03    0.400E-03
RMM:  11    -0.413206563445E+03    0.29894E-05   -0.11023E-06  2495   0.175E-03    0.240E-03
RMM:  12    -0.413206556549E+03    0.68961E-05   -0.16018E-06  2529   0.200E-03    0.134E-03
RMM:  13    -0.413206552816E+03    0.37333E-05   -0.57573E-07  2371   0.134E-03    0.810E-04
RMM:  14    -0.413206551918E+03    0.89753E-06   -0.24638E-07  1969   0.883E-04
   39 T=    69. E= -.41286647E+03 F= -.41320655E+03 E0= -.41318541E+03  EK= 0.34008E+00 SP= 0.00E+00 SK= 0.00E+00
       N       E                     dE             d eps       ncg     rms          rms(c)
RMM:   1    -0.413219818575E+03   -0.13266E-01   -0.80246E+00  4311   0.911E-01    0.943E-01
RMM:   2    -0.413216879548E+03    0.29390E-02   -0.11573E-01  4251   0.123E-01    0.697E-01
RMM:   3    -0.413210968344E+03    0.59112E-02   -0.35087E-02  4813   0.793E-02    0.166E-01
RMM:   4    -0.413240921686E+03   -0.29953E-01   -0.33198E-02  5124   0.154E-01    0.732E-01
RMM:   5    -0.413209644540E+03    0.31277E-01   -0.15112E-02  4788   0.121E-01    0.509E-02
RMM:   6    -0.413209726425E+03   -0.81885E-04   -0.26466E-03  5805   0.484E-02    0.335E-02
RMM:   7    -0.413209745578E+03   -0.19154E-04   -0.34928E-04  5647   0.181E-02    0.195E-02
RMM:   8    -0.413209738039E+03    0.75394E-05   -0.60345E-05  5044   0.812E-03    0.109E-02
RMM:   9    -0.413209737304E+03    0.73449E-06   -0.17797E-05  4379   0.473E-03    0.749E-03
RMM:  10    -0.413209733210E+03    0.40942E-05   -0.25978E-06  2644   0.263E-03    0.409E-03
RMM:  11    -0.413209730983E+03    0.22272E-05   -0.12532E-06  2505   0.182E-03    0.245E-03
RMM:  12    -0.413209725389E+03    0.55946E-05   -0.17449E-06  2535   0.205E-03    0.132E-03
RMM:  13    -0.413209722075E+03    0.33132E-05   -0.64172E-07  2383   0.139E-03    0.856E-04
RMM:  14    -0.413209721241E+03    0.83466E-06   -0.25937E-07  2001   0.903E-04
   40 T=    70. E= -.41286684E+03 F= -.41320972E+03 E0= -.41318862E+03  EK= 0.34288E+00 SP= 0.00E+00 SK= 0.00E+00
       N       E                     dE             d eps       ncg     rms          rms(c)
RMM:   1    -0.413222655034E+03   -0.12933E-01   -0.81216E+00  4313   0.922E-01    0.958E-01
RMM:   2    -0.413219178282E+03    0.34768E-02   -0.11363E-01  4251   0.123E-01    0.706E-01
RMM:   3    -0.413213592348E+03    0.55859E-02   -0.37320E-02  4880   0.816E-02    0.192E-01
RMM:   4    -0.413246732728E+03   -0.33140E-01   -0.38437E-02  5124   0.165E-01    0.772E-01
RMM:   5    -0.413211798113E+03    0.34935E-01   -0.16682E-02  4793   0.128E-01    0.529E-02
RMM:   6    -0.413211891699E+03   -0.93587E-04   -0.28822E-03  5807   0.504E-02    0.336E-02
RMM:   7    -0.413211912970E+03   -0.21270E-04   -0.35984E-04  5652   0.181E-02    0.190E-02
RMM:   8    -0.413211907018E+03    0.59513E-05   -0.55036E-05  4967   0.770E-03    0.102E-02
RMM:   9    -0.413211907848E+03   -0.82991E-06   -0.20322E-05  4493   0.480E-03    0.756E-03
RMM:  10    -0.413211903327E+03    0.45208E-05   -0.30688E-06  2692   0.278E-03    0.409E-03
RMM:  11    -0.413211901197E+03    0.21307E-05   -0.13811E-06  2502   0.190E-03    0.248E-03
RMM:  12    -0.413211895541E+03    0.56561E-05   -0.18209E-06  2544   0.210E-03    0.131E-03
RMM:  13    -0.413211892180E+03    0.33604E-05   -0.65325E-07  2408   0.141E-03    0.852E-04
RMM:  14    -0.413211891387E+03    0.79292E-06   -0.25907E-07  1981   0.907E-04
   41 T=    70. E= -.41286668E+03 F= -.41321189E+03 E0= -.41319082E+03  EK= 0.34521E+00 SP= 0.00E+00 SK= 0.00E+00
       N       E                     dE             d eps       ncg     rms          rms(c)
RMM:   1    -0.413231925604E+03   -0.20033E-01   -0.81509E+00  4313   0.103E+00    0.975E-01
RMM:   2    -0.413221441563E+03    0.10484E-01   -0.11910E-01  4290   0.129E-01    0.705E-01
RMM:   3    -0.413216714685E+03    0.47269E-02   -0.34458E-02  4985   0.813E-02    0.205E-01
RMM:   4    -0.413254672384E+03   -0.37958E-01   -0.46850E-02  5113   0.182E-01    0.826E-01
RMM:   5    -0.413214350826E+03    0.40322E-01   -0.18646E-02  4780   0.137E-01    0.564E-02
RMM:   6    -0.413214468246E+03   -0.11742E-03   -0.33144E-03  5803   0.538E-02    0.357E-02
RMM:   7    -0.413214481932E+03   -0.13686E-04   -0.39630E-04  5686   0.190E-02    0.201E-02
RMM:   8    -0.413214482771E+03   -0.83836E-06   -0.69706E-05  5117   0.847E-03    0.118E-02
RMM:   9    -0.413214474796E+03    0.79744E-05   -0.20913E-05  4492   0.499E-03    0.736E-03
RMM:  10    -0.413214469966E+03    0.48302E-05   -0.37672E-06  2764   0.292E-03    0.420E-03
RMM:  11    -0.413214466313E+03    0.36527E-05   -0.13799E-06  2497   0.198E-03    0.256E-03
RMM:  12    -0.413214457549E+03    0.87646E-05   -0.14568E-06  2503   0.198E-03    0.115E-03
RMM:  13    -0.413214451525E+03    0.60234E-05   -0.64034E-07  2428   0.139E-03    0.770E-04
RMM:  14    -0.413214450459E+03    0.10659E-05   -0.27491E-07  2064   0.929E-04    0.491E-04
RMM:  15    -0.413214447988E+03    0.24711E-05   -0.12904E-07  1409   0.706E-04    0.329E-04
RMM:  16    -0.413214439930E+03    0.80582E-05   -0.15246E-07  1887   0.770E-04    0.505E-04
RMM:  17    -0.413214438003E+03    0.19270E-05   -0.49367E-08   953   0.562E-04    0.398E-04
RMM:  18    -0.413214430805E+03    0.71980E-05   -0.65364E-08  1186   0.615E-04    0.284E-04
RMM:  19    -0.413214429527E+03    0.12777E-05   -0.30403E-08   870   0.545E-04    0.109E-04
RMM:  20    -0.413214427602E+03    0.19249E-05   -0.35722E-08  1057   0.581E-04    0.137E-04
RMM:  21    -0.413214427170E+03    0.43265E-06   -0.15920E-08   770   0.528E-04
   42 T=    71. E= -.41286691E+03 F= -.41321443E+03 E0= -.41319339E+03  EK= 0.34751E+00 SP= 0.00E+00 SK= 0.00E+00
       N       E                     dE             d eps       ncg     rms          rms(c)
RMM:   1    -0.413233542306E+03   -0.19115E-01   -0.81257E+00  4315   0.109E+00    0.952E-01
RMM:   2    -0.413223874669E+03    0.96676E-02   -0.12737E-01  4333   0.132E-01    0.704E-01
RMM:   3    -0.413220084162E+03    0.37905E-02   -0.34476E-02  5031   0.892E-02    0.253E-01
RMM:   4    -0.413258041844E+03   -0.37958E-01   -0.52041E-02  5103   0.193E-01    0.837E-01
RMM:   5    -0.413216456615E+03    0.41585E-01   -0.18514E-02  4762   0.138E-01    0.579E-02
RMM:   6    -0.413216566061E+03   -0.10945E-03   -0.33444E-03  5779   0.542E-02    0.356E-02
RMM:   7    -0.413216581037E+03   -0.14977E-04   -0.43422E-04  5697   0.199E-02    0.223E-02
RMM:   8    -0.413216584244E+03   -0.32072E-05   -0.10810E-04  5209   0.107E-02    0.135E-02
RMM:   9    -0.413216575212E+03    0.90326E-05   -0.19334E-05  4397   0.543E-03    0.641E-03
RMM:  10    -0.413216572844E+03    0.23677E-05   -0.40157E-06  2808   0.280E-03    0.382E-03
RMM:  11    -0.413216570803E+03    0.20409E-05   -0.12793E-06  2502   0.189E-03    0.221E-03
RMM:  12    -0.413216566065E+03    0.47385E-05   -0.12664E-06  2503   0.181E-03    0.102E-03
RMM:  13    -0.413216562330E+03    0.37348E-05   -0.58121E-07  2378   0.129E-03    0.604E-04
RMM:  14    -0.413216561318E+03    0.10121E-05   -0.26587E-07  1933   0.890E-04    0.378E-04
RMM:  15    -0.413216558833E+03    0.24846E-05   -0.14403E-07  1404   0.719E-04    0.189E-04
RMM:  16    -0.413216554315E+03    0.45182E-05   -0.11703E-07  1367   0.696E-04    0.212E-04
RMM:  17    -0.413216551880E+03    0.24353E-05   -0.63386E-08  1000   0.612E-04    0.138E-04
RMM:  18    -0.413216547709E+03    0.41708E-05   -0.68396E-08  1233   0.636E-04    0.124E-04
RMM:  19    -0.413216545674E+03    0.20347E-05   -0.39608E-08   980   0.575E-04    0.420E-05
RMM:  20    -0.413216544721E+03    0.95353E-06   -0.23214E-08   806   0.547E-04
   43 T=    71. E= -.41286706E+03 F= -.41321654E+03 E0= -.41319553E+03  EK= 0.34948E+00 SP= 0.00E+00 SK= 0.00E+00
       N       E                     dE             d eps       ncg     rms          rms(c)
RMM:   1    -0.413229609444E+03   -0.13064E-01   -0.81666E+00  4315   0.107E+00    0.960E-01
RMM:   2    -0.413225299465E+03    0.43100E-02   -0.12129E-01  4352   0.136E-01    0.713E-01
RMM:   3    -0.413222035766E+03    0.32637E-02   -0.39088E-02  5027   0.959E-02    0.286E-01
RMM:   4    -0.413255987475E+03   -0.33952E-01   -0.50065E-02  5098   0.191E-01    0.807E-01
RMM:   5    -0.413217550762E+03    0.38437E-01   -0.16842E-02  4751   0.134E-01    0.565E-02
RMM:   6    -0.413217635417E+03   -0.84655E-04   -0.30181E-03  5777   0.517E-02    0.336E-02
RMM:   7    -0.413217651919E+03   -0.16502E-04   -0.38396E-04  5696   0.189E-02    0.207E-02
RMM:   8    -0.413217657511E+03   -0.55923E-05   -0.10194E-04  5181   0.103E-02    0.127E-02
RMM:   9    -0.413217649115E+03    0.83961E-05   -0.18724E-05  4392   0.536E-03    0.593E-03
RMM:  10    -0.413217647835E+03    0.12802E-05   -0.37287E-06  2777   0.274E-03    0.356E-03
RMM:  11    -0.413217646496E+03    0.13387E-05   -0.12397E-06  2499   0.185E-03    0.203E-03
RMM:  12    -0.413217643053E+03    0.34427E-05   -0.12127E-06  2509   0.173E-03    0.947E-04
RMM:  13    -0.413217640135E+03    0.29181E-05   -0.53591E-07  2333   0.121E-03    0.528E-04
RMM:  14    -0.413217639031E+03    0.11044E-05   -0.24120E-07  1817   0.840E-04    0.323E-04
RMM:  15    -0.413217636220E+03    0.28111E-05   -0.14611E-07  1352   0.715E-04    0.150E-04
RMM:  16    -0.413217632814E+03    0.34057E-05   -0.11218E-07  1271   0.677E-04    0.165E-04
RMM:  17    -0.413217630385E+03    0.24290E-05   -0.71152E-08  1077   0.621E-04    0.109E-04
RMM:  18    -0.413217627363E+03    0.30220E-05   -0.63401E-08  1166   0.620E-04    0.886E-05
RMM:  19    -0.413217624889E+03    0.24743E-05   -0.43620E-08  1033   0.584E-04    0.367E-05
RMM:  20    -0.413217624124E+03    0.76474E-06   -0.21799E-08   779   0.539E-04
   44 T=    71. E= -.41286683E+03 F= -.41321762E+03 E0= -.41319664E+03  EK= 0.35079E+00 SP= 0.00E+00 SK= 0.00E+00
       N       E                     dE             d eps       ncg     rms          rms(c)
RMM:   1    -0.413238406124E+03   -0.20781E-01   -0.81662E+00  4312   0.120E+00    0.978E-01
RMM:   2    -0.413226196156E+03    0.12210E-01   -0.12869E-01  4368   0.146E-01    0.713E-01
RMM:   3    -0.413224378086E+03    0.18181E-02   -0.36235E-02  5062   0.101E-01    0.315E-01
RMM:   4    -0.413254412675E+03   -0.30035E-01   -0.50448E-02  5078   0.192E-01    0.776E-01
RMM:   5    -0.413218767954E+03    0.35645E-01   -0.14766E-02  4723   0.128E-01    0.581E-02
RMM:   6    -0.413218822118E+03   -0.54164E-04   -0.27591E-03  5736   0.498E-02    0.343E-02
RMM:   7    -0.413218832119E+03   -0.10002E-04   -0.39325E-04  5675   0.192E-02    0.224E-02
RMM:   8    -0.413218831953E+03    0.16655E-06   -0.11187E-04  5184   0.111E-02    0.128E-02
RMM:   9    -0.413218821737E+03    0.10216E-04   -0.16449E-05  4263   0.534E-03    0.539E-03
RMM:  10    -0.413218817908E+03    0.38290E-05   -0.37069E-06  2788   0.263E-03    0.328E-03
RMM:  11    -0.413218814490E+03    0.34174E-05   -0.11409E-06  2493   0.179E-03    0.179E-03
RMM:  12    -0.413218808022E+03    0.64681E-05   -0.89460E-07  2462   0.157E-03    0.840E-04
RMM:  13    -0.413218803583E+03    0.44393E-05   -0.41372E-07  2208   0.111E-03    0.406E-04
RMM:  14    -0.413218801557E+03    0.20263E-05   -0.20914E-07  1687   0.805E-04    0.248E-04
RMM:  15    -0.413218795818E+03    0.57390E-05   -0.14240E-07  1390   0.727E-04    0.175E-04
RMM:  16    -0.413218792701E+03    0.31171E-05   -0.86234E-08  1141   0.650E-04    0.134E-04
RMM:  17    -0.413218789424E+03    0.32769E-05   -0.68891E-08  1165   0.630E-04    0.925E-05
RMM:  18    -0.413218785835E+03    0.35891E-05   -0.59581E-08  1222   0.618E-04    0.506E-05
RMM:  19    -0.413218783157E+03    0.26780E-05   -0.39886E-08  1057   0.580E-04    0.397E-05
RMM:  20    -0.413218782644E+03    0.51299E-06   -0.19790E-08   766   0.532E-04
   45 T=    72. E= -.41286712E+03 F= -.41321878E+03 E0= -.41319782E+03  EK= 0.35166E+00 SP= 0.00E+00 SK= 0.00E+00
       N       E                     dE             d eps       ncg     rms          rms(c)
RMM:   1    -0.413240382948E+03   -0.21600E-01   -0.80994E+00  4314   0.128E+00    0.959E-01
RMM:   2    -0.413225569802E+03    0.14813E-01   -0.13412E-01  4373   0.157E-01    0.707E-01
RMM:   3    -0.413225385547E+03    0.18425E-03   -0.35916E-02  5055   0.110E-01    0.360E-01
RMM:   4    -0.413250456456E+03   -0.25071E-01   -0.50173E-02  5067   0.193E-01    0.740E-01
RMM:   5    -0.413218067562E+03    0.32389E-01   -0.12719E-02  4702   0.122E-01    0.580E-02
RMM:   6    -0.413218097425E+03   -0.29863E-04   -0.24711E-03  5709   0.473E-02    0.330E-02
RMM:   7    -0.413218110232E+03   -0.12807E-04   -0.37637E-04  5675   0.188E-02    0.225E-02
RMM:   8    -0.413218109995E+03    0.23645E-06   -0.11144E-04  5132   0.112E-02    0.120E-02
RMM:   9    -0.413218100525E+03    0.94706E-05   -0.14430E-05  4142   0.520E-03    0.491E-03
RMM:  10    -0.413218097114E+03    0.34108E-05   -0.34280E-06  2772   0.250E-03    0.297E-03
RMM:  11    -0.413218093681E+03    0.34334E-05   -0.11277E-06  2497   0.175E-03    0.156E-03
RMM:  12    -0.413218087977E+03    0.57031E-05   -0.79823E-07  2447   0.146E-03    0.744E-04
RMM:  13    -0.413218084159E+03    0.38186E-05   -0.36763E-07  2080   0.103E-03    0.337E-04
RMM:  14    -0.413218081695E+03    0.24641E-05   -0.19285E-07  1557   0.776E-04    0.197E-04
RMM:  15    -0.413218075834E+03    0.58607E-05   -0.14676E-07  1346   0.729E-04    0.155E-04
RMM:  16    -0.413218073528E+03    0.23064E-05   -0.86977E-08  1135   0.653E-04    0.999E-05
RMM:  17    -0.413218069718E+03    0.38093E-05   -0.79093E-08  1274   0.653E-04    0.636E-05
RMM:  18    -0.413218066438E+03    0.32799E-05   -0.56294E-08  1157   0.608E-04    0.390E-05
RMM:  19    -0.413218064517E+03    0.19219E-05   -0.36036E-08   964   0.563E-04    0.328E-05
RMM:  20    -0.413218064133E+03    0.38384E-06   -0.20687E-08   777   0.532E-04
   46 T=    72. E= -.41286681E+03 F= -.41321806E+03 E0= -.41319712E+03  EK= 0.35125E+00 SP= 0.00E+00 SK= 0.00E+00
       N       E                     dE             d eps       ncg     rms          rms(c)
RMM:   1    -0.413237139309E+03   -0.19075E-01   -0.81043E+00  4314   0.137E+00    0.954E-01
RMM:   2    -0.413224231768E+03    0.12908E-01   -0.12741E-01  4408   0.167E-01    0.712E-01
RMM:   3    -0.413226424159E+03   -0.21924E-02   -0.42370E-02  5061   0.126E-01    0.421E-01
RMM:   4    -0.413243436664E+03   -0.17013E-01   -0.47500E-02  5049   0.190E-01    0.680E-01
RMM:   5    -0.413216369456E+03    0.27067E-01   -0.10191E-02  4667   0.113E-01    0.556E-02
RMM:   6    -0.413216362503E+03    0.69538E-05   -0.20153E-03  5636   0.429E-02    0.301E-02
RMM:   7    -0.413216376095E+03   -0.13592E-04   -0.30928E-04  5623   0.174E-02    0.203E-02
RMM:   8    -0.413216375507E+03    0.58800E-06   -0.10610E-04  5095   0.109E-02    0.107E-02
RMM:   9    -0.413216368222E+03    0.72850E-05   -0.12939E-05  4014   0.502E-03    0.455E-03
RMM:  10    -0.413216366382E+03    0.18400E-05   -0.29298E-06  2715   0.241E-03    0.269E-03
RMM:  11    -0.413216364166E+03    0.22155E-05   -0.11734E-06  2497   0.173E-03    0.136E-03
RMM:  12    -0.413216360523E+03    0.36437E-05   -0.79696E-07  2425   0.140E-03    0.686E-04
RMM:  13    -0.413216357766E+03    0.27567E-05   -0.36913E-07  1940   0.990E-04    0.304E-04
RMM:  14    -0.413216355413E+03    0.23532E-05   -0.20654E-07  1478   0.770E-04    0.169E-04
RMM:  15    -0.413216350969E+03    0.44438E-05   -0.18097E-07  1401   0.749E-04    0.130E-04
RMM:  16    -0.413216348644E+03    0.23252E-05   -0.11007E-07  1241   0.667E-04    0.906E-05
RMM:  17    -0.413216344600E+03    0.40437E-05   -0.10615E-07  1396   0.672E-04    0.566E-05
RMM:  18    -0.413216342059E+03    0.25406E-05   -0.63085E-08  1082   0.586E-04    0.331E-05
RMM:  19    -0.413216341316E+03    0.74387E-06   -0.33682E-08   842   0.536E-04
   47 T=    71. E= -.41286669E+03 F= -.41321634E+03 E0= -.41319541E+03  EK= 0.34965E+00 SP= 0.00E+00 SK= 0.00E+00
       N       E                     dE             d eps       ncg     rms          rms(c)
RMM:   1    -0.413232922323E+03   -0.16580E-01   -0.79437E+00  4310   0.139E+00    0.967E-01
RMM:   2    -0.413220941091E+03    0.11981E-01   -0.12679E-01  4462   0.172E-01    0.710E-01
RMM:   3    -0.413227899824E+03   -0.69587E-02   -0.43166E-02  5094   0.138E-01    0.502E-01
RMM:   4    -0.413233079915E+03   -0.51801E-02   -0.44237E-02  5026   0.187E-01    0.579E-01
RMM:   5    -0.413213477879E+03    0.19602E-01   -0.65724E-03  4610   0.984E-02    0.548E-02
RMM:   6    -0.413213431051E+03    0.46828E-04   -0.13363E-03  5372   0.364E-02    0.289E-02
RMM:   7    -0.413213448960E+03   -0.17909E-04   -0.22443E-04  5569   0.152E-02    0.182E-02
RMM:   8    -0.413213450381E+03   -0.14214E-05   -0.10400E-04  5138   0.107E-02    0.107E-02
RMM:   9    -0.413213439234E+03    0.11148E-04   -0.12211E-05  3995   0.500E-03    0.432E-03
RMM:  10    -0.413213436110E+03    0.31235E-05   -0.28408E-06  2710   0.237E-03    0.242E-03
RMM:  11    -0.413213431658E+03    0.44526E-05   -0.11516E-06  2485   0.176E-03    0.123E-03
RMM:  12    -0.413213427001E+03    0.46566E-05   -0.58231E-07  2342   0.129E-03    0.671E-04
RMM:  13    -0.413213423175E+03    0.38260E-05   -0.27935E-07  1812   0.911E-04    0.307E-04
RMM:  14    -0.413213419187E+03    0.39883E-05   -0.16078E-07  1396   0.735E-04    0.162E-04
RMM:  15    -0.413213414565E+03    0.46221E-05   -0.11914E-07  1292   0.693E-04    0.115E-04
RMM:  16    -0.413213411435E+03    0.31293E-05   -0.81254E-08  1200   0.644E-04    0.825E-05
RMM:  17    -0.413213405684E+03    0.57512E-05   -0.85460E-08  1394   0.658E-04    0.643E-05
RMM:  18    -0.413213404184E+03    0.14999E-05   -0.36296E-08   898   0.544E-04    0.437E-05
RMM:  19    -0.413213402670E+03    0.15139E-05   -0.27514E-08   858   0.537E-04    0.204E-05
RMM:  20    -0.413213401973E+03    0.69718E-06   -0.18036E-08   741   0.514E-04
   48 T=    71. E= -.41286686E+03 F= -.41321340E+03 E0= -.41319248E+03  EK= 0.34654E+00 SP= 0.00E+00 SK= 0.00E+00
       N       E                     dE             d eps       ncg     rms          rms(c)
RMM:   1    -0.413229279076E+03   -0.15876E-01   -0.77516E+00  4309   0.150E+00    0.954E-01
RMM:   2    -0.413215179890E+03    0.14099E-01   -0.12615E-01  4518   0.184E-01    0.698E-01
RMM:   3    -0.413228338049E+03   -0.13158E-01   -0.46020E-02  5107   0.155E-01    0.597E-01
RMM:   4    -0.413221540556E+03    0.67975E-02   -0.42494E-02  4985   0.186E-01    0.485E-01
RMM:   5    -0.413207874788E+03    0.13666E-01   -0.43695E-03  4573   0.876E-02    0.546E-02
RMM:   6    -0.413207786024E+03    0.88764E-04   -0.74785E-04  4943   0.301E-02    0.280E-02
RMM:   7    -0.413207793654E+03   -0.76301E-05   -0.15031E-04  5654   0.128E-02    0.118E-02
RMM:   8    -0.413207793006E+03    0.64820E-06   -0.37586E-05  5128   0.676E-03    0.720E-03
RMM:   9    -0.413207787191E+03    0.58148E-05   -0.91104E-06  3680   0.364E-03    0.401E-03
RMM:  10    -0.413207785071E+03    0.21203E-05   -0.17006E-06  2539   0.217E-03    0.236E-03
RMM:  11    -0.413207779383E+03    0.56879E-05   -0.10367E-06  2461   0.173E-03    0.134E-03
RMM:  12    -0.413207776007E+03    0.33760E-05   -0.41989E-07  2326   0.114E-03    0.756E-04
RMM:  13    -0.413207771005E+03    0.50020E-05   -0.27358E-07  1929   0.908E-04    0.424E-04
RMM:  14    -0.413207766338E+03    0.46669E-05   -0.13909E-07  1235   0.696E-04    0.236E-04
RMM:  15    -0.413207762091E+03    0.42465E-05   -0.95331E-08  1060   0.639E-04    0.113E-04
RMM:  16    -0.413207758190E+03    0.39017E-05   -0.76424E-08  1134   0.634E-04    0.931E-05
RMM:  17    -0.413207753257E+03    0.49327E-05   -0.75456E-08  1333   0.634E-04    0.950E-05
RMM:  18    -0.413207751657E+03    0.15998E-05   -0.33894E-08   879   0.521E-04    0.602E-05
RMM:  19    -0.413207749491E+03    0.21659E-05   -0.27704E-08   813   0.512E-04    0.278E-05
RMM:  20    -0.413207748784E+03    0.70686E-06   -0.16071E-08   664   0.484E-04
   49 T=    69. E= -.41286652E+03 F= -.41320775E+03 E0= -.41318683E+03  EK= 0.34123E+00 SP= 0.00E+00 SK= 0.00E+00
       N       E                     dE             d eps       ncg     rms          rms(c)
RMM:   1    -0.413231119828E+03   -0.23370E-01   -0.77024E+00  4308   0.168E+00    0.927E-01
RMM:   2    -0.413208535951E+03    0.22584E-01   -0.13179E-01  4587   0.197E-01    0.696E-01
RMM:   3    -0.413227494221E+03   -0.18958E-01   -0.50537E-02  5120   0.173E-01    0.677E-01
RMM:   4    -0.413212615124E+03    0.14879E-01   -0.44884E-02  4964   0.194E-01    0.449E-01
RMM:   5    -0.413201004421E+03    0.11611E-01   -0.41782E-03  4573   0.882E-02    0.564E-02
[...]
RMM:   5    -0.413165310037E+03    0.33424E-01   -0.15660E-02  4785   0.126E-01    0.590E-02
RMM:   6    -0.413165304028E+03    0.60092E-05   -0.27248E-03  5672   0.509E-02    0.313E-02
RMM:   7    -0.413165333109E+03   -0.29080E-04   -0.44438E-04  5929   0.189E-02    0.210E-02
RMM:   8    -0.413165337298E+03   -0.41891E-05   -0.97015E-05  5200   0.104E-02    0.950E-03
RMM:   9    -0.413165339770E+03   -0.24724E-05   -0.12516E-05  3633   0.418E-03    0.446E-03
RMM:  10    -0.413165343617E+03   -0.38469E-05   -0.24729E-06  2626   0.228E-03    0.288E-03
RMM:  11    -0.413165349229E+03   -0.56126E-05   -0.15298E-06  2533   0.192E-03    0.155E-03
RMM:  12    -0.413165352656E+03   -0.34266E-05   -0.83178E-07  2463   0.143E-03    0.603E-04
RMM:  13    -0.413165354612E+03   -0.19563E-05   -0.45435E-07  2159   0.106E-03    0.306E-04
RMM:  14    -0.413165355864E+03   -0.12520E-05   -0.25555E-07  1688   0.841E-04    0.198E-04
RMM:  15    -0.413165357585E+03   -0.17201E-05   -0.23055E-07  1563   0.793E-04    0.132E-04
RMM:  16    -0.413165358419E+03   -0.83432E-06   -0.12883E-07  1309   0.678E-04
  139 T=    61. E= -.41286734E+03 F= -.41316536E+03 E0= -.41314464E+03  EK= 0.29802E+00 SP= 0.00E+00 SK= 0.00E+00
       N       E                     dE             d eps       ncg     rms          rms(c)
RMM:   1    -0.413161392782E+03    0.39648E-02   -0.90401E+00  4267   0.902E-01    0.848E-01
RMM:   2    -0.413166849052E+03   -0.54563E-02   -0.10380E-01  4383   0.101E-01    0.602E-01
RMM:   3    -0.413165386034E+03    0.14630E-02   -0.11250E-02  5068   0.557E-02    0.168E-01
RMM:   4    -0.413198625021E+03   -0.33239E-01   -0.38682E-02  5126   0.165E-01    0.766E-01
RMM:   5    -0.413164265664E+03    0.34359E-01   -0.16391E-02  4801   0.128E-01    0.576E-02
RMM:   6    -0.413164267589E+03   -0.19251E-05   -0.27778E-03  5694   0.514E-02    0.302E-02
RMM:   7    -0.413164302197E+03   -0.34608E-04   -0.43543E-04  5954   0.186E-02    0.201E-02
RMM:   8    -0.413164311316E+03   -0.91195E-05   -0.92467E-05  5200   0.102E-02    0.930E-03
RMM:   9    -0.413164314922E+03   -0.36056E-05   -0.12635E-05  3566   0.418E-03    0.435E-03
RMM:  10    -0.413164319345E+03   -0.44237E-05   -0.25715E-06  2639   0.228E-03    0.283E-03
RMM:  11    -0.413164325474E+03   -0.61281E-05   -0.15158E-06  2532   0.190E-03    0.151E-03
RMM:  12    -0.413164329383E+03   -0.39092E-05   -0.83667E-07  2450   0.142E-03    0.555E-04
RMM:  13    -0.413164331515E+03   -0.21326E-05   -0.44380E-07  2133   0.105E-03    0.296E-04
RMM:  14    -0.413164332846E+03   -0.13310E-05   -0.25137E-07  1670   0.837E-04    0.197E-04
RMM:  15    -0.413164334876E+03   -0.20294E-05   -0.23650E-07  1578   0.798E-04    0.125E-04
RMM:  16    -0.413164335765E+03   -0.88927E-06   -0.12845E-07  1305   0.675E-04
  140 T=    60. E= -.41286717E+03 F= -.41316434E+03 E0= -.41314363E+03  EK= 0.29717E+00 SP= 0.00E+00 SK= 0.00E+00
       N       E                     dE             d eps       ncg     rms          rms(c)
RMM:   1    -0.413160889003E+03    0.34459E-02   -0.93096E+00  4265   0.907E-01    0.839E-01
RMM:   2    -0.413166739423E+03   -0.58504E-02   -0.10795E-01  4401   0.987E-02    0.609E-01
RMM:   3    -0.413164997836E+03    0.17416E-02   -0.10294E-02  5052   0.529E-02    0.151E-01
RMM:   4    -0.413199792342E+03   -0.34795E-01   -0.38887E-02  5132   0.165E-01    0.779E-01
RMM:   5    -0.413164135517E+03    0.35657E-01   -0.17315E-02  4808   0.131E-01    0.550E-02
RMM:   6    -0.413164145279E+03   -0.97615E-05   -0.28346E-03  5702   0.517E-02    0.278E-02
RMM:   7    -0.413164177571E+03   -0.32292E-04   -0.42098E-04  5977   0.178E-02    0.186E-02
RMM:   8    -0.413164188473E+03   -0.10903E-04   -0.85257E-05  5237   0.946E-03    0.899E-03
RMM:   9    -0.413164194683E+03   -0.62092E-05   -0.11347E-05  3471   0.395E-03    0.416E-03
RMM:  10    -0.413164201792E+03   -0.71096E-05   -0.27183E-06  2649   0.225E-03    0.275E-03
RMM:  11    -0.413164211010E+03   -0.92175E-05   -0.14562E-06  2528   0.184E-03    0.145E-03
RMM:  12    -0.413164217788E+03   -0.67782E-05   -0.87029E-07  2444   0.142E-03    0.503E-04
RMM:  13    -0.413164221187E+03   -0.33991E-05   -0.43645E-07  2096   0.103E-03    0.295E-04
RMM:  14    -0.413164223429E+03   -0.22417E-05   -0.24889E-07  1660   0.835E-04    0.204E-04
RMM:  15    -0.413164227339E+03   -0.39101E-05   -0.26687E-07  1678   0.824E-04    0.127E-04
RMM:  16    -0.413164228797E+03   -0.14580E-05   -0.13447E-07  1365   0.671E-04    0.866E-05
RMM:  17    -0.413164230446E+03   -0.16495E-05   -0.10987E-07  1293   0.642E-04    0.558E-05
RMM:  18    -0.413164231437E+03   -0.99082E-06   -0.68990E-08  1069   0.578E-04
  141 T=    60. E= -.41286729E+03 F= -.41316423E+03 E0= -.41314354E+03  EK= 0.29694E+00 SP= 0.00E+00 SK= 0.00E+00
       N       E                     dE             d eps       ncg     rms          rms(c)
RMM:   1    -0.413159261620E+03    0.49688E-02   -0.95357E+00  4265   0.924E-01    0.856E-01
RMM:   2    -0.413165615151E+03   -0.63535E-02   -0.10867E-01  4372   0.102E-01    0.605E-01
RMM:   3    -0.413164124294E+03    0.14909E-02   -0.91513E-03  5049   0.491E-02    0.151E-01
RMM:   4    -0.413197733692E+03   -0.33609E-01   -0.36689E-02  5139   0.160E-01    0.765E-01
RMM:   5    -0.413163446916E+03    0.34287E-01   -0.16807E-02  4809   0.128E-01    0.535E-02
RMM:   6    -0.413163461108E+03   -0.14192E-04   -0.27599E-03  5715   0.508E-02    0.272E-02
RMM:   7    -0.413163494294E+03   -0.33186E-04   -0.40157E-04  5982   0.172E-02    0.179E-02
RMM:   8    -0.413163503620E+03   -0.93262E-05   -0.77401E-05  5228   0.893E-03    0.878E-03
RMM:   9    -0.413163507597E+03   -0.39772E-05   -0.10293E-05  3380   0.376E-03    0.412E-03
RMM:  10    -0.413163512797E+03   -0.51996E-05   -0.25514E-06  2621   0.221E-03    0.271E-03
RMM:  11    -0.413163519024E+03   -0.62266E-05   -0.13777E-06  2519   0.179E-03    0.140E-03
RMM:  12    -0.413163523501E+03   -0.44773E-05   -0.84120E-07  2437   0.139E-03    0.458E-04
RMM:  13    -0.413163525572E+03   -0.20710E-05   -0.41221E-07  2064   0.102E-03    0.283E-04
RMM:  14    -0.413163526900E+03   -0.13278E-05   -0.23489E-07  1604   0.820E-04    0.196E-04
RMM:  15    -0.413163529244E+03   -0.23448E-05   -0.24283E-07  1565   0.803E-04    0.108E-04
RMM:  16    -0.413163530038E+03   -0.79337E-06   -0.12456E-07  1355   0.678E-04
  142 T=    60. E= -.41286736E+03 F= -.41316353E+03 E0= -.41314286E+03  EK= 0.29617E+00 SP= 0.00E+00 SK= 0.00E+00
       N       E                     dE             d eps       ncg     rms          rms(c)
RMM:   1    -0.413156227451E+03    0.73018E-02   -0.96632E+00  4264   0.897E-01    0.855E-01
RMM:   2    -0.413163980654E+03   -0.77532E-02   -0.10960E-01  4358   0.103E-01    0.595E-01
RMM:   3    -0.413162478965E+03    0.15017E-02   -0.82608E-03  5030   0.470E-02    0.148E-01
RMM:   4    -0.413193429019E+03   -0.30950E-01   -0.32931E-02  5142   0.151E-01    0.734E-01
RMM:   5    -0.413162001632E+03    0.31427E-01   -0.15595E-02  4815   0.123E-01    0.505E-02
RMM:   6    -0.413162014288E+03   -0.12656E-04   -0.25318E-03  5733   0.486E-02    0.259E-02
RMM:   7    -0.413162042142E+03   -0.27854E-04   -0.36061E-04  5970   0.163E-02    0.167E-02
RMM:   8    -0.413162049673E+03   -0.75316E-05   -0.65987E-05  5197   0.821E-03    0.825E-03
RMM:   9    -0.413162052677E+03   -0.30034E-05   -0.90530E-06  3262   0.350E-03    0.398E-03
RMM:  10    -0.413162056994E+03   -0.43174E-05   -0.23367E-06  2603   0.213E-03    0.259E-03
RMM:  11    -0.413162061732E+03   -0.47382E-05   -0.12820E-06  2519   0.171E-03    0.131E-03
RMM:  12    -0.413162065143E+03   -0.34107E-05   -0.81560E-07  2419   0.135E-03    0.410E-04
RMM:  13    -0.413162066588E+03   -0.14454E-05   -0.38261E-07  2019   0.986E-04    0.277E-04
RMM:  14    -0.413162067581E+03   -0.99238E-06   -0.22237E-07  1546   0.802E-04
  143 T=    60. E= -.41286687E+03 F= -.41316207E+03 E0= -.41314141E+03  EK= 0.29520E+00 SP= 0.00E+00 SK= 0.00E+00
       N       E                     dE             d eps       ncg     rms          rms(c)
RMM:   1    -0.413155381462E+03    0.66851E-02   -0.97990E+00  4264   0.909E-01    0.835E-01
RMM:   2    -0.413164299609E+03   -0.89181E-02   -0.11375E-01  4363   0.103E-01    0.600E-01
RMM:   3    -0.413162568170E+03    0.17314E-02   -0.73379E-03  4959   0.446E-02    0.132E-01
RMM:   4    -0.413186597836E+03   -0.24030E-01   -0.24838E-02  5142   0.132E-01    0.648E-01
RMM:   5    -0.413162307732E+03    0.24290E-01   -0.12222E-02  4826   0.108E-01    0.436E-02
RMM:   6    -0.413162308970E+03   -0.12378E-05   -0.19506E-03  5731   0.429E-02    0.221E-02
RMM:   7    -0.413162338059E+03   -0.29090E-04   -0.27246E-04  5907   0.142E-02    0.142E-02
RMM:   8    -0.413162352419E+03   -0.14359E-04   -0.50381E-05  5083   0.722E-03    0.707E-03
RMM:   9    -0.413162360028E+03   -0.76096E-05   -0.70841E-06  3078   0.314E-03    0.348E-03
RMM:  10    -0.413162367546E+03   -0.75174E-05   -0.18875E-06  2567   0.196E-03    0.227E-03
RMM:  11    -0.413162376697E+03   -0.91515E-05   -0.11987E-06  2511   0.162E-03    0.115E-03
RMM:  12    -0.413162383508E+03   -0.68106E-05   -0.75541E-07  2383   0.127E-03    0.382E-04
RMM:  13    -0.413162386349E+03   -0.28409E-05   -0.34265E-07  1888   0.920E-04    0.266E-04
RMM:  14    -0.413162389074E+03   -0.27257E-05   -0.23494E-07  1485   0.793E-04    0.167E-04
RMM:  15    -0.413162392641E+03   -0.35668E-05   -0.25030E-07  1595   0.795E-04    0.109E-04
RMM:  16    -0.413162393901E+03   -0.12596E-05   -0.12406E-07  1287   0.659E-04    0.820E-05
RMM:  17    -0.413162395516E+03   -0.16158E-05   -0.11646E-07  1348   0.647E-04    0.433E-05
RMM:  18    -0.413162396142E+03   -0.62578E-06   -0.61002E-08  1012   0.558E-04
  144 T=    60. E= -.41286718E+03 F= -.41316240E+03 E0= -.41314174E+03  EK= 0.29522E+00 SP= 0.00E+00 SK= 0.00E+00
       N       E                     dE             d eps       ncg     rms          rms(c)
RMM:   1    -0.413154915638E+03    0.74799E-02   -0.99912E+00  4264   0.923E-01    0.848E-01
RMM:   2    -0.413163537436E+03   -0.86218E-02   -0.11494E-01  4380   0.102E-01    0.602E-01
RMM:   3    -0.413162135683E+03    0.14018E-02   -0.68396E-03  5021   0.401E-02    0.135E-01
RMM:   4    -0.413182225751E+03   -0.20090E-01   -0.20685E-02  5157   0.120E-01    0.593E-01
RMM:   5    -0.413161977918E+03    0.20248E-01   -0.10265E-02  4828   0.988E-02    0.399E-02
RMM:   6    -0.413161973620E+03    0.42984E-05   -0.16389E-03  5730   0.395E-02    0.200E-02
RMM:   7    -0.413161996821E+03   -0.23201E-04   -0.22262E-04  5875   0.129E-02    0.129E-02
RMM:   8    -0.413162007929E+03   -0.11107E-04   -0.39230E-05  4906   0.633E-03    0.641E-03
RMM:   9    -0.413162014425E+03   -0.64961E-05   -0.56749E-06  2957   0.283E-03    0.321E-03
RMM:  10    -0.413162020543E+03   -0.61181E-05   -0.14882E-06  2541   0.180E-03    0.206E-03
RMM:  11    -0.413162028208E+03   -0.76653E-05   -0.10893E-06  2497   0.151E-03    0.104E-03
RMM:  12    -0.413162033506E+03   -0.52975E-05   -0.65076E-07  2304   0.118E-03    0.343E-04
RMM:  13    -0.413162035781E+03   -0.22750E-05   -0.30080E-07  1794   0.870E-04    0.239E-04
RMM:  14    -0.413162038203E+03   -0.24225E-05   -0.22096E-07  1472   0.778E-04    0.150E-04
RMM:  15    -0.413162041056E+03   -0.28526E-05   -0.23956E-07  1606   0.775E-04    0.103E-04
RMM:  16    -0.413162041904E+03   -0.84783E-06   -0.10362E-07  1178   0.629E-04
  145 T=    60. E= -.41286719E+03 F= -.41316204E+03 E0= -.41314140E+03  EK= 0.29485E+00 SP= 0.00E+00 SK= 0.00E+00
       N       E                     dE             d eps       ncg     rms          rms(c)
RMM:   1    -0.413153467039E+03    0.85740E-02   -0.10080E+01  4264   0.911E-01    0.860E-01
RMM:   2    -0.413161956068E+03   -0.84890E-02   -0.11434E-01  4380   0.101E-01    0.592E-01
RMM:   3    -0.413160985669E+03    0.97040E-03   -0.65963E-03  5019   0.377E-02    0.141E-01
RMM:   4    -0.413175822492E+03   -0.14837E-01   -0.15234E-02  5165   0.104E-01    0.511E-01
RMM:   5    -0.413160880876E+03    0.14942E-01   -0.76145E-03  4834   0.851E-02    0.366E-02
RMM:   6    -0.413160866988E+03    0.13888E-04   -0.12177E-03  5733   0.346E-02    0.190E-02
RMM:   7    -0.413160883792E+03   -0.16804E-04   -0.16809E-04  5763   0.114E-02    0.117E-02
RMM:   8    -0.413160891105E+03   -0.73125E-05   -0.28498E-05  4560   0.547E-03    0.562E-03
RMM:   9    -0.413160895357E+03   -0.42526E-05   -0.39546E-06  2795   0.251E-03    0.288E-03
RMM:  10    -0.413160899238E+03   -0.38804E-05   -0.11867E-06  2520   0.165E-03    0.180E-03
RMM:  11    -0.413160903833E+03   -0.45954E-05   -0.98094E-07  2495   0.141E-03    0.890E-04
RMM:  12    -0.413160906568E+03   -0.27346E-05   -0.56606E-07  2146   0.109E-03    0.286E-04
RMM:  13    -0.413160907813E+03   -0.12452E-05   -0.26934E-07  1651   0.841E-04    0.203E-04
RMM:  14    -0.413160909251E+03   -0.14383E-05   -0.23427E-07  1515   0.785E-04    0.130E-04
RMM:  15    -0.413160910609E+03   -0.13577E-05   -0.22172E-07  1586   0.761E-04    0.932E-05
RMM:  16    -0.413160911012E+03   -0.40292E-06   -0.94380E-08  1141   0.610E-04
  146 T=    60. E= -.41286685E+03 F= -.41316091E+03 E0= -.41314028E+03  EK= 0.29406E+00 SP= 0.00E+00 SK= 0.00E+00
       N       E                     dE             d eps       ncg     rms          rms(c)
RMM:   1    -0.413152709179E+03    0.82014E-02   -0.10073E+01  4264   0.916E-01    0.834E-01
RMM:   2    -0.413162187221E+03   -0.94780E-02   -0.11697E-01  4401   0.999E-02    0.593E-01
RMM:   3    -0.413160966426E+03    0.12208E-02   -0.58427E-03  4921   0.359E-02    0.133E-01
RMM:   4    -0.413166889596E+03   -0.59232E-02   -0.64618E-03  5175   0.681E-02    0.326E-01
RMM:   5    -0.413160910799E+03    0.59788E-02   -0.30623E-03  4838   0.545E-02    0.276E-02
RMM:   6    -0.413160902372E+03    0.84270E-05   -0.53910E-04  5663   0.235E-02    0.143E-02
RMM:   7    -0.413160921278E+03   -0.18905E-04   -0.80491E-05  5350   0.828E-03    0.905E-03
RMM:   8    -0.413160933610E+03   -0.12332E-04   -0.15524E-05  3925   0.435E-03    0.383E-03
RMM:   9    -0.413160941367E+03   -0.77569E-05   -0.21914E-06  2596   0.216E-03    0.217E-03
RMM:  10    -0.413160947447E+03   -0.60808E-05   -0.76598E-07  2491   0.142E-03    0.134E-03
RMM:  11    -0.413160956575E+03   -0.91275E-05   -0.86502E-07  2451   0.129E-03    0.722E-04
RMM:  12    -0.413160960310E+03   -0.37351E-05   -0.35307E-07  1845   0.896E-04    0.299E-04
RMM:  13    -0.413160963374E+03   -0.30639E-05   -0.24913E-07  1578   0.797E-04    0.169E-04
RMM:  14    -0.413160966527E+03   -0.31535E-05   -0.23871E-07  1580   0.771E-04    0.134E-04
RMM:  15    -0.413160969090E+03   -0.25624E-05   -0.21259E-07  1526   0.726E-04    0.930E-05
RMM:  16    -0.413160969932E+03   -0.84208E-06   -0.90805E-08  1110   0.590E-04
  147 T=    60. E= -.41286712E+03 F= -.41316097E+03 E0= -.41314034E+03  EK= 0.29385E+00 SP= 0.00E+00 SK= 0.00E+00
       N       E                     dE             d eps       ncg     rms          rms(c)
RMM:   1    -0.413152613439E+03    0.83557E-02   -0.10177E+01  4264   0.930E-01    0.840E-01
RMM:   2    -0.413161640556E+03   -0.90271E-02   -0.12024E-01  4380   0.104E-01    0.601E-01
RMM:   3    -0.413160371756E+03    0.12688E-02   -0.57400E-03  4858   0.360E-02    0.134E-01
RMM:   4    -0.413162268207E+03   -0.18965E-02   -0.25887E-03  5190   0.437E-02    0.186E-01
RMM:   5    -0.413160348923E+03    0.19193E-02   -0.10025E-03  4843   0.318E-02    0.233E-02
RMM:   6    -0.413160339661E+03    0.92616E-05   -0.22015E-04  5515   0.156E-02    0.117E-02
RMM:   7    -0.413160359825E+03   -0.20164E-04   -0.37011E-05  4988   0.632E-03    0.755E-03
RMM:   8    -0.413160374163E+03   -0.14338E-04   -0.83843E-06  3331   0.357E-03    0.278E-03
RMM:   9    -0.413160382438E+03   -0.82748E-05   -0.16057E-06  2531   0.202E-03    0.168E-03
RMM:  10    -0.413160388490E+03   -0.60523E-05   -0.75282E-07  2456   0.140E-03    0.105E-03
RMM:  11    -0.413160397320E+03   -0.88299E-05   -0.71074E-07  2393   0.119E-03    0.561E-04
RMM:  12    -0.413160401254E+03   -0.39342E-05   -0.29679E-07  1670   0.818E-04    0.292E-04
RMM:  13    -0.413160405354E+03   -0.41001E-05   -0.28496E-07  1674   0.812E-04    0.162E-04
RMM:  14    -0.413160408467E+03   -0.31129E-05   -0.21703E-07  1579   0.730E-04    0.128E-04
RMM:  15    -0.413160410711E+03   -0.22437E-05   -0.15925E-07  1256   0.647E-04    0.703E-05
RMM:  16    -0.413160412286E+03   -0.15754E-05   -0.12173E-07  1242   0.625E-04    0.470E-05
RMM:  17    -0.413160412704E+03   -0.41765E-06   -0.49898E-08   919   0.527E-04
  148 T=    60. E= -.41286683E+03 F= -.41316041E+03 E0= -.41313979E+03  EK= 0.29358E+00 SP= 0.00E+00 SK= 0.00E+00
       N       E                     dE             d eps       ncg     rms          rms(c)
RMM:   1    -0.413151984357E+03    0.84279E-02   -0.10189E+01  4264   0.916E-01    0.859E-01
RMM:   2    -0.413160848907E+03   -0.88646E-02   -0.11671E-01  4385   0.100E-01    0.592E-01
RMM:   3    -0.413159982653E+03    0.86625E-03   -0.59925E-03  4907   0.337E-02    0.140E-01
RMM:   4    -0.413160059559E+03   -0.76905E-04   -0.82141E-04  5209   0.226E-02    0.397E-02
RMM:   5    -0.413160041719E+03    0.17839E-04   -0.13225E-04  5038   0.119E-02    0.359E-02
RMM:   6    -0.413159990110E+03    0.51609E-04   -0.84267E-05  5209   0.964E-03    0.137E-02
RMM:   7    -0.413160003107E+03   -0.12997E-04   -0.19991E-05  4498   0.532E-03    0.711E-03
RMM:   8    -0.413160011775E+03   -0.86679E-05   -0.50523E-06  2771   0.290E-03    0.270E-03
RMM:   9    -0.413160016485E+03   -0.47100E-05   -0.14391E-06  2511   0.185E-03    0.175E-03
RMM:  10    -0.413160020372E+03   -0.38867E-05   -0.87871E-07  2373   0.140E-03    0.110E-03
RMM:  11    -0.413160023902E+03   -0.35303E-05   -0.47476E-07  2079   0.101E-03    0.521E-04
RMM:  12    -0.413160025675E+03   -0.17728E-05   -0.18842E-07  1460   0.701E-04    0.305E-04
RMM:  13    -0.413160028669E+03   -0.29942E-05   -0.39149E-07  1956   0.867E-04    0.298E-04
RMM:  14    -0.413160029780E+03   -0.11113E-05   -0.12984E-07  1124   0.582E-04    0.226E-04
RMM:  15    -0.413160030888E+03   -0.11081E-05   -0.13624E-07  1125   0.605E-04    0.983E-05
RMM:  16    -0.413160031622E+03   -0.73387E-06   -0.78276E-08  1017   0.567E-04
  149 T=    60. E= -.41286694E+03 F= -.41316003E+03 E0= -.41313941E+03  EK= 0.29309E+00 SP= 0.00E+00 SK= 0.00E+00
       N       E                     dE             d eps       ncg     rms          rms(c)
RMM:   1    -0.413151339175E+03    0.86917E-02   -0.10063E+01  4264   0.911E-01    0.835E-01
RMM:   2    -0.413160787211E+03   -0.94480E-02   -0.11701E-01  4408   0.102E-01    0.590E-01
RMM:   3    -0.413159750878E+03    0.10363E-02   -0.56404E-03  4968   0.340E-02    0.138E-01
RMM:   4    -0.413163431767E+03   -0.36809E-02   -0.42623E-03  5196   0.555E-02    0.257E-01
RMM:   5    -0.413159718746E+03    0.37130E-02   -0.18936E-03  4841   0.431E-02    0.254E-02
RMM:   6    -0.413159706013E+03    0.12733E-04   -0.35834E-04  5630   0.190E-02    0.121E-02
RMM:   7    -0.413159723502E+03   -0.17489E-04   -0.50136E-05  4946   0.679E-03    0.738E-03
RMM:   8    -0.413159734424E+03   -0.10922E-04   -0.85443E-06  3343   0.348E-03    0.329E-03
RMM:   9    -0.413159742764E+03   -0.83401E-05   -0.18070E-06  2530   0.207E-03    0.168E-03
RMM:  10    -0.413159747730E+03   -0.49658E-05   -0.71332E-07  2477   0.137E-03    0.102E-03
RMM:  11    -0.413159753972E+03   -0.62422E-05   -0.61845E-07  2351   0.113E-03    0.601E-04
RMM:  12    -0.413159757447E+03   -0.34742E-05   -0.31984E-07  1715   0.855E-04    0.297E-04
RMM:  13    -0.413159760866E+03   -0.34197E-05   -0.30075E-07  1718   0.827E-04    0.151E-04
RMM:  14    -0.413159763386E+03   -0.25196E-05   -0.23863E-07  1610   0.751E-04    0.111E-04
RMM:  15    -0.413159765436E+03   -0.20496E-05   -0.20546E-07  1429   0.711E-04    0.634E-05
RMM:  16    -0.413159766041E+03   -0.60563E-06   -0.79596E-08  1071   0.584E-04
  150 T=    60. E= -.41286704E+03 F= -.41315977E+03 E0= -.41313914E+03  EK= 0.29273E+00 SP= 0.00E+00 SK= 0.00E+00
