       N       E                     dE             d eps       ncg     rms          rms(c)
RMM:   1     0.220183220932E+04    0.22018E+04   -0.52441E+04  2132   0.654E+02
RMM:   2     0.705709518574E+03   -0.14961E+04   -0.16264E+04  2132   0.177E+02
RMM:   3     0.137611254655E+03   -0.56810E+03   -0.65701E+03  2132   0.117E+02
RMM:   4    -0.159263513752E+03   -0.29687E+03   -0.27882E+03  2132   0.936E+01
RMM:   5    -0.287521132530E+03   -0.12826E+03   -0.11466E+03  2132   0.595E+01
RMM:   6    -0.349799274693E+03   -0.62278E+02   -0.55119E+02  2132   0.423E+01
RMM:   7    -0.382649361110E+03   -0.32850E+02   -0.30406E+02  2132   0.293E+01
RMM:   8    -0.404206731524E+03   -0.21557E+02   -0.18456E+02  2132   0.233E+01
RMM:   9    -0.436026644434E+03   -0.31820E+02   -0.30698E+02  6107   0.173E+01
RMM:  10    -0.441306684737E+03   -0.52800E+01   -0.62957E+01  6395   0.538E+00
RMM:  11    -0.442511584754E+03   -0.12049E+01   -0.11022E+01  6209   0.172E+00
RMM:  12    -0.442888158513E+03   -0.37657E+00   -0.26465E+00  6364   0.598E-01    0.134E+02
RMM:  13    -0.425623717961E+03    0.17264E+02   -0.81117E+01  4671   0.119E+01    0.712E+01
RMM:  14    -0.499363744721E+03   -0.73740E+02   -0.54260E+02  5420   0.233E+01    0.306E+01
RMM:  15    -0.412828563771E+03    0.86535E+02   -0.19206E+02  5041   0.162E+01    0.511E+00
RMM:  16    -0.414172232862E+03   -0.13437E+01   -0.39264E+01  6074   0.597E+00    0.439E+00
RMM:  17    -0.413276479638E+03    0.89575E+00   -0.20401E+00  5307   0.172E+00    0.260E+00
RMM:  18    -0.413153107000E+03    0.12337E+00   -0.12063E+00  5857   0.115E+00    0.152E+00
RMM:  19    -0.413169451519E+03   -0.16345E-01   -0.27642E-01  5851   0.541E-01    0.887E-01
RMM:  20    -0.413188090530E+03   -0.18639E-01   -0.18596E-01  5140   0.504E-01    0.607E-01
RMM:  21    -0.413168684572E+03    0.19406E-01   -0.36180E-02  4963   0.238E-01    0.295E-01
RMM:  22    -0.413166755181E+03    0.19294E-02   -0.15458E-02  6134   0.108E-01    0.180E-01
RMM:  23    -0.413164342464E+03    0.24127E-02   -0.75637E-03  5867   0.829E-02    0.787E-02
RMM:  24    -0.413163088221E+03    0.12542E-02   -0.23707E-03  5858   0.461E-02    0.346E-02
RMM:  25    -0.413162911699E+03    0.17652E-03   -0.78899E-04  6032   0.235E-02    0.243E-02
RMM:  26    -0.413163138683E+03   -0.22698E-03   -0.36657E-04  5597   0.202E-02    0.215E-02
RMM:  27    -0.413163627202E+03   -0.48852E-03   -0.18790E-04  4490   0.184E-02    0.146E-02
RMM:  28    -0.413164072593E+03   -0.44539E-03   -0.13682E-04  4735   0.163E-02    0.885E-03
RMM:  29    -0.413164484204E+03   -0.41161E-03   -0.13064E-04  4402   0.165E-02    0.323E-03
RMM:  30    -0.413164657209E+03   -0.17301E-03   -0.79654E-05  3748   0.870E-03    0.214E-03
RMM:  31    -0.413164727358E+03   -0.70149E-04   -0.41629E-05  3073   0.489E-03    0.150E-03
RMM:  32    -0.413164744514E+03   -0.17156E-04   -0.16134E-05  2907   0.254E-03    0.772E-04
RMM:  33    -0.413164749471E+03   -0.49570E-05   -0.77158E-06  2697   0.173E-03    0.571E-04
RMM:  34    -0.413164749820E+03   -0.34949E-06   -0.38141E-06  2355   0.126E-03
    1 T=    61. E= -.41286697E+03 F= -.41316475E+03 E0= -.41314225E+03  EK= 0.29778E+00 SP= 0.00E+00 SK= 0.00E+00
       N       E                     dE             d eps       ncg     rms          rms(c)
RMM:   1    -0.413162948378E+03    0.18011E-02   -0.90896E+00  3994   0.618E-01    0.886E-01
RMM:   2    -0.413168478944E+03   -0.55306E-02   -0.11153E-01  3951   0.887E-02    0.651E-01
RMM:   3    -0.413165036391E+03    0.34426E-02   -0.16330E-02  4935   0.509E-02    0.117E-01
RMM:   4    -0.413195716382E+03   -0.30680E-01   -0.34186E-02  5200   0.153E-01    0.730E-01
RMM:   5    -0.413164237093E+03    0.31479E-01   -0.15237E-02  4837   0.123E-01    0.510E-02
RMM:   6    -0.413164447317E+03   -0.21022E-03   -0.27300E-03  5768   0.509E-02    0.338E-02
RMM:   7    -0.413164455649E+03   -0.83314E-05   -0.48097E-04  5779   0.194E-02    0.216E-02
RMM:   8    -0.413164453071E+03    0.25784E-05   -0.63486E-05  5200   0.854E-03    0.941E-03
RMM:   9    -0.413164455020E+03   -0.19494E-05   -0.13779E-05  3838   0.388E-03    0.692E-03
RMM:  10    -0.413164460162E+03   -0.51424E-05   -0.24940E-06  2611   0.224E-03    0.429E-03
RMM:  11    -0.413164464467E+03   -0.43050E-05   -0.13703E-06  2531   0.170E-03    0.241E-03
RMM:  12    -0.413164471916E+03   -0.74487E-05   -0.19115E-06  2582   0.193E-03    0.101E-03
RMM:  13    -0.413164475063E+03   -0.31468E-05   -0.77206E-07  2407   0.132E-03    0.795E-04
RMM:  14    -0.413164474874E+03    0.18845E-06   -0.38643E-07  1924   0.877E-04
    2 T=    61. E= -.41286678E+03 F= -.41316447E+03 E0= -.41314197E+03  EK= 0.29770E+00 SP= 0.00E+00 SK= 0.00E+00
       N       E                     dE             d eps       ncg     rms          rms(c)
RMM:   1    -0.413163933531E+03    0.54153E-03   -0.90866E+00  4189   0.625E-01    0.905E-01
RMM:   2    -0.413168656636E+03   -0.47231E-02   -0.11031E-01  3995   0.882E-02    0.646E-01
RMM:   3    -0.413165351653E+03    0.33050E-02   -0.15336E-02  4815   0.459E-02    0.103E-01
RMM:   4    -0.413188523362E+03   -0.23172E-01   -0.24082E-02  5169   0.130E-01    0.637E-01
RMM:   5    -0.413164894974E+03    0.23628E-01   -0.11436E-02  4832   0.106E-01    0.471E-02
RMM:   6    -0.413165057744E+03   -0.16277E-03   -0.21001E-03  5777   0.443E-02    0.327E-02
RMM:   7    -0.413165047982E+03    0.97616E-05   -0.38871E-04  5625   0.189E-02    0.205E-02
RMM:   8    -0.413165036517E+03    0.11466E-04   -0.54999E-05  5002   0.833E-03    0.972E-03
RMM:   9    -0.413165034991E+03    0.15261E-05   -0.11158E-05  3692   0.371E-03    0.737E-03
RMM:  10    -0.413165035301E+03   -0.31067E-06   -0.20085E-06  2568   0.229E-03
    3 T=    61. E= -.41286710E+03 F= -.41316504E+03 E0= -.41314254E+03  EK= 0.29794E+00 SP= 0.00E+00 SK= 0.00E+00
       N       E                     dE             d eps       ncg     rms          rms(c)
RMM:   1    -0.413163358709E+03    0.16763E-02   -0.90200E+00  4220   0.627E-01    0.890E-01
RMM:   2    -0.413168278142E+03   -0.49194E-02   -0.10992E-01  4215   0.884E-02    0.641E-01
RMM:   3    -0.413170139463E+03   -0.18613E-02   -0.18959E-02  5160   0.808E-02    0.317E-01
RMM:   4    -0.413189693123E+03   -0.19554E-01   -0.39324E-02  5112   0.169E-01    0.652E-01
RMM:   5    -0.413164756374E+03    0.24937E-01   -0.96053E-03  4707   0.107E-01    0.602E-02
RMM:   6    -0.413164777245E+03   -0.20870E-04   -0.18792E-03  5474   0.437E-02    0.315E-02
RMM:   7    -0.413164794771E+03   -0.17526E-04   -0.36170E-04  5990   0.172E-02    0.191E-02
RMM:   8    -0.413164789751E+03    0.50202E-05   -0.64432E-05  5170   0.919E-03    0.795E-03
RMM:   9    -0.413164787701E+03    0.20499E-05   -0.81666E-06  3424   0.364E-03    0.405E-03
RMM:  10    -0.413164788875E+03   -0.11745E-05   -0.17857E-06  2558   0.215E-03    0.261E-03
RMM:  11    -0.413164790618E+03   -0.17430E-05   -0.13530E-06  2535   0.181E-03    0.150E-03
RMM:  12    -0.413164791568E+03   -0.94935E-06   -0.78576E-07  2495   0.142E-03
    4 T=    61. E= -.41286681E+03 F= -.41316479E+03 E0= -.41314230E+03  EK= 0.29798E+00 SP= 0.00E+00 SK= 0.00E+00
       N       E                     dE             d eps       ncg     rms          rms(c)
RMM:   1    -0.413163331808E+03    0.14588E-02   -0.90842E+00  4235   0.631E-01    0.884E-01
RMM:   2    -0.413168786283E+03   -0.54545E-02   -0.11170E-01  4041   0.878E-02    0.650E-01
RMM:   3    -0.413165533667E+03    0.32526E-02   -0.16272E-02  4937   0.500E-02    0.117E-01
RMM:   4    -0.413196318150E+03   -0.30784E-01   -0.33003E-02  5146   0.152E-01    0.733E-01
RMM:   5    -0.413164743238E+03    0.31575E-01   -0.15002E-02  4811   0.122E-01    0.498E-02
RMM:   6    -0.413164947249E+03   -0.20401E-03   -0.26541E-03  5752   0.503E-02    0.333E-02
RMM:   7    -0.413164950811E+03   -0.35621E-05   -0.45014E-04  5748   0.195E-02    0.213E-02
RMM:   8    -0.413164946281E+03    0.45300E-05   -0.64177E-05  5098   0.872E-03    0.986E-03
RMM:   9    -0.413164946952E+03   -0.67112E-06   -0.12581E-05  3836   0.399E-03    0.727E-03
RMM:  10    -0.413164950860E+03   -0.39075E-05   -0.20153E-06  2581   0.225E-03    0.449E-03
RMM:  11    -0.413164954575E+03   -0.37147E-05   -0.12725E-06  2534   0.178E-03    0.246E-03
RMM:  12    -0.413164960446E+03   -0.58711E-05   -0.19390E-06  2600   0.200E-03    0.107E-03
RMM:  13    -0.413164962263E+03   -0.18177E-05   -0.60718E-07  2395   0.132E-03    0.762E-04
RMM:  14    -0.413164962168E+03    0.95064E-07   -0.24881E-07  1911   0.860E-04
    5 T=    61. E= -.41286680E+03 F= -.41316496E+03 E0= -.41314249E+03  EK= 0.29816E+00 SP= 0.00E+00 SK= 0.00E+00
       N       E                     dE             d eps       ncg     rms          rms(c)
RMM:   1    -0.413164226030E+03    0.73623E-03   -0.90987E+00  4248   0.638E-01    0.902E-01
RMM:   2    -0.413168870749E+03   -0.46447E-02   -0.11080E-01  4070   0.877E-02    0.648E-01
RMM:   3    -0.413165742729E+03    0.31280E-02   -0.15498E-02  4820   0.454E-02    0.100E-01
RMM:   4    -0.413188463988E+03   -0.22721E-01   -0.23562E-02  5147   0.128E-01    0.632E-01
RMM:   5    -0.413165279618E+03    0.23184E-01   -0.11194E-02  4815   0.105E-01    0.469E-02
RMM:   6    -0.413165443659E+03   -0.16404E-03   -0.20802E-03  5767   0.437E-02    0.325E-02
RMM:   7    -0.413165434813E+03    0.88468E-05   -0.38289E-04  5602   0.188E-02    0.205E-02
RMM:   8    -0.413165423964E+03    0.10849E-04   -0.52422E-05  4944   0.822E-03    0.964E-03
RMM:   9    -0.413165422484E+03    0.14792E-05   -0.10576E-05  3633   0.365E-03    0.734E-03
RMM:  10    -0.413165422826E+03   -0.34136E-06   -0.18759E-06  2550   0.227E-03
    6 T=    61. E= -.41286699E+03 F= -.41316542E+03 E0= -.41314296E+03  EK= 0.29843E+00 SP= 0.00E+00 SK= 0.00E+00
       N       E                     dE             d eps       ncg     rms          rms(c)
RMM:   1    -0.413163904155E+03    0.15183E-02   -0.90494E+00  4255   0.641E-01    0.897E-01
RMM:   2    -0.413168597481E+03   -0.46933E-02   -0.11022E-01  4256   0.894E-02    0.642E-01
RMM:   3    -0.413170151456E+03   -0.15540E-02   -0.18677E-02  5131   0.783E-02    0.307E-01
RMM:   4    -0.413191019894E+03   -0.20868E-01   -0.39649E-02  5100   0.169E-01    0.664E-01
RMM:   5    -0.413165144437E+03    0.25875E-01   -0.10095E-02  4706   0.108E-01    0.602E-02
RMM:   6    -0.413165182860E+03   -0.38423E-04   -0.19828E-03  5482   0.445E-02    0.320E-02
RMM:   7    -0.413165194247E+03   -0.11387E-04   -0.36786E-04  5983   0.172E-02    0.193E-02
RMM:   8    -0.413165188082E+03    0.61645E-05   -0.64006E-05  5155   0.911E-03    0.801E-03
RMM:   9    -0.413165184549E+03    0.35335E-05   -0.79665E-06  3379   0.359E-03    0.412E-03
RMM:  10    -0.413165184450E+03    0.98888E-07   -0.18783E-06  2560   0.218E-03
    7 T=    61. E= -.41286671E+03 F= -.41316518E+03 E0= -.41314274E+03  EK= 0.29848E+00 SP= 0.00E+00 SK= 0.00E+00
       N       E                     dE             d eps       ncg     rms          rms(c)
RMM:   1    -0.413164153333E+03    0.10312E-02   -0.90727E+00  4269   0.645E-01    0.882E-01
RMM:   2    -0.413169678999E+03   -0.55257E-02   -0.11127E-01  4131   0.890E-02    0.647E-01
RMM:   3    -0.413166485049E+03    0.31940E-02   -0.16140E-02  4937   0.517E-02    0.127E-01
RMM:   4    -0.413199724169E+03   -0.33239E-01   -0.36078E-02  5140   0.158E-01    0.762E-01
RMM:   5    -0.413165574310E+03    0.34150E-01   -0.16214E-02  4805   0.127E-01    0.513E-02
RMM:   6    -0.413165781422E+03   -0.20711E-03   -0.27949E-03  5737   0.522E-02    0.338E-02
RMM:   7    -0.413165779762E+03    0.16605E-05   -0.47059E-04  5768   0.197E-02    0.215E-02
RMM:   8    -0.413165775276E+03    0.44862E-05   -0.66694E-05  5167   0.885E-03    0.981E-03
RMM:   9    -0.413165774909E+03    0.36617E-06   -0.13018E-05  3866   0.402E-03    0.704E-03
RMM:  10    -0.413165777752E+03   -0.28422E-05   -0.20776E-06  2583   0.224E-03    0.434E-03
RMM:  11    -0.413165780226E+03   -0.24743E-05   -0.11864E-06  2522   0.172E-03    0.242E-03
RMM:  12    -0.413165784200E+03   -0.39741E-05   -0.19202E-06  2603   0.198E-03    0.106E-03
RMM:  13    -0.413165785585E+03   -0.13853E-05   -0.65212E-07  2414   0.133E-03    0.815E-04
RMM:  14    -0.413165785352E+03    0.23282E-06   -0.24368E-07  1892   0.857E-04
    8 T=    61. E= -.41286700E+03 F= -.41316579E+03 E0= -.41314336E+03  EK= 0.29878E+00 SP= 0.00E+00 SK= 0.00E+00
       N       E                     dE             d eps       ncg     rms          rms(c)
RMM:   1    -0.413164621727E+03    0.11639E-02   -0.91123E+00  4279   0.650E-01    0.897E-01
RMM:   2    -0.413169794954E+03   -0.51732E-02   -0.11111E-01  4158   0.897E-02    0.650E-01
RMM:   3    -0.413166328600E+03    0.34664E-02   -0.15717E-02  4824   0.475E-02    0.103E-01
RMM:   4    -0.413191253895E+03   -0.24925E-01   -0.26034E-02  5139   0.134E-01    0.661E-01
RMM:   5    -0.413165792218E+03    0.25462E-01   -0.12291E-02  4804   0.110E-01    0.473E-02
RMM:   6    -0.413165965542E+03   -0.17332E-03   -0.22326E-03  5768   0.453E-02    0.321E-02
RMM:   7    -0.413165962572E+03    0.29694E-05   -0.38583E-04  5628   0.188E-02    0.205E-02
RMM:   8    -0.413165953006E+03    0.95659E-05   -0.58603E-05  4984   0.849E-03    0.986E-03
RMM:   9    -0.413165951258E+03    0.17483E-05   -0.11584E-05  3785   0.385E-03    0.748E-03
RMM:  10    -0.413165951763E+03   -0.50559E-06   -0.18801E-06  2555   0.226E-03
    9 T=    61. E= -.41286695E+03 F= -.41316595E+03 E0= -.41314354E+03  EK= 0.29901E+00 SP= 0.00E+00 SK= 0.00E+00
       N       E                     dE             d eps       ncg     rms          rms(c)
RMM:   1    -0.413164877505E+03    0.10738E-02   -0.90866E+00  4295   0.654E-01    0.903E-01
RMM:   2    -0.413169634398E+03   -0.47569E-02   -0.11031E-01  4315   0.900E-02    0.644E-01
RMM:   3    -0.413171671179E+03   -0.20368E-02   -0.19250E-02  5128   0.822E-02    0.327E-01
RMM:   4    -0.413189784600E+03   -0.18113E-01   -0.38465E-02  5081   0.167E-01    0.637E-01
RMM:   5    -0.413166006714E+03    0.23778E-01   -0.89995E-03  4688   0.103E-01    0.595E-02
RMM:   6    -0.413166026202E+03   -0.19488E-04   -0.18143E-03  5442   0.424E-02    0.322E-02
RMM:   7    -0.413166034381E+03   -0.81788E-05   -0.34841E-04  5958   0.171E-02    0.192E-02
RMM:   8    -0.413166026472E+03    0.79082E-05   -0.62145E-05  5129   0.905E-03    0.789E-03
RMM:   9    -0.413166021778E+03    0.46947E-05   -0.76516E-06  3348   0.357E-03    0.405E-03
RMM:  10    -0.413166020629E+03    0.11485E-05   -0.17705E-06  2551   0.215E-03    0.258E-03
RMM:  11    -0.413166018700E+03    0.19291E-05   -0.12642E-06  2516   0.178E-03    0.144E-03
RMM:  12    -0.413166016837E+03    0.18632E-05   -0.75556E-07  2472   0.140E-03    0.580E-04
RMM:  13    -0.413166015722E+03    0.11145E-05   -0.37974E-07  2107   0.100E-03    0.313E-04
RMM:  14    -0.413166014605E+03    0.11171E-05   -0.23974E-07  1605   0.799E-04    0.209E-04
RMM:  15    -0.413166012943E+03    0.16621E-05   -0.22402E-07  1468   0.753E-04    0.144E-04
RMM:  16    -0.413166011279E+03    0.16643E-05   -0.18064E-07  1382   0.704E-04    0.137E-04
RMM:  17    -0.413166009450E+03    0.18292E-05   -0.16266E-07  1330   0.671E-04    0.746E-05
RMM:  18    -0.413166008364E+03    0.10858E-05   -0.84376E-08  1037   0.592E-04    0.349E-05
RMM:  19    -0.413166007765E+03    0.59933E-06   -0.45332E-08   847   0.550E-04
   10 T=    61. E= -.41286674E+03 F= -.41316601E+03 E0= -.41314362E+03  EK= 0.29927E+00 SP= 0.00E+00 SK= 0.00E+00
       N       E                     dE             d eps       ncg     rms          rms(c)
RMM:   1    -0.413165119362E+03    0.88900E-03   -0.90687E+00  4289   0.658E-01    0.883E-01
RMM:   2    -0.413170492389E+03   -0.53730E-02   -0.11120E-01  4222   0.891E-02    0.645E-01
RMM:   3    -0.413167450314E+03    0.30421E-02   -0.15826E-02  4919   0.513E-02    0.126E-01
RMM:   4    -0.413200510638E+03   -0.33060E-01   -0.35858E-02  5131   0.158E-01    0.759E-01
RMM:   5    -0.413166564226E+03    0.33946E-01   -0.16175E-02  4791   0.126E-01    0.512E-02
RMM:   6    -0.413166773870E+03   -0.20964E-03   -0.28035E-03  5737   0.518E-02    0.342E-02
RMM:   7    -0.413166772590E+03    0.12807E-05   -0.46629E-04  5667   0.197E-02    0.216E-02
RMM:   8    -0.413166765787E+03    0.68029E-05   -0.66978E-05  5158   0.891E-03    0.994E-03
RMM:   9    -0.413166764268E+03    0.15187E-05   -0.13396E-05  3935   0.409E-03    0.718E-03
RMM:  10    -0.413166765803E+03   -0.15355E-05   -0.20119E-06  2572   0.223E-03    0.445E-03
RMM:  11    -0.413166767109E+03   -0.13054E-05   -0.11120E-06  2507   0.169E-03    0.253E-03
RMM:  12    -0.413166769349E+03   -0.22399E-05   -0.17193E-06  2567   0.196E-03    0.107E-03
RMM:  13    -0.413166770144E+03   -0.79512E-06   -0.61622E-07  2387   0.133E-03
   11 T=    61. E= -.41286700E+03 F= -.41316677E+03 E0= -.41314441E+03  EK= 0.29977E+00 SP= 0.00E+00 SK= 0.00E+00
       N       E                     dE             d eps       ncg     rms          rms(c)
RMM:   1    -0.413165237425E+03    0.15319E-02   -0.91405E+00  4288   0.663E-01    0.894E-01
RMM:   2    -0.413170466624E+03   -0.52292E-02   -0.11200E-01  4241   0.893E-02    0.652E-01
RMM:   3    -0.413167158610E+03    0.33080E-02   -0.15957E-02  4852   0.479E-02    0.106E-01
RMM:   4    -0.413194038204E+03   -0.26880E-01   -0.28312E-02  5129   0.140E-01    0.686E-01
RMM:   5    -0.413166549855E+03    0.27488E-01   -0.13224E-02  4793   0.114E-01    0.478E-02
RMM:   6    -0.413166732976E+03   -0.18312E-03   -0.23780E-03  5781   0.468E-02    0.318E-02
RMM:   7    -0.413166732709E+03    0.26706E-06   -0.38775E-04  5666   0.188E-02    0.204E-02
RMM:   8    -0.413166723365E+03    0.93435E-05   -0.64220E-05  5004   0.873E-03    0.101E-02
RMM:   9    -0.413166721403E+03    0.19617E-05   -0.12730E-05  3921   0.404E-03    0.759E-03
RMM:  10    -0.413166722112E+03   -0.70897E-06   -0.19076E-06  2562   0.226E-03
   12 T=    61. E= -.41286667E+03 F= -.41316672E+03 E0= -.41314439E+03  EK= 0.30005E+00 SP= 0.00E+00 SK= 0.00E+00
       N       E                     dE             d eps       ncg     rms          rms(c)
RMM:   1    -0.413166242330E+03    0.47907E-03   -0.91335E+00  4302   0.667E-01    0.908E-01
RMM:   2    -0.413170582472E+03   -0.43401E-02   -0.11109E-01  4313   0.890E-02    0.647E-01
RMM:   3    -0.413173578766E+03   -0.29963E-02   -0.19835E-02  5131   0.842E-02    0.343E-01
RMM:   4    -0.413189834346E+03   -0.16256E-01   -0.38221E-02  5072   0.167E-01    0.620E-01
RMM:   5    -0.413167307224E+03    0.22527E-01   -0.83804E-03  4667   0.101E-01    0.591E-02
RMM:   6    -0.413167322285E+03   -0.15061E-04   -0.17097E-03  5408   0.411E-02    0.322E-02
RMM:   7    -0.413167328875E+03   -0.65907E-05   -0.32944E-04  5932   0.168E-02    0.191E-02
RMM:   8    -0.413167320255E+03    0.86201E-05   -0.60227E-05  5127   0.896E-03    0.775E-03
RMM:   9    -0.413167314721E+03    0.55342E-05   -0.73473E-06  3312   0.353E-03    0.397E-03
RMM:  10    -0.413167312930E+03    0.17908E-05   -0.16137E-06  2526   0.211E-03    0.252E-03
RMM:  11    -0.413167310025E+03    0.29053E-05   -0.12499E-06  2515   0.176E-03    0.145E-03
RMM:  12    -0.413167307526E+03    0.24993E-05   -0.69696E-07  2460   0.137E-03    0.584E-04
RMM:  13    -0.413167305886E+03    0.16397E-05   -0.36237E-07  2088   0.989E-04    0.326E-04
RMM:  14    -0.413167304395E+03    0.14913E-05   -0.21446E-07  1586   0.785E-04    0.221E-04
RMM:  15    -0.413167301911E+03    0.24832E-05   -0.21347E-07  1521   0.756E-04    0.156E-04
RMM:  16    -0.413167299609E+03    0.23020E-05   -0.16673E-07  1373   0.691E-04    0.140E-04
RMM:  17    -0.413167297336E+03    0.22737E-05   -0.13680E-07  1306   0.655E-04    0.759E-05
RMM:  18    -0.413167296116E+03    0.12192E-05   -0.71130E-08   973   0.575E-04    0.407E-05
RMM:  19    -0.413167295322E+03    0.79445E-06   -0.40176E-08   817   0.545E-04
   13 T=    61. E= -.41286675E+03 F= -.41316730E+03 E0= -.41314499E+03  EK= 0.30055E+00 SP= 0.00E+00 SK= 0.00E+00
       N       E                     dE             d eps       ncg     rms          rms(c)
RMM:   1    -0.413166595491E+03    0.70063E-03   -0.90853E+00  4295   0.681E-01    0.886E-01
RMM:   2    -0.413171527046E+03   -0.49316E-02   -0.11176E-01  4252   0.898E-02    0.644E-01
RMM:   3    -0.413168696983E+03    0.28301E-02   -0.15593E-02  4939   0.505E-02    0.131E-01
RMM:   4    -0.413202827174E+03   -0.34130E-01   -0.37242E-02  5125   0.160E-01    0.771E-01
RMM:   5    -0.413167775368E+03    0.35052E-01   -0.16677E-02  4787   0.128E-01    0.519E-02
RMM:   6    -0.413167986221E+03   -0.21085E-03   -0.28969E-03  5741   0.525E-02    0.347E-02
RMM:   7    -0.413167979186E+03    0.70349E-05   -0.47695E-04  5665   0.200E-02    0.220E-02
RMM:   8    -0.413167970133E+03    0.90530E-05   -0.69299E-05  5170   0.906E-03    0.102E-02
RMM:   9    -0.413167966840E+03    0.32926E-05   -0.13830E-05  3986   0.415E-03    0.728E-03
RMM:  10    -0.413167966511E+03    0.32934E-06   -0.20505E-06  2570   0.224E-03
   14 T=    61. E= -.41286690E+03 F= -.41316797E+03 E0= -.41314570E+03  EK= 0.30106E+00 SP= 0.00E+00 SK= 0.00E+00
       N       E                     dE             d eps       ncg     rms          rms(c)
RMM:   1    -0.413166511913E+03    0.14549E-02   -0.91737E+00  4304   0.676E-01    0.892E-01
RMM:   2    -0.413171954784E+03   -0.54429E-02   -0.11256E-01  4321   0.897E-02    0.654E-01
RMM:   3    -0.413175220964E+03   -0.32662E-02   -0.21299E-02  5127   0.895E-02    0.363E-01
RMM:   4    -0.413191223412E+03   -0.16002E-01   -0.40652E-02  5069   0.173E-01    0.628E-01
RMM:   5    -0.413167989830E+03    0.23234E-01   -0.85144E-03  4657   0.102E-01    0.585E-02
RMM:   6    -0.413168001646E+03   -0.11816E-04   -0.17075E-03  5399   0.411E-02    0.305E-02
RMM:   7    -0.413168014218E+03   -0.12572E-04   -0.32551E-04  5944   0.166E-02    0.185E-02
RMM:   8    -0.413168011454E+03    0.27648E-05   -0.61412E-05  5130   0.896E-03    0.757E-03
RMM:   9    -0.413168009261E+03    0.21926E-05   -0.75072E-06  3313   0.359E-03    0.384E-03
RMM:  10    -0.413168010271E+03   -0.10104E-05   -0.15345E-06  2518   0.207E-03    0.244E-03
RMM:  11    -0.413168011730E+03   -0.14586E-05   -0.12936E-06  2520   0.176E-03    0.146E-03
RMM:  12    -0.413168012208E+03   -0.47794E-06   -0.67682E-07  2456   0.135E-03
   15 T=    61. E= -.41286662E+03 F= -.41316801E+03 E0= -.41314578E+03  EK= 0.30139E+00 SP= 0.00E+00 SK= 0.00E+00
       N       E                     dE             d eps       ncg     rms          rms(c)
RMM:   1    -0.413167979143E+03    0.32587E-04   -0.91772E+00  4299   0.681E-01    0.910E-01
RMM:   2    -0.413172691553E+03   -0.47124E-02   -0.11164E-01  4266   0.902E-02    0.649E-01
RMM:   3    -0.413169812607E+03    0.28789E-02   -0.15574E-02  4952   0.509E-02    0.136E-01
RMM:   4    -0.413204671442E+03   -0.34859E-01   -0.38029E-02  5125   0.162E-01    0.779E-01
RMM:   5    -0.413168880348E+03    0.35791E-01   -0.17102E-02  4789   0.129E-01    0.525E-02
RMM:   6    -0.413169090333E+03   -0.20999E-03   -0.29438E-03  5741   0.534E-02    0.357E-02
RMM:   7    -0.413169078693E+03    0.11640E-04   -0.48585E-04  5704   0.206E-02    0.226E-02
RMM:   8    -0.413169065690E+03    0.13003E-04   -0.73805E-05  5178   0.939E-03    0.107E-02
RMM:   9    -0.413169059427E+03    0.62624E-05   -0.14312E-05  4042   0.427E-03    0.761E-03
RMM:  10    -0.413169055541E+03    0.38859E-05   -0.21939E-06  2584   0.232E-03    0.465E-03
RMM:  11    -0.413169052882E+03    0.26590E-05   -0.11565E-06  2506   0.173E-03    0.270E-03
RMM:  12    -0.413169047722E+03    0.51599E-05   -0.19292E-06  2591   0.206E-03    0.117E-03
RMM:  13    -0.413169044840E+03    0.28824E-05   -0.66176E-07  2403   0.139E-03    0.931E-04
RMM:  14    -0.413169045059E+03   -0.21920E-06   -0.25994E-07  1972   0.898E-04
   16 T=    61. E= -.41286697E+03 F= -.41316905E+03 E0= -.41314685E+03  EK= 0.30208E+00 SP= 0.00E+00 SK= 0.00E+00
       N       E                     dE             d eps       ncg     rms          rms(c)
RMM:   1    -0.413168230694E+03    0.81415E-03   -0.91210E+00  4296   0.693E-01    0.891E-01
RMM:   2    -0.413173236547E+03   -0.50059E-02   -0.11166E-01  4268   0.910E-02    0.644E-01
RMM:   3    -0.413169982601E+03    0.32539E-02   -0.15202E-02  4867   0.487E-02    0.114E-01
RMM:   4    -0.413198782785E+03   -0.28800E-01   -0.30453E-02  5127   0.145E-01    0.709E-01
RMM:   5    -0.413169338825E+03    0.29444E-01   -0.14216E-02  4794   0.118E-01    0.491E-02
RMM:   6    -0.413169520407E+03   -0.18158E-03   -0.25298E-03  5785   0.483E-02    0.330E-02
RMM:   7    -0.413169513268E+03    0.71397E-05   -0.40486E-04  5653   0.193E-02    0.209E-02
RMM:   8    -0.413169501856E+03    0.11412E-04   -0.67948E-05  5055   0.897E-03    0.104E-02
RMM:   9    -0.413169496776E+03    0.50798E-05   -0.13263E-05  3972   0.414E-03    0.773E-03
RMM:  10    -0.413169494216E+03    0.25607E-05   -0.19783E-06  2568   0.227E-03    0.471E-03
RMM:  11    -0.413169492166E+03    0.20497E-05   -0.13040E-06  2511   0.184E-03    0.254E-03
RMM:  12    -0.413169488912E+03    0.32540E-05   -0.16958E-06  2557   0.198E-03    0.105E-03
RMM:  13    -0.413169487379E+03    0.15334E-05   -0.52762E-07  2353   0.129E-03    0.705E-04
RMM:  14    -0.413169487346E+03    0.32975E-07   -0.23573E-07  1880   0.850E-04
   17 T=    62. E= -.41286682E+03 F= -.41316949E+03 E0= -.41314733E+03  EK= 0.30267E+00 SP= 0.00E+00 SK= 0.00E+00
       N       E                     dE             d eps       ncg     rms          rms(c)
RMM:   1    -0.413168366754E+03    0.11206E-02   -0.92109E+00  4296   0.687E-01    0.890E-01
RMM:   2    -0.413173889333E+03   -0.55226E-02   -0.11353E-01  4277   0.913E-02    0.655E-01
RMM:   3    -0.413170537491E+03    0.33518E-02   -0.16225E-02  4877   0.505E-02    0.114E-01
RMM:   4    -0.413200575247E+03   -0.30038E-01   -0.32034E-02  5123   0.149E-01    0.724E-01
RMM:   5    -0.413169819747E+03    0.30756E-01   -0.14871E-02  4792   0.120E-01    0.491E-02
RMM:   6    -0.413170002238E+03   -0.18249E-03   -0.25522E-03  5763   0.494E-02    0.328E-02
RMM:   7    -0.413169999802E+03    0.24366E-05   -0.42551E-04  5645   0.193E-02    0.209E-02
RMM:   8    -0.413169991016E+03    0.87859E-05   -0.65994E-05  5090   0.889E-03    0.996E-03
RMM:   9    -0.413169988168E+03    0.28478E-05   -0.13095E-05  3923   0.409E-03    0.731E-03
RMM:  10    -0.413169988429E+03   -0.26120E-06   -0.19253E-06  2563   0.221E-03
   18 T=    62. E= -.41286665E+03 F= -.41316999E+03 E0= -.41314787E+03  EK= 0.30333E+00 SP= 0.00E+00 SK= 0.00E+00
       N       E                     dE             d eps       ncg     rms          rms(c)
RMM:   1    -0.413170912806E+03   -0.92464E-03   -0.92421E+00  4302   0.713E-01    0.910E-01
RMM:   2    -0.413174697757E+03   -0.37850E-02   -0.11363E-01  4328   0.921E-02    0.653E-01
RMM:   3    -0.413177158465E+03   -0.24607E-02   -0.19631E-02  5125   0.837E-02    0.334E-01
RMM:   4    -0.413195864328E+03   -0.18706E-01   -0.40280E-02  5075   0.171E-01    0.647E-01
RMM:   5    -0.413171183496E+03    0.24681E-01   -0.93622E-03  4679   0.105E-01    0.590E-02
RMM:   6    -0.413171211555E+03   -0.28059E-04   -0.18805E-03  5435   0.429E-02    0.321E-02
RMM:   7    -0.413171214831E+03   -0.32757E-05   -0.34666E-04  5943   0.171E-02    0.194E-02
RMM:   8    -0.413171205843E+03    0.89874E-05   -0.63529E-05  5141   0.915E-03    0.799E-03
RMM:   9    -0.413171199332E+03    0.65114E-05   -0.79921E-06  3369   0.367E-03    0.407E-03
RMM:  10    -0.413171196971E+03    0.23609E-05   -0.17411E-06  2540   0.214E-03    0.260E-03
RMM:  11    -0.413171193251E+03    0.37200E-05   -0.12044E-06  2506   0.176E-03    0.145E-03
RMM:  12    -0.413171189841E+03    0.34100E-05   -0.67491E-07  2452   0.137E-03    0.554E-04
RMM:  13    -0.413171187799E+03    0.20415E-05   -0.34122E-07  2087   0.983E-04    0.311E-04
RMM:  14    -0.413171185931E+03    0.18682E-05   -0.19520E-07  1566   0.778E-04    0.211E-04
RMM:  15    -0.413171182801E+03    0.31303E-05   -0.17179E-07  1437   0.734E-04    0.144E-04
RMM:  16    -0.413171180092E+03    0.27092E-05   -0.12794E-07  1314   0.674E-04    0.137E-04
RMM:  17    -0.413171177151E+03    0.29410E-05   -0.11327E-07  1279   0.654E-04    0.737E-05
RMM:  18    -0.413171175401E+03    0.17495E-05   -0.64155E-08  1007   0.585E-04    0.360E-05
RMM:  19    -0.413171174471E+03    0.93023E-06   -0.35616E-08   849   0.549E-04
   19 T=    62. E= -.41286696E+03 F= -.41317117E+03 E0= -.41314910E+03  EK= 0.30421E+00 SP= 0.00E+00 SK= 0.00E+00
       N       E                     dE             d eps       ncg     rms          rms(c)
RMM:   1    -0.413170306091E+03    0.86931E-03   -0.91883E+00  4298   0.702E-01    0.900E-01
RMM:   2    -0.413174888128E+03   -0.45820E-02   -0.11249E-01  4270   0.900E-02    0.646E-01
RMM:   3    -0.413172417030E+03    0.24711E-02   -0.15420E-02  4956   0.513E-02    0.141E-01
RMM:   4    -0.413208266692E+03   -0.35850E-01   -0.39589E-02  5123   0.165E-01    0.790E-01
RMM:   5    -0.413171398476E+03    0.36868E-01   -0.17634E-02  4785   0.131E-01    0.532E-02
RMM:   6    -0.413171608137E+03   -0.20966E-03   -0.30670E-03  5733   0.543E-02    0.358E-02
RMM:   7    -0.413171598072E+03    0.10065E-04   -0.50324E-04  5675   0.205E-02    0.227E-02
RMM:   8    -0.413171585715E+03    0.12356E-04   -0.75827E-05  5212   0.953E-03    0.107E-02
RMM:   9    -0.413171579445E+03    0.62707E-05   -0.15041E-05  4113   0.437E-03    0.753E-03
RMM:  10    -0.413171575805E+03    0.36399E-05   -0.22360E-06  2584   0.232E-03    0.468E-03
RMM:  11    -0.413171573508E+03    0.22966E-05   -0.11004E-06  2504   0.169E-03    0.278E-03
RMM:  12    -0.413171568900E+03    0.46077E-05   -0.17526E-06  2560   0.204E-03    0.116E-03
RMM:  13    -0.413171566343E+03    0.25575E-05   -0.69173E-07  2409   0.142E-03    0.949E-04
RMM:  14    -0.413171566473E+03   -0.12986E-06   -0.27300E-07  2015   0.921E-04
   20 T=    62. E= -.41286669E+03 F= -.41317157E+03 E0= -.41314953E+03  EK= 0.30488E+00 SP= 0.00E+00 SK= 0.00E+00
       N       E                     dE             d eps       ncg     rms          rms(c)
RMM:   1    -0.413173692553E+03   -0.21262E-02   -0.92804E+00  4293   0.728E-01    0.891E-01
RMM:   2    -0.413176519516E+03   -0.28270E-02   -0.11426E-01  4280   0.912E-02    0.655E-01
RMM:   3    -0.413173172916E+03    0.33466E-02   -0.16129E-02  4871   0.492E-02    0.110E-01
RMM:   4    -0.413201755834E+03   -0.28583E-01   -0.30315E-02  5122   0.145E-01    0.706E-01
RMM:   5    -0.413172510649E+03    0.29245E-01   -0.14156E-02  4793   0.117E-01    0.484E-02
RMM:   6    -0.413172690201E+03   -0.17955E-03   -0.24958E-03  5801   0.480E-02    0.315E-02
RMM:   7    -0.413172693436E+03   -0.32351E-05   -0.38125E-04  5662   0.186E-02    0.199E-02
RMM:   8    -0.413172684321E+03    0.91155E-05   -0.70175E-05  5042   0.895E-03    0.104E-02
RMM:   9    -0.413172680298E+03    0.40228E-05   -0.13583E-05  4041   0.422E-03    0.769E-03
RMM:  10    -0.413172679514E+03    0.78358E-06   -0.18926E-06  2560   0.223E-03
   21 T=    62. E= -.41286685E+03 F= -.41317268E+03 E0= -.41315069E+03  EK= 0.30583E+00 SP= 0.00E+00 SK= 0.00E+00
       N       E                     dE             d eps       ncg     rms          rms(c)
RMM:   1    -0.413172569272E+03    0.11103E-03   -0.93010E+00  4301   0.716E-01    0.908E-01
RMM:   2    -0.413177539421E+03   -0.49701E-02   -0.11427E-01  4326   0.930E-02    0.656E-01
RMM:   3    -0.413179645820E+03   -0.21064E-02   -0.19725E-02  5112   0.836E-02    0.331E-01
RMM:   4    -0.413199704545E+03   -0.20059E-01   -0.41634E-02  5083   0.174E-01    0.663E-01
RMM:   5    -0.413173743919E+03    0.25961E-01   -0.99816E-03  4678   0.108E-01    0.583E-02
RMM:   6    -0.413173791512E+03   -0.47593E-04   -0.19899E-03  5489   0.440E-02    0.320E-02
RMM:   7    -0.413173796629E+03   -0.51173E-05   -0.35348E-04  5908   0.173E-02    0.194E-02
RMM:   8    -0.413173789229E+03    0.73999E-05   -0.64239E-05  5115   0.916E-03    0.803E-03
RMM:   9    -0.413173783105E+03    0.61243E-05   -0.84923E-06  3401   0.369E-03    0.416E-03
RMM:  10    -0.413173780845E+03    0.22600E-05   -0.18566E-06  2556   0.214E-03    0.270E-03
RMM:  11    -0.413173777431E+03    0.34143E-05   -0.11440E-06  2497   0.172E-03    0.146E-03
RMM:  12    -0.413173774013E+03    0.34177E-05   -0.68003E-07  2447   0.137E-03    0.532E-04
RMM:  13    -0.413173772074E+03    0.19397E-05   -0.33882E-07  2088   0.983E-04    0.315E-04
RMM:  14    -0.413173770454E+03    0.16192E-05   -0.18953E-07  1594   0.772E-04    0.217E-04
RMM:  15    -0.413173767376E+03    0.30783E-05   -0.15791E-07  1406   0.724E-04    0.140E-04
RMM:  16    -0.413173764705E+03    0.26710E-05   -0.11666E-07  1281   0.667E-04    0.143E-04
RMM:  17    -0.413173761930E+03    0.27755E-05   -0.95294E-08  1204   0.636E-04    0.737E-05
RMM:  18    -0.413173759642E+03    0.22878E-05   -0.64982E-08  1027   0.594E-04    0.330E-05
RMM:  19    -0.413173758691E+03    0.95081E-06   -0.32832E-08   828   0.553E-04
   22 T=    62. E= -.41286696E+03 F= -.41317376E+03 E0= -.41315182E+03  EK= 0.30680E+00 SP= 0.00E+00 SK= 0.00E+00
       N       E                     dE             d eps       ncg     rms          rms(c)
RMM:   1    -0.413173184115E+03    0.57553E-03   -0.92806E+00  4293   0.711E-01    0.909E-01
RMM:   2    -0.413178178001E+03   -0.49939E-02   -0.11364E-01  4284   0.926E-02    0.650E-01
RMM:   3    -0.413175175509E+03    0.30025E-02   -0.15331E-02  4917   0.518E-02    0.134E-01
RMM:   4    -0.413209689353E+03   -0.34514E-01   -0.37401E-02  5127   0.161E-01    0.774E-01
RMM:   5    -0.413174307745E+03    0.35382E-01   -0.17108E-02  4787   0.129E-01    0.522E-02
RMM:   6    -0.413174504696E+03   -0.19695E-03   -0.29423E-03  5760   0.531E-02    0.356E-02
RMM:   7    -0.413174492758E+03    0.11939E-04   -0.47546E-04  5651   0.207E-02    0.224E-02
RMM:   8    -0.413174478684E+03    0.14073E-04   -0.77439E-05  5168   0.964E-03    0.110E-02
RMM:   9    -0.413174471212E+03    0.74721E-05   -0.14952E-05  4113   0.440E-03    0.781E-03
RMM:  10    -0.413174466401E+03    0.48115E-05   -0.22096E-06  2587   0.232E-03    0.484E-03
RMM:  11    -0.413174462955E+03    0.34454E-05   -0.12097E-06  2513   0.176E-03    0.277E-03
RMM:  12    -0.413174456686E+03    0.62690E-05   -0.18405E-06  2570   0.208E-03    0.116E-03
RMM:  13    -0.413174453563E+03    0.31229E-05   -0.62878E-07  2387   0.139E-03    0.898E-04
RMM:  14    -0.413174453714E+03   -0.15047E-06   -0.26596E-07  2006   0.904E-04
   23 T=    63. E= -.41286674E+03 F= -.41317445E+03 E0= -.41315256E+03  EK= 0.30772E+00 SP= 0.00E+00 SK= 0.00E+00
       N       E                     dE             d eps       ncg     rms          rms(c)
RMM:   1    -0.413178279338E+03   -0.38258E-02   -0.93484E+00  4296   0.748E-01    0.892E-01
RMM:   2    -0.413180211785E+03   -0.19324E-02   -0.11812E-01  4287   0.962E-02    0.655E-01
RMM:   3    -0.413176364549E+03    0.38472E-02   -0.15385E-02  4775   0.488E-02    0.100E-01
RMM:   4    -0.413200018145E+03   -0.23654E-01   -0.24484E-02  5128   0.130E-01    0.643E-01
RMM:   5    -0.413175907825E+03    0.24110E-01   -0.11833E-02  4799   0.107E-01    0.464E-02
RMM:   6    -0.413176042456E+03   -0.13463E-03   -0.20957E-03  5818   0.434E-02    0.290E-02
RMM:   7    -0.413176041176E+03    0.12797E-05   -0.26752E-04  5632   0.164E-02    0.155E-02
RMM:   8    -0.413176036573E+03    0.46034E-05   -0.55877E-05  4993   0.777E-03    0.102E-02
RMM:   9    -0.413176031645E+03    0.49280E-05   -0.11493E-05  3911   0.391E-03    0.762E-03
RMM:  10    -0.413176029970E+03    0.16747E-05   -0.17546E-06  2548   0.223E-03    0.469E-03
RMM:  11    -0.413176028169E+03    0.18010E-05   -0.17107E-06  2544   0.206E-03    0.237E-03
RMM:  12    -0.413176025625E+03    0.25443E-05   -0.13990E-06  2506   0.187E-03    0.925E-04
RMM:  13    -0.413176024842E+03    0.78292E-06   -0.45853E-07  2266   0.120E-03
   24 T=    63. E= -.41286701E+03 F= -.41317602E+03 E0= -.41315418E+03  EK= 0.30902E+00 SP= 0.00E+00 SK= 0.00E+00
       N       E                     dE             d eps       ncg     rms          rms(c)
RMM:   1    -0.413177397751E+03   -0.13721E-02   -0.94121E+00  4297   0.746E-01    0.907E-01
RMM:   2    -0.413181018636E+03   -0.36209E-02   -0.11740E-01  4283   0.978E-02    0.661E-01
RMM:   3    -0.413177210816E+03    0.38078E-02   -0.15551E-02  4703   0.489E-02    0.927E-02
RMM:   4    -0.413196204635E+03   -0.18994E-01   -0.19447E-02  5136   0.116E-01    0.578E-01
RMM:   5    -0.413176879038E+03    0.19326E-01   -0.95612E-03  4810   0.959E-02    0.446E-02
RMM:   6    -0.413176974348E+03   -0.95310E-04   -0.16690E-03  5818   0.387E-02    0.268E-02
RMM:   7    -0.413176970241E+03    0.41065E-05   -0.19214E-04  5544   0.143E-02    0.126E-02
RMM:   8    -0.413176965323E+03    0.49186E-05   -0.32863E-05  4744   0.597E-03    0.870E-03
RMM:   9    -0.413176962038E+03    0.32851E-05   -0.72933E-06  3339   0.309E-03    0.645E-03
RMM:  10    -0.413176960427E+03    0.16105E-05   -0.14999E-06  2535   0.205E-03    0.417E-03
RMM:  11    -0.413176956966E+03    0.34608E-05   -0.20606E-06  2584   0.223E-03    0.203E-03
RMM:  12    -0.413176953413E+03    0.35533E-05   -0.11261E-06  2480   0.174E-03    0.113E-03
RMM:  13    -0.413176952848E+03    0.56457E-06   -0.34602E-07  2233   0.107E-03
   25 T=    63. E= -.41286673E+03 F= -.41317695E+03 E0= -.41315516E+03  EK= 0.31022E+00 SP= 0.00E+00 SK= 0.00E+00
       N       E                     dE             d eps       ncg     rms          rms(c)
RMM:   1    -0.413177018608E+03   -0.65195E-04   -0.94045E+00  4294   0.730E-01    0.919E-01
RMM:   2    -0.413181852579E+03   -0.48340E-02   -0.11558E-01  4285   0.975E-02    0.655E-01
RMM:   3    -0.413178472165E+03    0.33804E-02   -0.15098E-02  4604   0.476E-02    0.937E-02
RMM:   4    -0.413192452904E+03   -0.13981E-01   -0.14249E-02  5145   0.995E-02    0.498E-01
RMM:   5    -0.413178261238E+03    0.14192E-01   -0.71446E-03  4819   0.822E-02    0.438E-02
RMM:   6    -0.413178312625E+03   -0.51388E-04   -0.12843E-03  5825   0.332E-02    0.251E-02
RMM:   7    -0.413178302300E+03    0.10325E-04   -0.13591E-04  5447   0.126E-02    0.113E-02
RMM:   8    -0.413178294977E+03    0.73225E-05   -0.21674E-05  4303   0.488E-03    0.777E-03
RMM:   9    -0.413178291351E+03    0.36263E-05   -0.47979E-06  2956   0.277E-03    0.547E-03
RMM:  10    -0.413178287736E+03    0.36147E-05   -0.10778E-06  2505   0.181E-03    0.356E-03
RMM:  11    -0.413178279144E+03    0.85922E-05   -0.19191E-06  2554   0.223E-03    0.197E-03
RMM:  12    -0.413178274351E+03    0.47935E-05   -0.75162E-07  2415   0.149E-03    0.104E-03
RMM:  13    -0.413178273407E+03    0.94398E-06   -0.28433E-07  2095   0.943E-04
   26 T=    63. E= -.41286669E+03 F= -.41317827E+03 E0= -.41315653E+03  EK= 0.31158E+00 SP= 0.00E+00 SK= 0.00E+00
       N       E                     dE             d eps       ncg     rms          rms(c)
RMM:   1    -0.413179810770E+03   -0.15364E-02   -0.94098E+00  4291   0.764E-01    0.897E-01
RMM:   2    -0.413183814097E+03   -0.40033E-02   -0.12011E-01  4277   0.103E-01    0.656E-01
RMM:   3    -0.413180273282E+03    0.35408E-02   -0.15139E-02  4613   0.504E-02    0.889E-02
RMM:   4    -0.413195138014E+03   -0.14865E-01   -0.15107E-02  5146   0.103E-01    0.512E-01
RMM:   5    -0.413180062028E+03    0.15076E-01   -0.75368E-03  4819   0.844E-02    0.431E-02
RMM:   6    -0.413180123377E+03   -0.61349E-04   -0.13456E-03  5838   0.339E-02    0.252E-02
RMM:   7    -0.413180119764E+03    0.36130E-05   -0.15362E-04  5496   0.131E-02    0.120E-02
RMM:   8    -0.413180112719E+03    0.70450E-05   -0.25551E-05  4551   0.536E-03    0.788E-03
RMM:   9    -0.413180111782E+03    0.93747E-06   -0.67442E-06  3314   0.304E-03
   27 T=    64. E= -.41286696E+03 F= -.41318011E+03 E0= -.41315842E+03  EK= 0.31315E+00 SP= 0.00E+00 SK= 0.00E+00
       N       E                     dE             d eps       ncg     rms          rms(c)
RMM:   1    -0.413180015503E+03    0.97217E-04   -0.95165E+00  4293   0.760E-01    0.908E-01
RMM:   2    -0.413185067350E+03   -0.50518E-02   -0.11842E-01  4324   0.102E-01    0.666E-01
RMM:   3    -0.413187926620E+03   -0.28593E-02   -0.20864E-02  5107   0.922E-02    0.351E-01
RMM:   4    -0.413207515557E+03   -0.19589E-01   -0.42829E-02  5067   0.177E-01    0.667E-01
RMM:   5    -0.413181203957E+03    0.26312E-01   -0.98034E-03  4680   0.108E-01    0.576E-02
RMM:   6    -0.413181247564E+03   -0.43607E-04   -0.20151E-03  5611   0.434E-02    0.318E-02
RMM:   7    -0.413181252828E+03   -0.52636E-05   -0.34785E-04  5858   0.174E-02    0.198E-02
RMM:   8    -0.413181246677E+03    0.61509E-05   -0.69119E-05  5069   0.947E-03    0.826E-03
RMM:   9    -0.413181240518E+03    0.61587E-05   -0.93643E-06  3535   0.395E-03    0.414E-03
RMM:  10    -0.413181238477E+03    0.20412E-05   -0.18076E-06  2557   0.214E-03    0.267E-03
RMM:  11    -0.413181235163E+03    0.33139E-05   -0.11879E-06  2500   0.175E-03    0.144E-03
RMM:  12    -0.413181231862E+03    0.33007E-05   -0.69129E-07  2444   0.136E-03    0.520E-04
RMM:  13    -0.413181229956E+03    0.19058E-05   -0.34618E-07  2091   0.983E-04    0.319E-04
RMM:  14    -0.413181228392E+03    0.15644E-05   -0.18956E-07  1545   0.767E-04    0.226E-04
RMM:  15    -0.413181223889E+03    0.45034E-05   -0.20887E-07  1480   0.760E-04    0.200E-04
RMM:  16    -0.413181221938E+03    0.19511E-05   -0.96466E-08  1123   0.638E-04    0.138E-04
RMM:  17    -0.413181218610E+03    0.33275E-05   -0.10098E-07  1251   0.657E-04    0.697E-05
RMM:  18    -0.413181216870E+03    0.17397E-05   -0.53537E-08   957   0.588E-04    0.533E-05
RMM:  19    -0.413181215532E+03    0.13381E-05   -0.33507E-08   857   0.565E-04    0.352E-05
RMM:  20    -0.413181215210E+03    0.32172E-06   -0.16095E-08   722   0.541E-04
   28 T=    64. E= -.41286664E+03 F= -.41318122E+03 E0= -.41315957E+03  EK= 0.31457E+00 SP= 0.00E+00 SK= 0.00E+00
       N       E                     dE             d eps       ncg     rms          rms(c)
RMM:   1    -0.413182114246E+03   -0.89871E-03   -0.95444E+00  4285   0.756E-01    0.927E-01
RMM:   2    -0.413186894267E+03   -0.47800E-02   -0.11799E-01  4274   0.103E-01    0.661E-01
RMM:   3    -0.413183433876E+03    0.34604E-02   -0.15371E-02  4648   0.511E-02    0.993E-02
RMM:   4    -0.413200486123E+03   -0.17052E-01   -0.17364E-02  5146   0.110E-01    0.548E-01
RMM:   5    -0.413183192082E+03    0.17294E-01   -0.87096E-03  4815   0.904E-02    0.451E-02
RMM:   6    -0.413183267392E+03   -0.75310E-04   -0.15286E-03  5832   0.365E-02    0.276E-02
RMM:   7    -0.413183264279E+03    0.31128E-05   -0.20359E-04  5535   0.149E-02    0.142E-02
RMM:   8    -0.413183253258E+03    0.11021E-04   -0.33223E-05  4724   0.621E-03    0.858E-03
RMM:   9    -0.413183251039E+03    0.22193E-05   -0.85845E-06  3581   0.339E-03    0.688E-03
RMM:  10    -0.413183245742E+03    0.52969E-05   -0.14651E-06  2517   0.215E-03    0.388E-03
RMM:  11    -0.413183240935E+03    0.48067E-05   -0.12216E-06  2509   0.180E-03    0.206E-03
RMM:  12    -0.413183234808E+03    0.61270E-05   -0.11133E-06  2491   0.168E-03    0.990E-04
RMM:  13    -0.413183232872E+03    0.19367E-05   -0.38821E-07  2220   0.110E-03    0.537E-04
RMM:  14    -0.413183231883E+03    0.98852E-06   -0.18202E-07  1674   0.773E-04
   29 T=    64. E= -.41286685E+03 F= -.41318323E+03 E0= -.41316163E+03  EK= 0.31638E+00 SP= 0.00E+00 SK= 0.00E+00
       N       E                     dE             d eps       ncg     rms          rms(c)
RMM:   1    -0.413193121881E+03   -0.98890E-02   -0.96184E+00  4293   0.837E-01    0.907E-01
RMM:   2    -0.413189185523E+03    0.39364E-02   -0.12902E-01  4276   0.115E-01    0.660E-01
RMM:   3    -0.413185189195E+03    0.39963E-02   -0.14580E-02  4438   0.525E-02    0.931E-02
RMM:   4    -0.413191772000E+03   -0.65828E-02   -0.69293E-03  5148   0.696E-02    0.343E-01
RMM:   5    -0.413185136304E+03    0.66357E-02   -0.34217E-03  4829   0.566E-02    0.410E-02
RMM:   6    -0.413185166772E+03   -0.30468E-04   -0.76271E-04  5763   0.260E-02    0.276E-02
RMM:   7    -0.413185151776E+03    0.14996E-04   -0.24630E-04  5278   0.160E-02    0.173E-02
RMM:   8    -0.413185138024E+03    0.13752E-04   -0.21960E-05  4462   0.604E-03    0.736E-03
RMM:   9    -0.413185135890E+03    0.21339E-05   -0.33652E-06  2752   0.242E-03    0.484E-03
RMM:  10    -0.413185131864E+03    0.40263E-05   -0.13956E-06  2505   0.188E-03    0.258E-03
RMM:  11    -0.413185128057E+03    0.38070E-05   -0.88047E-07  2453   0.153E-03    0.123E-03
RMM:  12    -0.413185124673E+03    0.33842E-05   -0.48112E-07  2261   0.116E-03    0.585E-04
RMM:  13    -0.413185122519E+03    0.21532E-05   -0.25322E-07  1842   0.859E-04    0.289E-04
RMM:  14    -0.413185120191E+03    0.23288E-05   -0.13627E-07  1330   0.700E-04    0.182E-04
RMM:  15    -0.413185116587E+03    0.36039E-05   -0.10272E-07  1191   0.665E-04    0.103E-04
RMM:  16    -0.413185114232E+03    0.23545E-05   -0.65692E-08  1031   0.618E-04    0.765E-05
RMM:  17    -0.413185111575E+03    0.26568E-05   -0.59172E-08  1075   0.607E-04    0.484E-05
RMM:  18    -0.413185108957E+03    0.26186E-05   -0.52289E-08  1084   0.593E-04    0.292E-05
RMM:  19    -0.413185108304E+03    0.65258E-06   -0.19310E-08   736   0.530E-04
   30 T=    65. E= -.41286682E+03 F= -.41318511E+03 E0= -.41316356E+03  EK= 0.31829E+00 SP= 0.00E+00 SK= 0.00E+00
       N       E                     dE             d eps       ncg     rms          rms(c)
RMM:   1    -0.413191939025E+03   -0.68301E-02   -0.97261E+00  4292   0.816E-01    0.911E-01
RMM:   2    -0.413191343814E+03    0.59521E-03   -0.12123E-01  4277   0.114E-01    0.671E-01
RMM:   3    -0.413186980864E+03    0.43630E-02   -0.16490E-02  4553   0.614E-02    0.839E-02
RMM:   4    -0.413202027422E+03   -0.15047E-01   -0.15182E-02  5137   0.103E-01    0.516E-01
RMM:   5    -0.413186753030E+03    0.15274E-01   -0.76971E-03  4814   0.847E-02    0.434E-02
RMM:   6    -0.413186815032E+03   -0.62002E-04   -0.13576E-03  5837   0.341E-02    0.264E-02
RMM:   7    -0.413186821366E+03   -0.63341E-05   -0.21225E-04  5515   0.149E-02    0.152E-02
RMM:   8    -0.413186809813E+03    0.11553E-04   -0.36198E-05  4794   0.662E-03    0.828E-03
RMM:   9    -0.413186809125E+03    0.68853E-06   -0.78851E-06  3443   0.338E-03
   31 T=    65. E= -.41286656E+03 F= -.41318681E+03 E0= -.41316531E+03  EK= 0.32025E+00 SP= 0.00E+00 SK= 0.00E+00
       N       E                     dE             d eps       ncg     rms          rms(c)
RMM:   1    -0.413190018838E+03   -0.32090E-02   -0.97317E+00  4296   0.828E-01    0.933E-01
RMM:   2    -0.413193493493E+03   -0.34747E-02   -0.12218E-01  4311   0.120E-01    0.669E-01
RMM:   3    -0.413193142002E+03    0.35149E-03   -0.18128E-02  5013   0.854E-02    0.272E-01
RMM:   4    -0.413224343183E+03   -0.31201E-01   -0.46057E-02  5089   0.182E-01    0.768E-01
RMM:   5    -0.413189281657E+03    0.35062E-01   -0.14857E-02  4744   0.126E-01    0.576E-02
RMM:   6    -0.413189408493E+03   -0.12684E-03   -0.28616E-03  5749   0.510E-02    0.354E-02
RMM:   7    -0.413189406162E+03    0.23311E-05   -0.45230E-04  5781   0.194E-02    0.228E-02
RMM:   8    -0.413189396763E+03    0.93990E-05   -0.84973E-05  5155   0.102E-02    0.104E-02
RMM:   9    -0.413189386864E+03    0.98990E-05   -0.12873E-05  3930   0.444E-03    0.537E-03
RMM:  10    -0.413189381418E+03    0.54457E-05   -0.27762E-06  2661   0.244E-03    0.352E-03
RMM:  11    -0.413189376037E+03    0.53811E-05   -0.11697E-06  2498   0.179E-03    0.184E-03
RMM:  12    -0.413189368187E+03    0.78502E-05   -0.94917E-07  2471   0.159E-03    0.636E-04
RMM:  13    -0.413189364462E+03    0.37244E-05   -0.47481E-07  2302   0.116E-03    0.409E-04
RMM:  14    -0.413189362664E+03    0.17982E-05   -0.24731E-07  1860   0.857E-04    0.315E-04
RMM:  15    -0.413189358447E+03    0.42172E-05   -0.15611E-07  1470   0.737E-04    0.156E-04
RMM:  16    -0.413189353787E+03    0.46602E-05   -0.11508E-07  1317   0.683E-04    0.195E-04
RMM:  17    -0.413189349842E+03    0.39450E-05   -0.83465E-08  1131   0.630E-04    0.137E-04
RMM:  18    -0.413189347001E+03    0.28402E-05   -0.62019E-08  1084   0.610E-04    0.578E-05
RMM:  19    -0.413189344353E+03    0.26489E-05   -0.53596E-08  1112   0.600E-04    0.337E-05
RMM:  20    -0.413189344008E+03    0.34484E-06   -0.22585E-08   780   0.538E-04
   32 T=    66. E= -.41286680E+03 F= -.41318934E+03 E0= -.41316790E+03  EK= 0.32254E+00 SP= 0.00E+00 SK= 0.00E+00
       N       E                     dE             d eps       ncg     rms          rms(c)
RMM:   1    -0.413190823324E+03   -0.14790E-02   -0.97116E+00  4295   0.831E-01    0.921E-01
RMM:   2    -0.413195182404E+03   -0.43591E-02   -0.12332E-01  4284   0.122E-01    0.665E-01
RMM:   3    -0.413191318909E+03    0.38635E-02   -0.15371E-02  4330   0.625E-02    0.835E-02
RMM:   4    -0.413193719439E+03   -0.24005E-02   -0.27959E-03  5166   0.443E-02    0.209E-01
RMM:   5    -0.413191331942E+03    0.23875E-02   -0.12774E-03  4819   0.351E-02    0.408E-02
RMM:   6    -0.413191359557E+03   -0.27615E-04   -0.52040E-04  5541   0.222E-02    0.304E-02
RMM:   7    -0.413191319981E+03    0.39576E-04   -0.22656E-04  5048   0.155E-02    0.170E-02
RMM:   8    -0.413191312783E+03    0.71980E-05   -0.24758E-05  4478   0.553E-03    0.633E-03
RMM:   9    -0.413191311008E+03    0.17752E-05   -0.27615E-06  2579   0.221E-03    0.377E-03
RMM:  10    -0.413191306222E+03    0.47860E-05   -0.89554E-07  2466   0.157E-03    0.204E-03
RMM:  11    -0.413191301768E+03    0.44543E-05   -0.59381E-07  2351   0.118E-03    0.794E-04
RMM:  12    -0.413191297847E+03    0.39210E-05   -0.30763E-07  1952   0.910E-04    0.302E-04
RMM:  13    -0.413191294693E+03    0.31536E-05   -0.16385E-07  1475   0.741E-04    0.227E-04
RMM:  14    -0.413191291808E+03    0.28846E-05   -0.86255E-08  1055   0.647E-04    0.154E-04
RMM:  15    -0.413191286956E+03    0.48523E-05   -0.93280E-08  1240   0.665E-04    0.861E-05
RMM:  16    -0.413191284555E+03    0.24006E-05   -0.55663E-08  1081   0.604E-04    0.951E-05
RMM:  17    -0.413191281991E+03    0.25645E-05   -0.40866E-08   960   0.573E-04    0.368E-05
RMM:  18    -0.413191280392E+03    0.15991E-05   -0.26410E-08   832   0.544E-04    0.297E-05
RMM:  19    -0.413191279928E+03    0.46390E-06   -0.11055E-08   646   0.517E-04
   33 T=    66. E= -.41286660E+03 F= -.41319128E+03 E0= -.41316988E+03  EK= 0.32468E+00 SP= 0.00E+00 SK= 0.00E+00
       N       E                     dE             d eps       ncg     rms          rms(c)
RMM:   1    -0.413194127641E+03   -0.28472E-02   -0.98468E+00  4301   0.850E-01    0.916E-01
RMM:   2    -0.413197722726E+03   -0.35951E-02   -0.12702E-01  4278   0.127E-01    0.676E-01
RMM:   3    -0.413193666098E+03    0.40566E-02   -0.16210E-02  4310   0.666E-02    0.710E-02
RMM:   4    -0.413195763527E+03   -0.20974E-02   -0.24427E-03  5179   0.413E-02    0.195E-01
RMM:   5    -0.413193675898E+03    0.20876E-02   -0.11148E-03  4819   0.328E-02    0.400E-02
RMM:   6    -0.413193702402E+03   -0.26504E-04   -0.48237E-04  5543   0.211E-02    0.287E-02
RMM:   7    -0.413193673592E+03    0.28810E-04   -0.21782E-04  5034   0.151E-02    0.186E-02
RMM:   8    -0.413193665841E+03    0.77513E-05   -0.23893E-05  4207   0.528E-03    0.625E-03
RMM:   9    -0.413193665130E+03    0.71042E-06   -0.26248E-06  2558   0.218E-03
   34 T=    67. E= -.41286663E+03 F= -.41319367E+03 E0= -.41317231E+03  EK= 0.32703E+00 SP= 0.00E+00 SK= 0.00E+00
       N       E                     dE             d eps       ncg     rms          rms(c)
RMM:   1    -0.413211978574E+03   -0.18313E-01   -0.10076E+01  4304   0.954E-01    0.937E-01
RMM:   2    -0.413200026461E+03    0.11952E-01   -0.14643E-01  4278   0.133E-01    0.680E-01
RMM:   3    -0.413196330057E+03    0.36964E-02   -0.14275E-02  4368   0.636E-02    0.113E-01
RMM:   4    -0.413199711565E+03   -0.33815E-02   -0.40964E-03  5174   0.539E-02    0.245E-01
RMM:   5    -0.413196381344E+03    0.33302E-02   -0.17080E-03  4820   0.409E-02    0.424E-02
RMM:   6    -0.413196398157E+03   -0.16814E-04   -0.54694E-04  5620   0.232E-02    0.326E-02
RMM:   7    -0.413196368956E+03    0.29202E-04   -0.25884E-04  5051   0.157E-02    0.176E-02
RMM:   8    -0.413196360135E+03    0.88204E-05   -0.25432E-05  4610   0.571E-03    0.679E-03
RMM:   9    -0.413196357922E+03    0.22134E-05   -0.33758E-06  2632   0.225E-03    0.366E-03
RMM:  10    -0.413196351738E+03    0.61839E-05   -0.10104E-06  2479   0.165E-03    0.195E-03
RMM:  11    -0.413196346000E+03    0.57380E-05   -0.61933E-07  2366   0.122E-03    0.829E-04
RMM:  12    -0.413196340873E+03    0.51266E-05   -0.33588E-07  1998   0.948E-04    0.342E-04
RMM:  13    -0.413196336640E+03    0.42331E-05   -0.19054E-07  1560   0.771E-04    0.246E-04
RMM:  14    -0.413196332260E+03    0.43800E-05   -0.11240E-07  1148   0.673E-04    0.172E-04
RMM:  15    -0.413196325638E+03    0.66226E-05   -0.12132E-07  1372   0.690E-04    0.110E-04
RMM:  16    -0.413196322567E+03    0.30711E-05   -0.63636E-08  1074   0.598E-04    0.953E-05
RMM:  17    -0.413196319047E+03    0.35200E-05   -0.54043E-08  1054   0.580E-04    0.359E-05
RMM:  18    -0.413196317570E+03    0.14767E-05   -0.27221E-08   803   0.533E-04    0.259E-05
RMM:  19    -0.413196317070E+03    0.50008E-06   -0.14100E-08   678   0.515E-04
   35 T=    67. E= -.41286680E+03 F= -.41319632E+03 E0= -.41317501E+03  EK= 0.32951E+00 SP= 0.00E+00 SK= 0.00E+00
       N       E                     dE             d eps       ncg     rms          rms(c)
RMM:   1    -0.413197712845E+03   -0.13953E-02   -0.99223E+00  4300   0.870E-01    0.937E-01
RMM:   2    -0.413201919814E+03   -0.42070E-02   -0.12840E-01  4260   0.132E-01    0.672E-01
RMM:   3    -0.413198510526E+03    0.34093E-02   -0.15414E-02  4444   0.668E-02    0.972E-02
RMM:   4    -0.413206643533E+03   -0.81330E-02   -0.83752E-03  5176   0.772E-02    0.382E-01
RMM:   5    -0.413198482834E+03    0.81607E-02   -0.41662E-03  4819   0.634E-02    0.434E-02
RMM:   6    -0.413198498989E+03   -0.16155E-04   -0.94863E-04  5745   0.300E-02    0.310E-02
RMM:   7    -0.413198484222E+03    0.14768E-04   -0.30383E-04  5267   0.175E-02    0.189E-02
RMM:   8    -0.413198469085E+03    0.15137E-04   -0.30867E-05  4821   0.669E-03    0.856E-03
RMM:   9    -0.413198466325E+03    0.27599E-05   -0.48056E-06  2874   0.273E-03    0.518E-03
RMM:  10    -0.413198460856E+03    0.54689E-05   -0.15070E-06  2511   0.206E-03    0.271E-03
RMM:  11    -0.413198455512E+03    0.53436E-05   -0.94933E-07  2462   0.161E-03    0.135E-03
RMM:  12    -0.413198450442E+03    0.50701E-05   -0.55586E-07  2336   0.124E-03    0.655E-04
RMM:  13    -0.413198447390E+03    0.30519E-05   -0.28587E-07  1944   0.910E-04    0.326E-04
RMM:  14    -0.413198444477E+03    0.29137E-05   -0.14397E-07  1399   0.714E-04    0.198E-04
RMM:  15    -0.413198440104E+03    0.43726E-05   -0.86288E-08  1105   0.652E-04    0.107E-04
RMM:  16    -0.413198436773E+03    0.33309E-05   -0.60459E-08  1026   0.623E-04    0.735E-05
RMM:  17    -0.413198434363E+03    0.24103E-05   -0.42555E-08   944   0.596E-04    0.483E-05
RMM:  18    -0.413198430039E+03    0.43236E-05   -0.53258E-08  1167   0.617E-04    0.309E-05
RMM:  19    -0.413198429173E+03    0.86651E-06   -0.17745E-08   713   0.534E-04
   36 T=    68. E= -.41286661E+03 F= -.41319843E+03 E0= -.41317717E+03  EK= 0.33182E+00 SP= 0.00E+00 SK= 0.00E+00
       N       E                     dE             d eps       ncg     rms          rms(c)
RMM:   1    -0.413207630684E+03   -0.92006E-02   -0.10081E+01  4305   0.945E-01    0.923E-01
RMM:   2    -0.413205668612E+03    0.19621E-02   -0.13839E-01  4259   0.134E-01    0.681E-01
RMM:   3    -0.413201478246E+03    0.41904E-02   -0.15308E-02  4547   0.632E-02    0.101E-01
RMM:   4    -0.413216387632E+03   -0.14909E-01   -0.15100E-02  5156   0.103E-01    0.514E-01
RMM:   5    -0.413201361061E+03    0.15027E-01   -0.76801E-03  4818   0.853E-02    0.450E-02
RMM:   6    -0.413201372007E+03   -0.10946E-04   -0.13600E-03  5815   0.357E-02    0.300E-02
RMM:   7    -0.413201381975E+03   -0.99675E-05   -0.32726E-04  5435   0.177E-02    0.193E-02
RMM:   8    -0.413201364646E+03    0.17328E-04   -0.44443E-05  4936   0.777E-03    0.870E-03
RMM:   9    -0.413201363520E+03    0.11258E-05   -0.79671E-06  3282   0.346E-03    0.565E-03
RMM:  10    -0.413201360869E+03    0.26509E-05   -0.16375E-06  2525   0.219E-03    0.307E-03
RMM:  11    -0.413201358106E+03    0.27633E-05   -0.10955E-06  2501   0.170E-03    0.158E-03
RMM:  12    -0.413201354673E+03    0.34327E-05   -0.81792E-07  2439   0.145E-03    0.845E-04
RMM:  13    -0.413201352940E+03    0.17339E-05   -0.34191E-07  2083   0.100E-03    0.420E-04
RMM:  14    -0.413201351709E+03    0.12302E-05   -0.16980E-07  1498   0.747E-04    0.272E-04
RMM:  15    -0.413201348922E+03    0.27876E-05   -0.11789E-07  1314   0.693E-04    0.114E-04
RMM:  16    -0.413201346644E+03    0.22780E-05   -0.75823E-08  1086   0.638E-04    0.891E-05
RMM:  17    -0.413201344733E+03    0.19104E-05   -0.49470E-08   945   0.604E-04    0.657E-05
RMM:  18    -0.413201341718E+03    0.30151E-05   -0.47662E-08   987   0.604E-04    0.305E-05
RMM:  19    -0.413201340750E+03    0.96775E-06   -0.24922E-08   815   0.563E-04
   37 T=    68. E= -.41286690E+03 F= -.41320134E+03 E0= -.41318012E+03  EK= 0.33444E+00 SP= 0.00E+00 SK= 0.00E+00
       N       E                     dE             d eps       ncg     rms          rms(c)
RMM:   1    -0.413214240822E+03   -0.12899E-01   -0.10235E+01  4308   0.100E+00    0.940E-01
RMM:   2    -0.413208357424E+03    0.58834E-02   -0.15087E-01  4260   0.132E-01    0.688E-01
RMM:   3    -0.413204333031E+03    0.40244E-02   -0.14517E-02  4792   0.594E-02    0.147E-01
RMM:   4    -0.413241822064E+03   -0.37489E-01   -0.38939E-02  5142   0.165E-01    0.805E-01
RMM:   5    -0.413203752411E+03    0.38070E-01   -0.19110E-02  4798   0.135E-01    0.531E-02
RMM:   6    -0.413203842311E+03   -0.89900E-04   -0.31149E-03  5843   0.527E-02    0.339E-02
RMM:   7    -0.413203850002E+03   -0.76913E-05   -0.37854E-04  5628   0.185E-02    0.172E-02
RMM:   8    -0.413203843794E+03    0.62087E-05   -0.47028E-05  4723   0.700E-03    0.911E-03
RMM:   9    -0.413203840179E+03    0.36147E-05   -0.92436E-06  3236   0.338E-03    0.559E-03
RMM:  10    -0.413203837625E+03    0.25537E-05   -0.17912E-06  2543   0.204E-03    0.392E-03
RMM:  11    -0.413203833391E+03    0.42349E-05   -0.17679E-06  2523   0.216E-03    0.214E-03
RMM:  12    -0.413203827713E+03    0.56772E-05   -0.15046E-06  2515   0.197E-03    0.115E-03
RMM:  13    -0.413203825844E+03    0.18697E-05   -0.49709E-07  2343   0.126E-03    0.785E-04
RMM:  14    -0.413203825377E+03    0.46620E-06   -0.22090E-07  1861   0.844E-04
   38 T=    69. E= -.41286685E+03 F= -.41320383E+03 E0= -.41318265E+03  EK= 0.33698E+00 SP= 0.00E+00 SK= 0.00E+00
       N       E                     dE             d eps       ncg     rms          rms(c)
RMM:   1    -0.413209720739E+03   -0.58949E-02   -0.10198E+01  4309   0.990E-01    0.953E-01
RMM:   2    -0.413210670008E+03   -0.94927E-03   -0.13234E-01  4262   0.125E-01    0.681E-01
RMM:   3    -0.413206959326E+03    0.37107E-02   -0.15770E-02  4886   0.582E-02    0.142E-01
RMM:   4    -0.413244614471E+03   -0.37655E-01   -0.39915E-02  5134   0.167E-01    0.808E-01
RMM:   5    -0.413206262392E+03    0.38352E-01   -0.19027E-02  4794   0.135E-01    0.546E-02
RMM:   6    -0.413206356033E+03   -0.93641E-04   -0.31869E-03  5822   0.531E-02    0.346E-02
RMM:   7    -0.413206365809E+03   -0.97754E-05   -0.41377E-04  5692   0.190E-02    0.185E-02
RMM:   8    -0.413206354528E+03    0.11280E-04   -0.61657E-05  5015   0.814E-03    0.105E-02
RMM:   9    -0.413206351945E+03    0.25837E-05   -0.22080E-05  4587   0.499E-03    0.806E-03
RMM:  10    -0.413206343913E+03    0.80312E-05   -0.31092E-06  2694   0.278E-03    0.452E-03
RMM:  11    -0.413206339516E+03    0.43972E-05   -0.14369E-06  2501   0.195E-03    0.281E-03
RMM:  12    -0.413206328424E+03    0.11093E-04   -0.19377E-06  2545   0.226E-03    0.136E-03
RMM:  13    -0.413206323454E+03    0.49700E-05   -0.71142E-07  2424   0.150E-03    0.880E-04
RMM:  14    -0.413206323012E+03    0.44154E-06   -0.28024E-07  2096   0.954E-04
   39 T=    69. E= -.41286676E+03 F= -.41320632E+03 E0= -.41318518E+03  EK= 0.33957E+00 SP= 0.00E+00 SK= 0.00E+00
       N       E                     dE             d eps       ncg     rms          rms(c)
RMM:   1    -0.413223867541E+03   -0.17544E-01   -0.10352E+01  4310   0.110E+00    0.931E-01
RMM:   2    -0.413214163328E+03    0.97042E-02   -0.15797E-01  4264   0.133E-01    0.688E-01
RMM:   3    -0.413210284457E+03    0.38789E-02   -0.14186E-02  4944   0.606E-02    0.181E-01
RMM:   4    -0.413260162477E+03   -0.49878E-01   -0.54289E-02  5132   0.194E-01    0.925E-01
RMM:   5    -0.413209157123E+03    0.51005E-01   -0.25109E-02  4783   0.155E-01    0.589E-02
RMM:   6    -0.413209306575E+03   -0.14945E-03   -0.41322E-03  5827   0.603E-02    0.362E-02
RMM:   7    -0.413209318840E+03   -0.12266E-04   -0.49531E-04  5752   0.204E-02    0.199E-02
RMM:   8    -0.413209318376E+03    0.46427E-06   -0.92528E-05  5188   0.944E-03    0.124E-02
RMM:   9    -0.413209309009E+03    0.93672E-05   -0.27303E-05  4689   0.563E-03    0.774E-03
RMM:  10    -0.413209304755E+03    0.42535E-05   -0.44236E-06  2836   0.301E-03    0.463E-03
RMM:  11    -0.413209301376E+03    0.33790E-05   -0.17222E-06  2512   0.215E-03    0.282E-03
RMM:  12    -0.413209293704E+03    0.76721E-05   -0.18414E-06  2530   0.221E-03    0.106E-03
RMM:  13    -0.413209289357E+03    0.43470E-05   -0.75183E-07  2436   0.151E-03    0.854E-04
RMM:  14    -0.413209289123E+03    0.23435E-06   -0.30748E-07  2132   0.984E-04
   40 T=    70. E= -.41286697E+03 F= -.41320929E+03 E0= -.41318819E+03  EK= 0.34232E+00 SP= 0.00E+00 SK= 0.00E+00
       N       E                     dE             d eps       ncg     rms          rms(c)
RMM:   1    -0.413222403770E+03   -0.13114E-01   -0.10460E+01  4312   0.112E+00    0.947E-01
RMM:   2    -0.413216260535E+03    0.61432E-02   -0.14723E-01  4265   0.140E-01    0.696E-01
RMM:   3    -0.413212889609E+03    0.33709E-02   -0.16279E-02  4991   0.665E-02    0.194E-01
RMM:   4    -0.413263134514E+03   -0.50245E-01   -0.57573E-02  5126   0.200E-01    0.933E-01
RMM:   5    -0.413211205500E+03    0.51929E-01   -0.24884E-02  4784   0.156E-01    0.599E-02
RMM:   6    -0.413211361879E+03   -0.15638E-03   -0.41861E-03  5813   0.606E-02    0.362E-02
RMM:   7    -0.413211375764E+03   -0.13884E-04   -0.51621E-04  5779   0.207E-02    0.210E-02
RMM:   8    -0.413211377651E+03   -0.18874E-05   -0.11374E-04  5238   0.105E-02    0.138E-02
RMM:   9    -0.413211365453E+03    0.12198E-04   -0.26891E-05  4708   0.589E-03    0.738E-03
RMM:  10    -0.413211361465E+03    0.39879E-05   -0.46676E-06  2871   0.300E-03    0.447E-03
RMM:  11    -0.413211358407E+03    0.30584E-05   -0.15361E-06  2500   0.208E-03    0.269E-03
RMM:  12    -0.413211351614E+03    0.67933E-05   -0.16207E-06  2532   0.207E-03    0.104E-03
RMM:  13    -0.413211347243E+03    0.43708E-05   -0.69800E-07  2433   0.144E-03    0.728E-04
RMM:  14    -0.413211346726E+03    0.51729E-06   -0.29756E-07  2087   0.960E-04
   41 T=    70. E= -.41286661E+03 F= -.41321135E+03 E0= -.41319028E+03  EK= 0.34474E+00 SP= 0.00E+00 SK= 0.00E+00
       N       E                     dE             d eps       ncg     rms          rms(c)
RMM:   1    -0.413220491015E+03   -0.91438E-02   -0.10452E+01  4312   0.115E+00    0.967E-01
RMM:   2    -0.413218106487E+03    0.23845E-02   -0.14426E-01  4295   0.135E-01    0.692E-01
RMM:   3    -0.413216856425E+03    0.12501E-02   -0.17373E-02  5066   0.750E-02    0.259E-01
RMM:   4    -0.413258208908E+03   -0.41352E-01   -0.55215E-02  5095   0.198E-01    0.866E-01
RMM:   5    -0.413213745258E+03    0.44464E-01   -0.20062E-02  4757   0.144E-01    0.613E-02
RMM:   6    -0.413213843515E+03   -0.98257E-04   -0.35485E-03  5779   0.562E-02    0.367E-02
RMM:   7    -0.413213849280E+03   -0.57655E-05   -0.49283E-04  5747   0.205E-02    0.225E-02
RMM:   8    -0.413213846939E+03    0.23409E-05   -0.13210E-04  5219   0.116E-02    0.138E-02
RMM:   9    -0.413213831135E+03    0.15805E-04   -0.22474E-05  4520   0.588E-03    0.613E-03
RMM:  10    -0.413213824967E+03    0.61674E-05   -0.50998E-06  2982   0.290E-03    0.380E-03
RMM:  11    -0.413213819723E+03    0.52448E-05   -0.12688E-06  2493   0.194E-03    0.216E-03
RMM:  12    -0.413213810132E+03    0.95905E-05   -0.10177E-06  2471   0.174E-03    0.831E-04
RMM:  13    -0.413213804288E+03    0.58441E-05   -0.48278E-07  2349   0.122E-03    0.471E-04
RMM:  14    -0.413213802814E+03    0.14739E-05   -0.24115E-07  1932   0.867E-04    0.329E-04
RMM:  15    -0.413213799263E+03    0.35508E-05   -0.13132E-07  1440   0.708E-04    0.165E-04
RMM:  16    -0.413213792771E+03    0.64917E-05   -0.10307E-07  1349   0.688E-04    0.188E-04
RMM:  17    -0.413213789859E+03    0.29130E-05   -0.55959E-08  1011   0.613E-04    0.112E-04
RMM:  18    -0.413213785244E+03    0.46140E-05   -0.62848E-08  1311   0.640E-04    0.886E-05
RMM:  19    -0.413213782828E+03    0.24161E-05   -0.36562E-08  1045   0.574E-04    0.495E-05
RMM:  20    -0.413213781841E+03    0.98703E-06   -0.22716E-08   859   0.537E-04
   42 T=    71. E= -.41286669E+03 F= -.41321378E+03 E0= -.41319275E+03  EK= 0.34709E+00 SP= 0.00E+00 SK= 0.00E+00
       N       E                     dE             d eps       ncg     rms          rms(c)
RMM:   1    -0.413244812237E+03   -0.31029E-01   -0.10659E+01  4312   0.132E+00    0.944E-01
RMM:   2    -0.413220150018E+03    0.24662E-01   -0.17240E-01  4304   0.150E-01    0.694E-01
RMM:   3    -0.413220237958E+03   -0.87940E-04   -0.16394E-02  5074   0.823E-02    0.323E-01
RMM:   4    -0.413258535969E+03   -0.38298E-01   -0.57402E-02  5094   0.202E-01    0.852E-01
RMM:   5    -0.413215676223E+03    0.42860E-01   -0.18826E-02  4733   0.142E-01    0.636E-02
RMM:   6    -0.413215745495E+03   -0.69272E-04   -0.33409E-03  5734   0.550E-02    0.366E-02
RMM:   7    -0.413215749940E+03   -0.44449E-05   -0.50560E-04  5790   0.204E-02    0.242E-02
RMM:   8    -0.413215746770E+03    0.31702E-05   -0.13115E-04  5184   0.119E-02    0.127E-02
RMM:   9    -0.413215734741E+03    0.12030E-04   -0.21591E-05  4506   0.586E-03    0.504E-03
RMM:  10    -0.413215731479E+03    0.32615E-05   -0.46600E-06  2892   0.271E-03    0.321E-03
RMM:  11    -0.413215727743E+03    0.37358E-05   -0.13195E-06  2499   0.190E-03    0.175E-03
RMM:  12    -0.413215722420E+03    0.53233E-05   -0.78850E-07  2455   0.151E-03    0.668E-04
RMM:  13    -0.413215719111E+03    0.33091E-05   -0.39375E-07  2160   0.107E-03    0.316E-04
RMM:  14    -0.413215717082E+03    0.20286E-05   -0.21156E-07  1713   0.818E-04    0.213E-04
RMM:  15    -0.413215713329E+03    0.37534E-05   -0.13887E-07  1367   0.719E-04    0.114E-04
RMM:  16    -0.413215710702E+03    0.26270E-05   -0.86895E-08  1162   0.660E-04    0.867E-05
RMM:  17    -0.413215708182E+03    0.25202E-05   -0.67217E-08  1154   0.638E-04    0.560E-05
RMM:  18    -0.413215705477E+03    0.27047E-05   -0.53426E-08  1133   0.617E-04    0.359E-05
RMM:  19    -0.413215703574E+03    0.19026E-05   -0.35192E-08   996   0.580E-04    0.243E-05
RMM:  20    -0.413215702993E+03    0.58185E-06   -0.17702E-08   778   0.546E-04
   43 T=    71. E= -.41286670E+03 F= -.41321570E+03 E0= -.41319469E+03  EK= 0.34900E+00 SP= 0.00E+00 SK= 0.00E+00
       N       E                     dE             d eps       ncg     rms          rms(c)
RMM:   1    -0.413225919681E+03   -0.10216E-01   -0.10582E+01  4312   0.128E+00    0.949E-01
RMM:   2    -0.413221483944E+03    0.44357E-02   -0.15359E-01  4307   0.156E-01    0.703E-01
RMM:   3    -0.413222808165E+03   -0.13242E-02   -0.20024E-02  5072   0.937E-02    0.345E-01
RMM:   4    -0.413254406451E+03   -0.31598E-01   -0.54470E-02  5063   0.199E-01    0.796E-01
RMM:   5    -0.413216797152E+03    0.37609E-01   -0.15482E-02  4711   0.131E-01    0.606E-02
RMM:   6    -0.413216836984E+03   -0.39832E-04   -0.28705E-03  5713   0.509E-02    0.350E-02
RMM:   7    -0.413216834373E+03    0.26107E-05   -0.43187E-04  5728   0.196E-02    0.228E-02
RMM:   8    -0.413216829798E+03    0.45757E-05   -0.11821E-04  5161   0.114E-02    0.117E-02
RMM:   9    -0.413216819389E+03    0.10409E-04   -0.17952E-05  4353   0.549E-03    0.476E-03
RMM:  10    -0.413216816954E+03    0.24342E-05   -0.37862E-06  2785   0.254E-03    0.297E-03
RMM:  11    -0.413216814173E+03    0.27813E-05   -0.12331E-06  2494   0.183E-03    0.159E-03
RMM:  12    -0.413216810041E+03    0.41320E-05   -0.78825E-07  2442   0.147E-03    0.635E-04
RMM:  13    -0.413216807508E+03    0.25330E-05   -0.38811E-07  2096   0.104E-03    0.295E-04
RMM:  14    -0.413216805720E+03    0.17877E-05   -0.21324E-07  1629   0.802E-04    0.192E-04
RMM:  15    -0.413216802038E+03    0.36818E-05   -0.15804E-07  1369   0.727E-04    0.123E-04
RMM:  16    -0.413216800217E+03    0.18220E-05   -0.91340E-08  1115   0.656E-04    0.845E-05
RMM:  17    -0.413216797847E+03    0.23698E-05   -0.73578E-08  1131   0.644E-04    0.486E-05
RMM:  18    -0.413216795485E+03    0.23612E-05   -0.59060E-08  1110   0.619E-04    0.343E-05
RMM:  19    -0.413216793850E+03    0.16356E-05   -0.37723E-08   960   0.584E-04    0.214E-05
RMM:  20    -0.413216793257E+03    0.59320E-06   -0.20636E-08   776   0.552E-04
   44 T=    71. E= -.41286648E+03 F= -.41321679E+03 E0= -.41319581E+03  EK= 0.35032E+00 SP= 0.00E+00 SK= 0.00E+00
       N       E                     dE             d eps       ncg     rms          rms(c)
RMM:   1    -0.413251448807E+03   -0.34655E-01   -0.10820E+01  4312   0.147E+00    0.972E-01
RMM:   2    -0.413222104067E+03    0.29345E-01   -0.17130E-01  4328   0.166E-01    0.701E-01
RMM:   3    -0.413227039777E+03   -0.49357E-02   -0.20982E-02  5115   0.105E-01    0.432E-01
RMM:   4    -0.413244924775E+03   -0.17885E-01   -0.47629E-02  5053   0.188E-01    0.682E-01
RMM:   5    -0.413218042590E+03    0.26882E-01   -0.10411E-02  4664   0.114E-01    0.603E-02
RMM:   6    -0.413218021959E+03    0.20632E-04   -0.20627E-03  5615   0.441E-02    0.350E-02
RMM:   7    -0.413218014693E+03    0.72655E-05   -0.36140E-04  5637   0.184E-02    0.231E-02
RMM:   8    -0.413218004691E+03    0.10003E-04   -0.12162E-04  5087   0.117E-02    0.109E-02
RMM:   9    -0.413217991473E+03    0.13217E-04   -0.16372E-05  4339   0.556E-03    0.438E-03
RMM:  10    -0.413217987603E+03    0.38701E-05   -0.32490E-06  2754   0.236E-03    0.258E-03
RMM:  11    -0.413217981817E+03    0.57858E-05   -0.11683E-06  2481   0.179E-03    0.140E-03
RMM:  12    -0.413217975745E+03    0.60724E-05   -0.62283E-07  2429   0.135E-03    0.642E-04
RMM:  13    -0.413217972033E+03    0.37122E-05   -0.29933E-07  1923   0.939E-04    0.301E-04
RMM:  14    -0.413217968592E+03    0.34410E-05   -0.16939E-07  1478   0.746E-04    0.170E-04
RMM:  15    -0.413217963515E+03    0.50763E-05   -0.12499E-07  1284   0.698E-04    0.122E-04
RMM:  16    -0.413217960505E+03    0.30103E-05   -0.82351E-08  1154   0.648E-04    0.919E-05
RMM:  17    -0.413217955543E+03    0.49622E-05   -0.82878E-08  1370   0.661E-04    0.662E-05
RMM:  18    -0.413217953652E+03    0.18911E-05   -0.41975E-08   972   0.568E-04    0.435E-05
RMM:  19    -0.413217951901E+03    0.17511E-05   -0.30500E-08   907   0.553E-04    0.226E-05
RMM:  20    -0.413217951596E+03    0.30423E-06   -0.17082E-08   740   0.523E-04
   45 T=    71. E= -.41286682E+03 F= -.41321795E+03 E0= -.41319699E+03  EK= 0.35113E+00 SP= 0.00E+00 SK= 0.00E+00
       N       E                     dE             d eps       ncg     rms          rms(c)
RMM:   1    -0.413253354384E+03   -0.35402E-01   -0.10749E+01  4311   0.156E+00    0.953E-01
RMM:   2    -0.413221692397E+03    0.31662E-01   -0.17452E-01  4349   0.180E-01    0.695E-01
RMM:   3    -0.413229190253E+03   -0.74979E-02   -0.22537E-02  5112   0.115E-01    0.486E-01
RMM:   4    -0.413239492075E+03   -0.10302E-01   -0.45085E-02  5030   0.185E-01    0.620E-01
RMM:   5    -0.413217586634E+03    0.21905E-01   -0.80539E-03  4618   0.105E-01    0.591E-02
RMM:   6    -0.413217544111E+03    0.42522E-04   -0.16647E-03  5476   0.400E-02    0.335E-02
RMM:   7    -0.413217540377E+03    0.37341E-05   -0.30669E-04  5599   0.172E-02    0.224E-02
RMM:   8    -0.413217529220E+03    0.11157E-04   -0.12753E-04  5064   0.119E-02    0.105E-02
RMM:   9    -0.413217515916E+03    0.13304E-04   -0.15802E-05  4309   0.556E-03    0.424E-03
RMM:  10    -0.413217512623E+03    0.32928E-05   -0.28359E-06  2716   0.226E-03    0.244E-03
RMM:  11    -0.413217507047E+03    0.55761E-05   -0.12210E-06  2488   0.179E-03    0.132E-03
RMM:  12    -0.413217502069E+03    0.49777E-05   -0.59354E-07  2415   0.133E-03    0.669E-04
RMM:  13    -0.413217498553E+03    0.35162E-05   -0.28528E-07  1853   0.917E-04    0.319E-04
RMM:  14    -0.413217495061E+03    0.34918E-05   -0.16265E-07  1391   0.729E-04    0.171E-04
RMM:  15    -0.413217490870E+03    0.41911E-05   -0.11855E-07  1249   0.682E-04    0.119E-04
RMM:  16    -0.413217487979E+03    0.28915E-05   -0.80286E-08  1135   0.639E-04    0.962E-05
RMM:  17    -0.413217483374E+03    0.46045E-05   -0.80734E-08  1327   0.654E-04    0.675E-05
RMM:  18    -0.413217481468E+03    0.19060E-05   -0.42468E-08   986   0.567E-04    0.472E-05
RMM:  19    -0.413217480228E+03    0.12406E-05   -0.28808E-08   870   0.539E-04    0.281E-05
RMM:  20    -0.413217479575E+03    0.65222E-06   -0.16614E-08   727   0.519E-04
   46 T=    71. E= -.41286673E+03 F= -.41321748E+03 E0= -.41319654E+03  EK= 0.35075E+00 SP= 0.00E+00 SK= 0.00E+00
       N       E                     dE             d eps       ncg     rms          rms(c)
RMM:   1    -0.413235098445E+03   -0.17618E-01   -0.10602E+01  4312   0.155E+00    0.942E-01
RMM:   2    -0.413220754402E+03    0.14344E-01   -0.16997E-01  4368   0.187E-01    0.705E-01
RMM:   3    -0.413230317956E+03   -0.95636E-02   -0.25345E-02  5107   0.127E-01    0.524E-01
RMM:   4    -0.413236988326E+03   -0.66704E-02   -0.46775E-02  5016   0.189E-01    0.601E-01
RMM:   5    -0.413216185734E+03    0.20803E-01   -0.72207E-03  4594   0.103E-01    0.585E-02
RMM:   6    -0.413216122723E+03    0.63011E-04   -0.14837E-03  5417   0.382E-02    0.318E-02
RMM:   7    -0.413216116548E+03    0.61752E-05   -0.27458E-04  5603   0.163E-02    0.215E-02
RMM:   8    -0.413216105833E+03    0.10715E-04   -0.13080E-04  5091   0.119E-02    0.104E-02
RMM:   9    -0.413216093585E+03    0.12247E-04   -0.15490E-05  4269   0.556E-03    0.415E-03
RMM:  10    -0.413216091458E+03    0.21272E-05   -0.29347E-06  2711   0.226E-03    0.238E-03
RMM:  11    -0.413216087553E+03    0.39049E-05   -0.12774E-06  2490   0.182E-03    0.126E-03
RMM:  12    -0.413216084364E+03    0.31889E-05   -0.60793E-07  2399   0.133E-03    0.687E-04
RMM:  13    -0.413216081657E+03    0.27078E-05   -0.30637E-07  1843   0.936E-04    0.330E-04
RMM:  14    -0.413216079001E+03    0.26558E-05   -0.17576E-07  1410   0.743E-04    0.171E-04
RMM:  15    -0.413216076018E+03    0.29829E-05   -0.13239E-07  1299   0.692E-04    0.117E-04
RMM:  16    -0.413216073921E+03    0.20965E-05   -0.85621E-08  1169   0.638E-04    0.967E-05
RMM:  17    -0.413216070523E+03    0.33983E-05   -0.86380E-08  1281   0.644E-04    0.566E-05
RMM:  18    -0.413216068863E+03    0.16604E-05   -0.45057E-08   976   0.567E-04    0.450E-05
RMM:  19    -0.413216068036E+03    0.82641E-06   -0.25055E-08   782   0.529E-04
   47 T=    71. E= -.41286686E+03 F= -.41321607E+03 E0= -.41319514E+03  EK= 0.34921E+00 SP= 0.00E+00 SK= 0.00E+00
       N       E                     dE             d eps       ncg     rms          rms(c)
RMM:   1    -0.413240079778E+03   -0.24011E-01   -0.10579E+01  4306   0.170E+00    0.962E-01
RMM:   2    -0.413217733102E+03    0.22347E-01   -0.16917E-01  4407   0.199E-01    0.700E-01
RMM:   3    -0.413235051634E+03   -0.17319E-01   -0.31470E-02  5138   0.147E-01    0.638E-01
RMM:   4    -0.413226147651E+03    0.89040E-02   -0.42667E-02  4978   0.185E-01    0.476E-01
RMM:   5    -0.413213614096E+03    0.12534E-01   -0.44709E-03  4538   0.893E-02    0.584E-02
RMM:   6    -0.413213494275E+03    0.11982E-03   -0.69208E-04  4881   0.301E-02    0.308E-02
RMM:   7    -0.413213477483E+03    0.16791E-04   -0.17853E-04  5835   0.132E-02    0.125E-02
RMM:   8    -0.413213469443E+03    0.80403E-05   -0.39552E-05  5164   0.760E-03    0.687E-03
RMM:   9    -0.413213464829E+03    0.46139E-05   -0.55013E-06  2992   0.307E-03    0.320E-03
RMM:  10    -0.413213460351E+03    0.44783E-05   -0.25119E-06  2602   0.241E-03    0.195E-03
RMM:  11    -0.413213455588E+03    0.47625E-05   -0.98678E-07  2432   0.175E-03    0.124E-03
RMM:  12    -0.413213452359E+03    0.32296E-05   -0.41694E-07  2252   0.114E-03    0.749E-04
RMM:  13    -0.413213449120E+03    0.32383E-05   -0.22185E-07  1702   0.836E-04    0.447E-04
RMM:  14    -0.413213443524E+03    0.55964E-05   -0.22616E-07  1876   0.818E-04    0.488E-04
RMM:  15    -0.413213440358E+03    0.31660E-05   -0.96104E-08  1035   0.601E-04    0.212E-04
RMM:  16    -0.413213437146E+03    0.32115E-05   -0.72330E-08   992   0.595E-04    0.939E-05
RMM:  17    -0.413213433819E+03    0.33275E-05   -0.60476E-08  1024   0.596E-04    0.115E-04
RMM:  18    -0.413213432423E+03    0.13955E-05   -0.33416E-08   825   0.551E-04    0.105E-04
RMM:  19    -0.413213430191E+03    0.22321E-05   -0.33668E-08   910   0.561E-04    0.475E-05
RMM:  20    -0.413213428870E+03    0.13219E-05   -0.20635E-08   771   0.526E-04    0.366E-05
RMM:  21    -0.413213428760E+03    0.10927E-06   -0.82323E-09   558   0.485E-04
   48 T=    70. E= -.41286719E+03 F= -.41321343E+03 E0= -.41319251E+03  EK= 0.34624E+00 SP= 0.00E+00 SK= 0.00E+00
       N       E                     dE             d eps       ncg     rms          rms(c)
RMM:   1    -0.413239530737E+03   -0.26102E-01   -0.10407E+01  4306   0.181E+00    0.950E-01
RMM:   2    -0.413212370105E+03    0.27161E-01   -0.16887E-01  4471   0.209E-01    0.689E-01
RMM:   3    -0.413237745184E+03   -0.25375E-01   -0.37642E-02  5151   0.166E-01    0.739E-01
RMM:   4    -0.413216637911E+03    0.21107E-01   -0.41734E-02  4948   0.186E-01    0.394E-01
RMM:   5    -0.413208556119E+03    0.80818E-02   -0.40381E-03  4638   0.876E-02    0.648E-02
RMM:   6    -0.413208364215E+03    0.19190E-03   -0.45169E-04  4650   0.291E-02    0.334E-02
RMM:   7    -0.413208371619E+03   -0.74037E-05   -0.31228E-04  5739   0.186E-02    0.254E-02
RMM:   8    -0.413208333063E+03    0.38557E-04   -0.10135E-04  4979   0.117E-02    0.968E-03
RMM:   9    -0.413208326398E+03    0.66643E-05   -0.22427E-05  5143   0.590E-03    0.481E-03
RMM:  10    -0.413208322309E+03    0.40892E-05   -0.25569E-06  2662   0.248E-03    0.267E-03
RMM:  11    -0.413208316381E+03    0.59280E-05   -0.14625E-06  2499   0.200E-03    0.191E-03
RMM:  12    -0.413208312542E+03    0.38395E-05   -0.44409E-07  2412   0.125E-03    0.996E-04
RMM:  13    -0.413208308261E+03    0.42807E-05   -0.26333E-07  2010   0.879E-04    0.467E-04
RMM:  14    -0.413208302838E+03    0.54227E-05   -0.22075E-07  1786   0.798E-04    0.366E-04
RMM:  15    -0.413208297783E+03    0.50546E-05   -0.12027E-07  1150   0.652E-04    0.147E-04
RMM:  16    -0.413208295086E+03    0.26974E-05   -0.71821E-08  1062   0.604E-04    0.900E-05
RMM:  17    -0.413208291306E+03    0.37796E-05   -0.68219E-08  1164   0.616E-04    0.654E-05
RMM:  18    -0.413208289506E+03    0.18002E-05   -0.41451E-08   994   0.559E-04    0.549E-05
RMM:  19    -0.413208287579E+03    0.19272E-05   -0.31496E-08   927   0.541E-04    0.357E-05
RMM:  20    -0.413208286701E+03    0.87786E-06   -0.21575E-08   826   0.515E-04
   49 T=    69. E= -.41286705E+03 F= -.41320829E+03 E0= -.41318738E+03  EK= 0.34123E+00 SP= 0.00E+00 SK= 0.00E+00
       N       E                     dE             d eps       ncg     rms          rms(c)
RMM:   1    -0.413229334289E+03   -0.21047E-01   -0.10192E+01  4306   0.188E+00    0.921E-01
RMM:   2    -0.413206250990E+03    0.23083E-01   -0.16836E-01  4509   0.218E-01    0.690E-01
RMM:   3    -0.413233839434E+03   -0.27588E-01   -0.39542E-02  5155   0.174E-01    0.772E-01
[...]
RMM:  18    -0.413159680989E+03   -0.14032E-05   -0.91124E-08  1243   0.611E-04    0.489E-05
RMM:  19    -0.413159681700E+03   -0.71061E-06   -0.46909E-08   940   0.539E-04
  139 T=    60. E= -.41286582E+03 F= -.41315968E+03 E0= -.41313894E+03  EK= 0.29386E+00 SP= 0.00E+00 SK= 0.00E+00
       N       E                     dE             d eps       ncg     rms          rms(c)
RMM:   1    -0.413161123762E+03   -0.14428E-02   -0.75467E+00  4265   0.759E-01    0.814E-01
RMM:   2    -0.413164081891E+03   -0.29581E-02   -0.87652E-02  4345   0.843E-02    0.594E-01
RMM:   3    -0.413161774372E+03    0.23075E-02   -0.18876E-02  5071   0.538E-02    0.152E-01
RMM:   4    -0.413188882487E+03   -0.27108E-01   -0.32229E-02  5122   0.151E-01    0.696E-01
RMM:   5    -0.413160614367E+03    0.28268E-01   -0.13302E-02  4790   0.116E-01    0.544E-02
RMM:   6    -0.413160640256E+03   -0.25889E-04   -0.23241E-03  5662   0.466E-02    0.313E-02
RMM:   7    -0.413160674617E+03   -0.34362E-04   -0.38092E-04  5876   0.171E-02    0.187E-02
RMM:   8    -0.413160685794E+03   -0.11176E-04   -0.67658E-05  5242   0.884E-03    0.913E-03
RMM:   9    -0.413160692566E+03   -0.67721E-05   -0.88571E-06  3292   0.360E-03    0.454E-03
RMM:  10    -0.413160704946E+03   -0.12381E-04   -0.27303E-06  2643   0.230E-03    0.286E-03
RMM:  11    -0.413160717083E+03   -0.12137E-04   -0.15699E-06  2531   0.182E-03    0.141E-03
RMM:  12    -0.413160728886E+03   -0.11803E-04   -0.12862E-06  2499   0.155E-03    0.607E-04
RMM:  13    -0.413160734306E+03   -0.54197E-05   -0.55448E-07  2167   0.109E-03    0.412E-04
RMM:  14    -0.413160738621E+03   -0.43159E-05   -0.32889E-07  1807   0.883E-04    0.271E-04
RMM:  15    -0.413160745631E+03   -0.70099E-05   -0.43098E-07  1995   0.920E-04    0.246E-04
RMM:  16    -0.413160750257E+03   -0.46253E-05   -0.26075E-07  1522   0.759E-04    0.149E-04
RMM:  17    -0.413160752106E+03   -0.18491E-05   -0.11928E-07  1241   0.635E-04    0.779E-05
RMM:  18    -0.413160753750E+03   -0.16441E-05   -0.89560E-08  1246   0.607E-04    0.437E-05
RMM:  19    -0.413160754549E+03   -0.79942E-06   -0.46427E-08   950   0.535E-04
  140 T=    60. E= -.41286620E+03 F= -.41316075E+03 E0= -.41314002E+03  EK= 0.29455E+00 SP= 0.00E+00 SK= 0.00E+00
       N       E                     dE             d eps       ncg     rms          rms(c)
RMM:   1    -0.413160393997E+03    0.35975E-03   -0.78998E+00  4264   0.776E-01    0.824E-01
RMM:   2    -0.413163904409E+03   -0.35104E-02   -0.90911E-02  4333   0.863E-02    0.599E-01
RMM:   3    -0.413161363668E+03    0.25407E-02   -0.16668E-02  5019   0.497E-02    0.119E-01
RMM:   4    -0.413186691986E+03   -0.25328E-01   -0.28190E-02  5135   0.140E-01    0.669E-01
RMM:   5    -0.413160682381E+03    0.26010E-01   -0.12540E-02  4802   0.111E-01    0.524E-02
RMM:   6    -0.413160710775E+03   -0.28393E-04   -0.21894E-03  5682   0.451E-02    0.314E-02
RMM:   7    -0.413160741391E+03   -0.30616E-04   -0.36590E-04  5810   0.167E-02    0.180E-02
RMM:   8    -0.413160752372E+03   -0.10981E-04   -0.62235E-05  5213   0.851E-03    0.888E-03
RMM:   9    -0.413160758926E+03   -0.65544E-05   -0.82344E-06  3230   0.345E-03    0.457E-03
RMM:  10    -0.413160772636E+03   -0.13710E-04   -0.27086E-06  2626   0.230E-03    0.284E-03
RMM:  11    -0.413160784890E+03   -0.12254E-04   -0.14745E-06  2524   0.178E-03    0.138E-03
RMM:  12    -0.413160797273E+03   -0.12383E-04   -0.13047E-06  2490   0.153E-03    0.645E-04
RMM:  13    -0.413160803537E+03   -0.62636E-05   -0.58764E-07  2163   0.110E-03    0.417E-04
RMM:  14    -0.413160807725E+03   -0.41882E-05   -0.32610E-07  1788   0.870E-04    0.268E-04
RMM:  15    -0.413160814894E+03   -0.71690E-05   -0.44441E-07  1965   0.914E-04    0.243E-04
RMM:  16    -0.413160819789E+03   -0.48946E-05   -0.28315E-07  1552   0.773E-04    0.168E-04
RMM:  17    -0.413160821194E+03   -0.14055E-05   -0.11151E-07  1196   0.623E-04    0.906E-05
RMM:  18    -0.413160823116E+03   -0.19221E-05   -0.99447E-08  1309   0.626E-04    0.487E-05
RMM:  19    -0.413160823633E+03   -0.51701E-06   -0.42794E-08   894   0.525E-04
  141 T=    60. E= -.41286579E+03 F= -.41316082E+03 E0= -.41314010E+03  EK= 0.29504E+00 SP= 0.00E+00 SK= 0.00E+00
       N       E                     dE             d eps       ncg     rms          rms(c)
RMM:   1    -0.413159226701E+03    0.15964E-02   -0.82033E+00  4264   0.794E-01    0.840E-01
RMM:   2    -0.413162923957E+03   -0.36973E-02   -0.92856E-02  4311   0.902E-02    0.591E-01
RMM:   3    -0.413160530676E+03    0.23933E-02   -0.13598E-02  4934   0.439E-02    0.929E-02
RMM:   4    -0.413177984862E+03   -0.17454E-01   -0.18409E-02  5144   0.114E-01    0.555E-01
RMM:   5    -0.413160302859E+03    0.17682E-01   -0.88347E-03  4816   0.923E-02    0.487E-02
RMM:   6    -0.413160319635E+03   -0.16776E-04   -0.16149E-03  5673   0.389E-02    0.324E-02
RMM:   7    -0.413160331896E+03   -0.12260E-04   -0.31299E-04  5639   0.158E-02    0.168E-02
RMM:   8    -0.413160335324E+03   -0.34280E-05   -0.51851E-05  5175   0.787E-03    0.854E-03
RMM:   9    -0.413160338066E+03   -0.27421E-05   -0.58559E-06  3012   0.298E-03    0.458E-03
RMM:  10    -0.413160346201E+03   -0.81350E-05   -0.23687E-06  2584   0.221E-03    0.266E-03
RMM:  11    -0.413160352787E+03   -0.65866E-05   -0.13383E-06  2521   0.168E-03    0.129E-03
RMM:  12    -0.413160359106E+03   -0.63186E-05   -0.11108E-06  2437   0.142E-03    0.639E-04
RMM:  13    -0.413160363674E+03   -0.45687E-05   -0.63582E-07  2135   0.109E-03    0.386E-04
RMM:  14    -0.413160366281E+03   -0.26070E-05   -0.32466E-07  1744   0.849E-04    0.271E-04
RMM:  15    -0.413160371176E+03   -0.48949E-05   -0.48091E-07  1995   0.923E-04    0.235E-04
RMM:  16    -0.413160374238E+03   -0.30613E-05   -0.28786E-07  1496   0.743E-04    0.179E-04
RMM:  17    -0.413160375076E+03   -0.83821E-06   -0.10350E-07  1066   0.595E-04
  142 T=    60. E= -.41286590E+03 F= -.41316038E+03 E0= -.41313966E+03  EK= 0.29447E+00 SP= 0.00E+00 SK= 0.00E+00
       N       E                     dE             d eps       ncg     rms          rms(c)
RMM:   1    -0.413157910747E+03    0.24635E-02   -0.84406E+00  4264   0.804E-01    0.817E-01
RMM:   2    -0.413163048412E+03   -0.51377E-02   -0.95607E-02  4315   0.914E-02    0.585E-01
RMM:   3    -0.413160719871E+03    0.23285E-02   -0.11869E-02  4802   0.418E-02    0.767E-02
RMM:   4    -0.413169158423E+03   -0.84386E-02   -0.88476E-03  5160   0.794E-02    0.388E-01
RMM:   5    -0.413160666690E+03    0.84917E-02   -0.43547E-03  4836   0.649E-02    0.426E-02
RMM:   6    -0.413160668526E+03   -0.18366E-05   -0.85837E-04  5596   0.293E-02    0.297E-02
RMM:   7    -0.413160686904E+03   -0.18377E-04   -0.22557E-04  5497   0.135E-02    0.147E-02
RMM:   8    -0.413160691723E+03   -0.48194E-05   -0.37504E-05  5010   0.692E-03    0.747E-03
RMM:   9    -0.413160696873E+03   -0.51503E-05   -0.40615E-06  2816   0.244E-03    0.376E-03
RMM:  10    -0.413160709654E+03   -0.12781E-04   -0.17721E-06  2546   0.189E-03    0.204E-03
RMM:  11    -0.413160720070E+03   -0.10416E-04   -0.11370E-06  2472   0.145E-03    0.101E-03
RMM:  12    -0.413160729451E+03   -0.93810E-05   -0.92826E-07  2274   0.123E-03    0.482E-04
RMM:  13    -0.413160737067E+03   -0.76157E-05   -0.66817E-07  2078   0.102E-03    0.309E-04
RMM:  14    -0.413160741920E+03   -0.48526E-05   -0.38880E-07  1628   0.836E-04    0.278E-04
RMM:  15    -0.413160747831E+03   -0.59109E-05   -0.45219E-07  1887   0.889E-04    0.171E-04
RMM:  16    -0.413160751116E+03   -0.32855E-05   -0.23831E-07  1482   0.719E-04    0.120E-04
RMM:  17    -0.413160751999E+03   -0.88284E-06   -0.89537E-08  1011   0.563E-04
  143 T=    60. E= -.41286596E+03 F= -.41316075E+03 E0= -.41314005E+03  EK= 0.29479E+00 SP= 0.00E+00 SK= 0.00E+00
       N       E                     dE             d eps       ncg     rms          rms(c)
RMM:   1    -0.413157211021E+03    0.35401E-02   -0.88249E+00  4264   0.821E-01    0.820E-01
RMM:   2    -0.413163416021E+03   -0.62050E-02   -0.10054E-01  4313   0.930E-02    0.594E-01
RMM:   3    -0.413161040549E+03    0.23755E-02   -0.10800E-02  4675   0.402E-02    0.695E-02
RMM:   4    -0.413163030138E+03   -0.19896E-02   -0.24247E-03  5176   0.424E-02    0.189E-01
RMM:   5    -0.413161071848E+03    0.19583E-02   -0.10798E-03  4855   0.329E-02    0.386E-02
RMM:   6    -0.413161067584E+03    0.42644E-05   -0.33985E-04  5399   0.193E-02    0.270E-02
RMM:   7    -0.413161100218E+03   -0.32634E-04   -0.16591E-04  5282   0.111E-02    0.150E-02
RMM:   8    -0.413161101891E+03   -0.16739E-05   -0.21403E-05  4549   0.568E-03    0.732E-03
RMM:   9    -0.413161107486E+03   -0.55945E-05   -0.47272E-06  2678   0.234E-03    0.284E-03
RMM:  10    -0.413161122293E+03   -0.14807E-04   -0.17012E-06  2519   0.183E-03    0.146E-03
RMM:  11    -0.413161139419E+03   -0.17126E-04   -0.15890E-06  2508   0.158E-03    0.731E-04
RMM:  12    -0.413161148197E+03   -0.87782E-05   -0.71353E-07  2101   0.112E-03    0.417E-04
RMM:  13    -0.413161155562E+03   -0.73646E-05   -0.50009E-07  1894   0.927E-04    0.343E-04
RMM:  14    -0.413161163841E+03   -0.82791E-05   -0.58511E-07  1881   0.919E-04    0.221E-04
RMM:  15    -0.413161168126E+03   -0.42849E-05   -0.28341E-07  1493   0.741E-04    0.102E-04
RMM:  16    -0.413161171692E+03   -0.35662E-05   -0.21625E-07  1515   0.707E-04    0.719E-05
RMM:  17    -0.413161172590E+03   -0.89815E-06   -0.76769E-08  1013   0.539E-04
  144 T=    60. E= -.41286559E+03 F= -.41316117E+03 E0= -.41314047E+03  EK= 0.29558E+00 SP= 0.00E+00 SK= 0.00E+00
       N       E                     dE             d eps       ncg     rms          rms(c)
RMM:   1    -0.413156612572E+03    0.45591E-02   -0.91321E+00  4264   0.837E-01    0.843E-01
RMM:   2    -0.413162560735E+03   -0.59482E-02   -0.10183E-01  4322   0.938E-02    0.585E-01
RMM:   3    -0.413161069043E+03    0.14917E-02   -0.92592E-03  4694   0.378E-02    0.974E-02
RMM:   4    -0.413161213747E+03   -0.14470E-03   -0.80012E-04  5148   0.231E-02    0.506E-02
RMM:   5    -0.413161234942E+03   -0.21194E-04   -0.22711E-04  4988   0.153E-02    0.542E-02
RMM:   6    -0.413161138746E+03    0.96196E-04   -0.20279E-04  5192   0.147E-02    0.275E-02
RMM:   7    -0.413161147495E+03   -0.87498E-05   -0.13998E-04  5099   0.106E-02    0.136E-02
RMM:   8    -0.413161146398E+03    0.10972E-05   -0.14127E-05  4106   0.506E-03    0.646E-03
RMM:   9    -0.413161150638E+03   -0.42395E-05   -0.44603E-06  2712   0.247E-03    0.221E-03
RMM:  10    -0.413161159554E+03   -0.89161E-05   -0.18909E-06  2501   0.194E-03    0.108E-03
RMM:  11    -0.413161170416E+03   -0.10863E-04   -0.18393E-06  2510   0.161E-03    0.607E-04
RMM:  12    -0.413161174481E+03   -0.40645E-05   -0.58345E-07  2005   0.103E-03    0.453E-04
RMM:  13    -0.413161179109E+03   -0.46282E-05   -0.48802E-07  1761   0.889E-04    0.308E-04
RMM:  14    -0.413161185081E+03   -0.59720E-05   -0.82403E-07  2078   0.993E-04    0.248E-04
RMM:  15    -0.413161186125E+03   -0.10436E-05   -0.14109E-07  1064   0.567E-04    0.140E-04
RMM:  16    -0.413161188769E+03   -0.26444E-05   -0.19373E-07  1297   0.681E-04    0.121E-04
RMM:  17    -0.413161189382E+03   -0.61308E-06   -0.58512E-08   813   0.539E-04
  145 T=    60. E= -.41286595E+03 F= -.41316119E+03 E0= -.41314050E+03  EK= 0.29524E+00 SP= 0.00E+00 SK= 0.00E+00
       N       E                     dE             d eps       ncg     rms          rms(c)
RMM:   1    -0.413154866800E+03    0.63220E-02   -0.93029E+00  4264   0.845E-01    0.824E-01
RMM:   2    -0.413161929697E+03   -0.70629E-02   -0.10437E-01  4324   0.944E-02    0.578E-01
RMM:   3    -0.413160683077E+03    0.12466E-02   -0.80274E-03  4846   0.374E-02    0.108E-01
RMM:   4    -0.413165653394E+03   -0.49703E-02   -0.54834E-03  5174   0.633E-02    0.298E-01
RMM:   5    -0.413160680062E+03    0.49733E-02   -0.25951E-03  4845   0.502E-02    0.384E-02
RMM:   6    -0.413160662697E+03    0.17365E-04   -0.54412E-04  5550   0.235E-02    0.248E-02
RMM:   7    -0.413160684925E+03   -0.22228E-04   -0.14733E-04  5591   0.108E-02    0.121E-02
RMM:   8    -0.413160689379E+03   -0.44535E-05   -0.28981E-05  4837   0.610E-03    0.609E-03
RMM:   9    -0.413160693577E+03   -0.41984E-05   -0.26770E-06  2662   0.221E-03    0.290E-03
RMM:  10    -0.413160702976E+03   -0.93989E-05   -0.14879E-06  2537   0.174E-03    0.147E-03
RMM:  11    -0.413160712906E+03   -0.99300E-05   -0.13294E-06  2460   0.148E-03    0.715E-04
RMM:  12    -0.413160718478E+03   -0.55720E-05   -0.66310E-07  2159   0.109E-03    0.383E-04
RMM:  13    -0.413160723168E+03   -0.46898E-05   -0.48076E-07  1750   0.916E-04    0.247E-04
RMM:  14    -0.413160728467E+03   -0.52985E-05   -0.58506E-07  1876   0.930E-04    0.251E-04
RMM:  15    -0.413160731153E+03   -0.26863E-05   -0.26601E-07  1474   0.730E-04    0.924E-05
RMM:  16    -0.413160733500E+03   -0.23476E-05   -0.20406E-07  1333   0.695E-04    0.102E-04
RMM:  17    -0.413160734038E+03   -0.53788E-06   -0.79163E-08  1028   0.572E-04
  146 T=    60. E= -.41286571E+03 F= -.41316073E+03 E0= -.41314005E+03  EK= 0.29502E+00 SP= 0.00E+00 SK= 0.00E+00
       N       E                     dE             d eps       ncg     rms          rms(c)
RMM:   1    -0.413154593023E+03    0.61405E-02   -0.95837E+00  4264   0.857E-01    0.816E-01
RMM:   2    -0.413162845100E+03   -0.82521E-02   -0.11046E-01  4322   0.975E-02    0.589E-01
RMM:   3    -0.413161620601E+03    0.12245E-02   -0.74178E-03  4963   0.398E-02    0.117E-01
RMM:   4    -0.413178670542E+03   -0.17050E-01   -0.17577E-02  5155   0.111E-01    0.546E-01
RMM:   5    -0.413161472012E+03    0.17199E-01   -0.86547E-03  4830   0.905E-02    0.425E-02
RMM:   6    -0.413161486187E+03   -0.14174E-04   -0.14264E-03  5709   0.360E-02    0.214E-02
RMM:   7    -0.413161520668E+03   -0.34481E-04   -0.20423E-04  5795   0.123E-02    0.118E-02
RMM:   8    -0.413161537669E+03   -0.17001E-04   -0.40863E-05  5021   0.660E-03    0.666E-03
RMM:   9    -0.413161545869E+03   -0.82002E-05   -0.52090E-06  2930   0.284E-03    0.313E-03
RMM:  10    -0.413161558508E+03   -0.12639E-04   -0.22688E-06  2573   0.210E-03    0.198E-03
RMM:  11    -0.413161571471E+03   -0.12963E-04   -0.14166E-06  2507   0.166E-03    0.969E-04
RMM:  12    -0.413161579972E+03   -0.85006E-05   -0.79139E-07  2277   0.122E-03    0.447E-04
RMM:  13    -0.413161585734E+03   -0.57618E-05   -0.47987E-07  1885   0.944E-04    0.283E-04
RMM:  14    -0.413161590371E+03   -0.46377E-05   -0.35451E-07  1586   0.833E-04    0.165E-04
RMM:  15    -0.413161593769E+03   -0.33979E-05   -0.25817E-07  1494   0.759E-04    0.902E-05
RMM:  16    -0.413161597044E+03   -0.32750E-05   -0.25400E-07  1585   0.754E-04    0.684E-05
RMM:  17    -0.413161597565E+03   -0.52092E-06   -0.81632E-08  1071   0.576E-04
  147 T=    60. E= -.41286568E+03 F= -.41316160E+03 E0= -.41314092E+03  EK= 0.29592E+00 SP= 0.00E+00 SK= 0.00E+00
       N       E                     dE             d eps       ncg     rms          rms(c)
RMM:   1    -0.413154512358E+03    0.70847E-02   -0.97989E+00  4264   0.870E-01    0.839E-01
RMM:   2    -0.413162481222E+03   -0.79689E-02   -0.11067E-01  4324   0.955E-02    0.583E-01
RMM:   3    -0.413162018192E+03    0.46303E-03   -0.69773E-03  5065   0.387E-02    0.142E-01
RMM:   4    -0.413187022140E+03   -0.25004E-01   -0.26014E-02  5150   0.134E-01    0.659E-01
RMM:   5    -0.413161743371E+03    0.25279E-01   -0.12635E-02  4825   0.110E-01    0.483E-02
RMM:   6    -0.413161767921E+03   -0.24550E-04   -0.20236E-03  5704   0.431E-02    0.204E-02
RMM:   7    -0.413161799108E+03   -0.31187E-04   -0.27030E-04  5906   0.138E-02    0.127E-02
RMM:   8    -0.413161809726E+03   -0.10618E-04   -0.44375E-05  5062   0.657E-03    0.709E-03
RMM:   9    -0.413161815357E+03   -0.56312E-05   -0.66265E-06  3007   0.303E-03    0.317E-03
RMM:  10    -0.413161822628E+03   -0.72701E-05   -0.24034E-06  2573   0.210E-03    0.203E-03
RMM:  11    -0.413161830343E+03   -0.77154E-05   -0.14477E-06  2505   0.166E-03    0.106E-03
RMM:  12    -0.413161835612E+03   -0.52688E-05   -0.85250E-07  2311   0.125E-03    0.413E-04
RMM:  13    -0.413161838460E+03   -0.28488E-05   -0.43727E-07  1910   0.947E-04    0.281E-04
RMM:  14    -0.413161841518E+03   -0.30578E-05   -0.39710E-07  1636   0.868E-04    0.156E-04
RMM:  15    -0.413161843547E+03   -0.20284E-05   -0.27001E-07  1545   0.773E-04    0.902E-05
RMM:  16    -0.413161845350E+03   -0.18035E-05   -0.23963E-07  1481   0.741E-04    0.570E-05
RMM:  17    -0.413161846058E+03   -0.70819E-06   -0.11140E-07  1220   0.627E-04
  148 T=    60. E= -.41286604E+03 F= -.41316185E+03 E0= -.41314117E+03  EK= 0.29581E+00 SP= 0.00E+00 SK= 0.00E+00
       N       E                     dE             d eps       ncg     rms          rms(c)
RMM:   1    -0.413153072729E+03    0.87726E-02   -0.98666E+00  4264   0.872E-01    0.833E-01
RMM:   2    -0.413161368385E+03   -0.82957E-02   -0.11146E-01  4328   0.951E-02    0.575E-01
RMM:   3    -0.413161256119E+03    0.11227E-03   -0.66085E-03  5080   0.417E-02    0.159E-01
RMM:   4    -0.413192186550E+03   -0.30930E-01   -0.32892E-02  5154   0.151E-01    0.732E-01
RMM:   5    -0.413160740899E+03    0.31446E-01   -0.15568E-02  4820   0.123E-01    0.524E-02
RMM:   6    -0.413160782603E+03   -0.41705E-04   -0.25070E-03  5683   0.479E-02    0.183E-02
RMM:   7    -0.413160814385E+03   -0.31782E-04   -0.32322E-04  5979   0.148E-02    0.127E-02
RMM:   8    -0.413160822395E+03   -0.80098E-05   -0.44312E-05  4933   0.624E-03    0.740E-03
RMM:   9    -0.413160828162E+03   -0.57666E-05   -0.71422E-06  3006   0.309E-03    0.327E-03
RMM:  10    -0.413160833975E+03   -0.58137E-05   -0.22398E-06  2560   0.200E-03    0.194E-03
RMM:  11    -0.413160840026E+03   -0.60510E-05   -0.13556E-06  2497   0.156E-03    0.106E-03
RMM:  12    -0.413160844323E+03   -0.42972E-05   -0.82826E-07  2292   0.121E-03    0.371E-04
RMM:  13    -0.413160846341E+03   -0.20174E-05   -0.40062E-07  1892   0.921E-04    0.252E-04
RMM:  14    -0.413160848683E+03   -0.23420E-05   -0.37282E-07  1532   0.842E-04    0.157E-04
RMM:  15    -0.413160850297E+03   -0.16144E-05   -0.29686E-07  1563   0.789E-04    0.897E-05
RMM:  16    -0.413160851085E+03   -0.78766E-06   -0.15669E-07  1319   0.685E-04
  149 T=    60. E= -.41286567E+03 F= -.41316085E+03 E0= -.41314018E+03  EK= 0.29518E+00 SP= 0.00E+00 SK= 0.00E+00
       N       E                     dE             d eps       ncg     rms          rms(c)
RMM:   1    -0.413153459111E+03    0.73912E-02   -0.99332E+00  4264   0.878E-01    0.813E-01
RMM:   2    -0.413162738400E+03   -0.92793E-02   -0.11639E-01  4322   0.985E-02    0.585E-01
RMM:   3    -0.413162739692E+03   -0.12926E-05   -0.63281E-03  5087   0.458E-02    0.171E-01
RMM:   4    -0.413198934977E+03   -0.36195E-01   -0.39867E-02  5144   0.166E-01    0.792E-01
RMM:   5    -0.413161946563E+03    0.36988E-01   -0.18098E-02  4820   0.133E-01    0.548E-02
RMM:   6    -0.413161996988E+03   -0.50425E-04   -0.28763E-03  5669   0.516E-02    0.137E-02
RMM:   7    -0.413162043243E+03   -0.46255E-04   -0.37245E-04  6029   0.156E-02    0.116E-02
RMM:   8    -0.413162055066E+03   -0.11823E-04   -0.44638E-05  4701   0.591E-03    0.742E-03
RMM:   9    -0.413162069376E+03   -0.14310E-04   -0.70270E-06  2926   0.322E-03    0.348E-03
RMM:  10    -0.413162079409E+03   -0.10033E-04   -0.23002E-06  2571   0.205E-03    0.189E-03
RMM:  11    -0.413162090208E+03   -0.10798E-04   -0.14126E-06  2526   0.156E-03    0.101E-03
RMM:  12    -0.413162097231E+03   -0.70230E-05   -0.82570E-07  2205   0.117E-03    0.410E-04
RMM:  13    -0.413162100760E+03   -0.35290E-05   -0.43094E-07  1933   0.939E-04    0.253E-04
RMM:  14    -0.413162104208E+03   -0.34483E-05   -0.38502E-07  1579   0.849E-04    0.168E-04
RMM:  15    -0.413162107086E+03   -0.28775E-05   -0.35696E-07  1611   0.822E-04    0.100E-04
RMM:  16    -0.413162107680E+03   -0.59454E-06   -0.13508E-07  1197   0.658E-04
  150 T=    60. E= -.41286592E+03 F= -.41316211E+03 E0= -.41314144E+03  EK= 0.29619E+00 SP= 0.00E+00 SK= 0.00E+00
