       N       E                     dE             d eps       ncg     rms          rms(c)
RMM:   1     0.220131818877E+04    0.22013E+04   -0.52444E+04  2132   0.654E+02
RMM:   2     0.705734226907E+03   -0.14956E+04   -0.16260E+04  2132   0.177E+02
RMM:   3     0.137797785390E+03   -0.56794E+03   -0.65695E+03  2132   0.117E+02
RMM:   4    -0.159347157487E+03   -0.29714E+03   -0.27867E+03  2132   0.936E+01
RMM:   5    -0.287539350336E+03   -0.12819E+03   -0.11454E+03  2132   0.595E+01
RMM:   6    -0.349839291102E+03   -0.62300E+02   -0.55165E+02  2132   0.423E+01
RMM:   7    -0.382818456038E+03   -0.32979E+02   -0.30479E+02  2132   0.293E+01
RMM:   8    -0.404317280048E+03   -0.21499E+02   -0.18430E+02  2132   0.233E+01
RMM:   9    -0.435975458680E+03   -0.31658E+02   -0.30610E+02  6094   0.173E+01
RMM:  10    -0.441277240300E+03   -0.53018E+01   -0.62881E+01  6396   0.538E+00
RMM:  11    -0.442491677026E+03   -0.12144E+01   -0.11153E+01  6216   0.173E+00
RMM:  12    -0.442872648894E+03   -0.38097E+00   -0.26491E+00  6373   0.600E-01    0.134E+02
RMM:  13    -0.425595033495E+03    0.17278E+02   -0.80965E+01  4684   0.119E+01    0.712E+01
RMM:  14    -0.499875254841E+03   -0.74280E+02   -0.54056E+02  5413   0.232E+01    0.308E+01
RMM:  15    -0.418032742513E+03    0.81843E+02   -0.20432E+02  5101   0.164E+01    0.860E+00
RMM:  16    -0.413994002661E+03    0.40387E+01   -0.40831E+01  6092   0.623E+00    0.429E+00
RMM:  17    -0.413206384441E+03    0.78762E+00   -0.27979E+00  5433   0.196E+00    0.243E+00
RMM:  18    -0.413181196215E+03    0.25188E-01   -0.71509E-01  6002   0.865E-01    0.173E+00
RMM:  19    -0.413179301176E+03    0.18950E-02   -0.24293E-01  5627   0.547E-01    0.974E-01
RMM:  20    -0.413200101094E+03   -0.20800E-01   -0.39206E-01  5585   0.637E-01    0.747E-01
RMM:  21    -0.413170718696E+03    0.29382E-01   -0.39864E-02  4964   0.270E-01    0.360E-01
RMM:  22    -0.413165097101E+03    0.56216E-02   -0.36211E-02  5767   0.191E-01    0.147E-01
RMM:  23    -0.413164420770E+03    0.67633E-03   -0.56033E-03  5844   0.704E-02    0.859E-02
RMM:  24    -0.413163361964E+03    0.10588E-02   -0.18040E-03  5397   0.425E-02    0.576E-02
RMM:  25    -0.413162593207E+03    0.76876E-03   -0.90896E-04  4966   0.317E-02    0.371E-02
RMM:  26    -0.413162704840E+03   -0.11163E-03   -0.11040E-03  5867   0.332E-02    0.341E-02
RMM:  27    -0.413163134573E+03   -0.42973E-03   -0.20555E-04  4563   0.206E-02    0.194E-02
RMM:  28    -0.413163546904E+03   -0.41233E-03   -0.15315E-04  5117   0.169E-02    0.870E-03
RMM:  29    -0.413163939201E+03   -0.39230E-03   -0.10566E-04  4605   0.154E-02    0.475E-03
RMM:  30    -0.413164221926E+03   -0.28272E-03   -0.90336E-05  4355   0.120E-02    0.460E-03
RMM:  31    -0.413164359362E+03   -0.13744E-03   -0.59760E-05  3326   0.728E-03    0.377E-03
RMM:  32    -0.413164388605E+03   -0.29242E-04   -0.22847E-05  2983   0.335E-03    0.212E-03
RMM:  33    -0.413164400018E+03   -0.11414E-04   -0.95025E-06  2809   0.225E-03    0.852E-04
RMM:  34    -0.413164402147E+03   -0.21287E-05   -0.50484E-06  2639   0.167E-03    0.465E-04
RMM:  35    -0.413164402126E+03    0.21646E-07   -0.21954E-06  2422   0.135E-03
    1 T=    61. E= -.41286663E+03 F= -.41316440E+03 E0= -.41314190E+03  EK= 0.29777E+00 SP= 0.00E+00 SK= 0.00E+00
       N       E                     dE             d eps       ncg     rms          rms(c)
RMM:   1    -0.413159268342E+03    0.51338E-02   -0.99544E+00  4008   0.653E-01    0.885E-01
RMM:   2    -0.413167249720E+03   -0.79814E-02   -0.12193E-01  4007   0.933E-02    0.646E-01
RMM:   3    -0.413164231116E+03    0.30186E-02   -0.10854E-02  4580   0.404E-02    0.989E-02
RMM:   4    -0.413174946104E+03   -0.10715E-01   -0.11286E-02  5214   0.882E-02    0.436E-01
RMM:   5    -0.413164084961E+03    0.10861E-01   -0.54643E-03  4867   0.728E-02    0.376E-02
RMM:   6    -0.413164156525E+03   -0.71564E-04   -0.10203E-03  5782   0.307E-02    0.271E-02
RMM:   7    -0.413164152823E+03    0.37024E-05   -0.24478E-04  5532   0.148E-02    0.148E-02
RMM:   8    -0.413164152658E+03    0.16507E-06   -0.22038E-05  4231   0.541E-03    0.645E-03
RMM:   9    -0.413164156463E+03   -0.38053E-05   -0.44583E-06  2912   0.243E-03    0.469E-03
RMM:  10    -0.413164161827E+03   -0.53639E-05   -0.15024E-06  2524   0.185E-03    0.267E-03
RMM:  11    -0.413164167882E+03   -0.60549E-05   -0.11631E-06  2505   0.159E-03    0.110E-03
RMM:  12    -0.413164172347E+03   -0.44654E-05   -0.77910E-07  2355   0.125E-03    0.457E-04
RMM:  13    -0.413164173776E+03   -0.14282E-05   -0.39646E-07  1935   0.895E-04    0.295E-04
RMM:  14    -0.413164175176E+03   -0.14004E-05   -0.26611E-07  1428   0.729E-04    0.179E-04
RMM:  15    -0.413164177648E+03   -0.24720E-05   -0.26482E-07  1437   0.730E-04    0.870E-05
RMM:  16    -0.413164178433E+03   -0.78491E-06   -0.16936E-07  1172   0.640E-04
    2 T=    61. E= -.41286653E+03 F= -.41316418E+03 E0= -.41314168E+03  EK= 0.29765E+00 SP= 0.00E+00 SK= 0.00E+00
       N       E                     dE             d eps       ncg     rms          rms(c)
RMM:   1    -0.413160321893E+03    0.38558E-02   -0.99649E+00  4191   0.657E-01    0.906E-01
RMM:   2    -0.413167317258E+03   -0.69954E-02   -0.12004E-01  4037   0.923E-02    0.641E-01
RMM:   3    -0.413165058020E+03    0.22592E-02   -0.10860E-02  4866   0.443E-02    0.134E-01
RMM:   4    -0.413194613566E+03   -0.29556E-01   -0.30675E-02  5172   0.146E-01    0.717E-01
RMM:   5    -0.413164515315E+03    0.30098E-01   -0.14520E-02  4828   0.120E-01    0.472E-02
RMM:   6    -0.413164707688E+03   -0.19237E-03   -0.24838E-03  5772   0.488E-02    0.313E-02
RMM:   7    -0.413164707968E+03   -0.27987E-06   -0.40021E-04  5743   0.181E-02    0.193E-02
RMM:   8    -0.413164702409E+03    0.55589E-05   -0.58337E-05  5104   0.810E-03    0.885E-03
RMM:   9    -0.413164700618E+03    0.17909E-05   -0.12004E-05  3806   0.385E-03    0.660E-03
RMM:  10    -0.413164700752E+03   -0.13332E-06   -0.17816E-06  2568   0.209E-03
    3 T=    61. E= -.41286689E+03 F= -.41316470E+03 E0= -.41314221E+03  EK= 0.29781E+00 SP= 0.00E+00 SK= 0.00E+00
       N       E                     dE             d eps       ncg     rms          rms(c)
RMM:   1    -0.413159820944E+03    0.48797E-02   -0.98877E+00  4224   0.660E-01    0.890E-01
RMM:   2    -0.413167067043E+03   -0.72461E-02   -0.11944E-01  4202   0.943E-02    0.635E-01
RMM:   3    -0.413168509901E+03   -0.14429E-02   -0.13524E-02  5144   0.721E-02    0.289E-01
RMM:   4    -0.413193350137E+03   -0.24840E-01   -0.40894E-02  5130   0.172E-01    0.703E-01
RMM:   5    -0.413164418405E+03    0.28932E-01   -0.11804E-02  4729   0.116E-01    0.588E-02
RMM:   6    -0.413164470471E+03   -0.52065E-04   -0.21507E-03  5532   0.465E-02    0.288E-02
RMM:   7    -0.413164491969E+03   -0.21498E-04   -0.36400E-04  6041   0.168E-02    0.179E-02
RMM:   8    -0.413164490422E+03    0.15471E-05   -0.67253E-05  5246   0.900E-03    0.778E-03
RMM:   9    -0.413164488161E+03    0.22611E-05   -0.94147E-06  3500   0.374E-03    0.384E-03
RMM:  10    -0.413164489268E+03   -0.11074E-05   -0.20042E-06  2581   0.215E-03    0.254E-03
RMM:  11    -0.413164491041E+03   -0.17733E-05   -0.14802E-06  2540   0.188E-03    0.155E-03
RMM:  12    -0.413164491914E+03   -0.87273E-06   -0.73101E-07  2487   0.141E-03
    4 T=    61. E= -.41286668E+03 F= -.41316449E+03 E0= -.41314200E+03  EK= 0.29782E+00 SP= 0.00E+00 SK= 0.00E+00
       N       E                     dE             d eps       ncg     rms          rms(c)
RMM:   1    -0.413159771929E+03    0.47191E-02   -0.99405E+00  4235   0.665E-01    0.882E-01
RMM:   2    -0.413167572911E+03   -0.78010E-02   -0.12186E-01  4060   0.917E-02    0.645E-01
RMM:   3    -0.413165022054E+03    0.25509E-02   -0.10969E-02  4920   0.435E-02    0.124E-01
RMM:   4    -0.413195007198E+03   -0.29985E-01   -0.31174E-02  5151   0.147E-01    0.722E-01
RMM:   5    -0.413164440266E+03    0.30567E-01   -0.14654E-02  4814   0.120E-01    0.461E-02
RMM:   6    -0.413164638976E+03   -0.19871E-03   -0.25454E-03  5779   0.486E-02    0.295E-02
RMM:   7    -0.413164648789E+03   -0.98129E-05   -0.38555E-04  5791   0.176E-02    0.189E-02
RMM:   8    -0.413164648443E+03    0.34635E-06   -0.61329E-05  5046   0.818E-03    0.896E-03
RMM:   9    -0.413164649484E+03   -0.10412E-05   -0.12253E-05  3866   0.396E-03    0.663E-03
RMM:  10    -0.413164653452E+03   -0.39677E-05   -0.17733E-06  2571   0.207E-03    0.428E-03
RMM:  11    -0.413164657984E+03   -0.45320E-05   -0.13682E-06  2537   0.181E-03    0.217E-03
RMM:  12    -0.413164663767E+03   -0.57830E-05   -0.16758E-06  2571   0.186E-03    0.897E-04
RMM:  13    -0.413164664747E+03   -0.98035E-06   -0.46748E-07  2294   0.118E-03
    5 T=    61. E= -.41286667E+03 F= -.41316466E+03 E0= -.41314219E+03  EK= 0.29799E+00 SP= 0.00E+00 SK= 0.00E+00
       N       E                     dE             d eps       ncg     rms          rms(c)
RMM:   1    -0.413160630473E+03    0.40333E-02   -0.99696E+00  4250   0.673E-01    0.902E-01
RMM:   2    -0.413167649261E+03   -0.70188E-02   -0.12040E-01  4084   0.927E-02    0.643E-01
RMM:   3    -0.413165266949E+03    0.23823E-02   -0.10778E-02  4753   0.406E-02    0.119E-01
RMM:   4    -0.413185030025E+03   -0.19763E-01   -0.20098E-02  5157   0.118E-01    0.589E-01
RMM:   5    -0.413164949017E+03    0.20081E-01   -0.98238E-03  4829   0.977E-02    0.418E-02
RMM:   6    -0.413165078226E+03   -0.12921E-03   -0.17030E-03  5803   0.395E-02    0.270E-02
RMM:   7    -0.413165080124E+03   -0.18981E-05   -0.28951E-04  5681   0.162E-02    0.173E-02
RMM:   8    -0.413165072641E+03    0.74830E-05   -0.49240E-05  4897   0.763E-03    0.833E-03
RMM:   9    -0.413165071450E+03    0.11913E-05   -0.97444E-06  3626   0.359E-03    0.655E-03
RMM:  10    -0.413165071907E+03   -0.45723E-06   -0.15049E-06  2539   0.207E-03
    6 T=    61. E= -.41286680E+03 F= -.41316507E+03 E0= -.41314261E+03  EK= 0.29828E+00 SP= 0.00E+00 SK= 0.00E+00
       N       E                     dE             d eps       ncg     rms          rms(c)
RMM:   1    -0.413160280923E+03    0.47905E-02   -0.99177E+00  4257   0.674E-01    0.898E-01
RMM:   2    -0.413167403692E+03   -0.71228E-02   -0.11969E-01  4215   0.918E-02    0.636E-01
RMM:   3    -0.413167951034E+03   -0.54734E-03   -0.12865E-02  5112   0.654E-02    0.259E-01
RMM:   4    -0.413197566922E+03   -0.29616E-01   -0.42920E-02  5128   0.175E-01    0.747E-01
RMM:   5    -0.413164766098E+03    0.32801E-01   -0.13961E-02  4758   0.123E-01    0.587E-02
RMM:   6    -0.413164853806E+03   -0.87709E-04   -0.24585E-03  5572   0.494E-02    0.294E-02
RMM:   7    -0.413164873128E+03   -0.19321E-04   -0.39603E-04  6019   0.171E-02    0.182E-02
RMM:   8    -0.413164870188E+03    0.29396E-05   -0.68645E-05  5248   0.894E-03    0.800E-03
RMM:   9    -0.413164866485E+03    0.37031E-05   -0.10038E-05  3503   0.373E-03    0.403E-03
RMM:  10    -0.413164866421E+03    0.63592E-07   -0.23333E-06  2596   0.223E-03
    7 T=    61. E= -.41286649E+03 F= -.41316487E+03 E0= -.41314242E+03  EK= 0.29837E+00 SP= 0.00E+00 SK= 0.00E+00
       N       E                     dE             d eps       ncg     rms          rms(c)
RMM:   1    -0.413160527544E+03    0.43389E-02   -0.99283E+00  4267   0.681E-01    0.881E-01
RMM:   2    -0.413168385225E+03   -0.78577E-02   -0.12148E-01  4151   0.925E-02    0.643E-01
RMM:   3    -0.413166158655E+03    0.22266E-02   -0.11147E-02  4970   0.490E-02    0.148E-01
RMM:   4    -0.413204685624E+03   -0.38527E-01   -0.41556E-02  5140   0.170E-01    0.817E-01
RMM:   5    -0.413165192644E+03    0.39493E-01   -0.18722E-02  4803   0.136E-01    0.509E-02
RMM:   6    -0.413165410445E+03   -0.21780E-03   -0.31227E-03  5763   0.549E-02    0.306E-02
RMM:   7    -0.413165422249E+03   -0.11804E-04   -0.46424E-04  5898   0.187E-02    0.201E-02
RMM:   8    -0.413165421427E+03    0.82212E-06   -0.71390E-05  5212   0.872E-03    0.945E-03
RMM:   9    -0.413165420986E+03    0.44050E-06   -0.14161E-05  4003   0.418E-03    0.633E-03
RMM:  10    -0.413165423841E+03   -0.28549E-05   -0.22459E-06  2599   0.217E-03    0.414E-03
RMM:  11    -0.413165426751E+03   -0.29102E-05   -0.12729E-06  2535   0.175E-03    0.215E-03
RMM:  12    -0.413165430560E+03   -0.38083E-05   -0.16213E-06  2563   0.185E-03    0.811E-04
RMM:  13    -0.413165431644E+03   -0.10842E-05   -0.55360E-07  2322   0.122E-03    0.611E-04
RMM:  14    -0.413165431486E+03    0.15773E-06   -0.22968E-07  1792   0.828E-04
    8 T=    61. E= -.41286674E+03 F= -.41316543E+03 E0= -.41314300E+03  EK= 0.29869E+00 SP= 0.00E+00 SK= 0.00E+00
       N       E                     dE             d eps       ncg     rms          rms(c)
RMM:   1    -0.413161039689E+03    0.43920E-02   -0.99769E+00  4283   0.690E-01    0.897E-01
RMM:   2    -0.413168524432E+03   -0.74847E-02   -0.12120E-01  4183   0.940E-02    0.645E-01
RMM:   3    -0.413165871351E+03    0.26531E-02   -0.10862E-02  4775   0.420E-02    0.118E-01
RMM:   4    -0.413188311919E+03   -0.22441E-01   -0.22992E-02  5146   0.126E-01    0.627E-01
RMM:   5    -0.413165480395E+03    0.22832E-01   -0.11131E-02  4808   0.104E-01    0.429E-02
RMM:   6    -0.413165630184E+03   -0.14979E-03   -0.19370E-03  5784   0.420E-02    0.283E-02
RMM:   7    -0.413165631173E+03   -0.98899E-06   -0.31991E-04  5656   0.168E-02    0.178E-02
RMM:   8    -0.413165624890E+03    0.62835E-05   -0.51885E-05  4949   0.775E-03    0.851E-03
RMM:   9    -0.413165623519E+03    0.13710E-05   -0.10232E-05  3651   0.366E-03    0.660E-03
RMM:  10    -0.413165624133E+03   -0.61441E-06   -0.15053E-06  2542   0.204E-03
    9 T=    61. E= -.41286674E+03 F= -.41316562E+03 E0= -.41314322E+03  EK= 0.29888E+00 SP= 0.00E+00 SK= 0.00E+00
       N       E                     dE             d eps       ncg     rms          rms(c)
RMM:   1    -0.413162196411E+03    0.34271E-02   -0.99605E+00  4300   0.704E-01    0.904E-01
RMM:   2    -0.413168272094E+03   -0.60757E-02   -0.11973E-01  4273   0.941E-02    0.637E-01
RMM:   3    -0.413168755210E+03   -0.48312E-03   -0.12942E-02  5082   0.671E-02    0.259E-01
RMM:   4    -0.413198307321E+03   -0.29552E-01   -0.42747E-02  5110   0.174E-01    0.746E-01
RMM:   5    -0.413165595363E+03    0.32712E-01   -0.13966E-02  4743   0.123E-01    0.583E-02
RMM:   6    -0.413165690907E+03   -0.95544E-04   -0.24586E-03  5583   0.492E-02    0.298E-02
RMM:   7    -0.413165705923E+03   -0.15017E-04   -0.39019E-04  6003   0.170E-02    0.184E-02
RMM:   8    -0.413165701450E+03    0.44729E-05   -0.68064E-05  5238   0.890E-03    0.805E-03
RMM:   9    -0.413165696491E+03    0.49594E-05   -0.10003E-05  3505   0.374E-03    0.407E-03
RMM:  10    -0.413165695290E+03    0.12006E-05   -0.23187E-06  2592   0.224E-03    0.278E-03
RMM:  11    -0.413165693446E+03    0.18448E-05   -0.12955E-06  2519   0.180E-03    0.149E-03
RMM:  12    -0.413165691566E+03    0.18798E-05   -0.76177E-07  2476   0.141E-03    0.511E-04
RMM:  13    -0.413165690681E+03    0.88500E-06   -0.37526E-07  2071   0.100E-03
   10 T=    61. E= -.41286662E+03 F= -.41316569E+03 E0= -.41314331E+03  EK= 0.29907E+00 SP= 0.00E+00 SK= 0.00E+00
       N       E                     dE             d eps       ncg     rms          rms(c)
RMM:   1    -0.413161778756E+03    0.39128E-02   -0.99166E+00  4292   0.701E-01    0.882E-01
RMM:   2    -0.413169232249E+03   -0.74535E-02   -0.12106E-01  4236   0.949E-02    0.640E-01
RMM:   3    -0.413166842988E+03    0.23893E-02   -0.10817E-02  4853   0.461E-02    0.130E-01
RMM:   4    -0.413198056238E+03   -0.31213E-01   -0.32623E-02  5138   0.150E-01    0.737E-01
RMM:   5    -0.413166219938E+03    0.31836E-01   -0.15369E-02  4801   0.123E-01    0.469E-02
RMM:   6    -0.413166422159E+03   -0.20222E-03   -0.26495E-03  5761   0.493E-02    0.302E-02
RMM:   7    -0.413166426933E+03   -0.47741E-05   -0.40167E-04  5749   0.180E-02    0.194E-02
RMM:   8    -0.413166422426E+03    0.45068E-05   -0.62589E-05  5057   0.831E-03    0.921E-03
RMM:   9    -0.413166420622E+03    0.18047E-05   -0.12851E-05  3899   0.404E-03    0.679E-03
RMM:  10    -0.413166421539E+03   -0.91694E-06   -0.18072E-06  2571   0.209E-03
   11 T=    61. E= -.41286687E+03 F= -.41316642E+03 E0= -.41314406E+03  EK= 0.29956E+00 SP= 0.00E+00 SK= 0.00E+00
       N       E                     dE             d eps       ncg     rms          rms(c)
RMM:   1    -0.413161679136E+03    0.47415E-02   -0.99908E+00  4303   0.697E-01    0.893E-01
RMM:   2    -0.413169278082E+03   -0.75989E-02   -0.12191E-01  4297   0.950E-02    0.647E-01
RMM:   3    -0.413170756127E+03   -0.14780E-02   -0.14184E-02  5119   0.737E-02    0.297E-01
RMM:   4    -0.413196880148E+03   -0.26124E-01   -0.43857E-02  5090   0.177E-01    0.721E-01
RMM:   5    -0.413166303603E+03    0.30577E-01   -0.12379E-02  4705   0.118E-01    0.581E-02
RMM:   6    -0.413166372644E+03   -0.69041E-04   -0.22450E-03  5522   0.469E-02    0.281E-02
RMM:   7    -0.413166393523E+03   -0.20878E-04   -0.36505E-04  6012   0.168E-02    0.179E-02
RMM:   8    -0.413166393542E+03   -0.19278E-07   -0.68589E-05  5240   0.895E-03    0.791E-03
RMM:   9    -0.413166391389E+03    0.21527E-05   -0.97782E-06  3491   0.379E-03    0.381E-03
RMM:  10    -0.413166392514E+03   -0.11251E-05   -0.20656E-06  2573   0.215E-03    0.253E-03
RMM:  11    -0.413166394172E+03   -0.16574E-05   -0.14600E-06  2530   0.185E-03    0.152E-03
RMM:  12    -0.413166394836E+03   -0.66466E-06   -0.72376E-07  2467   0.140E-03
   12 T=    61. E= -.41286653E+03 F= -.41316639E+03 E0= -.41314406E+03  EK= 0.29987E+00 SP= 0.00E+00 SK= 0.00E+00
       N       E                     dE             d eps       ncg     rms          rms(c)
RMM:   1    -0.413162752411E+03    0.36418E-02   -0.99927E+00  4295   0.705E-01    0.909E-01
RMM:   2    -0.413169314963E+03   -0.65626E-02   -0.12027E-01  4243   0.915E-02    0.640E-01
RMM:   3    -0.413167485435E+03    0.18295E-02   -0.11061E-02  4951   0.445E-02    0.147E-01
RMM:   4    -0.413202279207E+03   -0.34794E-01   -0.36951E-02  5133   0.160E-01    0.777E-01
RMM:   5    -0.413166738104E+03    0.35541E-01   -0.17148E-02  4793   0.130E-01    0.496E-02
RMM:   6    -0.413166947303E+03   -0.20920E-03   -0.29096E-03  5749   0.525E-02    0.321E-02
RMM:   7    -0.413166945769E+03    0.15343E-05   -0.44441E-04  5781   0.190E-02    0.207E-02
RMM:   8    -0.413166936315E+03    0.94542E-05   -0.70039E-05  5144   0.878E-03    0.100E-02
RMM:   9    -0.413166930500E+03    0.58143E-05   -0.13680E-05  4005   0.419E-03    0.711E-03
RMM:  10    -0.413166927240E+03    0.32598E-05   -0.20227E-06  2583   0.217E-03    0.451E-03
RMM:  11    -0.413166924450E+03    0.27899E-05   -0.13477E-06  2534   0.181E-03    0.239E-03
RMM:  12    -0.413166920041E+03    0.44091E-05   -0.16954E-06  2563   0.195E-03    0.944E-04
RMM:  13    -0.413166918797E+03    0.12448E-05   -0.52881E-07  2357   0.127E-03    0.685E-04
RMM:  14    -0.413166918716E+03    0.80079E-07   -0.23147E-07  1883   0.849E-04
   13 T=    61. E= -.41286659E+03 F= -.41316692E+03 E0= -.41314462E+03  EK= 0.30033E+00 SP= 0.00E+00 SK= 0.00E+00
       N       E                     dE             d eps       ncg     rms          rms(c)
RMM:   1    -0.413162737027E+03    0.41818E-02   -0.99242E+00  4297   0.704E-01    0.886E-01
RMM:   2    -0.413170295499E+03   -0.75585E-02   -0.12097E-01  4244   0.920E-02    0.639E-01
RMM:   3    -0.413167913272E+03    0.23822E-02   -0.10668E-02  4837   0.419E-02    0.124E-01
RMM:   4    -0.413193832447E+03   -0.25919E-01   -0.26878E-02  5133   0.136E-01    0.673E-01
RMM:   5    -0.413167437306E+03    0.26395E-01   -0.12870E-02  4799   0.112E-01    0.446E-02
RMM:   6    -0.413167609494E+03   -0.17219E-03   -0.22258E-03  5788   0.450E-02    0.293E-02
RMM:   7    -0.413167608762E+03    0.73178E-06   -0.34862E-04  5671   0.173E-02    0.185E-02
RMM:   8    -0.413167601887E+03    0.68750E-05   -0.56779E-05  4980   0.806E-03    0.885E-03
RMM:   9    -0.413167599096E+03    0.27910E-05   -0.11440E-05  3766   0.385E-03    0.672E-03
RMM:  10    -0.413167598546E+03    0.54943E-06   -0.15891E-06  2551   0.204E-03
   14 T=    61. E= -.41286674E+03 F= -.41316760E+03 E0= -.41314533E+03  EK= 0.30086E+00 SP= 0.00E+00 SK= 0.00E+00
       N       E                     dE             d eps       ncg     rms          rms(c)
RMM:   1    -0.413162925083E+03    0.46740E-02   -0.10012E+01  4305   0.710E-01    0.890E-01
RMM:   2    -0.413170741345E+03   -0.78163E-02   -0.12267E-01  4299   0.947E-02    0.649E-01
RMM:   3    -0.413171267002E+03   -0.52566E-03   -0.13636E-02  5108   0.690E-02    0.272E-01
RMM:   4    -0.413202224261E+03   -0.30957E-01   -0.46575E-02  5106   0.181E-01    0.766E-01
RMM:   5    -0.413167534301E+03    0.34690E-01   -0.14643E-02  4729   0.126E-01    0.582E-02
RMM:   6    -0.413167631683E+03   -0.97382E-04   -0.25590E-03  5598   0.502E-02    0.283E-02
RMM:   7    -0.413167651780E+03   -0.20097E-04   -0.39043E-04  6004   0.171E-02    0.180E-02
RMM:   8    -0.413167651928E+03   -0.14811E-06   -0.70380E-05  5226   0.897E-03    0.806E-03
RMM:   9    -0.413167649457E+03    0.24708E-05   -0.10765E-05  3565   0.385E-03    0.390E-03
RMM:  10    -0.413167650486E+03   -0.10288E-05   -0.23960E-06  2600   0.221E-03    0.268E-03
RMM:  11    -0.413167651631E+03   -0.11453E-05   -0.13409E-06  2522   0.181E-03    0.146E-03
RMM:  12    -0.413167652136E+03   -0.50472E-06   -0.75610E-07  2475   0.140E-03
   15 T=    61. E= -.41286645E+03 F= -.41316765E+03 E0= -.41314542E+03  EK= 0.30120E+00 SP= 0.00E+00 SK= 0.00E+00
       N       E                     dE             d eps       ncg     rms          rms(c)
RMM:   1    -0.413164361188E+03    0.32904E-02   -0.10025E+01  4297   0.712E-01    0.911E-01
RMM:   2    -0.413171407919E+03   -0.70467E-02   -0.12100E-01  4263   0.955E-02    0.643E-01
RMM:   3    -0.413169250054E+03    0.21579E-02   -0.11143E-02  4924   0.465E-02    0.147E-01
RMM:   4    -0.413204495880E+03   -0.35246E-01   -0.37454E-02  5135   0.161E-01    0.782E-01
RMM:   5    -0.413168489669E+03    0.36006E-01   -0.17428E-02  4792   0.130E-01    0.496E-02
RMM:   6    -0.413168700000E+03   -0.21033E-03   -0.29594E-03  5758   0.526E-02    0.322E-02
RMM:   7    -0.413168697694E+03    0.23054E-05   -0.44101E-04  5766   0.190E-02    0.207E-02
RMM:   8    -0.413168687559E+03    0.10135E-04   -0.71097E-05  5124   0.884E-03    0.101E-02
RMM:   9    -0.413168681188E+03    0.63710E-05   -0.14080E-05  4045   0.425E-03    0.720E-03
RMM:  10    -0.413168677445E+03    0.37432E-05   -0.20389E-06  2578   0.218E-03    0.458E-03
RMM:  11    -0.413168674174E+03    0.32710E-05   -0.13520E-06  2526   0.182E-03    0.243E-03
RMM:  12    -0.413168668994E+03    0.51798E-05   -0.16747E-06  2559   0.196E-03    0.937E-04
RMM:  13    -0.413168667354E+03    0.16403E-05   -0.51669E-07  2352   0.127E-03    0.676E-04
RMM:  14    -0.413168667369E+03   -0.15352E-07   -0.23137E-07  1884   0.846E-04
   16 T=    61. E= -.41286683E+03 F= -.41316867E+03 E0= -.41314647E+03  EK= 0.30184E+00 SP= 0.00E+00 SK= 0.00E+00
       N       E                     dE             d eps       ncg     rms          rms(c)
RMM:   1    -0.413164449177E+03    0.42182E-02   -0.99521E+00  4297   0.714E-01    0.892E-01
RMM:   2    -0.413171922014E+03   -0.74728E-02   -0.12095E-01  4259   0.949E-02    0.639E-01
RMM:   3    -0.413169493468E+03    0.24285E-02   -0.10683E-02  4812   0.446E-02    0.130E-01
RMM:   4    -0.413198036269E+03   -0.28543E-01   -0.29735E-02  5132   0.143E-01    0.705E-01
RMM:   5    -0.413168947369E+03    0.29089E-01   -0.14189E-02  4799   0.117E-01    0.461E-02
RMM:   6    -0.413169129967E+03   -0.18260E-03   -0.24671E-03  5787   0.473E-02    0.301E-02
RMM:   7    -0.413169130909E+03   -0.94216E-06   -0.37398E-04  5694   0.178E-02    0.191E-02
RMM:   8    -0.413169122079E+03    0.88299E-05   -0.63103E-05  5025   0.837E-03    0.941E-03
RMM:   9    -0.413169117371E+03    0.47081E-05   -0.12663E-05  3930   0.405E-03    0.704E-03
RMM:  10    -0.413169115022E+03    0.23491E-05   -0.16955E-06  2552   0.209E-03    0.449E-03
RMM:  11    -0.413169112591E+03    0.24308E-05   -0.14066E-06  2526   0.188E-03    0.222E-03
RMM:  12    -0.413169109371E+03    0.32207E-05   -0.14228E-06  2528   0.183E-03    0.857E-04
RMM:  13    -0.413169108652E+03    0.71896E-06   -0.43617E-07  2267   0.117E-03
   17 T=    62. E= -.41286675E+03 F= -.41316911E+03 E0= -.41314695E+03  EK= 0.30236E+00 SP= 0.00E+00 SK= 0.00E+00
       N       E                     dE             d eps       ncg     rms          rms(c)
RMM:   1    -0.413164900040E+03    0.42093E-02   -0.10030E+01  4299   0.722E-01    0.889E-01
RMM:   2    -0.413172636767E+03   -0.77367E-02   -0.12329E-01  4263   0.957E-02    0.650E-01
RMM:   3    -0.413169964229E+03    0.26725E-02   -0.11154E-02  4806   0.458E-02    0.122E-01
RMM:   4    -0.413198634750E+03   -0.28671E-01   -0.29880E-02  5129   0.143E-01    0.706E-01
RMM:   5    -0.413169416342E+03    0.29218E-01   -0.14269E-02  4799   0.117E-01    0.452E-02
RMM:   6    -0.413169597595E+03   -0.18125E-03   -0.24222E-03  5793   0.470E-02    0.288E-02
RMM:   7    -0.413169604189E+03   -0.65947E-05   -0.35824E-04  5730   0.174E-02    0.184E-02
RMM:   8    -0.413169598316E+03    0.58739E-05   -0.64639E-05  5007   0.839E-03    0.929E-03
RMM:   9    -0.413169595321E+03    0.29947E-05   -0.13125E-05  3996   0.412E-03    0.693E-03
RMM:  10    -0.413169595315E+03    0.63192E-08   -0.17048E-06  2551   0.208E-03
   18 T=    62. E= -.41286657E+03 F= -.41316960E+03 E0= -.41314748E+03  EK= 0.30302E+00 SP= 0.00E+00 SK= 0.00E+00
       N       E                     dE             d eps       ncg     rms          rms(c)
RMM:   1    -0.413166446019E+03    0.31493E-02   -0.10065E+01  4306   0.724E-01    0.910E-01
RMM:   2    -0.413173466513E+03   -0.70205E-02   -0.12209E-01  4321   0.968E-02    0.647E-01
RMM:   3    -0.413175116841E+03   -0.16503E-02   -0.14149E-02  5105   0.739E-02    0.298E-01
RMM:   4    -0.413200123283E+03   -0.25006E-01   -0.42355E-02  5086   0.174E-01    0.707E-01
RMM:   5    -0.413170751871E+03    0.29371E-01   -0.11976E-02  4704   0.116E-01    0.573E-02
RMM:   6    -0.413170819575E+03   -0.67704E-04   -0.21900E-03  5537   0.462E-02    0.295E-02
RMM:   7    -0.413170827967E+03   -0.83918E-05   -0.35874E-04  5990   0.167E-02    0.183E-02
RMM:   8    -0.413170821400E+03    0.65666E-05   -0.66121E-05  5189   0.888E-03    0.794E-03
RMM:   9    -0.413170814589E+03    0.68110E-05   -0.95074E-06  3468   0.376E-03    0.389E-03
RMM:  10    -0.413170812337E+03    0.22522E-05   -0.20400E-06  2569   0.216E-03    0.260E-03
RMM:  11    -0.413170808443E+03    0.38939E-05   -0.12583E-06  2509   0.180E-03    0.148E-03
RMM:  12    -0.413170805281E+03    0.31620E-05   -0.64739E-07  2447   0.136E-03    0.509E-04
RMM:  13    -0.413170803492E+03    0.17886E-05   -0.32480E-07  2035   0.966E-04    0.308E-04
RMM:  14    -0.413170801884E+03    0.16087E-05   -0.18705E-07  1540   0.777E-04    0.212E-04
RMM:  15    -0.413170799194E+03    0.26892E-05   -0.15518E-07  1335   0.719E-04    0.103E-04
RMM:  16    -0.413170796834E+03    0.23602E-05   -0.12379E-07  1318   0.681E-04    0.103E-04
RMM:  17    -0.413170794080E+03    0.27541E-05   -0.11705E-07  1369   0.666E-04    0.608E-05
RMM:  18    -0.413170792510E+03    0.15705E-05   -0.63938E-08  1015   0.580E-04    0.364E-05
RMM:  19    -0.413170791701E+03    0.80886E-06   -0.34555E-08   832   0.545E-04
   19 T=    62. E= -.41286683E+03 F= -.41317079E+03 E0= -.41314871E+03  EK= 0.30396E+00 SP= 0.00E+00 SK= 0.00E+00
       N       E                     dE             d eps       ncg     rms          rms(c)
RMM:   1    -0.413166688571E+03    0.41039E-02   -0.10013E+01  4297   0.725E-01    0.900E-01
RMM:   2    -0.413173652261E+03   -0.69637E-02   -0.12160E-01  4264   0.952E-02    0.640E-01
RMM:   3    -0.413171785546E+03    0.18667E-02   -0.11002E-02  4939   0.464E-02    0.150E-01
RMM:   4    -0.413208465514E+03   -0.36680E-01   -0.39414E-02  5133   0.164E-01    0.797E-01
RMM:   5    -0.413170943527E+03    0.37522E-01   -0.18171E-02  4789   0.133E-01    0.507E-02
RMM:   6    -0.413171160757E+03   -0.21723E-03   -0.31270E-03  5755   0.536E-02    0.325E-02
RMM:   7    -0.413171159850E+03    0.90714E-06   -0.45885E-04  5738   0.192E-02    0.209E-02
RMM:   8    -0.413171150206E+03    0.96441E-05   -0.73054E-05  5179   0.895E-03    0.102E-02
RMM:   9    -0.413171143704E+03    0.65026E-05   -0.14957E-05  4139   0.435E-03    0.713E-03
RMM:  10    -0.413171140042E+03    0.36620E-05   -0.21026E-06  2577   0.218E-03    0.460E-03
RMM:  11    -0.413171137037E+03    0.30042E-05   -0.12235E-06  2508   0.177E-03    0.251E-03
RMM:  12    -0.413171132201E+03    0.48363E-05   -0.15804E-06  2537   0.195E-03    0.919E-04
RMM:  13    -0.413171130507E+03    0.16941E-05   -0.53513E-07  2348   0.129E-03    0.711E-04
RMM:  14    -0.413171130590E+03   -0.82455E-07   -0.23934E-07  1910   0.861E-04
   20 T=    62. E= -.41286650E+03 F= -.41317113E+03 E0= -.41314910E+03  EK= 0.30463E+00 SP= 0.00E+00 SK= 0.00E+00
       N       E                     dE             d eps       ncg     rms          rms(c)
RMM:   1    -0.413167443503E+03    0.36870E-02   -0.10061E+01  4295   0.738E-01    0.889E-01
RMM:   2    -0.413175350948E+03   -0.79074E-02   -0.12439E-01  4279   0.953E-02    0.650E-01
RMM:   3    -0.413172619956E+03    0.27310E-02   -0.11118E-02  4840   0.445E-02    0.122E-01
RMM:   4    -0.413200326681E+03   -0.27707E-01   -0.28882E-02  5130   0.141E-01    0.694E-01
RMM:   5    -0.413172103337E+03    0.28223E-01   -0.13834E-02  4797   0.116E-01    0.450E-02
RMM:   6    -0.413172272633E+03   -0.16930E-03   -0.23731E-03  5814   0.462E-02    0.285E-02
RMM:   7    -0.413172277521E+03   -0.48883E-05   -0.34015E-04  5700   0.172E-02    0.179E-02
RMM:   8    -0.413172271237E+03    0.62843E-05   -0.65937E-05  5009   0.842E-03    0.950E-03
RMM:   9    -0.413172267094E+03    0.41431E-05   -0.13249E-05  4054   0.417E-03    0.706E-03
RMM:  10    -0.413172266271E+03    0.82300E-06   -0.16695E-06  2551   0.207E-03
   21 T=    62. E= -.41286668E+03 F= -.41317227E+03 E0= -.41315028E+03  EK= 0.30558E+00 SP= 0.00E+00 SK= 0.00E+00
       N       E                     dE             d eps       ncg     rms          rms(c)
RMM:   1    -0.413168964202E+03    0.33029E-02   -0.10118E+01  4295   0.747E-01    0.908E-01
RMM:   2    -0.413176231519E+03   -0.72673E-02   -0.12354E-01  4313   0.969E-02    0.651E-01
RMM:   3    -0.413177284743E+03   -0.10532E-02   -0.13931E-02  5102   0.716E-02    0.286E-01
RMM:   4    -0.413205479299E+03   -0.28195E-01   -0.44805E-02  5096   0.178E-01    0.739E-01
RMM:   5    -0.413173245377E+03    0.32234E-01   -0.13448E-02  4716   0.122E-01    0.571E-02
RMM:   6    -0.413173330684E+03   -0.85307E-04   -0.23915E-03  5585   0.485E-02    0.296E-02
RMM:   7    -0.413173339368E+03   -0.86847E-05   -0.37531E-04  5977   0.172E-02    0.186E-02
RMM:   8    -0.413173333239E+03    0.61297E-05   -0.68931E-05  5183   0.906E-03    0.816E-03
RMM:   9    -0.413173326586E+03    0.66524E-05   -0.10748E-05  3594   0.390E-03    0.403E-03
RMM:  10    -0.413173324288E+03    0.22979E-05   -0.22127E-06  2591   0.220E-03    0.276E-03
RMM:  11    -0.413173320639E+03    0.36498E-05   -0.11990E-06  2507   0.176E-03    0.147E-03
RMM:  12    -0.413173317130E+03    0.35088E-05   -0.67744E-07  2456   0.137E-03    0.456E-04
RMM:  13    -0.413173315246E+03    0.18839E-05   -0.32668E-07  2028   0.964E-04    0.273E-04
RMM:  14    -0.413173313347E+03    0.18987E-05   -0.19226E-07  1535   0.773E-04    0.166E-04
RMM:  15    -0.413173310774E+03    0.25732E-05   -0.14830E-07  1354   0.711E-04    0.102E-04
RMM:  16    -0.413173308619E+03    0.21555E-05   -0.10588E-07  1237   0.666E-04    0.103E-04
RMM:  17    -0.413173306019E+03    0.25992E-05   -0.99875E-08  1297   0.651E-04    0.599E-05
RMM:  18    -0.413173304225E+03    0.17945E-05   -0.61097E-08  1041   0.588E-04    0.256E-05
RMM:  19    -0.413173303405E+03    0.82027E-06   -0.32787E-08   840   0.550E-04
   22 T=    62. E= -.41286676E+03 F= -.41317330E+03 E0= -.41315136E+03  EK= 0.30654E+00 SP= 0.00E+00 SK= 0.00E+00
       N       E                     dE             d eps       ncg     rms          rms(c)
RMM:   1    -0.413169619050E+03    0.36852E-02   -0.10094E+01  4295   0.743E-01    0.910E-01
RMM:   2    -0.413176869433E+03   -0.72504E-02   -0.12275E-01  4280   0.978E-02    0.644E-01
RMM:   3    -0.413174549184E+03    0.23202E-02   -0.11111E-02  4871   0.481E-02    0.145E-01
RMM:   4    -0.413208585658E+03   -0.34036E-01   -0.35959E-02  5137   0.157E-01    0.768E-01
RMM:   5    -0.413173849774E+03    0.34736E-01   -0.16937E-02  4789   0.128E-01    0.493E-02
RMM:   6    -0.413174050720E+03   -0.20095E-03   -0.29430E-03  5782   0.516E-02    0.323E-02
RMM:   7    -0.413174048748E+03    0.19727E-05   -0.42343E-04  5715   0.190E-02    0.203E-02
RMM:   8    -0.413174038448E+03    0.10300E-04   -0.74569E-05  5125   0.903E-03    0.105E-02
RMM:   9    -0.413174030810E+03    0.76375E-05   -0.15162E-05  4163   0.442E-03    0.752E-03
RMM:  10    -0.413174026109E+03    0.47011E-05   -0.20296E-06  2576   0.221E-03    0.481E-03
RMM:  11    -0.413174021898E+03    0.42107E-05   -0.13690E-06  2519   0.186E-03    0.259E-03
RMM:  12    -0.413174015411E+03    0.64873E-05   -0.16502E-06  2542   0.201E-03    0.946E-04
RMM:  13    -0.413174013156E+03    0.22552E-05   -0.52338E-07  2346   0.130E-03    0.686E-04
RMM:  14    -0.413174013293E+03   -0.13726E-06   -0.24179E-07  1900   0.863E-04
   23 T=    63. E= -.41286663E+03 F= -.41317401E+03 E0= -.41315212E+03  EK= 0.30739E+00 SP= 0.00E+00 SK= 0.00E+00
       N       E                     dE             d eps       ncg     rms          rms(c)
RMM:   1    -0.413171566114E+03    0.24470E-02   -0.10107E+01  4298   0.771E-01    0.891E-01
RMM:   2    -0.413178870295E+03   -0.73042E-02   -0.12551E-01  4284   0.101E-01    0.650E-01
RMM:   3    -0.413175807346E+03    0.30629E-02   -0.10933E-02  4723   0.453E-02    0.117E-01
RMM:   4    -0.413196901732E+03   -0.21094E-01   -0.21678E-02  5139   0.123E-01    0.608E-01
RMM:   5    -0.413175460504E+03    0.21441E-01   -0.10657E-02  4809   0.101E-01    0.422E-02
RMM:   6    -0.413175576828E+03   -0.11632E-03   -0.18074E-03  5818   0.397E-02    0.257E-02
RMM:   7    -0.413175578610E+03   -0.17816E-05   -0.22168E-04  5653   0.146E-02    0.131E-02
RMM:   8    -0.413175575595E+03    0.30152E-05   -0.47160E-05  4954   0.701E-03    0.890E-03
RMM:   9    -0.413175571408E+03    0.41869E-05   -0.10274E-05  3802   0.368E-03    0.673E-03
RMM:  10    -0.413175569940E+03    0.14675E-05   -0.14651E-06  2535   0.207E-03    0.427E-03
RMM:  11    -0.413175567764E+03    0.21762E-05   -0.16776E-06  2541   0.205E-03    0.206E-03
RMM:  12    -0.413175565028E+03    0.27358E-05   -0.11074E-06  2476   0.169E-03    0.736E-04
RMM:  13    -0.413175564496E+03    0.53217E-06   -0.35996E-07  2150   0.105E-03
   24 T=    63. E= -.41286698E+03 F= -.41317556E+03 E0= -.41315372E+03  EK= 0.30858E+00 SP= 0.00E+00 SK= 0.00E+00
       N       E                     dE             d eps       ncg     rms          rms(c)
RMM:   1    -0.413172466309E+03    0.30987E-02   -0.10188E+01  4296   0.778E-01    0.906E-01
RMM:   2    -0.413179748044E+03   -0.72817E-02   -0.12583E-01  4276   0.103E-01    0.656E-01
RMM:   3    -0.413176661194E+03    0.30868E-02   -0.11114E-02  4618   0.459E-02    0.113E-01
RMM:   4    -0.413192518168E+03   -0.15857E-01   -0.16204E-02  5141   0.106E-01    0.529E-01
RMM:   5    -0.413176437589E+03    0.16081E-01   -0.79947E-03  4816   0.871E-02    0.403E-02
RMM:   6    -0.413176513870E+03   -0.76281E-04   -0.14105E-03  5836   0.342E-02    0.238E-02
RMM:   7    -0.413176512130E+03    0.17401E-05   -0.15768E-04  5540   0.125E-02    0.111E-02
RMM:   8    -0.413176505636E+03    0.64939E-05   -0.26845E-05  4607   0.541E-03    0.743E-03
RMM:   9    -0.413176504768E+03    0.86737E-06   -0.69112E-06  3305   0.302E-03
   25 T=    63. E= -.41286674E+03 F= -.41317650E+03 E0= -.41315471E+03  EK= 0.30977E+00 SP= 0.00E+00 SK= 0.00E+00
       N       E                     dE             d eps       ncg     rms          rms(c)
RMM:   1    -0.413173691800E+03    0.28138E-02   -0.10199E+01  4290   0.763E-01    0.919E-01
RMM:   2    -0.413180617274E+03   -0.69255E-02   -0.12424E-01  4351   0.101E-01    0.649E-01
RMM:   3    -0.413185723068E+03   -0.51058E-02   -0.17245E-02  5124   0.928E-02    0.391E-01
RMM:   4    -0.413197673807E+03   -0.11951E-01   -0.37131E-02  5051   0.165E-01    0.583E-01
RMM:   5    -0.413177934170E+03    0.19740E-01   -0.69650E-03  4638   0.958E-02    0.549E-02
RMM:   6    -0.413177922783E+03    0.11387E-04   -0.14750E-03  5470   0.371E-02    0.301E-02
RMM:   7    -0.413177916717E+03    0.60658E-05   -0.27293E-04  5874   0.158E-02    0.181E-02
RMM:   8    -0.413177905902E+03    0.10815E-04   -0.58486E-05  5078   0.866E-03    0.734E-03
RMM:   9    -0.413177896522E+03    0.93798E-05   -0.78643E-06  3442   0.371E-03    0.366E-03
RMM:  10    -0.413177892724E+03    0.37976E-05   -0.13575E-06  2511   0.199E-03    0.228E-03
RMM:  11    -0.413177885212E+03    0.75119E-05   -0.10849E-06  2495   0.169E-03    0.137E-03
RMM:  12    -0.413177880016E+03    0.51959E-05   -0.52762E-07  2421   0.125E-03    0.490E-04
RMM:  13    -0.413177876061E+03    0.39559E-05   -0.26589E-07  1899   0.887E-04    0.263E-04
RMM:  14    -0.413177872642E+03    0.34187E-05   -0.15009E-07  1368   0.720E-04    0.169E-04
RMM:  15    -0.413177867636E+03    0.50055E-05   -0.13348E-07  1302   0.698E-04    0.117E-04
RMM:  16    -0.413177863870E+03    0.37667E-05   -0.10288E-07  1306   0.656E-04    0.117E-04
RMM:  17    -0.413177859371E+03    0.44988E-05   -0.10526E-07  1333   0.648E-04    0.610E-05
RMM:  18    -0.413177857899E+03    0.14718E-05   -0.45800E-08   895   0.548E-04    0.403E-05
RMM:  19    -0.413177857203E+03    0.69624E-06   -0.25419E-08   763   0.523E-04
   26 T=    63. E= -.41286668E+03 F= -.41317786E+03 E0= -.41315611E+03  EK= 0.31118E+00 SP= 0.00E+00 SK= 0.00E+00
       N       E                     dE             d eps       ncg     rms          rms(c)
RMM:   1    -0.413175185086E+03    0.26728E-02   -0.10175E+01  4291   0.782E-01    0.897E-01
RMM:   2    -0.413182491116E+03   -0.73060E-02   -0.12604E-01  4278   0.103E-01    0.651E-01
RMM:   3    -0.413179938903E+03    0.25522E-02   -0.11114E-02  4768   0.484E-02    0.127E-01
RMM:   4    -0.413206417739E+03   -0.26479E-01   -0.27285E-02  5143   0.137E-01    0.679E-01
RMM:   5    -0.413179510569E+03    0.26907E-01   -0.13436E-02  4802   0.113E-01    0.448E-02
RMM:   6    -0.413179649566E+03   -0.13900E-03   -0.22100E-03  5821   0.446E-02    0.285E-02
RMM:   7    -0.413179650326E+03   -0.75962E-06   -0.30070E-04  5706   0.166E-02    0.164E-02
RMM:   8    -0.413179644689E+03    0.56372E-05   -0.64853E-05  5025   0.825E-03    0.972E-03
RMM:   9    -0.413179638654E+03    0.60348E-05   -0.12864E-05  4071   0.419E-03    0.701E-03
RMM:  10    -0.413179636180E+03    0.24743E-05   -0.17341E-06  2560   0.211E-03    0.442E-03
RMM:  11    -0.413179633557E+03    0.26228E-05   -0.14043E-06  2510   0.191E-03    0.223E-03
RMM:  12    -0.413179630024E+03    0.35330E-05   -0.13011E-06  2493   0.180E-03    0.798E-04
RMM:  13    -0.413179628956E+03    0.10672E-05   -0.42052E-07  2243   0.114E-03    0.521E-04
RMM:  14    -0.413179628721E+03    0.23541E-06   -0.20193E-07  1740   0.799E-04
   27 T=    64. E= -.41286686E+03 F= -.41317963E+03 E0= -.41315793E+03  EK= 0.31277E+00 SP= 0.00E+00 SK= 0.00E+00
       N       E                     dE             d eps       ncg     rms          rms(c)
RMM:   1    -0.413178432293E+03    0.11967E-02   -0.10311E+01  4292   0.806E-01    0.906E-01
RMM:   2    -0.413183822370E+03   -0.53901E-02   -0.13319E-01  4276   0.108E-01    0.662E-01
RMM:   3    -0.413180961481E+03    0.28609E-02   -0.11128E-02  4585   0.466E-02    0.116E-01
RMM:   4    -0.413194782388E+03   -0.13821E-01   -0.14177E-02  5143   0.100E-01    0.494E-01
RMM:   5    -0.413180779938E+03    0.14002E-01   -0.70168E-03  4816   0.812E-02    0.395E-02
RMM:   6    -0.413180829830E+03   -0.49892E-04   -0.11844E-03  5862   0.319E-02    0.230E-02
RMM:   7    -0.413180825713E+03    0.41168E-05   -0.14215E-04  5501   0.123E-02    0.104E-02
RMM:   8    -0.413180821247E+03    0.44661E-05   -0.21882E-05  4411   0.504E-03    0.686E-03
RMM:   9    -0.413180818665E+03    0.25822E-05   -0.40883E-06  2865   0.256E-03    0.471E-03
RMM:  10    -0.413180817784E+03    0.88105E-06   -0.10351E-06  2504   0.173E-03
   28 T=    64. E= -.41286655E+03 F= -.41318082E+03 E0= -.41315917E+03  EK= 0.31426E+00 SP= 0.00E+00 SK= 0.00E+00
       N       E                     dE             d eps       ncg     rms          rms(c)
RMM:   1    -0.413178587548E+03    0.22311E-02   -0.10326E+01  4295   0.785E-01    0.927E-01
RMM:   2    -0.413185538129E+03   -0.69506E-02   -0.12669E-01  4280   0.105E-01    0.656E-01
RMM:   3    -0.413182943168E+03    0.25950E-02   -0.11428E-02  4559   0.489E-02    0.123E-01
RMM:   4    -0.413196068705E+03   -0.13126E-01   -0.13438E-02  5151   0.970E-02    0.482E-01
RMM:   5    -0.413182786020E+03    0.13283E-01   -0.67322E-03  4828   0.793E-02    0.407E-02
RMM:   6    -0.413182832998E+03   -0.46978E-04   -0.11663E-03  5859   0.315E-02    0.238E-02
RMM:   7    -0.413182823571E+03    0.94271E-05   -0.16778E-04  5571   0.135E-02    0.133E-02
RMM:   8    -0.413182816183E+03    0.73875E-05   -0.34470E-05  4774   0.642E-03    0.780E-03
RMM:   9    -0.413182810804E+03    0.53794E-05   -0.64579E-06  3243   0.315E-03    0.590E-03
RMM:  10    -0.413182805579E+03    0.52246E-05   -0.12496E-06  2503   0.200E-03    0.344E-03
RMM:  11    -0.413182798815E+03    0.67647E-05   -0.10765E-06  2494   0.175E-03    0.172E-03
RMM:  12    -0.413182791829E+03    0.69856E-05   -0.79594E-07  2447   0.146E-03    0.901E-04
RMM:  13    -0.413182789615E+03    0.22139E-05   -0.30582E-07  2116   0.978E-04    0.481E-04
RMM:  14    -0.413182787805E+03    0.18101E-05   -0.14586E-07  1463   0.722E-04    0.347E-04
RMM:  15    -0.413182783207E+03    0.45977E-05   -0.15188E-07  1785   0.753E-04    0.248E-04
RMM:  16    -0.413182779608E+03    0.35994E-05   -0.82441E-08  1247   0.630E-04    0.278E-04
RMM:  17    -0.413182777483E+03    0.21249E-05   -0.39506E-08   859   0.548E-04    0.159E-04
RMM:  18    -0.413182773286E+03    0.41973E-05   -0.60128E-08  1042   0.603E-04    0.671E-05
RMM:  19    -0.413182772672E+03    0.61379E-06   -0.21008E-08   770   0.548E-04
   29 T=    64. E= -.41286672E+03 F= -.41318277E+03 E0= -.41316118E+03  EK= 0.31605E+00 SP= 0.00E+00 SK= 0.00E+00
       N       E                     dE             d eps       ncg     rms          rms(c)
RMM:   1    -0.413180415357E+03    0.23579E-02   -0.10291E+01  4289   0.800E-01    0.907E-01
RMM:   2    -0.413187770148E+03   -0.73548E-02   -0.12802E-01  4274   0.112E-01    0.654E-01
RMM:   3    -0.413184746975E+03    0.30232E-02   -0.11251E-02  4482   0.503E-02    0.115E-01
RMM:   4    -0.413194265792E+03   -0.95188E-02   -0.98825E-03  5149   0.838E-02    0.411E-01
RMM:   5    -0.413184652210E+03    0.96136E-02   -0.48863E-03  4829   0.675E-02    0.387E-02
RMM:   6    -0.413184679201E+03   -0.26991E-04   -0.87691E-04  5830   0.276E-02    0.240E-02
RMM:   7    -0.413184678494E+03    0.70741E-06   -0.22268E-04  5403   0.148E-02    0.160E-02
RMM:   8    -0.413184662078E+03    0.16416E-04   -0.25241E-05  4537   0.621E-03    0.685E-03
RMM:   9    -0.413184659855E+03    0.22233E-05   -0.48463E-06  2982   0.277E-03    0.494E-03
RMM:  10    -0.413184656270E+03    0.35854E-05   -0.13817E-06  2493   0.197E-03    0.272E-03
RMM:  11    -0.413184652557E+03    0.37125E-05   -0.88735E-07  2472   0.159E-03    0.135E-03
RMM:  12    -0.413184649199E+03    0.33580E-05   -0.50602E-07  2323   0.120E-03    0.665E-04
RMM:  13    -0.413184647723E+03    0.14762E-05   -0.23251E-07  1865   0.852E-04    0.292E-04
RMM:  14    -0.413184645881E+03    0.18423E-05   -0.13112E-07  1374   0.703E-04    0.179E-04
RMM:  15    -0.413184643054E+03    0.28264E-05   -0.91849E-08  1199   0.660E-04    0.806E-05
RMM:  16    -0.413184641587E+03    0.14676E-05   -0.50735E-08   955   0.611E-04    0.648E-05
RMM:  17    -0.413184639612E+03    0.19747E-05   -0.44691E-08   979   0.606E-04    0.426E-05
RMM:  18    -0.413184637177E+03    0.24348E-05   -0.49224E-08  1083   0.606E-04    0.349E-05
RMM:  19    -0.413184636675E+03    0.50237E-06   -0.15040E-08   720   0.542E-04
   30 T=    65. E= -.41286679E+03 F= -.41318464E+03 E0= -.41316309E+03  EK= 0.31785E+00 SP= 0.00E+00 SK= 0.00E+00
       N       E                     dE             d eps       ncg     rms          rms(c)
RMM:   1    -0.413182772230E+03    0.18649E-02   -0.10423E+01  4291   0.830E-01    0.909E-01
RMM:   2    -0.413190009297E+03   -0.72371E-02   -0.13324E-01  4285   0.120E-01    0.667E-01
RMM:   3    -0.413186339968E+03    0.36693E-02   -0.11704E-02  4413   0.563E-02    0.108E-01
RMM:   4    -0.413194417237E+03   -0.80773E-02   -0.84116E-03  5157   0.772E-02    0.379E-01
RMM:   5    -0.413186296052E+03    0.81212E-02   -0.41370E-03  4827   0.622E-02    0.376E-02
RMM:   6    -0.413186322021E+03   -0.25969E-04   -0.76974E-04  5819   0.260E-02    0.240E-02
RMM:   7    -0.413186322069E+03   -0.47901E-07   -0.21885E-04  5357   0.147E-02    0.157E-02
RMM:   8    -0.413186308161E+03    0.13908E-04   -0.21915E-05  4421   0.593E-03    0.670E-03
RMM:   9    -0.413186306954E+03    0.12065E-05   -0.39951E-06  2858   0.258E-03    0.464E-03
RMM:  10    -0.413186305038E+03    0.19158E-05   -0.13811E-06  2499   0.191E-03    0.250E-03
RMM:  11    -0.413186303113E+03    0.19252E-05   -0.85948E-07  2460   0.155E-03    0.122E-03
RMM:  12    -0.413186301297E+03    0.18159E-05   -0.47561E-07  2255   0.115E-03    0.606E-04
RMM:  13    -0.413186300299E+03    0.99812E-06   -0.22575E-07  1771   0.831E-04
   31 T=    65. E= -.41286663E+03 F= -.41318630E+03 E0= -.41316480E+03  EK= 0.31967E+00 SP= 0.00E+00 SK= 0.00E+00
       N       E                     dE             d eps       ncg     rms          rms(c)
RMM:   1    -0.413184713916E+03    0.15874E-02   -0.10471E+01  4292   0.818E-01    0.933E-01
RMM:   2    -0.413192118915E+03   -0.74050E-02   -0.13074E-01  4289   0.123E-01    0.663E-01
RMM:   3    -0.413188908596E+03    0.32103E-02   -0.11651E-02  4238   0.543E-02    0.116E-01
RMM:   4    -0.413189101351E+03   -0.19276E-03   -0.97899E-04  4900   0.219E-02    0.583E-02
RMM:   5    -0.413188995719E+03    0.10563E-03   -0.16069E-04  4822   0.125E-02    0.433E-02
RMM:   6    -0.413188980067E+03    0.15652E-04   -0.28339E-04  5252   0.167E-02    0.277E-02
RMM:   7    -0.413188938881E+03    0.41186E-04   -0.16935E-04  4816   0.131E-02    0.139E-02
RMM:   8    -0.413188936384E+03    0.24969E-05   -0.17872E-05  4058   0.461E-03    0.476E-03
RMM:   9    -0.413188934732E+03    0.16526E-05   -0.24802E-06  2460   0.202E-03    0.196E-03
RMM:  10    -0.413188925405E+03    0.93260E-05   -0.81402E-07  2375   0.141E-03    0.774E-04
RMM:  11    -0.413188920794E+03    0.46117E-05   -0.21022E-07  1665   0.801E-04    0.424E-04
RMM:  12    -0.413188916744E+03    0.40495E-05   -0.14868E-07  1527   0.729E-04    0.224E-04
RMM:  13    -0.413188912192E+03    0.45525E-05   -0.12503E-07  1406   0.685E-04    0.142E-04
RMM:  14    -0.413188906018E+03    0.61737E-05   -0.10167E-07  1207   0.652E-04    0.131E-04
RMM:  15    -0.413188903446E+03    0.25723E-05   -0.36379E-08   781   0.559E-04    0.716E-05
RMM:  16    -0.413188899889E+03    0.35569E-05   -0.42132E-08   908   0.576E-04    0.428E-05
RMM:  17    -0.413188899123E+03    0.76611E-06   -0.14135E-08   628   0.517E-04
   32 T=    66. E= -.41286703E+03 F= -.41318890E+03 E0= -.41316745E+03  EK= 0.32187E+00 SP= 0.00E+00 SK= 0.00E+00
       N       E                     dE             d eps       ncg     rms          rms(c)
RMM:   1    -0.413186436739E+03    0.24631E-02   -0.10445E+01  4284   0.831E-01    0.920E-01
RMM:   2    -0.413194004203E+03   -0.75675E-02   -0.13166E-01  4283   0.126E-01    0.659E-01
RMM:   3    -0.413190812948E+03    0.31913E-02   -0.11381E-02  4236   0.528E-02    0.117E-01
RMM:   4    -0.413191204564E+03   -0.39162E-03   -0.11509E-03  5010   0.261E-02    0.807E-02
RMM:   5    -0.413190911788E+03    0.29278E-03   -0.22130E-04  4749   0.150E-02    0.387E-02
RMM:   6    -0.413190912703E+03   -0.91441E-06   -0.27397E-04  5323   0.164E-02    0.269E-02
RMM:   7    -0.413190879501E+03    0.33202E-04   -0.17241E-04  4834   0.128E-02    0.153E-02
RMM:   8    -0.413190875065E+03    0.44357E-05   -0.17199E-05  4053   0.465E-03    0.536E-03
RMM:   9    -0.413190873765E+03    0.13001E-05   -0.27445E-06  2382   0.204E-03    0.220E-03
RMM:  10    -0.413190866832E+03    0.69324E-05   -0.84616E-07  2299   0.141E-03    0.866E-04
RMM:  11    -0.413190863102E+03    0.37306E-05   -0.27481E-07  1802   0.874E-04    0.378E-04
RMM:  12    -0.413190859183E+03    0.39187E-05   -0.17041E-07  1442   0.755E-04    0.196E-04
RMM:  13    -0.413190855781E+03    0.34023E-05   -0.10167E-07  1128   0.667E-04    0.141E-04
RMM:  14    -0.413190851517E+03    0.42638E-05   -0.74961E-08   987   0.630E-04    0.942E-05
RMM:  15    -0.413190847347E+03    0.41698E-05   -0.61358E-08   966   0.611E-04    0.500E-05
RMM:  16    -0.413190844787E+03    0.25604E-05   -0.38243E-08   800   0.565E-04    0.465E-05
RMM:  17    -0.413190843815E+03    0.97173E-06   -0.15934E-08   573   0.521E-04
   33 T=    66. E= -.41286686E+03 F= -.41319084E+03 E0= -.41316944E+03  EK= 0.32399E+00 SP= 0.00E+00 SK= 0.00E+00
       N       E                     dE             d eps       ncg     rms          rms(c)
RMM:   1    -0.413195173813E+03   -0.43290E-02   -0.10618E+01  4299   0.905E-01    0.912E-01
RMM:   2    -0.413196594938E+03   -0.14211E-02   -0.14841E-01  4284   0.133E-01    0.673E-01
RMM:   3    -0.413193253480E+03    0.33415E-02   -0.11048E-02  4204   0.558E-02    0.125E-01
RMM:   4    -0.413193358414E+03   -0.10493E-03   -0.11030E-03  4690   0.218E-02    0.432E-02
RMM:   5    -0.413193369972E+03   -0.11558E-04   -0.13389E-04  4915   0.110E-02    0.470E-02
RMM:   6    -0.413193324958E+03    0.45014E-04   -0.25108E-04  5203   0.155E-02    0.251E-02
RMM:   7    -0.413193294004E+03    0.30954E-04   -0.15830E-04  4853   0.126E-02    0.131E-02
RMM:   8    -0.413193291589E+03    0.24146E-05   -0.15167E-05  3701   0.427E-03    0.402E-03
RMM:   9    -0.413193291049E+03    0.54015E-06   -0.20354E-06  2380   0.196E-03
   34 T=    66. E= -.41286684E+03 F= -.41319329E+03 E0= -.41317194E+03  EK= 0.32645E+00 SP= 0.00E+00 SK= 0.00E+00
       N       E                     dE             d eps       ncg     rms          rms(c)
RMM:   1    -0.413194148268E+03   -0.85668E-03   -0.10670E+01  4301   0.898E-01    0.937E-01
RMM:   2    -0.413199013721E+03   -0.48655E-02   -0.13755E-01  4274   0.130E-01    0.673E-01
RMM:   3    -0.413196001221E+03    0.30125E-02   -0.11666E-02  4398   0.574E-02    0.121E-01
RMM:   4    -0.413199835372E+03   -0.38342E-02   -0.44697E-03  5171   0.571E-02    0.262E-01
RMM:   5    -0.413196042254E+03    0.37931E-02   -0.19521E-03  4819   0.440E-02    0.398E-02
RMM:   6    -0.413196031712E+03    0.10542E-04   -0.48773E-04  5619   0.225E-02    0.300E-02
RMM:   7    -0.413196014812E+03    0.16900E-04   -0.22390E-04  5090   0.137E-02    0.155E-02
RMM:   8    -0.413196006801E+03    0.80112E-05   -0.20365E-05  4308   0.518E-03    0.636E-03
RMM:   9    -0.413196004538E+03    0.22629E-05   -0.31958E-06  2600   0.216E-03    0.317E-03
RMM:  10    -0.413195997715E+03    0.68225E-05   -0.10175E-06  2482   0.166E-03    0.162E-03
RMM:  11    -0.413195992545E+03    0.51708E-05   -0.50443E-07  2293   0.115E-03    0.898E-04
RMM:  12    -0.413195986960E+03    0.55844E-05   -0.33502E-07  2026   0.963E-04    0.330E-04
RMM:  13    -0.413195983214E+03    0.37463E-05   -0.16702E-07  1408   0.739E-04    0.208E-04
RMM:  14    -0.413195978365E+03    0.48486E-05   -0.11559E-07  1139   0.677E-04    0.167E-04
RMM:  15    -0.413195971976E+03    0.63888E-05   -0.10945E-07  1281   0.680E-04    0.913E-05
RMM:  16    -0.413195969979E+03    0.19977E-05   -0.55745E-08   987   0.595E-04    0.676E-05
RMM:  17    -0.413195966202E+03    0.37766E-05   -0.56536E-08  1132   0.601E-04    0.321E-05
RMM:  18    -0.413195965134E+03    0.10678E-05   -0.27566E-08   791   0.526E-04    0.190E-05
RMM:  19    -0.413195964724E+03    0.40991E-06   -0.16151E-08   661   0.508E-04
   35 T=    67. E= -.41286689E+03 F= -.41319596E+03 E0= -.41317466E+03  EK= 0.32908E+00 SP= 0.00E+00 SK= 0.00E+00
       N       E                     dE             d eps       ncg     rms          rms(c)
RMM:   1    -0.413199020298E+03   -0.30552E-02   -0.10706E+01  4301   0.925E-01    0.937E-01
RMM:   2    -0.413200843023E+03   -0.18227E-02   -0.13575E-01  4262   0.131E-01    0.667E-01
RMM:   3    -0.413198147444E+03    0.26956E-02   -0.11819E-02  4513   0.594E-02    0.129E-01
RMM:   4    -0.413210614312E+03   -0.12467E-01   -0.12740E-02  5165   0.952E-02    0.471E-01
RMM:   5    -0.413198076836E+03    0.12537E-01   -0.63337E-03  4811   0.781E-02    0.421E-02
RMM:   6    -0.413198084877E+03   -0.80409E-05   -0.11975E-03  5804   0.331E-02    0.285E-02
RMM:   7    -0.413198085280E+03   -0.40303E-06   -0.29207E-04  5431   0.165E-02    0.177E-02
RMM:   8    -0.413198067853E+03    0.17427E-04   -0.36226E-05  4845   0.707E-03    0.793E-03
RMM:   9    -0.413198064894E+03    0.29595E-05   -0.63191E-06  3144   0.314E-03    0.535E-03
RMM:  10    -0.413198059174E+03    0.57191E-05   -0.13651E-06  2510   0.205E-03    0.291E-03
RMM:  11    -0.413198053306E+03    0.58689E-05   -0.97821E-07  2487   0.164E-03    0.149E-03
RMM:  12    -0.413198046822E+03    0.64839E-05   -0.68145E-07  2416   0.136E-03    0.743E-04
RMM:  13    -0.413198044116E+03    0.27053E-05   -0.29259E-07  2029   0.943E-04    0.377E-04
RMM:  14    -0.413198041991E+03    0.21251E-05   -0.14340E-07  1421   0.717E-04    0.243E-04
RMM:  15    -0.413198037771E+03    0.42199E-05   -0.94563E-08  1227   0.668E-04    0.972E-05
RMM:  16    -0.413198034823E+03    0.29484E-05   -0.60392E-08  1023   0.625E-04    0.736E-05
RMM:  17    -0.413198032183E+03    0.26402E-05   -0.45740E-08   997   0.602E-04    0.628E-05
RMM:  18    -0.413198028268E+03    0.39148E-05   -0.51913E-08  1190   0.613E-04    0.429E-05
RMM:  19    -0.413198027059E+03    0.12085E-05   -0.21622E-08   792   0.537E-04    0.282E-05
RMM:  20    -0.413198026649E+03    0.41006E-06   -0.12447E-08   683   0.521E-04
   36 T=    67. E= -.41286653E+03 F= -.41319803E+03 E0= -.41317676E+03  EK= 0.33149E+00 SP= 0.00E+00 SK= 0.00E+00
       N       E                     dE             d eps       ncg     rms          rms(c)
RMM:   1    -0.413212558198E+03   -0.14531E-01   -0.10885E+01  4302   0.104E+00    0.921E-01
RMM:   2    -0.413204647241E+03    0.79110E-02   -0.15996E-01  4263   0.142E-01    0.679E-01
RMM:   3    -0.413201233894E+03    0.34133E-02   -0.10878E-02  4639   0.576E-02    0.155E-01
RMM:   4    -0.413224646094E+03   -0.23412E-01   -0.23812E-02  5157   0.130E-01    0.640E-01
RMM:   5    -0.413201017931E+03    0.23628E-01   -0.11933E-02  4802   0.107E-01    0.455E-02
RMM:   6    -0.413201044739E+03   -0.26808E-04   -0.20093E-03  5850   0.422E-02    0.288E-02
RMM:   7    -0.413201055537E+03   -0.10798E-04   -0.29510E-04  5613   0.163E-02    0.161E-02
RMM:   8    -0.413201044836E+03    0.10701E-04   -0.56570E-05  4982   0.800E-03    0.910E-03
RMM:   9    -0.413201043289E+03    0.15470E-05   -0.14408E-05  4192   0.443E-03    0.647E-03
RMM:  10    -0.413201039585E+03    0.37041E-05   -0.18164E-06  2579   0.226E-03    0.379E-03
RMM:  11    -0.413201037234E+03    0.23510E-05   -0.10294E-06  2497   0.164E-03    0.229E-03
RMM:  12    -0.413201031952E+03    0.52815E-05   -0.14291E-06  2508   0.190E-03    0.109E-03
RMM:  13    -0.413201029557E+03    0.23958E-05   -0.51860E-07  2307   0.125E-03    0.636E-04
RMM:  14    -0.413201029228E+03    0.32858E-06   -0.22073E-07  1798   0.829E-04
   37 T=    68. E= -.41286690E+03 F= -.41320103E+03 E0= -.41317981E+03  EK= 0.33413E+00 SP= 0.00E+00 SK= 0.00E+00
       N       E                     dE             d eps       ncg     rms          rms(c)
RMM:   1    -0.413221639154E+03   -0.20610E-01   -0.11063E+01  4306   0.108E+00    0.940E-01
RMM:   2    -0.413207242740E+03    0.14396E-01   -0.16486E-01  4261   0.134E-01    0.684E-01
RMM:   3    -0.413203729610E+03    0.35131E-02   -0.10946E-02  4744   0.545E-02    0.173E-01
RMM:   4    -0.413237202029E+03   -0.33472E-01   -0.34238E-02  5152   0.155E-01    0.762E-01
RMM:   5    -0.413203305583E+03    0.33896E-01   -0.17228E-02  4801   0.128E-01    0.494E-02
RMM:   6    -0.413203366225E+03   -0.60642E-04   -0.27308E-03  5847   0.496E-02    0.311E-02
RMM:   7    -0.413203375483E+03   -0.92576E-05   -0.34964E-04  5714   0.175E-02    0.163E-02
RMM:   8    -0.413203366896E+03    0.85866E-05   -0.60236E-05  5024   0.800E-03    0.970E-03
RMM:   9    -0.413203364884E+03    0.20129E-05   -0.20472E-05  4537   0.492E-03    0.715E-03
RMM:  10    -0.413203359035E+03    0.58481E-05   -0.26033E-06  2646   0.255E-03    0.416E-03
RMM:  11    -0.413203355588E+03    0.34478E-05   -0.12873E-06  2494   0.184E-03    0.255E-03
RMM:  12    -0.413203347300E+03    0.82881E-05   -0.17291E-06  2535   0.213E-03    0.122E-03
RMM:  13    -0.413203343776E+03    0.35232E-05   -0.61112E-07  2376   0.139E-03    0.813E-04
RMM:  14    -0.413203343637E+03    0.13981E-06   -0.24201E-07  1960   0.888E-04
   38 T=    69. E= -.41286678E+03 F= -.41320334E+03 E0= -.41318217E+03  EK= 0.33657E+00 SP= 0.00E+00 SK= 0.00E+00
       N       E                     dE             d eps       ncg     rms          rms(c)
RMM:   1    -0.413205135110E+03   -0.17913E-02   -0.10903E+01  4305   0.102E+00    0.954E-01
RMM:   2    -0.413209457581E+03   -0.43225E-02   -0.14244E-01  4262   0.124E-01    0.677E-01
RMM:   3    -0.413206604460E+03    0.28531E-02   -0.12252E-02  4922   0.571E-02    0.173E-01
RMM:   4    -0.413250072782E+03   -0.43468E-01   -0.46287E-02  5135   0.179E-01    0.866E-01
RMM:   5    -0.413205807563E+03    0.44265E-01   -0.22037E-02  4796   0.145E-01    0.547E-02
RMM:   6    -0.413205915646E+03   -0.10808E-03   -0.35667E-03  5820   0.563E-02    0.335E-02
RMM:   7    -0.413205924428E+03   -0.87815E-05   -0.42166E-04  5694   0.188E-02    0.173E-02
RMM:   8    -0.413205915055E+03    0.93727E-05   -0.51042E-05  4787   0.706E-03    0.879E-03
RMM:   9    -0.413205907228E+03    0.78276E-05   -0.93274E-06  3168   0.326E-03    0.520E-03
RMM:  10    -0.413205902630E+03    0.45980E-05   -0.20505E-06  2541   0.210E-03    0.345E-03
RMM:  11    -0.413205893696E+03    0.89335E-05   -0.19414E-06  2548   0.224E-03    0.193E-03
RMM:  12    -0.413205887189E+03    0.65074E-05   -0.10845E-06  2475   0.178E-03    0.914E-04
RMM:  13    -0.413205884346E+03    0.28428E-05   -0.42595E-07  2301   0.116E-03    0.658E-04
RMM:  14    -0.413205883023E+03    0.13232E-05   -0.20399E-07  1789   0.813E-04    0.443E-04
RMM:  15    -0.413205878623E+03    0.44002E-05   -0.14038E-07  1609   0.747E-04    0.193E-04
RMM:  16    -0.413205874817E+03    0.38059E-05   -0.84416E-08  1254   0.658E-04    0.134E-04
RMM:  17    -0.413205871171E+03    0.36456E-05   -0.59728E-08  1141   0.622E-04    0.144E-04
RMM:  18    -0.413205866900E+03    0.42712E-05   -0.50756E-08  1115   0.608E-04    0.766E-05
RMM:  19    -0.413205864202E+03    0.26978E-05   -0.37234E-08  1059   0.585E-04    0.449E-05
RMM:  20    -0.413205863880E+03    0.32202E-06   -0.15511E-08   740   0.533E-04
   39 T=    69. E= -.41286676E+03 F= -.41320586E+03 E0= -.41318473E+03  EK= 0.33910E+00 SP= 0.00E+00 SK= 0.00E+00
       N       E                     dE             d eps       ncg     rms          rms(c)
RMM:   1    -0.413226655985E+03   -0.20792E-01   -0.11109E+01  4312   0.116E+00    0.931E-01
RMM:   2    -0.413212821899E+03    0.13834E-01   -0.16655E-01  4267   0.134E-01    0.683E-01
RMM:   3    -0.413210252430E+03    0.25695E-02   -0.11615E-02  5014   0.609E-02    0.225E-01
RMM:   4    -0.413264450586E+03   -0.54198E-01   -0.61459E-02  5124   0.206E-01    0.967E-01
RMM:   5    -0.413208611545E+03    0.55839E-01   -0.27149E-02  4777   0.163E-01    0.604E-02
RMM:   6    -0.413208770796E+03   -0.15925E-03   -0.44506E-03  5821   0.628E-02    0.351E-02
RMM:   7    -0.413208787881E+03   -0.17085E-04   -0.54585E-04  5809   0.208E-02    0.219E-02
RMM:   8    -0.413208788823E+03   -0.94155E-06   -0.12460E-04  5256   0.110E-02    0.137E-02
RMM:   9    -0.413208776071E+03    0.12752E-04   -0.26839E-05  4672   0.604E-03    0.657E-03
RMM:  10    -0.413208772431E+03    0.36399E-05   -0.54027E-06  2959   0.297E-03    0.412E-03
RMM:  11    -0.413208769459E+03    0.29719E-05   -0.15176E-06  2506   0.204E-03    0.244E-03
RMM:  12    -0.413208763755E+03    0.57042E-05   -0.12910E-06  2493   0.191E-03    0.839E-04
RMM:  13    -0.413208760490E+03    0.32648E-05   -0.59801E-07  2403   0.135E-03    0.574E-04
RMM:  14    -0.413208759889E+03    0.60125E-06   -0.27095E-07  2011   0.917E-04
   40 T=    70. E= -.41286703E+03 F= -.41320876E+03 E0= -.41318766E+03  EK= 0.34173E+00 SP= 0.00E+00 SK= 0.00E+00
       N       E                     dE             d eps       ncg     rms          rms(c)
RMM:   1    -0.413227213138E+03   -0.18453E-01   -0.11229E+01  4312   0.119E+00    0.943E-01
RMM:   2    -0.413215035740E+03    0.12177E-01   -0.17391E-01  4270   0.141E-01    0.694E-01
RMM:   3    -0.413212636002E+03    0.23997E-02   -0.11932E-02  5042   0.628E-02    0.243E-01
RMM:   4    -0.413268815069E+03   -0.56179E-01   -0.65002E-02  5122   0.212E-01    0.986E-01
RMM:   5    -0.413210679362E+03    0.58136E-01   -0.28063E-02  4776   0.166E-01    0.619E-02
RMM:   6    -0.413210846946E+03   -0.16758E-03   -0.46142E-03  5809   0.640E-02    0.354E-02
RMM:   7    -0.413210864672E+03   -0.17726E-04   -0.55890E-04  5840   0.210E-02    0.225E-02
RMM:   8    -0.413210866392E+03   -0.17200E-05   -0.13030E-04  5266   0.112E-02    0.140E-02
RMM:   9    -0.413210852325E+03    0.14067E-04   -0.27650E-05  4677   0.615E-03    0.639E-03
RMM:  10    -0.413210848242E+03    0.40830E-05   -0.59003E-06  3030   0.304E-03    0.403E-03
RMM:  11    -0.413210844848E+03    0.33940E-05   -0.15192E-06  2507   0.204E-03    0.236E-03
RMM:  12    -0.413210838626E+03    0.62216E-05   -0.11793E-06  2488   0.183E-03    0.791E-04
RMM:  13    -0.413210835049E+03    0.35772E-05   -0.56050E-07  2386   0.130E-03    0.505E-04
RMM:  14    -0.413210834043E+03    0.10057E-05   -0.26107E-07  1982   0.902E-04    0.344E-04
RMM:  15    -0.413210831941E+03    0.21018E-05   -0.13992E-07  1448   0.718E-04    0.172E-04
RMM:  16    -0.413210827954E+03    0.39877E-05   -0.10664E-07  1248   0.682E-04    0.140E-04
RMM:  17    -0.413210826488E+03    0.14660E-05   -0.57566E-08   998   0.613E-04    0.770E-05
RMM:  18    -0.413210823252E+03    0.32359E-05   -0.61335E-08  1169   0.636E-04    0.823E-05
RMM:  19    -0.413210821458E+03    0.17936E-05   -0.36788E-08   981   0.588E-04    0.426E-05
RMM:  20    -0.413210820378E+03    0.10808E-05   -0.23708E-08   870   0.563E-04    0.198E-05
RMM:  21    -0.413210819866E+03    0.51135E-06   -0.15663E-08   765   0.545E-04
   41 T=    70. E= -.41286681E+03 F= -.41321082E+03 E0= -.41318975E+03  EK= 0.34401E+00 SP= 0.00E+00 SK= 0.00E+00
       N       E                     dE             d eps       ncg     rms          rms(c)
RMM:   1    -0.413217656639E+03   -0.68363E-02   -0.11144E+01  4310   0.118E+00    0.967E-01
RMM:   2    -0.413216905760E+03    0.75088E-03   -0.14980E-01  4290   0.135E-01    0.686E-01
RMM:   3    -0.413217001087E+03   -0.95328E-04   -0.14815E-02  5073   0.756E-02    0.291E-01
RMM:   4    -0.413254209994E+03   -0.37209E-01   -0.52988E-02  5090   0.194E-01    0.833E-01
RMM:   5    -0.413213351278E+03    0.40859E-01   -0.18174E-02  4740   0.139E-01    0.594E-02
RMM:   6    -0.413213422918E+03   -0.71640E-04   -0.32106E-03  5763   0.536E-02    0.345E-02
RMM:   7    -0.413213429811E+03   -0.68929E-05   -0.45105E-04  5751   0.194E-02    0.221E-02
RMM:   8    -0.413213426291E+03    0.35202E-05   -0.12144E-04  5209   0.112E-02    0.125E-02
RMM:   9    -0.413213412150E+03    0.14140E-04   -0.20160E-05  4446   0.560E-03    0.522E-03
RMM:  10    -0.413213406943E+03    0.52079E-05   -0.43507E-06  2861   0.267E-03    0.332E-03
RMM:  11    -0.413213401692E+03    0.52508E-05   -0.12030E-06  2491   0.186E-03    0.181E-03
RMM:  12    -0.413213393718E+03    0.79741E-05   -0.79822E-07  2463   0.155E-03    0.672E-04
RMM:  13    -0.413213389281E+03    0.44365E-05   -0.38872E-07  2215   0.109E-03    0.335E-04
RMM:  14    -0.413213387208E+03    0.20727E-05   -0.20407E-07  1747   0.809E-04    0.230E-04
RMM:  15    -0.413213382503E+03    0.47049E-05   -0.12470E-07  1332   0.706E-04    0.121E-04
RMM:  16    -0.413213379332E+03    0.31718E-05   -0.81114E-08  1142   0.650E-04    0.994E-05
RMM:  17    -0.413213376333E+03    0.29985E-05   -0.62620E-08  1134   0.634E-04    0.723E-05
RMM:  18    -0.413213373275E+03    0.30577E-05   -0.50869E-08  1123   0.615E-04    0.463E-05
RMM:  19    -0.413213370724E+03    0.25515E-05   -0.41398E-08  1095   0.592E-04    0.362E-05
RMM:  20    -0.413213370297E+03    0.42666E-06   -0.17854E-08   749   0.538E-04
   42 T=    70. E= -.41286709E+03 F= -.41321337E+03 E0= -.41319234E+03  EK= 0.34628E+00 SP= 0.00E+00 SK= 0.00E+00
       N       E                     dE             d eps       ncg     rms          rms(c)
RMM:   1    -0.413236979351E+03   -0.23609E-01   -0.11279E+01  4311   0.134E+00    0.945E-01
RMM:   2    -0.413218939382E+03    0.18040E-01   -0.16517E-01  4293   0.149E-01    0.687E-01
RMM:   3    -0.413219923553E+03   -0.98417E-03   -0.14804E-02  5076   0.818E-02    0.326E-01
RMM:   4    -0.413255258154E+03   -0.35335E-01   -0.54152E-02  5089   0.197E-01    0.824E-01
RMM:   5    -0.413215331194E+03    0.39927E-01   -0.17440E-02  4726   0.138E-01    0.603E-02
RMM:   6    -0.413215389155E+03   -0.57961E-04   -0.31025E-03  5743   0.528E-02    0.340E-02
RMM:   7    -0.413215394775E+03   -0.56196E-05   -0.45207E-04  5784   0.192E-02    0.225E-02
RMM:   8    -0.413215390542E+03    0.42324E-05   -0.11963E-04  5189   0.112E-02    0.119E-02
RMM:   9    -0.413215378272E+03    0.12271E-04   -0.20397E-05  4461   0.563E-03    0.471E-03
RMM:  10    -0.413215374764E+03    0.35076E-05   -0.41990E-06  2813   0.260E-03    0.299E-03
RMM:  11    -0.413215370515E+03    0.42491E-05   -0.12842E-06  2497   0.186E-03    0.162E-03
RMM:  12    -0.413215365023E+03    0.54915E-05   -0.73305E-07  2440   0.146E-03    0.623E-04
RMM:  13    -0.413215361852E+03    0.31714E-05   -0.36368E-07  2093   0.103E-03    0.288E-04
RMM:  14    -0.413215359660E+03    0.21917E-05   -0.19788E-07  1592   0.791E-04    0.185E-04
RMM:  15    -0.413215355461E+03    0.41997E-05   -0.13733E-07  1297   0.714E-04    0.110E-04
RMM:  16    -0.413215353436E+03    0.20246E-05   -0.86120E-08  1142   0.658E-04    0.797E-05
RMM:  17    -0.413215350656E+03    0.27798E-05   -0.70621E-08  1174   0.648E-04    0.522E-05
RMM:  18    -0.413215348229E+03    0.24276E-05   -0.54243E-08  1097   0.615E-04    0.357E-05
RMM:  19    -0.413215346518E+03    0.17106E-05   -0.36216E-08   965   0.580E-04    0.214E-05
RMM:  20    -0.413215346076E+03    0.44248E-06   -0.19887E-08   767   0.547E-04
   43 T=    71. E= -.41286718E+03 F= -.41321535E+03 E0= -.41319434E+03  EK= 0.34817E+00 SP= 0.00E+00 SK= 0.00E+00
       N       E                     dE             d eps       ncg     rms          rms(c)
RMM:   1    -0.413233615902E+03   -0.18269E-01   -0.11349E+01  4312   0.137E+00    0.947E-01
RMM:   2    -0.413220393333E+03    0.13223E-01   -0.16875E-01  4288   0.162E-01    0.700E-01
RMM:   3    -0.413222211664E+03   -0.18183E-02   -0.16128E-02  5071   0.900E-02    0.354E-01
RMM:   4    -0.413255310572E+03   -0.33099E-01   -0.55054E-02  5073   0.199E-01    0.812E-01
RMM:   5    -0.413216533023E+03    0.38778E-01   -0.16487E-02  4716   0.135E-01    0.603E-02
RMM:   6    -0.413216574226E+03   -0.41203E-04   -0.29359E-03  5729   0.516E-02    0.335E-02
RMM:   7    -0.413216577738E+03   -0.35115E-05   -0.41908E-04  5783   0.188E-02    0.223E-02
RMM:   8    -0.413216574566E+03    0.31717E-05   -0.11194E-04  5164   0.110E-02    0.113E-02
RMM:   9    -0.413216563856E+03    0.10710E-04   -0.19819E-05  4428   0.556E-03    0.442E-03
RMM:  10    -0.413216561377E+03    0.24788E-05   -0.38636E-06  2790   0.252E-03    0.276E-03
RMM:  11    -0.413216558159E+03    0.32185E-05   -0.13395E-06  2507   0.185E-03    0.151E-03
RMM:  12    -0.413216554237E+03    0.39222E-05   -0.70755E-07  2434   0.141E-03    0.593E-04
RMM:  13    -0.413216551842E+03    0.23950E-05   -0.35240E-07  2001   0.988E-04    0.275E-04
RMM:  14    -0.413216549907E+03    0.19351E-05   -0.20037E-07  1512   0.782E-04    0.168E-04
RMM:  15    -0.413216546550E+03    0.33567E-05   -0.15095E-07  1322   0.723E-04    0.102E-04
RMM:  16    -0.413216544872E+03    0.16782E-05   -0.91623E-08  1134   0.660E-04    0.744E-05
RMM:  17    -0.413216542311E+03    0.25608E-05   -0.79415E-08  1215   0.653E-04    0.444E-05
RMM:  18    -0.413216540478E+03    0.18330E-05   -0.51949E-08  1037   0.607E-04    0.363E-05
RMM:  19    -0.413216539234E+03    0.12442E-05   -0.34964E-08   912   0.573E-04    0.203E-05
RMM:  20    -0.413216538694E+03    0.53930E-06   -0.20683E-08   760   0.548E-04
   44 T=    71. E= -.41286697E+03 F= -.41321654E+03 E0= -.41319556E+03  EK= 0.34956E+00 SP= 0.00E+00 SK= 0.00E+00
       N       E                     dE             d eps       ncg     rms          rms(c)
RMM:   1    -0.413250756481E+03   -0.34217E-01   -0.11511E+01  4310   0.152E+00    0.973E-01
RMM:   2    -0.413221185317E+03    0.29571E-01   -0.16951E-01  4317   0.170E-01    0.695E-01
RMM:   3    -0.413227569054E+03   -0.63837E-02   -0.19772E-02  5115   0.107E-01    0.447E-01
RMM:   4    -0.413241933150E+03   -0.14364E-01   -0.44690E-02  5041   0.182E-01    0.648E-01
RMM:   5    -0.413217970545E+03    0.23963E-01   -0.91393E-03  4644   0.109E-01    0.570E-02
RMM:   6    -0.413217944647E+03    0.25898E-04   -0.18295E-03  5579   0.414E-02    0.326E-02
RMM:   7    -0.413217940731E+03    0.39158E-05   -0.30977E-04  5631   0.171E-02    0.216E-02
RMM:   8    -0.413217930559E+03    0.10172E-04   -0.11105E-04  5065   0.111E-02    0.101E-02
RMM:   9    -0.413217917557E+03    0.13003E-04   -0.15419E-05  4256   0.536E-03    0.410E-03
RMM:  10    -0.413217913684E+03    0.38727E-05   -0.27548E-06  2694   0.226E-03    0.241E-03
RMM:  11    -0.413217907397E+03    0.62872E-05   -0.11386E-06  2480   0.176E-03    0.132E-03
RMM:  12    -0.413217901300E+03    0.60968E-05   -0.57656E-07  2410   0.132E-03    0.609E-04
RMM:  13    -0.413217897727E+03    0.35730E-05   -0.27249E-07  1850   0.902E-04    0.289E-04
RMM:  14    -0.413217894349E+03    0.33776E-05   -0.15418E-07  1366   0.723E-04    0.158E-04
RMM:  15    -0.413217889223E+03    0.51263E-05   -0.12282E-07  1285   0.694E-04    0.121E-04
RMM:  16    -0.413217886565E+03    0.26578E-05   -0.75500E-08  1076   0.634E-04    0.942E-05
RMM:  17    -0.413217881817E+03    0.47485E-05   -0.79265E-08  1339   0.656E-04    0.663E-05
RMM:  18    -0.413217879678E+03    0.21388E-05   -0.44546E-08  1010   0.574E-04    0.424E-05
RMM:  19    -0.413217878460E+03    0.12175E-05   -0.29057E-08   861   0.543E-04    0.252E-05
RMM:  20    -0.413217877960E+03    0.50044E-06   -0.17753E-08   720   0.522E-04
   45 T=    71. E= -.41286724E+03 F= -.41321788E+03 E0= -.41319692E+03  EK= 0.35064E+00 SP= 0.00E+00 SK= 0.00E+00
       N       E                     dE             d eps       ncg     rms          rms(c)
RMM:   1    -0.413255125404E+03   -0.37247E-01   -0.11460E+01  4309   0.161E+00    0.955E-01
RMM:   2    -0.413221042546E+03    0.34083E-01   -0.17854E-01  4341   0.184E-01    0.691E-01
RMM:   3    -0.413230128851E+03   -0.90863E-02   -0.21264E-02  5112   0.117E-01    0.505E-01
RMM:   4    -0.413237472393E+03   -0.73435E-02   -0.42756E-02  5022   0.180E-01    0.593E-01
RMM:   5    -0.413217846505E+03    0.19626E-01   -0.73421E-03  4604   0.102E-01    0.563E-02
RMM:   6    -0.413217798900E+03    0.47604E-04   -0.14443E-03  5445   0.374E-02    0.313E-02
RMM:   7    -0.413217792162E+03    0.67381E-05   -0.25509E-04  5609   0.157E-02    0.211E-02
RMM:   8    -0.413217781555E+03    0.10607E-04   -0.12044E-04  5079   0.114E-02    0.100E-02
RMM:   9    -0.413217767862E+03    0.13693E-04   -0.15961E-05  4294   0.551E-03    0.405E-03
RMM:  10    -0.413217764726E+03    0.31365E-05   -0.26926E-06  2689   0.221E-03    0.233E-03
RMM:  11    -0.413217758714E+03    0.60119E-05   -0.12488E-06  2491   0.180E-03    0.128E-03
RMM:  12    -0.413217753936E+03    0.47785E-05   -0.56142E-07  2415   0.131E-03    0.665E-04
RMM:  13    -0.413217750475E+03    0.34610E-05   -0.26445E-07  1773   0.892E-04    0.320E-04
RMM:  14    -0.413217747069E+03    0.34054E-05   -0.14799E-07  1338   0.715E-04    0.168E-04
RMM:  15    -0.413217742964E+03    0.41053E-05   -0.11128E-07  1243   0.678E-04    0.118E-04
RMM:  16    -0.413217740453E+03    0.25113E-05   -0.71310E-08  1089   0.626E-04    0.102E-04
RMM:  17    -0.413217736722E+03    0.37308E-05   -0.64283E-08  1190   0.627E-04    0.605E-05
RMM:  18    -0.413217734140E+03    0.25815E-05   -0.44822E-08  1045   0.580E-04    0.483E-05
RMM:  19    -0.413217733284E+03    0.85615E-06   -0.23872E-08   798   0.529E-04
   46 T=    71. E= -.41286705E+03 F= -.41321773E+03 E0= -.41319680E+03  EK= 0.35069E+00 SP= 0.00E+00 SK= 0.00E+00
       N       E                     dE             d eps       ncg     rms          rms(c)
RMM:   1    -0.413240292047E+03   -0.22558E-01   -0.11340E+01  4309   0.163E+00    0.942E-01
RMM:   2    -0.413220619996E+03    0.19672E-01   -0.18635E-01  4344   0.196E-01    0.704E-01
RMM:   3    -0.413230706470E+03   -0.10086E-01   -0.22199E-02  5117   0.124E-01    0.534E-01
RMM:   4    -0.413237254803E+03   -0.65483E-02   -0.45443E-02  5016   0.186E-01    0.602E-01
RMM:   5    -0.413216898192E+03    0.20357E-01   -0.76177E-03  4595   0.105E-01    0.581E-02
RMM:   6    -0.413216835515E+03    0.62677E-04   -0.14458E-03  5415   0.379E-02    0.312E-02
RMM:   7    -0.413216829328E+03    0.61873E-05   -0.25174E-04  5647   0.156E-02    0.217E-02
RMM:   8    -0.413216818593E+03    0.10735E-04   -0.12443E-04  5111   0.116E-02    0.102E-02
RMM:   9    -0.413216805694E+03    0.12898E-04   -0.17576E-05  4356   0.576E-03    0.409E-03
RMM:  10    -0.413216803542E+03    0.21526E-05   -0.29660E-06  2729   0.227E-03    0.237E-03
RMM:  11    -0.413216799306E+03    0.42355E-05   -0.13905E-06  2502   0.188E-03    0.133E-03
RMM:  12    -0.413216796255E+03    0.30510E-05   -0.59583E-07  2432   0.135E-03    0.714E-04
RMM:  13    -0.413216793526E+03    0.27292E-05   -0.29573E-07  1818   0.931E-04    0.341E-04
RMM:  14    -0.413216791015E+03    0.25111E-05   -0.16540E-07  1374   0.739E-04    0.175E-04
RMM:  15    -0.413216788276E+03    0.27390E-05   -0.12101E-07  1219   0.687E-04    0.107E-04
RMM:  16    -0.413216786245E+03    0.20311E-05   -0.81585E-08  1135   0.637E-04    0.944E-05
RMM:  17    -0.413216783817E+03    0.24274E-05   -0.68353E-08  1180   0.623E-04    0.524E-05
RMM:  18    -0.413216781537E+03    0.22807E-05   -0.50993E-08  1046   0.587E-04    0.440E-05
RMM:  19    -0.413216781003E+03    0.53350E-06   -0.23726E-08   755   0.529E-04
   47 T=    71. E= -.41286703E+03 F= -.41321678E+03 E0= -.41319586E+03  EK= 0.34975E+00 SP= 0.00E+00 SK= 0.00E+00
       N       E                     dE             d eps       ncg     rms          rms(c)
RMM:   1    -0.413245959237E+03   -0.29178E-01   -0.11343E+01  4305   0.177E+00    0.965E-01
RMM:   2    -0.413218270946E+03    0.27688E-01   -0.18141E-01  4385   0.204E-01    0.698E-01
RMM:   3    -0.413236200059E+03   -0.17929E-01   -0.29222E-02  5141   0.146E-01    0.645E-01
RMM:   4    -0.413226972361E+03    0.92277E-02   -0.41346E-02  4981   0.182E-01    0.475E-01
RMM:   5    -0.413214951262E+03    0.12021E-01   -0.46893E-03  4530   0.905E-02    0.575E-02
RMM:   6    -0.413214834523E+03    0.11674E-03   -0.65864E-04  4873   0.297E-02    0.301E-02
RMM:   7    -0.413214819618E+03    0.14905E-04   -0.17671E-04  5910   0.132E-02    0.129E-02
RMM:   8    -0.413214811357E+03    0.82610E-05   -0.58657E-05  5169   0.914E-03    0.983E-03
RMM:   9    -0.413214805964E+03    0.53930E-05   -0.15467E-05  4261   0.474E-03    0.405E-03
RMM:  10    -0.413214802417E+03    0.35473E-05   -0.21619E-06  2575   0.238E-03    0.236E-03
RMM:  11    -0.413214796706E+03    0.57107E-05   -0.15932E-06  2474   0.207E-03    0.149E-03
RMM:  12    -0.413214792666E+03    0.40403E-05   -0.60557E-07  2401   0.143E-03    0.879E-04
RMM:  13    -0.413214788918E+03    0.37480E-05   -0.26206E-07  1968   0.928E-04    0.483E-04
RMM:  14    -0.413214783237E+03    0.56812E-05   -0.21839E-07  1822   0.835E-04    0.436E-04
RMM:  15    -0.413214779242E+03    0.39946E-05   -0.98676E-08  1037   0.616E-04    0.167E-04
RMM:  16    -0.413214777545E+03    0.16970E-05   -0.60459E-08   937   0.580E-04    0.891E-05
RMM:  17    -0.413214773969E+03    0.35769E-05   -0.63937E-08  1076   0.609E-04    0.108E-04
RMM:  18    -0.413214772407E+03    0.15611E-05   -0.33353E-08   826   0.555E-04    0.731E-05
RMM:  19    -0.413214771683E+03    0.72460E-06   -0.21284E-08   729   0.526E-04
   48 T=    71. E= -.41286728E+03 F= -.41321477E+03 E0= -.41319387E+03  EK= 0.34749E+00 SP= 0.00E+00 SK= 0.00E+00
       N       E                     dE             d eps       ncg     rms          rms(c)
RMM:   1    -0.413246961182E+03   -0.32189E-01   -0.11189E+01  4305   0.189E+00    0.955E-01
RMM:   2    -0.413213688497E+03    0.33273E-01   -0.18158E-01  4443   0.216E-01    0.688E-01
RMM:   3    -0.413238922612E+03   -0.25234E-01   -0.35175E-02  5156   0.164E-01    0.737E-01
RMM:   4    -0.413218562459E+03    0.20360E-01   -0.40316E-02  4944   0.183E-01    0.401E-01
RMM:   5    -0.413210601936E+03    0.79605E-02   -0.43347E-03  4627   0.889E-02    0.645E-02
RMM:   6    -0.413210414158E+03    0.18778E-03   -0.45979E-04  4667   0.293E-02    0.330E-02
RMM:   7    -0.413210420290E+03   -0.61316E-05   -0.27754E-04  5745   0.176E-02    0.243E-02
RMM:   8    -0.413210384012E+03    0.36277E-04   -0.95535E-05  4989   0.112E-02    0.920E-03
RMM:   9    -0.413210376287E+03    0.77253E-05   -0.18649E-05  4673   0.552E-03    0.461E-03
RMM:  10    -0.413210371814E+03    0.44732E-05   -0.23382E-06  2634   0.240E-03    0.259E-03
RMM:  11    -0.413210365485E+03    0.63290E-05   -0.12187E-06  2494   0.184E-03    0.173E-03
RMM:  12    -0.413210361718E+03    0.37668E-05   -0.40081E-07  2378   0.118E-03    0.886E-04
RMM:  13    -0.413210356806E+03    0.49119E-05   -0.28884E-07  2003   0.904E-04    0.430E-04
RMM:  14    -0.413210351781E+03    0.50252E-05   -0.19914E-07  1692   0.772E-04    0.347E-04
RMM:  15    -0.413210347096E+03    0.46848E-05   -0.12161E-07  1190   0.652E-04    0.139E-04
RMM:  16    -0.413210344638E+03    0.24581E-05   -0.72267E-08  1086   0.599E-04    0.906E-05
RMM:  17    -0.413210341119E+03    0.35189E-05   -0.67386E-08  1147   0.608E-04    0.773E-05
RMM:  18    -0.413210340063E+03    0.10564E-05   -0.35363E-08   901   0.549E-04    0.618E-05
RMM:  19    -0.413210338082E+03    0.19809E-05   -0.36982E-08  1019   0.560E-04    0.316E-05
RMM:  20    -0.413210337485E+03    0.59684E-06   -0.19528E-08   778   0.507E-04
   49 T=    70. E= -.41286703E+03 F= -.41321034E+03 E0= -.41318944E+03  EK= 0.34331E+00 SP= 0.00E+00 SK= 0.00E+00
       N       E                     dE             d eps       ncg     rms          rms(c)
RMM:   1    -0.413231034621E+03   -0.20697E-01   -0.10916E+01  4305   0.194E+00    0.926E-01
RMM:   2    -0.413208462080E+03    0.22573E-01   -0.18139E-01  4471   0.224E-01    0.691E-01
RMM:   3    -0.413234822488E+03   -0.26360E-01   -0.36045E-02  5155   0.168E-01    0.758E-01
RMM:   4    -0.413212871163E+03    0.21951E-01   -0.41654E-02  4947   0.187E-01    0.399E-01
RMM:   5    -0.413204920726E+03    0.79504E-02   -0.47985E-03  4699   0.929E-02    0.692E-02
RMM:   6    -0.413204687528E+03    0.23320E-03   -0.49376E-04  4651   0.311E-02    0.339E-02
RMM:   7    -0.413204689671E+03   -0.21429E-05   -0.27018E-04  5742   0.175E-02    0.243E-02
[...]
RMM:   4    -0.413143676041E+03   -0.74297E-02   -0.11395E-02  5121   0.101E-01    0.406E-01
RMM:   5    -0.413134607095E+03    0.90689E-02   -0.45795E-03  4892   0.718E-02    0.613E-02
RMM:   6    -0.413134521492E+03    0.85604E-04   -0.80573E-04  5471   0.298E-02    0.227E-02
RMM:   7    -0.413134547312E+03   -0.25821E-04   -0.21118E-04  5742   0.142E-02    0.170E-02
RMM:   8    -0.413134559109E+03   -0.11797E-04   -0.66356E-05  5168   0.882E-03    0.760E-03
RMM:   9    -0.413134564026E+03   -0.49167E-05   -0.12857E-05  4022   0.440E-03    0.354E-03
RMM:  10    -0.413134569646E+03   -0.56202E-05   -0.27019E-06  2664   0.251E-03    0.232E-03
RMM:  11    -0.413134575160E+03   -0.55136E-05   -0.11126E-06  2507   0.177E-03    0.164E-03
RMM:  12    -0.413134583857E+03   -0.86976E-05   -0.78624E-07  2459   0.138E-03    0.954E-04
RMM:  13    -0.413134588355E+03   -0.44979E-05   -0.31622E-07  1842   0.898E-04    0.382E-04
RMM:  14    -0.413134593189E+03   -0.48342E-05   -0.20866E-07  1505   0.774E-04    0.205E-04
RMM:  15    -0.413134598650E+03   -0.54603E-05   -0.20722E-07  1800   0.779E-04    0.199E-04
RMM:  16    -0.413134600939E+03   -0.22888E-05   -0.97028E-08  1238   0.609E-04    0.152E-04
RMM:  17    -0.413134605558E+03   -0.46192E-05   -0.12363E-07  1466   0.671E-04    0.741E-05
RMM:  18    -0.413134607327E+03   -0.17693E-05   -0.58341E-08  1088   0.564E-04    0.532E-05
RMM:  19    -0.413134608431E+03   -0.11039E-05   -0.38092E-08  1004   0.541E-04    0.375E-05
RMM:  20    -0.413134609249E+03   -0.81787E-06   -0.29996E-08   966   0.530E-04
  140 T=    55. E= -.41286682E+03 F= -.41313461E+03 E0= -.41311372E+03  EK= 0.26779E+00 SP= 0.00E+00 SK= 0.00E+00
       N       E                     dE             d eps       ncg     rms          rms(c)
RMM:   1    -0.413101045556E+03    0.33563E-01   -0.57358E+00  4266   0.106E+00    0.896E-01
RMM:   2    -0.413096664837E+03    0.43807E-02   -0.71095E-02  4439   0.120E-01    0.663E-01
RMM:   3    -0.413091931885E+03    0.47330E-02   -0.69291E-02  5054   0.116E-01    0.427E-01
RMM:   4    -0.413097185826E+03   -0.52539E-02   -0.13643E-02  5102   0.107E-01    0.431E-01
RMM:   5    -0.413088005572E+03    0.91803E-02   -0.50880E-03  4864   0.750E-02    0.754E-02
RMM:   6    -0.413087997406E+03    0.81659E-05   -0.83052E-04  5516   0.296E-02    0.309E-02
RMM:   7    -0.413088047432E+03   -0.50026E-04   -0.17961E-04  5628   0.133E-02    0.195E-02
RMM:   8    -0.413088107016E+03   -0.59584E-04   -0.65938E-05  5158   0.889E-03    0.103E-02
RMM:   9    -0.413088136827E+03   -0.29811E-04   -0.15314E-05  3975   0.468E-03    0.527E-03
RMM:  10    -0.413088160170E+03   -0.23343E-04   -0.45894E-06  2867   0.279E-03    0.279E-03
RMM:  11    -0.413088184380E+03   -0.24210E-04   -0.17272E-06  2558   0.203E-03    0.178E-03
RMM:  12    -0.413088212909E+03   -0.28529E-04   -0.15044E-06  2547   0.169E-03    0.104E-03
RMM:  13    -0.413088226463E+03   -0.13554E-04   -0.59722E-07  2055   0.106E-03    0.649E-04
RMM:  14    -0.413088239240E+03   -0.12778E-04   -0.43568E-07  1978   0.947E-04    0.399E-04
RMM:  15    -0.413088251432E+03   -0.12192E-04   -0.37479E-07  1973   0.908E-04    0.262E-04
RMM:  16    -0.413088255915E+03   -0.44827E-05   -0.13940E-07  1322   0.651E-04    0.136E-04
RMM:  17    -0.413088259568E+03   -0.36526E-05   -0.10431E-07  1339   0.647E-04    0.897E-05
RMM:  18    -0.413088260989E+03   -0.14210E-05   -0.58242E-08  1167   0.576E-04    0.809E-05
RMM:  19    -0.413088261923E+03   -0.93394E-06   -0.42492E-08  1070   0.548E-04
  141 T=    52. E= -.41283350E+03 F= -.41308826E+03 E0= -.41306743E+03  EK= 0.25476E+00 SP= 0.00E+00 SK= 0.00E+00
       N       E                     dE             d eps       ncg     rms          rms(c)
RMM:   1    -0.413133390497E+03   -0.45130E-01   -0.63073E+00  4269   0.112E+00    0.115E+00
RMM:   2    -0.413111879174E+03    0.21511E-01   -0.85898E-02  4450   0.128E-01    0.686E-01
RMM:   3    -0.413104910397E+03    0.69688E-02   -0.44180E-02  4860   0.819E-02    0.770E-02
RMM:   4    -0.413106759799E+03   -0.18494E-02   -0.34115E-03  5223   0.576E-02    0.191E-01
RMM:   5    -0.413104904352E+03    0.18554E-02   -0.11995E-03  4962   0.366E-02    0.591E-02
RMM:   6    -0.413104797949E+03    0.10640E-03   -0.37457E-04  5266   0.232E-02    0.268E-02
RMM:   7    -0.413104821980E+03   -0.24031E-04   -0.24165E-04  5732   0.159E-02    0.215E-02
RMM:   8    -0.413104794924E+03    0.27056E-04   -0.72771E-05  4987   0.972E-03    0.122E-02
RMM:   9    -0.413104784931E+03    0.99926E-05   -0.13991E-05  4251   0.463E-03    0.592E-03
RMM:  10    -0.413104777171E+03    0.77606E-05   -0.55255E-06  3008   0.304E-03    0.267E-03
RMM:  11    -0.413104760310E+03    0.16861E-04   -0.33910E-06  2642   0.256E-03    0.160E-03
RMM:  12    -0.413104745972E+03    0.14337E-04   -0.23598E-06  2599   0.192E-03    0.120E-03
RMM:  13    -0.413104739403E+03    0.65698E-05   -0.95464E-07  2413   0.127E-03    0.964E-04
RMM:  14    -0.413104731997E+03    0.74060E-05   -0.87584E-07  2297   0.110E-03    0.578E-04
RMM:  15    -0.413104725929E+03    0.60680E-05   -0.73482E-07  1819   0.928E-04    0.294E-04
RMM:  16    -0.413104723992E+03    0.19362E-05   -0.27459E-07  1358   0.698E-04    0.165E-04
RMM:  17    -0.413104723688E+03    0.30458E-06   -0.12877E-07  1152   0.613E-04
  142 T=    53. E= -.41284402E+03 F= -.41310472E+03 E0= -.41308396E+03  EK= 0.26070E+00 SP= 0.00E+00 SK= 0.00E+00
       N       E                     dE             d eps       ncg     rms          rms(c)
RMM:   1    -0.413116196248E+03   -0.11472E-01   -0.32778E+00  4264   0.913E-01    0.632E-01
RMM:   2    -0.413114605950E+03    0.15903E-02   -0.41298E-02  4455   0.100E-01    0.464E-01
RMM:   3    -0.413111531215E+03    0.30747E-02   -0.33566E-02  4949   0.847E-02    0.226E-01
RMM:   4    -0.413113629960E+03   -0.20987E-02   -0.57849E-03  5116   0.744E-02    0.250E-01
RMM:   5    -0.413110255952E+03    0.33740E-02   -0.17385E-03  4936   0.449E-02    0.484E-02
RMM:   6    -0.413110195599E+03    0.60353E-04   -0.36555E-04  5337   0.209E-02    0.187E-02
RMM:   7    -0.413110222243E+03   -0.26644E-04   -0.13448E-04  5718   0.119E-02    0.147E-02
RMM:   8    -0.413110230320E+03   -0.80767E-05   -0.47590E-05  5044   0.787E-03    0.719E-03
RMM:   9    -0.413110232238E+03   -0.19186E-05   -0.92987E-06  3685   0.395E-03    0.322E-03
RMM:  10    -0.413110235579E+03   -0.33409E-05   -0.26741E-06  2664   0.251E-03    0.233E-03
RMM:  11    -0.413110239465E+03   -0.38864E-05   -0.11655E-06  2492   0.181E-03    0.156E-03
RMM:  12    -0.413110244249E+03   -0.47831E-05   -0.69362E-07  2390   0.129E-03    0.806E-04
RMM:  13    -0.413110247173E+03   -0.29247E-05   -0.28668E-07  1865   0.862E-04    0.366E-04
RMM:  14    -0.413110251601E+03   -0.44275E-05   -0.24262E-07  1531   0.773E-04    0.163E-04
RMM:  15    -0.413110255390E+03   -0.37890E-05   -0.18164E-07  1550   0.717E-04    0.160E-04
RMM:  16    -0.413110257422E+03   -0.20326E-05   -0.91882E-08  1190   0.604E-04    0.120E-04
RMM:  17    -0.413110260971E+03   -0.35486E-05   -0.11731E-07  1459   0.649E-04    0.828E-05
RMM:  18    -0.413110262751E+03   -0.17800E-05   -0.53322E-08  1042   0.553E-04    0.590E-05
RMM:  19    -0.413110263606E+03   -0.85483E-06   -0.30923E-08   943   0.519E-04
  143 T=    53. E= -.41284807E+03 F= -.41311026E+03 E0= -.41308956E+03  EK= 0.26220E+00 SP= 0.00E+00 SK= 0.00E+00
       N       E                     dE             d eps       ncg     rms          rms(c)
RMM:   1    -0.413081136296E+03    0.29126E-01   -0.65263E+00  4268   0.107E+00    0.989E-01
RMM:   2    -0.413074708260E+03    0.64280E-02   -0.83613E-02  4442   0.121E-01    0.731E-01
RMM:   3    -0.413067481436E+03    0.72268E-02   -0.88717E-02  4909   0.110E-01    0.476E-01
RMM:   4    -0.413067186788E+03    0.29465E-03   -0.11607E-02  5060   0.879E-02    0.275E-01
RMM:   5    -0.413063557058E+03    0.36297E-02   -0.19475E-03  4863   0.484E-02    0.671E-02
RMM:   6    -0.413063537485E+03    0.19573E-04   -0.39461E-04  5367   0.211E-02    0.308E-02
RMM:   7    -0.413063613995E+03   -0.76510E-04   -0.13789E-04  5599   0.122E-02    0.199E-02
RMM:   8    -0.413063689928E+03   -0.75934E-04   -0.64491E-05  4988   0.900E-03    0.872E-03
RMM:   9    -0.413063726787E+03   -0.36858E-04   -0.14205E-05  3890   0.459E-03    0.446E-03
RMM:  10    -0.413063754059E+03   -0.27272E-04   -0.37405E-06  2747   0.270E-03    0.273E-03
RMM:  11    -0.413063792790E+03   -0.38731E-04   -0.23586E-06  2604   0.227E-03    0.178E-03
RMM:  12    -0.413063831206E+03   -0.38416E-04   -0.24264E-06  2618   0.192E-03    0.116E-03
RMM:  13    -0.413063844025E+03   -0.12819E-04   -0.81505E-07  2144   0.107E-03    0.764E-04
RMM:  14    -0.413063861736E+03   -0.17711E-04   -0.70730E-07  2248   0.108E-03    0.453E-04
RMM:  15    -0.413063873035E+03   -0.11300E-04   -0.40530E-07  1606   0.823E-04    0.230E-04
RMM:  16    -0.413063877594E+03   -0.45590E-05   -0.16140E-07  1413   0.685E-04    0.122E-04
RMM:  17    -0.413063880750E+03   -0.31551E-05   -0.10527E-07  1393   0.638E-04    0.994E-05
RMM:  18    -0.413063881921E+03   -0.11712E-05   -0.55874E-08  1118   0.543E-04    0.884E-05
RMM:  19    -0.413063883431E+03   -0.15098E-05   -0.52140E-08  1070   0.558E-04    0.584E-05
RMM:  20    -0.413063884074E+03   -0.64370E-06   -0.32856E-08   978   0.535E-04
  144 T=    50. E= -.41281799E+03 F= -.41306388E+03 E0= -.41304324E+03  EK= 0.24590E+00 SP= 0.00E+00 SK= 0.00E+00
       N       E                     dE             d eps       ncg     rms          rms(c)
RMM:   1    -0.413128677307E+03   -0.64794E-01   -0.63963E+00  4264   0.112E+00    0.119E+00
RMM:   2    -0.413105315779E+03    0.23362E-01   -0.80650E-02  4451   0.122E-01    0.706E-01
RMM:   3    -0.413098302628E+03    0.70132E-02   -0.48772E-02  4953   0.749E-02    0.847E-02
RMM:   4    -0.413103849771E+03   -0.55471E-02   -0.68205E-03  5197   0.743E-02    0.320E-01
RMM:   5    -0.413098151398E+03    0.56984E-02   -0.28670E-03  4863   0.548E-02    0.479E-02
RMM:   6    -0.413098112284E+03    0.39115E-04   -0.58595E-04  5592   0.261E-02    0.258E-02
RMM:   7    -0.413098141015E+03   -0.28731E-04   -0.23722E-04  5694   0.158E-02    0.203E-02
RMM:   8    -0.413098115496E+03    0.25519E-04   -0.80641E-05  4930   0.104E-02    0.107E-02
RMM:   9    -0.413098102315E+03    0.13181E-04   -0.16479E-05  4125   0.463E-03    0.525E-03
RMM:  10    -0.413098092091E+03    0.10224E-04   -0.38495E-06  2623   0.251E-03    0.256E-03
RMM:  11    -0.413098072163E+03    0.19928E-04   -0.32426E-06  2654   0.228E-03    0.162E-03
RMM:  12    -0.413098053914E+03    0.18249E-04   -0.26023E-06  2602   0.180E-03    0.119E-03
RMM:  13    -0.413098048304E+03    0.56103E-05   -0.88837E-07  2110   0.107E-03    0.718E-04
RMM:  14    -0.413098039657E+03    0.86466E-05   -0.10952E-06  2350   0.115E-03    0.443E-04
RMM:  15    -0.413098036065E+03    0.35921E-05   -0.48591E-07  1456   0.800E-04    0.272E-04
RMM:  16    -0.413098034002E+03    0.20632E-05   -0.39605E-07  1519   0.792E-04    0.108E-04
RMM:  17    -0.413098033932E+03    0.69707E-07   -0.16158E-07  1319   0.652E-04
  145 T=    52. E= -.41284137E+03 F= -.41309803E+03 E0= -.41307744E+03  EK= 0.25666E+00 SP= 0.00E+00 SK= 0.00E+00
       N       E                     dE             d eps       ncg     rms          rms(c)
RMM:   1    -0.413099754857E+03   -0.17209E-02   -0.30949E+00  4264   0.875E-01    0.627E-01
RMM:   2    -0.413097850989E+03    0.19039E-02   -0.38849E-02  4467   0.942E-02    0.455E-01
RMM:   3    -0.413094729325E+03    0.31217E-02   -0.33080E-02  4852   0.755E-02    0.213E-01
RMM:   4    -0.413093791138E+03    0.93819E-03   -0.28650E-03  4925   0.526E-02    0.717E-02
RMM:   5    -0.413093654393E+03    0.13675E-03   -0.40999E-04  5411   0.196E-02    0.464E-02
RMM:   6    -0.413093576359E+03    0.78034E-04   -0.15456E-04  5009   0.129E-02    0.175E-02
RMM:   7    -0.413093601522E+03   -0.25163E-04   -0.95236E-05  5575   0.106E-02    0.139E-02
RMM:   8    -0.413093606877E+03   -0.53551E-05   -0.36308E-05  4893   0.740E-03    0.832E-03
RMM:   9    -0.413093605585E+03    0.12921E-05   -0.72675E-06  3568   0.379E-03    0.361E-03
RMM:  10    -0.413093607150E+03   -0.15650E-05   -0.36498E-06  2914   0.267E-03    0.190E-03
RMM:  11    -0.413093610232E+03   -0.30815E-05   -0.12577E-06  2480   0.189E-03    0.141E-03
RMM:  12    -0.413093613008E+03   -0.27762E-05   -0.76529E-07  2390   0.138E-03    0.797E-04
RMM:  13    -0.413093614952E+03   -0.19447E-05   -0.41751E-07  2153   0.103E-03    0.462E-04
RMM:  14    -0.413093617438E+03   -0.24860E-05   -0.22163E-07  1753   0.785E-04    0.287E-04
RMM:  15    -0.413093621126E+03   -0.36872E-05   -0.22304E-07  1483   0.734E-04    0.141E-04
RMM:  16    -0.413093622956E+03   -0.18300E-05   -0.90048E-08  1176   0.611E-04    0.136E-04
RMM:  17    -0.413093625309E+03   -0.23533E-05   -0.79155E-08  1218   0.596E-04    0.906E-05
RMM:  18    -0.413093626932E+03   -0.16234E-05   -0.46113E-08  1052   0.547E-04    0.697E-05
RMM:  19    -0.413093627736E+03   -0.80324E-06   -0.20767E-08   826   0.502E-04
  146 T=    52. E= -.41284056E+03 F= -.41309363E+03 E0= -.41307308E+03  EK= 0.25307E+00 SP= 0.00E+00 SK= 0.00E+00
       N       E                     dE             d eps       ncg     rms          rms(c)
RMM:   1    -0.413077923442E+03    0.15703E-01   -0.67197E+00  4264   0.106E+00    0.100E+00
RMM:   2    -0.413071225993E+03    0.66974E-02   -0.85591E-02  4450   0.116E-01    0.740E-01
RMM:   3    -0.413063559742E+03    0.76663E-02   -0.92020E-02  4712   0.104E-01    0.484E-01
RMM:   4    -0.413059658936E+03    0.39008E-02   -0.10283E-02  4759   0.617E-02    0.801E-02
RMM:   5    -0.413059653817E+03    0.51187E-05   -0.40722E-04  5547   0.189E-02    0.597E-02
RMM:   6    -0.413059625747E+03    0.28070E-04   -0.13383E-04  4914   0.117E-02    0.297E-02
RMM:   7    -0.413059723585E+03   -0.97838E-04   -0.13218E-04  5487   0.124E-02    0.196E-02
RMM:   8    -0.413059799848E+03   -0.76263E-04   -0.57652E-05  4894   0.873E-03    0.986E-03
RMM:   9    -0.413059828958E+03   -0.29110E-04   -0.14333E-05  4303   0.484E-03    0.443E-03
RMM:  10    -0.413059853441E+03   -0.24483E-04   -0.47374E-06  3078   0.300E-03    0.284E-03
RMM:  11    -0.413059893814E+03   -0.40373E-04   -0.24182E-06  2592   0.242E-03    0.213E-03
RMM:  12    -0.413059937127E+03   -0.43314E-04   -0.29356E-06  2643   0.211E-03    0.115E-03
RMM:  13    -0.413059956180E+03   -0.19052E-04   -0.13708E-06  2493   0.135E-03    0.858E-04
RMM:  14    -0.413059973052E+03   -0.16872E-04   -0.83022E-07  2130   0.107E-03    0.470E-04
RMM:  15    -0.413059989133E+03   -0.16081E-04   -0.79163E-07  2035   0.984E-04    0.277E-04
RMM:  16    -0.413059992075E+03   -0.29422E-05   -0.16897E-07  1212   0.606E-04    0.176E-04
RMM:  17    -0.413059995445E+03   -0.33697E-05   -0.10579E-07  1195   0.609E-04    0.887E-05
RMM:  18    -0.413059997141E+03   -0.16958E-05   -0.56935E-08  1107   0.561E-04    0.873E-05
RMM:  19    -0.413059997431E+03   -0.29003E-06   -0.18721E-08   808   0.495E-04
  147 T=    49. E= -.41282174E+03 F= -.41306000E+03 E0= -.41303949E+03  EK= 0.23826E+00 SP= 0.00E+00 SK= 0.00E+00
       N       E                     dE             d eps       ncg     rms          rms(c)
RMM:   1    -0.413126633376E+03   -0.66636E-01   -0.58290E+00  4264   0.102E+00    0.112E+00
RMM:   2    -0.413109609278E+03    0.17024E-01   -0.73650E-02  4443   0.112E-01    0.671E-01
RMM:   3    -0.413103315873E+03    0.62934E-02   -0.43614E-02  4987   0.688E-02    0.923E-02
RMM:   4    -0.413112268262E+03   -0.89524E-02   -0.10066E-02  5186   0.874E-02    0.404E-01
RMM:   5    -0.413103042233E+03    0.92260E-02   -0.45355E-03  4845   0.680E-02    0.433E-02
RMM:   6    -0.413103029106E+03    0.13126E-04   -0.86422E-04  5699   0.299E-02    0.259E-02
RMM:   7    -0.413103046014E+03   -0.16908E-04   -0.23970E-04  5671   0.158E-02    0.195E-02
RMM:   8    -0.413103027071E+03    0.18943E-04   -0.71734E-05  4940   0.101E-02    0.925E-03
RMM:   9    -0.413103014304E+03    0.12767E-04   -0.14552E-05  3794   0.433E-03    0.452E-03
RMM:  10    -0.413103004145E+03    0.10159E-04   -0.28019E-06  2611   0.228E-03    0.254E-03
RMM:  11    -0.413102983657E+03    0.20489E-04   -0.29115E-06  2641   0.213E-03    0.166E-03
RMM:  12    -0.413102969732E+03    0.13924E-04   -0.18015E-06  2540   0.153E-03    0.823E-04
RMM:  13    -0.413102963146E+03    0.65863E-05   -0.82896E-07  2039   0.106E-03    0.511E-04
RMM:  14    -0.413102955092E+03    0.80534E-05   -0.99507E-07  2204   0.110E-03    0.367E-04
RMM:  15    -0.413102951107E+03    0.39859E-05   -0.59790E-07  1573   0.851E-04    0.228E-04
RMM:  16    -0.413102949121E+03    0.19858E-05   -0.41497E-07  1624   0.802E-04    0.110E-04
RMM:  17    -0.413102949164E+03   -0.43652E-07   -0.16454E-07  1251   0.635E-04
  148 T=    51. E= -.41285421E+03 F= -.41310295E+03 E0= -.41308249E+03  EK= 0.24874E+00 SP= 0.00E+00 SK= 0.00E+00
       N       E                     dE             d eps       ncg     rms          rms(c)
RMM:   1    -0.413095475375E+03    0.74737E-02   -0.32410E+00  4264   0.883E-01    0.629E-01
RMM:   2    -0.413092802842E+03    0.26725E-02   -0.40566E-02  4486   0.902E-02    0.454E-01
RMM:   3    -0.413089914169E+03    0.28887E-02   -0.28188E-02  4866   0.655E-02    0.180E-01
RMM:   4    -0.413092247895E+03   -0.23337E-02   -0.46866E-03  5160   0.632E-02    0.243E-01
RMM:   5    -0.413088975181E+03    0.32727E-02   -0.16475E-03  4829   0.423E-02    0.329E-02
RMM:   6    -0.413088964205E+03    0.10976E-04   -0.33832E-04  5578   0.194E-02    0.183E-02
RMM:   7    -0.413088982903E+03   -0.18699E-04   -0.11549E-04  5570   0.112E-02    0.148E-02
RMM:   8    -0.413088982990E+03   -0.86398E-07   -0.32846E-05  4708   0.731E-03    0.560E-03
RMM:   9    -0.413088983776E+03   -0.78635E-06   -0.82012E-06  3325   0.341E-03
  149 T=    49. E= -.41284842E+03 F= -.41308898E+03 E0= -.41306856E+03  EK= 0.24056E+00 SP= 0.00E+00 SK= 0.00E+00
       N       E                     dE             d eps       ncg     rms          rms(c)
RMM:   1    -0.413089730960E+03   -0.74797E-03   -0.62236E+00  4264   0.103E+00    0.928E-01
RMM:   2    -0.413084799619E+03    0.49313E-02   -0.77435E-02  4468   0.111E-01    0.689E-01
RMM:   3    -0.413079644669E+03    0.51549E-02   -0.79076E-02  4936   0.994E-02    0.466E-01
RMM:   4    -0.413084587825E+03   -0.49432E-02   -0.14144E-02  5109   0.103E-01    0.442E-01
RMM:   5    -0.413075054468E+03    0.95334E-02   -0.57554E-03  4751   0.748E-02    0.544E-02
RMM:   6    -0.413075091685E+03   -0.37217E-04   -0.83129E-04  5657   0.291E-02    0.299E-02
RMM:   7    -0.413075169412E+03   -0.77727E-04   -0.17220E-04  5614   0.131E-02    0.162E-02
RMM:   8    -0.413075243289E+03   -0.73877E-04   -0.45205E-05  4831   0.781E-03    0.667E-03
RMM:   9    -0.413075286797E+03   -0.43507E-04   -0.11725E-05  3410   0.396E-03    0.434E-03
RMM:  10    -0.413075317468E+03   -0.30672E-04   -0.23443E-06  2627   0.224E-03    0.290E-03
RMM:  11    -0.413075379681E+03   -0.62213E-04   -0.43294E-06  2708   0.273E-03    0.157E-03
RMM:  12    -0.413075407135E+03   -0.27455E-04   -0.20432E-06  2601   0.157E-03    0.951E-04
RMM:  13    -0.413075419113E+03   -0.11977E-04   -0.72097E-07  1884   0.998E-04    0.659E-04
RMM:  14    -0.413075438066E+03   -0.18953E-04   -0.95396E-07  2444   0.118E-03    0.450E-04
RMM:  15    -0.413075448189E+03   -0.10123E-04   -0.44188E-07  1400   0.799E-04    0.188E-04
RMM:  16    -0.413075454618E+03   -0.64287E-05   -0.25081E-07  1562   0.765E-04    0.125E-04
RMM:  17    -0.413075457029E+03   -0.24112E-05   -0.11715E-07  1266   0.627E-04    0.116E-04
RMM:  18    -0.413075458221E+03   -0.11915E-05   -0.61261E-08  1114   0.561E-04    0.861E-05
RMM:  19    -0.413075460291E+03   -0.20704E-05   -0.64863E-08  1198   0.581E-04    0.517E-05
RMM:  20    -0.413075460528E+03   -0.23665E-06   -0.21113E-08   806   0.490E-04
  150 T=    47. E= -.41284272E+03 F= -.41307546E+03 E0= -.41305506E+03  EK= 0.23274E+00 SP= 0.00E+00 SK= 0.00E+00
