       N       E                     dE             d eps       ncg     rms          rms(c)
RMM:   1     0.220110680035E+04    0.22011E+04   -0.52445E+04  2132   0.654E+02
RMM:   2     0.705561864968E+03   -0.14955E+04   -0.16262E+04  2132   0.177E+02
RMM:   3     0.137839184913E+03   -0.56772E+03   -0.65637E+03  2132   0.117E+02
RMM:   4    -0.159407790769E+03   -0.29725E+03   -0.27856E+03  2132   0.936E+01
RMM:   5    -0.287450992308E+03   -0.12804E+03   -0.11432E+03  2132   0.595E+01
RMM:   6    -0.349926553331E+03   -0.62476E+02   -0.55119E+02  2132   0.423E+01
RMM:   7    -0.382767734453E+03   -0.32841E+02   -0.30382E+02  2132   0.293E+01
RMM:   8    -0.404238718609E+03   -0.21471E+02   -0.18427E+02  2132   0.233E+01
RMM:   9    -0.436015455562E+03   -0.31777E+02   -0.30624E+02  6109   0.173E+01
RMM:  10    -0.441322922525E+03   -0.53075E+01   -0.63023E+01  6400   0.538E+00
RMM:  11    -0.442524680980E+03   -0.12018E+01   -0.11097E+01  6202   0.172E+00
RMM:  12    -0.442896155938E+03   -0.37147E+00   -0.26863E+00  6363   0.597E-01    0.134E+02
RMM:  13    -0.425602996222E+03    0.17293E+02   -0.81186E+01  4674   0.119E+01    0.712E+01
RMM:  14    -0.498782696094E+03   -0.73180E+02   -0.53818E+02  5415   0.232E+01    0.305E+01
RMM:  15    -0.414682096642E+03    0.84101E+02   -0.19520E+02  5055   0.163E+01    0.629E+00
RMM:  16    -0.414055703313E+03    0.62639E+00   -0.39118E+01  6073   0.603E+00    0.428E+00
RMM:  17    -0.413220210181E+03    0.83549E+00   -0.23470E+00  5364   0.182E+00    0.245E+00
RMM:  18    -0.413168195373E+03    0.52015E-01   -0.86400E-01  5963   0.960E-01    0.159E+00
RMM:  19    -0.413168275041E+03   -0.79668E-04   -0.28789E-01  5720   0.572E-01    0.847E-01
RMM:  20    -0.413181950276E+03   -0.13675E-01   -0.19212E-01  5377   0.480E-01    0.512E-01
RMM:  21    -0.413167464940E+03    0.14485E-01   -0.32146E-02  5015   0.221E-01    0.234E-01
RMM:  22    -0.413166108028E+03    0.13569E-02   -0.12590E-02  6075   0.928E-02    0.143E-01
RMM:  23    -0.413164473028E+03    0.16350E-02   -0.52084E-03  5816   0.677E-02    0.793E-02
RMM:  24    -0.413163049810E+03    0.14232E-02   -0.15748E-03  5448   0.391E-02    0.334E-02
RMM:  25    -0.413162834579E+03    0.21523E-03   -0.77874E-04  5869   0.235E-02    0.279E-02
RMM:  26    -0.413163072797E+03   -0.23822E-03   -0.54588E-04  5837   0.243E-02    0.314E-02
RMM:  27    -0.413163516604E+03   -0.44381E-03   -0.18316E-04  4559   0.197E-02    0.157E-02
RMM:  28    -0.413164031649E+03   -0.51505E-03   -0.20922E-04  5238   0.206E-02    0.898E-03
RMM:  29    -0.413164343593E+03   -0.31194E-03   -0.88373E-05  4322   0.129E-02    0.431E-03
RMM:  30    -0.413164549890E+03   -0.20630E-03   -0.68154E-05  3985   0.965E-03    0.278E-03
RMM:  31    -0.413164641210E+03   -0.91320E-04   -0.42766E-05  3087   0.559E-03    0.223E-03
RMM:  32    -0.413164662377E+03   -0.21167E-04   -0.17172E-05  2919   0.280E-03    0.110E-03
RMM:  33    -0.413164668978E+03   -0.66011E-05   -0.75000E-06  2742   0.195E-03    0.499E-04
RMM:  34    -0.413164669997E+03   -0.10187E-05   -0.39681E-06  2617   0.152E-03    0.791E-04
RMM:  35    -0.413164668828E+03    0.11694E-05   -0.20334E-06  1953   0.101E-03    0.650E-04
RMM:  36    -0.413164667677E+03    0.11505E-05   -0.12156E-06  1464   0.809E-04    0.283E-04
RMM:  37    -0.413164667739E+03   -0.62304E-07   -0.11129E-06  1563   0.768E-04
    1 T=    61. E= -.41286686E+03 F= -.41316467E+03 E0= -.41314217E+03  EK= 0.29781E+00 SP= 0.00E+00 SK= 0.00E+00
       N       E                     dE             d eps       ncg     rms          rms(c)
RMM:   1    -0.413164030175E+03    0.63750E-03   -0.87924E+00  3984   0.606E-01    0.887E-01
RMM:   2    -0.413168715670E+03   -0.46855E-02   -0.10807E-01  3975   0.874E-02    0.652E-01
RMM:   3    -0.413164992991E+03    0.37227E-02   -0.18573E-02  4921   0.528E-02    0.120E-01
RMM:   4    -0.413194794122E+03   -0.29801E-01   -0.32882E-02  5190   0.151E-01    0.722E-01
RMM:   5    -0.413164133095E+03    0.30661E-01   -0.14648E-02  4829   0.121E-01    0.503E-02
RMM:   6    -0.413164345968E+03   -0.21287E-03   -0.26693E-03  5768   0.504E-02    0.344E-02
RMM:   7    -0.413164348113E+03   -0.21452E-05   -0.46494E-04  5681   0.199E-02    0.220E-02
RMM:   8    -0.413164344954E+03    0.31588E-05   -0.65223E-05  5218   0.883E-03    0.101E-02
RMM:   9    -0.413164346434E+03   -0.14797E-05   -0.13320E-05  3886   0.398E-03    0.735E-03
RMM:  10    -0.413164351348E+03   -0.49143E-05   -0.23833E-06  2615   0.230E-03    0.450E-03
RMM:  11    -0.413164355026E+03   -0.36785E-05   -0.12160E-06  2520   0.169E-03    0.267E-03
RMM:  12    -0.413164362078E+03   -0.70515E-05   -0.20380E-06  2607   0.203E-03    0.117E-03
RMM:  13    -0.413164365450E+03   -0.33720E-05   -0.79935E-07  2440   0.140E-03    0.942E-04
RMM:  14    -0.413164365131E+03    0.31906E-06   -0.34552E-07  1975   0.908E-04
    2 T=    61. E= -.41286656E+03 F= -.41316437E+03 E0= -.41314186E+03  EK= 0.29781E+00 SP= 0.00E+00 SK= 0.00E+00
       N       E                     dE             d eps       ncg     rms          rms(c)
RMM:   1    -0.413165119699E+03   -0.75425E-03   -0.87885E+00  4189   0.617E-01    0.905E-01
RMM:   2    -0.413168855656E+03   -0.37360E-02   -0.10742E-01  3998   0.872E-02    0.649E-01
RMM:   3    -0.413165297933E+03    0.35577E-02   -0.17293E-02  4849   0.474E-02    0.101E-01
RMM:   4    -0.413188774923E+03   -0.23477E-01   -0.24508E-02  5163   0.131E-01    0.642E-01
RMM:   5    -0.413164781313E+03    0.23994E-01   -0.11545E-02  4829   0.107E-01    0.477E-02
RMM:   6    -0.413164953213E+03   -0.17190E-03   -0.21199E-03  5770   0.448E-02    0.334E-02
RMM:   7    -0.413164939547E+03    0.13666E-04   -0.39367E-04  5601   0.192E-02    0.209E-02
RMM:   8    -0.413164928996E+03    0.10551E-04   -0.54248E-05  4987   0.844E-03    0.986E-03
RMM:   9    -0.413164927327E+03    0.16688E-05   -0.11249E-05  3689   0.372E-03    0.744E-03
RMM:  10    -0.413164927440E+03   -0.11236E-06   -0.20176E-06  2558   0.232E-03
    3 T=    61. E= -.41286683E+03 F= -.41316493E+03 E0= -.41314243E+03  EK= 0.29810E+00 SP= 0.00E+00 SK= 0.00E+00
       N       E                     dE             d eps       ncg     rms          rms(c)
RMM:   1    -0.413164409184E+03    0.51814E-03   -0.87208E+00  4221   0.617E-01    0.890E-01
RMM:   2    -0.413168419229E+03   -0.40100E-02   -0.10680E-01  4218   0.866E-02    0.643E-01
RMM:   3    -0.413170491414E+03   -0.20722E-02   -0.21164E-02  5159   0.835E-02    0.328E-01
RMM:   4    -0.413188459752E+03   -0.17968E-01   -0.38692E-02  5106   0.169E-01    0.637E-01
RMM:   5    -0.413164658309E+03    0.23801E-01   -0.89940E-03  4700   0.104E-01    0.599E-02
RMM:   6    -0.413164675014E+03   -0.16705E-04   -0.17881E-03  5452   0.428E-02    0.320E-02
RMM:   7    -0.413164690694E+03   -0.15680E-04   -0.35404E-04  5982   0.172E-02    0.193E-02
RMM:   8    -0.413164686276E+03    0.44179E-05   -0.61343E-05  5133   0.910E-03    0.793E-03
RMM:   9    -0.413164684435E+03    0.18412E-05   -0.76733E-06  3366   0.357E-03    0.405E-03
RMM:  10    -0.413164685502E+03   -0.10674E-05   -0.17119E-06  2548   0.216E-03    0.259E-03
RMM:  11    -0.413164686985E+03   -0.14831E-05   -0.13362E-06  2534   0.180E-03    0.147E-03
RMM:  12    -0.413164687755E+03   -0.76915E-06   -0.78831E-07  2491   0.141E-03
    4 T=    61. E= -.41286664E+03 F= -.41316469E+03 E0= -.41314220E+03  EK= 0.29805E+00 SP= 0.00E+00 SK= 0.00E+00
       N       E                     dE             d eps       ncg     rms          rms(c)
RMM:   1    -0.413164395487E+03    0.29150E-03   -0.87820E+00  4235   0.619E-01    0.884E-01
RMM:   2    -0.413169003635E+03   -0.46081E-02   -0.10826E-01  4012   0.860E-02    0.651E-01
RMM:   3    -0.413165569267E+03    0.34344E-02   -0.18594E-02  4953   0.520E-02    0.125E-01
RMM:   4    -0.413196554072E+03   -0.30985E-01   -0.33642E-02  5140   0.153E-01    0.737E-01
RMM:   5    -0.413164656605E+03    0.31897E-01   -0.15023E-02  4807   0.122E-01    0.505E-02
RMM:   6    -0.413164861418E+03   -0.20481E-03   -0.26575E-03  5748   0.508E-02    0.341E-02
RMM:   7    -0.413164859687E+03    0.17318E-05   -0.45760E-04  5751   0.198E-02    0.217E-02
RMM:   8    -0.413164855203E+03    0.44835E-05   -0.63968E-05  5128   0.884E-03    0.999E-03
RMM:   9    -0.413164856097E+03   -0.89435E-06   -0.12607E-05  3826   0.400E-03    0.725E-03
RMM:  10    -0.413164860214E+03   -0.41163E-05   -0.20859E-06  2587   0.228E-03    0.442E-03
RMM:  11    -0.413164863724E+03   -0.35102E-05   -0.12286E-06  2532   0.175E-03    0.245E-03
RMM:  12    -0.413164869354E+03   -0.56298E-05   -0.19145E-06  2605   0.199E-03    0.109E-03
RMM:  13    -0.413164871456E+03   -0.21017E-05   -0.63391E-07  2408   0.133E-03    0.807E-04
RMM:  14    -0.413164871250E+03    0.20586E-06   -0.24634E-07  1902   0.860E-04
    5 T=    61. E= -.41286677E+03 F= -.41316487E+03 E0= -.41314239E+03  EK= 0.29810E+00 SP= 0.00E+00 SK= 0.00E+00
       N       E                     dE             d eps       ncg     rms          rms(c)
RMM:   1    -0.413165318488E+03   -0.44703E-03   -0.87860E+00  4247   0.625E-01    0.902E-01
RMM:   2    -0.413169121571E+03   -0.38031E-02   -0.10751E-01  4030   0.855E-02    0.650E-01
RMM:   3    -0.413165754654E+03    0.33669E-02   -0.17542E-02  4870   0.466E-02    0.101E-01
RMM:   4    -0.413189647732E+03   -0.23893E-01   -0.24989E-02  5141   0.132E-01    0.648E-01
RMM:   5    -0.413165215772E+03    0.24432E-01   -0.11730E-02  4815   0.107E-01    0.478E-02
RMM:   6    -0.413165384290E+03   -0.16852E-03   -0.21600E-03  5763   0.449E-02    0.334E-02
RMM:   7    -0.413165373742E+03    0.10548E-04   -0.39794E-04  5602   0.192E-02    0.210E-02
RMM:   8    -0.413165362849E+03    0.10893E-04   -0.53886E-05  4958   0.837E-03    0.988E-03
RMM:   9    -0.413165361287E+03    0.15625E-05   -0.10887E-05  3642   0.370E-03    0.744E-03
RMM:  10    -0.413165361486E+03   -0.19954E-06   -0.19636E-06  2559   0.230E-03
    6 T=    61. E= -.41286703E+03 F= -.41316536E+03 E0= -.41314290E+03  EK= 0.29833E+00 SP= 0.00E+00 SK= 0.00E+00
       N       E                     dE             d eps       ncg     rms          rms(c)
RMM:   1    -0.413165025750E+03    0.33554E-03   -0.87348E+00  4256   0.627E-01    0.897E-01
RMM:   2    -0.413168815019E+03   -0.37893E-02   -0.10689E-01  4265   0.864E-02    0.644E-01
RMM:   3    -0.413170547961E+03   -0.17329E-02   -0.20930E-02  5130   0.812E-02    0.318E-01
RMM:   4    -0.413189577405E+03   -0.19029E-01   -0.38899E-02  5094   0.168E-01    0.646E-01
RMM:   5    -0.413165063519E+03    0.24514E-01   -0.93696E-03  4698   0.105E-01    0.598E-02
RMM:   6    -0.413165093551E+03   -0.30032E-04   -0.18734E-03  5464   0.433E-02    0.324E-02
RMM:   7    -0.413165106978E+03   -0.13427E-04   -0.35714E-04  5965   0.170E-02    0.195E-02
RMM:   8    -0.413165100616E+03    0.63625E-05   -0.60887E-05  5130   0.901E-03    0.798E-03
RMM:   9    -0.413165097088E+03    0.35275E-05   -0.76227E-06  3327   0.353E-03    0.413E-03
RMM:  10    -0.413165096892E+03    0.19619E-06   -0.17757E-06  2557   0.216E-03
    7 T=    61. E= -.41286669E+03 F= -.41316510E+03 E0= -.41314265E+03  EK= 0.29841E+00 SP= 0.00E+00 SK= 0.00E+00
       N       E                     dE             d eps       ncg     rms          rms(c)
RMM:   1    -0.413165299573E+03   -0.20249E-03   -0.87609E+00  4272   0.631E-01    0.883E-01
RMM:   2    -0.413169943711E+03   -0.46441E-02   -0.10769E-01  4143   0.873E-02    0.649E-01
RMM:   3    -0.413166537253E+03    0.34065E-02   -0.18482E-02  4951   0.540E-02    0.133E-01
RMM:   4    -0.413199474709E+03   -0.32937E-01   -0.36299E-02  5130   0.159E-01    0.760E-01
RMM:   5    -0.413165491584E+03    0.33983E-01   -0.15999E-02  4802   0.126E-01    0.519E-02
RMM:   6    -0.413165700728E+03   -0.20914E-03   -0.28031E-03  5729   0.522E-02    0.346E-02
RMM:   7    -0.413165700363E+03    0.36474E-06   -0.47734E-04  5745   0.200E-02    0.220E-02
RMM:   8    -0.413165695222E+03    0.51403E-05   -0.66369E-05  5180   0.888E-03    0.100E-02
RMM:   9    -0.413165694702E+03    0.52086E-06   -0.12731E-05  3851   0.399E-03    0.712E-03
RMM:  10    -0.413165697397E+03   -0.26954E-05   -0.21093E-06  2581   0.227E-03    0.436E-03
RMM:  11    -0.413165699655E+03   -0.22578E-05   -0.11555E-06  2524   0.171E-03    0.246E-03
RMM:  12    -0.413165703297E+03   -0.36422E-05   -0.18979E-06  2601   0.198E-03    0.108E-03
RMM:  13    -0.413165704684E+03   -0.13872E-05   -0.69872E-07  2429   0.135E-03    0.870E-04
RMM:  14    -0.413165704444E+03    0.24000E-06   -0.25469E-07  1927   0.875E-04
    8 T=    61. E= -.41286692E+03 F= -.41316570E+03 E0= -.41314327E+03  EK= 0.29879E+00 SP= 0.00E+00 SK= 0.00E+00
       N       E                     dE             d eps       ncg     rms          rms(c)
RMM:   1    -0.413165764294E+03   -0.59610E-04   -0.87956E+00  4280   0.637E-01    0.898E-01
RMM:   2    -0.413170027937E+03   -0.42636E-02   -0.10762E-01  4163   0.878E-02    0.652E-01
RMM:   3    -0.413166297624E+03    0.37303E-02   -0.17925E-02  4857   0.499E-02    0.105E-01
RMM:   4    -0.413191790376E+03   -0.25493E-01   -0.26852E-02  5130   0.137E-01    0.669E-01
RMM:   5    -0.413165676217E+03    0.26114E-01   -0.12485E-02  4803   0.111E-01    0.482E-02
RMM:   6    -0.413165859444E+03   -0.18323E-03   -0.23356E-03  5776   0.461E-02    0.331E-02
RMM:   7    -0.413165854978E+03    0.44669E-05   -0.40308E-04  5624   0.191E-02    0.212E-02
RMM:   8    -0.413165844810E+03    0.10167E-04   -0.59460E-05  4986   0.860E-03    0.102E-02
RMM:   9    -0.413165842701E+03    0.21089E-05   -0.11645E-05  3785   0.387E-03    0.770E-03
RMM:  10    -0.413165842995E+03   -0.29333E-06   -0.19895E-06  2563   0.231E-03
    9 T=    61. E= -.41286676E+03 F= -.41316584E+03 E0= -.41314344E+03  EK= 0.29908E+00 SP= 0.00E+00 SK= 0.00E+00
       N       E                     dE             d eps       ncg     rms          rms(c)
RMM:   1    -0.413165939259E+03   -0.96558E-04   -0.87660E+00  4292   0.643E-01    0.903E-01
RMM:   2    -0.413169853224E+03   -0.39140E-02   -0.10706E-01  4320   0.886E-02    0.646E-01
RMM:   3    -0.413172547605E+03   -0.26944E-02   -0.21942E-02  5130   0.873E-02    0.350E-01
RMM:   4    -0.413187426888E+03   -0.14879E-01   -0.37486E-02  5072   0.166E-01    0.606E-01
RMM:   5    -0.413165904256E+03    0.21523E-01   -0.78421E-03  4671   0.984E-02    0.590E-02
RMM:   6    -0.413165909592E+03   -0.53356E-05   -0.16292E-03  5406   0.403E-02    0.325E-02
RMM:   7    -0.413165918436E+03   -0.88441E-05   -0.32499E-04  5917   0.169E-02    0.191E-02
RMM:   8    -0.413165908532E+03    0.99040E-05   -0.58208E-05  5103   0.887E-03    0.770E-03
RMM:   9    -0.413165904070E+03    0.44615E-05   -0.71138E-06  3258   0.346E-03    0.398E-03
RMM:  10    -0.413165902815E+03    0.12557E-05   -0.15888E-06  2533   0.211E-03    0.250E-03
RMM:  11    -0.413165900671E+03    0.21433E-05   -0.12389E-06  2519   0.174E-03    0.140E-03
RMM:  12    -0.413165898696E+03    0.19750E-05   -0.73632E-07  2465   0.137E-03    0.589E-04
RMM:  13    -0.413165897415E+03    0.12817E-05   -0.37498E-07  2101   0.994E-04    0.315E-04
RMM:  14    -0.413165896073E+03    0.13418E-05   -0.23708E-07  1602   0.791E-04    0.207E-04
RMM:  15    -0.413165894162E+03    0.19109E-05   -0.23574E-07  1512   0.754E-04    0.163E-04
RMM:  16    -0.413165892334E+03    0.18276E-05   -0.17851E-07  1327   0.687E-04    0.144E-04
RMM:  17    -0.413165890391E+03    0.19429E-05   -0.15806E-07  1281   0.664E-04    0.766E-05
RMM:  18    -0.413165889309E+03    0.10828E-05   -0.81505E-08  1014   0.590E-04    0.434E-05
RMM:  19    -0.413165888677E+03    0.63166E-06   -0.44035E-08   835   0.550E-04
   10 T=    61. E= -.41286655E+03 F= -.41316589E+03 E0= -.41314350E+03  EK= 0.29934E+00 SP= 0.00E+00 SK= 0.00E+00
       N       E                     dE             d eps       ncg     rms          rms(c)
RMM:   1    -0.413166237163E+03   -0.34785E-03   -0.87475E+00  4288   0.644E-01    0.883E-01
RMM:   2    -0.413170686592E+03   -0.44494E-02   -0.10764E-01  4209   0.873E-02    0.647E-01
RMM:   3    -0.413167499710E+03    0.31869E-02   -0.18205E-02  4943   0.534E-02    0.132E-01
RMM:   4    -0.413200329585E+03   -0.32830E-01   -0.36133E-02  5126   0.158E-01    0.758E-01
RMM:   5    -0.413166486913E+03    0.33843E-01   -0.16052E-02  4797   0.126E-01    0.517E-02
RMM:   6    -0.413166698250E+03   -0.21134E-03   -0.27769E-03  5737   0.518E-02    0.350E-02
RMM:   7    -0.413166692979E+03    0.52708E-05   -0.47090E-04  5647   0.200E-02    0.220E-02
RMM:   8    -0.413166685453E+03    0.75266E-05   -0.66855E-05  5178   0.903E-03    0.100E-02
RMM:   9    -0.413166683649E+03    0.18033E-05   -0.13149E-05  3899   0.406E-03    0.716E-03
RMM:  10    -0.413166685030E+03   -0.13807E-05   -0.20768E-06  2581   0.227E-03    0.438E-03
RMM:  11    -0.413166686255E+03   -0.12253E-05   -0.10854E-06  2505   0.167E-03    0.248E-03
RMM:  12    -0.413166688252E+03   -0.19969E-05   -0.16472E-06  2553   0.192E-03    0.107E-03
RMM:  13    -0.413166688950E+03   -0.69738E-06   -0.62692E-07  2393   0.133E-03
   11 T=    61. E= -.41286694E+03 F= -.41316669E+03 E0= -.41314433E+03  EK= 0.29975E+00 SP= 0.00E+00 SK= 0.00E+00
       N       E                     dE             d eps       ncg     rms          rms(c)
RMM:   1    -0.413166433281E+03    0.25497E-03   -0.88084E+00  4291   0.649E-01    0.894E-01
RMM:   2    -0.413170674241E+03   -0.42410E-02   -0.10825E-01  4232   0.871E-02    0.654E-01
RMM:   3    -0.413167196591E+03    0.34776E-02   -0.18383E-02  4877   0.502E-02    0.111E-01
RMM:   4    -0.413194811241E+03   -0.27615E-01   -0.29470E-02  5127   0.143E-01    0.696E-01
RMM:   5    -0.413166475514E+03    0.28336E-01   -0.13508E-02  4794   0.115E-01    0.489E-02
RMM:   6    -0.413166664520E+03   -0.18901E-03   -0.24807E-03  5780   0.477E-02    0.329E-02
RMM:   7    -0.413166664203E+03    0.31719E-06   -0.40737E-04  5653   0.193E-02    0.213E-02
RMM:   8    -0.413166653249E+03    0.10953E-04   -0.64535E-05  5017   0.880E-03    0.104E-02
RMM:   9    -0.413166651187E+03    0.20624E-05   -0.12528E-05  3896   0.402E-03    0.774E-03
RMM:  10    -0.413166651759E+03   -0.57219E-06   -0.19920E-06  2566   0.230E-03
   12 T=    61. E= -.41286672E+03 F= -.41316665E+03 E0= -.41314432E+03  EK= 0.29994E+00 SP= 0.00E+00 SK= 0.00E+00
       N       E                     dE             d eps       ncg     rms          rms(c)
RMM:   1    -0.413167555618E+03   -0.90443E-03   -0.87914E+00  4303   0.659E-01    0.908E-01
RMM:   2    -0.413170846708E+03   -0.32911E-02   -0.10753E-01  4328   0.866E-02    0.649E-01
RMM:   3    -0.413174452468E+03   -0.36058E-02   -0.22537E-02  5134   0.889E-02    0.364E-01
RMM:   4    -0.413187891700E+03   -0.13439E-01   -0.37472E-02  5067   0.166E-01    0.593E-01
RMM:   5    -0.413167270782E+03    0.20621E-01   -0.74089E-03  4650   0.963E-02    0.588E-02
RMM:   6    -0.413167267025E+03    0.37569E-05   -0.15630E-03  5386   0.394E-02    0.326E-02
RMM:   7    -0.413167269403E+03   -0.23781E-05   -0.31043E-04  5901   0.165E-02    0.190E-02
RMM:   8    -0.413167261321E+03    0.80814E-05   -0.57006E-05  5100   0.883E-03    0.761E-03
RMM:   9    -0.413167255896E+03    0.54253E-05   -0.69003E-06  3240   0.346E-03    0.390E-03
RMM:  10    -0.413167253989E+03    0.19069E-05   -0.15037E-06  2515   0.207E-03    0.244E-03
RMM:  11    -0.413167250718E+03    0.32712E-05   -0.11972E-06  2512   0.173E-03    0.139E-03
RMM:  12    -0.413167248032E+03    0.26859E-05   -0.67223E-07  2454   0.134E-03    0.576E-04
RMM:  13    -0.413167246196E+03    0.18359E-05   -0.35006E-07  2070   0.977E-04    0.328E-04
RMM:  14    -0.413167244515E+03    0.16815E-05   -0.20820E-07  1574   0.774E-04    0.221E-04
RMM:  15    -0.413167241642E+03    0.28721E-05   -0.21989E-07  1503   0.751E-04    0.167E-04
RMM:  16    -0.413167239237E+03    0.24054E-05   -0.15998E-07  1321   0.680E-04    0.143E-04
RMM:  17    -0.413167236807E+03    0.24302E-05   -0.13975E-07  1312   0.659E-04    0.757E-05
RMM:  18    -0.413167235540E+03    0.12669E-05   -0.68539E-08   965   0.573E-04    0.431E-05
RMM:  19    -0.413167234739E+03    0.80068E-06   -0.37947E-08   816   0.543E-04
   13 T=    61. E= -.41286681E+03 F= -.41316723E+03 E0= -.41314493E+03  EK= 0.30043E+00 SP= 0.00E+00 SK= 0.00E+00
       N       E                     dE             d eps       ncg     rms          rms(c)
RMM:   1    -0.413167643090E+03   -0.40755E-03   -0.87401E+00  4295   0.656E-01    0.886E-01
RMM:   2    -0.413171808603E+03   -0.41655E-02   -0.10749E-01  4245   0.860E-02    0.646E-01
RMM:   3    -0.413168735569E+03    0.30730E-02   -0.18016E-02  4960   0.523E-02    0.135E-01
RMM:   4    -0.413202342962E+03   -0.33607E-01   -0.37311E-02  5123   0.161E-01    0.767E-01
RMM:   5    -0.413167688931E+03    0.34654E-01   -0.16448E-02  4793   0.127E-01    0.522E-02
RMM:   6    -0.413167895119E+03   -0.20619E-03   -0.28186E-03  5737   0.523E-02    0.354E-02
RMM:   7    -0.413167886288E+03    0.88306E-05   -0.48109E-04  5653   0.202E-02    0.223E-02
RMM:   8    -0.413167878648E+03    0.76404E-05   -0.68483E-05  5185   0.913E-03    0.102E-02
RMM:   9    -0.413167875662E+03    0.29862E-05   -0.13408E-05  3934   0.411E-03    0.721E-03
RMM:  10    -0.413167875430E+03    0.23188E-06   -0.20992E-06  2573   0.228E-03
   14 T=    61. E= -.41286690E+03 F= -.41316788E+03 E0= -.41314561E+03  EK= 0.30098E+00 SP= 0.00E+00 SK= 0.00E+00
       N       E                     dE             d eps       ncg     rms          rms(c)
RMM:   1    -0.413167724967E+03    0.15069E-03   -0.88259E+00  4304   0.660E-01    0.892E-01
RMM:   2    -0.413172247447E+03   -0.45225E-02   -0.10862E-01  4328   0.879E-02    0.656E-01
RMM:   3    -0.413175252275E+03   -0.30048E-02   -0.23822E-02  5121   0.911E-02    0.365E-01
RMM:   4    -0.413190730642E+03   -0.15478E-01   -0.40368E-02  5069   0.172E-01    0.623E-01
RMM:   5    -0.413167880236E+03    0.22850E-01   -0.83802E-03  4650   0.102E-01    0.582E-02
RMM:   6    -0.413167896013E+03   -0.15777E-04   -0.16985E-03  5411   0.409E-02    0.312E-02
RMM:   7    -0.413167911851E+03   -0.15838E-04   -0.32797E-04  5931   0.166E-02    0.188E-02
RMM:   8    -0.413167908508E+03    0.33431E-05   -0.59370E-05  5114   0.888E-03    0.763E-03
RMM:   9    -0.413167906453E+03    0.20547E-05   -0.70854E-06  3241   0.351E-03    0.389E-03
RMM:  10    -0.413167907449E+03   -0.99546E-06   -0.15620E-06  2522   0.207E-03
   15 T=    61. E= -.41286653E+03 F= -.41316791E+03 E0= -.41314567E+03  EK= 0.30137E+00 SP= 0.00E+00 SK= 0.00E+00
       N       E                     dE             d eps       ncg     rms          rms(c)
RMM:   1    -0.413169223548E+03   -0.13171E-02   -0.88207E+00  4301   0.667E-01    0.910E-01
RMM:   2    -0.413172930349E+03   -0.37068E-02   -0.10791E-01  4262   0.885E-02    0.651E-01
RMM:   3    -0.413169866954E+03    0.30634E-02   -0.17895E-02  4972   0.536E-02    0.141E-01
RMM:   4    -0.413204732033E+03   -0.34865E-01   -0.38839E-02  5121   0.164E-01    0.780E-01
RMM:   5    -0.413168766720E+03    0.35965E-01   -0.16990E-02  4795   0.129E-01    0.536E-02
RMM:   6    -0.413168976430E+03   -0.20971E-03   -0.29990E-03  5742   0.537E-02    0.367E-02
RMM:   7    -0.413168963255E+03    0.13176E-04   -0.50715E-04  5701   0.209E-02    0.233E-02
RMM:   8    -0.413168949668E+03    0.13587E-04   -0.73463E-05  5212   0.947E-03    0.109E-02
RMM:   9    -0.413168943337E+03    0.63308E-05   -0.13925E-05  3985   0.421E-03    0.761E-03
RMM:  10    -0.413168939184E+03    0.41535E-05   -0.23059E-06  2595   0.238E-03    0.460E-03
RMM:  11    -0.413168936516E+03    0.26680E-05   -0.11081E-06  2503   0.171E-03    0.272E-03
RMM:  12    -0.413168930934E+03    0.55820E-05   -0.19493E-06  2596   0.207E-03    0.119E-03
RMM:  13    -0.413168927394E+03    0.35394E-05   -0.74181E-07  2436   0.144E-03    0.996E-04
RMM:  14    -0.413168927559E+03   -0.16480E-06   -0.27306E-07  2014   0.923E-04
   16 T=    62. E= -.41286678E+03 F= -.41316893E+03 E0= -.41314673E+03  EK= 0.30215E+00 SP= 0.00E+00 SK= 0.00E+00
       N       E                     dE             d eps       ncg     rms          rms(c)
RMM:   1    -0.413169250192E+03   -0.32280E-03   -0.87599E+00  4296   0.673E-01    0.892E-01
RMM:   2    -0.413173504697E+03   -0.42545E-02   -0.10762E-01  4263   0.903E-02    0.646E-01
RMM:   3    -0.413170012502E+03    0.34922E-02   -0.17712E-02  4889   0.514E-02    0.117E-01
RMM:   4    -0.413199697030E+03   -0.29685E-01   -0.31923E-02  5124   0.148E-01    0.720E-01
RMM:   5    -0.413169240838E+03    0.30456E-01   -0.14611E-02  4793   0.119E-01    0.502E-02
RMM:   6    -0.413169434488E+03   -0.19365E-03   -0.26351E-03  5779   0.494E-02    0.344E-02
RMM:   7    -0.413169421598E+03    0.12890E-04   -0.43038E-04  5630   0.198E-02    0.218E-02
RMM:   8    -0.413169407048E+03    0.14550E-04   -0.67793E-05  5054   0.921E-03    0.107E-02
RMM:   9    -0.413169402019E+03    0.50290E-05   -0.13507E-05  3955   0.416E-03    0.785E-03
RMM:  10    -0.413169399281E+03    0.27379E-05   -0.21207E-06  2579   0.235E-03    0.473E-03
RMM:  11    -0.413169397303E+03    0.19781E-05   -0.12388E-06  2511   0.180E-03    0.266E-03
RMM:  12    -0.413169393700E+03    0.36033E-05   -0.17937E-06  2568   0.204E-03    0.114E-03
RMM:  13    -0.413169391597E+03    0.21026E-05   -0.59295E-07  2389   0.135E-03    0.849E-04
RMM:  14    -0.413169391685E+03   -0.87901E-07   -0.25165E-07  1946   0.877E-04
   17 T=    62. E= -.41286668E+03 F= -.41316939E+03 E0= -.41314723E+03  EK= 0.30271E+00 SP= 0.00E+00 SK= 0.00E+00
       N       E                     dE             d eps       ncg     rms          rms(c)
RMM:   1    -0.413169681905E+03   -0.29031E-03   -0.88444E+00  4297   0.672E-01    0.891E-01
RMM:   2    -0.413174153035E+03   -0.44711E-02   -0.10937E-01  4270   0.897E-02    0.657E-01
RMM:   3    -0.413170595896E+03    0.35571E-02   -0.19029E-02  4893   0.528E-02    0.120E-01
RMM:   4    -0.413200682299E+03   -0.30086E-01   -0.32623E-02  5119   0.150E-01    0.726E-01
RMM:   5    -0.413169747655E+03    0.30935E-01   -0.14875E-02  4791   0.120E-01    0.498E-02
RMM:   6    -0.413169933849E+03   -0.18619E-03   -0.25811E-03  5761   0.497E-02    0.334E-02
RMM:   7    -0.413169930744E+03    0.31048E-05   -0.43381E-04  5636   0.197E-02    0.214E-02
RMM:   8    -0.413169920655E+03    0.10089E-04   -0.66957E-05  5081   0.914E-03    0.103E-02
RMM:   9    -0.413169917717E+03    0.29382E-05   -0.13394E-05  3930   0.416E-03    0.751E-03
RMM:  10    -0.413169917913E+03   -0.19587E-06   -0.20318E-06  2567   0.229E-03
   18 T=    62. E= -.41286668E+03 F= -.41316992E+03 E0= -.41314780E+03  EK= 0.30323E+00 SP= 0.00E+00 SK= 0.00E+00
       N       E                     dE             d eps       ncg     rms          rms(c)
RMM:   1    -0.413171377042E+03   -0.14593E-02   -0.88468E+00  4301   0.684E-01    0.910E-01
RMM:   2    -0.413174982843E+03   -0.36058E-02   -0.10883E-01  4339   0.894E-02    0.655E-01
RMM:   3    -0.413178119097E+03   -0.31363E-02   -0.22840E-02  5125   0.892E-02    0.358E-01
RMM:   4    -0.413193237588E+03   -0.15118E-01   -0.39039E-02  5063   0.169E-01    0.613E-01
RMM:   5    -0.413171114555E+03    0.22123E-01   -0.80978E-03  4659   0.995E-02    0.584E-02
RMM:   6    -0.413171124850E+03   -0.10295E-04   -0.16888E-03  5412   0.407E-02    0.325E-02
RMM:   7    -0.413171123144E+03    0.17056E-05   -0.32486E-04  5899   0.169E-02    0.193E-02
RMM:   8    -0.413171113070E+03    0.10074E-04   -0.58712E-05  5094   0.897E-03    0.778E-03
RMM:   9    -0.413171106754E+03    0.63151E-05   -0.72646E-06  3263   0.354E-03    0.401E-03
RMM:  10    -0.413171104262E+03    0.24922E-05   -0.15660E-06  2522   0.210E-03    0.253E-03
RMM:  11    -0.413171100351E+03    0.39115E-05   -0.11140E-06  2500   0.171E-03    0.139E-03
RMM:  12    -0.413171096755E+03    0.35960E-05   -0.65696E-07  2449   0.134E-03    0.551E-04
RMM:  13    -0.413171094498E+03    0.22569E-05   -0.33362E-07  2063   0.973E-04    0.317E-04
RMM:  14    -0.413171092462E+03    0.20357E-05   -0.18941E-07  1554   0.766E-04    0.214E-04
RMM:  15    -0.413171088832E+03    0.36298E-05   -0.17898E-07  1411   0.736E-04    0.161E-04
RMM:  16    -0.413171086107E+03    0.27254E-05   -0.12271E-07  1288   0.668E-04    0.147E-04
RMM:  17    -0.413171082963E+03    0.31437E-05   -0.11536E-07  1269   0.650E-04    0.776E-05
RMM:  18    -0.413171081194E+03    0.17697E-05   -0.61163E-08   963   0.580E-04    0.390E-05
RMM:  19    -0.413171080191E+03    0.10029E-05   -0.36432E-08   868   0.553E-04    0.300E-05
RMM:  20    -0.413171079851E+03    0.33933E-06   -0.17472E-08   717   0.528E-04
   19 T=    62. E= -.41286705E+03 F= -.41317108E+03 E0= -.41314900E+03  EK= 0.30403E+00 SP= 0.00E+00 SK= 0.00E+00
       N       E                     dE             d eps       ncg     rms          rms(c)
RMM:   1    -0.413171605294E+03   -0.52510E-03   -0.87942E+00  4297   0.686E-01    0.899E-01
RMM:   2    -0.413175199629E+03   -0.35943E-02   -0.10845E-01  4272   0.883E-02    0.648E-01
RMM:   3    -0.413172450125E+03    0.27495E-02   -0.17938E-02  4983   0.530E-02    0.143E-01
RMM:   4    -0.413207558042E+03   -0.35108E-01   -0.39502E-02  5126   0.165E-01    0.783E-01
RMM:   5    -0.413171333865E+03    0.36224E-01   -0.17231E-02  4786   0.130E-01    0.537E-02
RMM:   6    -0.413171528283E+03   -0.19442E-03   -0.29996E-03  5733   0.541E-02    0.365E-02
RMM:   7    -0.413171513558E+03    0.14725E-04   -0.50499E-04  5662   0.209E-02    0.232E-02
RMM:   8    -0.413171501229E+03    0.12329E-04   -0.75061E-05  5216   0.962E-03    0.108E-02
RMM:   9    -0.413171495033E+03    0.61956E-05   -0.14541E-05  4056   0.430E-03    0.754E-03
RMM:  10    -0.413171491346E+03    0.36873E-05   -0.22287E-06  2580   0.234E-03    0.463E-03
RMM:  11    -0.413171489084E+03    0.22621E-05   -0.10773E-06  2501   0.168E-03    0.274E-03
RMM:  12    -0.413171484509E+03    0.45751E-05   -0.16962E-06  2552   0.202E-03    0.117E-03
RMM:  13    -0.413171481824E+03    0.26851E-05   -0.69947E-07  2411   0.142E-03    0.957E-04
RMM:  14    -0.413171481841E+03   -0.16920E-07   -0.27742E-07  2022   0.930E-04
   20 T=    62. E= -.41286677E+03 F= -.41317148E+03 E0= -.41314945E+03  EK= 0.30471E+00 SP= 0.00E+00 SK= 0.00E+00
       N       E                     dE             d eps       ncg     rms          rms(c)
RMM:   1    -0.413172419122E+03   -0.93730E-03   -0.88565E+00  4294   0.684E-01    0.891E-01
RMM:   2    -0.413176843977E+03   -0.44249E-02   -0.10977E-01  4274   0.892E-02    0.657E-01
RMM:   3    -0.413173194892E+03    0.36491E-02   -0.19042E-02  4893   0.511E-02    0.115E-01
RMM:   4    -0.413201948420E+03   -0.28754E-01   -0.31006E-02  5125   0.146E-01    0.710E-01
RMM:   5    -0.413172418161E+03    0.29530E-01   -0.14233E-02  4789   0.118E-01    0.493E-02
RMM:   6    -0.413172596201E+03   -0.17804E-03   -0.25535E-03  5784   0.487E-02    0.326E-02
RMM:   7    -0.413172597251E+03   -0.10497E-05   -0.40049E-04  5641   0.192E-02    0.208E-02
RMM:   8    -0.413172587687E+03    0.95638E-05   -0.70002E-05  5046   0.910E-03    0.106E-02
RMM:   9    -0.413172583974E+03    0.37131E-05   -0.13393E-05  4013   0.421E-03    0.783E-03
RMM:  10    -0.413172583322E+03    0.65240E-06   -0.19902E-06  2564   0.229E-03
   21 T=    62. E= -.41286687E+03 F= -.41317258E+03 E0= -.41315059E+03  EK= 0.30571E+00 SP= 0.00E+00 SK= 0.00E+00
       N       E                     dE             d eps       ncg     rms          rms(c)
RMM:   1    -0.413173999309E+03   -0.14153E-02   -0.88891E+00  4300   0.694E-01    0.909E-01
RMM:   2    -0.413177907200E+03   -0.39079E-02   -0.10955E-01  4340   0.895E-02    0.659E-01
RMM:   3    -0.413180772291E+03   -0.28651E-02   -0.23287E-02  5129   0.896E-02    0.359E-01
RMM:   4    -0.413196694134E+03   -0.15922E-01   -0.40292E-02  5069   0.172E-01    0.625E-01
RMM:   5    -0.413173709597E+03    0.22985E-01   -0.84181E-03  4654   0.102E-01    0.578E-02
RMM:   6    -0.413173732367E+03   -0.22770E-04   -0.17636E-03  5433   0.415E-02    0.324E-02
RMM:   7    -0.413173733910E+03   -0.15432E-05   -0.33183E-04  5880   0.169E-02    0.194E-02
RMM:   8    -0.413173725492E+03    0.84178E-05   -0.58794E-05  5099   0.890E-03    0.786E-03
RMM:   9    -0.413173719747E+03    0.57452E-05   -0.73139E-06  3271   0.352E-03    0.408E-03
RMM:  10    -0.413173717396E+03    0.23515E-05   -0.16305E-06  2533   0.209E-03    0.259E-03
RMM:  11    -0.413173713871E+03    0.35248E-05   -0.10706E-06  2490   0.168E-03    0.139E-03
RMM:  12    -0.413173710339E+03    0.35314E-05   -0.66175E-07  2446   0.134E-03    0.531E-04
RMM:  13    -0.413173708237E+03    0.21022E-05   -0.32764E-07  2057   0.967E-04    0.317E-04
RMM:  14    -0.413173706396E+03    0.18408E-05   -0.18220E-07  1564   0.757E-04    0.215E-04
RMM:  15    -0.413173702822E+03    0.35747E-05   -0.15976E-07  1350   0.716E-04    0.157E-04
RMM:  16    -0.413173700122E+03    0.26991E-05   -0.10668E-07  1199   0.656E-04    0.148E-04
RMM:  17    -0.413173697063E+03    0.30596E-05   -0.96836E-08  1177   0.637E-04    0.745E-05
RMM:  18    -0.413173694750E+03    0.23134E-05   -0.62520E-08  1019   0.596E-04    0.348E-05
RMM:  19    -0.413173693779E+03    0.97049E-06   -0.29761E-08   799   0.554E-04
   22 T=    62. E= -.41286692E+03 F= -.41317369E+03 E0= -.41315175E+03  EK= 0.30678E+00 SP= 0.00E+00 SK= 0.00E+00
       N       E                     dE             d eps       ncg     rms          rms(c)
RMM:   1    -0.413174765507E+03   -0.10708E-02   -0.88621E+00  4294   0.702E-01    0.909E-01
RMM:   2    -0.413178502701E+03   -0.37372E-02   -0.10921E-01  4284   0.901E-02    0.653E-01
RMM:   3    -0.413175196798E+03    0.33059E-02   -0.18030E-02  4928   0.537E-02    0.136E-01
RMM:   4    -0.413209562768E+03   -0.34366E-01   -0.38015E-02  5122   0.162E-01    0.774E-01
RMM:   5    -0.413174194592E+03    0.35368E-01   -0.16918E-02  4781   0.129E-01    0.532E-02
RMM:   6    -0.413174392670E+03   -0.19808E-03   -0.30135E-03  5751   0.534E-02    0.367E-02
RMM:   7    -0.413174378464E+03    0.14207E-04   -0.49544E-04  5640   0.211E-02    0.233E-02
RMM:   8    -0.413174364120E+03    0.14343E-04   -0.76525E-05  5184   0.976E-03    0.113E-02
RMM:   9    -0.413174356987E+03    0.71338E-05   -0.14662E-05  4077   0.438E-03    0.796E-03
RMM:  10    -0.413174352111E+03    0.48761E-05   -0.22827E-06  2586   0.240E-03    0.486E-03
RMM:  11    -0.413174348856E+03    0.32544E-05   -0.11865E-06  2509   0.176E-03    0.285E-03
RMM:  12    -0.413174342462E+03    0.63937E-05   -0.18889E-06  2570   0.212E-03    0.122E-03
RMM:  13    -0.413174338935E+03    0.35274E-05   -0.69637E-07  2405   0.144E-03    0.971E-04
RMM:  14    -0.413174339046E+03   -0.11049E-06   -0.28497E-07  2032   0.935E-04
   23 T=    63. E= -.41286662E+03 F= -.41317434E+03 E0= -.41315244E+03  EK= 0.30772E+00 SP= 0.00E+00 SK= 0.00E+00
       N       E                     dE             d eps       ncg     rms          rms(c)
RMM:   1    -0.413178528187E+03   -0.41893E-02   -0.89117E+00  4294   0.727E-01    0.894E-01
RMM:   2    -0.413180560417E+03   -0.20322E-02   -0.11014E-01  4285   0.921E-02    0.657E-01
RMM:   3    -0.413176344073E+03    0.42163E-02   -0.18877E-02  4790   0.522E-02    0.997E-02
RMM:   4    -0.413199397110E+03   -0.23053E-01   -0.24104E-02  5122   0.130E-01    0.637E-01
RMM:   5    -0.413175804544E+03    0.23593E-01   -0.11549E-02  4802   0.106E-01    0.468E-02
RMM:   6    -0.413175931845E+03   -0.12730E-03   -0.20316E-03  5810   0.430E-02    0.293E-02
RMM:   7    -0.413175927832E+03    0.40136E-05   -0.26108E-04  5635   0.165E-02    0.158E-02
RMM:   8    -0.413175922303E+03    0.55289E-05   -0.54624E-05  4990   0.772E-03    0.102E-02
RMM:   9    -0.413175917557E+03    0.47460E-05   -0.10856E-05  3837   0.383E-03    0.755E-03
RMM:  10    -0.413175915945E+03    0.16120E-05   -0.17679E-06  2547   0.224E-03    0.453E-03
RMM:  11    -0.413175914267E+03    0.16777E-05   -0.16258E-06  2537   0.202E-03    0.231E-03
RMM:  12    -0.413175911894E+03    0.23737E-05   -0.13492E-06  2502   0.184E-03    0.974E-04
RMM:  13    -0.413175911003E+03    0.89085E-06   -0.45032E-07  2269   0.119E-03
   24 T=    63. E= -.41286695E+03 F= -.41317591E+03 E0= -.41315406E+03  EK= 0.30896E+00 SP= 0.00E+00 SK= 0.00E+00
       N       E                     dE             d eps       ncg     rms          rms(c)
RMM:   1    -0.413179198419E+03   -0.32865E-02   -0.89705E+00  4297   0.732E-01    0.908E-01
RMM:   2    -0.413181360295E+03   -0.21619E-02   -0.11197E-01  4284   0.940E-02    0.663E-01
RMM:   3    -0.413177279049E+03    0.40812E-02   -0.18728E-02  4764   0.521E-02    0.954E-02
RMM:   4    -0.413198961961E+03   -0.21683E-01   -0.22488E-02  5132   0.125E-01    0.617E-01
RMM:   5    -0.413176813012E+03    0.22149E-01   -0.10874E-02  4805   0.102E-01    0.465E-02
RMM:   6    -0.413176931793E+03   -0.11878E-03   -0.19334E-03  5823   0.416E-02    0.292E-02
RMM:   7    -0.413176926231E+03    0.55619E-05   -0.24659E-04  5644   0.162E-02    0.157E-02
RMM:   8    -0.413176920026E+03    0.62048E-05   -0.51922E-05  4967   0.760E-03    0.101E-02
RMM:   9    -0.413176914904E+03    0.51221E-05   -0.10324E-05  3760   0.377E-03    0.750E-03
RMM:  10    -0.413176912356E+03    0.25479E-05   -0.17195E-06  2541   0.224E-03    0.446E-03
RMM:  11    -0.413176909526E+03    0.28297E-05   -0.16645E-06  2543   0.203E-03    0.227E-03
RMM:  12    -0.413176905821E+03    0.37049E-05   -0.12530E-06  2491   0.179E-03    0.924E-04
RMM:  13    -0.413176904548E+03    0.12730E-05   -0.44007E-07  2252   0.117E-03    0.622E-04
RMM:  14    -0.413176903966E+03    0.58252E-06   -0.20727E-07  1754   0.814E-04
   25 T=    63. E= -.41286683E+03 F= -.41317690E+03 E0= -.41315511E+03  EK= 0.31008E+00 SP= 0.00E+00 SK= 0.00E+00
       N       E                     dE             d eps       ncg     rms          rms(c)
RMM:   1    -0.413179377090E+03   -0.24725E-02   -0.89480E+00  4294   0.725E-01    0.918E-01
RMM:   2    -0.413182240594E+03   -0.28635E-02   -0.11089E-01  4283   0.962E-02    0.658E-01
RMM:   3    -0.413178750137E+03    0.34905E-02   -0.18091E-02  4838   0.528E-02    0.112E-01
RMM:   4    -0.413206861229E+03   -0.28111E-01   -0.29720E-02  5128   0.143E-01    0.700E-01
RMM:   5    -0.413178124849E+03    0.28736E-01   -0.14071E-02  4796   0.116E-01    0.504E-02
RMM:   6    -0.413178280405E+03   -0.15556E-03   -0.25188E-03  5810   0.480E-02    0.353E-02
RMM:   7    -0.413178263557E+03    0.16848E-04   -0.42159E-04  5596   0.201E-02    0.218E-02
RMM:   8    -0.413178247715E+03    0.15842E-04   -0.67750E-05  5094   0.935E-03    0.110E-02
RMM:   9    -0.413178240519E+03    0.71964E-05   -0.13195E-05  3939   0.418E-03    0.794E-03
RMM:  10    -0.413178234599E+03    0.59202E-05   -0.21302E-06  2573   0.240E-03    0.474E-03
RMM:  11    -0.413178229844E+03    0.47541E-05   -0.13040E-06  2525   0.184E-03    0.261E-03
RMM:  12    -0.413178222056E+03    0.77879E-05   -0.17024E-06  2551   0.204E-03    0.112E-03
RMM:  13    -0.413178218084E+03    0.39727E-05   -0.58150E-07  2372   0.135E-03    0.795E-04
RMM:  14    -0.413178217924E+03    0.16017E-06   -0.26051E-07  1961   0.890E-04
   26 T=    63. E= -.41286682E+03 F= -.41317822E+03 E0= -.41315647E+03  EK= 0.31139E+00 SP= 0.00E+00 SK= 0.00E+00
       N       E                     dE             d eps       ncg     rms          rms(c)
RMM:   1    -0.413181670812E+03   -0.34527E-02   -0.89430E+00  4294   0.738E-01    0.898E-01
RMM:   2    -0.413184277952E+03   -0.26071E-02   -0.11259E-01  4275   0.992E-02    0.658E-01
RMM:   3    -0.413180413688E+03    0.38643E-02   -0.18535E-02  4710   0.528E-02    0.908E-02
RMM:   4    -0.413199888411E+03   -0.19475E-01   -0.20065E-02  5136   0.118E-01    0.586E-01
RMM:   5    -0.413180020292E+03    0.19868E-01   -0.98777E-03  4807   0.967E-02    0.457E-02
RMM:   6    -0.413180117086E+03   -0.96794E-04   -0.17469E-03  5831   0.391E-02    0.284E-02
RMM:   7    -0.413180111731E+03    0.53548E-05   -0.20593E-04  5548   0.150E-02    0.137E-02
RMM:   8    -0.413180107001E+03    0.47300E-05   -0.35539E-05  4779   0.634E-03    0.918E-03
RMM:   9    -0.413180103323E+03    0.36778E-05   -0.82983E-06  3474   0.330E-03    0.689E-03
RMM:  10    -0.413180101140E+03    0.21833E-05   -0.16171E-06  2530   0.218E-03    0.416E-03
RMM:  11    -0.413180098024E+03    0.31161E-05   -0.17684E-06  2557   0.207E-03    0.208E-03
RMM:  12    -0.413180094064E+03    0.39601E-05   -0.11963E-06  2477   0.178E-03    0.103E-03
RMM:  13    -0.413180092960E+03    0.11035E-05   -0.39370E-07  2253   0.113E-03    0.636E-04
RMM:  14    -0.413180092426E+03    0.53455E-06   -0.18020E-07  1693   0.777E-04
   27 T=    64. E= -.41286712E+03 F= -.41318009E+03 E0= -.41315839E+03  EK= 0.31297E+00 SP= 0.00E+00 SK= 0.00E+00
       N       E                     dE             d eps       ncg     rms          rms(c)
RMM:   1    -0.413181372786E+03   -0.12798E-02   -0.90289E+00  4291   0.723E-01    0.909E-01
RMM:   2    -0.413185532041E+03   -0.41593E-02   -0.11285E-01  4275   0.998E-02    0.668E-01
RMM:   3    -0.413181565861E+03    0.39662E-02   -0.19603E-02  4746   0.556E-02    0.989E-02
RMM:   4    -0.413204415312E+03   -0.22849E-01   -0.23755E-02  5132   0.129E-01    0.634E-01
RMM:   5    -0.413181044131E+03    0.23371E-01   -0.11539E-02  4803   0.105E-01    0.471E-02
RMM:   6    -0.413181168130E+03   -0.12400E-03   -0.20538E-03  5831   0.427E-02    0.310E-02
RMM:   7    -0.413181166745E+03    0.13851E-05   -0.29852E-04  5615   0.175E-02    0.177E-02
RMM:   8    -0.413181160073E+03    0.66725E-05   -0.57703E-05  4978   0.819E-03    0.104E-02
RMM:   9    -0.413181155002E+03    0.50706E-05   -0.10981E-05  3793   0.392E-03    0.751E-03
RMM:  10    -0.413181152916E+03    0.20862E-05   -0.18481E-06  2546   0.230E-03    0.438E-03
RMM:  11    -0.413181150905E+03    0.20109E-05   -0.14708E-06  2532   0.194E-03    0.224E-03
RMM:  12    -0.413181148019E+03    0.28858E-05   -0.14049E-06  2515   0.185E-03    0.101E-03
RMM:  13    -0.413181146721E+03    0.12987E-05   -0.47495E-07  2310   0.122E-03    0.638E-04
RMM:  14    -0.413181146230E+03    0.49096E-06   -0.21970E-07  1817   0.832E-04
   28 T=    64. E= -.41286678E+03 F= -.41318115E+03 E0= -.41315950E+03  EK= 0.31436E+00 SP= 0.00E+00 SK= 0.00E+00
       N       E                     dE             d eps       ncg     rms          rms(c)
RMM:   1    -0.413184148664E+03   -0.30019E-02   -0.90398E+00  4291   0.749E-01    0.926E-01
RMM:   2    -0.413187438065E+03   -0.32894E-02   -0.11295E-01  4274   0.102E-01    0.664E-01
RMM:   3    -0.413183393247E+03    0.40448E-02   -0.18390E-02  4616   0.502E-02    0.830E-02
RMM:   4    -0.413196464720E+03   -0.13071E-01   -0.13292E-02  5140   0.964E-02    0.482E-01
RMM:   5    -0.413183187663E+03    0.13277E-01   -0.67185E-03  4826   0.791E-02    0.445E-02
RMM:   6    -0.413183240005E+03   -0.52342E-04   -0.12507E-03  5840   0.327E-02    0.272E-02
RMM:   7    -0.413183233382E+03    0.66235E-05   -0.17213E-04  5465   0.141E-02    0.142E-02
RMM:   8    -0.413183222482E+03    0.10900E-04   -0.27117E-05  4590   0.574E-03    0.833E-03
RMM:   9    -0.413183219997E+03    0.24847E-05   -0.61823E-06  3168   0.302E-03    0.646E-03
RMM:  10    -0.413183214316E+03    0.56813E-05   -0.14365E-06  2505   0.211E-03    0.347E-03
RMM:  11    -0.413183208620E+03    0.56963E-05   -0.12295E-06  2515   0.178E-03    0.181E-03
RMM:  12    -0.413183202564E+03    0.60562E-05   -0.84150E-07  2449   0.149E-03    0.975E-04
RMM:  13    -0.413183200274E+03    0.22896E-05   -0.34390E-07  2156   0.102E-03    0.492E-04
RMM:  14    -0.413183198669E+03    0.16047E-05   -0.16527E-07  1555   0.748E-04    0.353E-04
RMM:  15    -0.413183194237E+03    0.44322E-05   -0.15580E-07  1763   0.750E-04    0.240E-04
RMM:  16    -0.413183190551E+03    0.36858E-05   -0.84186E-08  1250   0.635E-04    0.233E-04
RMM:  17    -0.413183187943E+03    0.26086E-05   -0.42003E-08   875   0.560E-04    0.154E-04
RMM:  18    -0.413183183590E+03    0.43528E-05   -0.60810E-08  1061   0.604E-04    0.446E-05
RMM:  19    -0.413183182663E+03    0.92697E-06   -0.21675E-08   787   0.552E-04
   29 T=    64. E= -.41286701E+03 F= -.41318318E+03 E0= -.41316158E+03  EK= 0.31617E+00 SP= 0.00E+00 SK= 0.00E+00
       N       E                     dE             d eps       ncg     rms          rms(c)
RMM:   1    -0.413187087236E+03   -0.39036E-02   -0.90232E+00  4289   0.781E-01    0.907E-01
RMM:   2    -0.413189727210E+03   -0.26400E-02   -0.11578E-01  4273   0.110E-01    0.662E-01
RMM:   3    -0.413185256394E+03    0.44708E-02   -0.18492E-02  4592   0.560E-02    0.814E-02
RMM:   4    -0.413198938891E+03   -0.13682E-01   -0.13871E-02  5134   0.986E-02    0.493E-01
RMM:   5    -0.413185027365E+03    0.13912E-01   -0.70351E-03  4819   0.809E-02    0.440E-02
RMM:   6    -0.413185083589E+03   -0.56225E-04   -0.12889E-03  5840   0.332E-02    0.272E-02
RMM:   7    -0.413185083792E+03   -0.20274E-06   -0.20321E-04  5480   0.149E-02    0.158E-02
RMM:   8    -0.413185070895E+03    0.12897E-04   -0.32614E-05  4736   0.639E-03    0.850E-03
RMM:   9    -0.413185069283E+03    0.16128E-05   -0.66090E-06  3206   0.317E-03    0.639E-03
RMM:  10    -0.413185065932E+03    0.33508E-05   -0.15220E-06  2503   0.213E-03    0.349E-03
RMM:  11    -0.413185062913E+03    0.30183E-05   -0.10961E-06  2503   0.170E-03    0.183E-03
RMM:  12    -0.413185059374E+03    0.35397E-05   -0.86039E-07  2457   0.148E-03    0.101E-03
RMM:  13    -0.413185057816E+03    0.15580E-05   -0.33434E-07  2149   0.102E-03    0.459E-04
RMM:  14    -0.413185056717E+03    0.10990E-05   -0.16331E-07  1554   0.744E-04    0.320E-04
RMM:  15    -0.413185054108E+03    0.26087E-05   -0.12275E-07  1505   0.703E-04    0.147E-04
RMM:  16    -0.413185051544E+03    0.25644E-05   -0.75411E-08  1147   0.631E-04    0.154E-04
RMM:  17    -0.413185049857E+03    0.16863E-05   -0.39551E-08   870   0.573E-04    0.987E-05
RMM:  18    -0.413185046343E+03    0.35144E-05   -0.55595E-08  1001   0.602E-04    0.436E-05
RMM:  19    -0.413185045644E+03    0.69940E-06   -0.18555E-08   739   0.549E-04
   30 T=    65. E= -.41286696E+03 F= -.41318505E+03 E0= -.41316350E+03  EK= 0.31808E+00 SP= 0.00E+00 SK= 0.00E+00
       N       E                     dE             d eps       ncg     rms          rms(c)
RMM:   1    -0.413186958282E+03   -0.19119E-02   -0.91284E+00  4294   0.750E-01    0.912E-01
RMM:   2    -0.413191867844E+03   -0.49096E-02   -0.11522E-01  4276   0.110E-01    0.673E-01
RMM:   3    -0.413187015666E+03    0.48522E-02   -0.20283E-02  4611   0.619E-02    0.854E-02
RMM:   4    -0.413203099441E+03   -0.16084E-01   -0.16323E-02  5134   0.107E-01    0.534E-01
RMM:   5    -0.413186676317E+03    0.16423E-01   -0.82174E-03  4814   0.876E-02    0.444E-02
RMM:   6    -0.413186749778E+03   -0.73461E-04   -0.14723E-03  5848   0.356E-02    0.274E-02
RMM:   7    -0.413186753828E+03   -0.40503E-05   -0.19437E-04  5508   0.147E-02    0.144E-02
RMM:   8    -0.413186745343E+03    0.84853E-05   -0.31439E-05  4685   0.608E-03    0.847E-03
RMM:   9    -0.413186745243E+03    0.99772E-07   -0.80894E-06  3487   0.331E-03
   31 T=    65. E= -.41286669E+03 F= -.41318675E+03 E0= -.41316525E+03  EK= 0.32006E+00 SP= 0.00E+00 SK= 0.00E+00
       N       E                     dE             d eps       ncg     rms          rms(c)
RMM:   1    -0.413202211667E+03   -0.15466E-01   -0.92779E+00  4296   0.856E-01    0.932E-01
RMM:   2    -0.413194067436E+03    0.81442E-02   -0.13171E-01  4311   0.121E-01    0.674E-01
RMM:   3    -0.413193206227E+03    0.86121E-03   -0.20034E-02  5031   0.861E-02    0.276E-01
RMM:   4    -0.413226094046E+03   -0.32888E-01   -0.48698E-02  5083   0.187E-01    0.787E-01
RMM:   5    -0.413189224281E+03    0.36870E-01   -0.15656E-02  4738   0.129E-01    0.603E-02
RMM:   6    -0.413189351801E+03   -0.12752E-03   -0.30073E-03  5714   0.528E-02    0.362E-02
RMM:   7    -0.413189353714E+03   -0.19129E-05   -0.48544E-04  5812   0.200E-02    0.237E-02
RMM:   8    -0.413189345102E+03    0.86122E-05   -0.90390E-05  5170   0.106E-02    0.107E-02
RMM:   9    -0.413189335534E+03    0.95674E-05   -0.13860E-05  3994   0.460E-03    0.538E-03
RMM:  10    -0.413189330396E+03    0.51376E-05   -0.29647E-06  2686   0.250E-03    0.356E-03
RMM:  11    -0.413189325106E+03    0.52903E-05   -0.12228E-06  2504   0.183E-03    0.187E-03
RMM:  12    -0.413189317746E+03    0.73605E-05   -0.96527E-07  2473   0.159E-03    0.663E-04
RMM:  13    -0.413189313995E+03    0.37509E-05   -0.48787E-07  2302   0.116E-03    0.402E-04
RMM:  14    -0.413189311883E+03    0.21116E-05   -0.25893E-07  1870   0.868E-04    0.310E-04
RMM:  15    -0.413189307276E+03    0.46068E-05   -0.16967E-07  1478   0.749E-04    0.165E-04
RMM:  16    -0.413189302657E+03    0.46192E-05   -0.12223E-07  1309   0.685E-04    0.191E-04
RMM:  17    -0.413189298559E+03    0.40982E-05   -0.91155E-08  1162   0.640E-04    0.123E-04
RMM:  18    -0.413189295861E+03    0.26983E-05   -0.63779E-08  1064   0.610E-04    0.543E-05
RMM:  19    -0.413189293036E+03    0.28248E-05   -0.54697E-08  1106   0.602E-04    0.329E-05
RMM:  20    -0.413189292685E+03    0.35056E-06   -0.25006E-08   792   0.543E-04
   32 T=    66. E= -.41286691E+03 F= -.41318929E+03 E0= -.41316784E+03  EK= 0.32238E+00 SP= 0.00E+00 SK= 0.00E+00
       N       E                     dE             d eps       ncg     rms          rms(c)
RMM:   1    -0.413203382643E+03   -0.14090E-01   -0.92467E+00  4298   0.865E-01    0.920E-01
RMM:   2    -0.413195696328E+03    0.76863E-02   -0.13056E-01  4282   0.122E-01    0.669E-01
RMM:   3    -0.413191260832E+03    0.44355E-02   -0.17628E-02  4367   0.636E-02    0.798E-02
RMM:   4    -0.413194957491E+03   -0.36967E-02   -0.40371E-03  5165   0.533E-02    0.259E-01
RMM:   5    -0.413191255055E+03    0.37024E-02   -0.19540E-03  4829   0.430E-02    0.421E-02
RMM:   6    -0.413191286302E+03   -0.31247E-04   -0.64702E-04  5630   0.242E-02    0.312E-02
RMM:   7    -0.413191249381E+03    0.36921E-04   -0.24662E-04  5120   0.163E-02    0.179E-02
RMM:   8    -0.413191239641E+03    0.97402E-05   -0.24959E-05  4538   0.583E-03    0.701E-03
RMM:   9    -0.413191237748E+03    0.18925E-05   -0.28807E-06  2634   0.229E-03    0.439E-03
RMM:  10    -0.413191233643E+03    0.41057E-05   -0.10633E-06  2485   0.170E-03    0.239E-03
RMM:  11    -0.413191229583E+03    0.40602E-05   -0.73681E-07  2409   0.135E-03    0.102E-03
RMM:  12    -0.413191225979E+03    0.36035E-05   -0.39013E-07  2157   0.102E-03    0.450E-04
RMM:  13    -0.413191223099E+03    0.28800E-05   -0.21363E-07  1661   0.802E-04    0.260E-04
RMM:  14    -0.413191220161E+03    0.29377E-05   -0.10905E-07  1166   0.672E-04    0.181E-04
RMM:  15    -0.413191216126E+03    0.40353E-05   -0.85564E-08  1107   0.647E-04    0.830E-05
RMM:  16    -0.413191213408E+03    0.27183E-05   -0.57855E-08  1023   0.615E-04    0.773E-05
RMM:  17    -0.413191210455E+03    0.29528E-05   -0.51897E-08  1067   0.603E-04    0.459E-05
RMM:  18    -0.413191208243E+03    0.22124E-05   -0.36602E-08   933   0.568E-04    0.320E-05
RMM:  19    -0.413191207684E+03    0.55810E-06   -0.13853E-08   674   0.523E-04
   33 T=    66. E= -.41286667E+03 F= -.41319121E+03 E0= -.41316981E+03  EK= 0.32453E+00 SP= 0.00E+00 SK= 0.00E+00
       N       E                     dE             d eps       ncg     rms          rms(c)
RMM:   1    -0.413194193755E+03   -0.29855E-02   -0.92448E+00  4301   0.795E-01    0.918E-01
RMM:   2    -0.413198283211E+03   -0.40895E-02   -0.11908E-01  4278   0.122E-01    0.679E-01
RMM:   3    -0.413193680657E+03    0.46026E-02   -0.20643E-02  4371   0.710E-02    0.640E-02
RMM:   4    -0.413197745195E+03   -0.40645E-02   -0.41947E-03  5152   0.551E-02    0.273E-01
RMM:   5    -0.413193592501E+03    0.41527E-02   -0.21568E-03  4831   0.451E-02    0.411E-02
RMM:   6    -0.413193632775E+03   -0.40275E-04   -0.68522E-04  5658   0.243E-02    0.298E-02
RMM:   7    -0.413193609566E+03    0.23209E-04   -0.24318E-04  5151   0.162E-02    0.186E-02
RMM:   8    -0.413193598779E+03    0.10787E-04   -0.22740E-05  4330   0.567E-03    0.728E-03
RMM:   9    -0.413193597745E+03    0.10341E-05   -0.27887E-06  2637   0.227E-03    0.468E-03
RMM:  10    -0.413193596092E+03    0.16525E-05   -0.12538E-06  2478   0.182E-03    0.244E-03
RMM:  11    -0.413193594654E+03    0.14385E-05   -0.79231E-07  2423   0.141E-03    0.113E-03
RMM:  12    -0.413193592882E+03    0.17721E-05   -0.44777E-07  2188   0.109E-03    0.483E-04
RMM:  13    -0.413193591426E+03    0.14557E-05   -0.23878E-07  1769   0.830E-04    0.279E-04
RMM:  14    -0.413193589553E+03    0.18729E-05   -0.12171E-07  1206   0.681E-04    0.208E-04
RMM:  15    -0.413193586833E+03    0.27203E-05   -0.93396E-08  1110   0.648E-04    0.879E-05
RMM:  16    -0.413193585115E+03    0.17176E-05   -0.55303E-08   931   0.607E-04    0.694E-05
RMM:  17    -0.413193582325E+03    0.27905E-05   -0.58356E-08  1056   0.613E-04    0.458E-05
RMM:  18    -0.413193580907E+03    0.14175E-05   -0.28322E-08   819   0.563E-04    0.348E-05
RMM:  19    -0.413193580175E+03    0.73188E-06   -0.13964E-08   658   0.537E-04
   34 T=    67. E= -.41286678E+03 F= -.41319358E+03 E0= -.41317223E+03  EK= 0.32680E+00 SP= 0.00E+00 SK= 0.00E+00
       N       E                     dE             d eps       ncg     rms          rms(c)
RMM:   1    -0.413205521142E+03   -0.11940E-01   -0.93730E+00  4302   0.882E-01    0.936E-01
RMM:   2    -0.413200588420E+03    0.49327E-02   -0.13486E-01  4272   0.130E-01    0.682E-01
RMM:   3    -0.413196300285E+03    0.42881E-02   -0.18111E-02  4291   0.703E-02    0.781E-02
RMM:   4    -0.413197393782E+03   -0.10935E-02   -0.15218E-03  5184   0.318E-02    0.143E-01
RMM:   5    -0.413196338955E+03    0.10548E-02   -0.62639E-04  4811   0.249E-02    0.424E-02
RMM:   6    -0.413196368995E+03   -0.30039E-04   -0.49308E-04  5434   0.218E-02    0.323E-02
RMM:   7    -0.413196321972E+03    0.47023E-04   -0.21655E-04  4900   0.157E-02    0.185E-02
RMM:   8    -0.413196315395E+03    0.65775E-05   -0.29789E-05  4681   0.572E-03    0.671E-03
RMM:   9    -0.413196314053E+03    0.13420E-05   -0.36089E-06  2551   0.226E-03    0.313E-03
RMM:  10    -0.413196309616E+03    0.44367E-05   -0.92461E-07  2382   0.160E-03    0.166E-03
RMM:  11    -0.413196305803E+03    0.38127E-05   -0.46857E-07  2194   0.107E-03    0.664E-04
RMM:  12    -0.413196301869E+03    0.39342E-05   -0.25606E-07  1670   0.846E-04    0.255E-04
RMM:  13    -0.413196298107E+03    0.37625E-05   -0.14297E-07  1250   0.718E-04    0.229E-04
RMM:  14    -0.413196295077E+03    0.30292E-05   -0.76706E-08   892   0.636E-04    0.158E-04
RMM:  15    -0.413196289541E+03    0.55361E-05   -0.93589E-08  1090   0.658E-04    0.845E-05
RMM:  16    -0.413196286296E+03    0.32453E-05   -0.55332E-08   922   0.602E-04    0.939E-05
RMM:  17    -0.413196284372E+03    0.19235E-05   -0.27620E-08   700   0.550E-04    0.400E-05
RMM:  18    -0.413196283415E+03    0.95717E-06   -0.15602E-08   574   0.530E-04
   35 T=    67. E= -.41286707E+03 F= -.41319628E+03 E0= -.41317498E+03  EK= 0.32921E+00 SP= 0.00E+00 SK= 0.00E+00
       N       E                     dE             d eps       ncg     rms          rms(c)
RMM:   1    -0.413202247990E+03   -0.59636E-02   -0.93076E+00  4301   0.884E-01    0.936E-01
RMM:   2    -0.413202581958E+03   -0.33397E-03   -0.12365E-01  4263   0.133E-01    0.676E-01
RMM:   3    -0.413198527749E+03    0.40542E-02   -0.19148E-02  4379   0.727E-02    0.743E-02
RMM:   4    -0.413203275250E+03   -0.47475E-02   -0.49286E-03  5166   0.596E-02    0.294E-01
RMM:   5    -0.413198503041E+03    0.47722E-02   -0.25222E-03  4826   0.491E-02    0.433E-02
RMM:   6    -0.413198529116E+03   -0.26074E-04   -0.73309E-04  5623   0.268E-02    0.324E-02
RMM:   7    -0.413198501290E+03    0.27826E-04   -0.27831E-04  5141   0.173E-02    0.189E-02
RMM:   8    -0.413198489703E+03    0.11586E-04   -0.29519E-05  4831   0.635E-03    0.819E-03
RMM:   9    -0.413198487426E+03    0.22776E-05   -0.42169E-06  2756   0.250E-03    0.455E-03
RMM:  10    -0.413198482403E+03    0.50226E-05   -0.13059E-06  2493   0.190E-03    0.246E-03
RMM:  11    -0.413198477487E+03    0.49164E-05   -0.79205E-07  2440   0.143E-03    0.110E-03
RMM:  12    -0.413198472961E+03    0.45257E-05   -0.42784E-07  2208   0.108E-03    0.505E-04
RMM:  13    -0.413198469279E+03    0.36826E-05   -0.23069E-07  1749   0.832E-04    0.276E-04
RMM:  14    -0.413198465916E+03    0.33624E-05   -0.11495E-07  1226   0.680E-04    0.195E-04
RMM:  15    -0.413198461290E+03    0.46261E-05   -0.74945E-08  1031   0.638E-04    0.989E-05
RMM:  16    -0.413198457780E+03    0.35103E-05   -0.58406E-08  1030   0.620E-04    0.696E-05
RMM:  17    -0.413198455051E+03    0.27288E-05   -0.43198E-08   992   0.594E-04    0.488E-05
RMM:  18    -0.413198451468E+03    0.35834E-05   -0.43379E-08  1057   0.595E-04    0.330E-05
RMM:  19    -0.413198450864E+03    0.60330E-06   -0.13680E-08   669   0.524E-04
   36 T=    67. E= -.41286693E+03 F= -.41319845E+03 E0= -.41317719E+03  EK= 0.33152E+00 SP= 0.00E+00 SK= 0.00E+00
       N       E                     dE             d eps       ncg     rms          rms(c)
RMM:   1    -0.413205244996E+03   -0.67935E-02   -0.93831E+00  4306   0.887E-01    0.925E-01
RMM:   2    -0.413206315750E+03   -0.10708E-02   -0.12350E-01  4263   0.129E-01    0.683E-01
RMM:   3    -0.413201532608E+03    0.47831E-02   -0.20575E-02  4488   0.698E-02    0.743E-02
RMM:   4    -0.413211706763E+03   -0.10174E-01   -0.10293E-02  5157   0.856E-02    0.428E-01
RMM:   5    -0.413201376487E+03    0.10330E-01   -0.52600E-03  4828   0.709E-02    0.443E-02
RMM:   6    -0.413201393219E+03   -0.16732E-04   -0.11331E-03  5732   0.322E-02    0.312E-02
RMM:   7    -0.413201393324E+03   -0.10510E-06   -0.32243E-04  5318   0.179E-02    0.202E-02
RMM:   8    -0.413201377787E+03    0.15538E-04   -0.35627E-05  4901   0.715E-03    0.922E-03
RMM:   9    -0.413201376754E+03    0.10322E-05   -0.58912E-06  2978   0.299E-03    0.564E-03
RMM:  10    -0.413201374841E+03    0.19129E-05   -0.17375E-06  2545   0.220E-03    0.297E-03
RMM:  11    -0.413201372569E+03    0.22723E-05   -0.11320E-06  2489   0.173E-03    0.149E-03
RMM:  12    -0.413201370002E+03    0.25671E-05   -0.67738E-07  2404   0.135E-03    0.756E-04
RMM:  13    -0.413201368341E+03    0.16609E-05   -0.33219E-07  2014   0.965E-04    0.366E-04
RMM:  14    -0.413201366635E+03    0.17062E-05   -0.17216E-07  1526   0.746E-04    0.228E-04
RMM:  15    -0.413201363830E+03    0.28049E-05   -0.10461E-07  1201   0.670E-04    0.123E-04
RMM:  16    -0.413201361385E+03    0.24448E-05   -0.71515E-08  1047   0.632E-04    0.825E-05
RMM:  17    -0.413201359632E+03    0.17535E-05   -0.41269E-08   883   0.594E-04    0.514E-05
RMM:  18    -0.413201356207E+03    0.34249E-05   -0.55103E-08  1115   0.618E-04    0.312E-05
RMM:  19    -0.413201355340E+03    0.86682E-06   -0.20305E-08   754   0.549E-04
   37 T=    68. E= -.41286722E+03 F= -.41320136E+03 E0= -.41318013E+03  EK= 0.33413E+00 SP= 0.00E+00 SK= 0.00E+00
       N       E                     dE             d eps       ncg     rms          rms(c)
RMM:   1    -0.413211100201E+03   -0.97440E-02   -0.94986E+00  4310   0.940E-01    0.943E-01
RMM:   2    -0.413209090992E+03    0.20092E-02   -0.12809E-01  4260   0.127E-01    0.690E-01
RMM:   3    -0.413204419458E+03    0.46715E-02   -0.20123E-02  4731   0.657E-02    0.107E-01
RMM:   4    -0.413232165489E+03   -0.27746E-01   -0.28690E-02  5136   0.142E-01    0.697E-01
RMM:   5    -0.413203942652E+03    0.28223E-01   -0.14151E-02  4806   0.116E-01    0.507E-02
RMM:   6    -0.413203986682E+03   -0.44030E-04   -0.23705E-03  5830   0.463E-02    0.328E-02
RMM:   7    -0.413203997002E+03   -0.10320E-04   -0.35031E-04  5616   0.182E-02    0.188E-02
RMM:   8    -0.413203985354E+03    0.11648E-04   -0.60317E-05  5027   0.831E-03    0.105E-02
RMM:   9    -0.413203983921E+03    0.14338E-05   -0.16121E-05  4299   0.462E-03    0.746E-03
RMM:  10    -0.413203979668E+03    0.42529E-05   -0.23409E-06  2632   0.254E-03    0.413E-03
RMM:  11    -0.413203977216E+03    0.24516E-05   -0.11537E-06  2502   0.175E-03    0.252E-03
RMM:  12    -0.413203971339E+03    0.58768E-05   -0.16980E-06  2534   0.207E-03    0.133E-03
RMM:  13    -0.413203968376E+03    0.29632E-05   -0.61805E-07  2375   0.138E-03    0.807E-04
RMM:  14    -0.413203967789E+03    0.58668E-06   -0.25422E-07  1989   0.895E-04
   38 T=    69. E= -.41286719E+03 F= -.41320397E+03 E0= -.41318279E+03  EK= 0.33678E+00 SP= 0.00E+00 SK= 0.00E+00
       N       E                     dE             d eps       ncg     rms          rms(c)
RMM:   1    -0.413219293358E+03   -0.15325E-01   -0.95627E+00  4309   0.103E+00    0.954E-01
RMM:   2    -0.413211588666E+03    0.77047E-02   -0.12983E-01  4263   0.126E-01    0.686E-01
RMM:   3    -0.413207133110E+03    0.44556E-02   -0.19524E-02  4859   0.618E-02    0.128E-01
RMM:   4    -0.413241994494E+03   -0.34861E-01   -0.36940E-02  5132   0.161E-01    0.779E-01
RMM:   5    -0.413206446627E+03    0.35548E-01   -0.17632E-02  4795   0.130E-01    0.543E-02
RMM:   6    -0.413206522620E+03   -0.75993E-04   -0.29925E-03  5818   0.516E-02    0.353E-02
RMM:   7    -0.413206527191E+03   -0.45705E-05   -0.40471E-04  5641   0.192E-02    0.193E-02
RMM:   8    -0.413206515532E+03    0.11659E-04   -0.61027E-05  5018   0.819E-03    0.108E-02
RMM:   9    -0.413206513129E+03    0.24029E-05   -0.20696E-05  4530   0.489E-03    0.812E-03
RMM:  10    -0.413206505362E+03    0.77669E-05   -0.28929E-06  2671   0.275E-03    0.449E-03
RMM:  11    -0.413206501240E+03    0.41219E-05   -0.13542E-06  2498   0.191E-03    0.277E-03
RMM:  12    -0.413206491015E+03    0.10226E-04   -0.19176E-06  2546   0.222E-03    0.138E-03
RMM:  13    -0.413206486243E+03    0.47721E-05   -0.70733E-07  2419   0.149E-03    0.884E-04
RMM:  14    -0.413206485533E+03    0.70978E-06   -0.28053E-07  2092   0.952E-04
   39 T=    69. E= -.41286701E+03 F= -.41320649E+03 E0= -.41318534E+03  EK= 0.33948E+00 SP= 0.00E+00 SK= 0.00E+00
       N       E                     dE             d eps       ncg     rms          rms(c)
RMM:   1    -0.413219636191E+03   -0.13150E-01   -0.95685E+00  4310   0.103E+00    0.935E-01
RMM:   2    -0.413215162980E+03    0.44732E-02   -0.13298E-01  4262   0.127E-01    0.689E-01
RMM:   3    -0.413210631397E+03    0.45316E-02   -0.20225E-02  4907   0.666E-02    0.147E-01
RMM:   4    -0.413252085304E+03   -0.41454E-01   -0.45529E-02  5132   0.178E-01    0.848E-01
RMM:   5    -0.413209530590E+03    0.42555E-01   -0.20734E-02  4793   0.141E-01    0.563E-02
RMM:   6    -0.413209642593E+03   -0.11200E-03   -0.35150E-03  5821   0.556E-02    0.355E-02
RMM:   7    -0.413209652635E+03   -0.10043E-04   -0.42459E-04  5666   0.194E-02    0.187E-02
RMM:   8    -0.413209646872E+03    0.57633E-05   -0.51931E-05  4808   0.723E-03    0.967E-03
RMM:   9    -0.413209642287E+03    0.45851E-05   -0.12188E-05  3673   0.377E-03    0.605E-03
RMM:  10    -0.413209640570E+03    0.17170E-05   -0.33013E-06  2737   0.247E-03    0.427E-03
RMM:  11    -0.413209636623E+03    0.39471E-05   -0.13661E-06  2491   0.201E-03    0.246E-03
RMM:  12    -0.413209629271E+03    0.73523E-05   -0.16706E-06  2518   0.205E-03    0.108E-03
RMM:  13    -0.413209626836E+03    0.24344E-05   -0.55394E-07  2407   0.134E-03    0.777E-04
RMM:  14    -0.413209626404E+03    0.43265E-06   -0.24357E-07  1997   0.881E-04
   40 T=    70. E= -.41286727E+03 F= -.41320963E+03 E0= -.41318852E+03  EK= 0.34236E+00 SP= 0.00E+00 SK= 0.00E+00
       N       E                     dE             d eps       ncg     rms          rms(c)
RMM:   1    -0.413216763352E+03   -0.71365E-02   -0.96360E+00  4309   0.103E+00    0.949E-01
RMM:   2    -0.413217483928E+03   -0.72058E-03   -0.13241E-01  4266   0.133E-01    0.699E-01
RMM:   3    -0.413213331698E+03    0.41522E-02   -0.21594E-02  4959   0.709E-02    0.174E-01
RMM:   4    -0.413258440414E+03   -0.45109E-01   -0.51881E-02  5127   0.190E-01    0.886E-01
RMM:   5    -0.413211688263E+03    0.46752E-01   -0.22305E-02  4791   0.147E-01    0.585E-02
RMM:   6    -0.413211818029E+03   -0.12977E-03   -0.37985E-03  5813   0.578E-02    0.360E-02
RMM:   7    -0.413211829974E+03   -0.11945E-04   -0.46528E-04  5715   0.200E-02    0.198E-02
RMM:   8    -0.413211830171E+03   -0.19767E-06   -0.83679E-05  5162   0.905E-03    0.121E-02
RMM:   9    -0.413211822139E+03    0.80325E-05   -0.23854E-05  4584   0.528E-03    0.759E-03
RMM:  10    -0.413211818794E+03    0.33448E-05   -0.41105E-06  2804   0.297E-03    0.449E-03
RMM:  11    -0.413211816088E+03    0.27060E-05   -0.15168E-06  2502   0.205E-03    0.274E-03
RMM:  12    -0.413211809628E+03    0.64598E-05   -0.16646E-06  2523   0.210E-03    0.111E-03
RMM:  13    -0.413211805436E+03    0.41918E-05   -0.71479E-07  2434   0.146E-03    0.797E-04
RMM:  14    -0.413211804854E+03    0.58222E-06   -0.29791E-07  2112   0.963E-04
   41 T=    70. E= -.41286687E+03 F= -.41321180E+03 E0= -.41319073E+03  EK= 0.34493E+00 SP= 0.00E+00 SK= 0.00E+00
       N       E                     dE             d eps       ncg     rms          rms(c)
RMM:   1    -0.413235041036E+03   -0.23236E-01   -0.97972E+00  4312   0.118E+00    0.967E-01
RMM:   2    -0.413219627960E+03    0.15413E-01   -0.14687E-01  4295   0.136E-01    0.697E-01
RMM:   3    -0.413217078896E+03    0.25491E-02   -0.20205E-02  5046   0.747E-02    0.237E-01
RMM:   4    -0.413262109226E+03   -0.45030E-01   -0.57427E-02  5107   0.201E-01    0.895E-01
RMM:   5    -0.413214355019E+03    0.47754E-01   -0.21903E-02  4764   0.149E-01    0.625E-02
RMM:   6    -0.413214475072E+03   -0.12005E-03   -0.38625E-03  5786   0.585E-02    0.384E-02
RMM:   7    -0.413214482579E+03   -0.75065E-05   -0.52273E-04  5735   0.213E-02    0.236E-02
RMM:   8    -0.413214479484E+03    0.30947E-05   -0.13320E-04  5246   0.117E-02    0.145E-02
RMM:   9    -0.413214464548E+03    0.14936E-04   -0.23405E-05  4550   0.595E-03    0.668E-03
RMM:  10    -0.413214458716E+03    0.58324E-05   -0.53099E-06  3010   0.300E-03    0.411E-03
RMM:  11    -0.413214454077E+03    0.46384E-05   -0.13320E-06  2502   0.198E-03    0.239E-03
RMM:  12    -0.413214444815E+03    0.92624E-05   -0.11977E-06  2486   0.185E-03    0.951E-04
RMM:  13    -0.413214438768E+03    0.60467E-05   -0.56712E-07  2383   0.131E-03    0.569E-04
RMM:  14    -0.413214437547E+03    0.12212E-05   -0.27285E-07  2022   0.918E-04    0.391E-04
RMM:  15    -0.413214434920E+03    0.26264E-05   -0.14065E-07  1488   0.722E-04    0.232E-04
RMM:  16    -0.413214427253E+03    0.76677E-05   -0.13071E-07  1534   0.730E-04    0.279E-04
RMM:  17    -0.413214425313E+03    0.19397E-05   -0.55736E-08   987   0.595E-04    0.178E-04
RMM:  18    -0.413214419584E+03    0.57292E-05   -0.71432E-08  1323   0.642E-04    0.143E-04
RMM:  19    -0.413214417614E+03    0.19703E-05   -0.34967E-08   963   0.562E-04    0.626E-05
RMM:  20    -0.413214416111E+03    0.15029E-05   -0.28483E-08   938   0.559E-04    0.499E-05
RMM:  21    -0.413214415898E+03    0.21224E-06   -0.13544E-08   717   0.522E-04
   42 T=    71. E= -.41286694E+03 F= -.41321442E+03 E0= -.41319338E+03  EK= 0.34748E+00 SP= 0.00E+00 SK= 0.00E+00
       N       E                     dE             d eps       ncg     rms          rms(c)
RMM:   1    -0.413234674851E+03   -0.20259E-01   -0.97471E+00  4312   0.121E+00    0.946E-01
RMM:   2    -0.413221929171E+03    0.12746E-01   -0.14817E-01  4315   0.143E-01    0.696E-01
RMM:   3    -0.413220864127E+03    0.10650E-02   -0.21585E-02  5060   0.851E-02    0.290E-01
RMM:   4    -0.413258887964E+03   -0.38024E-01   -0.56204E-02  5096   0.200E-01    0.844E-01
RMM:   5    -0.413216539471E+03    0.42348E-01   -0.18308E-02  4744   0.139E-01    0.620E-02
RMM:   6    -0.413216624625E+03   -0.85154E-04   -0.33722E-03  5762   0.548E-02    0.373E-02
RMM:   7    -0.413216628476E+03   -0.38516E-05   -0.50411E-04  5716   0.209E-02    0.242E-02
RMM:   8    -0.413216624765E+03    0.37115E-05   -0.12682E-04  5200   0.118E-02    0.132E-02
RMM:   9    -0.413216613652E+03    0.11113E-04   -0.19245E-05  4383   0.562E-03    0.569E-03
RMM:  10    -0.413216610333E+03    0.33192E-05   -0.43730E-06  2859   0.273E-03    0.357E-03
RMM:  11    -0.413216607308E+03    0.30248E-05   -0.12670E-06  2498   0.189E-03    0.197E-03
RMM:  12    -0.413216601860E+03    0.54478E-05   -0.98510E-07  2475   0.165E-03    0.779E-04
RMM:  13    -0.413216598330E+03    0.35298E-05   -0.47487E-07  2297   0.119E-03    0.405E-04
RMM:  14    -0.413216596976E+03    0.13547E-05   -0.24218E-07  1879   0.862E-04    0.287E-04
RMM:  15    -0.413216594159E+03    0.28171E-05   -0.13900E-07  1426   0.715E-04    0.136E-04
RMM:  16    -0.413216590511E+03    0.36480E-05   -0.95343E-08  1177   0.663E-04    0.121E-04
RMM:  17    -0.413216588171E+03    0.23396E-05   -0.60713E-08  1025   0.624E-04    0.787E-05
RMM:  18    -0.413216585394E+03    0.27769E-05   -0.53076E-08  1088   0.623E-04    0.497E-05
RMM:  19    -0.413216582920E+03    0.24740E-05   -0.45373E-08  1140   0.610E-04    0.311E-05
RMM:  20    -0.413216582291E+03    0.62897E-06   -0.20642E-08   798   0.548E-04
   43 T=    71. E= -.41286697E+03 F= -.41321658E+03 E0= -.41319557E+03  EK= 0.34962E+00 SP= 0.00E+00 SK= 0.00E+00
       N       E                     dE             d eps       ncg     rms          rms(c)
RMM:   1    -0.413235457415E+03   -0.18874E-01   -0.98488E+00  4314   0.126E+00    0.948E-01
RMM:   2    -0.413223656351E+03    0.11801E-01   -0.15771E-01  4326   0.154E-01    0.710E-01
RMM:   3    -0.413223154936E+03    0.50141E-03   -0.22430E-02  5062   0.914E-02    0.321E-01
RMM:   4    -0.413260590593E+03   -0.37436E-01   -0.58906E-02  5098   0.206E-01    0.847E-01
RMM:   5    -0.413217827637E+03    0.42763E-01   -0.18098E-02  4726   0.140E-01    0.630E-02
RMM:   6    -0.413217898092E+03   -0.70454E-04   -0.33248E-03  5742   0.547E-02    0.364E-02
RMM:   7    -0.413217899056E+03   -0.96443E-06   -0.49854E-04  5753   0.207E-02    0.242E-02
RMM:   8    -0.413217896376E+03    0.26800E-05   -0.12790E-04  5194   0.118E-02    0.128E-02
RMM:   9    -0.413217886633E+03    0.97429E-05   -0.19534E-05  4413   0.568E-03    0.522E-03
RMM:  10    -0.413217884669E+03    0.19641E-05   -0.44216E-06  2856   0.270E-03    0.329E-03
RMM:  11    -0.413217882425E+03    0.22437E-05   -0.12981E-06  2496   0.188E-03    0.177E-03
RMM:  12    -0.413217878687E+03    0.37386E-05   -0.90454E-07  2470   0.155E-03    0.717E-04
RMM:  13    -0.413217876058E+03    0.26292E-05   -0.44353E-07  2207   0.112E-03    0.344E-04
RMM:  14    -0.413217874468E+03    0.15894E-05   -0.23122E-07  1752   0.835E-04    0.223E-04
RMM:  15    -0.413217871107E+03    0.33609E-05   -0.16028E-07  1391   0.735E-04    0.129E-04
RMM:  16    -0.413217868960E+03    0.21472E-05   -0.94461E-08  1151   0.662E-04    0.948E-05
RMM:  17    -0.413217866895E+03    0.20654E-05   -0.72304E-08  1132   0.639E-04    0.612E-05
RMM:  18    -0.413217864274E+03    0.26209E-05   -0.64294E-08  1222   0.635E-04    0.372E-05
RMM:  19    -0.413217862505E+03    0.17690E-05   -0.38732E-08   994   0.580E-04    0.266E-05
RMM:  20    -0.413217861787E+03    0.71773E-06   -0.21705E-08   809   0.547E-04
   44 T=    71. E= -.41286671E+03 F= -.41321786E+03 E0= -.41319687E+03  EK= 0.35115E+00 SP= 0.00E+00 SK= 0.00E+00
       N       E                     dE             d eps       ncg     rms          rms(c)
RMM:   1    -0.413247430732E+03   -0.29568E-01   -0.99170E+00  4312   0.138E+00    0.973E-01
RMM:   2    -0.413224608586E+03    0.22822E-01   -0.15836E-01  4332   0.162E-01    0.706E-01
RMM:   3    -0.413227267369E+03   -0.26588E-02   -0.24091E-02  5088   0.103E-01    0.393E-01
RMM:   4    -0.413250178737E+03   -0.22911E-01   -0.50601E-02  5059   0.193E-01    0.724E-01
RMM:   5    -0.413219364615E+03    0.30814E-01   -0.11954E-02  4688   0.120E-01    0.615E-02
RMM:   6    -0.413219369636E+03   -0.50210E-05   -0.23964E-03  5659   0.469E-02    0.364E-02
RMM:   7    -0.413219367474E+03    0.21625E-05   -0.41528E-04  5644   0.196E-02    0.239E-02
RMM:   8    -0.413219359948E+03    0.75260E-05   -0.12145E-04  5106   0.119E-02    0.116E-02
RMM:   9    -0.413219347802E+03    0.12146E-04   -0.15815E-05  4281   0.551E-03    0.476E-03
RMM:  10    -0.413219343821E+03    0.39804E-05   -0.34366E-06  2770   0.247E-03    0.287E-03
RMM:  11    -0.413219338853E+03    0.49686E-05   -0.11858E-06  2489   0.181E-03    0.154E-03
RMM:  12    -0.413219332502E+03    0.63506E-05   -0.71003E-07  2429   0.142E-03    0.667E-04
RMM:  13    -0.413219328683E+03    0.38190E-05   -0.34719E-07  2046   0.101E-03    0.309E-04
RMM:  14    -0.413219325737E+03    0.29464E-05   -0.19305E-07  1597   0.784E-04    0.191E-04
RMM:  15    -0.413219320219E+03    0.55180E-05   -0.13834E-07  1330   0.720E-04    0.133E-04
RMM:  16    -0.413219317557E+03    0.26612E-05   -0.85776E-08  1159   0.657E-04    0.929E-05
RMM:  17    -0.413219313293E+03    0.42643E-05   -0.80748E-08  1306   0.656E-04    0.554E-05
RMM:  18    -0.413219310668E+03    0.26252E-05   -0.49498E-08  1053   0.595E-04    0.409E-05
RMM:  19    -0.413219308597E+03    0.20705E-05   -0.38486E-08  1011   0.576E-04    0.217E-05
RMM:  20    -0.413219308218E+03    0.37906E-06   -0.19569E-08   765   0.535E-04
   45 T=    72. E= -.41286703E+03 F= -.41321931E+03 E0= -.41319834E+03  EK= 0.35227E+00 SP= 0.00E+00 SK= 0.00E+00
       N       E                     dE             d eps       ncg     rms          rms(c)
RMM:   1    -0.413243111405E+03   -0.23803E-01   -0.97740E+00  4312   0.144E+00    0.955E-01
RMM:   2    -0.413224540794E+03    0.18571E-01   -0.15230E-01  4346   0.171E-01    0.700E-01
RMM:   3    -0.413230063105E+03   -0.55223E-02   -0.26879E-02  5103   0.117E-01    0.452E-01
RMM:   4    -0.413243334777E+03   -0.13272E-01   -0.46945E-02  5042   0.188E-01    0.642E-01
RMM:   5    -0.413219182227E+03    0.24153E-01   -0.84889E-03  4640   0.107E-01    0.591E-02
RMM:   6    -0.413219156632E+03    0.25595E-04   -0.18625E-03  5566   0.414E-02    0.340E-02
RMM:   7    -0.413219152805E+03    0.38266E-05   -0.34413E-04  5563   0.182E-02    0.226E-02
RMM:   8    -0.413219142430E+03    0.10375E-04   -0.12223E-04  5078   0.118E-02    0.107E-02
RMM:   9    -0.413219131355E+03    0.11076E-04   -0.14017E-05  4156   0.531E-03    0.444E-03
RMM:  10    -0.413219128012E+03    0.33427E-05   -0.28541E-06  2698   0.231E-03    0.259E-03
RMM:  11    -0.413219123311E+03    0.47012E-05   -0.11319E-06  2486   0.175E-03    0.136E-03
RMM:  12    -0.413219117947E+03    0.53633E-05   -0.64725E-07  2400   0.135E-03    0.653E-04
RMM:  13    -0.413219114523E+03    0.34246E-05   -0.31328E-07  1913   0.955E-04    0.300E-04
RMM:  14    -0.413219111431E+03    0.30921E-05   -0.17805E-07  1453   0.754E-04    0.171E-04
RMM:  15    -0.413219106571E+03    0.48598E-05   -0.13559E-07  1303   0.715E-04    0.123E-04
RMM:  16    -0.413219103963E+03    0.26075E-05   -0.86153E-08  1144   0.653E-04    0.861E-05
RMM:  17    -0.413219099116E+03    0.48478E-05   -0.90654E-08  1401   0.669E-04    0.607E-05
RMM:  18    -0.413219097174E+03    0.19413E-05   -0.46893E-08  1003   0.570E-04    0.357E-05
RMM:  19    -0.413219095604E+03    0.15704E-05   -0.33247E-08   906   0.548E-04    0.206E-05
RMM:  20    -0.413219095242E+03    0.36189E-06   -0.19805E-08   744   0.521E-04
   46 T=    72. E= -.41286686E+03 F= -.41321910E+03 E0= -.41319815E+03  EK= 0.35224E+00 SP= 0.00E+00 SK= 0.00E+00
       N       E                     dE             d eps       ncg     rms          rms(c)
RMM:   1    -0.413232712907E+03   -0.13617E-01   -0.97004E+00  4312   0.145E+00    0.947E-01
RMM:   2    -0.413223889095E+03    0.88238E-02   -0.14958E-01  4366   0.177E-01    0.709E-01
RMM:   3    -0.413231865473E+03   -0.79764E-02   -0.30555E-02  5093   0.129E-01    0.500E-01
RMM:   4    -0.413240367759E+03   -0.85023E-02   -0.47947E-02  5035   0.192E-01    0.614E-01
RMM:   5    -0.413218176991E+03    0.22191E-01   -0.73685E-03  4612   0.103E-01    0.582E-02
RMM:   6    -0.413218128370E+03    0.48621E-04   -0.15988E-03  5458   0.389E-02    0.316E-02
RMM:   7    -0.413218129719E+03   -0.13486E-05   -0.29754E-04  5562   0.171E-02    0.214E-02
RMM:   8    -0.413218122251E+03    0.74673E-05   -0.12496E-04  5070   0.119E-02    0.102E-02
RMM:   9    -0.413218112191E+03    0.10061E-04   -0.13217E-05  4078   0.523E-03    0.426E-03
RMM:  10    -0.413218110074E+03    0.21162E-05   -0.28492E-06  2709   0.227E-03    0.245E-03
RMM:  11    -0.413218106754E+03    0.33203E-05   -0.11664E-06  2485   0.175E-03    0.126E-03
RMM:  12    -0.413218103434E+03    0.33200E-05   -0.62769E-07  2376   0.131E-03    0.658E-04
RMM:  13    -0.413218100809E+03    0.26251E-05   -0.31440E-07  1843   0.938E-04    0.304E-04
RMM:  14    -0.413218098224E+03    0.25854E-05   -0.18248E-07  1393   0.747E-04    0.166E-04
RMM:  15    -0.413218094877E+03    0.33468E-05   -0.14151E-07  1294   0.707E-04    0.113E-04
RMM:  16    -0.413218092778E+03    0.20992E-05   -0.91024E-08  1170   0.649E-04    0.821E-05
RMM:  17    -0.413218088659E+03    0.41182E-05   -0.10012E-07  1352   0.672E-04    0.576E-05
RMM:  18    -0.413218087354E+03    0.13056E-05   -0.44097E-08   954   0.568E-04    0.362E-05
RMM:  19    -0.413218086087E+03    0.12664E-05   -0.30813E-08   894   0.547E-04    0.230E-05
RMM:  20    -0.413218085526E+03    0.56154E-06   -0.17548E-08   727   0.520E-04
   47 T=    71. E= -.41286697E+03 F= -.41321809E+03 E0= -.41319715E+03  EK= 0.35112E+00 SP= 0.00E+00 SK= 0.00E+00
       N       E                     dE             d eps       ncg     rms          rms(c)
RMM:   1    -0.413246364284E+03   -0.28278E-01   -0.97396E+00  4309   0.163E+00    0.961E-01
RMM:   2    -0.413221534585E+03    0.24830E-01   -0.16727E-01  4417   0.194E-01    0.707E-01
RMM:   3    -0.413235634850E+03   -0.14100E-01   -0.32573E-02  5136   0.143E-01    0.605E-01
RMM:   4    -0.413231319069E+03    0.43158E-02   -0.45183E-02  4995   0.189E-01    0.516E-01
RMM:   5    -0.413216083381E+03    0.15236E-01   -0.50146E-03  4568   0.927E-02    0.593E-02
RMM:   6    -0.413215980031E+03    0.10335E-03   -0.93667E-04  5073   0.326E-02    0.314E-02
RMM:   7    -0.413215973736E+03    0.62946E-05   -0.20622E-04  5580   0.144E-02    0.176E-02
RMM:   8    -0.413215972855E+03    0.88138E-06   -0.13201E-04  5198   0.118E-02    0.125E-02
RMM:   9    -0.413215956198E+03    0.16657E-04   -0.20542E-05  4509   0.612E-03    0.449E-03
RMM:  10    -0.413215953430E+03    0.27676E-05   -0.35717E-06  2784   0.249E-03    0.246E-03
RMM:  11    -0.413215947769E+03    0.56609E-05   -0.14900E-06  2459   0.197E-03    0.134E-03
RMM:  12    -0.413215943979E+03    0.37901E-05   -0.64045E-07  2361   0.139E-03    0.800E-04
RMM:  13    -0.413215939780E+03    0.41996E-05   -0.31479E-07  1874   0.989E-04    0.399E-04
RMM:  14    -0.413215935515E+03    0.42647E-05   -0.16641E-07  1483   0.752E-04    0.221E-04
RMM:  15    -0.413215931661E+03    0.38534E-05   -0.10230E-07  1136   0.654E-04    0.132E-04
RMM:  16    -0.413215928662E+03    0.29994E-05   -0.75561E-08  1105   0.617E-04    0.111E-04
RMM:  17    -0.413215924776E+03    0.38864E-05   -0.69258E-08  1141   0.609E-04    0.666E-05
RMM:  18    -0.413215922180E+03    0.25954E-05   -0.42824E-08   955   0.567E-04    0.560E-05
RMM:  19    -0.413215921210E+03    0.97014E-06   -0.20188E-08   704   0.519E-04
   48 T=    71. E= -.41286720E+03 F= -.41321592E+03 E0= -.41319500E+03  EK= 0.34872E+00 SP= 0.00E+00 SK= 0.00E+00
       N       E                     dE             d eps       ncg     rms          rms(c)
RMM:   1    -0.413244349909E+03   -0.28428E-01   -0.95546E+00  4306   0.174E+00    0.950E-01
RMM:   2    -0.413216870261E+03    0.27480E-01   -0.16532E-01  4480   0.204E-01    0.696E-01
RMM:   3    -0.413238970827E+03   -0.22101E-01   -0.38457E-02  5144   0.163E-01    0.709E-01
RMM:   4    -0.413221547443E+03    0.17423E-01   -0.43585E-02  4968   0.189E-01    0.422E-01
RMM:   5    -0.413211718450E+03    0.98290E-02   -0.39053E-03  4579   0.872E-02    0.624E-02
RMM:   6    -0.413211557492E+03    0.16096E-03   -0.48278E-04  4710   0.287E-02    0.324E-02
RMM:   7    -0.413211566034E+03   -0.85419E-05   -0.28370E-04  5803   0.175E-02    0.213E-02
RMM:   8    -0.413211542967E+03    0.23067E-04   -0.98767E-05  5079   0.112E-02    0.102E-02
[...]
RMM:   2    -0.413231961155E+03    0.41567E-01   -0.29766E-01  5477   0.633E-01    0.935E-01
RMM:   3    -0.413235166984E+03   -0.32058E-02   -0.43864E-02  5655   0.231E-01    0.721E-01
RMM:   4    -0.413268986030E+03   -0.33819E-01   -0.59318E-02  5266   0.228E-01    0.932E-01
RMM:   5    -0.413229139374E+03    0.39847E-01   -0.41962E-02  4523   0.265E-01    0.239E-01
RMM:   6    -0.413227545503E+03    0.15939E-02   -0.72317E-03  5207   0.108E-01    0.944E-02
RMM:   7    -0.413227439923E+03    0.10558E-03   -0.15296E-03  5699   0.424E-02    0.632E-02
RMM:   8    -0.413227403116E+03    0.36807E-04   -0.52298E-04  5128   0.268E-02    0.364E-02
RMM:   9    -0.413227387908E+03    0.15208E-04   -0.27072E-04  4966   0.206E-02    0.148E-02
RMM:  10    -0.413227399308E+03   -0.11399E-04   -0.10190E-04  5951   0.113E-02    0.124E-02
RMM:  11    -0.413227395784E+03    0.35238E-05   -0.18264E-05  4506   0.527E-03    0.726E-03
RMM:  12    -0.413227397830E+03   -0.20458E-05   -0.62278E-06  3209   0.347E-03    0.338E-03
RMM:  13    -0.413227400325E+03   -0.24956E-05   -0.22296E-06  2633   0.245E-03    0.174E-03
RMM:  14    -0.413227402246E+03   -0.19204E-05   -0.11639E-06  2527   0.179E-03    0.775E-04
RMM:  15    -0.413227403084E+03   -0.83819E-06   -0.59408E-07  2376   0.124E-03
  139 T=    73. E= -.41286791E+03 F= -.41322740E+03 E0= -.41320393E+03  EK= 0.35950E+00 SP= 0.00E+00 SK= 0.00E+00
       N       E                     dE             d eps       ncg     rms          rms(c)
RMM:   1    -0.413138762559E+03    0.88640E-01   -0.56922E+00  4287   0.441E+00    0.675E-01
RMM:   2    -0.413132745710E+03    0.60168E-02   -0.15302E-01  5482   0.440E-01    0.612E-01
RMM:   3    -0.413145370210E+03   -0.12625E-01   -0.33039E-02  5727   0.187E-01    0.672E-01
RMM:   4    -0.413133373145E+03    0.11997E-01   -0.18738E-02  5126   0.148E-01    0.371E-01
RMM:   5    -0.413131080769E+03    0.22924E-02   -0.13174E-02  4438   0.157E-01    0.135E-01
RMM:   6    -0.413130357759E+03    0.72301E-03   -0.18016E-03  4681   0.616E-02    0.657E-02
RMM:   7    -0.413130265329E+03    0.92431E-04   -0.41363E-04  4976   0.273E-02    0.429E-02
RMM:   8    -0.413130240923E+03    0.24406E-04   -0.21580E-04  4749   0.191E-02    0.259E-02
RMM:   9    -0.413130247090E+03   -0.61666E-05   -0.11983E-04  4780   0.141E-02    0.126E-02
RMM:  10    -0.413130249335E+03   -0.22458E-05   -0.34743E-05  5231   0.684E-03    0.843E-03
RMM:  11    -0.413130250849E+03   -0.15138E-05   -0.76447E-06  3426   0.379E-03    0.351E-03
RMM:  12    -0.413130253296E+03   -0.24463E-05   -0.26703E-06  2724   0.245E-03    0.178E-03
RMM:  13    -0.413130255404E+03   -0.21086E-05   -0.12166E-06  2519   0.179E-03    0.121E-03
RMM:  14    -0.413130255990E+03   -0.58619E-06   -0.58649E-07  2305   0.122E-03
  140 T=    54. E= -.41286537E+03 F= -.41313026E+03 E0= -.41310715E+03  EK= 0.26488E+00 SP= 0.00E+00 SK= 0.00E+00
       N       E                     dE             d eps       ncg     rms          rms(c)
RMM:   1    -0.413131583115E+03   -0.13277E-02   -0.42277E+00  4295   0.391E+00    0.589E-01
RMM:   2    -0.413137802147E+03   -0.62190E-02   -0.10066E-01  5445   0.361E-01    0.557E-01
RMM:   3    -0.413139068242E+03   -0.12661E-02   -0.26624E-02  5624   0.169E-01    0.560E-01
RMM:   4    -0.413131602071E+03    0.74662E-02   -0.14886E-02  5161   0.148E-01    0.242E-01
RMM:   5    -0.413131338953E+03    0.26312E-03   -0.91792E-03  4911   0.123E-01    0.117E-01
RMM:   6    -0.413130699533E+03    0.63942E-03   -0.27731E-03  5072   0.658E-02    0.572E-02
RMM:   7    -0.413130606053E+03    0.93481E-04   -0.30968E-04  4697   0.252E-02    0.315E-02
RMM:   8    -0.413130607476E+03   -0.14236E-05   -0.13785E-04  4798   0.149E-02    0.201E-02
RMM:   9    -0.413130611253E+03   -0.37770E-05   -0.61466E-05  5010   0.966E-03    0.964E-03
RMM:  10    -0.413130613671E+03   -0.24180E-05   -0.18287E-05  4491   0.492E-03    0.560E-03
RMM:  11    -0.413130616732E+03   -0.30612E-05   -0.68832E-06  3449   0.370E-03    0.313E-03
RMM:  12    -0.413130619902E+03   -0.31697E-05   -0.22037E-06  2670   0.253E-03    0.157E-03
RMM:  13    -0.413130621187E+03   -0.12853E-05   -0.95679E-07  2510   0.154E-03    0.106E-03
RMM:  14    -0.413130621779E+03   -0.59137E-06   -0.66443E-07  2271   0.122E-03
  141 T=    53. E= -.41286876E+03 F= -.41313062E+03 E0= -.41310790E+03  EK= 0.26186E+00 SP= 0.00E+00 SK= 0.00E+00
       N       E                     dE             d eps       ncg     rms          rms(c)
RMM:   1    -0.413186774932E+03   -0.56154E-01   -0.48354E+00  4296   0.419E+00    0.709E-01
RMM:   2    -0.413200606164E+03   -0.13831E-01   -0.12203E-01  5401   0.410E-01    0.733E-01
RMM:   3    -0.413193092778E+03    0.75134E-02   -0.33516E-02  5460   0.197E-01    0.631E-01
RMM:   4    -0.413186273606E+03    0.68192E-02   -0.21230E-02  5292   0.174E-01    0.297E-01
RMM:   5    -0.413185660014E+03    0.61359E-03   -0.12490E-02  4987   0.142E-01    0.140E-01
RMM:   6    -0.413184762137E+03    0.89788E-03   -0.44239E-03  5121   0.815E-02    0.655E-02
RMM:   7    -0.413184596619E+03    0.16552E-03   -0.38956E-04  4524   0.304E-02    0.302E-02
RMM:   8    -0.413184598139E+03   -0.15198E-05   -0.13987E-04  5177   0.152E-02    0.175E-02
RMM:   9    -0.413184608875E+03   -0.10736E-04   -0.57162E-05  5237   0.911E-03    0.106E-02
RMM:  10    -0.413184611278E+03   -0.24028E-05   -0.15645E-05  4234   0.481E-03    0.578E-03
RMM:  11    -0.413184614804E+03   -0.35265E-05   -0.10749E-05  4053   0.411E-03    0.348E-03
RMM:  12    -0.413184618687E+03   -0.38829E-05   -0.26613E-06  2707   0.268E-03    0.237E-03
RMM:  13    -0.413184620182E+03   -0.14949E-05   -0.10996E-06  2530   0.167E-03    0.125E-03
RMM:  14    -0.413184621314E+03   -0.11324E-05   -0.90026E-07  2394   0.138E-03    0.641E-04
RMM:  15    -0.413184621606E+03   -0.29135E-06   -0.92143E-07  2362   0.124E-03
  142 T=    64. E= -.41287024E+03 F= -.41318462E+03 E0= -.41316213E+03  EK= 0.31438E+00 SP= 0.00E+00 SK= 0.00E+00
       N       E                     dE             d eps       ncg     rms          rms(c)
RMM:   1    -0.413274924393E+03   -0.90303E-01   -0.62768E+00  4288   0.470E+00    0.698E-01
RMM:   2    -0.413283922321E+03   -0.89979E-02   -0.16846E-01  5402   0.482E-01    0.745E-01
RMM:   3    -0.413276295916E+03    0.76264E-02   -0.38097E-02  5467   0.213E-01    0.642E-01
RMM:   4    -0.413268409518E+03    0.78864E-02   -0.19621E-02  5257   0.171E-01    0.318E-01
RMM:   5    -0.413268020510E+03    0.38901E-03   -0.98559E-03  4816   0.135E-01    0.136E-01
RMM:   6    -0.413267473330E+03    0.54718E-03   -0.48944E-03  5120   0.829E-02    0.779E-02
RMM:   7    -0.413267167374E+03    0.30596E-03   -0.65469E-04  4629   0.366E-02    0.337E-02
RMM:   8    -0.413267168177E+03   -0.80220E-06   -0.19672E-04  5414   0.172E-02    0.197E-02
RMM:   9    -0.413267174809E+03   -0.66329E-05   -0.59855E-05  4980   0.100E-02    0.993E-03
RMM:  10    -0.413267176478E+03   -0.16688E-05   -0.16279E-05  4386   0.506E-03    0.487E-03
RMM:  11    -0.413267180282E+03   -0.38041E-05   -0.74833E-06  3562   0.360E-03    0.334E-03
RMM:  12    -0.413267183805E+03   -0.35229E-05   -0.22606E-06  2662   0.251E-03    0.201E-03
RMM:  13    -0.413267185495E+03   -0.16895E-05   -0.10988E-06  2531   0.161E-03    0.101E-03
RMM:  14    -0.413267186516E+03   -0.10214E-05   -0.75785E-07  2279   0.125E-03    0.610E-04
RMM:  15    -0.413267187155E+03   -0.63925E-06   -0.87066E-07  2346   0.122E-03
  143 T=    81. E= -.41286915E+03 F= -.41326719E+03 E0= -.41324480E+03  EK= 0.39804E+00 SP= 0.00E+00 SK= 0.00E+00
       N       E                     dE             d eps       ncg     rms          rms(c)
RMM:   1    -0.413416707063E+03   -0.14952E+00   -0.86971E+00  4265   0.532E+00    0.698E-01
RMM:   2    -0.413398548922E+03    0.18158E-01   -0.26010E-01  5408   0.583E-01    0.688E-01
RMM:   3    -0.413403516650E+03   -0.49677E-02   -0.48641E-02  5567   0.239E-01    0.712E-01
RMM:   4    -0.413389727875E+03    0.13789E-01   -0.19649E-02  5204   0.173E-01    0.346E-01
RMM:   5    -0.413388903150E+03    0.82472E-03   -0.79411E-03  4395   0.132E-01    0.115E-01
RMM:   6    -0.413388890964E+03    0.12186E-04   -0.33862E-03  5299   0.697E-02    0.771E-02
RMM:   7    -0.413388628074E+03    0.26289E-03   -0.10987E-03  5089   0.400E-02    0.392E-02
RMM:   8    -0.413388601970E+03    0.26104E-04   -0.22295E-04  5394   0.191E-02    0.229E-02
RMM:   9    -0.413388600107E+03    0.18631E-05   -0.88159E-05  4739   0.126E-02    0.115E-02
RMM:  10    -0.413388599890E+03    0.21665E-06   -0.23543E-05  4857   0.592E-03    0.667E-03
RMM:  11    -0.413388601444E+03   -0.15539E-05   -0.78938E-06  3537   0.368E-03    0.386E-03
RMM:  12    -0.413388603724E+03   -0.22802E-05   -0.24141E-06  2673   0.259E-03    0.208E-03
RMM:  13    -0.413388605577E+03   -0.18526E-05   -0.12449E-06  2552   0.179E-03    0.104E-03
RMM:  14    -0.413388606945E+03   -0.13679E-05   -0.76106E-07  2423   0.133E-03    0.626E-04
RMM:  15    -0.413388608131E+03   -0.11860E-05   -0.71978E-07  2316   0.119E-03    0.322E-04
RMM:  16    -0.413388608547E+03   -0.41677E-06   -0.41705E-07  1785   0.901E-04
  144 T=   105. E= -.41287095E+03 F= -.41338861E+03 E0= -.41336627E+03  EK= 0.51765E+00 SP= 0.00E+00 SK= 0.00E+00
       N       E                     dE             d eps       ncg     rms          rms(c)
RMM:   1    -0.413595079747E+03   -0.20647E+00   -0.12474E+01  4266   0.610E+00    0.877E-01
RMM:   2    -0.413523745783E+03    0.71334E-01   -0.41058E-01  5392   0.715E-01    0.785E-01
RMM:   3    -0.413546899105E+03   -0.23153E-01   -0.72281E-02  5589   0.291E-01    0.871E-01
RMM:   4    -0.413525566474E+03    0.21333E-01   -0.30555E-02  5258   0.193E-01    0.510E-01
RMM:   5    -0.413521268162E+03    0.42983E-02   -0.17829E-02  4427   0.186E-01    0.150E-01
RMM:   6    -0.413520768172E+03    0.49999E-03   -0.29352E-03  5024   0.752E-02    0.734E-02
RMM:   7    -0.413520617853E+03    0.15032E-03   -0.10587E-03  5395   0.396E-02    0.457E-02
RMM:   8    -0.413520568723E+03    0.49130E-04   -0.41766E-04  5423   0.251E-02    0.301E-02
RMM:   9    -0.413520547828E+03    0.20895E-04   -0.16272E-04  5103   0.165E-02    0.189E-02
RMM:  10    -0.413520542723E+03    0.51048E-05   -0.48692E-05  5440   0.870E-03    0.962E-03
RMM:  11    -0.413520541676E+03    0.10478E-05   -0.19963E-05  4678   0.523E-03    0.546E-03
RMM:  12    -0.413520542287E+03   -0.61114E-06   -0.33562E-06  2799   0.293E-03
  145 T=   130. E= -.41288160E+03 F= -.41352054E+03 E0= -.41349831E+03  EK= 0.63895E+00 SP= 0.00E+00 SK= 0.00E+00
       N       E                     dE             d eps       ncg     rms          rms(c)
RMM:   1    -0.413625669525E+03   -0.10513E+00   -0.15441E+01  4265   0.673E+00    0.151E+00
RMM:   2    -0.413531801752E+03    0.93868E-01   -0.59243E-01  5363   0.836E-01    0.131E+00
RMM:   3    -0.413584210451E+03   -0.52409E-01   -0.13849E-01  5503   0.402E-01    0.123E+00
RMM:   4    -0.413567545751E+03    0.16665E-01   -0.11677E-01  5162   0.347E-01    0.947E-01
RMM:   5    -0.413533557371E+03    0.33988E-01   -0.69866E-02  4957   0.329E-01    0.282E-01
RMM:   6    -0.413530118163E+03    0.34392E-02   -0.14585E-02  5047   0.156E-01    0.142E-01
RMM:   7    -0.413529044384E+03    0.10738E-02   -0.23030E-03  4767   0.686E-02    0.609E-02
RMM:   8    -0.413529022599E+03    0.21786E-04   -0.13047E-03  5735   0.424E-02    0.420E-02
RMM:   9    -0.413529009023E+03    0.13575E-04   -0.34945E-04  5642   0.222E-02    0.314E-02
RMM:  10    -0.413528986565E+03    0.22458E-04   -0.11603E-04  5493   0.134E-02    0.125E-02
RMM:  11    -0.413528987735E+03   -0.11696E-05   -0.54880E-05  5659   0.797E-03    0.877E-03
RMM:  12    -0.413528987090E+03    0.64435E-06   -0.88413E-06  3813   0.420E-03
  146 T=   129. E= -.41289293E+03 F= -.41352899E+03 E0= -.41350693E+03  EK= 0.63605E+00 SP= 0.00E+00 SK= 0.00E+00
       N       E                     dE             d eps       ncg     rms          rms(c)
RMM:   1    -0.413390079847E+03    0.13891E+00   -0.12553E+01  4265   0.638E+00    0.159E+00
RMM:   2    -0.413372932912E+03    0.17147E-01   -0.50135E-01  5354   0.765E-01    0.137E+00
RMM:   3    -0.413464230822E+03   -0.91298E-01   -0.17180E-01  5506   0.420E-01    0.161E+00
RMM:   4    -0.413376786184E+03    0.87445E-01   -0.11212E-01  5089   0.375E-01    0.631E-01
RMM:   5    -0.413368960939E+03    0.78252E-02   -0.53066E-02  4949   0.297E-01    0.238E-01
RMM:   6    -0.413367037691E+03    0.19232E-02   -0.98269E-03  5214   0.128E-01    0.124E-01
RMM:   7    -0.413366269925E+03    0.76777E-03   -0.18156E-03  4742   0.590E-02    0.589E-02
RMM:   8    -0.413366266537E+03    0.33884E-05   -0.11909E-03  5614   0.411E-02    0.413E-02
RMM:   9    -0.413366241891E+03    0.24646E-04   -0.27610E-04  5572   0.204E-02    0.297E-02
RMM:  10    -0.413366225073E+03    0.16818E-04   -0.14766E-04  5548   0.146E-02    0.117E-02
RMM:  11    -0.413366228592E+03   -0.35190E-05   -0.40923E-05  5457   0.676E-03    0.972E-03
RMM:  12    -0.413366229093E+03   -0.50160E-06   -0.11203E-05  4054   0.460E-03    0.351E-03
RMM:  13    -0.413366233407E+03   -0.43135E-05   -0.37024E-06  2867   0.279E-03    0.199E-03
RMM:  14    -0.413366238517E+03   -0.51104E-05   -0.12555E-06  2556   0.191E-03    0.941E-04
RMM:  15    -0.413366242471E+03   -0.39538E-05   -0.88535E-07  2491   0.141E-03    0.519E-04
RMM:  16    -0.413366248064E+03   -0.55935E-05   -0.12248E-06  2518   0.141E-03    0.401E-04
RMM:  17    -0.413366251941E+03   -0.38763E-05   -0.81485E-07  2077   0.108E-03    0.309E-04
RMM:  18    -0.413366256066E+03   -0.41248E-05   -0.92642E-07  2250   0.110E-03    0.191E-04
RMM:  19    -0.413366258729E+03   -0.26637E-05   -0.51324E-07  1602   0.824E-04    0.969E-05
RMM:  20    -0.413366260253E+03   -0.15236E-05   -0.22505E-07  1265   0.675E-04    0.714E-05
RMM:  21    -0.413366261258E+03   -0.10053E-05   -0.12654E-07  1118   0.608E-04    0.475E-05
RMM:  22    -0.413366262099E+03   -0.84046E-06   -0.73444E-08   996   0.573E-04
  147 T=   103. E= -.41285921E+03 F= -.41336626E+03 E0= -.41334438E+03  EK= 0.50706E+00 SP= 0.00E+00 SK= 0.00E+00
       N       E                     dE             d eps       ncg     rms          rms(c)
RMM:   1    -0.413531968025E+03   -0.16571E+00   -0.98736E+00  4264   0.591E+00    0.745E-01
RMM:   2    -0.413513912723E+03    0.18055E-01   -0.28141E-01  5385   0.606E-01    0.578E-01
RMM:   3    -0.413538634241E+03   -0.24722E-01   -0.57467E-02  5500   0.267E-01    0.752E-01
RMM:   4    -0.413517590639E+03    0.21044E-01   -0.29773E-02  5264   0.188E-01    0.394E-01
RMM:   5    -0.413513469433E+03    0.41212E-02   -0.12398E-02  4812   0.150E-01    0.998E-02
RMM:   6    -0.413513519075E+03   -0.49641E-04   -0.43959E-03  5487   0.797E-02    0.882E-02
RMM:   7    -0.413513107825E+03    0.41125E-03   -0.92905E-04  4981   0.398E-02    0.380E-02
RMM:   8    -0.413513101339E+03    0.64851E-05   -0.33867E-04  5636   0.225E-02    0.240E-02
RMM:   9    -0.413513095867E+03    0.54723E-05   -0.12808E-04  5755   0.135E-02    0.196E-02
RMM:  10    -0.413513087866E+03    0.80015E-05   -0.35154E-05  5054   0.783E-03    0.979E-03
RMM:  11    -0.413513088299E+03   -0.43355E-06   -0.30123E-05  5316   0.613E-03    0.572E-03
RMM:  12    -0.413513089447E+03   -0.11477E-05   -0.33428E-06  2793   0.298E-03    0.322E-03
RMM:  13    -0.413513091444E+03   -0.19971E-05   -0.19371E-06  2602   0.222E-03    0.156E-03
RMM:  14    -0.413513094810E+03   -0.33661E-05   -0.13109E-06  2537   0.183E-03    0.672E-04
RMM:  15    -0.413513098001E+03   -0.31910E-05   -0.89462E-07  2431   0.142E-03    0.428E-04
RMM:  16    -0.413513101223E+03   -0.32215E-05   -0.78960E-07  2330   0.124E-03    0.376E-04
RMM:  17    -0.413513104015E+03   -0.27928E-05   -0.65882E-07  2182   0.106E-03    0.330E-04
RMM:  18    -0.413513105781E+03   -0.17652E-05   -0.37438E-07  1594   0.797E-04    0.221E-04
RMM:  19    -0.413513107669E+03   -0.18883E-05   -0.32912E-07  1629   0.782E-04    0.953E-05
RMM:  20    -0.413513108710E+03   -0.10407E-05   -0.15861E-07  1250   0.627E-04    0.101E-04
RMM:  21    -0.413513109562E+03   -0.85218E-06   -0.90765E-08  1013   0.560E-04
  148 T=   133. E= -.41285917E+03 F= -.41351311E+03 E0= -.41349129E+03  EK= 0.65394E+00 SP= 0.00E+00 SK= 0.00E+00
       N       E                     dE             d eps       ncg     rms          rms(c)
RMM:   1    -0.414086342761E+03   -0.57323E+00   -0.20574E+01  4285   0.802E+00    0.192E+00
RMM:   2    -0.413985224317E+03    0.10112E+00   -0.73475E-01  5374   0.103E+00    0.165E+00
RMM:   3    -0.414098449512E+03   -0.11323E+00   -0.26758E-01  5450   0.548E-01    0.196E+00
RMM:   4    -0.413966165613E+03    0.13228E+00   -0.16364E-01  5138   0.469E-01    0.752E-01
RMM:   5    -0.413954880156E+03    0.11285E-01   -0.50890E-02  4705   0.312E-01    0.216E-01
RMM:   6    -0.413953870578E+03    0.10096E-02   -0.10285E-02  5397   0.130E-01    0.119E-01
RMM:   7    -0.413953632120E+03    0.23846E-03   -0.19816E-03  5265   0.540E-02    0.620E-02
RMM:   8    -0.413953586655E+03    0.45465E-04   -0.10192E-03  5418   0.371E-02    0.442E-02
RMM:   9    -0.413953540953E+03    0.45702E-04   -0.39536E-04  5348   0.240E-02    0.288E-02
RMM:  10    -0.413953524274E+03    0.16679E-04   -0.99061E-05  5553   0.123E-02    0.159E-02
RMM:  11    -0.413953522512E+03    0.17622E-05   -0.67167E-05  5575   0.935E-03    0.783E-03
RMM:  12    -0.413953523289E+03   -0.77654E-06   -0.10538E-05  3883   0.452E-03    0.399E-03
RMM:  13    -0.413953525397E+03   -0.21083E-05   -0.41940E-06  2968   0.299E-03    0.241E-03
RMM:  14    -0.413953527977E+03   -0.25801E-05   -0.12763E-06  2557   0.196E-03    0.878E-04
RMM:  15    -0.413953529824E+03   -0.18471E-05   -0.69006E-07  2387   0.131E-03    0.515E-04
RMM:  16    -0.413953532421E+03   -0.25974E-05   -0.84820E-07  2447   0.128E-03    0.362E-04
RMM:  17    -0.413953533811E+03   -0.13895E-05   -0.50070E-07  1819   0.950E-04    0.235E-04
RMM:  18    -0.413953535035E+03   -0.12239E-05   -0.44052E-07  1867   0.913E-04    0.227E-04
RMM:  19    -0.413953535683E+03   -0.64785E-06   -0.24081E-07  1411   0.720E-04
  149 T=   213. E= -.41290819E+03 F= -.41395354E+03 E0= -.41393159E+03  EK= 0.10453E+01 SP= 0.00E+00 SK= 0.00E+00
       N       E                     dE             d eps       ncg     rms          rms(c)
RMM:   1    -0.414280374926E+03   -0.32684E+00   -0.29447E+01  4285   0.938E+00    0.230E+00
RMM:   2    -0.414038114340E+03    0.24226E+00   -0.10826E+00  5370   0.123E+00    0.202E+00
RMM:   3    -0.414204868162E+03   -0.16675E+00   -0.33933E-01  5531   0.627E-01    0.224E+00
RMM:   4    -0.414050833615E+03    0.15403E+00   -0.22553E-01  5176   0.514E-01    0.112E+00
RMM:   5    -0.414021978471E+03    0.28855E-01   -0.94122E-02  4678   0.410E-01    0.296E-01
RMM:   6    -0.414018420341E+03    0.35581E-02   -0.14200E-02  5027   0.167E-01    0.141E-01
RMM:   7    -0.414017922807E+03    0.49753E-03   -0.26327E-03  5141   0.667E-02    0.754E-02
RMM:   8    -0.414017882182E+03    0.40624E-04   -0.13834E-03  5394   0.444E-02    0.544E-02
RMM:   9    -0.414017798709E+03    0.83474E-04   -0.57871E-04  5275   0.298E-02    0.335E-02
RMM:  10    -0.414017788102E+03    0.10606E-04   -0.15866E-04  5594   0.157E-02    0.189E-02
RMM:  11    -0.414017784849E+03    0.32532E-05   -0.84596E-05  5672   0.105E-02    0.939E-03
RMM:  12    -0.414017786045E+03   -0.11960E-05   -0.17124E-05  4434   0.534E-03    0.514E-03
RMM:  13    -0.414017788098E+03   -0.20528E-05   -0.63109E-06  3404   0.351E-03    0.319E-03
RMM:  14    -0.414017790249E+03   -0.21508E-05   -0.17196E-06  2609   0.224E-03    0.126E-03
RMM:  15    -0.414017791804E+03   -0.15555E-05   -0.78787E-07  2459   0.145E-03    0.674E-04
RMM:  16    -0.414017793559E+03   -0.17548E-05   -0.66007E-07  2334   0.119E-03    0.372E-04
RMM:  17    -0.414017794506E+03   -0.94662E-06   -0.37271E-07  1627   0.880E-04
  150 T=   224. E= -.41291562E+03 F= -.41401779E+03 E0= -.41399577E+03  EK= 0.11022E+01 SP= 0.00E+00 SK= 0.00E+00
