       N       E                     dE             d eps       ncg     rms          rms(c)
RMM:   1     0.220166313470E+04    0.22017E+04   -0.52440E+04  2132   0.654E+02
RMM:   2     0.705983034800E+03   -0.14957E+04   -0.16264E+04  2132   0.177E+02
RMM:   3     0.138099584389E+03   -0.56788E+03   -0.65723E+03  2132   0.117E+02
RMM:   4    -0.159393641404E+03   -0.29749E+03   -0.27851E+03  2132   0.936E+01
RMM:   5    -0.287515180511E+03   -0.12812E+03   -0.11455E+03  2132   0.595E+01
RMM:   6    -0.349965964104E+03   -0.62451E+02   -0.55198E+02  2132   0.423E+01
RMM:   7    -0.382831474914E+03   -0.32866E+02   -0.30425E+02  2132   0.293E+01
RMM:   8    -0.404296991657E+03   -0.21466E+02   -0.18386E+02  2132   0.233E+01
RMM:   9    -0.436023993725E+03   -0.31727E+02   -0.30644E+02  6102   0.173E+01
RMM:  10    -0.441308613348E+03   -0.52846E+01   -0.63000E+01  6394   0.540E+00
RMM:  11    -0.442520343279E+03   -0.12117E+01   -0.11158E+01  6223   0.173E+00
RMM:  12    -0.442893443449E+03   -0.37310E+00   -0.27327E+00  6367   0.601E-01    0.134E+02
RMM:  13    -0.425594731382E+03    0.17299E+02   -0.80933E+01  4671   0.119E+01    0.712E+01
RMM:  14    -0.499411199290E+03   -0.73816E+02   -0.53964E+02  5419   0.232E+01    0.307E+01
RMM:  15    -0.416708010919E+03    0.82703E+02   -0.20141E+02  5114   0.164E+01    0.756E+00
RMM:  16    -0.414021902048E+03    0.26861E+01   -0.39849E+01  6093   0.614E+00    0.430E+00
RMM:  17    -0.413209967419E+03    0.81193E+00   -0.25661E+00  5418   0.190E+00    0.243E+00
RMM:  18    -0.413177749654E+03    0.32218E-01   -0.74318E-01  5993   0.884E-01    0.170E+00
RMM:  19    -0.413170345076E+03    0.74046E-02   -0.26830E-01  5684   0.562E-01    0.895E-01
RMM:  20    -0.413189135584E+03   -0.18791E-01   -0.28559E-01  5608   0.551E-01    0.624E-01
RMM:  21    -0.413168202327E+03    0.20933E-01   -0.35331E-02  4999   0.241E-01    0.289E-01
RMM:  22    -0.413165002726E+03    0.31996E-02   -0.22373E-02  5896   0.143E-01    0.133E-01
RMM:  23    -0.413164199180E+03    0.80355E-03   -0.52647E-03  6010   0.638E-02    0.844E-02
RMM:  24    -0.413163029074E+03    0.11701E-02   -0.16529E-03  5292   0.411E-02    0.512E-02
RMM:  25    -0.413162509682E+03    0.51939E-03   -0.86121E-04  5033   0.291E-02    0.395E-02
RMM:  26    -0.413162663141E+03   -0.15346E-03   -0.10636E-03  5830   0.332E-02    0.355E-02
RMM:  27    -0.413163098324E+03   -0.43518E-03   -0.20153E-04  4534   0.207E-02    0.190E-02
RMM:  28    -0.413163537677E+03   -0.43935E-03   -0.16210E-04  5205   0.176E-02    0.876E-03
RMM:  29    -0.413163918187E+03   -0.38051E-03   -0.10436E-04  4587   0.151E-02    0.468E-03
RMM:  30    -0.413164165438E+03   -0.24725E-03   -0.79388E-05  4360   0.107E-02    0.456E-03
RMM:  31    -0.413164303770E+03   -0.13833E-03   -0.55549E-05  3194   0.716E-03    0.352E-03
RMM:  32    -0.413164330486E+03   -0.26716E-04   -0.21649E-05  2986   0.325E-03    0.191E-03
RMM:  33    -0.413164342954E+03   -0.12468E-04   -0.90138E-06  2844   0.240E-03    0.571E-04
RMM:  34    -0.413164344865E+03   -0.19113E-05   -0.48448E-06  2634   0.165E-03    0.615E-04
RMM:  35    -0.413164344810E+03    0.54675E-07   -0.21549E-06  2363   0.127E-03
    1 T=    61. E= -.41286655E+03 F= -.41316434E+03 E0= -.41314185E+03  EK= 0.29780E+00 SP= 0.00E+00 SK= 0.00E+00
       N       E                     dE             d eps       ncg     rms          rms(c)
RMM:   1    -0.413158088960E+03    0.62559E-02   -0.10257E+01  3995   0.667E-01    0.885E-01
RMM:   2    -0.413166802988E+03   -0.87140E-02   -0.12583E-01  3965   0.941E-02    0.645E-01
RMM:   3    -0.413164224909E+03    0.25781E-02   -0.95107E-03  4704   0.396E-02    0.117E-01
RMM:   4    -0.413180982116E+03   -0.16757E-01   -0.17579E-02  5217   0.110E-01    0.543E-01
RMM:   5    -0.413163946908E+03    0.17035E-01   -0.84708E-03  4856   0.910E-02    0.383E-02
RMM:   6    -0.413164064533E+03   -0.11763E-03   -0.14622E-03  5799   0.370E-02    0.261E-02
RMM:   7    -0.413164072449E+03   -0.79163E-05   -0.26864E-04  5712   0.150E-02    0.155E-02
RMM:   8    -0.413164074679E+03   -0.22301E-05   -0.33608E-05  4650   0.624E-03    0.663E-03
RMM:   9    -0.413164078453E+03   -0.37732E-05   -0.71596E-06  3166   0.293E-03    0.525E-03
RMM:  10    -0.413164083407E+03   -0.49545E-05   -0.14600E-06  2549   0.183E-03    0.329E-03
RMM:  11    -0.413164089776E+03   -0.63693E-05   -0.12676E-06  2521   0.165E-03    0.151E-03
RMM:  12    -0.413164096233E+03   -0.64563E-05   -0.11194E-06  2488   0.147E-03    0.685E-04
RMM:  13    -0.413164096942E+03   -0.70937E-06   -0.42290E-07  2049   0.964E-04
    2 T=    61. E= -.41286634E+03 F= -.41316410E+03 E0= -.41314160E+03  EK= 0.29776E+00 SP= 0.00E+00 SK= 0.00E+00
       N       E                     dE             d eps       ncg     rms          rms(c)
RMM:   1    -0.413159134256E+03    0.49620E-02   -0.10276E+01  4192   0.671E-01    0.907E-01
RMM:   2    -0.413166874440E+03   -0.77402E-02   -0.12371E-01  3991   0.930E-02    0.639E-01
RMM:   3    -0.413164794574E+03    0.20799E-02   -0.95319E-03  4774   0.393E-02    0.134E-01
RMM:   4    -0.413186398785E+03   -0.21604E-01   -0.22046E-02  5184   0.124E-01    0.615E-01
RMM:   5    -0.413164498627E+03    0.21900E-01   -0.10728E-02  4841   0.103E-01    0.412E-02
RMM:   6    -0.413164639882E+03   -0.14125E-03   -0.17971E-03  5814   0.414E-02    0.272E-02
RMM:   7    -0.413164640914E+03   -0.10328E-05   -0.29791E-04  5724   0.161E-02    0.169E-02
RMM:   8    -0.413164636568E+03    0.43465E-05   -0.47396E-05  4948   0.738E-03    0.784E-03
RMM:   9    -0.413164635853E+03    0.71460E-06   -0.96470E-06  3549   0.351E-03
    3 T=    61. E= -.41286665E+03 F= -.41316464E+03 E0= -.41314214E+03  EK= 0.29798E+00 SP= 0.00E+00 SK= 0.00E+00
       N       E                     dE             d eps       ncg     rms          rms(c)
RMM:   1    -0.413158811719E+03    0.58248E-02   -0.10196E+01  4224   0.677E-01    0.891E-01
RMM:   2    -0.413166701183E+03   -0.78895E-02   -0.12300E-01  4318   0.948E-02    0.633E-01
RMM:   3    -0.413172451790E+03   -0.57506E-02   -0.15729E-02  5189   0.894E-02    0.398E-01
RMM:   4    -0.413182266961E+03   -0.98152E-02   -0.34831E-02  5096   0.162E-01    0.556E-01
RMM:   5    -0.413164477151E+03    0.17790E-01   -0.63016E-03  4654   0.930E-02    0.575E-02
RMM:   6    -0.413164406685E+03    0.70466E-04   -0.12175E-03  5322   0.358E-02    0.270E-02
RMM:   7    -0.413164425267E+03   -0.18582E-04   -0.27692E-04  5977   0.162E-02    0.169E-02
RMM:   8    -0.413164423144E+03    0.21225E-05   -0.53511E-05  5217   0.839E-03    0.697E-03
RMM:   9    -0.413164422133E+03    0.10117E-05   -0.10637E-05  3918   0.406E-03    0.367E-03
RMM:  10    -0.413164423243E+03   -0.11109E-05   -0.12688E-06  2528   0.196E-03    0.229E-03
RMM:  11    -0.413164425323E+03   -0.20791E-05   -0.12196E-06  2528   0.176E-03    0.141E-03
RMM:  12    -0.413164426476E+03   -0.11533E-05   -0.58846E-07  2442   0.125E-03    0.496E-04
RMM:  13    -0.413164427287E+03   -0.81081E-06   -0.29402E-07  1657   0.828E-04
    4 T=    61. E= -.41286646E+03 F= -.41316443E+03 E0= -.41314194E+03  EK= 0.29797E+00 SP= 0.00E+00 SK= 0.00E+00
       N       E                     dE             d eps       ncg     rms          rms(c)
RMM:   1    -0.413158507580E+03    0.59189E-02   -0.10243E+01  4236   0.678E-01    0.883E-01
RMM:   2    -0.413167200707E+03   -0.86931E-02   -0.12575E-01  4004   0.931E-02    0.643E-01
RMM:   3    -0.413164907725E+03    0.22930E-02   -0.95903E-03  4910   0.415E-02    0.132E-01
RMM:   4    -0.413194633792E+03   -0.29726E-01   -0.30701E-02  5159   0.146E-01    0.719E-01
RMM:   5    -0.413164384454E+03    0.30249E-01   -0.14586E-02  4814   0.120E-01    0.442E-02
RMM:   6    -0.413164576406E+03   -0.19195E-03   -0.24453E-03  5757   0.480E-02    0.277E-02
RMM:   7    -0.413164588041E+03   -0.11635E-04   -0.36144E-04  5812   0.168E-02    0.177E-02
RMM:   8    -0.413164590251E+03   -0.22104E-05   -0.55549E-05  5023   0.768E-03    0.826E-03
RMM:   9    -0.413164592253E+03   -0.20018E-05   -0.11744E-05  3771   0.383E-03    0.609E-03
RMM:  10    -0.413164596526E+03   -0.42726E-05   -0.17027E-06  2567   0.200E-03    0.398E-03
RMM:  11    -0.413164602051E+03   -0.55253E-05   -0.14741E-06  2548   0.185E-03    0.184E-03
RMM:  12    -0.413164607695E+03   -0.56442E-05   -0.13947E-06  2542   0.170E-03    0.781E-04
RMM:  13    -0.413164608223E+03   -0.52781E-06   -0.37934E-07  2183   0.106E-03
    5 T=    61. E= -.41286651E+03 F= -.41316461E+03 E0= -.41314213E+03  EK= 0.29810E+00 SP= 0.00E+00 SK= 0.00E+00
       N       E                     dE             d eps       ncg     rms          rms(c)
RMM:   1    -0.413159410114E+03    0.51976E-02   -0.10274E+01  4250   0.682E-01    0.903E-01
RMM:   2    -0.413167325319E+03   -0.79152E-02   -0.12395E-01  4074   0.945E-02    0.641E-01
RMM:   3    -0.413165234054E+03    0.20913E-02   -0.95388E-03  4754   0.399E-02    0.130E-01
RMM:   4    -0.413185814668E+03   -0.20581E-01   -0.20872E-02  5154   0.121E-01    0.601E-01
RMM:   5    -0.413164902926E+03    0.20912E-01   -0.10227E-02  4830   0.997E-02    0.403E-02
RMM:   6    -0.413165037507E+03   -0.13458E-03   -0.17340E-03  5807   0.400E-02    0.259E-02
RMM:   7    -0.413165041130E+03   -0.36230E-05   -0.27562E-04  5725   0.156E-02    0.165E-02
RMM:   8    -0.413165036250E+03    0.48797E-05   -0.48368E-05  4895   0.743E-03    0.791E-03
RMM:   9    -0.413165035233E+03    0.10172E-05   -0.95750E-06  3588   0.356E-03    0.623E-03
RMM:  10    -0.413165035841E+03   -0.60789E-06   -0.13936E-06  2538   0.198E-03
    6 T=    61. E= -.41286666E+03 F= -.41316504E+03 E0= -.41314257E+03  EK= 0.29838E+00 SP= 0.00E+00 SK= 0.00E+00
       N       E                     dE             d eps       ncg     rms          rms(c)
RMM:   1    -0.413159128027E+03    0.59072E-02   -0.10221E+01  4256   0.685E-01    0.898E-01
RMM:   2    -0.413167008108E+03   -0.78801E-02   -0.12318E-01  4193   0.935E-02    0.634E-01
RMM:   3    -0.413167283654E+03   -0.27555E-03   -0.11226E-02  5093   0.611E-02    0.243E-01
RMM:   4    -0.413200549434E+03   -0.33266E-01   -0.44397E-02  5128   0.177E-01    0.781E-01
RMM:   5    -0.413164684834E+03    0.35865E-01   -0.15700E-02  4768   0.130E-01    0.572E-02
RMM:   6    -0.413164802551E+03   -0.11772E-03   -0.26788E-03  5606   0.514E-02    0.278E-02
RMM:   7    -0.413164822424E+03   -0.19873E-04   -0.40074E-04  6038   0.169E-02    0.176E-02
RMM:   8    -0.413164821401E+03    0.10233E-05   -0.66001E-05  5264   0.855E-03    0.793E-03
RMM:   9    -0.413164818063E+03    0.33381E-05   -0.10725E-05  3545   0.374E-03    0.395E-03
RMM:  10    -0.413164818207E+03   -0.14401E-06   -0.25175E-06  2616   0.224E-03
    7 T=    61. E= -.41286633E+03 F= -.41316482E+03 E0= -.41314237E+03  EK= 0.29849E+00 SP= 0.00E+00 SK= 0.00E+00
       N       E                     dE             d eps       ncg     rms          rms(c)
RMM:   1    -0.413159346780E+03    0.54713E-02   -0.10228E+01  4263   0.692E-01    0.882E-01
RMM:   2    -0.413167965008E+03   -0.86182E-02   -0.12525E-01  4182   0.939E-02    0.641E-01
RMM:   3    -0.413166458460E+03    0.15065E-02   -0.10118E-02  5036   0.513E-02    0.178E-01
RMM:   4    -0.413208955876E+03   -0.42497E-01   -0.47610E-02  5142   0.182E-01    0.860E-01
RMM:   5    -0.413165116602E+03    0.43839E-01   -0.20540E-02  4806   0.144E-01    0.525E-02
RMM:   6    -0.413165329862E+03   -0.21326E-03   -0.33319E-03  5738   0.571E-02    0.285E-02
RMM:   7    -0.413165348512E+03   -0.18650E-04   -0.46420E-04  5965   0.184E-02    0.193E-02
RMM:   8    -0.413165351610E+03   -0.30980E-05   -0.74232E-05  5242   0.863E-03    0.927E-03
RMM:   9    -0.413165351463E+03    0.14685E-06   -0.14701E-05  3975   0.418E-03    0.553E-03
RMM:  10    -0.413165354799E+03   -0.33363E-05   -0.26172E-06  2619   0.220E-03    0.371E-03
RMM:  11    -0.413165358019E+03   -0.32203E-05   -0.12178E-06  2528   0.170E-03    0.191E-03
RMM:  12    -0.413165361802E+03   -0.37824E-05   -0.12795E-06  2534   0.166E-03    0.591E-04
RMM:  13    -0.413165363079E+03   -0.12770E-05   -0.53258E-07  2256   0.116E-03    0.495E-04
RMM:  14    -0.413165363034E+03    0.44281E-07   -0.22458E-07  1699   0.814E-04
    8 T=    61. E= -.41286656E+03 F= -.41316536E+03 E0= -.41314293E+03  EK= 0.29880E+00 SP= 0.00E+00 SK= 0.00E+00
       N       E                     dE             d eps       ncg     rms          rms(c)
RMM:   1    -0.413159817554E+03    0.55455E-02   -0.10277E+01  4281   0.698E-01    0.898E-01
RMM:   2    -0.413168094685E+03   -0.82771E-02   -0.12472E-01  4186   0.948E-02    0.643E-01
RMM:   3    -0.413165867921E+03    0.22268E-02   -0.96408E-03  4834   0.417E-02    0.134E-01
RMM:   4    -0.413192645496E+03   -0.26778E-01   -0.27580E-02  5151   0.138E-01    0.684E-01
RMM:   5    -0.413165374307E+03    0.27271E-01   -0.13285E-02  4809   0.114E-01    0.434E-02
RMM:   6    -0.413165550974E+03   -0.17667E-03   -0.22573E-03  5780   0.456E-02    0.280E-02
RMM:   7    -0.413165556461E+03   -0.54865E-05   -0.34265E-04  5745   0.167E-02    0.178E-02
RMM:   8    -0.413165553204E+03    0.32564E-05   -0.53565E-05  4983   0.766E-03    0.841E-03
RMM:   9    -0.413165551889E+03    0.13158E-05   -0.10903E-05  3696   0.376E-03    0.634E-03
RMM:  10    -0.413165552663E+03   -0.77470E-06   -0.15464E-06  2554   0.199E-03
    9 T=    61. E= -.41286655E+03 F= -.41316555E+03 E0= -.41314314E+03  EK= 0.29900E+00 SP= 0.00E+00 SK= 0.00E+00
       N       E                     dE             d eps       ncg     rms          rms(c)
RMM:   1    -0.413160130884E+03    0.54210E-02   -0.10252E+01  4297   0.698E-01    0.905E-01
RMM:   2    -0.413167813957E+03   -0.76831E-02   -0.12325E-01  4261   0.943E-02    0.636E-01
RMM:   3    -0.413168399859E+03   -0.58590E-03   -0.11603E-02  5086   0.648E-02    0.255E-01
RMM:   4    -0.413199467106E+03   -0.31067E-01   -0.43368E-02  5121   0.175E-01    0.761E-01
RMM:   5    -0.413165506731E+03    0.33960E-01   -0.14733E-02  4753   0.126E-01    0.566E-02
RMM:   6    -0.413165614369E+03   -0.10764E-03   -0.25295E-03  5602   0.500E-02    0.281E-02
RMM:   7    -0.413165628677E+03   -0.14308E-04   -0.38010E-04  6016   0.168E-02    0.176E-02
RMM:   8    -0.413165625833E+03    0.28446E-05   -0.64968E-05  5238   0.858E-03    0.789E-03
RMM:   9    -0.413165621189E+03    0.46440E-05   -0.10296E-05  3508   0.373E-03    0.392E-03
RMM:  10    -0.413165620173E+03    0.10162E-05   -0.23738E-06  2599   0.222E-03    0.272E-03
RMM:  11    -0.413165618570E+03    0.16026E-05   -0.12353E-06  2518   0.175E-03    0.142E-03
RMM:  12    -0.413165616756E+03    0.18136E-05   -0.74179E-07  2468   0.137E-03    0.458E-04
RMM:  13    -0.413165615935E+03    0.82130E-06   -0.35811E-07  2037   0.974E-04
   10 T=    61. E= -.41286641E+03 F= -.41316562E+03 E0= -.41314323E+03  EK= 0.29920E+00 SP= 0.00E+00 SK= 0.00E+00
       N       E                     dE             d eps       ncg     rms          rms(c)
RMM:   1    -0.413160376585E+03    0.52402E-02   -0.10208E+01  4290   0.703E-01    0.882E-01
RMM:   2    -0.413168826990E+03   -0.84504E-02   -0.12459E-01  4216   0.943E-02    0.639E-01
RMM:   3    -0.413166760058E+03    0.20669E-02   -0.95184E-03  4864   0.437E-02    0.138E-01
RMM:   4    -0.413197846516E+03   -0.31086E-01   -0.32298E-02  5142   0.149E-01    0.735E-01
RMM:   5    -0.413166156161E+03    0.31690E-01   -0.15338E-02  4802   0.123E-01    0.451E-02
RMM:   6    -0.413166353966E+03   -0.19780E-03   -0.25773E-03  5766   0.489E-02    0.283E-02
RMM:   7    -0.413166361892E+03   -0.79259E-05   -0.37231E-04  5775   0.172E-02    0.183E-02
RMM:   8    -0.413166359642E+03    0.22500E-05   -0.60015E-05  5042   0.799E-03    0.883E-03
RMM:   9    -0.413166358218E+03    0.14235E-05   -0.12473E-05  3856   0.399E-03    0.645E-03
RMM:  10    -0.413166359401E+03   -0.11827E-05   -0.17715E-06  2568   0.204E-03    0.420E-03
RMM:  11    -0.413166361039E+03   -0.16382E-05   -0.15816E-06  2549   0.194E-03    0.192E-03
RMM:  12    -0.413166362546E+03   -0.15066E-05   -0.13884E-06  2538   0.174E-03    0.798E-04
RMM:  13    -0.413166362667E+03   -0.12107E-06   -0.38865E-07  2204   0.109E-03
   11 T=    61. E= -.41286671E+03 F= -.41316636E+03 E0= -.41314400E+03  EK= 0.29965E+00 SP= 0.00E+00 SK= 0.00E+00
       N       E                     dE             d eps       ncg     rms          rms(c)
RMM:   1    -0.413160491568E+03    0.58710E-02   -0.10282E+01  4295   0.710E-01    0.894E-01
RMM:   2    -0.413168895900E+03   -0.84043E-02   -0.12556E-01  4234   0.956E-02    0.646E-01
RMM:   3    -0.413166574209E+03    0.23217E-02   -0.96521E-03  4807   0.415E-02    0.129E-01
RMM:   4    -0.413192079088E+03   -0.25505E-01   -0.26235E-02  5148   0.135E-01    0.667E-01
RMM:   5    -0.413166159130E+03    0.25920E-01   -0.12670E-02  4811   0.111E-01    0.421E-02
RMM:   6    -0.413166325352E+03   -0.16622E-03   -0.21313E-03  5798   0.441E-02    0.266E-02
RMM:   7    -0.413166332415E+03   -0.70635E-05   -0.30883E-04  5739   0.161E-02    0.170E-02
RMM:   8    -0.413166329176E+03    0.32392E-05   -0.56447E-05  4984   0.782E-03    0.852E-03
RMM:   9    -0.413166327595E+03    0.15811E-05   -0.11419E-05  3809   0.389E-03    0.646E-03
RMM:  10    -0.413166328572E+03   -0.97702E-06   -0.15417E-06  2549   0.200E-03
   12 T=    61. E= -.41286642E+03 F= -.41316633E+03 E0= -.41314400E+03  EK= 0.29990E+00 SP= 0.00E+00 SK= 0.00E+00
       N       E                     dE             d eps       ncg     rms          rms(c)
RMM:   1    -0.413161558334E+03    0.47693E-02   -0.10282E+01  4306   0.711E-01    0.910E-01
RMM:   2    -0.413168964438E+03   -0.74061E-02   -0.12355E-01  4287   0.932E-02    0.638E-01
RMM:   3    -0.413169909320E+03   -0.94488E-03   -0.11914E-02  5124   0.632E-02    0.263E-01
RMM:   4    -0.413199901836E+03   -0.29993E-01   -0.43306E-02  5117   0.175E-01    0.751E-01
RMM:   5    -0.413166771957E+03    0.33130E-01   -0.14228E-02  4743   0.124E-01    0.567E-02
RMM:   6    -0.413166873632E+03   -0.10168E-03   -0.24559E-03  5587   0.492E-02    0.283E-02
RMM:   7    -0.413166886381E+03   -0.12748E-04   -0.37801E-04  6017   0.167E-02    0.179E-02
RMM:   8    -0.413166882533E+03    0.38478E-05   -0.65628E-05  5237   0.863E-03    0.798E-03
RMM:   9    -0.413166876564E+03    0.59689E-05   -0.10150E-05  3514   0.375E-03    0.389E-03
RMM:  10    -0.413166874664E+03    0.19003E-05   -0.23180E-06  2589   0.220E-03    0.267E-03
RMM:  11    -0.413166871849E+03    0.28152E-05   -0.12294E-06  2517   0.176E-03    0.142E-03
RMM:  12    -0.413166869064E+03    0.27844E-05   -0.71506E-07  2452   0.137E-03    0.457E-04
RMM:  13    -0.413166867722E+03    0.13425E-05   -0.34885E-07  2039   0.971E-04    0.291E-04
RMM:  14    -0.413166866528E+03    0.11932E-05   -0.20860E-07  1552   0.785E-04    0.199E-04
RMM:  15    -0.413166864595E+03    0.19331E-05   -0.18555E-07  1393   0.736E-04    0.975E-05
RMM:  16    -0.413166862835E+03    0.17606E-05   -0.14489E-07  1391   0.696E-04    0.104E-04
RMM:  17    -0.413166860827E+03    0.20082E-05   -0.13833E-07  1371   0.662E-04    0.581E-05
RMM:  18    -0.413166859521E+03    0.13053E-05   -0.79519E-08  1083   0.587E-04    0.276E-05
RMM:  19    -0.413166858995E+03    0.52637E-06   -0.39451E-08   838   0.541E-04
   13 T=    61. E= -.41286647E+03 F= -.41316686E+03 E0= -.41314456E+03  EK= 0.30039E+00 SP= 0.00E+00 SK= 0.00E+00
       N       E                     dE             d eps       ncg     rms          rms(c)
RMM:   1    -0.413161622515E+03    0.52370E-02   -0.10209E+01  4295   0.714E-01    0.886E-01
RMM:   2    -0.413169941299E+03   -0.83188E-02   -0.12444E-01  4255   0.933E-02    0.637E-01
RMM:   3    -0.413168029641E+03    0.19117E-02   -0.96132E-03  4918   0.436E-02    0.146E-01
RMM:   4    -0.413202626696E+03   -0.34597E-01   -0.36423E-02  5138   0.158E-01    0.774E-01
RMM:   5    -0.413167337021E+03    0.35290E-01   -0.17153E-02  4799   0.129E-01    0.470E-02
RMM:   6    -0.413167542194E+03   -0.20517E-03   -0.27981E-03  5745   0.515E-02    0.293E-02
RMM:   7    -0.413167548590E+03   -0.63962E-05   -0.40422E-04  5770   0.178E-02    0.189E-02
RMM:   8    -0.413167545810E+03    0.27806E-05   -0.64516E-05  5127   0.826E-03    0.910E-03
RMM:   9    -0.413167542920E+03    0.28894E-05   -0.13616E-05  3965   0.412E-03    0.640E-03
RMM:  10    -0.413167542860E+03    0.60372E-07   -0.19378E-06  2575   0.207E-03
   14 T=    61. E= -.41286657E+03 F= -.41316754E+03 E0= -.41314527E+03  EK= 0.30097E+00 SP= 0.00E+00 SK= 0.00E+00
       N       E                     dE             d eps       ncg     rms          rms(c)
RMM:   1    -0.413164582611E+03    0.29603E-02   -0.10325E+01  4306   0.748E-01    0.890E-01
RMM:   2    -0.413170379888E+03   -0.57973E-02   -0.13317E-01  4299   0.101E-01    0.649E-01
RMM:   3    -0.413171242665E+03   -0.86278E-03   -0.12174E-02  5117   0.688E-02    0.284E-01
RMM:   4    -0.413202968311E+03   -0.31726E-01   -0.47621E-02  5112   0.183E-01    0.776E-01
RMM:   5    -0.413167438068E+03    0.35530E-01   -0.15098E-02  4733   0.128E-01    0.577E-02
RMM:   6    -0.413167533748E+03   -0.95681E-04   -0.25661E-03  5596   0.505E-02    0.267E-02
RMM:   7    -0.413167555204E+03   -0.21455E-04   -0.38538E-04  6026   0.169E-02    0.175E-02
RMM:   8    -0.413167557730E+03   -0.25261E-05   -0.70179E-05  5256   0.882E-03    0.808E-03
RMM:   9    -0.413167555661E+03    0.20689E-05   -0.11358E-05  3617   0.392E-03    0.369E-03
RMM:  10    -0.413167556963E+03   -0.13022E-05   -0.23820E-06  2598   0.220E-03    0.252E-03
RMM:  11    -0.413167558425E+03   -0.14618E-05   -0.14270E-06  2525   0.183E-03    0.144E-03
RMM:  12    -0.413167559102E+03   -0.67725E-06   -0.73471E-07  2471   0.138E-03
   15 T=    61. E= -.41286623E+03 F= -.41316756E+03 E0= -.41314532E+03  EK= 0.30133E+00 SP= 0.00E+00 SK= 0.00E+00
       N       E                     dE             d eps       ncg     rms          rms(c)
RMM:   1    -0.413163625851E+03    0.39326E-02   -0.10315E+01  4299   0.735E-01    0.912E-01
RMM:   2    -0.413170942961E+03   -0.73171E-02   -0.12428E-01  4257   0.964E-02    0.641E-01
RMM:   3    -0.413169177637E+03    0.17653E-02   -0.10042E-02  4933   0.454E-02    0.156E-01
RMM:   4    -0.413205683467E+03   -0.36506E-01   -0.38746E-02  5140   0.163E-01    0.795E-01
RMM:   5    -0.413168385619E+03    0.37298E-01   -0.18070E-02  4796   0.133E-01    0.489E-02
RMM:   6    -0.413168598599E+03   -0.21298E-03   -0.30172E-03  5759   0.533E-02    0.307E-02
RMM:   7    -0.413168601503E+03   -0.29036E-05   -0.42991E-04  5800   0.186E-02    0.200E-02
RMM:   8    -0.413168593868E+03    0.76347E-05   -0.70593E-05  5142   0.864E-03    0.994E-03
RMM:   9    -0.413168587471E+03    0.63973E-05   -0.14267E-05  4042   0.426E-03    0.691E-03
RMM:  10    -0.413168583892E+03    0.35793E-05   -0.21414E-06  2593   0.216E-03    0.445E-03
RMM:  11    -0.413168580460E+03    0.34315E-05   -0.13736E-06  2519   0.184E-03    0.228E-03
RMM:  12    -0.413168575426E+03    0.50340E-05   -0.15313E-06  2544   0.189E-03    0.841E-04
RMM:  13    -0.413168574008E+03    0.14177E-05   -0.47232E-07  2313   0.122E-03    0.591E-04
RMM:  14    -0.413168573975E+03    0.33760E-07   -0.21851E-07  1827   0.826E-04
   16 T=    61. E= -.41286661E+03 F= -.41316857E+03 E0= -.41314638E+03  EK= 0.30196E+00 SP= 0.00E+00 SK= 0.00E+00
       N       E                     dE             d eps       ncg     rms          rms(c)
RMM:   1    -0.413163310355E+03    0.52637E-02   -0.10227E+01  4296   0.724E-01    0.892E-01
RMM:   2    -0.413171513728E+03   -0.82034E-02   -0.12436E-01  4267   0.955E-02    0.637E-01
RMM:   3    -0.413169392722E+03    0.21210E-02   -0.95318E-03  4864   0.421E-02    0.140E-01
RMM:   4    -0.413198719586E+03   -0.29327E-01   -0.30480E-02  5142   0.145E-01    0.714E-01
RMM:   5    -0.413168875334E+03    0.29844E-01   -0.14624E-02  4801   0.119E-01    0.448E-02
RMM:   6    -0.413169054408E+03   -0.17907E-03   -0.24458E-03  5784   0.477E-02    0.287E-02
RMM:   7    -0.413169056888E+03   -0.24794E-05   -0.35899E-04  5728   0.172E-02    0.183E-02
RMM:   8    -0.413169049902E+03    0.69857E-05   -0.60823E-05  5041   0.809E-03    0.899E-03
RMM:   9    -0.413169045282E+03    0.46201E-05   -0.12226E-05  3852   0.399E-03    0.662E-03
RMM:  10    -0.413169043138E+03    0.21439E-05   -0.16625E-06  2554   0.204E-03    0.426E-03
RMM:  11    -0.413169040593E+03    0.25451E-05   -0.14697E-06  2530   0.191E-03    0.200E-03
RMM:  12    -0.413169037571E+03    0.30219E-05   -0.12648E-06  2510   0.173E-03    0.786E-04
RMM:  13    -0.413169037069E+03    0.50212E-06   -0.38814E-07  2211   0.110E-03
   17 T=    62. E= -.41286654E+03 F= -.41316904E+03 E0= -.41314688E+03  EK= 0.30250E+00 SP= 0.00E+00 SK= 0.00E+00
       N       E                     dE             d eps       ncg     rms          rms(c)
RMM:   1    -0.413163753105E+03    0.52845E-02   -0.10304E+01  4299   0.735E-01    0.889E-01
RMM:   2    -0.413172287023E+03   -0.85339E-02   -0.12690E-01  4272   0.974E-02    0.649E-01
RMM:   3    -0.413169875291E+03    0.24117E-02   -0.98959E-03  4860   0.432E-02    0.131E-01
RMM:   4    -0.413199282359E+03   -0.29407E-01   -0.30619E-02  5141   0.145E-01    0.715E-01
RMM:   5    -0.413169335797E+03    0.29947E-01   -0.14688E-02  4799   0.119E-01    0.440E-02
RMM:   6    -0.413169513339E+03   -0.17754E-03   -0.24483E-03  5788   0.476E-02    0.273E-02
RMM:   7    -0.413169521788E+03   -0.84485E-05   -0.34218E-04  5768   0.168E-02    0.177E-02
RMM:   8    -0.413169518326E+03    0.34616E-05   -0.64359E-05  5032   0.820E-03    0.913E-03
RMM:   9    -0.413169515320E+03    0.30064E-05   -0.12891E-05  3989   0.411E-03    0.669E-03
RMM:  10    -0.413169515448E+03   -0.12831E-06   -0.17882E-06  2567   0.205E-03
   18 T=    62. E= -.41286638E+03 F= -.41316952E+03 E0= -.41314740E+03  EK= 0.30313E+00 SP= 0.00E+00 SK= 0.00E+00
       N       E                     dE             d eps       ncg     rms          rms(c)
RMM:   1    -0.413165350846E+03    0.41645E-02   -0.10336E+01  4307   0.734E-01    0.911E-01
RMM:   2    -0.413173108457E+03   -0.77576E-02   -0.12523E-01  4320   0.985E-02    0.645E-01
RMM:   3    -0.413174449161E+03   -0.13407E-02   -0.12613E-02  5108   0.694E-02    0.285E-01
RMM:   4    -0.413202347339E+03   -0.27898E-01   -0.43519E-02  5091   0.176E-01    0.735E-01
RMM:   5    -0.413170688148E+03    0.31659E-01   -0.13356E-02  4718   0.121E-01    0.560E-02
RMM:   6    -0.413170767652E+03   -0.79504E-04   -0.23355E-03  5579   0.481E-02    0.280E-02
RMM:   7    -0.413170777717E+03   -0.10066E-04   -0.36027E-04  6005   0.165E-02    0.178E-02
RMM:   8    -0.413170772514E+03    0.52034E-05   -0.65212E-05  5219   0.863E-03    0.795E-03
RMM:   9    -0.413170765629E+03    0.68851E-05   -0.10205E-05  3532   0.379E-03    0.379E-03
RMM:  10    -0.413170763226E+03    0.24031E-05   -0.22047E-06  2581   0.216E-03    0.259E-03
RMM:  11    -0.413170759438E+03    0.37876E-05   -0.11720E-06  2506   0.174E-03    0.142E-03
RMM:  12    -0.413170755919E+03    0.35194E-05   -0.63284E-07  2439   0.133E-03    0.451E-04
RMM:  13    -0.413170754140E+03    0.17787E-05   -0.31119E-07  1991   0.943E-04    0.277E-04
RMM:  14    -0.413170752581E+03    0.15583E-05   -0.18027E-07  1500   0.765E-04    0.192E-04
RMM:  15    -0.413170749949E+03    0.26330E-05   -0.14667E-07  1308   0.715E-04    0.900E-05
RMM:  16    -0.413170747709E+03    0.22394E-05   -0.11788E-07  1343   0.681E-04    0.949E-05
RMM:  17    -0.413170745170E+03    0.25390E-05   -0.10667E-07  1333   0.653E-04    0.563E-05
RMM:  18    -0.413170743332E+03    0.18382E-05   -0.69087E-08  1098   0.587E-04    0.256E-05
RMM:  19    -0.413170742694E+03    0.63801E-06   -0.33038E-08   828   0.536E-04
   19 T=    62. E= -.41286673E+03 F= -.41317074E+03 E0= -.41314867E+03  EK= 0.30401E+00 SP= 0.00E+00 SK= 0.00E+00
       N       E                     dE             d eps       ncg     rms          rms(c)
RMM:   1    -0.413165627543E+03    0.51158E-02   -0.10274E+01  4298   0.737E-01    0.901E-01
RMM:   2    -0.413173357528E+03   -0.77300E-02   -0.12467E-01  4274   0.963E-02    0.639E-01
RMM:   3    -0.413171687866E+03    0.16697E-02   -0.98936E-03  4939   0.453E-02    0.156E-01
RMM:   4    -0.413208494863E+03   -0.36807E-01   -0.39222E-02  5138   0.164E-01    0.798E-01
RMM:   5    -0.413170891672E+03    0.37603E-01   -0.18377E-02  4793   0.134E-01    0.489E-02
RMM:   6    -0.413171090929E+03   -0.19926E-03   -0.29968E-03  5763   0.537E-02    0.306E-02
RMM:   7    -0.413171091710E+03   -0.78114E-06   -0.43303E-04  5765   0.185E-02    0.198E-02
RMM:   8    -0.413171084554E+03    0.71568E-05   -0.71507E-05  5176   0.869E-03    0.978E-03
RMM:   9    -0.413171078003E+03    0.65509E-05   -0.14814E-05  4098   0.431E-03    0.674E-03
RMM:  10    -0.413171074485E+03    0.35180E-05   -0.20881E-06  2583   0.214E-03    0.438E-03
RMM:  11    -0.413171071099E+03    0.33862E-05   -0.12881E-06  2509   0.181E-03    0.223E-03
RMM:  12    -0.413171066457E+03    0.46414E-05   -0.13874E-06  2525   0.183E-03    0.806E-04
RMM:  13    -0.413171065190E+03    0.12673E-05   -0.44451E-07  2292   0.119E-03    0.562E-04
RMM:  14    -0.413171065148E+03    0.41626E-07   -0.20953E-07  1798   0.815E-04
   20 T=    62. E= -.41286640E+03 F= -.41317107E+03 E0= -.41314903E+03  EK= 0.30466E+00 SP= 0.00E+00 SK= 0.00E+00
       N       E                     dE             d eps       ncg     rms          rms(c)
RMM:   1    -0.413166422287E+03    0.46429E-02   -0.10320E+01  4296   0.751E-01    0.889E-01
RMM:   2    -0.413175025204E+03   -0.86029E-02   -0.12777E-01  4283   0.975E-02    0.649E-01
RMM:   3    -0.413172539330E+03    0.24859E-02   -0.99320E-03  4852   0.434E-02    0.132E-01
RMM:   4    -0.413201441685E+03   -0.28902E-01   -0.30070E-02  5129   0.144E-01    0.709E-01
RMM:   5    -0.413172013352E+03    0.29428E-01   -0.14480E-02  4800   0.118E-01    0.440E-02
RMM:   6    -0.413172181888E+03   -0.16854E-03   -0.23859E-03  5790   0.471E-02    0.276E-02
RMM:   7    -0.413172188020E+03   -0.61313E-05   -0.34339E-04  5737   0.168E-02    0.177E-02
RMM:   8    -0.413172183583E+03    0.44364E-05   -0.63549E-05  5025   0.820E-03    0.902E-03
RMM:   9    -0.413172179911E+03    0.36721E-05   -0.12819E-05  3967   0.409E-03    0.661E-03
RMM:  10    -0.413172179242E+03    0.66961E-06   -0.16772E-06  2554   0.203E-03
   21 T=    62. E= -.41286650E+03 F= -.41317218E+03 E0= -.41315019E+03  EK= 0.30567E+00 SP= 0.00E+00 SK= 0.00E+00
       N       E                     dE             d eps       ncg     rms          rms(c)
RMM:   1    -0.413173827701E+03   -0.16478E-02   -0.10436E+01  4300   0.788E-01    0.909E-01
RMM:   2    -0.413175892509E+03   -0.20648E-02   -0.12740E-01  4309   0.981E-02    0.649E-01
RMM:   3    -0.413176410718E+03   -0.51821E-03   -0.12233E-02  5087   0.662E-02    0.265E-01
RMM:   4    -0.413209035662E+03   -0.32625E-01   -0.46714E-02  5105   0.181E-01    0.779E-01
RMM:   5    -0.413173163279E+03    0.35872E-01   -0.15587E-02  4743   0.129E-01    0.561E-02
RMM:   6    -0.413173274106E+03   -0.11083E-03   -0.26622E-03  5624   0.514E-02    0.285E-02
RMM:   7    -0.413173283667E+03   -0.95605E-05   -0.39271E-04  5973   0.171E-02    0.184E-02
RMM:   8    -0.413173279073E+03    0.45933E-05   -0.69404E-05  5211   0.878E-03    0.830E-03
RMM:   9    -0.413173272305E+03    0.67680E-05   -0.11607E-05  3658   0.394E-03    0.406E-03
RMM:  10    -0.413173269738E+03    0.25671E-05   -0.24371E-06  2608   0.222E-03    0.283E-03
RMM:  11    -0.413173266209E+03    0.35289E-05   -0.11143E-06  2500   0.170E-03    0.145E-03
RMM:  12    -0.413173262440E+03    0.37694E-05   -0.67561E-07  2443   0.135E-03    0.427E-04
RMM:  13    -0.413173260567E+03    0.18725E-05   -0.33152E-07  2022   0.970E-04    0.274E-04
RMM:  14    -0.413173259143E+03    0.14242E-05   -0.18763E-07  1538   0.770E-04    0.183E-04
RMM:  15    -0.413173256649E+03    0.24944E-05   -0.14388E-07  1315   0.712E-04    0.918E-05
RMM:  16    -0.413173254330E+03    0.23184E-05   -0.11273E-07  1291   0.680E-04    0.105E-04
RMM:  17    -0.413173252157E+03    0.21735E-05   -0.89682E-08  1253   0.644E-04    0.644E-05
RMM:  18    -0.413173249866E+03    0.22906E-05   -0.74031E-08  1146   0.608E-04    0.288E-05
RMM:  19    -0.413173249196E+03    0.66984E-06   -0.33694E-08   843   0.549E-04
   22 T=    62. E= -.41286651E+03 F= -.41317325E+03 E0= -.41315131E+03  EK= 0.30674E+00 SP= 0.00E+00 SK= 0.00E+00
       N       E                     dE             d eps       ncg     rms          rms(c)
RMM:   1    -0.413168583858E+03    0.46660E-02   -0.10350E+01  4295   0.749E-01    0.911E-01
RMM:   2    -0.413176528804E+03   -0.79449E-02   -0.12584E-01  4282   0.990E-02    0.643E-01
RMM:   3    -0.413174484716E+03    0.20441E-02   -0.10095E-02  4873   0.470E-02    0.153E-01
RMM:   4    -0.413209373744E+03   -0.34889E-01   -0.36737E-02  5133   0.159E-01    0.777E-01
RMM:   5    -0.413173793489E+03    0.35580E-01   -0.17432E-02  4794   0.130E-01    0.482E-02
RMM:   6    -0.413173992016E+03   -0.19853E-03   -0.29243E-03  5780   0.521E-02    0.308E-02
RMM:   7    -0.413173993355E+03   -0.13392E-05   -0.40964E-04  5730   0.185E-02    0.196E-02
RMM:   8    -0.413173984056E+03    0.92999E-05   -0.73438E-05  5142   0.882E-03    0.102E-02
RMM:   9    -0.413173976325E+03    0.77306E-05   -0.14733E-05  4130   0.437E-03    0.721E-03
RMM:  10    -0.413173971634E+03    0.46913E-05   -0.20063E-06  2572   0.217E-03    0.466E-03
RMM:  11    -0.413173966985E+03    0.46486E-05   -0.14653E-06  2525   0.191E-03    0.235E-03
RMM:  12    -0.413173960764E+03    0.62210E-05   -0.14364E-06  2512   0.189E-03    0.822E-04
RMM:  13    -0.413173959086E+03    0.16785E-05   -0.46750E-07  2302   0.122E-03    0.568E-04
RMM:  14    -0.413173958978E+03    0.10750E-06   -0.22351E-07  1817   0.834E-04
   23 T=    63. E= -.41286632E+03 F= -.41317396E+03 E0= -.41315206E+03  EK= 0.30764E+00 SP= 0.00E+00 SK= 0.00E+00
       N       E                     dE             d eps       ncg     rms          rms(c)
RMM:   1    -0.413171453570E+03    0.25055E-02   -0.10366E+01  4292   0.796E-01    0.891E-01
RMM:   2    -0.413178533024E+03   -0.70795E-02   -0.12995E-01  4282   0.105E-01    0.649E-01
RMM:   3    -0.413175763051E+03    0.27700E-02   -0.98231E-03  4726   0.449E-02    0.128E-01
RMM:   4    -0.413198396719E+03   -0.22634E-01   -0.23255E-02  5138   0.127E-01    0.629E-01
RMM:   5    -0.413175402357E+03    0.22994E-01   -0.11477E-02  4809   0.105E-01    0.414E-02
RMM:   6    -0.413175526972E+03   -0.12461E-03   -0.18754E-03  5816   0.412E-02    0.257E-02
RMM:   7    -0.413175531298E+03   -0.43261E-05   -0.25474E-04  5699   0.154E-02    0.149E-02
RMM:   8    -0.413175526927E+03    0.43712E-05   -0.57355E-05  4995   0.775E-03    0.878E-03
RMM:   9    -0.413175522041E+03    0.48853E-05   -0.11139E-05  3883   0.393E-03    0.650E-03
RMM:  10    -0.413175520431E+03    0.16102E-05   -0.14768E-06  2542   0.200E-03    0.419E-03
RMM:  11    -0.413175517932E+03    0.24994E-05   -0.17190E-06  2540   0.210E-03    0.187E-03
RMM:  12    -0.413175515541E+03    0.23910E-05   -0.95158E-07  2450   0.159E-03    0.672E-04
RMM:  13    -0.413175515110E+03    0.43104E-06   -0.33665E-07  2091   0.999E-04
   24 T=    63. E= -.41286667E+03 F= -.41317552E+03 E0= -.41315367E+03  EK= 0.30885E+00 SP= 0.00E+00 SK= 0.00E+00
       N       E                     dE             d eps       ncg     rms          rms(c)
RMM:   1    -0.413177887440E+03   -0.23719E-02   -0.10498E+01  4298   0.825E-01    0.905E-01
RMM:   2    -0.413179428357E+03   -0.15409E-02   -0.14021E-01  4283   0.109E-01    0.656E-01
RMM:   3    -0.413176616101E+03    0.28123E-02   -0.95590E-03  4601   0.437E-02    0.137E-01
RMM:   4    -0.413191417790E+03   -0.14802E-01   -0.15345E-02  5143   0.103E-01    0.511E-01
RMM:   5    -0.413176404115E+03    0.15014E-01   -0.75252E-03  4824   0.846E-02    0.386E-02
RMM:   6    -0.413176464534E+03   -0.60420E-04   -0.12425E-03  5815   0.329E-02    0.224E-02
RMM:   7    -0.413176469420E+03   -0.48852E-05   -0.17058E-04  5642   0.128E-02    0.119E-02
RMM:   8    -0.413176460076E+03    0.93440E-05   -0.35702E-05  4813   0.625E-03    0.724E-03
RMM:   9    -0.413176458649E+03    0.14265E-05   -0.76676E-06  3481   0.334E-03    0.583E-03
RMM:  10    -0.413176455889E+03    0.27605E-05   -0.10963E-06  2513   0.188E-03    0.358E-03
RMM:  11    -0.413176452383E+03    0.35054E-05   -0.11566E-06  2503   0.176E-03    0.176E-03
RMM:  12    -0.413176448807E+03    0.35764E-05   -0.74551E-07  2405   0.139E-03    0.632E-04
RMM:  13    -0.413176447963E+03    0.84338E-06   -0.27059E-07  1982   0.908E-04
   25 T=    63. E= -.41286647E+03 F= -.41317645E+03 E0= -.41315465E+03  EK= 0.30998E+00 SP= 0.00E+00 SK= 0.00E+00
       N       E                     dE             d eps       ncg     rms          rms(c)
RMM:   1    -0.413172607342E+03    0.38415E-02   -0.10438E+01  4294   0.767E-01    0.920E-01
RMM:   2    -0.413180262407E+03   -0.76551E-02   -0.12712E-01  4281   0.102E-01    0.648E-01
RMM:   3    -0.413177968346E+03    0.22941E-02   -0.10089E-02  4585   0.443E-02    0.131E-01
RMM:   4    -0.413192788003E+03   -0.14820E-01   -0.15176E-02  5146   0.103E-01    0.511E-01
RMM:   5    -0.413177796683E+03    0.14991E-01   -0.75506E-03  4823   0.844E-02    0.397E-02
RMM:   6    -0.413177850254E+03   -0.53571E-04   -0.12471E-03  5827   0.330E-02    0.228E-02
RMM:   7    -0.413177842873E+03    0.73809E-05   -0.14111E-04  5518   0.121E-02    0.103E-02
RMM:   8    -0.413177834977E+03    0.78960E-05   -0.23867E-05  4481   0.510E-03    0.696E-03
RMM:   9    -0.413177831889E+03    0.30880E-05   -0.55770E-06  3078   0.283E-03    0.553E-03
RMM:  10    -0.413177827739E+03    0.41502E-05   -0.10295E-06  2506   0.181E-03    0.354E-03
RMM:  11    -0.413177819460E+03    0.82790E-05   -0.15611E-06  2531   0.202E-03    0.176E-03
RMM:  12    -0.413177813696E+03    0.57645E-05   -0.72312E-07  2413   0.143E-03    0.830E-04
RMM:  13    -0.413177812735E+03    0.96106E-06   -0.24492E-07  1990   0.888E-04
   26 T=    63. E= -.41286649E+03 F= -.41317781E+03 E0= -.41315606E+03  EK= 0.31132E+00 SP= 0.00E+00 SK= 0.00E+00
       N       E                     dE             d eps       ncg     rms          rms(c)
RMM:   1    -0.413174005492E+03    0.38082E-02   -0.10400E+01  4292   0.786E-01    0.897E-01
RMM:   2    -0.413182238457E+03   -0.82330E-02   -0.12861E-01  4279   0.105E-01    0.650E-01
RMM:   3    -0.413179707581E+03    0.25309E-02   -0.99901E-03  4528   0.446E-02    0.120E-01
RMM:   4    -0.413191123983E+03   -0.11416E-01   -0.11799E-02  5147   0.907E-02    0.450E-01
RMM:   5    -0.413179574916E+03    0.11549E-01   -0.58729E-03  4832   0.741E-02    0.370E-02
RMM:   6    -0.413179610989E+03   -0.36073E-04   -0.97013E-04  5833   0.290E-02    0.213E-02
RMM:   7    -0.413179615328E+03   -0.43390E-05   -0.16989E-04  5542   0.130E-02    0.136E-02
RMM:   8    -0.413179601811E+03    0.13516E-04   -0.30185E-05  4677   0.616E-03    0.660E-03
RMM:   9    -0.413179599928E+03    0.18835E-05   -0.58836E-06  3136   0.300E-03    0.521E-03
RMM:  10    -0.413179596911E+03    0.30165E-05   -0.11293E-06  2497   0.188E-03    0.302E-03
RMM:  11    -0.413179593100E+03    0.38114E-05   -0.90180E-07  2483   0.159E-03    0.150E-03
RMM:  12    -0.413179589177E+03    0.39231E-05   -0.56501E-07  2340   0.123E-03    0.584E-04
RMM:  13    -0.413179588121E+03    0.10560E-05   -0.22856E-07  1856   0.844E-04    0.322E-04
RMM:  14    -0.413179586916E+03    0.12047E-05   -0.11921E-07  1300   0.684E-04    0.233E-04
RMM:  15    -0.413179583111E+03    0.38047E-05   -0.13732E-07  1481   0.723E-04    0.156E-04
RMM:  16    -0.413179582475E+03    0.63640E-06   -0.48227E-08   905   0.590E-04
   27 T=    64. E= -.41286671E+03 F= -.41317958E+03 E0= -.41315788E+03  EK= 0.31287E+00 SP= 0.00E+00 SK= 0.00E+00
       N       E                     dE             d eps       ncg     rms          rms(c)
RMM:   1    -0.413176254903E+03    0.33282E-02   -0.10521E+01  4292   0.815E-01    0.906E-01
RMM:   2    -0.413183537615E+03   -0.72827E-02   -0.13240E-01  4276   0.109E-01    0.661E-01
RMM:   3    -0.413180954914E+03    0.25827E-02   -0.10356E-02  4684   0.472E-02    0.128E-01
RMM:   4    -0.413202374392E+03   -0.21419E-01   -0.21914E-02  5149   0.124E-01    0.612E-01
RMM:   5    -0.413180636814E+03    0.21738E-01   -0.10887E-02  4812   0.101E-01    0.411E-02
RMM:   6    -0.413180738838E+03   -0.10202E-03   -0.17288E-03  5841   0.395E-02    0.250E-02
RMM:   7    -0.413180740724E+03   -0.18865E-05   -0.20777E-04  5617   0.141E-02    0.121E-02
RMM:   8    -0.413180737608E+03    0.31163E-05   -0.39767E-05  4871   0.643E-03    0.809E-03
RMM:   9    -0.413180733993E+03    0.36148E-05   -0.95983E-06  3690   0.348E-03    0.625E-03
RMM:  10    -0.413180732397E+03    0.15960E-05   -0.14670E-06  2540   0.204E-03    0.401E-03
RMM:  11    -0.413180729735E+03    0.26620E-05   -0.16608E-06  2538   0.202E-03    0.190E-03
RMM:  12    -0.413180726473E+03    0.32623E-05   -0.10459E-06  2474   0.167E-03    0.825E-04
RMM:  13    -0.413180725984E+03    0.48853E-06   -0.32369E-07  2151   0.102E-03
   28 T=    64. E= -.41286638E+03 F= -.41318073E+03 E0= -.41315908E+03  EK= 0.31435E+00 SP= 0.00E+00 SK= 0.00E+00
       N       E                     dE             d eps       ncg     rms          rms(c)
RMM:   1    -0.413177683263E+03    0.30432E-02   -0.10545E+01  4292   0.791E-01    0.928E-01
RMM:   2    -0.413185218680E+03   -0.75354E-02   -0.12939E-01  4276   0.107E-01    0.654E-01
RMM:   3    -0.413182773711E+03    0.24450E-02   -0.10485E-02  4369   0.460E-02    0.126E-01
RMM:   4    -0.413186659291E+03   -0.38856E-02   -0.45068E-03  5145   0.559E-02    0.265E-01
RMM:   5    -0.413182750553E+03    0.39087E-02   -0.20273E-03  4826   0.438E-02    0.362E-02
RMM:   6    -0.413182757886E+03   -0.73333E-05   -0.48064E-04  5692   0.212E-02    0.237E-02
RMM:   7    -0.413182738521E+03    0.19365E-04   -0.18877E-04  5198   0.140E-02    0.136E-02
RMM:   8    -0.413182729014E+03    0.95072E-05   -0.11727E-05  3675   0.466E-03    0.553E-03
RMM:   9    -0.413182725664E+03    0.33505E-05   -0.19805E-06  2557   0.209E-03    0.350E-03
RMM:  10    -0.413182719351E+03    0.63130E-05   -0.11410E-06  2482   0.174E-03    0.182E-03
RMM:  11    -0.413182714310E+03    0.50403E-05   -0.54744E-07  2310   0.124E-03    0.874E-04
RMM:  12    -0.413182709400E+03    0.49103E-05   -0.33248E-07  2035   0.966E-04    0.332E-04
RMM:  13    -0.413182705809E+03    0.35907E-05   -0.19331E-07  1567   0.769E-04    0.235E-04
RMM:  14    -0.413182701965E+03    0.38439E-05   -0.11617E-07  1256   0.681E-04    0.136E-04
RMM:  15    -0.413182697147E+03    0.48185E-05   -0.10514E-07  1272   0.674E-04    0.829E-05
RMM:  16    -0.413182694451E+03    0.26961E-05   -0.68846E-08  1154   0.615E-04    0.602E-05
RMM:  17    -0.413182691000E+03    0.34505E-05   -0.67024E-08  1202   0.603E-04    0.376E-05
RMM:  18    -0.413182690364E+03    0.63578E-06   -0.26605E-08   783   0.518E-04
   29 T=    64. E= -.41286651E+03 F= -.41318269E+03 E0= -.41316109E+03  EK= 0.31618E+00 SP= 0.00E+00 SK= 0.00E+00
       N       E                     dE             d eps       ncg     rms          rms(c)
RMM:   1    -0.413179125240E+03    0.35658E-02   -0.10496E+01  4287   0.801E-01    0.907E-01
RMM:   2    -0.413187505883E+03   -0.83806E-02   -0.13062E-01  4273   0.112E-01    0.653E-01
RMM:   3    -0.413184729210E+03    0.27767E-02   -0.10327E-02  4465   0.489E-02    0.123E-01
RMM:   4    -0.413193442464E+03   -0.87133E-02   -0.91661E-03  5150   0.807E-02    0.394E-01
RMM:   5    -0.413184627118E+03    0.88153E-02   -0.44839E-03  4826   0.648E-02    0.371E-02
RMM:   6    -0.413184650213E+03   -0.23095E-04   -0.80051E-04  5812   0.266E-02    0.235E-02
RMM:   7    -0.413184649640E+03    0.57282E-06   -0.21370E-04  5393   0.144E-02    0.153E-02
RMM:   8    -0.413184634398E+03    0.15242E-04   -0.22953E-05  4449   0.597E-03    0.649E-03
RMM:   9    -0.413184632120E+03    0.22779E-05   -0.43180E-06  2926   0.266E-03    0.464E-03
RMM:  10    -0.413184628518E+03    0.36021E-05   -0.13212E-06  2495   0.190E-03    0.256E-03
RMM:  11    -0.413184624653E+03    0.38653E-05   -0.82799E-07  2461   0.154E-03    0.125E-03
RMM:  12    -0.413184621295E+03    0.33585E-05   -0.46640E-07  2277   0.116E-03    0.602E-04
RMM:  13    -0.413184619786E+03    0.15087E-05   -0.21717E-07  1780   0.826E-04    0.267E-04
RMM:  14    -0.413184617821E+03    0.19650E-05   -0.12607E-07  1359   0.696E-04    0.162E-04
RMM:  15    -0.413184614917E+03    0.29040E-05   -0.88912E-08  1179   0.657E-04    0.735E-05
RMM:  16    -0.413184613645E+03    0.12721E-05   -0.47919E-08   944   0.604E-04    0.612E-05
RMM:  17    -0.413184611518E+03    0.21271E-05   -0.49508E-08  1021   0.603E-04    0.351E-05
RMM:  18    -0.413184609345E+03    0.21727E-05   -0.44650E-08  1043   0.592E-04    0.268E-05
RMM:  19    -0.413184608836E+03    0.50859E-06   -0.15222E-08   708   0.538E-04
   30 T=    65. E= -.41286660E+03 F= -.41318461E+03 E0= -.41316306E+03  EK= 0.31801E+00 SP= 0.00E+00 SK= 0.00E+00
       N       E                     dE             d eps       ncg     rms          rms(c)
RMM:   1    -0.413188583859E+03   -0.39745E-02   -0.10692E+01  4290   0.867E-01    0.907E-01
RMM:   2    -0.413189835354E+03   -0.12515E-02   -0.14934E-01  4276   0.122E-01    0.668E-01
RMM:   3    -0.413186285054E+03    0.35503E-02   -0.99902E-03  4373   0.511E-02    0.138E-01
RMM:   4    -0.413191571954E+03   -0.52869E-02   -0.60254E-03  5141   0.658E-02    0.306E-01
RMM:   5    -0.413186299123E+03    0.52728E-02   -0.26506E-03  4823   0.503E-02    0.353E-02
RMM:   6    -0.413186310950E+03   -0.11826E-04   -0.52943E-04  5769   0.222E-02    0.232E-02
RMM:   7    -0.413186305937E+03    0.50123E-05   -0.19482E-04  5257   0.138E-02    0.141E-02
RMM:   8    -0.413186295189E+03    0.10748E-04   -0.14890E-05  4052   0.517E-03    0.585E-03
RMM:   9    -0.413186294024E+03    0.11652E-05   -0.26938E-06  2682   0.222E-03    0.377E-03
RMM:  10    -0.413186291879E+03    0.21450E-05   -0.12098E-06  2482   0.175E-03    0.195E-03
RMM:  11    -0.413186290019E+03    0.18593E-05   -0.65200E-07  2404   0.133E-03    0.928E-04
RMM:  12    -0.413186288254E+03    0.17653E-05   -0.35126E-07  2086   0.990E-04    0.420E-04
RMM:  13    -0.413186287067E+03    0.11871E-05   -0.17591E-07  1483   0.752E-04    0.225E-04
RMM:  14    -0.413186285613E+03    0.14537E-05   -0.10946E-07  1170   0.671E-04    0.145E-04
RMM:  15    -0.413186283336E+03    0.22768E-05   -0.96057E-08  1156   0.661E-04    0.708E-05
RMM:  16    -0.413186282603E+03    0.73365E-06   -0.45291E-08   920   0.595E-04
   31 T=    65. E= -.41286643E+03 F= -.41318628E+03 E0= -.41316478E+03  EK= 0.31986E+00 SP= 0.00E+00 SK= 0.00E+00
       N       E                     dE             d eps       ncg     rms          rms(c)
RMM:   1    -0.413186639811E+03   -0.35647E-03   -0.10698E+01  4293   0.843E-01    0.934E-01
RMM:   2    -0.413191859641E+03   -0.52198E-02   -0.13314E-01  4287   0.123E-01    0.662E-01
RMM:   3    -0.413188960930E+03    0.28987E-02   -0.10871E-02  4386   0.542E-02    0.127E-01
RMM:   4    -0.413194410229E+03   -0.54493E-02   -0.59881E-03  5164   0.655E-02    0.311E-01
RMM:   5    -0.413188959319E+03    0.54509E-02   -0.27826E-03  4828   0.513E-02    0.373E-02
RMM:   6    -0.413188975474E+03   -0.16156E-04   -0.58900E-04  5758   0.235E-02    0.259E-02
RMM:   7    -0.413188958409E+03    0.17066E-04   -0.21405E-04  5241   0.146E-02    0.144E-02
RMM:   8    -0.413188947384E+03    0.11025E-04   -0.16249E-05  4123   0.525E-03    0.612E-03
RMM:   9    -0.413188944485E+03    0.28986E-05   -0.25004E-06  2655   0.219E-03    0.392E-03
RMM:  10    -0.413188938492E+03    0.59935E-05   -0.11230E-06  2481   0.172E-03    0.201E-03
RMM:  11    -0.413188933419E+03    0.50723E-05   -0.64098E-07  2400   0.131E-03    0.966E-04
RMM:  12    -0.413188928864E+03    0.45555E-05   -0.35489E-07  2099   0.101E-03    0.419E-04
RMM:  13    -0.413188926141E+03    0.27230E-05   -0.18627E-07  1563   0.773E-04    0.221E-04
RMM:  14    -0.413188922989E+03    0.31517E-05   -0.10569E-07  1194   0.675E-04    0.143E-04
RMM:  15    -0.413188918341E+03    0.46478E-05   -0.91271E-08  1220   0.663E-04    0.753E-05
RMM:  16    -0.413188916558E+03    0.17830E-05   -0.50386E-08   987   0.596E-04    0.643E-05
RMM:  17    -0.413188912843E+03    0.37153E-05   -0.58570E-08  1155   0.613E-04    0.344E-05
RMM:  18    -0.413188911146E+03    0.16971E-05   -0.32934E-08   910   0.557E-04    0.222E-05
RMM:  19    -0.413188910792E+03    0.35431E-06   -0.14000E-08   673   0.522E-04
   32 T=    66. E= -.41286681E+03 F= -.41318891E+03 E0= -.41316746E+03  EK= 0.32210E+00 SP= 0.00E+00 SK= 0.00E+00
       N       E                     dE             d eps       ncg     rms          rms(c)
RMM:   1    -0.413186866229E+03    0.20449E-02   -0.10647E+01  4291   0.852E-01    0.921E-01
RMM:   2    -0.413193791847E+03   -0.69256E-02   -0.13410E-01  4283   0.127E-01    0.658E-01
RMM:   3    -0.413190776888E+03    0.30150E-02   -0.10577E-02  4215   0.504E-02    0.125E-01
RMM:   4    -0.413190922055E+03   -0.14517E-03   -0.10217E-03  4756   0.223E-02    0.434E-02
RMM:   5    -0.413190933933E+03   -0.11878E-04   -0.13835E-04  4922   0.114E-02    0.475E-02
RMM:   6    -0.413190880927E+03    0.53006E-04   -0.22952E-04  5191   0.150E-02    0.262E-02
RMM:   7    -0.413190848928E+03    0.31999E-04   -0.16083E-04  4856   0.123E-02    0.125E-02
RMM:   8    -0.413190845989E+03    0.29386E-05   -0.13697E-05  3774   0.428E-03    0.439E-03
RMM:   9    -0.413190844680E+03    0.13097E-05   -0.22459E-06  2420   0.195E-03    0.181E-03
RMM:  10    -0.413190837337E+03    0.73423E-05   -0.67949E-07  2311   0.129E-03    0.766E-04
RMM:  11    -0.413190833146E+03    0.41909E-05   -0.18988E-07  1480   0.751E-04    0.385E-04
RMM:  12    -0.413190829885E+03    0.32611E-05   -0.11971E-07  1321   0.678E-04    0.205E-04
RMM:  13    -0.413190826180E+03    0.37056E-05   -0.98507E-08  1230   0.651E-04    0.115E-04
RMM:  14    -0.413190821447E+03    0.47331E-05   -0.76353E-08  1043   0.622E-04    0.114E-04
RMM:  15    -0.413190819858E+03    0.15889E-05   -0.23304E-08   627   0.544E-04    0.619E-05
RMM:  16    -0.413190815963E+03    0.38942E-05   -0.44650E-08   903   0.587E-04    0.366E-05
RMM:  17    -0.413190815185E+03    0.77823E-06   -0.13981E-08   611   0.524E-04
   33 T=    66. E= -.41286663E+03 F= -.41319082E+03 E0= -.41316942E+03  EK= 0.32418E+00 SP= 0.00E+00 SK= 0.00E+00
       N       E                     dE             d eps       ncg     rms          rms(c)
RMM:   1    -0.413194873376E+03   -0.40574E-02   -0.10805E+01  4299   0.924E-01    0.912E-01
RMM:   2    -0.413196348454E+03   -0.14751E-02   -0.15118E-01  4281   0.135E-01    0.673E-01
RMM:   3    -0.413193233161E+03    0.31153E-02   -0.10319E-02  4211   0.556E-02    0.134E-01
RMM:   4    -0.413193533706E+03   -0.30054E-03   -0.13631E-03  4965   0.271E-02    0.744E-02
RMM:   5    -0.413193284794E+03    0.24891E-03   -0.18877E-04  4714   0.139E-02    0.366E-02
RMM:   6    -0.413193283651E+03    0.11428E-05   -0.22023E-04  5308   0.148E-02    0.247E-02
RMM:   7    -0.413193262428E+03    0.21223E-04   -0.16372E-04  4813   0.122E-02    0.151E-02
RMM:   8    -0.413193258167E+03    0.42610E-05   -0.14029E-05  3606   0.426E-03    0.505E-03
RMM:   9    -0.413193257705E+03    0.46243E-06   -0.23923E-06  2354   0.197E-03
   34 T=    66. E= -.41286664E+03 F= -.41319326E+03 E0= -.41317191E+03  EK= 0.32662E+00 SP= 0.00E+00 SK= 0.00E+00
       N       E                     dE             d eps       ncg     rms          rms(c)
RMM:   1    -0.413192249492E+03    0.10087E-02   -0.10834E+01  4302   0.889E-01    0.938E-01
RMM:   2    -0.413198846139E+03   -0.65966E-02   -0.13934E-01  4272   0.130E-01    0.672E-01
RMM:   3    -0.413195978248E+03    0.28679E-02   -0.10918E-02  4308   0.559E-02    0.127E-01
RMM:   4    -0.413196332425E+03   -0.35418E-03   -0.13252E-03  5068   0.267E-02    0.794E-02
RMM:   5    -0.413196046704E+03    0.28572E-03   -0.23262E-04  4796   0.155E-02    0.406E-02
RMM:   6    -0.413196025293E+03    0.21411E-04   -0.22040E-04  5269   0.152E-02    0.283E-02
RMM:   7    -0.413196002050E+03    0.23243E-04   -0.18436E-04  4723   0.119E-02    0.161E-02
RMM:   8    -0.413195996275E+03    0.57752E-05   -0.13748E-05  3821   0.441E-03    0.616E-03
RMM:   9    -0.413195994936E+03    0.13390E-05   -0.34854E-06  2376   0.195E-03    0.220E-03
RMM:  10    -0.413195983909E+03    0.11027E-04   -0.11617E-06  2294   0.149E-03    0.586E-04
RMM:  11    -0.413195979820E+03    0.40886E-05   -0.29779E-07  1794   0.909E-04    0.321E-04
RMM:  12    -0.413195976588E+03    0.32325E-05   -0.15629E-07  1425   0.738E-04    0.228E-04
RMM:  13    -0.413195970435E+03    0.61529E-05   -0.10343E-07  1025   0.653E-04    0.116E-04
RMM:  14    -0.413195964756E+03    0.56789E-05   -0.80294E-08  1050   0.637E-04    0.133E-04
RMM:  15    -0.413195960651E+03    0.41052E-05   -0.56917E-08   975   0.595E-04    0.123E-04
RMM:  16    -0.413195957189E+03    0.34618E-05   -0.41672E-08   845   0.564E-04    0.364E-05
RMM:  17    -0.413195956335E+03    0.85432E-06   -0.13467E-08   540   0.509E-04
   35 T=    67. E= -.41286675E+03 F= -.41319596E+03 E0= -.41317465E+03  EK= 0.32921E+00 SP= 0.00E+00 SK= 0.00E+00
       N       E                     dE             d eps       ncg     rms          rms(c)
RMM:   1    -0.413193523884E+03    0.24333E-02   -0.10821E+01  4299   0.907E-01    0.937E-01
RMM:   2    -0.413200665493E+03   -0.71416E-02   -0.13909E-01  4263   0.131E-01    0.666E-01
RMM:   3    -0.413198176826E+03    0.24887E-02   -0.11048E-02  4587   0.578E-02    0.143E-01
RMM:   4    -0.413216551727E+03   -0.18375E-01   -0.18595E-02  5164   0.115E-01    0.569E-01
RMM:   5    -0.413198027253E+03    0.18524E-01   -0.94093E-03  4810   0.945E-02    0.431E-02
RMM:   6    -0.413198034906E+03   -0.76526E-05   -0.15627E-03  5837   0.380E-02    0.280E-02
RMM:   7    -0.413198043952E+03   -0.90459E-05   -0.29150E-04  5551   0.164E-02    0.171E-02
RMM:   8    -0.413198027711E+03    0.16241E-04   -0.49307E-05  4960   0.774E-03    0.821E-03
RMM:   9    -0.413198024654E+03    0.30568E-05   -0.93788E-06  3612   0.376E-03    0.575E-03
RMM:  10    -0.413198018788E+03    0.58661E-05   -0.14283E-06  2531   0.210E-03    0.327E-03
RMM:  11    -0.413198013481E+03    0.53069E-05   -0.95387E-07  2494   0.159E-03    0.177E-03
RMM:  12    -0.413198005551E+03    0.79301E-05   -0.91438E-07  2470   0.155E-03    0.877E-04
RMM:  13    -0.413198002296E+03    0.32552E-05   -0.35433E-07  2176   0.104E-03    0.475E-04
RMM:  14    -0.413198001171E+03    0.11254E-05   -0.16219E-07  1513   0.743E-04    0.344E-04
RMM:  15    -0.413197997292E+03    0.38791E-05   -0.10444E-07  1273   0.683E-04    0.139E-04
RMM:  16    -0.413197994415E+03    0.28763E-05   -0.69277E-08  1106   0.637E-04    0.875E-05
RMM:  17    -0.413197991326E+03    0.30890E-05   -0.54951E-08  1077   0.616E-04    0.117E-04
RMM:  18    -0.413197987747E+03    0.35790E-05   -0.49360E-08  1092   0.601E-04    0.820E-05
RMM:  19    -0.413197986123E+03    0.16242E-05   -0.26292E-08   829   0.550E-04    0.430E-05
RMM:  20    -0.413197985818E+03    0.30487E-06   -0.15376E-08   704   0.529E-04
   36 T=    68. E= -.41286640E+03 F= -.41319799E+03 E0= -.41317672E+03  EK= 0.33159E+00 SP= 0.00E+00 SK= 0.00E+00
       N       E                     dE             d eps       ncg     rms          rms(c)
RMM:   1    -0.413214520094E+03   -0.16534E-01   -0.11065E+01  4303   0.107E+00    0.921E-01
RMM:   2    -0.413204530585E+03    0.99895E-02   -0.16080E-01  4260   0.142E-01    0.678E-01
RMM:   3    -0.413201342737E+03    0.31878E-02   -0.10398E-02  4665   0.577E-02    0.162E-01
RMM:   4    -0.413229858164E+03   -0.28515E-01   -0.28964E-02  5158   0.143E-01    0.705E-01
RMM:   5    -0.413201024348E+03    0.28834E-01   -0.14600E-02  4806   0.117E-01    0.464E-02
RMM:   6    -0.413201066972E+03   -0.42624E-04   -0.23426E-03  5863   0.457E-02    0.289E-02
RMM:   7    -0.413201077811E+03   -0.10838E-04   -0.29191E-04  5663   0.161E-02    0.146E-02
RMM:   8    -0.413201071923E+03    0.58881E-05   -0.48586E-05  4928   0.722E-03    0.866E-03
RMM:   9    -0.413201071674E+03    0.24843E-06   -0.17655E-05  4387   0.451E-03    0.697E-03
RMM:  10    -0.413201067158E+03    0.45162E-05   -0.23334E-06  2615   0.245E-03    0.401E-03
RMM:  11    -0.413201064793E+03    0.23653E-05   -0.13031E-06  2500   0.181E-03    0.245E-03
RMM:  12    -0.413201059011E+03    0.57815E-05   -0.16870E-06  2530   0.208E-03    0.115E-03
RMM:  13    -0.413201056716E+03    0.22951E-05   -0.55672E-07  2348   0.133E-03    0.701E-04
RMM:  14    -0.413201056618E+03    0.97687E-07   -0.22856E-07  1872   0.852E-04
   37 T=    68. E= -.41286675E+03 F= -.41320106E+03 E0= -.41317984E+03  EK= 0.33430E+00 SP= 0.00E+00 SK= 0.00E+00
       N       E                     dE             d eps       ncg     rms          rms(c)
RMM:   1    -0.413212272260E+03   -0.11216E-01   -0.11123E+01  4307   0.106E+00    0.941E-01
RMM:   2    -0.413207158213E+03    0.51140E-02   -0.15896E-01  4262   0.133E-01    0.683E-01
RMM:   3    -0.413203744107E+03    0.34141E-02   -0.10735E-02  4728   0.543E-02    0.165E-01
RMM:   4    -0.413234044630E+03   -0.30301E-01   -0.30911E-02  5157   0.147E-01    0.726E-01
RMM:   5    -0.413203368479E+03    0.30676E-01   -0.15593E-02  4802   0.121E-01    0.477E-02
RMM:   6    -0.413203413679E+03   -0.45200E-04   -0.24596E-03  5848   0.472E-02    0.301E-02
RMM:   7    -0.413203426472E+03   -0.12793E-04   -0.34300E-04  5709   0.172E-02    0.167E-02
RMM:   8    -0.413203416192E+03    0.10280E-04   -0.66080E-05  5052   0.845E-03    0.980E-03
RMM:   9    -0.413203413013E+03    0.31794E-05   -0.17481E-05  4419   0.482E-03    0.646E-03
RMM:  10    -0.413203407560E+03    0.54528E-05   -0.23745E-06  2631   0.238E-03    0.386E-03
RMM:  11    -0.413203403769E+03    0.37903E-05   -0.11433E-06  2495   0.173E-03    0.229E-03
RMM:  12    -0.413203395406E+03    0.83631E-05   -0.14070E-06  2507   0.193E-03    0.109E-03
RMM:  13    -0.413203391567E+03    0.38390E-05   -0.52077E-07  2335   0.127E-03    0.712E-04
RMM:  14    -0.413203391401E+03    0.16681E-06   -0.22031E-07  1858   0.836E-04
   38 T=    69. E= -.41286659E+03 F= -.41320339E+03 E0= -.41318221E+03  EK= 0.33680E+00 SP= 0.00E+00 SK= 0.00E+00
       N       E                     dE             d eps       ncg     rms          rms(c)
RMM:   1    -0.413203201306E+03    0.19026E-03   -0.11027E+01  4308   0.101E+00    0.954E-01
RMM:   2    -0.413209345877E+03   -0.61446E-02   -0.14473E-01  4265   0.124E-01    0.676E-01
RMM:   3    -0.413206605149E+03    0.27407E-02   -0.11616E-02  4922   0.549E-02    0.176E-01
RMM:   4    -0.413249776044E+03   -0.43171E-01   -0.45644E-02  5139   0.178E-01    0.863E-01
RMM:   5    -0.413205843863E+03    0.43932E-01   -0.21867E-02  4794   0.145E-01    0.541E-02
RMM:   6    -0.413205959752E+03   -0.11589E-03   -0.35643E-03  5827   0.560E-02    0.329E-02
RMM:   7    -0.413205969731E+03   -0.99784E-05   -0.41341E-04  5704   0.186E-02    0.171E-02
RMM:   8    -0.413205961368E+03    0.83624E-05   -0.50467E-05  4769   0.702E-03    0.866E-03
RMM:   9    -0.413205954123E+03    0.72454E-05   -0.97888E-06  3197   0.331E-03    0.525E-03
RMM:  10    -0.413205949567E+03    0.45555E-05   -0.19233E-06  2535   0.208E-03    0.355E-03
RMM:  11    -0.413205941841E+03    0.77263E-05   -0.17984E-06  2527   0.215E-03    0.194E-03
RMM:  12    -0.413205932994E+03    0.88466E-05   -0.11509E-06  2478   0.183E-03    0.968E-04
RMM:  13    -0.413205930060E+03    0.29342E-05   -0.43322E-07  2313   0.118E-03    0.650E-04
RMM:  14    -0.413205929298E+03    0.76250E-06   -0.20119E-07  1749   0.807E-04
   39 T=    69. E= -.41286656E+03 F= -.41320593E+03 E0= -.41318479E+03  EK= 0.33937E+00 SP= 0.00E+00 SK= 0.00E+00
       N       E                     dE             d eps       ncg     rms          rms(c)
RMM:   1    -0.413225502897E+03   -0.19573E-01   -0.11229E+01  4310   0.117E+00    0.932E-01
RMM:   2    -0.413212794697E+03    0.12708E-01   -0.16348E-01  4268   0.135E-01    0.682E-01
RMM:   3    -0.413209980246E+03    0.28145E-02   -0.11141E-02  4980   0.584E-02    0.208E-01
RMM:   4    -0.413262964781E+03   -0.52985E-01   -0.58120E-02  5132   0.201E-01    0.954E-01
RMM:   5    -0.413208689066E+03    0.54276E-01   -0.26657E-02  4781   0.161E-01    0.584E-02
RMM:   6    -0.413208849295E+03   -0.16023E-03   -0.43160E-03  5820   0.618E-02    0.339E-02
RMM:   7    -0.413208865445E+03   -0.16150E-04   -0.50412E-04  5825   0.200E-02    0.197E-02
RMM:   8    -0.413208867769E+03   -0.23240E-05   -0.10848E-04  5244   0.100E-02    0.130E-02
RMM:   9    -0.413208855526E+03    0.12244E-04   -0.28809E-05  4735   0.595E-03    0.687E-03
RMM:  10    -0.413208851038E+03    0.44872E-05   -0.47863E-06  2847   0.298E-03    0.422E-03
RMM:  11    -0.413208847300E+03    0.37384E-05   -0.16498E-06  2507   0.210E-03    0.251E-03
RMM:  12    -0.413208839844E+03    0.74558E-05   -0.14108E-06  2503   0.198E-03    0.877E-04
RMM:  13    -0.413208836055E+03    0.37888E-05   -0.59815E-07  2396   0.136E-03    0.614E-04
RMM:  14    -0.413208835205E+03    0.85032E-06   -0.26453E-07  1990   0.912E-04
   40 T=    70. E= -.41286678E+03 F= -.41320884E+03 E0= -.41318774E+03  EK= 0.34205E+00 SP= 0.00E+00 SK= 0.00E+00
       N       E                     dE             d eps       ncg     rms          rms(c)
RMM:   1    -0.413229731431E+03   -0.20895E-01   -0.11378E+01  4311   0.121E+00    0.943E-01
RMM:   2    -0.413214938767E+03    0.14793E-01   -0.17857E-01  4273   0.144E-01    0.695E-01
RMM:   3    -0.413212598549E+03    0.23402E-02   -0.11319E-02  5031   0.620E-02    0.246E-01
RMM:   4    -0.413270055557E+03   -0.57457E-01   -0.65697E-02  5128   0.214E-01    0.996E-01
RMM:   5    -0.413210720897E+03    0.59335E-01   -0.28784E-02  4776   0.168E-01    0.620E-02
RMM:   6    -0.413210898620E+03   -0.17772E-03   -0.46847E-03  5813   0.646E-02    0.350E-02
RMM:   7    -0.413210914396E+03   -0.15775E-04   -0.56913E-04  5846   0.211E-02    0.225E-02
RMM:   8    -0.413210915666E+03   -0.12706E-05   -0.13064E-04  5281   0.112E-02    0.139E-02
RMM:   9    -0.413210901926E+03    0.13740E-04   -0.27809E-05  4679   0.614E-03    0.628E-03
RMM:  10    -0.413210897716E+03    0.42105E-05   -0.59714E-06  3029   0.303E-03    0.396E-03
RMM:  11    -0.413210894212E+03    0.35041E-05   -0.15258E-06  2508   0.203E-03    0.232E-03
RMM:  12    -0.413210887762E+03    0.64492E-05   -0.11584E-06  2488   0.181E-03    0.763E-04
RMM:  13    -0.413210884095E+03    0.36669E-05   -0.54886E-07  2381   0.128E-03    0.488E-04
RMM:  14    -0.413210883024E+03    0.10718E-05   -0.25915E-07  1973   0.895E-04    0.334E-04
RMM:  15    -0.413210880725E+03    0.22990E-05   -0.13985E-07  1433   0.715E-04    0.160E-04
RMM:  16    -0.413210876788E+03    0.39362E-05   -0.10444E-07  1234   0.675E-04    0.134E-04
RMM:  17    -0.413210875139E+03    0.16494E-05   -0.59624E-08  1014   0.617E-04    0.734E-05
RMM:  18    -0.413210871853E+03    0.32860E-05   -0.59899E-08  1171   0.637E-04    0.759E-05
RMM:  19    -0.413210869995E+03    0.18581E-05   -0.38262E-08  1003   0.592E-04    0.399E-05
RMM:  20    -0.413210869110E+03    0.88495E-06   -0.23842E-08   866   0.561E-04
   41 T=    70. E= -.41286652E+03 F= -.41321087E+03 E0= -.41318980E+03  EK= 0.34435E+00 SP= 0.00E+00 SK= 0.00E+00
       N       E                     dE             d eps       ncg     rms          rms(c)
RMM:   1    -0.413220707368E+03   -0.98374E-02   -0.11285E+01  4310   0.121E+00    0.968E-01
RMM:   2    -0.413216779184E+03    0.39282E-02   -0.15036E-01  4288   0.137E-01    0.686E-01
RMM:   3    -0.413217075298E+03   -0.29611E-03   -0.14518E-02  5071   0.757E-02    0.293E-01
RMM:   4    -0.413253915534E+03   -0.36840E-01   -0.52624E-02  5090   0.193E-01    0.830E-01
RMM:   5    -0.413213396928E+03    0.40519E-01   -0.18007E-02  4740   0.138E-01    0.591E-02
RMM:   6    -0.413213463963E+03   -0.67035E-04   -0.31703E-03  5755   0.534E-02    0.340E-02
RMM:   7    -0.413213470545E+03   -0.65812E-05   -0.44982E-04  5766   0.193E-02    0.220E-02
RMM:   8    -0.413213465720E+03    0.48249E-05   -0.11941E-04  5203   0.111E-02    0.123E-02
RMM:   9    -0.413213451843E+03    0.13877E-04   -0.19710E-05  4413   0.554E-03    0.511E-03
RMM:  10    -0.413213446662E+03    0.51809E-05   -0.42958E-06  2846   0.265E-03    0.323E-03
RMM:  11    -0.413213441403E+03    0.52595E-05   -0.11961E-06  2489   0.185E-03    0.176E-03
RMM:  12    -0.413213433356E+03    0.80462E-05   -0.78926E-07  2463   0.153E-03    0.658E-04
RMM:  13    -0.413213428918E+03    0.44380E-05   -0.37749E-07  2190   0.107E-03    0.325E-04
RMM:  14    -0.413213426784E+03    0.21343E-05   -0.19985E-07  1725   0.805E-04    0.221E-04
RMM:  15    -0.413213421836E+03    0.49481E-05   -0.12616E-07  1342   0.710E-04    0.125E-04
RMM:  16    -0.413213418825E+03    0.30108E-05   -0.81251E-08  1155   0.652E-04    0.981E-05
RMM:  17    -0.413213415709E+03    0.31158E-05   -0.64382E-08  1163   0.636E-04    0.694E-05
RMM:  18    -0.413213412668E+03    0.30412E-05   -0.51005E-08  1140   0.614E-04    0.436E-05
RMM:  19    -0.413213410277E+03    0.23912E-05   -0.38940E-08  1063   0.586E-04    0.333E-05
RMM:  20    -0.413213409804E+03    0.47273E-06   -0.18460E-08   774   0.538E-04
   42 T=    71. E= -.41286679E+03 F= -.41321341E+03 E0= -.41319238E+03  EK= 0.34662E+00 SP= 0.00E+00 SK= 0.00E+00
       N       E                     dE             d eps       ncg     rms          rms(c)
RMM:   1    -0.413236652401E+03   -0.23242E-01   -0.11371E+01  4311   0.134E+00    0.945E-01
RMM:   2    -0.413218853806E+03    0.17799E-01   -0.16531E-01  4287   0.150E-01    0.687E-01
RMM:   3    -0.413220089734E+03   -0.12359E-02   -0.14580E-02  5077   0.822E-02    0.328E-01
RMM:   4    -0.413254885631E+03   -0.34796E-01   -0.53691E-02  5087   0.196E-01    0.820E-01
RMM:   5    -0.413215444285E+03    0.39441E-01   -0.17224E-02  4723   0.137E-01    0.599E-02
RMM:   6    -0.413215490109E+03   -0.45824E-04   -0.30360E-03  5746   0.525E-02    0.336E-02
RMM:   7    -0.413215492997E+03   -0.28888E-05   -0.43744E-04  5781   0.190E-02    0.223E-02
RMM:   8    -0.413215487430E+03    0.55679E-05   -0.11694E-04  5185   0.111E-02    0.117E-02
RMM:   9    -0.413215474998E+03    0.12432E-04   -0.20131E-05  4443   0.560E-03    0.460E-03
RMM:  10    -0.413215471492E+03    0.35063E-05   -0.40250E-06  2791   0.257E-03    0.290E-03
RMM:  11    -0.413215467211E+03    0.42800E-05   -0.12957E-06  2498   0.185E-03    0.157E-03
RMM:  12    -0.413215461715E+03    0.54962E-05   -0.72384E-07  2436   0.145E-03    0.613E-04
RMM:  13    -0.413215458600E+03    0.31157E-05   -0.35988E-07  2077   0.102E-03    0.283E-04
RMM:  14    -0.413215456331E+03    0.22685E-05   -0.19810E-07  1569   0.788E-04    0.178E-04
RMM:  15    -0.413215452061E+03    0.42704E-05   -0.13929E-07  1306   0.716E-04    0.110E-04
RMM:  16    -0.413215450111E+03    0.19497E-05   -0.86444E-08  1115   0.658E-04    0.788E-05
RMM:  17    -0.413215447295E+03    0.28156E-05   -0.71902E-08  1166   0.651E-04    0.499E-05
RMM:  18    -0.413215444890E+03    0.24049E-05   -0.57228E-08  1137   0.621E-04    0.387E-05
RMM:  19    -0.413215443427E+03    0.14631E-05   -0.37790E-08   970   0.578E-04    0.212E-05
RMM:  20    -0.413215442811E+03    0.61584E-06   -0.22637E-08   798   0.548E-04
   43 T=    71. E= -.41286691E+03 F= -.41321544E+03 E0= -.41319444E+03  EK= 0.34853E+00 SP= 0.00E+00 SK= 0.00E+00
       N       E                     dE             d eps       ncg     rms          rms(c)
RMM:   1    -0.413234623479E+03   -0.19180E-01   -0.11444E+01  4312   0.137E+00    0.947E-01
RMM:   2    -0.413220353233E+03    0.14270E-01   -0.17184E-01  4288   0.164E-01    0.700E-01
RMM:   3    -0.413222532777E+03   -0.21795E-02   -0.15859E-02  5073   0.907E-02    0.362E-01
RMM:   4    -0.413254879641E+03   -0.32347E-01   -0.54734E-02  5068   0.199E-01    0.807E-01
RMM:   5    -0.413216686524E+03    0.38193E-01   -0.16242E-02  4715   0.135E-01    0.603E-02
RMM:   6    -0.413216713658E+03   -0.27135E-04   -0.28631E-03  5713   0.512E-02    0.331E-02
RMM:   7    -0.413216712668E+03    0.99057E-06   -0.41195E-04  5797   0.187E-02    0.222E-02
RMM:   8    -0.413216707433E+03    0.52344E-05   -0.11018E-04  5158   0.109E-02    0.112E-02
RMM:   9    -0.413216696305E+03    0.11128E-04   -0.19871E-05  4420   0.558E-03    0.432E-03
RMM:  10    -0.413216693793E+03    0.25124E-05   -0.38132E-06  2782   0.249E-03    0.266E-03
RMM:  11    -0.413216690401E+03    0.33923E-05   -0.13443E-06  2508   0.184E-03    0.146E-03
RMM:  12    -0.413216686540E+03    0.38603E-05   -0.68215E-07  2435   0.139E-03    0.601E-04
RMM:  13    -0.413216684163E+03    0.23770E-05   -0.34100E-07  1952   0.967E-04    0.272E-04
RMM:  14    -0.413216682093E+03    0.20702E-05   -0.19920E-07  1503   0.775E-04    0.161E-04
RMM:  15    -0.413216678863E+03    0.32303E-05   -0.14651E-07  1300   0.715E-04    0.967E-05
RMM:  16    -0.413216677085E+03    0.17779E-05   -0.91995E-08  1118   0.659E-04    0.723E-05
RMM:  17    -0.413216674479E+03    0.26063E-05   -0.79370E-08  1206   0.655E-04    0.442E-05
RMM:  18    -0.413216672588E+03    0.18908E-05   -0.54580E-08  1076   0.614E-04    0.388E-05
RMM:  19    -0.413216671441E+03    0.11468E-05   -0.36310E-08   935   0.573E-04    0.218E-05
RMM:  20    -0.413216670948E+03    0.49330E-06   -0.20734E-08   753   0.544E-04
   44 T=    71. E= -.41286670E+03 F= -.41321667E+03 E0= -.41319569E+03  EK= 0.34997E+00 SP= 0.00E+00 SK= 0.00E+00
       N       E                     dE             d eps       ncg     rms          rms(c)
RMM:   1    -0.413244295252E+03   -0.27624E-01   -0.11516E+01  4310   0.150E+00    0.974E-01
RMM:   2    -0.413221226048E+03    0.23069E-01   -0.16773E-01  4313   0.170E-01    0.695E-01
RMM:   3    -0.413228231735E+03   -0.70057E-02   -0.19982E-02  5116   0.108E-01    0.456E-01
RMM:   4    -0.413241156608E+03   -0.12925E-01   -0.44028E-02  5036   0.181E-01    0.635E-01
RMM:   5    -0.413218204384E+03    0.22952E-01   -0.86684E-03  4636   0.107E-01    0.565E-02
RMM:   6    -0.413218172719E+03    0.31664E-04   -0.17495E-03  5557   0.407E-02    0.321E-02
RMM:   7    -0.413218167594E+03    0.51250E-05   -0.30133E-04  5626   0.168E-02    0.214E-02
RMM:   8    -0.413218154596E+03    0.12999E-04   -0.11051E-04  5064   0.110E-02    0.990E-03
RMM:   9    -0.413218141213E+03    0.13382E-04   -0.15080E-05  4242   0.532E-03    0.405E-03
RMM:  10    -0.413218137394E+03    0.38195E-05   -0.25833E-06  2683   0.223E-03    0.236E-03
RMM:  11    -0.413218131022E+03    0.63722E-05   -0.11321E-06  2483   0.175E-03    0.129E-03
RMM:  12    -0.413218125016E+03    0.60050E-05   -0.56373E-07  2411   0.131E-03    0.618E-04
RMM:  13    -0.413218121397E+03    0.36194E-05   -0.26755E-07  1834   0.896E-04    0.292E-04
RMM:  14    -0.413218117901E+03    0.34964E-05   -0.15104E-07  1345   0.716E-04    0.156E-04
RMM:  15    -0.413218112866E+03    0.50344E-05   -0.11875E-07  1252   0.686E-04    0.118E-04
RMM:  16    -0.413218110099E+03    0.27670E-05   -0.78627E-08  1131   0.639E-04    0.986E-05
RMM:  17    -0.413218105519E+03    0.45801E-05   -0.71321E-08  1204   0.639E-04    0.647E-05
RMM:  18    -0.413218103121E+03    0.23985E-05   -0.49328E-08  1091   0.592E-04    0.465E-05
RMM:  19    -0.413218101976E+03    0.11444E-05   -0.27883E-08   842   0.540E-04    0.280E-05
RMM:  20    -0.413218101361E+03    0.61568E-06   -0.18160E-08   728   0.522E-04
   45 T=    71. E= -.41286702E+03 F= -.41321810E+03 E0= -.41319715E+03  EK= 0.35108E+00 SP= 0.00E+00 SK= 0.00E+00
       N       E                     dE             d eps       ncg     rms          rms(c)
RMM:   1    -0.413252754557E+03   -0.34653E-01   -0.11485E+01  4311   0.159E+00    0.955E-01
RMM:   2    -0.413221171158E+03    0.31583E-01   -0.17795E-01  4338   0.184E-01    0.691E-01
RMM:   3    -0.413230761031E+03   -0.95899E-02   -0.21465E-02  5120   0.118E-01    0.512E-01
RMM:   4    -0.413237201387E+03   -0.64404E-02   -0.42499E-02  5015   0.180E-01    0.585E-01
RMM:   5    -0.413218115849E+03    0.19086E-01   -0.71135E-03  4597   0.101E-01    0.562E-02
RMM:   6    -0.413218059851E+03    0.55998E-04   -0.13887E-03  5423   0.371E-02    0.310E-02
RMM:   7    -0.413218053978E+03    0.58732E-05   -0.24898E-04  5598   0.156E-02    0.210E-02
RMM:   8    -0.413218042197E+03    0.11780E-04   -0.11990E-04  5069   0.114E-02    0.991E-03
RMM:   9    -0.413218028324E+03    0.13873E-04   -0.15627E-05  4277   0.549E-03    0.399E-03
RMM:  10    -0.413218025280E+03    0.30440E-05   -0.26535E-06  2688   0.219E-03    0.230E-03
RMM:  11    -0.413218019311E+03    0.59693E-05   -0.12390E-06  2493   0.179E-03    0.126E-03
RMM:  12    -0.413218014701E+03    0.46104E-05   -0.55122E-07  2408   0.130E-03    0.669E-04
RMM:  13    -0.413218011183E+03    0.35176E-05   -0.25870E-07  1775   0.886E-04    0.321E-04
RMM:  14    -0.413218007751E+03    0.34323E-05   -0.14348E-07  1335   0.707E-04    0.167E-04
RMM:  15    -0.413218003710E+03    0.40405E-05   -0.10423E-07  1196   0.665E-04    0.113E-04
RMM:  16    -0.413218001074E+03    0.26364E-05   -0.71162E-08  1099   0.624E-04    0.102E-04
RMM:  17    -0.413217997405E+03    0.36692E-05   -0.62801E-08  1172   0.622E-04    0.608E-05
RMM:  18    -0.413217994718E+03    0.26869E-05   -0.43861E-08  1024   0.583E-04    0.506E-05
RMM:  19    -0.413217993895E+03    0.82248E-06   -0.21400E-08   769   0.530E-04
   46 T=    71. E= -.41286682E+03 F= -.41321799E+03 E0= -.41319706E+03  EK= 0.35118E+00 SP= 0.00E+00 SK= 0.00E+00
       N       E                     dE             d eps       ncg     rms          rms(c)
RMM:   1    -0.413238960900E+03   -0.20966E-01   -0.11363E+01  4311   0.163E+00    0.943E-01
RMM:   2    -0.413220764934E+03    0.18196E-01   -0.18322E-01  4354   0.195E-01    0.704E-01
RMM:   3    -0.413231496453E+03   -0.10732E-01   -0.22736E-02  5125   0.126E-01    0.540E-01
RMM:   4    -0.413236879443E+03   -0.53830E-02   -0.45146E-02  5013   0.186E-01    0.592E-01
RMM:   5    -0.413217181737E+03    0.19698E-01   -0.72705E-03  4592   0.103E-01    0.579E-02
RMM:   6    -0.413217112389E+03    0.69347E-04   -0.13843E-03  5382   0.374E-02    0.308E-02
RMM:   7    -0.413217104859E+03    0.75298E-05   -0.24417E-04  5624   0.154E-02    0.214E-02
RMM:   8    -0.413217092267E+03    0.12593E-04   -0.12408E-04  5106   0.116E-02    0.102E-02
RMM:   9    -0.413217079218E+03    0.13049E-04   -0.17076E-05  4333   0.571E-03    0.407E-03
RMM:  10    -0.413217077135E+03    0.20830E-05   -0.28589E-06  2720   0.224E-03    0.235E-03
RMM:  11    -0.413217073026E+03    0.41083E-05   -0.13878E-06  2505   0.186E-03    0.132E-03
RMM:  12    -0.413217070009E+03    0.30173E-05   -0.58630E-07  2427   0.134E-03    0.714E-04
RMM:  13    -0.413217067283E+03    0.27262E-05   -0.29108E-07  1816   0.927E-04    0.344E-04
RMM:  14    -0.413217064758E+03    0.25251E-05   -0.15979E-07  1369   0.732E-04    0.174E-04
RMM:  15    -0.413217062037E+03    0.27204E-05   -0.11415E-07  1205   0.677E-04    0.104E-04
RMM:  16    -0.413217059933E+03    0.21049E-05   -0.79314E-08  1131   0.634E-04    0.944E-05
RMM:  17    -0.413217057613E+03    0.23191E-05   -0.61284E-08  1116   0.613E-04    0.517E-05
RMM:  18    -0.413217055199E+03    0.24145E-05   -0.51496E-08  1055   0.590E-04    0.430E-05
RMM:  19    -0.413217054622E+03    0.57642E-06   -0.22522E-08   733   0.529E-04
   47 T=    71. E= -.41286675E+03 F= -.41321705E+03 E0= -.41319614E+03  EK= 0.35031E+00 SP= 0.00E+00 SK= 0.00E+00
       N       E                     dE             d eps       ncg     rms          rms(c)
RMM:   1    -0.413247886346E+03   -0.30831E-01   -0.11378E+01  4306   0.176E+00    0.965E-01
RMM:   2    -0.413218445129E+03    0.29441E-01   -0.18159E-01  4407   0.203E-01    0.698E-01
RMM:   3    -0.413237303403E+03   -0.18858E-01   -0.29898E-02  5143   0.148E-01    0.657E-01
RMM:   4    -0.413226742879E+03    0.10561E-01   -0.41281E-02  4974   0.182E-01    0.467E-01
RMM:   5    -0.413215235871E+03    0.11507E-01   -0.46137E-03  4533   0.901E-02    0.582E-02
RMM:   6    -0.413215109672E+03    0.12620E-03   -0.61837E-04  4841   0.295E-02    0.301E-02
RMM:   7    -0.413215091642E+03    0.18030E-04   -0.18196E-04  5907   0.136E-02    0.136E-02
RMM:   8    -0.413215084189E+03    0.74529E-05   -0.77936E-05  5210   0.102E-02    0.116E-02
RMM:   9    -0.413215075928E+03    0.82612E-05   -0.19979E-05  4493   0.541E-03    0.430E-03
RMM:  10    -0.413215072383E+03    0.35455E-05   -0.27504E-06  2619   0.261E-03    0.237E-03
RMM:  11    -0.413215066872E+03    0.55105E-05   -0.18258E-06  2493   0.221E-03    0.150E-03
RMM:  12    -0.413215062593E+03    0.42795E-05   -0.70087E-07  2416   0.153E-03    0.906E-04
RMM:  13    -0.413215059062E+03    0.35311E-05   -0.29590E-07  2130   0.983E-04    0.547E-04
RMM:  14    -0.413215053190E+03    0.58713E-05   -0.21955E-07  1895   0.843E-04    0.433E-04
RMM:  15    -0.413215049200E+03    0.39900E-05   -0.98042E-08  1061   0.618E-04    0.171E-04
RMM:  16    -0.413215047419E+03    0.17816E-05   -0.61142E-08   955   0.578E-04    0.916E-05
RMM:  17    -0.413215043621E+03    0.37973E-05   -0.65115E-08  1066   0.610E-04    0.962E-05
RMM:  18    -0.413215041783E+03    0.18382E-05   -0.36107E-08   891   0.572E-04    0.782E-05
RMM:  19    -0.413215041211E+03    0.57199E-06   -0.19384E-08   707   0.531E-04
   48 T=    71. E= -.41286697E+03 F= -.41321504E+03 E0= -.41319414E+03  EK= 0.34807E+00 SP= 0.00E+00 SK= 0.00E+00
       N       E                     dE             d eps       ncg     rms          rms(c)
RMM:   1    -0.413248265706E+03   -0.33224E-01   -0.11194E+01  4306   0.187E+00    0.955E-01
RMM:   2    -0.413213854021E+03    0.34412E-01   -0.18077E-01  4466   0.214E-01    0.688E-01
RMM:   3    -0.413240239725E+03   -0.26386E-01   -0.36151E-02  5152   0.166E-01    0.751E-01
RMM:   4    -0.413218363406E+03    0.21876E-01   -0.40519E-02  4947   0.183E-01    0.394E-01
RMM:   5    -0.413210801938E+03    0.75615E-02   -0.44366E-03  4670   0.897E-02    0.665E-02
RMM:   6    -0.413210594037E+03    0.20790E-03   -0.45895E-04  4644   0.299E-02    0.333E-02
RMM:   7    -0.413210598802E+03   -0.47653E-05   -0.27523E-04  5754   0.177E-02    0.246E-02
RMM:   8    -0.413210563183E+03    0.35618E-04   -0.93138E-05  4982   0.111E-02    0.955E-03
RMM:   9    -0.413210555240E+03    0.79437E-05   -0.19420E-05  4725   0.563E-03    0.456E-03
RMM:  10    -0.413210550779E+03    0.44603E-05   -0.25367E-06  2660   0.244E-03    0.263E-03
RMM:  11    -0.413210544532E+03    0.62476E-05   -0.11423E-06  2489   0.181E-03    0.172E-03
RMM:  12    -0.413210540761E+03    0.37704E-05   -0.38598E-07  2373   0.115E-03    0.876E-04
RMM:  13    -0.413210535787E+03    0.49741E-05   -0.29853E-07  2067   0.913E-04    0.431E-04
RMM:  14    -0.413210531215E+03    0.45726E-05   -0.17750E-07  1552   0.742E-04    0.308E-04
RMM:  15    -0.413210526361E+03    0.48533E-05   -0.11764E-07  1160   0.656E-04    0.134E-04
RMM:  16    -0.413210523715E+03    0.26465E-05   -0.73623E-08  1102   0.613E-04    0.860E-05
RMM:  17    -0.413210519649E+03    0.40658E-05   -0.74235E-08  1239   0.630E-04    0.784E-05
RMM:  18    -0.413210518458E+03    0.11916E-05   -0.38261E-08   981   0.552E-04    0.656E-05
RMM:  19    -0.413210516876E+03    0.15815E-05   -0.30470E-08   924   0.533E-04    0.266E-05
RMM:  20    -0.413210516022E+03    0.85389E-06   -0.21042E-08   822   0.509E-04
   49 T=    70. E= -.41286667E+03 F= -.41321052E+03 E0= -.41318963E+03  EK= 0.34385E+00 SP= 0.00E+00 SK= 0.00E+00
       N       E                     dE             d eps       ncg     rms          rms(c)
RMM:   1    -0.413229571823E+03   -0.19055E-01   -0.10870E+01  4305   0.191E+00    0.925E-01
RMM:   2    -0.413208685999E+03    0.20886E-01   -0.17965E-01  4488   0.223E-01    0.691E-01
RMM:   3    -0.413236384339E+03   -0.27698E-01   -0.37269E-02  5153   0.171E-01    0.774E-01
RMM:   4    -0.413212627959E+03    0.23756E-01   -0.42006E-02  4943   0.188E-01    0.389E-01
RMM:   5    -0.413205116336E+03    0.75116E-02   -0.49299E-03  4753   0.941E-02    0.715E-02
RMM:   6    -0.413204859467E+03    0.25687E-03   -0.49759E-04  4629   0.318E-02    0.341E-02
[...]
RMM:   1    -0.413182399353E+03    0.32648E-01   -0.67326E+00  4266   0.333E+00    0.831E-01
RMM:   2    -0.413188110446E+03   -0.57111E-02   -0.34247E-01  5337   0.404E-01    0.692E-01
RMM:   3    -0.413218664638E+03   -0.30554E-01   -0.52348E-02  5287   0.225E-01    0.886E-01
RMM:   4    -0.413185992428E+03    0.32672E-01   -0.26813E-02  4785   0.189E-01    0.249E-01
RMM:   5    -0.413186163100E+03   -0.17067E-03   -0.10424E-02  5167   0.121E-01    0.106E-01
RMM:   6    -0.413185619144E+03    0.54396E-03   -0.21213E-03  5109   0.570E-02    0.521E-02
RMM:   7    -0.413185547993E+03    0.71151E-04   -0.51964E-04  5540   0.266E-02    0.345E-02
RMM:   8    -0.413185525883E+03    0.22109E-04   -0.12931E-04  4562   0.144E-02    0.147E-02
RMM:   9    -0.413185527561E+03   -0.16777E-05   -0.63017E-05  4960   0.906E-03    0.689E-03
RMM:  10    -0.413185526798E+03    0.76265E-06   -0.13790E-05  3865   0.414E-03    0.406E-03
RMM:  11    -0.413185525188E+03    0.16106E-05   -0.29035E-06  2731   0.255E-03    0.230E-03
RMM:  12    -0.413185523643E+03    0.15449E-05   -0.10498E-06  2524   0.169E-03    0.109E-03
RMM:  13    -0.413185522341E+03    0.13015E-05   -0.61471E-07  2265   0.121E-03    0.448E-04
RMM:  14    -0.413185521228E+03    0.11131E-05   -0.40846E-07  1914   0.968E-04    0.279E-04
RMM:  15    -0.413185520053E+03    0.11751E-05   -0.27591E-07  1605   0.837E-04    0.166E-04
RMM:  16    -0.413185519131E+03    0.92222E-06   -0.18850E-07  1436   0.746E-04
  139 T=    66. E= -.41286304E+03 F= -.41318552E+03 E0= -.41316417E+03  EK= 0.32248E+00 SP= 0.00E+00 SK= 0.00E+00
       N       E                     dE             d eps       ncg     rms          rms(c)
RMM:   1    -0.413096863423E+03    0.88657E-01   -0.54327E+00  4271   0.313E+00    0.858E-01
RMM:   2    -0.413097123513E+03   -0.26009E-03   -0.22414E-01  5405   0.398E-01    0.748E-01
RMM:   3    -0.413116566690E+03   -0.19443E-01   -0.49154E-02  5327   0.220E-01    0.866E-01
RMM:   4    -0.413093033109E+03    0.23534E-01   -0.27772E-02  4843   0.203E-01    0.267E-01
RMM:   5    -0.413092375042E+03    0.65807E-03   -0.12788E-02  4680   0.140E-01    0.121E-01
RMM:   6    -0.413091900966E+03    0.47408E-03   -0.15334E-03  4919   0.514E-02    0.550E-02
RMM:   7    -0.413091843947E+03    0.57019E-04   -0.50257E-04  5225   0.250E-02    0.367E-02
RMM:   8    -0.413091831722E+03    0.12225E-04   -0.21716E-04  4669   0.178E-02    0.164E-02
RMM:   9    -0.413091842283E+03   -0.10562E-04   -0.72824E-05  5040   0.101E-02    0.823E-03
RMM:  10    -0.413091849118E+03   -0.68348E-05   -0.17354E-05  4113   0.484E-03    0.492E-03
RMM:  11    -0.413091853957E+03   -0.48390E-05   -0.46717E-06  2982   0.290E-03    0.295E-03
RMM:  12    -0.413091858275E+03   -0.43176E-05   -0.30525E-06  2788   0.239E-03    0.149E-03
RMM:  13    -0.413091859416E+03   -0.11413E-05   -0.17130E-06  2502   0.165E-03    0.845E-04
RMM:  14    -0.413091859077E+03    0.33933E-06   -0.12137E-06  2376   0.135E-03
  140 T=    49. E= -.41285350E+03 F= -.41309186E+03 E0= -.41307038E+03  EK= 0.23836E+00 SP= 0.00E+00 SK= 0.00E+00
       N       E                     dE             d eps       ncg     rms          rms(c)
RMM:   1    -0.413058731521E+03    0.33128E-01   -0.34465E+00  4277   0.272E+00    0.465E-01
RMM:   2    -0.413062939593E+03   -0.42081E-02   -0.14112E-01  5459   0.298E-01    0.400E-01
RMM:   3    -0.413069777087E+03   -0.68375E-02   -0.20965E-02  5427   0.141E-01    0.488E-01
RMM:   4    -0.413061889193E+03    0.78879E-02   -0.81128E-03  4837   0.111E-01    0.190E-01
RMM:   5    -0.413061756980E+03    0.13221E-03   -0.57386E-03  4484   0.949E-02    0.770E-02
RMM:   6    -0.413061572787E+03    0.18419E-03   -0.57311E-04  4608   0.327E-02    0.297E-02
RMM:   7    -0.413061585253E+03   -0.12466E-04   -0.21121E-04  5205   0.154E-02    0.159E-02
RMM:   8    -0.413061604374E+03   -0.19120E-04   -0.75907E-05  5281   0.989E-03    0.991E-03
RMM:   9    -0.413061615845E+03   -0.11471E-04   -0.30852E-05  4988   0.609E-03    0.606E-03
RMM:  10    -0.413061623810E+03   -0.79646E-05   -0.74318E-06  3337   0.368E-03    0.356E-03
RMM:  11    -0.413061631565E+03   -0.77555E-05   -0.34303E-06  2828   0.264E-03    0.181E-03
RMM:  12    -0.413061636194E+03   -0.46284E-05   -0.30141E-06  2755   0.217E-03    0.100E-03
RMM:  13    -0.413061637279E+03   -0.10855E-05   -0.21569E-06  2469   0.168E-03    0.651E-04
RMM:  14    -0.413061636047E+03    0.12322E-05   -0.18303E-06  2430   0.149E-03    0.470E-04
RMM:  15    -0.413061633022E+03    0.30253E-05   -0.14777E-06  2140   0.129E-03    0.304E-04
RMM:  16    -0.413061628990E+03    0.40311E-05   -0.10500E-06  2004   0.111E-03    0.177E-04
RMM:  17    -0.413061624838E+03    0.41522E-05   -0.59130E-07  1693   0.884E-04    0.116E-04
RMM:  18    -0.413061621910E+03    0.29284E-05   -0.27865E-07  1381   0.715E-04    0.688E-05
RMM:  19    -0.413061620412E+03    0.14975E-05   -0.13752E-07  1154   0.613E-04    0.480E-05
RMM:  20    -0.413061618660E+03    0.17523E-05   -0.10222E-07  1157   0.600E-04    0.359E-05
RMM:  21    -0.413061618251E+03    0.40909E-06   -0.44981E-08   919   0.545E-04
  141 T=    43. E= -.41285081E+03 F= -.41306162E+03 E0= -.41304009E+03  EK= 0.21081E+00 SP= 0.00E+00 SK= 0.00E+00
       N       E                     dE             d eps       ncg     rms          rms(c)
RMM:   1    -0.413122215200E+03   -0.60597E-01   -0.36909E+00  4279   0.299E+00    0.502E-01
RMM:   2    -0.413129750375E+03   -0.75352E-02   -0.16735E-01  5466   0.321E-01    0.378E-01
RMM:   3    -0.413144686318E+03   -0.14936E-01   -0.30031E-02  5371   0.170E-01    0.592E-01
RMM:   4    -0.413130052865E+03    0.14633E-01   -0.11331E-02  5045   0.122E-01    0.185E-01
RMM:   5    -0.413130161515E+03   -0.10865E-03   -0.77421E-03  5228   0.105E-01    0.116E-01
RMM:   6    -0.413129843160E+03    0.31836E-03   -0.24733E-03  5199   0.595E-02    0.597E-02
RMM:   7    -0.413129714281E+03    0.12888E-03   -0.43031E-04  5079   0.273E-02    0.271E-02
RMM:   8    -0.413129720959E+03   -0.66779E-05   -0.15004E-04  5789   0.137E-02    0.139E-02
RMM:   9    -0.413129730606E+03   -0.96475E-05   -0.35558E-05  5001   0.708E-03    0.749E-03
RMM:  10    -0.413129738429E+03   -0.78229E-05   -0.92197E-06  3635   0.413E-03    0.446E-03
RMM:  11    -0.413129743286E+03   -0.48563E-05   -0.29374E-06  2776   0.256E-03    0.236E-03
RMM:  12    -0.413129747050E+03   -0.37640E-05   -0.20233E-06  2667   0.199E-03    0.117E-03
RMM:  13    -0.413129747858E+03   -0.80874E-06   -0.10271E-06  2293   0.132E-03
  142 T=    55. E= -.41286037E+03 F= -.41312975E+03 E0= -.41310828E+03  EK= 0.26938E+00 SP= 0.00E+00 SK= 0.00E+00
       N       E                     dE             d eps       ncg     rms          rms(c)
RMM:   1    -0.413156541828E+03   -0.26795E-01   -0.47654E+00  4280   0.352E+00    0.485E-01
RMM:   2    -0.413171513841E+03   -0.14972E-01   -0.24910E-01  5490   0.403E-01    0.453E-01
RMM:   3    -0.413174027498E+03   -0.25137E-02   -0.28513E-02  5417   0.171E-01    0.477E-01
RMM:   4    -0.413168696129E+03    0.53314E-02   -0.89466E-03  5249   0.111E-01    0.245E-01
RMM:   5    -0.413169036265E+03   -0.34014E-03   -0.49688E-03  4960   0.924E-02    0.149E-01
RMM:   6    -0.413169297113E+03   -0.26085E-03   -0.40909E-03  5242   0.761E-02    0.877E-02
RMM:   7    -0.413168918383E+03    0.37873E-03   -0.89981E-04  4925   0.396E-02    0.392E-02
RMM:   8    -0.413168914619E+03    0.37641E-05   -0.31247E-04  5886   0.194E-02    0.239E-02
RMM:   9    -0.413168911560E+03    0.30590E-05   -0.91448E-05  4994   0.111E-02    0.103E-02
RMM:  10    -0.413168913172E+03   -0.16121E-05   -0.21908E-05  4714   0.599E-03    0.532E-03
RMM:  11    -0.413168914085E+03   -0.91234E-06   -0.49917E-06  3036   0.310E-03
  143 T=    62. E= -.41286342E+03 F= -.41316891E+03 E0= -.41314749E+03  EK= 0.30550E+00 SP= 0.00E+00 SK= 0.00E+00
       N       E                     dE             d eps       ncg     rms          rms(c)
RMM:   1    -0.413109072132E+03    0.59841E-01   -0.45146E+00  4265   0.351E+00    0.304E-01
RMM:   2    -0.413128430336E+03   -0.19358E-01   -0.25248E-01  5516   0.396E-01    0.351E-01
RMM:   3    -0.413127589302E+03    0.84103E-03   -0.21054E-02  5502   0.144E-01    0.320E-01
RMM:   4    -0.413125819313E+03    0.17700E-02   -0.41133E-03  5341   0.740E-02    0.218E-01
RMM:   5    -0.413126149605E+03   -0.33029E-03   -0.99292E-04  4707   0.432E-02    0.156E-01
RMM:   6    -0.413126914808E+03   -0.76520E-03   -0.37421E-03  4872   0.798E-02    0.797E-02
RMM:   7    -0.413126645923E+03    0.26888E-03   -0.91256E-04  5026   0.380E-02    0.467E-02
RMM:   8    -0.413126613346E+03    0.32578E-04   -0.26667E-04  5843   0.188E-02    0.273E-02
RMM:   9    -0.413126598315E+03    0.15030E-04   -0.10603E-04  5040   0.114E-02    0.122E-02
RMM:  10    -0.413126599662E+03   -0.13462E-05   -0.41739E-05  5232   0.801E-03    0.621E-03
RMM:  11    -0.413126599493E+03    0.16858E-06   -0.51453E-06  2974   0.313E-03
  144 T=    55. E= -.41285845E+03 F= -.41312660E+03 E0= -.41310514E+03  EK= 0.26815E+00 SP= 0.00E+00 SK= 0.00E+00
       N       E                     dE             d eps       ncg     rms          rms(c)
RMM:   1    -0.413059497601E+03    0.67102E-01   -0.34922E+00  4264   0.307E+00    0.340E-01
RMM:   2    -0.413076339621E+03   -0.16842E-01   -0.17357E-01  5522   0.338E-01    0.382E-01
RMM:   3    -0.413074505636E+03    0.18340E-02   -0.18600E-02  5378   0.138E-01    0.332E-01
RMM:   4    -0.413072066333E+03    0.24393E-02   -0.60049E-03  5348   0.914E-02    0.211E-01
RMM:   5    -0.413072153819E+03   -0.87486E-04   -0.13720E-03  4463   0.522E-02    0.106E-01
RMM:   6    -0.413072538283E+03   -0.38446E-03   -0.22284E-03  5121   0.586E-02    0.608E-02
RMM:   7    -0.413072340916E+03    0.19737E-03   -0.55563E-04  4955   0.298E-02    0.264E-02
RMM:   8    -0.413072337569E+03    0.33463E-05   -0.14882E-04  5814   0.136E-02    0.170E-02
RMM:   9    -0.413072337608E+03   -0.38486E-07   -0.68097E-05  5027   0.924E-03    0.992E-03
RMM:  10    -0.413072337655E+03   -0.47014E-07   -0.16635E-05  4281   0.532E-03    0.468E-03
RMM:  11    -0.413072338717E+03   -0.10623E-05   -0.42051E-06  2963   0.282E-03    0.294E-03
RMM:  12    -0.413072340251E+03   -0.15340E-05   -0.97416E-07  2482   0.173E-03    0.164E-03
RMM:  13    -0.413072342618E+03   -0.23664E-05   -0.92918E-07  2448   0.141E-03    0.666E-04
RMM:  14    -0.413072344895E+03   -0.22776E-05   -0.56827E-07  2038   0.107E-03    0.323E-04
RMM:  15    -0.413072346259E+03   -0.13641E-05   -0.34391E-07  1736   0.861E-04    0.249E-04
RMM:  16    -0.413072347787E+03   -0.15273E-05   -0.29830E-07  1764   0.813E-04    0.196E-04
RMM:  17    -0.413072349448E+03   -0.16619E-05   -0.28054E-07  1579   0.754E-04    0.134E-04
RMM:  18    -0.413072350122E+03   -0.67347E-06   -0.11431E-07  1116   0.601E-04
  145 T=    45. E= -.41285227E+03 F= -.41307235E+03 E0= -.41305084E+03  EK= 0.22008E+00 SP= 0.00E+00 SK= 0.00E+00
       N       E                     dE             d eps       ncg     rms          rms(c)
RMM:   1    -0.413082139899E+03   -0.97905E-02   -0.34940E+00  4274   0.285E+00    0.519E-01
RMM:   2    -0.413106103626E+03   -0.23964E-01   -0.18351E-01  5489   0.366E-01    0.622E-01
RMM:   3    -0.413096601860E+03    0.95018E-02   -0.26862E-02  5226   0.174E-01    0.482E-01
RMM:   4    -0.413092078261E+03    0.45236E-02   -0.14164E-02  5333   0.140E-01    0.280E-01
RMM:   5    -0.413091787820E+03    0.29044E-03   -0.52767E-03  4530   0.944E-02    0.844E-02
RMM:   6    -0.413091875177E+03   -0.87356E-04   -0.31027E-03  5119   0.666E-02    0.714E-02
RMM:   7    -0.413091554562E+03    0.32061E-03   -0.72195E-04  4937   0.348E-02    0.300E-02
RMM:   8    -0.413091544980E+03    0.95821E-05   -0.16857E-04  5715   0.146E-02    0.192E-02
RMM:   9    -0.413091537676E+03    0.73035E-05   -0.76738E-05  4583   0.102E-02    0.634E-03
RMM:  10    -0.413091540744E+03   -0.30677E-05   -0.13797E-05  3753   0.435E-03    0.404E-03
RMM:  11    -0.413091545771E+03   -0.50270E-05   -0.30650E-06  2753   0.273E-03    0.249E-03
RMM:  12    -0.413091551379E+03   -0.56076E-05   -0.13914E-06  2571   0.190E-03    0.143E-03
RMM:  13    -0.413091558616E+03   -0.72373E-05   -0.14511E-06  2596   0.171E-03    0.767E-04
RMM:  14    -0.413091563011E+03   -0.43949E-05   -0.74248E-07  2067   0.113E-03    0.479E-04
RMM:  15    -0.413091568262E+03   -0.52508E-05   -0.86742E-07  2368   0.122E-03    0.341E-04
RMM:  16    -0.413091571494E+03   -0.32326E-05   -0.52056E-07  1661   0.890E-04    0.214E-04
RMM:  17    -0.413091575444E+03   -0.39501E-05   -0.61252E-07  1987   0.974E-04    0.190E-04
RMM:  18    -0.413091577037E+03   -0.15927E-05   -0.24702E-07  1306   0.690E-04    0.123E-04
RMM:  19    -0.413091578872E+03   -0.18353E-05   -0.17729E-07  1250   0.655E-04    0.645E-05
RMM:  20    -0.413091580468E+03   -0.15955E-05   -0.12163E-07  1174   0.616E-04    0.741E-05
RMM:  21    -0.413091580911E+03   -0.44326E-06   -0.53237E-08   924   0.554E-04
  146 T=    48. E= -.41285484E+03 F= -.41309158E+03 E0= -.41307008E+03  EK= 0.23675E+00 SP= 0.00E+00 SK= 0.00E+00
       N       E                     dE             d eps       ncg     rms          rms(c)
RMM:   1    -0.413140178574E+03   -0.48598E-01   -0.49764E+00  4275   0.307E+00    0.770E-01
RMM:   2    -0.413177353543E+03   -0.37175E-01   -0.27578E-01  5429   0.449E-01    0.894E-01
RMM:   3    -0.413158771528E+03    0.18582E-01   -0.43799E-02  5165   0.224E-01    0.708E-01
RMM:   4    -0.413150606551E+03    0.81650E-02   -0.27196E-02  5301   0.192E-01    0.406E-01
RMM:   5    -0.413150101675E+03    0.50488E-03   -0.13846E-02  4578   0.147E-01    0.125E-01
RMM:   6    -0.413149776713E+03    0.32496E-03   -0.60784E-03  5038   0.946E-02    0.949E-02
RMM:   7    -0.413149219317E+03    0.55740E-03   -0.10223E-03  4827   0.440E-02    0.442E-02
RMM:   8    -0.413149190746E+03    0.28571E-04   -0.29438E-04  5571   0.197E-02    0.263E-02
RMM:   9    -0.413149178186E+03    0.12559E-04   -0.15866E-04  4722   0.141E-02    0.942E-03
RMM:  10    -0.413149180041E+03   -0.18548E-05   -0.25327E-05  4616   0.583E-03    0.593E-03
RMM:  11    -0.413149184594E+03   -0.45528E-05   -0.67273E-06  3261   0.368E-03    0.325E-03
RMM:  12    -0.413149189914E+03   -0.53195E-05   -0.17435E-06  2606   0.224E-03    0.182E-03
RMM:  13    -0.413149196428E+03   -0.65145E-05   -0.14202E-06  2592   0.175E-03    0.990E-04
RMM:  14    -0.413149201260E+03   -0.48320E-05   -0.81688E-07  2306   0.124E-03    0.584E-04
RMM:  15    -0.413149206129E+03   -0.48693E-05   -0.76660E-07  2267   0.116E-03    0.365E-04
RMM:  16    -0.413149210791E+03   -0.46621E-05   -0.74143E-07  2046   0.106E-03    0.252E-04
RMM:  17    -0.413149214758E+03   -0.39661E-05   -0.63898E-07  1819   0.954E-04    0.153E-04
RMM:  18    -0.413149217191E+03   -0.24338E-05   -0.35251E-07  1497   0.766E-04    0.979E-05
RMM:  19    -0.413149219534E+03   -0.23422E-05   -0.25477E-07  1373   0.702E-04    0.746E-05
RMM:  20    -0.413149220670E+03   -0.11369E-05   -0.12663E-07  1115   0.603E-04    0.546E-05
RMM:  21    -0.413149221362E+03   -0.69126E-06   -0.69791E-08   976   0.561E-04
  147 T=    58. E= -.41286234E+03 F= -.41314922E+03 E0= -.41312787E+03  EK= 0.28688E+00 SP= 0.00E+00 SK= 0.00E+00
       N       E                     dE             d eps       ncg     rms          rms(c)
RMM:   1    -0.413148934002E+03    0.28667E-03   -0.52048E+00  4270   0.311E+00    0.661E-01
RMM:   2    -0.413177049073E+03   -0.28115E-01   -0.25343E-01  5415   0.395E-01    0.732E-01
RMM:   3    -0.413166069164E+03    0.10980E-01   -0.32005E-02  5164   0.191E-01    0.596E-01
RMM:   4    -0.413160229663E+03    0.58395E-02   -0.20847E-02  5283   0.169E-01    0.331E-01
RMM:   5    -0.413159980403E+03    0.24926E-03   -0.11437E-02  4572   0.135E-01    0.108E-01
RMM:   6    -0.413159687024E+03    0.29338E-03   -0.43848E-03  5079   0.807E-02    0.809E-02
RMM:   7    -0.413159333164E+03    0.35386E-03   -0.65903E-04  4779   0.360E-02    0.399E-02
RMM:   8    -0.413159315908E+03    0.17256E-04   -0.22650E-04  5451   0.176E-02    0.207E-02
RMM:   9    -0.413159314695E+03    0.12122E-05   -0.10653E-04  5062   0.118E-02    0.976E-03
RMM:  10    -0.413159313649E+03    0.10467E-05   -0.16117E-05  4332   0.513E-03    0.488E-03
RMM:  11    -0.413159315339E+03   -0.16905E-05   -0.65636E-06  3460   0.351E-03    0.309E-03
RMM:  12    -0.413159317061E+03   -0.17219E-05   -0.10321E-06  2505   0.189E-03    0.154E-03
RMM:  13    -0.413159318673E+03   -0.16118E-05   -0.58619E-07  2391   0.123E-03    0.765E-04
RMM:  14    -0.413159320166E+03   -0.14934E-05   -0.34415E-07  1726   0.920E-04    0.343E-04
RMM:  15    -0.413159321547E+03   -0.13802E-05   -0.26094E-07  1693   0.832E-04    0.179E-04
RMM:  16    -0.413159322523E+03   -0.97602E-06   -0.17179E-07  1358   0.707E-04
  148 T=    61. E= -.41285879E+03 F= -.41315932E+03 E0= -.41313811E+03  EK= 0.30054E+00 SP= 0.00E+00 SK= 0.00E+00
       N       E                     dE             d eps       ncg     rms          rms(c)
RMM:   1    -0.413130880426E+03    0.28441E-01   -0.57598E+00  4293   0.327E+00    0.576E-01
RMM:   2    -0.413128555935E+03    0.23245E-02   -0.19934E-01  5342   0.343E-01    0.456E-01
RMM:   3    -0.413138682829E+03   -0.10127E-01   -0.32588E-02  5211   0.188E-01    0.603E-01
RMM:   4    -0.413125527772E+03    0.13155E-01   -0.16013E-02  5036   0.151E-01    0.227E-01
RMM:   5    -0.413125058734E+03    0.46904E-03   -0.81693E-03  4936   0.115E-01    0.980E-02
RMM:   6    -0.413125007976E+03    0.50757E-04   -0.32751E-03  5380   0.668E-02    0.776E-02
RMM:   7    -0.413124757173E+03    0.25080E-03   -0.53086E-04  4701   0.315E-02    0.342E-02
RMM:   8    -0.413124762229E+03   -0.50569E-05   -0.35778E-04  5722   0.210E-02    0.178E-02
RMM:   9    -0.413124765418E+03   -0.31882E-05   -0.63579E-05  5470   0.946E-03    0.125E-02
RMM:  10    -0.413124766244E+03   -0.82675E-06   -0.28999E-05  5098   0.668E-03    0.492E-03
RMM:  11    -0.413124771339E+03   -0.50950E-05   -0.61124E-06  3171   0.314E-03    0.416E-03
RMM:  12    -0.413124776041E+03   -0.47016E-05   -0.18196E-06  2636   0.230E-03    0.162E-03
RMM:  13    -0.413124779088E+03   -0.30473E-05   -0.10684E-06  2459   0.152E-03    0.854E-04
RMM:  14    -0.413124780672E+03   -0.15838E-05   -0.81038E-07  2215   0.121E-03    0.473E-04
RMM:  15    -0.413124781070E+03   -0.39786E-06   -0.64900E-07  1884   0.102E-03
  149 T=    54. E= -.41286173E+03 F= -.41312478E+03 E0= -.41310369E+03  EK= 0.26305E+00 SP= 0.00E+00 SK= 0.00E+00
       N       E                     dE             d eps       ncg     rms          rms(c)
RMM:   1    -0.413038769219E+03    0.86011E-01   -0.47898E+00  4288   0.304E+00    0.493E-01
RMM:   2    -0.413037575388E+03    0.11938E-02   -0.18123E-01  5314   0.322E-01    0.361E-01
RMM:   3    -0.413051995642E+03   -0.14420E-01   -0.29986E-02  5279   0.178E-01    0.592E-01
RMM:   4    -0.413037360353E+03    0.14635E-01   -0.10931E-02  4873   0.124E-01    0.188E-01
RMM:   5    -0.413037666440E+03   -0.30609E-03   -0.80318E-03  5187   0.107E-01    0.111E-01
RMM:   6    -0.413037217992E+03    0.44845E-03   -0.24857E-03  5173   0.597E-02    0.603E-02
RMM:   7    -0.413037103483E+03    0.11451E-03   -0.41152E-04  5158   0.267E-02    0.257E-02
RMM:   8    -0.413037115322E+03   -0.11838E-04   -0.16750E-04  5750   0.149E-02    0.122E-02
RMM:   9    -0.413037125934E+03   -0.10612E-04   -0.34486E-05  5118   0.718E-03    0.754E-03
RMM:  10    -0.413037135751E+03   -0.98172E-05   -0.10161E-05  3703   0.414E-03    0.490E-03
RMM:  11    -0.413037145970E+03   -0.10220E-04   -0.38050E-06  2860   0.290E-03    0.274E-03
RMM:  12    -0.413037154502E+03   -0.85318E-05   -0.35323E-06  2817   0.244E-03    0.152E-03
RMM:  13    -0.413037156661E+03   -0.21586E-05   -0.17349E-06  2553   0.158E-03    0.848E-04
RMM:  14    -0.413037157630E+03   -0.96918E-06   -0.13636E-06  2468   0.140E-03
  150 T=    37. E= -.41285379E+03 F= -.41303716E+03 E0= -.41301612E+03  EK= 0.18337E+00 SP= 0.00E+00 SK= 0.00E+00
