       N       E                     dE             d eps       ncg     rms          rms(c)
RMM:   1     0.220115196702E+04    0.22012E+04   -0.52440E+04  2132   0.654E+02
RMM:   2     0.705226451686E+03   -0.14959E+04   -0.16260E+04  2132   0.177E+02
RMM:   3     0.137614697960E+03   -0.56761E+03   -0.65706E+03  2132   0.117E+02
RMM:   4    -0.159357061461E+03   -0.29697E+03   -0.27866E+03  2132   0.936E+01
RMM:   5    -0.287551048662E+03   -0.12819E+03   -0.11449E+03  2132   0.595E+01
RMM:   6    -0.349837235585E+03   -0.62286E+02   -0.55081E+02  2132   0.423E+01
RMM:   7    -0.382728408091E+03   -0.32891E+02   -0.30395E+02  2132   0.293E+01
RMM:   8    -0.404144839552E+03   -0.21416E+02   -0.18439E+02  2132   0.233E+01
RMM:   9    -0.435994765792E+03   -0.31850E+02   -0.30781E+02  6109   0.173E+01
RMM:  10    -0.441345626766E+03   -0.53509E+01   -0.63545E+01  6400   0.539E+00
RMM:  11    -0.442506157864E+03   -0.11605E+01   -0.10897E+01  6215   0.172E+00
RMM:  12    -0.442876462850E+03   -0.37030E+00   -0.25843E+00  6369   0.597E-01    0.134E+02
RMM:  13    -0.425610753674E+03    0.17266E+02   -0.81254E+01  4673   0.119E+01    0.712E+01
RMM:  14    -0.499267864684E+03   -0.73657E+02   -0.54112E+02  5425   0.232E+01    0.306E+01
RMM:  15    -0.414593914741E+03    0.84674E+02   -0.19688E+02  5060   0.163E+01    0.626E+00
RMM:  16    -0.414044707944E+03    0.54921E+00   -0.39387E+01  6079   0.605E+00    0.428E+00
RMM:  17    -0.413220195649E+03    0.82451E+00   -0.23653E+00  5351   0.182E+00    0.246E+00
RMM:  18    -0.413167518811E+03    0.52677E-01   -0.87142E-01  5955   0.961E-01    0.160E+00
RMM:  19    -0.413167283926E+03    0.23488E-03   -0.30597E-01  5724   0.583E-01    0.858E-01
RMM:  20    -0.413181359013E+03   -0.14075E-01   -0.19425E-01  5409   0.481E-01    0.522E-01
RMM:  21    -0.413166345621E+03    0.15013E-01   -0.33021E-02  4990   0.223E-01    0.237E-01
RMM:  22    -0.413165311210E+03    0.10344E-02   -0.12984E-02  6112   0.922E-02    0.149E-01
RMM:  23    -0.413163816535E+03    0.14947E-02   -0.61192E-03  5773   0.737E-02    0.838E-02
RMM:  24    -0.413162683400E+03    0.11331E-02   -0.16154E-03  5297   0.396E-02    0.352E-02
RMM:  25    -0.413162569003E+03    0.11440E-03   -0.87438E-04  5870   0.249E-02    0.277E-02
RMM:  26    -0.413162844173E+03   -0.27517E-03   -0.52665E-04  5932   0.230E-02    0.298E-02
RMM:  27    -0.413163317403E+03   -0.47323E-03   -0.20075E-04  4543   0.198E-02    0.152E-02
RMM:  28    -0.413163820068E+03   -0.50267E-03   -0.20016E-04  5323   0.197E-02    0.924E-03
RMM:  29    -0.413164148967E+03   -0.32890E-03   -0.87782E-05  4313   0.132E-02    0.387E-03
RMM:  30    -0.413164364176E+03   -0.21521E-03   -0.71134E-05  4122   0.984E-03    0.293E-03
RMM:  31    -0.413164471218E+03   -0.10704E-03   -0.46049E-05  3106   0.596E-03    0.210E-03
RMM:  32    -0.413164494991E+03   -0.23774E-04   -0.19370E-05  2926   0.284E-03    0.126E-03
RMM:  33    -0.413164503380E+03   -0.83887E-05   -0.85078E-06  2757   0.200E-03    0.647E-04
RMM:  34    -0.413164505312E+03   -0.19320E-05   -0.39889E-06  2529   0.142E-03    0.711E-04
RMM:  35    -0.413164505058E+03    0.25449E-06   -0.19731E-06  2114   0.108E-03
    1 T=    61. E= -.41286669E+03 F= -.41316451E+03 E0= -.41314201E+03  EK= 0.29781E+00 SP= 0.00E+00 SK= 0.00E+00
       N       E                     dE             d eps       ncg     rms          rms(c)
RMM:   1    -0.413154827073E+03    0.96782E-02   -0.11092E+01  3996   0.695E-01    0.886E-01
RMM:   2    -0.413165711841E+03   -0.10885E-01   -0.13674E-01  4004   0.100E-01    0.641E-01
RMM:   3    -0.413164273309E+03    0.14385E-02   -0.66269E-03  4835   0.375E-02    0.157E-01
RMM:   4    -0.413190266304E+03   -0.25993E-01   -0.27299E-02  5217   0.137E-01    0.672E-01
RMM:   5    -0.413163822754E+03    0.26444E-01   -0.13091E-02  4850   0.113E-01    0.344E-02
RMM:   6    -0.413163995145E+03   -0.17239E-03   -0.21040E-03  5840   0.445E-02    0.179E-02
RMM:   7    -0.413164013471E+03   -0.18326E-04   -0.26772E-04  5898   0.135E-02    0.136E-02
RMM:   8    -0.413164019573E+03   -0.61012E-05   -0.36084E-05  4504   0.546E-03    0.772E-03
RMM:   9    -0.413164025346E+03   -0.57737E-05   -0.72007E-06  3078   0.294E-03    0.511E-03
RMM:  10    -0.413164032644E+03   -0.72973E-05   -0.20860E-06  2572   0.196E-03    0.292E-03
RMM:  11    -0.413164040386E+03   -0.77419E-05   -0.15460E-06  2548   0.173E-03    0.142E-03
RMM:  12    -0.413164045687E+03   -0.53014E-05   -0.91247E-07  2438   0.135E-03    0.444E-04
RMM:  13    -0.413164047036E+03   -0.13493E-05   -0.42605E-07  1996   0.932E-04    0.281E-04
RMM:  14    -0.413164048427E+03   -0.13903E-05   -0.28792E-07  1491   0.756E-04    0.172E-04
RMM:  15    -0.413164051284E+03   -0.28570E-05   -0.29394E-07  1507   0.758E-04    0.126E-04
RMM:  16    -0.413164051609E+03   -0.32553E-06   -0.16223E-07  1083   0.629E-04
    2 T=    61. E= -.41286631E+03 F= -.41316405E+03 E0= -.41314155E+03  EK= 0.29774E+00 SP= 0.00E+00 SK= 0.00E+00
       N       E                     dE             d eps       ncg     rms          rms(c)
RMM:   1    -0.413156079705E+03    0.79716E-02   -0.11128E+01  4187   0.701E-01    0.911E-01
RMM:   2    -0.413165732221E+03   -0.96525E-02   -0.13408E-01  3983   0.967E-02    0.634E-01
RMM:   3    -0.413164948388E+03    0.78383E-03   -0.70339E-03  4851   0.387E-02    0.166E-01
RMM:   4    -0.413193726665E+03   -0.28778E-01   -0.29325E-02  5185   0.143E-01    0.706E-01
RMM:   5    -0.413164556667E+03    0.29170E-01   -0.14231E-02  4828   0.118E-01    0.376E-02
RMM:   6    -0.413164735209E+03   -0.17854E-03   -0.22763E-03  5799   0.466E-02    0.200E-02
RMM:   7    -0.413164746949E+03   -0.11740E-04   -0.28296E-04  5891   0.141E-02    0.143E-02
RMM:   8    -0.413164747388E+03   -0.43900E-06   -0.38367E-05  4608   0.564E-03    0.814E-03
RMM:   9    -0.413164746706E+03    0.68148E-06   -0.70924E-06  3120   0.295E-03
    3 T=    61. E= -.41286676E+03 F= -.41316475E+03 E0= -.41314225E+03  EK= 0.29799E+00 SP= 0.00E+00 SK= 0.00E+00
       N       E                     dE             d eps       ncg     rms          rms(c)
RMM:   1    -0.413155671094E+03    0.90763E-02   -0.11042E+01  4226   0.707E-01    0.894E-01
RMM:   2    -0.413165845679E+03   -0.10175E-01   -0.13288E-01  4217   0.994E-02    0.628E-01
RMM:   3    -0.413169050384E+03   -0.32047E-02   -0.10280E-02  5184   0.716E-02    0.324E-01
RMM:   4    -0.413189941471E+03   -0.20891E-01   -0.38200E-02  5126   0.166E-01    0.666E-01
RMM:   5    -0.413164447439E+03    0.25494E-01   -0.10335E-02  4723   0.111E-01    0.536E-02
RMM:   6    -0.413164463626E+03   -0.16186E-04   -0.17857E-03  5529   0.423E-02    0.182E-02
RMM:   7    -0.413164483076E+03   -0.19451E-04   -0.27013E-04  6024   0.147E-02    0.125E-02
RMM:   8    -0.413164485697E+03   -0.26207E-05   -0.37386E-05  4901   0.593E-03    0.704E-03
RMM:   9    -0.413164487467E+03   -0.17695E-05   -0.81992E-06  3317   0.374E-03    0.362E-03
RMM:  10    -0.413164489082E+03   -0.16158E-05   -0.15739E-06  2543   0.204E-03    0.218E-03
RMM:  11    -0.413164491401E+03   -0.23185E-05   -0.11478E-06  2544   0.165E-03    0.120E-03
RMM:  12    -0.413164492568E+03   -0.11674E-05   -0.53347E-07  2327   0.115E-03    0.474E-04
RMM:  13    -0.413164493735E+03   -0.11664E-05   -0.37670E-07  1703   0.873E-04    0.235E-04
RMM:  14    -0.413164494294E+03   -0.55973E-06   -0.21914E-07  1420   0.745E-04
    4 T=    61. E= -.41286653E+03 F= -.41316449E+03 E0= -.41314201E+03  EK= 0.29796E+00 SP= 0.00E+00 SK= 0.00E+00
       N       E                     dE             d eps       ncg     rms          rms(c)
RMM:   1    -0.413155428794E+03    0.90649E-02   -0.11082E+01  4235   0.710E-01    0.884E-01
RMM:   2    -0.413166141693E+03   -0.10713E-01   -0.13694E-01  4048   0.966E-02    0.640E-01
RMM:   3    -0.413164902585E+03    0.12391E-02   -0.66091E-03  4914   0.371E-02    0.160E-01
RMM:   4    -0.413194693587E+03   -0.29791E-01   -0.30491E-02  5165   0.146E-01    0.719E-01
RMM:   5    -0.413164385302E+03    0.30308E-01   -0.14708E-02  4814   0.120E-01    0.366E-02
RMM:   6    -0.413164576670E+03   -0.19137E-03   -0.23829E-03  5793   0.471E-02    0.182E-02
RMM:   7    -0.413164594724E+03   -0.18054E-04   -0.28687E-04  5882   0.140E-02    0.137E-02
RMM:   8    -0.413164599912E+03   -0.51881E-05   -0.37789E-05  4550   0.558E-03    0.801E-03
RMM:   9    -0.413164604278E+03   -0.43659E-05   -0.69769E-06  3088   0.298E-03    0.535E-03
RMM:  10    -0.413164610172E+03   -0.58939E-05   -0.19492E-06  2556   0.201E-03    0.300E-03
RMM:  11    -0.413164616362E+03   -0.61902E-05   -0.14856E-06  2548   0.178E-03    0.146E-03
RMM:  12    -0.413164620475E+03   -0.41135E-05   -0.81103E-07  2440   0.137E-03    0.471E-04
RMM:  13    -0.413164621486E+03   -0.10108E-05   -0.32818E-07  2006   0.936E-04    0.301E-04
RMM:  14    -0.413164622549E+03   -0.10625E-05   -0.19220E-07  1475   0.758E-04    0.179E-04
RMM:  15    -0.413164624598E+03   -0.20497E-05   -0.24810E-07  1589   0.773E-04    0.151E-04
RMM:  16    -0.413164624751E+03   -0.15319E-06   -0.89895E-08  1060   0.620E-04
    5 T=    61. E= -.41286653E+03 F= -.41316462E+03 E0= -.41314215E+03  EK= 0.29810E+00 SP= 0.00E+00 SK= 0.00E+00
       N       E                     dE             d eps       ncg     rms          rms(c)
RMM:   1    -0.413156281190E+03    0.83434E-02   -0.11133E+01  4248   0.713E-01    0.906E-01
RMM:   2    -0.413166385657E+03   -0.10104E-01   -0.13413E-01  4079   0.974E-02    0.636E-01
RMM:   3    -0.413165414500E+03    0.97116E-03   -0.68478E-03  4832   0.380E-02    0.165E-01
RMM:   4    -0.413193150360E+03   -0.27736E-01   -0.28130E-02  5160   0.140E-01    0.694E-01
RMM:   5    -0.413164990674E+03    0.28160E-01   -0.13772E-02  4819   0.116E-01    0.366E-02
RMM:   6    -0.413165165290E+03   -0.17462E-03   -0.22115E-03  5776   0.454E-02    0.196E-02
RMM:   7    -0.413165175790E+03   -0.10500E-04   -0.26751E-04  5857   0.136E-02    0.140E-02
RMM:   8    -0.413165176321E+03   -0.53096E-06   -0.35658E-05  4544   0.553E-03    0.805E-03
RMM:   9    -0.413165175759E+03    0.56126E-06   -0.68011E-06  3084   0.295E-03
    6 T=    61. E= -.41286675E+03 F= -.41316518E+03 E0= -.41314271E+03  EK= 0.29843E+00 SP= 0.00E+00 SK= 0.00E+00
       N       E                     dE             d eps       ncg     rms          rms(c)
RMM:   1    -0.413155971467E+03    0.92049E-02   -0.11078E+01  4266   0.719E-01    0.901E-01
RMM:   2    -0.413165721681E+03   -0.97502E-02   -0.13350E-01  4272   0.100E-01    0.629E-01
RMM:   3    -0.413169321177E+03   -0.35995E-02   -0.10469E-02  5157   0.717E-02    0.324E-01
RMM:   4    -0.413189893082E+03   -0.20572E-01   -0.37579E-02  5106   0.164E-01    0.661E-01
RMM:   5    -0.413164748533E+03    0.25145E-01   -0.10108E-02  4718   0.110E-01    0.532E-02
RMM:   6    -0.413164766353E+03   -0.17820E-04   -0.17723E-03  5528   0.419E-02    0.184E-02
RMM:   7    -0.413164784432E+03   -0.18079E-04   -0.26533E-04  6025   0.146E-02    0.126E-02
RMM:   8    -0.413164785132E+03   -0.69957E-06   -0.36990E-05  4895   0.591E-03    0.705E-03
RMM:   9    -0.413164783534E+03    0.15974E-05   -0.78733E-06  3239   0.371E-03    0.359E-03
RMM:  10    -0.413164783789E+03   -0.25450E-06   -0.15372E-06  2536   0.203E-03
    7 T=    61. E= -.41286628E+03 F= -.41316478E+03 E0= -.41314234E+03  EK= 0.29850E+00 SP= 0.00E+00 SK= 0.00E+00
       N       E                     dE             d eps       ncg     rms          rms(c)
RMM:   1    -0.413156077205E+03    0.87063E-02   -0.11077E+01  4269   0.721E-01    0.883E-01
RMM:   2    -0.413166955313E+03   -0.10878E-01   -0.13626E-01  4110   0.955E-02    0.637E-01
RMM:   3    -0.413165851495E+03    0.11038E-02   -0.66775E-03  4960   0.393E-02    0.169E-01
RMM:   4    -0.413201939241E+03   -0.36088E-01   -0.37255E-02  5154   0.160E-01    0.789E-01
RMM:   5    -0.413165264090E+03    0.36675E-01   -0.17872E-02  4812   0.132E-01    0.410E-02
RMM:   6    -0.413165461902E+03   -0.19781E-03   -0.27408E-03  5764   0.517E-02    0.183E-02
RMM:   7    -0.413165484434E+03   -0.22532E-04   -0.34331E-04  5919   0.151E-02    0.138E-02
RMM:   8    -0.413165489294E+03   -0.48603E-05   -0.41481E-05  4529   0.571E-03    0.781E-03
RMM:   9    -0.413165492846E+03   -0.35515E-05   -0.77769E-06  3116   0.300E-03    0.515E-03
RMM:  10    -0.413165497637E+03   -0.47909E-05   -0.21757E-06  2561   0.207E-03    0.281E-03
RMM:  11    -0.413165502146E+03   -0.45094E-05   -0.14328E-06  2544   0.173E-03    0.132E-03
RMM:  12    -0.413165504980E+03   -0.28340E-05   -0.80582E-07  2453   0.134E-03    0.397E-04
RMM:  13    -0.413165505949E+03   -0.96918E-06   -0.35534E-07  1991   0.936E-04
    8 T=    61. E= -.41286665E+03 F= -.41316551E+03 E0= -.41314308E+03  EK= 0.29886E+00 SP= 0.00E+00 SK= 0.00E+00
       N       E                     dE             d eps       ncg     rms          rms(c)
RMM:   1    -0.413156573937E+03    0.89310E-02   -0.11143E+01  4287   0.726E-01    0.901E-01
RMM:   2    -0.413166855452E+03   -0.10282E-01   -0.13546E-01  4163   0.101E-01    0.639E-01
RMM:   3    -0.413165793847E+03    0.10616E-02   -0.67374E-03  4750   0.374E-02    0.159E-01
RMM:   4    -0.413188231220E+03   -0.22437E-01   -0.22680E-02  5154   0.126E-01    0.627E-01
RMM:   5    -0.413165409659E+03    0.22822E-01   -0.11245E-02  4819   0.104E-01    0.323E-02
RMM:   6    -0.413165548057E+03   -0.13840E-03   -0.17399E-03  5804   0.405E-02    0.182E-02
RMM:   7    -0.413165556978E+03   -0.89213E-05   -0.21321E-04  5802   0.125E-02    0.129E-02
RMM:   8    -0.413165558293E+03   -0.13147E-05   -0.29727E-05  4416   0.527E-03    0.742E-03
RMM:   9    -0.413165558458E+03   -0.16508E-06   -0.57849E-06  2981   0.291E-03
    9 T=    61. E= -.41286647E+03 F= -.41316556E+03 E0= -.41314315E+03  EK= 0.29909E+00 SP= 0.00E+00 SK= 0.00E+00
       N       E                     dE             d eps       ncg     rms          rms(c)
RMM:   1    -0.413157067639E+03    0.84907E-02   -0.11128E+01  4289   0.731E-01    0.909E-01
RMM:   2    -0.413166515799E+03   -0.94482E-02   -0.13368E-01  4289   0.978E-02    0.630E-01
RMM:   3    -0.413170070833E+03   -0.35550E-02   -0.10514E-02  5149   0.715E-02    0.322E-01
RMM:   4    -0.413190824728E+03   -0.20754E-01   -0.37460E-02  5103   0.164E-01    0.663E-01
RMM:   5    -0.413165683096E+03    0.25142E-01   -0.10203E-02  4718   0.110E-01    0.525E-02
RMM:   6    -0.413165707620E+03   -0.24524E-04   -0.17806E-03  5544   0.417E-02    0.187E-02
RMM:   7    -0.413165723051E+03   -0.15431E-04   -0.25984E-04  6016   0.144E-02    0.127E-02
RMM:   8    -0.413165722561E+03    0.48980E-06   -0.36721E-05  4882   0.591E-03    0.706E-03
RMM:   9    -0.413165718445E+03    0.41166E-05   -0.75878E-06  3122   0.364E-03    0.353E-03
RMM:  10    -0.413165717595E+03    0.85007E-06   -0.15414E-06  2534   0.202E-03
   10 T=    61. E= -.41286640E+03 F= -.41316572E+03 E0= -.41314333E+03  EK= 0.29932E+00 SP= 0.00E+00 SK= 0.00E+00
       N       E                     dE             d eps       ncg     rms          rms(c)
RMM:   1    -0.413157174392E+03    0.85441E-02   -0.11079E+01  4296   0.731E-01    0.884E-01
RMM:   2    -0.413167964899E+03   -0.10791E-01   -0.13531E-01  4203   0.969E-02    0.634E-01
RMM:   3    -0.413166971035E+03    0.99386E-03   -0.66462E-03  4966   0.417E-02    0.174E-01
RMM:   4    -0.413205266523E+03   -0.38295E-01   -0.39836E-02  5151   0.166E-01    0.813E-01
RMM:   5    -0.413166201078E+03    0.39065E-01   -0.18996E-02  4804   0.136E-01    0.425E-02
RMM:   6    -0.413166409094E+03   -0.20802E-03   -0.29480E-03  5765   0.533E-02    0.189E-02
RMM:   7    -0.413166429535E+03   -0.20441E-04   -0.37203E-04  5931   0.156E-02    0.144E-02
RMM:   8    -0.413166431698E+03   -0.21622E-05   -0.43634E-05  4604   0.590E-03    0.826E-03
RMM:   9    -0.413166432724E+03   -0.10266E-05   -0.83700E-06  3171   0.310E-03    0.540E-03
RMM:  10    -0.413166435096E+03   -0.23719E-05   -0.23158E-06  2565   0.214E-03    0.293E-03
RMM:  11    -0.413166437442E+03   -0.23454E-05   -0.14767E-06  2536   0.177E-03    0.140E-03
RMM:  12    -0.413166438675E+03   -0.12334E-05   -0.82614E-07  2454   0.138E-03    0.431E-04
RMM:  13    -0.413166439050E+03   -0.37540E-06   -0.36228E-07  2018   0.959E-04
   11 T=    61. E= -.41286671E+03 F= -.41316644E+03 E0= -.41314408E+03  EK= 0.29973E+00 SP= 0.00E+00 SK= 0.00E+00
       N       E                     dE             d eps       ncg     rms          rms(c)
RMM:   1    -0.413157374204E+03    0.90645E-02   -0.11159E+01  4291   0.745E-01    0.896E-01
RMM:   2    -0.413167704910E+03   -0.10331E-01   -0.13693E-01  4234   0.993E-02    0.641E-01
RMM:   3    -0.413166557028E+03    0.11479E-02   -0.66681E-03  4839   0.383E-02    0.161E-01
RMM:   4    -0.413193931768E+03   -0.27375E-01   -0.27847E-02  5154   0.139E-01    0.690E-01
RMM:   5    -0.413166127083E+03    0.27805E-01   -0.13709E-02  4816   0.115E-01    0.347E-02
RMM:   6    -0.413166292763E+03   -0.16568E-03   -0.21057E-03  5794   0.447E-02    0.185E-02
RMM:   7    -0.413166304207E+03   -0.11444E-04   -0.25815E-04  5857   0.135E-02    0.135E-02
RMM:   8    -0.413166305502E+03   -0.12954E-05   -0.35257E-05  4570   0.551E-03    0.799E-03
RMM:   9    -0.413166305414E+03    0.88541E-07   -0.67267E-06  3077   0.296E-03
   12 T=    61. E= -.41286632E+03 F= -.41316631E+03 E0= -.41314397E+03  EK= 0.29998E+00 SP= 0.00E+00 SK= 0.00E+00
       N       E                     dE             d eps       ncg     rms          rms(c)
RMM:   1    -0.413158337877E+03    0.79676E-02   -0.11180E+01  4299   0.749E-01    0.914E-01
RMM:   2    -0.413167874923E+03   -0.95370E-02   -0.13387E-01  4300   0.947E-02    0.632E-01
RMM:   3    -0.413171639534E+03   -0.37646E-02   -0.10742E-02  5172   0.713E-02    0.330E-01
RMM:   4    -0.413191395069E+03   -0.19756E-01   -0.37326E-02  5095   0.164E-01    0.654E-01
RMM:   5    -0.413166964873E+03    0.24430E-01   -0.98429E-03  4702   0.108E-01    0.521E-02
RMM:   6    -0.413166981721E+03   -0.16847E-04   -0.17195E-03  5527   0.407E-02    0.190E-02
RMM:   7    -0.413166994318E+03   -0.12598E-04   -0.25328E-04  6012   0.142E-02    0.129E-02
RMM:   8    -0.413166992775E+03    0.15432E-05   -0.36285E-05  4894   0.587E-03    0.713E-03
RMM:   9    -0.413166987036E+03    0.57393E-05   -0.76503E-06  3114   0.363E-03    0.359E-03
RMM:  10    -0.413166985546E+03    0.14900E-05   -0.14927E-06  2526   0.200E-03    0.205E-03
RMM:  11    -0.413166983339E+03    0.22065E-05   -0.10835E-06  2531   0.160E-03    0.115E-03
RMM:  12    -0.413166981681E+03    0.16588E-05   -0.50751E-07  2272   0.112E-03    0.505E-04
RMM:  13    -0.413166979827E+03    0.18531E-05   -0.34489E-07  1724   0.868E-04    0.243E-04
RMM:  14    -0.413166978540E+03    0.12874E-05   -0.21340E-07  1466   0.749E-04    0.145E-04
RMM:  15    -0.413166976864E+03    0.16761E-05   -0.19573E-07  1475   0.725E-04    0.115E-04
RMM:  16    -0.413166975083E+03    0.17812E-05   -0.17790E-07  1395   0.678E-04    0.118E-04
RMM:  17    -0.413166973890E+03    0.11928E-05   -0.10188E-07  1130   0.596E-04    0.524E-05
RMM:  18    -0.413166972603E+03    0.12868E-05   -0.86269E-08  1088   0.575E-04    0.279E-05
RMM:  19    -0.413166972165E+03    0.43855E-06   -0.37462E-08   811   0.516E-04
   13 T=    61. E= -.41286642E+03 F= -.41316697E+03 E0= -.41314467E+03  EK= 0.30055E+00 SP= 0.00E+00 SK= 0.00E+00
       N       E                     dE             d eps       ncg     rms          rms(c)
RMM:   1    -0.413158280122E+03    0.86925E-02   -0.11100E+01  4292   0.745E-01    0.888E-01
RMM:   2    -0.413168756647E+03   -0.10477E-01   -0.13572E-01  4239   0.969E-02    0.633E-01
RMM:   3    -0.413167949520E+03    0.80713E-03   -0.66858E-03  4926   0.392E-02    0.171E-01
RMM:   4    -0.413202779620E+03   -0.34830E-01   -0.35971E-02  5144   0.158E-01    0.776E-01
RMM:   5    -0.413167304913E+03    0.35475E-01   -0.17366E-02  4797   0.130E-01    0.393E-02
RMM:   6    -0.413167499926E+03   -0.19501E-03   -0.26818E-03  5780   0.505E-02    0.196E-02
RMM:   7    -0.413167512958E+03   -0.13032E-04   -0.32456E-04  5876   0.149E-02    0.145E-02
RMM:   8    -0.413167513168E+03   -0.20979E-06   -0.42549E-05  4688   0.592E-03    0.870E-03
RMM:   9    -0.413167511429E+03    0.17388E-05   -0.79082E-06  3168   0.310E-03    0.580E-03
RMM:  10    -0.413167511301E+03    0.12813E-06   -0.20910E-06  2553   0.210E-03
   14 T=    61. E= -.41286644E+03 F= -.41316751E+03 E0= -.41314524E+03  EK= 0.30107E+00 SP= 0.00E+00 SK= 0.00E+00
       N       E                     dE             d eps       ncg     rms          rms(c)
RMM:   1    -0.413158335417E+03    0.91760E-02   -0.11189E+01  4303   0.754E-01    0.892E-01
RMM:   2    -0.413169438044E+03   -0.11103E-01   -0.13809E-01  4283   0.991E-02    0.644E-01
RMM:   3    -0.413171128420E+03   -0.16904E-02   -0.92870E-03  5127   0.651E-02    0.291E-01
RMM:   4    -0.413202462625E+03   -0.31334E-01   -0.46261E-02  5105   0.180E-01    0.772E-01
RMM:   5    -0.413167577980E+03    0.34885E-01   -0.14886E-02  4731   0.128E-01    0.515E-02
RMM:   6    -0.413167675742E+03   -0.97761E-04   -0.24537E-03  5617   0.490E-02    0.161E-02
RMM:   7    -0.413167700596E+03   -0.24855E-04   -0.32190E-04  6005   0.151E-02    0.124E-02
RMM:   8    -0.413167703737E+03   -0.31410E-05   -0.42183E-05  4885   0.602E-03    0.698E-03
RMM:   9    -0.413167704943E+03   -0.12058E-05   -0.72153E-06  2976   0.327E-03    0.331E-03
RMM:  10    -0.413167706597E+03   -0.16534E-05   -0.20827E-06  2557   0.201E-03    0.195E-03
RMM:  11    -0.413167708090E+03   -0.14935E-05   -0.10577E-06  2524   0.149E-03    0.101E-03
RMM:  12    -0.413167708790E+03   -0.69993E-06   -0.53821E-07  2095   0.109E-03
   15 T=    61. E= -.41286626E+03 F= -.41316771E+03 E0= -.41314547E+03  EK= 0.30144E+00 SP= 0.00E+00 SK= 0.00E+00
       N       E                     dE             d eps       ncg     rms          rms(c)
RMM:   1    -0.413165529887E+03    0.21782E-02   -0.11286E+01  4301   0.793E-01    0.916E-01
RMM:   2    -0.413169636805E+03   -0.41069E-02   -0.13610E-01  4250   0.101E-01    0.636E-01
RMM:   3    -0.413169078350E+03    0.55845E-03   -0.71475E-03  4946   0.408E-02    0.177E-01
RMM:   4    -0.413205454272E+03   -0.36376E-01   -0.37681E-02  5146   0.161E-01    0.793E-01
RMM:   5    -0.413168397441E+03    0.37057E-01   -0.18125E-02  4803   0.133E-01    0.412E-02
RMM:   6    -0.413168595997E+03   -0.19856E-03   -0.28149E-03  5788   0.519E-02    0.212E-02
RMM:   7    -0.413168604486E+03   -0.84887E-05   -0.34050E-04  5918   0.155E-02    0.154E-02
RMM:   8    -0.413168600860E+03    0.36260E-05   -0.46088E-05  4805   0.620E-03    0.938E-03
RMM:   9    -0.413168594873E+03    0.59870E-05   -0.83523E-06  3220   0.321E-03    0.616E-03
RMM:  10    -0.413168590329E+03    0.45440E-05   -0.21579E-06  2553   0.215E-03    0.335E-03
RMM:  11    -0.413168586283E+03    0.40457E-05   -0.16909E-06  2547   0.194E-03    0.157E-03
RMM:  12    -0.413168583009E+03    0.32740E-05   -0.84808E-07  2460   0.148E-03    0.488E-04
RMM:  13    -0.413168582171E+03    0.83769E-06   -0.34186E-07  2114   0.987E-04
   16 T=    62. E= -.41286650E+03 F= -.41316858E+03 E0= -.41314638E+03  EK= 0.30208E+00 SP= 0.00E+00 SK= 0.00E+00
       N       E                     dE             d eps       ncg     rms          rms(c)
RMM:   1    -0.413160045924E+03    0.85371E-02   -0.11147E+01  4299   0.756E-01    0.895E-01
RMM:   2    -0.413170372068E+03   -0.10326E-01   -0.13594E-01  4261   0.990E-02    0.632E-01
RMM:   3    -0.413169382896E+03    0.98917E-03   -0.67147E-03  4892   0.413E-02    0.173E-01
RMM:   4    -0.413203436065E+03   -0.34053E-01   -0.34931E-02  5135   0.155E-01    0.767E-01
RMM:   5    -0.413168872258E+03    0.34564E-01   -0.16967E-02  4800   0.128E-01    0.390E-02
RMM:   6    -0.413169060353E+03   -0.18810E-03   -0.26402E-03  5773   0.502E-02    0.201E-02
RMM:   7    -0.413169070501E+03   -0.10148E-04   -0.31933E-04  5913   0.149E-02    0.147E-02
RMM:   8    -0.413169068366E+03    0.21344E-05   -0.42429E-05  4713   0.593E-03    0.890E-03
RMM:   9    -0.413169064067E+03    0.42998E-05   -0.79965E-06  3184   0.312E-03    0.594E-03
RMM:  10    -0.413169061232E+03    0.28347E-05   -0.20293E-06  2548   0.208E-03    0.326E-03
RMM:  11    -0.413169058642E+03    0.25902E-05   -0.16235E-06  2537   0.190E-03    0.156E-03
RMM:  12    -0.413169056436E+03    0.22056E-05   -0.81174E-07  2447   0.144E-03    0.499E-04
RMM:  13    -0.413169055839E+03    0.59676E-06   -0.32653E-07  2089   0.963E-04
   17 T=    62. E= -.41286643E+03 F= -.41316906E+03 E0= -.41314690E+03  EK= 0.30262E+00 SP= 0.00E+00 SK= 0.00E+00
       N       E                     dE             d eps       ncg     rms          rms(c)
RMM:   1    -0.413162493118E+03    0.65633E-02   -0.11246E+01  4299   0.783E-01    0.890E-01
RMM:   2    -0.413171435704E+03   -0.89426E-02   -0.13851E-01  4273   0.103E-01    0.644E-01
RMM:   3    -0.413170073750E+03    0.13620E-02   -0.66446E-03  4913   0.403E-02    0.170E-01
RMM:   4    -0.413205932532E+03   -0.35859E-01   -0.37230E-02  5145   0.160E-01    0.787E-01
RMM:   5    -0.413169385689E+03    0.36547E-01   -0.17945E-02  4797   0.132E-01    0.396E-02
RMM:   6    -0.413169585125E+03   -0.19944E-03   -0.27971E-03  5777   0.515E-02    0.194E-02
RMM:   7    -0.413169600086E+03   -0.14962E-04   -0.33570E-04  5914   0.152E-02    0.146E-02
RMM:   8    -0.413169600744E+03   -0.65812E-06   -0.44901E-05  4752   0.605E-03    0.889E-03
RMM:   9    -0.413169599362E+03    0.13820E-05   -0.83403E-06  3210   0.318E-03    0.590E-03
RMM:  10    -0.413169599919E+03   -0.55657E-06   -0.22027E-06  2553   0.214E-03
   18 T=    62. E= -.41286635E+03 F= -.41316960E+03 E0= -.41314748E+03  EK= 0.30325E+00 SP= 0.00E+00 SK= 0.00E+00
       N       E                     dE             d eps       ncg     rms          rms(c)
RMM:   1    -0.413161954293E+03    0.76451E-02   -0.11281E+01  4301   0.769E-01    0.915E-01
RMM:   2    -0.413171780413E+03   -0.98261E-02   -0.13698E-01  4303   0.998E-02    0.639E-01
RMM:   3    -0.413174649869E+03   -0.28695E-02   -0.99922E-03  5124   0.687E-02    0.309E-01
RMM:   4    -0.413199830973E+03   -0.25181E-01   -0.41223E-02  5088   0.171E-01    0.710E-01
RMM:   5    -0.413170606643E+03    0.29224E-01   -0.12151E-02  4715   0.117E-01    0.500E-02
RMM:   6    -0.413170668457E+03   -0.61814E-04   -0.20476E-03  5590   0.447E-02    0.179E-02
RMM:   7    -0.413170681368E+03   -0.12912E-04   -0.26925E-04  5991   0.142E-02    0.126E-02
RMM:   8    -0.413170678330E+03    0.30385E-05   -0.37286E-05  4854   0.585E-03    0.693E-03
RMM:   9    -0.413170670680E+03    0.76502E-05   -0.66707E-06  2914   0.325E-03    0.317E-03
RMM:  10    -0.413170667790E+03    0.28894E-05   -0.17279E-06  2539   0.191E-03    0.183E-03
RMM:  11    -0.413170664065E+03    0.37252E-05   -0.92854E-07  2511   0.146E-03    0.102E-03
RMM:  12    -0.413170661572E+03    0.24927E-05   -0.46569E-07  2087   0.106E-03    0.498E-04
RMM:  13    -0.413170659008E+03    0.25640E-05   -0.31075E-07  1795   0.889E-04    0.224E-04
RMM:  14    -0.413170657371E+03    0.16378E-05   -0.18510E-07  1414   0.735E-04    0.141E-04
RMM:  15    -0.413170654225E+03    0.31456E-05   -0.22145E-07  1680   0.769E-04    0.135E-04
RMM:  16    -0.413170652676E+03    0.15490E-05   -0.11679E-07  1235   0.627E-04    0.118E-04
RMM:  17    -0.413170650738E+03    0.19381E-05   -0.95512E-08  1184   0.608E-04    0.485E-05
RMM:  18    -0.413170649147E+03    0.15909E-05   -0.65578E-08  1015   0.565E-04    0.289E-05
RMM:  19    -0.413170648555E+03    0.59216E-06   -0.32793E-08   807   0.529E-04
   19 T=    62. E= -.41286654E+03 F= -.41317065E+03 E0= -.41314857E+03  EK= 0.30411E+00 SP= 0.00E+00 SK= 0.00E+00
       N       E                     dE             d eps       ncg     rms          rms(c)
RMM:   1    -0.413162537128E+03    0.81120E-02   -0.11231E+01  4298   0.785E-01    0.904E-01
RMM:   2    -0.413172392124E+03   -0.98550E-02   -0.13647E-01  4269   0.101E-01    0.633E-01
RMM:   3    -0.413171754925E+03    0.63720E-03   -0.69300E-03  4956   0.420E-02    0.184E-01
RMM:   4    -0.413211641755E+03   -0.39887E-01   -0.41974E-02  5143   0.170E-01    0.829E-01
RMM:   5    -0.413170991056E+03    0.40651E-01   -0.19780E-02  4793   0.139E-01    0.438E-02
RMM:   6    -0.413171204889E+03   -0.21383E-03   -0.32150E-03  5755   0.546E-02    0.211E-02
RMM:   7    -0.413171217882E+03   -0.12993E-04   -0.38307E-04  5904   0.160E-02    0.157E-02
RMM:   8    -0.413171214218E+03    0.36639E-05   -0.49902E-05  4862   0.635E-03    0.952E-03
RMM:   9    -0.413171208022E+03    0.61962E-05   -0.90948E-06  3278   0.326E-03    0.622E-03
RMM:  10    -0.413171203229E+03    0.47928E-05   -0.22493E-06  2544   0.219E-03    0.337E-03
RMM:  11    -0.413171199271E+03    0.39580E-05   -0.15645E-06  2527   0.190E-03    0.164E-03
RMM:  12    -0.413171196161E+03    0.31098E-05   -0.82224E-07  2460   0.147E-03    0.493E-04
RMM:  13    -0.413171195286E+03    0.87456E-06   -0.34318E-07  2122   0.999E-04
   20 T=    62. E= -.41286634E+03 F= -.41317120E+03 E0= -.41314916E+03  EK= 0.30486E+00 SP= 0.00E+00 SK= 0.00E+00
       N       E                     dE             d eps       ncg     rms          rms(c)
RMM:   1    -0.413162816945E+03    0.83792E-02   -0.11273E+01  4300   0.782E-01    0.891E-01
RMM:   2    -0.413173759307E+03   -0.10942E-01   -0.14005E-01  4278   0.102E-01    0.645E-01
RMM:   3    -0.413172596874E+03    0.11624E-02   -0.66929E-03  4913   0.416E-02    0.173E-01
RMM:   4    -0.413209292607E+03   -0.36696E-01   -0.38120E-02  5142   0.162E-01    0.796E-01
RMM:   5    -0.413171860100E+03    0.37433E-01   -0.18307E-02  4798   0.134E-01    0.402E-02
RMM:   6    -0.413172071690E+03   -0.21159E-03   -0.29936E-03  5785   0.526E-02    0.197E-02
RMM:   7    -0.413172087769E+03   -0.16079E-04   -0.34778E-04  5927   0.155E-02    0.149E-02
RMM:   8    -0.413172087305E+03    0.46432E-06   -0.47099E-05  4787   0.619E-03    0.929E-03
RMM:   9    -0.413172084404E+03    0.29009E-05   -0.87484E-06  3260   0.328E-03    0.622E-03
RMM:  10    -0.413172083321E+03    0.10829E-05   -0.22802E-06  2554   0.222E-03    0.341E-03
RMM:  11    -0.413172082487E+03    0.83398E-06   -0.18079E-06  2558   0.200E-03
   21 T=    62. E= -.41286632E+03 F= -.41317208E+03 E0= -.41315009E+03  EK= 0.30576E+00 SP= 0.00E+00 SK= 0.00E+00
       N       E                     dE             d eps       ncg     rms          rms(c)
RMM:   1    -0.413164063564E+03    0.80198E-02   -0.11348E+01  4298   0.783E-01    0.912E-01
RMM:   2    -0.413174586355E+03   -0.10523E-01   -0.13888E-01  4286   0.998E-02    0.644E-01
RMM:   3    -0.413174384702E+03    0.20165E-03   -0.74602E-03  5025   0.485E-02    0.208E-01
RMM:   4    -0.413219625163E+03   -0.45240E-01   -0.50412E-02  5132   0.186E-01    0.885E-01
RMM:   5    -0.413173096154E+03    0.46529E-01   -0.22209E-02  4783   0.149E-01    0.472E-02
RMM:   6    -0.413173316539E+03   -0.22038E-03   -0.35365E-03  5754   0.583E-02    0.208E-02
RMM:   7    -0.413173334370E+03   -0.17831E-04   -0.43059E-04  5953   0.171E-02    0.161E-02
RMM:   8    -0.413173331265E+03    0.31047E-05   -0.56049E-05  4974   0.665E-03    0.977E-03
RMM:   9    -0.413173324884E+03    0.63807E-05   -0.97363E-06  3303   0.335E-03    0.602E-03
RMM:  10    -0.413173319921E+03    0.49631E-05   -0.25910E-06  2557   0.229E-03    0.315E-03
RMM:  11    -0.413173315832E+03    0.40887E-05   -0.14878E-06  2523   0.187E-03    0.156E-03
RMM:  12    -0.413173312325E+03    0.35075E-05   -0.80169E-07  2464   0.145E-03    0.485E-04
RMM:  13    -0.413173310899E+03    0.14255E-05   -0.35357E-07  2129   0.100E-03    0.314E-04
RMM:  14    -0.413173309303E+03    0.15967E-05   -0.19588E-07  1596   0.780E-04    0.179E-04
RMM:  15    -0.413173306160E+03    0.31425E-05   -0.19061E-07  1588   0.763E-04    0.145E-04
RMM:  16    -0.413173305533E+03    0.62710E-06   -0.80282E-08  1088   0.622E-04
   22 T=    62. E= -.41286657E+03 F= -.41317331E+03 E0= -.41315136E+03  EK= 0.30674E+00 SP= 0.00E+00 SK= 0.00E+00
       N       E                     dE             d eps       ncg     rms          rms(c)
RMM:   1    -0.413165154145E+03    0.81520E-02   -0.11338E+01  4295   0.793E-01    0.914E-01
RMM:   2    -0.413175083749E+03   -0.99296E-02   -0.13753E-01  4279   0.106E-01    0.636E-01
RMM:   3    -0.413174406807E+03    0.67694E-03   -0.70219E-03  4871   0.437E-02    0.178E-01
RMM:   4    -0.413209853103E+03   -0.35446E-01   -0.36535E-02  5148   0.159E-01    0.782E-01
RMM:   5    -0.413173797031E+03    0.36056E-01   -0.17809E-02  4800   0.131E-01    0.402E-02
RMM:   6    -0.413173983697E+03   -0.18667E-03   -0.27507E-03  5787   0.514E-02    0.213E-02
RMM:   7    -0.413173991456E+03   -0.77594E-05   -0.32261E-04  5888   0.153E-02    0.152E-02
RMM:   8    -0.413173986503E+03    0.49532E-05   -0.46021E-05  4831   0.625E-03    0.944E-03
RMM:   9    -0.413173978508E+03    0.79956E-05   -0.86847E-06  3296   0.330E-03    0.621E-03
RMM:  10    -0.413173971897E+03    0.66104E-05   -0.20995E-06  2553   0.217E-03    0.343E-03
RMM:  11    -0.413173965272E+03    0.66257E-05   -0.17022E-06  2533   0.200E-03    0.161E-03
RMM:  12    -0.413173960567E+03    0.47041E-05   -0.78762E-07  2449   0.148E-03    0.528E-04
RMM:  13    -0.413173959422E+03    0.11458E-05   -0.32887E-07  2111   0.984E-04    0.361E-04
RMM:  14    -0.413173958124E+03    0.12975E-05   -0.16883E-07  1567   0.753E-04    0.220E-04
RMM:  15    -0.413173953909E+03    0.42155E-05   -0.19473E-07  1778   0.786E-04    0.242E-04
RMM:  16    -0.413173953368E+03    0.54021E-06   -0.66227E-08   997   0.594E-04
   23 T=    63. E= -.41286630E+03 F= -.41317395E+03 E0= -.41315206E+03  EK= 0.30765E+00 SP= 0.00E+00 SK= 0.00E+00
       N       E                     dE             d eps       ncg     rms          rms(c)
RMM:   1    -0.413166007716E+03    0.79462E-02   -0.11338E+01  4294   0.792E-01    0.894E-01
RMM:   2    -0.413177216136E+03   -0.11208E-01   -0.14096E-01  4282   0.105E-01    0.644E-01
RMM:   3    -0.413175750816E+03    0.14653E-02   -0.65717E-03  4797   0.409E-02    0.167E-01
RMM:   4    -0.413203937495E+03   -0.28187E-01   -0.28697E-02  5152   0.141E-01    0.699E-01
RMM:   5    -0.413175330748E+03    0.28607E-01   -0.14216E-02  4806   0.117E-01    0.348E-02
RMM:   6    -0.413175486586E+03   -0.15584E-03   -0.22108E-03  5802   0.452E-02    0.188E-02
RMM:   7    -0.413175496260E+03   -0.96735E-05   -0.24776E-04  5810   0.136E-02    0.131E-02
RMM:   8    -0.413175495090E+03    0.11702E-05   -0.38487E-05  4722   0.575E-03    0.856E-03
RMM:   9    -0.413175490582E+03    0.45078E-05   -0.78011E-06  3277   0.321E-03    0.569E-03
RMM:  10    -0.413175488453E+03    0.21288E-05   -0.17761E-06  2537   0.204E-03    0.326E-03
RMM:  11    -0.413175486280E+03    0.21737E-05   -0.16365E-06  2538   0.194E-03    0.156E-03
RMM:  12    -0.413175484526E+03    0.17540E-05   -0.72637E-07  2433   0.141E-03    0.535E-04
RMM:  13    -0.413175484099E+03    0.42630E-06   -0.28553E-07  2029   0.924E-04
   24 T=    63. E= -.41286657E+03 F= -.41317548E+03 E0= -.41315364E+03  EK= 0.30892E+00 SP= 0.00E+00 SK= 0.00E+00
       N       E                     dE             d eps       ncg     rms          rms(c)
RMM:   1    -0.413167227584E+03    0.82569E-02   -0.11444E+01  4297   0.800E-01    0.910E-01
RMM:   2    -0.413178188587E+03   -0.10961E-01   -0.14074E-01  4280   0.107E-01    0.649E-01
RMM:   3    -0.413176815038E+03    0.13735E-02   -0.67319E-03  4793   0.427E-02    0.170E-01
RMM:   4    -0.413206525897E+03   -0.29711E-01   -0.30184E-02  5150   0.145E-01    0.717E-01
RMM:   5    -0.413176374164E+03    0.30152E-01   -0.14922E-02  4806   0.120E-01    0.358E-02
RMM:   6    -0.413176535966E+03   -0.16180E-03   -0.23362E-03  5812   0.464E-02    0.194E-02
RMM:   7    -0.413176545020E+03   -0.90548E-05   -0.25363E-04  5808   0.138E-02    0.131E-02
RMM:   8    -0.413176542735E+03    0.22853E-05   -0.40245E-05  4758   0.584E-03    0.895E-03
RMM:   9    -0.413176536581E+03    0.61545E-05   -0.85861E-06  3390   0.335E-03    0.592E-03
RMM:  10    -0.413176532821E+03    0.37594E-05   -0.18805E-06  2539   0.214E-03    0.338E-03
RMM:  11    -0.413176528611E+03    0.42101E-05   -0.17748E-06  2548   0.204E-03    0.161E-03
RMM:  12    -0.413176525530E+03    0.30810E-05   -0.73789E-07  2454   0.146E-03    0.536E-04
RMM:  13    -0.413176524821E+03    0.70934E-06   -0.29355E-07  2061   0.940E-04
   25 T=    63. E= -.41286648E+03 F= -.41317652E+03 E0= -.41315473E+03  EK= 0.31005E+00 SP= 0.00E+00 SK= 0.00E+00
       N       E                     dE             d eps       ncg     rms          rms(c)
RMM:   1    -0.413168721291E+03    0.78042E-02   -0.11470E+01  4295   0.808E-01    0.924E-01
RMM:   2    -0.413178662297E+03   -0.99410E-02   -0.13975E-01  4281   0.109E-01    0.641E-01
RMM:   3    -0.413177891649E+03    0.77065E-03   -0.70021E-03  4755   0.424E-02    0.173E-01
RMM:   4    -0.413204449033E+03   -0.26557E-01   -0.26828E-02  5155   0.136E-01    0.679E-01
RMM:   5    -0.413177544154E+03    0.26905E-01   -0.13414E-02  4807   0.113E-01    0.355E-02
RMM:   6    -0.413177683545E+03   -0.13939E-03   -0.21077E-03  5812   0.437E-02    0.199E-02
RMM:   7    -0.413177687408E+03   -0.38632E-05   -0.21875E-04  5710   0.131E-02    0.123E-02
RMM:   8    -0.413177681692E+03    0.57160E-05   -0.35014E-05  4622   0.549E-03    0.858E-03
RMM:   9    -0.413177673496E+03    0.81961E-05   -0.85644E-06  3403   0.332E-03    0.583E-03
RMM:  10    -0.413177667040E+03    0.64561E-05   -0.16994E-06  2537   0.211E-03    0.344E-03
RMM:  11    -0.413177658430E+03    0.86105E-05   -0.17631E-06  2544   0.205E-03    0.161E-03
RMM:  12    -0.413177652232E+03    0.61973E-05   -0.71924E-07  2446   0.146E-03    0.534E-04
RMM:  13    -0.413177651006E+03    0.12269E-05   -0.27457E-07  2060   0.928E-04    0.374E-04
RMM:  14    -0.413177649237E+03    0.17682E-05   -0.13331E-07  1452   0.714E-04    0.219E-04
RMM:  15    -0.413177643913E+03    0.53245E-05   -0.17635E-07  1891   0.783E-04    0.326E-04
RMM:  16    -0.413177643177E+03    0.73581E-06   -0.49792E-08   941   0.564E-04
   26 T=    63. E= -.41286630E+03 F= -.41317764E+03 E0= -.41315590E+03  EK= 0.31134E+00 SP= 0.00E+00 SK= 0.00E+00
       N       E                     dE             d eps       ncg     rms          rms(c)
RMM:   1    -0.413171042028E+03    0.66019E-02   -0.11451E+01  4291   0.825E-01    0.900E-01
RMM:   2    -0.413180934873E+03   -0.98928E-02   -0.14148E-01  4279   0.105E-01    0.644E-01
RMM:   3    -0.413179854986E+03    0.10799E-02   -0.66398E-03  4705   0.426E-02    0.168E-01
RMM:   4    -0.413203262867E+03   -0.23408E-01   -0.23643E-02  5151   0.128E-01    0.639E-01
RMM:   5    -0.413179526025E+03    0.23737E-01   -0.11843E-02  4807   0.106E-01    0.325E-02
RMM:   6    -0.413179650500E+03   -0.12447E-03   -0.18554E-03  5831   0.406E-02    0.184E-02
RMM:   7    -0.413179655970E+03   -0.54702E-05   -0.19179E-04  5696   0.124E-02    0.116E-02
RMM:   8    -0.413179653395E+03    0.25753E-05   -0.32029E-05  4563   0.536E-03    0.800E-03
RMM:   9    -0.413179647698E+03    0.56966E-05   -0.77700E-06  3322   0.324E-03    0.539E-03
RMM:  10    -0.413179644379E+03    0.33196E-05   -0.15461E-06  2528   0.203E-03    0.321E-03
RMM:  11    -0.413179640198E+03    0.41809E-05   -0.15855E-06  2534   0.194E-03    0.151E-03
RMM:  12    -0.413179637051E+03    0.31467E-05   -0.66596E-07  2432   0.139E-03    0.515E-04
RMM:  13    -0.413179636457E+03    0.59408E-06   -0.24729E-07  1951   0.886E-04
   27 T=    64. E= -.41286665E+03 F= -.41317964E+03 E0= -.41315794E+03  EK= 0.31298E+00 SP= 0.00E+00 SK= 0.00E+00
       N       E                     dE             d eps       ncg     rms          rms(c)
RMM:   1    -0.413171250239E+03    0.83868E-02   -0.11571E+01  4293   0.834E-01    0.909E-01
RMM:   2    -0.413182128827E+03   -0.10879E-01   -0.14469E-01  4277   0.108E-01    0.655E-01
RMM:   3    -0.413180860740E+03    0.12681E-02   -0.67554E-03  4631   0.430E-02    0.165E-01
RMM:   4    -0.413199413361E+03   -0.18553E-01   -0.18869E-02  5158   0.116E-01    0.571E-01
RMM:   5    -0.413180519560E+03    0.18894E-01   -0.93664E-03  4810   0.944E-02    0.294E-02
RMM:   6    -0.413180609856E+03   -0.90296E-04   -0.14693E-03  5854   0.358E-02    0.169E-02
RMM:   7    -0.413180614280E+03   -0.44249E-05   -0.14092E-04  5487   0.108E-02    0.972E-03
RMM:   8    -0.413180608882E+03    0.53983E-05   -0.19065E-05  3813   0.425E-03    0.608E-03
RMM:   9    -0.413180606255E+03    0.26270E-05   -0.49225E-06  2859   0.271E-03    0.434E-03
RMM:  10    -0.413180603736E+03    0.25190E-05   -0.11642E-06  2529   0.176E-03    0.286E-03
RMM:  11    -0.413180598956E+03    0.47801E-05   -0.13146E-06  2517   0.181E-03    0.134E-03
RMM:  12    -0.413180596621E+03    0.23348E-05   -0.53974E-07  2367   0.125E-03    0.582E-04
RMM:  13    -0.413180595916E+03    0.70517E-06   -0.20068E-07  1750   0.816E-04
   28 T=    64. E= -.41286619E+03 F= -.41318060E+03 E0= -.41315895E+03  EK= 0.31441E+00 SP= 0.00E+00 SK= 0.00E+00
       N       E                     dE             d eps       ncg     rms          rms(c)
RMM:   1    -0.413173882197E+03    0.67144E-02   -0.11642E+01  4294   0.841E-01    0.933E-01
RMM:   2    -0.413183757311E+03   -0.98751E-02   -0.14278E-01  4278   0.112E-01    0.647E-01
RMM:   3    -0.413182803380E+03    0.95393E-03   -0.70725E-03  4443   0.405E-02    0.167E-01
RMM:   4    -0.413189654907E+03   -0.68515E-02   -0.72004E-03  5174   0.717E-02    0.346E-01
RMM:   5    -0.413182847908E+03    0.68070E-02   -0.33656E-03  4836   0.566E-02    0.250E-02
RMM:   6    -0.413182863180E+03   -0.15272E-04   -0.56066E-04  5851   0.222E-02    0.169E-02
RMM:   7    -0.413182856257E+03    0.69235E-05   -0.89595E-05  5338   0.930E-03    0.950E-03
RMM:   8    -0.413182845514E+03    0.10743E-04   -0.11181E-05  3528   0.400E-03    0.416E-03
RMM:   9    -0.413182840353E+03    0.51602E-05   -0.20704E-06  2624   0.212E-03    0.302E-03
RMM:  10    -0.413182834154E+03    0.61991E-05   -0.72596E-07  2469   0.144E-03    0.179E-03
RMM:  11    -0.413182826804E+03    0.73499E-05   -0.56099E-07  2388   0.123E-03    0.740E-04
RMM:  12    -0.413182821693E+03    0.51117E-05   -0.29195E-07  1975   0.920E-04    0.295E-04
RMM:  13    -0.413182819583E+03    0.21094E-05   -0.13707E-07  1317   0.698E-04    0.169E-04
RMM:  14    -0.413182815852E+03    0.37310E-05   -0.10680E-07  1274   0.678E-04    0.971E-05
RMM:  15    -0.413182811519E+03    0.43329E-05   -0.97176E-08  1369   0.675E-04    0.116E-04
RMM:  16    -0.413182809781E+03    0.17387E-05   -0.51736E-08  1029   0.582E-04    0.641E-05
RMM:  17    -0.413182805823E+03    0.39581E-05   -0.73328E-08  1292   0.623E-04    0.406E-05
RMM:  18    -0.413182805473E+03    0.34931E-06   -0.23983E-08   767   0.509E-04
   29 T=    64. E= -.41286656E+03 F= -.41318281E+03 E0= -.41316121E+03  EK= 0.31625E+00 SP= 0.00E+00 SK= 0.00E+00
       N       E                     dE             d eps       ncg     rms          rms(c)
RMM:   1    -0.413175003335E+03    0.78025E-02   -0.11596E+01  4291   0.840E-01    0.910E-01
RMM:   2    -0.413185937244E+03   -0.10934E-01   -0.14490E-01  4272   0.110E-01    0.647E-01
RMM:   3    -0.413184694045E+03    0.12432E-02   -0.67724E-03  4468   0.447E-02    0.167E-01
RMM:   4    -0.413194378048E+03   -0.96840E-02   -0.10109E-02  5155   0.868E-02    0.415E-01
RMM:   5    -0.413184557652E+03    0.98204E-02   -0.48953E-03  4822   0.680E-02    0.251E-02
RMM:   6    -0.413184583766E+03   -0.26113E-04   -0.75692E-04  5858   0.258E-02    0.164E-02
RMM:   7    -0.413184582294E+03    0.14716E-05   -0.10134E-04  5473   0.970E-03    0.102E-02
RMM:   8    -0.413184573368E+03    0.89256E-05   -0.15245E-05  3932   0.445E-03    0.473E-03
RMM:   9    -0.413184569577E+03    0.37909E-05   -0.31578E-06  2734   0.244E-03    0.336E-03
RMM:  10    -0.413184565776E+03    0.38010E-05   -0.75079E-07  2479   0.148E-03    0.208E-03
RMM:  11    -0.413184560724E+03    0.50526E-05   -0.64579E-07  2459   0.130E-03    0.962E-04
RMM:  12    -0.413184556979E+03    0.37450E-05   -0.35600E-07  2092   0.973E-04    0.374E-04
RMM:  13    -0.413184555645E+03    0.13335E-05   -0.14754E-07  1346   0.707E-04    0.199E-04
RMM:  14    -0.413184553588E+03    0.20570E-05   -0.99198E-08  1137   0.655E-04    0.107E-04
RMM:  15    -0.413184550483E+03    0.31049E-05   -0.90138E-08  1222   0.662E-04    0.108E-04
RMM:  16    -0.413184549975E+03    0.50802E-06   -0.42278E-08   877   0.582E-04
   30 T=    65. E= -.41286651E+03 F= -.41318455E+03 E0= -.41316300E+03  EK= 0.31804E+00 SP= 0.00E+00 SK= 0.00E+00
       N       E                     dE             d eps       ncg     rms          rms(c)
RMM:   1    -0.413178862371E+03    0.56881E-02   -0.11753E+01  4290   0.893E-01    0.911E-01
RMM:   2    -0.413188494670E+03   -0.96323E-02   -0.15022E-01  4269   0.121E-01    0.661E-01
RMM:   3    -0.413186304094E+03    0.21906E-02   -0.66453E-03  4324   0.412E-02    0.163E-01
RMM:   4    -0.413189108373E+03   -0.28043E-02   -0.35963E-03  5133   0.506E-02    0.224E-01
RMM:   5    -0.413186295579E+03    0.28128E-02   -0.13834E-03  4813   0.368E-02    0.206E-02
RMM:   6    -0.413186294443E+03    0.11361E-05   -0.24365E-04  5714   0.156E-02    0.153E-02
RMM:   7    -0.413186289909E+03    0.45343E-05   -0.54020E-05  4968   0.749E-03    0.616E-03
RMM:   8    -0.413186285432E+03    0.44770E-05   -0.64735E-06  3076   0.322E-03    0.323E-03
RMM:   9    -0.413186284203E+03    0.12285E-05   -0.91945E-07  2508   0.167E-03    0.215E-03
RMM:  10    -0.413186281148E+03    0.30552E-05   -0.61927E-07  2357   0.121E-03    0.110E-03
RMM:  11    -0.413186278832E+03    0.23158E-05   -0.33711E-07  1892   0.918E-04    0.449E-04
RMM:  12    -0.413186276631E+03    0.22016E-05   -0.21542E-07  1584   0.789E-04    0.202E-04
RMM:  13    -0.413186275023E+03    0.16079E-05   -0.12295E-07  1229   0.678E-04    0.118E-04
RMM:  14    -0.413186273248E+03    0.17747E-05   -0.95800E-08  1204   0.646E-04    0.712E-05
RMM:  15    -0.413186270868E+03    0.23803E-05   -0.87299E-08  1237   0.633E-04    0.554E-05
RMM:  16    -0.413186269840E+03    0.10276E-05   -0.42268E-08   897   0.554E-04    0.343E-05
RMM:  17    -0.413186268729E+03    0.11116E-05   -0.30174E-08   821   0.539E-04    0.195E-05
RMM:  18    -0.413186268182E+03    0.54658E-06   -0.15519E-08   688   0.523E-04
   31 T=    65. E= -.41286640E+03 F= -.41318627E+03 E0= -.41316477E+03  EK= 0.31987E+00 SP= 0.00E+00 SK= 0.00E+00
       N       E                     dE             d eps       ncg     rms          rms(c)
RMM:   1    -0.413187600553E+03   -0.13318E-02   -0.11909E+01  4291   0.930E-01    0.938E-01
RMM:   2    -0.413190159389E+03   -0.25588E-02   -0.15141E-01  4266   0.123E-01    0.656E-01
RMM:   3    -0.413188953098E+03    0.12063E-02   -0.71541E-03  4245   0.481E-02    0.172E-01
RMM:   4    -0.413190425334E+03   -0.14722E-02   -0.22898E-03  5068   0.430E-02    0.158E-01
RMM:   5    -0.413189026723E+03    0.13986E-02   -0.66451E-04  4772   0.263E-02    0.229E-02
RMM:   6    -0.413189017232E+03    0.94909E-05   -0.15397E-04  5592   0.129E-02    0.170E-02
RMM:   7    -0.413189001204E+03    0.16028E-04   -0.47557E-05  4701   0.719E-03    0.514E-03
RMM:   8    -0.413188994865E+03    0.63391E-05   -0.47852E-06  2934   0.301E-03    0.309E-03
RMM:   9    -0.413188992364E+03    0.25009E-05   -0.67281E-07  2460   0.158E-03    0.191E-03
RMM:  10    -0.413188984582E+03    0.77822E-05   -0.55843E-07  2300   0.116E-03    0.890E-04
RMM:  11    -0.413188979788E+03    0.47942E-05   -0.24318E-07  1671   0.821E-04    0.348E-04
RMM:  12    -0.413188975503E+03    0.42849E-05   -0.15872E-07  1519   0.739E-04    0.185E-04
RMM:  13    -0.413188971754E+03    0.37486E-05   -0.98120E-08  1191   0.654E-04    0.104E-04
RMM:  14    -0.413188968016E+03    0.37384E-05   -0.77391E-08  1162   0.622E-04    0.875E-05
RMM:  15    -0.413188964772E+03    0.32438E-05   -0.58717E-08  1067   0.589E-04    0.549E-05
RMM:  16    -0.413188961174E+03    0.35980E-05   -0.56784E-08  1134   0.594E-04    0.564E-05
RMM:  17    -0.413188960809E+03    0.36502E-06   -0.20344E-08   702   0.505E-04
   32 T=    66. E= -.41286690E+03 F= -.41318896E+03 E0= -.41316751E+03  EK= 0.32206E+00 SP= 0.00E+00 SK= 0.00E+00
       N       E                     dE             d eps       ncg     rms          rms(c)
RMM:   1    -0.413190272927E+03   -0.13118E-02   -0.11889E+01  4289   0.949E-01    0.924E-01
RMM:   2    -0.413192436022E+03   -0.21631E-02   -0.15548E-01  4272   0.133E-01    0.652E-01
RMM:   3    -0.413190895478E+03    0.15405E-02   -0.66813E-03  4188   0.400E-02    0.177E-01
RMM:   4    -0.413191094790E+03   -0.19931E-03   -0.12906E-03  4943   0.285E-02    0.665E-02
RMM:   5    -0.413190873855E+03    0.22093E-03   -0.13646E-04  4686   0.123E-02    0.227E-02
RMM:   6    -0.413190860416E+03    0.13439E-04   -0.74865E-05  5241   0.924E-03    0.163E-02
RMM:   7    -0.413190844333E+03    0.16083E-04   -0.35993E-05  4206   0.623E-03    0.486E-03
RMM:   8    -0.413190839674E+03    0.46590E-05   -0.31260E-06  2687   0.269E-03    0.289E-03
RMM:   9    -0.413190837813E+03    0.18611E-05   -0.51536E-07  2262   0.141E-03    0.168E-03
RMM:  10    -0.413190831241E+03    0.65726E-05   -0.38646E-07  1805   0.956E-04    0.673E-04
RMM:  11    -0.413190825621E+03    0.56196E-05   -0.20573E-07  1557   0.767E-04    0.268E-04
RMM:  12    -0.413190822185E+03    0.34356E-05   -0.94357E-08  1216   0.635E-04    0.170E-04
RMM:  13    -0.413190817096E+03    0.50895E-05   -0.75327E-08   997   0.611E-04    0.915E-05
RMM:  14    -0.413190814038E+03    0.30574E-05   -0.39793E-08   810   0.557E-04    0.657E-05
RMM:  15    -0.413190810689E+03    0.33498E-05   -0.36156E-08   863   0.555E-04    0.767E-05
RMM:  16    -0.413190808076E+03    0.26128E-05   -0.27193E-08   802   0.535E-04    0.549E-05
RMM:  17    -0.413190807613E+03    0.46249E-06   -0.81674E-09   500   0.471E-04
   33 T=    66. E= -.41286668E+03 F= -.41319081E+03 E0= -.41316941E+03  EK= 0.32413E+00 SP= 0.00E+00 SK= 0.00E+00
       N       E                     dE             d eps       ncg     rms          rms(c)
RMM:   1    -0.413185578204E+03    0.52299E-02   -0.11941E+01  4292   0.930E-01    0.916E-01
RMM:   2    -0.413195061991E+03   -0.94838E-02   -0.15557E-01  4263   0.128E-01    0.666E-01
RMM:   3    -0.413193402865E+03    0.16591E-02   -0.67017E-03  4456   0.466E-02    0.172E-01
RMM:   4    -0.413202089325E+03   -0.86865E-02   -0.90727E-03  5151   0.833E-02    0.392E-01
RMM:   5    -0.413193393531E+03    0.86958E-02   -0.42612E-03  4808   0.643E-02    0.254E-02
RMM:   6    -0.413193379771E+03    0.13760E-04   -0.67049E-04  5801   0.258E-02    0.166E-02
RMM:   7    -0.413193380232E+03   -0.46123E-06   -0.99420E-05  5392   0.968E-03    0.955E-03
RMM:   8    -0.413193373964E+03    0.62687E-05   -0.15612E-05  3970   0.447E-03    0.448E-03
RMM:   9    -0.413193371838E+03    0.21261E-05   -0.28399E-06  2714   0.238E-03    0.286E-03
RMM:  10    -0.413193369065E+03    0.27724E-05   -0.75123E-07  2465   0.144E-03    0.172E-03
RMM:  11    -0.413193365382E+03    0.36833E-05   -0.59372E-07  2408   0.120E-03    0.793E-04
RMM:  12    -0.413193362431E+03    0.29506E-05   -0.33947E-07  1932   0.929E-04    0.318E-04
RMM:  13    -0.413193361045E+03    0.13862E-05   -0.15263E-07  1274   0.708E-04    0.179E-04
RMM:  14    -0.413193359386E+03    0.16595E-05   -0.10596E-07  1110   0.661E-04    0.952E-05
RMM:  15    -0.413193356943E+03    0.24421E-05   -0.94079E-08  1172   0.661E-04    0.861E-05
RMM:  16    -0.413193356443E+03    0.49998E-06   -0.46157E-08   873   0.591E-04
   34 T=    66. E= -.41286682E+03 F= -.41319336E+03 E0= -.41317200E+03  EK= 0.32654E+00 SP= 0.00E+00 SK= 0.00E+00
       N       E                     dE             d eps       ncg     rms          rms(c)
RMM:   1    -0.413187003254E+03    0.63537E-02   -0.12050E+01  4301   0.932E-01    0.942E-01
RMM:   2    -0.413197487909E+03   -0.10485E-01   -0.15605E-01  4257   0.134E-01    0.665E-01
RMM:   3    -0.413196178196E+03    0.13097E-02   -0.69761E-03  4471   0.457E-02    0.178E-01
RMM:   4    -0.413203576865E+03   -0.73987E-02   -0.79950E-03  5161   0.767E-02    0.366E-01
RMM:   5    -0.413196032946E+03    0.75439E-02   -0.38143E-03  4814   0.605E-02    0.264E-02
RMM:   6    -0.413196018080E+03    0.14866E-04   -0.62010E-04  5779   0.245E-02    0.177E-02
RMM:   7    -0.413196012599E+03    0.54813E-05   -0.98199E-05  5372   0.945E-03    0.913E-03
RMM:   8    -0.413196003461E+03    0.91378E-05   -0.14839E-05  3885   0.434E-03    0.427E-03
RMM:   9    -0.413195999196E+03    0.42646E-05   -0.24401E-06  2671   0.224E-03    0.266E-03
RMM:  10    -0.413195993530E+03    0.56662E-05   -0.70187E-07  2458   0.138E-03    0.159E-03
RMM:  11    -0.413195986442E+03    0.70879E-05   -0.51534E-07  2368   0.115E-03    0.696E-04
RMM:  12    -0.413195981001E+03    0.54416E-05   -0.28229E-07  1873   0.891E-04    0.278E-04
RMM:  13    -0.413195978558E+03    0.24427E-05   -0.13612E-07  1251   0.700E-04    0.162E-04
RMM:  14    -0.413195975417E+03    0.31408E-05   -0.94817E-08  1127   0.659E-04    0.917E-05
RMM:  15    -0.413195969989E+03    0.54278E-05   -0.97908E-08  1372   0.682E-04    0.110E-04
RMM:  16    -0.413195969050E+03    0.93907E-06   -0.45307E-08   912   0.579E-04
   35 T=    67. E= -.41286688E+03 F= -.41319597E+03 E0= -.41317466E+03  EK= 0.32909E+00 SP= 0.00E+00 SK= 0.00E+00
       N       E                     dE             d eps       ncg     rms          rms(c)
RMM:   1    -0.413189926833E+03    0.60432E-02   -0.12079E+01  4297   0.964E-01    0.941E-01
RMM:   2    -0.413199440116E+03   -0.95133E-02   -0.15538E-01  4258   0.122E-01    0.659E-01
RMM:   3    -0.413198446739E+03    0.99338E-03   -0.72435E-03  4812   0.464E-02    0.193E-01
RMM:   4    -0.413231360792E+03   -0.32914E-01   -0.33263E-02  5156   0.153E-01    0.756E-01
RMM:   5    -0.413198050597E+03    0.33310E-01   -0.16719E-02  4796   0.126E-01    0.400E-02
RMM:   6    -0.413198117387E+03   -0.66789E-04   -0.26686E-03  5859   0.481E-02    0.213E-02
RMM:   7    -0.413198127558E+03   -0.10172E-04   -0.27745E-04  5789   0.143E-02    0.138E-02
RMM:   8    -0.413198119560E+03    0.79988E-05   -0.40081E-05  4778   0.598E-03    0.895E-03
RMM:   9    -0.413198114327E+03    0.52322E-05   -0.13286E-05  3960   0.402E-03    0.597E-03
RMM:  10    -0.413198105875E+03    0.84529E-05   -0.24047E-06  2579   0.248E-03    0.314E-03
RMM:  11    -0.413198099223E+03    0.66513E-05   -0.15689E-06  2514   0.196E-03    0.176E-03
RMM:  12    -0.413198090306E+03    0.89168E-05   -0.91520E-07  2473   0.166E-03    0.652E-04
RMM:  13    -0.413198087568E+03    0.27388E-05   -0.34571E-07  2234   0.107E-03    0.477E-04
RMM:  14    -0.413198086392E+03    0.11755E-05   -0.14549E-07  1520   0.741E-04    0.304E-04
RMM:  15    -0.413198079117E+03    0.72755E-05   -0.17526E-07  2041   0.809E-04    0.456E-04
RMM:  16    -0.413198078486E+03    0.63096E-06   -0.48974E-08   942   0.555E-04
   36 T=    67. E= -.41286664E+03 F= -.41319808E+03 E0= -.41317682E+03  EK= 0.33143E+00 SP= 0.00E+00 SK= 0.00E+00
       N       E                     dE             d eps       ncg     rms          rms(c)
RMM:   1    -0.413192179247E+03    0.58999E-02   -0.12146E+01  4302   0.988E-01    0.924E-01
RMM:   2    -0.413203090944E+03   -0.10912E-01   -0.16180E-01  4260   0.134E-01    0.671E-01
RMM:   3    -0.413201653928E+03    0.14370E-02   -0.70599E-03  4821   0.529E-02    0.200E-01
RMM:   4    -0.413244090647E+03   -0.42437E-01   -0.43451E-02  5156   0.174E-01    0.855E-01
RMM:   5    -0.413200957848E+03    0.43133E-01   -0.21612E-02  4795   0.143E-01    0.434E-02
RMM:   6    -0.413201077301E+03   -0.11945E-03   -0.34393E-03  5866   0.543E-02    0.218E-02
RMM:   7    -0.413201092340E+03   -0.15039E-04   -0.33924E-04  5743   0.156E-02    0.140E-02
RMM:   8    -0.413201087700E+03    0.46396E-05   -0.38402E-05  4191   0.544E-03    0.835E-03
RMM:   9    -0.413201080754E+03    0.69465E-05   -0.76267E-06  2917   0.318E-03    0.377E-03
RMM:  10    -0.413201077344E+03    0.34100E-05   -0.26366E-06  2577   0.225E-03    0.248E-03
RMM:  11    -0.413201072640E+03    0.47033E-05   -0.14153E-06  2509   0.194E-03    0.143E-03
RMM:  12    -0.413201069775E+03    0.28656E-05   -0.64946E-07  2409   0.140E-03    0.566E-04
RMM:  13    -0.413201068467E+03    0.13079E-05   -0.30191E-07  2021   0.950E-04    0.391E-04
RMM:  14    -0.413201066670E+03    0.17966E-05   -0.16929E-07  1549   0.761E-04    0.227E-04
RMM:  15    -0.413201062963E+03    0.37070E-05   -0.16196E-07  1723   0.758E-04    0.243E-04
RMM:  16    -0.413201061965E+03    0.99801E-06   -0.66398E-08  1037   0.609E-04
   37 T=    68. E= -.41286687E+03 F= -.41320106E+03 E0= -.41317984E+03  EK= 0.33419E+00 SP= 0.00E+00 SK= 0.00E+00
       N       E                     dE             d eps       ncg     rms          rms(c)
RMM:   1    -0.413197163906E+03    0.38991E-02   -0.12323E+01  4308   0.103E+00    0.946E-01
RMM:   2    -0.413205836695E+03   -0.86728E-02   -0.16133E-01  4254   0.129E-01    0.674E-01
RMM:   3    -0.413204114991E+03    0.17217E-02   -0.72728E-03  4744   0.514E-02    0.195E-01
RMM:   4    -0.413238247021E+03   -0.34132E-01   -0.34446E-02  5155   0.155E-01    0.769E-01
RMM:   5    -0.413203658693E+03    0.34588E-01   -0.17433E-02  4806   0.128E-01    0.399E-02
RMM:   6    -0.413203734838E+03   -0.76145E-04   -0.27557E-03  5847   0.487E-02    0.212E-02
RMM:   7    -0.413203747012E+03   -0.12175E-04   -0.28845E-04  5788   0.145E-02    0.139E-02
RMM:   8    -0.413203739944E+03    0.70679E-05   -0.41808E-05  4810   0.606E-03    0.906E-03
RMM:   9    -0.413203735683E+03    0.42610E-05   -0.13613E-05  3989   0.402E-03    0.591E-03
RMM:  10    -0.413203728689E+03    0.69944E-05   -0.24770E-06  2578   0.244E-03    0.313E-03
RMM:  11    -0.413203723356E+03    0.53333E-05   -0.15627E-06  2514   0.195E-03    0.174E-03
RMM:  12    -0.413203716326E+03    0.70302E-05   -0.89122E-07  2475   0.161E-03    0.641E-04
RMM:  13    -0.413203714023E+03    0.23030E-05   -0.34466E-07  2221   0.106E-03    0.462E-04
RMM:  14    -0.413203712921E+03    0.11014E-05   -0.14856E-07  1545   0.745E-04    0.292E-04
RMM:  15    -0.413203706459E+03    0.64624E-05   -0.18297E-07  2011   0.812E-04    0.448E-04
RMM:  16    -0.413203705926E+03    0.53272E-06   -0.50513E-08   963   0.565E-04
   38 T=    69. E= -.41286701E+03 F= -.41320371E+03 E0= -.41318253E+03  EK= 0.33669E+00 SP= 0.00E+00 SK= 0.00E+00
       N       E                     dE             d eps       ncg     rms          rms(c)
RMM:   1    -0.413200538783E+03    0.31677E-02   -0.12379E+01  4304   0.108E+00    0.958E-01
RMM:   2    -0.413207379792E+03   -0.68410E-02   -0.16381E-01  4264   0.127E-01    0.668E-01
RMM:   3    -0.413206739285E+03    0.64051E-03   -0.78548E-03  4980   0.545E-02    0.226E-01
RMM:   4    -0.413257486465E+03   -0.50747E-01   -0.54438E-02  5135   0.194E-01    0.935E-01
RMM:   5    -0.413205587685E+03    0.51899E-01   -0.25672E-02  4789   0.157E-01    0.497E-02
RMM:   6    -0.413205746999E+03   -0.15931E-03   -0.40615E-03  5833   0.594E-02    0.242E-02
RMM:   7    -0.413205764406E+03   -0.17407E-04   -0.42188E-04  5837   0.174E-02    0.161E-02
RMM:   8    -0.413205761315E+03    0.30913E-05   -0.63822E-05  5041   0.704E-03    0.112E-02
RMM:   9    -0.413205750221E+03    0.11094E-04   -0.17392E-05  4241   0.449E-03    0.653E-03
RMM:  10    -0.413205741310E+03    0.89107E-05   -0.39608E-06  2695   0.287E-03    0.330E-03
RMM:  11    -0.413205734580E+03    0.67302E-05   -0.16623E-06  2505   0.208E-03    0.192E-03
RMM:  12    -0.413205725570E+03    0.90098E-05   -0.89757E-07  2469   0.167E-03    0.668E-04
RMM:  13    -0.413205721438E+03    0.41321E-05   -0.38383E-07  2299   0.112E-03    0.417E-04
RMM:  14    -0.413205718683E+03    0.27557E-05   -0.17746E-07  1751   0.794E-04    0.269E-04
RMM:  15    -0.413205711070E+03    0.76125E-05   -0.14620E-07  1721   0.760E-04    0.260E-04
RMM:  16    -0.413205710033E+03    0.10367E-05   -0.57759E-08  1004   0.584E-04    0.151E-04
RMM:  17    -0.413205706657E+03    0.33763E-05   -0.49168E-08  1012   0.593E-04    0.931E-05
RMM:  18    -0.413205704153E+03    0.25037E-05   -0.43842E-08  1057   0.598E-04    0.376E-05
RMM:  19    -0.413205702097E+03    0.20566E-05   -0.36460E-08  1048   0.588E-04    0.536E-05
RMM:  20    -0.413205701531E+03    0.56530E-06   -0.17044E-08   789   0.542E-04
   39 T=    69. E= -.41286669E+03 F= -.41320570E+03 E0= -.41318456E+03  EK= 0.33901E+00 SP= 0.00E+00 SK= 0.00E+00
       N       E                     dE             d eps       ncg     rms          rms(c)
RMM:   1    -0.413202017876E+03    0.36842E-02   -0.12383E+01  4311   0.111E+00    0.935E-01
RMM:   2    -0.413211030064E+03   -0.90122E-02   -0.16624E-01  4268   0.132E-01    0.674E-01
RMM:   3    -0.413210099927E+03    0.93014E-03   -0.76458E-03  5003   0.552E-02    0.236E-01
RMM:   4    -0.413264253594E+03   -0.54154E-01   -0.59473E-02  5131   0.202E-01    0.966E-01
RMM:   5    -0.413208683109E+03    0.55570E-01   -0.27145E-02  4779   0.163E-01    0.517E-02
RMM:   6    -0.413208874841E+03   -0.19173E-03   -0.44743E-03  5821   0.615E-02    0.238E-02
RMM:   7    -0.413208896780E+03   -0.21938E-04   -0.46338E-04  5891   0.181E-02    0.167E-02
RMM:   8    -0.413208896684E+03    0.95111E-07   -0.72325E-05  5133   0.747E-03    0.118E-02
RMM:   9    -0.413208887380E+03    0.93042E-05   -0.16263E-05  4122   0.446E-03    0.644E-03
RMM:  10    -0.413208881634E+03    0.57461E-05   -0.41676E-06  2695   0.286E-03    0.326E-03
RMM:  11    -0.413208877546E+03    0.40883E-05   -0.16837E-06  2507   0.207E-03    0.189E-03
RMM:  12    -0.413208872273E+03    0.52728E-05   -0.89858E-07  2468   0.163E-03    0.694E-04
RMM:  13    -0.413208869760E+03    0.25132E-05   -0.39546E-07  2278   0.112E-03    0.409E-04
RMM:  14    -0.413208867741E+03    0.20190E-05   -0.19584E-07  1787   0.809E-04    0.249E-04
RMM:  15    -0.413208862811E+03    0.49298E-05   -0.15732E-07  1618   0.753E-04    0.230E-04
RMM:  16    -0.413208862239E+03    0.57239E-06   -0.66251E-08  1041   0.597E-04
   40 T=    70. E= -.41286722E+03 F= -.41320886E+03 E0= -.41318776E+03  EK= 0.34164E+00 SP= 0.00E+00 SK= 0.00E+00
       N       E                     dE             d eps       ncg     rms          rms(c)
RMM:   1    -0.413208781181E+03    0.81630E-04   -0.12588E+01  4304   0.119E+00    0.948E-01
RMM:   2    -0.413212426640E+03   -0.36455E-02   -0.17348E-01  4272   0.139E-01    0.685E-01
RMM:   3    -0.413212012411E+03    0.41423E-03   -0.80849E-03  5043   0.579E-02    0.256E-01
RMM:   4    -0.413267531868E+03   -0.55519E-01   -0.62977E-02  5128   0.208E-01    0.981E-01
RMM:   5    -0.413210199976E+03    0.57332E-01   -0.27806E-02  4773   0.165E-01    0.537E-02
RMM:   6    -0.413210384540E+03   -0.18456E-03   -0.44542E-03  5811   0.622E-02    0.238E-02
RMM:   7    -0.413210407583E+03   -0.23042E-04   -0.48028E-04  5930   0.185E-02    0.173E-02
RMM:   8    -0.413210407244E+03    0.33874E-06   -0.76994E-05  5206   0.778E-03    0.119E-02
RMM:   9    -0.413210397375E+03    0.98690E-05   -0.15478E-05  4043   0.448E-03    0.590E-03
RMM:  10    -0.413210391402E+03    0.59728E-05   -0.43298E-06  2695   0.287E-03    0.303E-03
RMM:  11    -0.413210387216E+03    0.41864E-05   -0.15713E-06  2514   0.200E-03    0.168E-03
RMM:  12    -0.413210381996E+03    0.52202E-05   -0.80496E-07  2457   0.154E-03    0.669E-04
RMM:  13    -0.413210379156E+03    0.28397E-05   -0.37074E-07  2218   0.107E-03    0.367E-04
RMM:  14    -0.413210376273E+03    0.28827E-05   -0.20114E-07  1662   0.805E-04    0.220E-04
RMM:  15    -0.413210372013E+03    0.42605E-05   -0.14494E-07  1428   0.727E-04    0.147E-04
RMM:  16    -0.413210370717E+03    0.12960E-05   -0.78219E-08  1089   0.630E-04    0.724E-05
RMM:  17    -0.413210368594E+03    0.21225E-05   -0.62614E-08  1080   0.623E-04    0.511E-05
RMM:  18    -0.413210365113E+03    0.34810E-05   -0.68482E-08  1265   0.641E-04    0.392E-05
RMM:  19    -0.413210364555E+03    0.55847E-06   -0.30279E-08   869   0.562E-04
   41 T=    70. E= -.41286675E+03 F= -.41321036E+03 E0= -.41318930E+03  EK= 0.34361E+00 SP= 0.00E+00 SK= 0.00E+00
       N       E                     dE             d eps       ncg     rms          rms(c)
RMM:   1    -0.413219114079E+03   -0.87490E-02   -0.12727E+01  4311   0.128E+00    0.972E-01
RMM:   2    -0.413214152868E+03    0.49612E-02   -0.17706E-01  4295   0.146E-01    0.677E-01
RMM:   3    -0.413216639200E+03   -0.24863E-02   -0.10424E-02  5124   0.732E-02    0.332E-01
RMM:   4    -0.413251060559E+03   -0.34421E-01   -0.50529E-02  5091   0.189E-01    0.815E-01
RMM:   5    -0.413212775698E+03    0.38285E-01   -0.17190E-02  4728   0.136E-01    0.519E-02
RMM:   6    -0.413212829594E+03   -0.53896E-04   -0.28506E-03  5752   0.505E-02    0.223E-02
RMM:   7    -0.413212840660E+03   -0.11066E-04   -0.34752E-04  5873   0.162E-02    0.166E-02
RMM:   8    -0.413212836830E+03    0.38306E-05   -0.64320E-05  5151   0.737E-03    0.101E-02
RMM:   9    -0.413212823534E+03    0.13296E-04   -0.12888E-05  3788   0.443E-03    0.417E-03
RMM:  10    -0.413212816452E+03    0.70820E-05   -0.30460E-06  2632   0.241E-03    0.230E-03
RMM:  11    -0.413212809524E+03    0.69279E-05   -0.11089E-06  2501   0.168E-03    0.114E-03
RMM:  12    -0.413212803394E+03    0.61292E-05   -0.47373E-07  2375   0.120E-03    0.539E-04
RMM:  13    -0.413212798834E+03    0.45600E-05   -0.25079E-07  1666   0.859E-04    0.241E-04
RMM:  14    -0.413212794701E+03    0.41339E-05   -0.16016E-07  1353   0.742E-04    0.140E-04
RMM:  15    -0.413212788112E+03    0.65886E-05   -0.14105E-07  1508   0.732E-04    0.990E-05
RMM:  16    -0.413212786302E+03    0.18101E-05   -0.83570E-08  1162   0.627E-04    0.736E-05
RMM:  17    -0.413212781733E+03    0.45690E-05   -0.80081E-08  1318   0.637E-04    0.484E-05
RMM:  18    -0.413212779475E+03    0.22578E-05   -0.49336E-08  1033   0.570E-04    0.394E-05
RMM:  19    -0.413212779017E+03    0.45846E-06   -0.28078E-08   804   0.532E-04
   42 T=    70. E= -.41286707E+03 F= -.41321278E+03 E0= -.41319174E+03  EK= 0.34571E+00 SP= 0.00E+00 SK= 0.00E+00
       N       E                     dE             d eps       ncg     rms          rms(c)
RMM:   1    -0.413221779391E+03   -0.89999E-02   -0.12699E+01  4311   0.135E+00    0.947E-01
RMM:   2    -0.413216088725E+03    0.56907E-02   -0.17152E-01  4299   0.153E-01    0.677E-01
RMM:   3    -0.413219750586E+03   -0.36619E-02   -0.11351E-02  5105   0.822E-02    0.362E-01
RMM:   4    -0.413248232749E+03   -0.28482E-01   -0.48028E-02  5060   0.185E-01    0.765E-01
RMM:   5    -0.413214682155E+03    0.33551E-01   -0.14512E-02  4705   0.128E-01    0.499E-02
RMM:   6    -0.413214708188E+03   -0.26033E-04   -0.24599E-03  5733   0.471E-02    0.214E-02
RMM:   7    -0.413214715683E+03   -0.74951E-05   -0.29474E-04  5867   0.153E-02    0.161E-02
RMM:   8    -0.413214711922E+03    0.37607E-05   -0.56213E-05  5084   0.707E-03    0.938E-03
RMM:   9    -0.413214700973E+03    0.10949E-04   -0.12108E-05  3677   0.440E-03    0.391E-03
RMM:  10    -0.413214696045E+03    0.49279E-05   -0.26721E-06  2607   0.231E-03    0.217E-03
RMM:  11    -0.413214690846E+03    0.51985E-05   -0.11488E-06  2508   0.166E-03    0.112E-03
RMM:  12    -0.413214686605E+03    0.42419E-05   -0.48229E-07  2355   0.118E-03    0.512E-04
RMM:  13    -0.413214683184E+03    0.34202E-05   -0.26582E-07  1608   0.848E-04    0.239E-04
RMM:  14    -0.413214680361E+03    0.28236E-05   -0.17192E-07  1332   0.737E-04    0.134E-04
RMM:  15    -0.413214675534E+03    0.48265E-05   -0.15323E-07  1377   0.725E-04    0.826E-05
RMM:  16    -0.413214673659E+03    0.18755E-05   -0.91937E-08  1141   0.646E-04    0.598E-05
RMM:  17    -0.413214670520E+03    0.31384E-05   -0.83726E-08  1283   0.641E-04    0.544E-05
RMM:  18    -0.413214668383E+03    0.21369E-05   -0.56560E-08  1069   0.580E-04    0.399E-05
RMM:  19    -0.413214667835E+03    0.54831E-06   -0.30922E-08   804   0.531E-04
   43 T=    71. E= -.41286712E+03 F= -.41321467E+03 E0= -.41319366E+03  EK= 0.34755E+00 SP= 0.00E+00 SK= 0.00E+00
       N       E                     dE             d eps       ncg     rms          rms(c)
RMM:   1    -0.413242755230E+03   -0.28087E-01   -0.13024E+01  4312   0.150E+00    0.948E-01
RMM:   2    -0.413217297762E+03    0.25457E-01   -0.20472E-01  4306   0.174E-01    0.695E-01
RMM:   3    -0.413222217587E+03   -0.49198E-02   -0.12344E-02  5106   0.910E-02    0.419E-01
RMM:   4    -0.413247794978E+03   -0.25577E-01   -0.49463E-02  5051   0.189E-01    0.757E-01
RMM:   5    -0.413215574760E+03    0.32220E-01   -0.13954E-02  4682   0.129E-01    0.535E-02
RMM:   6    -0.413215577463E+03   -0.27031E-05   -0.23749E-03  5668   0.466E-02    0.220E-02
RMM:   7    -0.413215585169E+03   -0.77057E-05   -0.29555E-04  5902   0.155E-02    0.168E-02
RMM:   8    -0.413215581420E+03    0.37492E-05   -0.54105E-05  5089   0.702E-03    0.962E-03
RMM:   9    -0.413215571716E+03    0.97040E-05   -0.13883E-05  3796   0.477E-03    0.424E-03
RMM:  10    -0.413215567807E+03    0.39091E-05   -0.28764E-06  2633   0.239E-03    0.243E-03
RMM:  11    -0.413215563886E+03    0.39205E-05   -0.15558E-06  2551   0.185E-03    0.126E-03
RMM:  12    -0.413215561081E+03    0.28053E-05   -0.54055E-07  2441   0.128E-03    0.610E-04
RMM:  13    -0.413215558182E+03    0.28990E-05   -0.32707E-07  1643   0.909E-04    0.323E-04
RMM:  14    -0.413215555906E+03    0.22758E-05   -0.21085E-07  1418   0.784E-04    0.177E-04
RMM:  15    -0.413215553332E+03    0.25742E-05   -0.15411E-07  1292   0.722E-04    0.917E-05
RMM:  16    -0.413215550529E+03    0.28029E-05   -0.12816E-07  1357   0.697E-04    0.618E-05
RMM:  17    -0.413215549090E+03    0.14392E-05   -0.78856E-08  1086   0.615E-04    0.521E-05
RMM:  18    -0.413215546788E+03    0.23019E-05   -0.72270E-08  1165   0.609E-04    0.331E-05
RMM:  19    -0.413215546151E+03    0.63721E-06   -0.37642E-08   852   0.546E-04
   44 T=    71. E= -.41286679E+03 F= -.41321555E+03 E0= -.41319456E+03  EK= 0.34875E+00 SP= 0.00E+00 SK= 0.00E+00
       N       E                     dE             d eps       ncg     rms          rms(c)
RMM:   1    -0.413229011948E+03   -0.13465E-01   -0.12922E+01  4307   0.154E+00    0.977E-01
RMM:   2    -0.413217890481E+03    0.11121E-01   -0.18307E-01  4357   0.179E-01    0.685E-01
RMM:   3    -0.413230300745E+03   -0.12410E-01   -0.19155E-02  5142   0.118E-01    0.533E-01
RMM:   4    -0.413232682416E+03   -0.23817E-02   -0.38117E-02  5014   0.170E-01    0.543E-01
RMM:   5    -0.413217163120E+03    0.15519E-01   -0.59290E-03  4563   0.945E-02    0.452E-02
RMM:   6    -0.413217115354E+03    0.47766E-04   -0.10616E-03  5324   0.322E-02    0.201E-02
RMM:   7    -0.413217113402E+03    0.19516E-05   -0.12889E-04  5663   0.110E-02    0.145E-02
RMM:   8    -0.413217107602E+03    0.58004E-05   -0.48492E-05  5094   0.700E-03    0.840E-03
RMM:   9    -0.413217092261E+03    0.15341E-04   -0.12222E-05  3876   0.464E-03    0.367E-03
RMM:  10    -0.413217087998E+03    0.42622E-05   -0.16960E-06  2561   0.201E-03    0.191E-03
RMM:  11    -0.413217081157E+03    0.68411E-05   -0.10908E-06  2499   0.163E-03    0.111E-03
RMM:  12    -0.413217075725E+03    0.54319E-05   -0.42691E-07  2377   0.116E-03    0.533E-04
RMM:  13    -0.413217071404E+03    0.43214E-05   -0.21153E-07  1495   0.784E-04    0.237E-04
RMM:  14    -0.413217067724E+03    0.36801E-05   -0.13105E-07  1217   0.681E-04    0.134E-04
RMM:  15    -0.413217061267E+03    0.64564E-05   -0.13114E-07  1366   0.702E-04    0.106E-04
RMM:  16    -0.413217059071E+03    0.21960E-05   -0.68796E-08  1018   0.596E-04    0.893E-05
RMM:  17    -0.413217055876E+03    0.31951E-05   -0.57197E-08  1057   0.589E-04    0.505E-05
RMM:  18    -0.413217052992E+03    0.28843E-05   -0.51268E-08  1079   0.576E-04    0.321E-05
RMM:  19    -0.413217052508E+03    0.48379E-06   -0.21461E-08   717   0.505E-04
   45 T=    71. E= -.41286718E+03 F= -.41321705E+03 E0= -.41319609E+03  EK= 0.34987E+00 SP= 0.00E+00 SK= 0.00E+00
       N       E                     dE             d eps       ncg     rms          rms(c)
RMM:   1    -0.413232348974E+03   -0.15296E-01   -0.12859E+01  4307   0.163E+00    0.958E-01
RMM:   2    -0.413217838275E+03    0.14511E-01   -0.18345E-01  4379   0.189E-01    0.682E-01
RMM:   3    -0.413233016583E+03   -0.15178E-01   -0.21494E-02  5134   0.128E-01    0.579E-01
RMM:   4    -0.413230150282E+03    0.28663E-02   -0.37593E-02  4988   0.170E-01    0.504E-01
RMM:   5    -0.413217092998E+03    0.13057E-01   -0.51161E-03  4550   0.909E-02    0.457E-02
RMM:   6    -0.413217020734E+03    0.72264E-04   -0.79575E-04  5072   0.293E-02    0.198E-02
RMM:   7    -0.413217018066E+03    0.26683E-05   -0.10579E-04  5710   0.985E-03    0.121E-02
RMM:   8    -0.413217014692E+03    0.33738E-05   -0.47244E-05  5181   0.696E-03    0.860E-03
RMM:   9    -0.413217001760E+03    0.12932E-04   -0.17262E-05  4298   0.496E-03    0.421E-03
RMM:  10    -0.413216998655E+03    0.31057E-05   -0.19416E-06  2539   0.223E-03    0.201E-03
RMM:  11    -0.413216993501E+03    0.51531E-05   -0.14664E-06  2475   0.189E-03    0.122E-03
RMM:  12    -0.413216988378E+03    0.51239E-05   -0.56001E-07  2359   0.136E-03    0.680E-04
RMM:  13    -0.413216984700E+03    0.36774E-05   -0.24084E-07  1753   0.879E-04    0.355E-04
RMM:  14    -0.413216980767E+03    0.39336E-05   -0.14012E-07  1379   0.715E-04    0.166E-04
RMM:  15    -0.413216975261E+03    0.55056E-05   -0.12564E-07  1312   0.677E-04    0.150E-04
RMM:  16    -0.413216973422E+03    0.18391E-05   -0.55996E-08   847   0.552E-04    0.107E-04
RMM:  17    -0.413216970014E+03    0.34082E-05   -0.58487E-08   939   0.569E-04    0.634E-05
RMM:  18    -0.413216967503E+03    0.25105E-05   -0.44147E-08   914   0.560E-04    0.420E-05
RMM:  19    -0.413216966770E+03    0.73323E-06   -0.19667E-08   658   0.508E-04
   46 T=    71. E= -.41286707E+03 F= -.41321697E+03 E0= -.41319602E+03  EK= 0.34990E+00 SP= 0.00E+00 SK= 0.00E+00
       N       E                     dE             d eps       ncg     rms          rms(c)
RMM:   1    -0.413254851355E+03   -0.37884E-01   -0.13124E+01  4311   0.179E+00    0.945E-01
RMM:   2    -0.413217471894E+03    0.37379E-01   -0.21445E-01  4397   0.211E-01    0.698E-01
RMM:   3    -0.413232504369E+03   -0.15032E-01   -0.21418E-02  5134   0.130E-01    0.604E-01
RMM:   4    -0.413230465024E+03    0.20393E-02   -0.39766E-02  4997   0.175E-01    0.537E-01
RMM:   5    -0.413216092357E+03    0.14373E-01   -0.62150E-03  4551   0.987E-02    0.502E-02
RMM:   6    -0.413216004668E+03    0.87689E-04   -0.91193E-04  5111   0.319E-02    0.213E-02
RMM:   7    -0.413216002353E+03    0.23156E-05   -0.13066E-04  5833   0.109E-02    0.143E-02
RMM:   8    -0.413216000245E+03    0.21074E-05   -0.54395E-05  5200   0.724E-03    0.969E-03
RMM:   9    -0.413215986312E+03    0.13934E-04   -0.19938E-05  4412   0.556E-03    0.469E-03
RMM:  10    -0.413215983459E+03    0.28528E-05   -0.25178E-06  2601   0.234E-03    0.232E-03
RMM:  11    -0.413215980136E+03    0.33224E-05   -0.17666E-06  2525   0.204E-03    0.142E-03
RMM:  12    -0.413215977038E+03    0.30983E-05   -0.58039E-07  2404   0.141E-03    0.761E-04
RMM:  13    -0.413215974192E+03    0.28462E-05   -0.27217E-07  1863   0.909E-04    0.354E-04
RMM:  14    -0.413215971565E+03    0.26267E-05   -0.16681E-07  1348   0.717E-04    0.185E-04
RMM:  15    -0.413215968184E+03    0.33808E-05   -0.14715E-07  1229   0.689E-04    0.947E-05
RMM:  16    -0.413215966301E+03    0.18831E-05   -0.88559E-08  1056   0.614E-04    0.742E-05
RMM:  17    -0.413215964544E+03    0.17577E-05   -0.62565E-08   934   0.575E-04    0.440E-05
RMM:  18    -0.413215962966E+03    0.15779E-05   -0.47675E-08   906   0.562E-04    0.322E-05
RMM:  19    -0.413215962388E+03    0.57805E-06   -0.25385E-08   706   0.517E-04
   47 T=    71. E= -.41286710E+03 F= -.41321596E+03 E0= -.41319504E+03  EK= 0.34886E+00 SP= 0.00E+00 SK= 0.00E+00
       N       E                     dE             d eps       ncg     rms          rms(c)
RMM:   1    -0.413264747458E+03   -0.48784E-01   -0.13194E+01  4306   0.193E+00    0.971E-01
RMM:   2    -0.413214840181E+03    0.49907E-01   -0.20887E-01  4493   0.210E-01    0.691E-01
RMM:   3    -0.413240601824E+03   -0.25762E-01   -0.31192E-02  5155   0.157E-01    0.732E-01
RMM:   4    -0.413221916379E+03    0.18685E-01   -0.38138E-02  4951   0.176E-01    0.422E-01
RMM:   5    -0.413214237549E+03    0.76788E-02   -0.46835E-03  4605   0.909E-02    0.594E-02
RMM:   6    -0.413214041234E+03    0.19631E-03   -0.45702E-04  4664   0.290E-02    0.250E-02
RMM:   7    -0.413214040957E+03    0.27783E-06   -0.13483E-04  5873   0.120E-02    0.172E-02
RMM:   8    -0.413214027353E+03    0.13604E-04   -0.35241E-05  4912   0.645E-03    0.101E-02
RMM:   9    -0.413214013449E+03    0.13903E-04   -0.12672E-05  3577   0.444E-03    0.467E-03
RMM:  10    -0.413214007846E+03    0.56030E-05   -0.23745E-06  2591   0.248E-03    0.236E-03
RMM:  11    -0.413214002014E+03    0.58329E-05   -0.15710E-06  2515   0.198E-03    0.158E-03
RMM:  12    -0.413213997087E+03    0.49265E-05   -0.56869E-07  2429   0.136E-03    0.763E-04
RMM:  13    -0.413213992731E+03    0.43565E-05   -0.27815E-07  1832   0.894E-04    0.374E-04
RMM:  14    -0.413213988134E+03    0.45964E-05   -0.18853E-07  1567   0.756E-04    0.210E-04
RMM:  15    -0.413213982699E+03    0.54347E-05   -0.16006E-07  1442   0.701E-04    0.152E-04
RMM:  16    -0.413213980452E+03    0.22478E-05   -0.82724E-08  1066   0.591E-04    0.111E-04
RMM:  17    -0.413213977415E+03    0.30363E-05   -0.72297E-08  1087   0.587E-04    0.417E-05
RMM:  18    -0.413213975633E+03    0.17825E-05   -0.46829E-08   956   0.559E-04    0.403E-05
RMM:  19    -0.413213974882E+03    0.75106E-06   -0.26795E-08   804   0.528E-04
   48 T=    71. E= -.41286736E+03 F= -.41321397E+03 E0= -.41319306E+03  EK= 0.34662E+00 SP= 0.00E+00 SK= 0.00E+00
       N       E                     dE             d eps       ncg     rms          rms(c)
RMM:   1    -0.413264367827E+03   -0.50392E-01   -0.13023E+01  4306   0.206E+00    0.960E-01
RMM:   2    -0.413210147691E+03    0.54220E-01   -0.20669E-01  4510   0.223E-01    0.680E-01
RMM:   3    -0.413242352567E+03   -0.32205E-01   -0.37035E-02  5160   0.172E-01    0.806E-01
RMM:   4    -0.413214882952E+03    0.27470E-01   -0.38343E-02  4926   0.179E-01    0.375E-01
RMM:   5    -0.413209729276E+03    0.51537E-02   -0.54203E-03  4919   0.949E-02    0.752E-02
RMM:   6    -0.413209392155E+03    0.33712E-03   -0.62452E-04  4682   0.344E-02    0.293E-02
RMM:   7    -0.413209386509E+03    0.56461E-05   -0.15527E-04  5714   0.135E-02    0.191E-02
RMM:   8    -0.413209371977E+03    0.14532E-04   -0.28610E-05  4664   0.594E-03    0.107E-02
RMM:   9    -0.413209357105E+03    0.14873E-04   -0.13675E-05  3537   0.446E-03    0.447E-03
RMM:  10    -0.413209350184E+03    0.69211E-05   -0.30865E-06  2665   0.272E-03    0.261E-03
RMM:  11    -0.413209343023E+03    0.71601E-05   -0.17630E-06  2558   0.212E-03    0.162E-03
RMM:  12    -0.413209338516E+03    0.45070E-05   -0.57909E-07  2440   0.139E-03    0.744E-04
RMM:  13    -0.413209333731E+03    0.47858E-05   -0.31930E-07  1997   0.938E-04    0.413E-04
RMM:  14    -0.413209329116E+03    0.46142E-05   -0.21509E-07  1603   0.781E-04    0.247E-04
RMM:  15    -0.413209323977E+03    0.51395E-05   -0.17493E-07  1435   0.723E-04    0.136E-04
RMM:  16    -0.413209321974E+03    0.20029E-05   -0.96795E-08  1167   0.624E-04    0.892E-05
RMM:  17    -0.413209318734E+03    0.32400E-05   -0.87532E-08  1217   0.625E-04    0.472E-05
RMM:  18    -0.413209317433E+03    0.13011E-05   -0.46705E-08   964   0.572E-04    0.374E-05
RMM:  19    -0.413209316493E+03    0.93977E-06   -0.31263E-08   859   0.555E-04
   49 T=    70. E= -.41286707E+03 F= -.41320932E+03 E0= -.41318841E+03  EK= 0.34225E+00 SP= 0.00E+00 SK= 0.00E+00
       N       E                     dE             d eps       ncg     rms          rms(c)
RMM:   1    -0.413243129292E+03   -0.33812E-01   -0.12666E+01  4305   0.210E+00    0.926E-01
RMM:   2    -0.413204722655E+03    0.38407E-01   -0.22367E-01  4538   0.236E-01    0.689E-01
RMM:   3    -0.413234032682E+03   -0.29310E-01   -0.34323E-02  5160   0.169E-01    0.795E-01
[...]
RMM:  17    -0.413513678970E+03   -0.38977E-05   -0.76039E-07  1896   0.101E-03    0.237E-04
RMM:  18    -0.413513681630E+03   -0.26602E-05   -0.50425E-07  1849   0.896E-04    0.198E-04
RMM:  19    -0.413513684800E+03   -0.31701E-05   -0.50284E-07  1886   0.869E-04    0.120E-04
RMM:  20    -0.413513686231E+03   -0.14306E-05   -0.19175E-07  1196   0.635E-04    0.685E-05
RMM:  21    -0.413513687012E+03   -0.78147E-06   -0.96181E-08  1021   0.574E-04
  139 T=   132. E= -.41286733E+03 F= -.41351369E+03 E0= -.41349365E+03  EK= 0.64636E+00 SP= 0.00E+00 SK= 0.00E+00
       N       E                     dE             d eps       ncg     rms          rms(c)
RMM:   1    -0.413631234262E+03   -0.11755E+00   -0.13572E+01  4264   0.726E+00    0.877E-01
RMM:   2    -0.413603815009E+03    0.27419E-01   -0.35949E-01  5268   0.735E-01    0.719E-01
RMM:   3    -0.413637963301E+03   -0.34148E-01   -0.91694E-02  5604   0.318E-01    0.100E+00
RMM:   4    -0.413597924223E+03    0.40039E-01   -0.40627E-02  5139   0.234E-01    0.435E-01
RMM:   5    -0.413596426297E+03    0.14979E-02   -0.13471E-02  4726   0.162E-01    0.168E-01
RMM:   6    -0.413596887329E+03   -0.46103E-03   -0.95518E-03  5271   0.115E-01    0.128E-01
RMM:   7    -0.413595909724E+03    0.97761E-03   -0.23952E-03  4937   0.625E-02    0.473E-02
RMM:   8    -0.413595913256E+03   -0.35321E-05   -0.73314E-04  5843   0.305E-02    0.318E-02
RMM:   9    -0.413595893424E+03    0.19832E-04   -0.16641E-04  4982   0.169E-02    0.185E-02
RMM:  10    -0.413595885067E+03    0.83565E-05   -0.56600E-05  5453   0.906E-03    0.805E-03
RMM:  11    -0.413595885849E+03   -0.78169E-06   -0.22113E-05  4893   0.528E-03    0.619E-03
RMM:  12    -0.413595885721E+03    0.12840E-06   -0.39816E-06  2935   0.317E-03
  140 T=   149. E= -.41286582E+03 F= -.41359589E+03 E0= -.41357560E+03  EK= 0.73007E+00 SP= 0.00E+00 SK= 0.00E+00
       N       E                     dE             d eps       ncg     rms          rms(c)
RMM:   1    -0.413787804885E+03   -0.19192E+00   -0.16192E+01  4265   0.781E+00    0.124E+00
RMM:   2    -0.413774835077E+03    0.12970E-01   -0.56714E-01  5340   0.919E-01    0.121E+00
RMM:   3    -0.413784376700E+03   -0.95416E-02   -0.15531E-01  5467   0.427E-01    0.126E+00
RMM:   4    -0.413730046041E+03    0.54331E-01   -0.82710E-02  5200   0.337E-01    0.550E-01
RMM:   5    -0.413727819588E+03    0.22265E-02   -0.24722E-02  4825   0.214E-01    0.262E-01
RMM:   6    -0.413727510018E+03    0.30957E-03   -0.19228E-02  5055   0.164E-01    0.178E-01
RMM:   7    -0.413725890068E+03    0.16199E-02   -0.35206E-03  4780   0.821E-02    0.678E-02
RMM:   8    -0.413725892421E+03   -0.23526E-05   -0.91645E-04  5766   0.350E-02    0.414E-02
RMM:   9    -0.413725873726E+03    0.18694E-04   -0.28252E-04  4910   0.216E-02    0.203E-02
RMM:  10    -0.413725867139E+03    0.65868E-05   -0.65648E-05  5413   0.100E-02    0.124E-02
RMM:  11    -0.413725865260E+03    0.18794E-05   -0.29710E-05  5114   0.649E-03    0.553E-03
RMM:  12    -0.413725865689E+03   -0.42925E-06   -0.65392E-06  3254   0.350E-03
  141 T=   174. E= -.41287310E+03 F= -.41372587E+03 E0= -.41370482E+03  EK= 0.85276E+00 SP= 0.00E+00 SK= 0.00E+00
       N       E                     dE             d eps       ncg     rms          rms(c)
RMM:   1    -0.413916302095E+03   -0.19044E+00   -0.19246E+01  4266   0.832E+00    0.166E+00
RMM:   2    -0.413914749909E+03    0.15522E-02   -0.82138E-01  5386   0.110E+00    0.173E+00
RMM:   3    -0.413902371505E+03    0.12378E-01   -0.23885E-01  5421   0.532E-01    0.164E+00
RMM:   4    -0.413824980053E+03    0.77391E-01   -0.13309E-01  5218   0.429E-01    0.764E-01
RMM:   5    -0.413822056472E+03    0.29236E-02   -0.47057E-02  4872   0.290E-01    0.353E-01
RMM:   6    -0.413820274429E+03    0.17820E-02   -0.34371E-02  5012   0.220E-01    0.221E-01
RMM:   7    -0.413817678308E+03    0.25961E-02   -0.53575E-03  4747   0.104E-01    0.878E-02
RMM:   8    -0.413817644110E+03    0.34198E-04   -0.12100E-03  5578   0.420E-02    0.524E-02
RMM:   9    -0.413817617684E+03    0.26426E-04   -0.42436E-04  4857   0.265E-02    0.249E-02
RMM:  10    -0.413817609830E+03    0.78537E-05   -0.10995E-04  5368   0.130E-02    0.143E-02
RMM:  11    -0.413817607250E+03    0.25800E-05   -0.41407E-05  5441   0.769E-03    0.682E-03
RMM:  12    -0.413817607573E+03   -0.32325E-06   -0.11693E-05  4035   0.439E-03    0.529E-03
RMM:  13    -0.413817606952E+03    0.62142E-06   -0.30544E-06  2786   0.278E-03
  142 T=   191. E= -.41287928E+03 F= -.41381761E+03 E0= -.41379571E+03  EK= 0.93833E+00 SP= 0.00E+00 SK= 0.00E+00
       N       E                     dE             d eps       ncg     rms          rms(c)
RMM:   1    -0.413951958128E+03   -0.13435E+00   -0.20347E+01  4268   0.835E+00    0.170E+00
RMM:   2    -0.413899267433E+03    0.52691E-01   -0.84539E-01  5410   0.113E+00    0.173E+00
RMM:   3    -0.413918467040E+03   -0.19200E-01   -0.24526E-01  5502   0.534E-01    0.174E+00
RMM:   4    -0.413828308004E+03    0.90159E-01   -0.13101E-01  5216   0.422E-01    0.844E-01
RMM:   5    -0.413824293985E+03    0.40140E-02   -0.50739E-02  4776   0.306E-01    0.349E-01
RMM:   6    -0.413823121545E+03    0.11724E-02   -0.36885E-02  5053   0.226E-01    0.223E-01
RMM:   7    -0.413820129926E+03    0.29916E-02   -0.64018E-03  4823   0.110E-01    0.925E-02
RMM:   8    -0.413820076669E+03    0.53257E-04   -0.13895E-03  5606   0.447E-02    0.588E-02
RMM:   9    -0.413820023452E+03    0.53217E-04   -0.47660E-04  4647   0.286E-02    0.241E-02
RMM:  10    -0.413820023653E+03   -0.20115E-06   -0.14694E-04  5480   0.150E-02    0.136E-02
RMM:  11    -0.413820023760E+03   -0.10687E-06   -0.36843E-05  5393   0.724E-03    0.761E-03
RMM:  12    -0.413820025200E+03   -0.14401E-05   -0.97551E-06  3706   0.432E-03    0.447E-03
RMM:  13    -0.413820026742E+03   -0.15418E-05   -0.35522E-06  2835   0.284E-03    0.207E-03
RMM:  14    -0.413820027948E+03   -0.12066E-05   -0.14619E-06  2555   0.192E-03    0.128E-03
RMM:  15    -0.413820028843E+03   -0.89503E-06   -0.83695E-07  2484   0.147E-03
  143 T=   193. E= -.41287145E+03 F= -.41382003E+03 E0= -.41379784E+03  EK= 0.94858E+00 SP= 0.00E+00 SK= 0.00E+00
       N       E                     dE             d eps       ncg     rms          rms(c)
RMM:   1    -0.414039982770E+03   -0.21995E+00   -0.20967E+01  4275   0.824E+00    0.130E+00
RMM:   2    -0.413888849174E+03    0.15113E+00   -0.75874E-01  5449   0.109E+00    0.133E+00
RMM:   3    -0.413924819905E+03   -0.35971E-01   -0.17695E-01  5658   0.455E-01    0.145E+00
RMM:   4    -0.413858040273E+03    0.66780E-01   -0.70419E-02  5233   0.309E-01    0.761E-01
RMM:   5    -0.413852003331E+03    0.60369E-02   -0.38840E-02  4479   0.275E-01    0.289E-01
RMM:   6    -0.413852119412E+03   -0.11608E-03   -0.23498E-02  5147   0.186E-01    0.180E-01
RMM:   7    -0.413850421138E+03    0.16983E-02   -0.55122E-03  5164   0.945E-02    0.998E-02
RMM:   8    -0.413850207144E+03    0.21399E-03   -0.92569E-04  5249   0.399E-02    0.632E-02
RMM:   9    -0.413850114129E+03    0.93015E-04   -0.61086E-04  4496   0.324E-02    0.205E-02
RMM:  10    -0.413850130431E+03   -0.16302E-04   -0.20842E-04  5834   0.171E-02    0.166E-02
RMM:  11    -0.413850128617E+03    0.18147E-05   -0.33968E-05  4685   0.757E-03    0.722E-03
RMM:  12    -0.413850133276E+03   -0.46595E-05   -0.13504E-05  4131   0.481E-03    0.363E-03
RMM:  13    -0.413850138412E+03   -0.51359E-05   -0.31659E-06  2808   0.275E-03    0.185E-03
RMM:  14    -0.413850141540E+03   -0.31276E-05   -0.12749E-06  2588   0.163E-03    0.896E-04
RMM:  15    -0.413850144896E+03   -0.33567E-05   -0.98828E-07  2460   0.141E-03    0.459E-04
RMM:  16    -0.413850147011E+03   -0.21148E-05   -0.63863E-07  1998   0.107E-03    0.290E-04
RMM:  17    -0.413850148892E+03   -0.18815E-05   -0.54962E-07  1949   0.986E-04    0.168E-04
RMM:  18    -0.413850150260E+03   -0.13676E-05   -0.41884E-07  1755   0.851E-04    0.124E-04
RMM:  19    -0.413850151563E+03   -0.13028E-05   -0.37843E-07  1556   0.796E-04    0.695E-05
RMM:  20    -0.413850152134E+03   -0.57149E-06   -0.17210E-07  1155   0.654E-04
  144 T=   198. E= -.41287678E+03 F= -.41385015E+03 E0= -.41382785E+03  EK= 0.97337E+00 SP= 0.00E+00 SK= 0.00E+00
       N       E                     dE             d eps       ncg     rms          rms(c)
RMM:   1    -0.414071340978E+03   -0.22119E+00   -0.23939E+01  4284   0.870E+00    0.191E+00
RMM:   2    -0.413851392582E+03    0.21995E+00   -0.80835E-01  5428   0.115E+00    0.178E+00
RMM:   3    -0.413874728836E+03   -0.23336E-01   -0.15327E-01  5597   0.455E-01    0.144E+00
RMM:   4    -0.413936560520E+03   -0.61832E-01   -0.17552E-01  5286   0.405E-01    0.154E+00
RMM:   5    -0.413841622354E+03    0.94938E-01   -0.11921E-01  4597   0.451E-01    0.412E-01
RMM:   6    -0.413836155272E+03    0.54671E-02   -0.24844E-02  5138   0.205E-01    0.171E-01
RMM:   7    -0.413835500509E+03    0.65476E-03   -0.58872E-03  5493   0.893E-02    0.112E-01
RMM:   8    -0.413835188005E+03    0.31250E-03   -0.13587E-03  5082   0.444E-02    0.688E-02
RMM:   9    -0.413835093201E+03    0.94804E-04   -0.74690E-04  4508   0.368E-02    0.213E-02
RMM:  10    -0.413835118330E+03   -0.25130E-04   -0.28006E-04  6072   0.188E-02    0.176E-02
RMM:  11    -0.413835119143E+03   -0.81291E-06   -0.49859E-05  5325   0.831E-03    0.973E-03
RMM:  12    -0.413835123310E+03   -0.41666E-05   -0.13724E-05  4221   0.488E-03    0.469E-03
RMM:  13    -0.413835131076E+03   -0.77664E-05   -0.49665E-06  3031   0.365E-03    0.293E-03
RMM:  14    -0.413835135320E+03   -0.42435E-05   -0.15487E-06  2597   0.209E-03    0.123E-03
RMM:  15    -0.413835138881E+03   -0.35616E-05   -0.91495E-07  2535   0.145E-03    0.665E-04
RMM:  16    -0.413835142175E+03   -0.32939E-05   -0.70612E-07  2142   0.114E-03    0.373E-04
RMM:  17    -0.413835144989E+03   -0.28136E-05   -0.62036E-07  2008   0.103E-03    0.257E-04
RMM:  18    -0.413835146966E+03   -0.19768E-05   -0.42817E-07  1783   0.876E-04    0.143E-04
RMM:  19    -0.413835148708E+03   -0.17421E-05   -0.36112E-07  1655   0.794E-04    0.970E-05
RMM:  20    -0.413835149990E+03   -0.12822E-05   -0.23542E-07  1284   0.691E-04    0.692E-05
RMM:  21    -0.413835150942E+03   -0.95188E-06   -0.15014E-07  1163   0.645E-04
  145 T=   189. E= -.41290844E+03 F= -.41383515E+03 E0= -.41381287E+03  EK= 0.92671E+00 SP= 0.00E+00 SK= 0.00E+00
       N       E                     dE             d eps       ncg     rms          rms(c)
RMM:   1    -0.413612014404E+03    0.22314E+00   -0.19558E+01  4287   0.794E+00    0.204E+00
RMM:   2    -0.413502849097E+03    0.10917E+00   -0.67643E-01  5384   0.105E+00    0.191E+00
RMM:   3    -0.413570703939E+03   -0.67855E-01   -0.18352E-01  5667   0.464E-01    0.177E+00
RMM:   4    -0.413534515981E+03    0.36188E-01   -0.15304E-01  5180   0.401E-01    0.128E+00
RMM:   5    -0.413496538243E+03    0.37978E-01   -0.94926E-02  4608   0.418E-01    0.427E-01
RMM:   6    -0.413489833637E+03    0.67046E-02   -0.15690E-02  4701   0.181E-01    0.159E-01
RMM:   7    -0.413489074796E+03    0.75884E-03   -0.37124E-03  5294   0.807E-02    0.966E-02
RMM:   8    -0.413488815193E+03    0.25960E-03   -0.11938E-03  4847   0.449E-02    0.473E-02
RMM:   9    -0.413488794032E+03    0.21161E-04   -0.46160E-04  4887   0.287E-02    0.193E-02
RMM:  10    -0.413488806099E+03   -0.12067E-04   -0.14297E-04  6044   0.133E-02    0.131E-02
RMM:  11    -0.413488808553E+03   -0.24533E-05   -0.30160E-05  4940   0.670E-03    0.644E-03
RMM:  12    -0.413488813343E+03   -0.47900E-05   -0.84161E-06  3467   0.386E-03    0.380E-03
RMM:  13    -0.413488818932E+03   -0.55887E-05   -0.29321E-06  2733   0.283E-03    0.218E-03
RMM:  14    -0.413488821946E+03   -0.30147E-05   -0.11392E-06  2544   0.176E-03    0.103E-03
RMM:  15    -0.413488824305E+03   -0.23591E-05   -0.71775E-07  2462   0.130E-03    0.584E-04
RMM:  16    -0.413488826608E+03   -0.23024E-05   -0.55801E-07  2037   0.105E-03    0.330E-04
RMM:  17    -0.413488828528E+03   -0.19202E-05   -0.45395E-07  1921   0.952E-04    0.203E-04
RMM:  18    -0.413488829846E+03   -0.13182E-05   -0.31214E-07  1688   0.812E-04    0.105E-04
RMM:  19    -0.413488831062E+03   -0.12160E-05   -0.26821E-07  1574   0.751E-04    0.811E-05
RMM:  20    -0.413488831791E+03   -0.72881E-06   -0.15312E-07  1220   0.643E-04
  146 T=   126. E= -.41286823E+03 F= -.41348883E+03 E0= -.41346680E+03  EK= 0.62060E+00 SP= 0.00E+00 SK= 0.00E+00
       N       E                     dE             d eps       ncg     rms          rms(c)
RMM:   1    -0.413404812078E+03    0.84019E-01   -0.92276E+00  4296   0.564E+00    0.936E-01
RMM:   2    -0.413379163380E+03    0.25649E-01   -0.23658E-01  5435   0.574E-01    0.803E-01
RMM:   3    -0.413410479427E+03   -0.31316E-01   -0.64145E-02  5662   0.277E-01    0.947E-01
RMM:   4    -0.413381522858E+03    0.28957E-01   -0.39584E-02  5179   0.214E-01    0.488E-01
RMM:   5    -0.413376193159E+03    0.53297E-02   -0.19111E-02  4671   0.190E-01    0.134E-01
RMM:   6    -0.413375638462E+03    0.55470E-03   -0.26616E-03  5120   0.719E-02    0.672E-02
RMM:   7    -0.413375541438E+03    0.97024E-04   -0.76881E-04  5199   0.343E-02    0.421E-02
RMM:   8    -0.413375491163E+03    0.50275E-04   -0.28361E-04  5245   0.212E-02    0.244E-02
RMM:   9    -0.413375500148E+03   -0.89843E-05   -0.10982E-04  5318   0.136E-02    0.146E-02
RMM:  10    -0.413375503241E+03   -0.30939E-05   -0.28833E-05  5043   0.686E-03    0.741E-03
RMM:  11    -0.413375508336E+03   -0.50942E-05   -0.15395E-05  4483   0.477E-03    0.505E-03
RMM:  12    -0.413375511528E+03   -0.31919E-05   -0.23647E-06  2692   0.255E-03    0.240E-03
RMM:  13    -0.413375513597E+03   -0.20693E-05   -0.15856E-06  2571   0.193E-03    0.116E-03
RMM:  14    -0.413375515779E+03   -0.21826E-05   -0.95161E-07  2451   0.153E-03    0.528E-04
RMM:  15    -0.413375516828E+03   -0.10481E-05   -0.56222E-07  2064   0.109E-03    0.394E-04
RMM:  16    -0.413375517389E+03   -0.56146E-06   -0.42131E-07  1936   0.958E-04
  147 T=   106. E= -.41285666E+03 F= -.41337552E+03 E0= -.41335387E+03  EK= 0.51886E+00 SP= 0.00E+00 SK= 0.00E+00
       N       E                     dE             d eps       ncg     rms          rms(c)
RMM:   1    -0.413695463413E+03   -0.31995E+00   -0.13695E+01  4305   0.699E+00    0.172E+00
RMM:   2    -0.413695175010E+03    0.28840E-03   -0.43782E-01  5374   0.832E-01    0.170E+00
RMM:   3    -0.413676955314E+03    0.18220E-01   -0.16137E-01  5436   0.443E-01    0.157E+00
RMM:   4    -0.413630296983E+03    0.46658E-01   -0.11560E-01  5179   0.392E-01    0.702E-01
RMM:   5    -0.413627844285E+03    0.24527E-02   -0.77079E-02  5037   0.341E-01    0.355E-01
RMM:   6    -0.413620694428E+03    0.71499E-02   -0.24585E-02  4958   0.198E-01    0.143E-01
RMM:   7    -0.413620095293E+03    0.59914E-03   -0.21609E-03  5073   0.713E-02    0.654E-02
RMM:   8    -0.413620061605E+03    0.33688E-04   -0.40342E-04  5004   0.269E-02    0.397E-02
RMM:   9    -0.413620083211E+03   -0.21605E-04   -0.24669E-04  4930   0.206E-02    0.196E-02
RMM:  10    -0.413620094081E+03   -0.10870E-04   -0.70314E-05  5583   0.103E-02    0.117E-02
RMM:  11    -0.413620105225E+03   -0.11144E-04   -0.35983E-05  5371   0.725E-03    0.637E-03
RMM:  12    -0.413620117545E+03   -0.12320E-04   -0.10922E-05  3908   0.467E-03    0.398E-03
RMM:  13    -0.413620123825E+03   -0.62802E-05   -0.37117E-06  2826   0.289E-03    0.247E-03
RMM:  14    -0.413620127781E+03   -0.39559E-05   -0.23164E-06  2682   0.221E-03    0.929E-04
RMM:  15    -0.413620129810E+03   -0.20290E-05   -0.14272E-06  2507   0.164E-03    0.674E-04
RMM:  16    -0.413620131169E+03   -0.13583E-05   -0.18412E-06  2591   0.167E-03    0.484E-04
RMM:  17    -0.413620130233E+03    0.93563E-06   -0.11340E-06  2200   0.123E-03
  148 T=   146. E= -.41290218E+03 F= -.41362013E+03 E0= -.41359878E+03  EK= 0.71795E+00 SP= 0.00E+00 SK= 0.00E+00
       N       E                     dE             d eps       ncg     rms          rms(c)
RMM:   1    -0.413708719154E+03   -0.88588E-01   -0.16234E+01  4305   0.771E+00    0.186E+00
RMM:   2    -0.413690339684E+03    0.18379E-01   -0.58127E-01  5377   0.927E-01    0.187E+00
RMM:   3    -0.413672159526E+03    0.18180E-01   -0.20182E-01  5438   0.486E-01    0.174E+00
RMM:   4    -0.413607787802E+03    0.64372E-01   -0.12251E-01  5192   0.405E-01    0.827E-01
RMM:   5    -0.413608591084E+03   -0.80328E-03   -0.96637E-02  5061   0.374E-01    0.463E-01
RMM:   6    -0.413599393898E+03    0.91972E-02   -0.41774E-02  5019   0.247E-01    0.205E-01
RMM:   7    -0.413597816634E+03    0.15773E-02   -0.38536E-03  4802   0.957E-02    0.882E-02
RMM:   8    -0.413597760693E+03    0.55941E-04   -0.88673E-04  5542   0.372E-02    0.590E-02
RMM:   9    -0.413597763424E+03   -0.27311E-05   -0.44022E-04  4539   0.267E-02    0.207E-02
RMM:  10    -0.413597793321E+03   -0.29897E-04   -0.13537E-04  5661   0.139E-02    0.131E-02
RMM:  11    -0.413597806001E+03   -0.12680E-04   -0.32321E-05  4993   0.692E-03    0.705E-03
RMM:  12    -0.413597826939E+03   -0.20938E-04   -0.18491E-05  4058   0.581E-03    0.453E-03
RMM:  13    -0.413597837720E+03   -0.10782E-04   -0.57613E-06  3027   0.333E-03    0.264E-03
RMM:  14    -0.413597844878E+03   -0.71576E-05   -0.43595E-06  2879   0.272E-03    0.141E-03
RMM:  15    -0.413597847974E+03   -0.30957E-05   -0.29296E-06  2754   0.208E-03    0.100E-03
RMM:  16    -0.413597848840E+03   -0.86629E-06   -0.25532E-06  2667   0.183E-03
  149 T=   146. E= -.41288292E+03 F= -.41359785E+03 E0= -.41357672E+03  EK= 0.71493E+00 SP= 0.00E+00 SK= 0.00E+00
       N       E                     dE             d eps       ncg     rms          rms(c)
RMM:   1    -0.413485013405E+03    0.11283E+00   -0.12070E+01  4302   0.668E+00    0.977E-01
RMM:   2    -0.413472782984E+03    0.12230E-01   -0.38544E-01  5377   0.714E-01    0.109E+00
RMM:   3    -0.413464296126E+03    0.84869E-02   -0.88044E-02  5583   0.318E-01    0.102E+00
RMM:   4    -0.413438481170E+03    0.25815E-01   -0.28119E-02  5126   0.203E-01    0.551E-01
RMM:   5    -0.413439386398E+03   -0.90523E-03   -0.31242E-02  5027   0.211E-01    0.354E-01
RMM:   6    -0.413436803958E+03    0.25824E-02   -0.25516E-02  5151   0.181E-01    0.175E-01
RMM:   7    -0.413435722763E+03    0.10812E-02   -0.38067E-03  5265   0.838E-02    0.101E-01
RMM:   8    -0.413435571392E+03    0.15137E-03   -0.66815E-04  5522   0.324E-02    0.684E-02
RMM:   9    -0.413435541276E+03    0.30115E-04   -0.79849E-04  4556   0.327E-02    0.151E-02
RMM:  10    -0.413435579702E+03   -0.38425E-04   -0.15636E-04  5756   0.141E-02    0.135E-02
RMM:  11    -0.413435583397E+03   -0.36953E-05   -0.27804E-05  4373   0.667E-03    0.595E-03
RMM:  12    -0.413435600525E+03   -0.17128E-04   -0.16038E-05  3809   0.515E-03    0.426E-03
RMM:  13    -0.413435610599E+03   -0.10073E-04   -0.48657E-06  2939   0.312E-03    0.174E-03
RMM:  14    -0.413435616692E+03   -0.60934E-05   -0.40586E-06  2848   0.251E-03    0.107E-03
RMM:  15    -0.413435618405E+03   -0.17132E-05   -0.31617E-06  2694   0.200E-03    0.767E-04
RMM:  16    -0.413435617236E+03    0.11689E-05   -0.34993E-06  2769   0.202E-03    0.538E-04
RMM:  17    -0.413435613210E+03    0.40264E-05   -0.22684E-06  2370   0.154E-03    0.344E-04
RMM:  18    -0.413435608074E+03    0.51364E-05   -0.13183E-06  2192   0.122E-03    0.209E-04
RMM:  19    -0.413435604004E+03    0.40694E-05   -0.54005E-07  1678   0.864E-04    0.129E-04
RMM:  20    -0.413435599770E+03    0.42343E-05   -0.31474E-07  1516   0.751E-04    0.980E-05
RMM:  21    -0.413435597348E+03    0.24220E-05   -0.17181E-07  1275   0.645E-04    0.726E-05
RMM:  22    -0.413435595875E+03    0.14729E-05   -0.94416E-08  1100   0.591E-04    0.486E-05
RMM:  23    -0.413435594765E+03    0.11104E-05   -0.65765E-08  1074   0.575E-04    0.316E-05
RMM:  24    -0.413435594414E+03    0.35032E-06   -0.34973E-08   918   0.540E-04
  150 T=   116. E= -.41286752E+03 F= -.41343559E+03 E0= -.41341461E+03  EK= 0.56808E+00 SP= 0.00E+00 SK= 0.00E+00
