       N       E                     dE             d eps       ncg     rms          rms(c)
RMM:   1     0.220122042703E+04    0.22012E+04   -0.52442E+04  2132   0.654E+02
RMM:   2     0.705446880892E+03   -0.14958E+04   -0.16262E+04  2132   0.177E+02
RMM:   3     0.137890459822E+03   -0.56756E+03   -0.65723E+03  2132   0.117E+02
RMM:   4    -0.159300569708E+03   -0.29719E+03   -0.27801E+03  2132   0.936E+01
RMM:   5    -0.287564606090E+03   -0.12826E+03   -0.11453E+03  2132   0.595E+01
RMM:   6    -0.349712541534E+03   -0.62148E+02   -0.54996E+02  2132   0.423E+01
RMM:   7    -0.382616816307E+03   -0.32904E+02   -0.30425E+02  2132   0.293E+01
RMM:   8    -0.404187935323E+03   -0.21571E+02   -0.18488E+02  2132   0.234E+01
RMM:   9    -0.436005938118E+03   -0.31818E+02   -0.30723E+02  6106   0.173E+01
RMM:  10    -0.441299537029E+03   -0.52936E+01   -0.63198E+01  6397   0.539E+00
RMM:  11    -0.442524440391E+03   -0.12249E+01   -0.11196E+01  6225   0.174E+00
RMM:  12    -0.442896943397E+03   -0.37250E+00   -0.26689E+00  6362   0.598E-01    0.134E+02
RMM:  13    -0.425618464087E+03    0.17278E+02   -0.81248E+01  4677   0.119E+01    0.712E+01
RMM:  14    -0.499276477571E+03   -0.73658E+02   -0.53950E+02  5415   0.232E+01    0.307E+01
RMM:  15    -0.416425319259E+03    0.82851E+02   -0.20091E+02  5095   0.164E+01    0.727E+00
RMM:  16    -0.414035662294E+03    0.23897E+01   -0.39466E+01  6098   0.612E+00    0.432E+00
RMM:  17    -0.413204839129E+03    0.83082E+00   -0.25425E+00  5379   0.190E+00    0.242E+00
RMM:  18    -0.413178798742E+03    0.26040E-01   -0.74336E-01  5993   0.885E-01    0.169E+00
RMM:  19    -0.413172279307E+03    0.65194E-02   -0.25768E-01  5673   0.557E-01    0.892E-01
RMM:  20    -0.413188737540E+03   -0.16458E-01   -0.28509E-01  5577   0.554E-01    0.610E-01
RMM:  21    -0.413168823392E+03    0.19914E-01   -0.33213E-02  4987   0.239E-01    0.286E-01
RMM:  22    -0.413165629913E+03    0.31935E-02   -0.20053E-02  5911   0.134E-01    0.138E-01
RMM:  23    -0.413164637069E+03    0.99284E-03   -0.55485E-03  6051   0.665E-02    0.857E-02
RMM:  24    -0.413163428655E+03    0.12084E-02   -0.15899E-03  5275   0.402E-02    0.522E-02
RMM:  25    -0.413162871191E+03    0.55746E-03   -0.86332E-04  5104   0.285E-02    0.399E-02
RMM:  26    -0.413163035700E+03   -0.16451E-03   -0.11914E-03  5787   0.353E-02    0.375E-02
RMM:  27    -0.413163428796E+03   -0.39310E-03   -0.20224E-04  4594   0.198E-02    0.217E-02
RMM:  28    -0.413163896691E+03   -0.46790E-03   -0.18862E-04  5196   0.191E-02    0.977E-03
RMM:  29    -0.413164293155E+03   -0.39646E-03   -0.12345E-04  4799   0.158E-02    0.529E-03
RMM:  30    -0.413164521249E+03   -0.22809E-03   -0.75364E-05  4248   0.102E-02    0.439E-03
RMM:  31    -0.413164670211E+03   -0.14896E-03   -0.60622E-05  3272   0.773E-03    0.361E-03
RMM:  32    -0.413164695874E+03   -0.25662E-04   -0.22513E-05  3005   0.316E-03    0.205E-03
RMM:  33    -0.413164708216E+03   -0.12342E-04   -0.91145E-06  2808   0.234E-03    0.719E-04
RMM:  34    -0.413164710906E+03   -0.26899E-05   -0.51287E-06  2660   0.177E-03    0.621E-04
RMM:  35    -0.413164710470E+03    0.43582E-06   -0.25551E-06  2434   0.134E-03
    1 T=    61. E= -.41286692E+03 F= -.41316471E+03 E0= -.41314221E+03  EK= 0.29779E+00 SP= 0.00E+00 SK= 0.00E+00
       N       E                     dE             d eps       ncg     rms          rms(c)
RMM:   1    -0.413160835714E+03    0.38752E-02   -0.96127E+00  3992   0.639E-01    0.885E-01
RMM:   2    -0.413167777157E+03   -0.69414E-02   -0.11780E-01  3915   0.908E-02    0.648E-01
RMM:   3    -0.413164550630E+03    0.32265E-02   -0.12743E-02  4704   0.425E-02    0.915E-02
RMM:   4    -0.413180317260E+03   -0.15767E-01   -0.16617E-02  5209   0.107E-01    0.526E-01
RMM:   5    -0.413164298359E+03    0.16019E-01   -0.79807E-03  4857   0.881E-02    0.420E-02
RMM:   6    -0.413164417406E+03   -0.11905E-03   -0.14802E-03  5776   0.371E-02    0.300E-02
RMM:   7    -0.413164415106E+03    0.23006E-05   -0.31494E-04  5599   0.165E-02    0.173E-02
RMM:   8    -0.413164414390E+03    0.71520E-06   -0.32732E-05  4650   0.643E-03    0.744E-03
RMM:   9    -0.413164417878E+03   -0.34877E-05   -0.67537E-06  3120   0.282E-03    0.564E-03
RMM:  10    -0.413164423180E+03   -0.53016E-05   -0.16759E-06  2547   0.197E-03    0.330E-03
RMM:  11    -0.413164428929E+03   -0.57490E-05   -0.12954E-06  2524   0.168E-03    0.155E-03
RMM:  12    -0.413164435028E+03   -0.60990E-05   -0.10990E-06  2488   0.150E-03    0.616E-04
RMM:  13    -0.413164436642E+03   -0.16139E-05   -0.48395E-07  2116   0.103E-03    0.377E-04
RMM:  14    -0.413164437251E+03   -0.60976E-06   -0.28641E-07  1588   0.760E-04
    2 T=    61. E= -.41286669E+03 F= -.41316444E+03 E0= -.41314194E+03  EK= 0.29775E+00 SP= 0.00E+00 SK= 0.00E+00
       N       E                     dE             d eps       ncg     rms          rms(c)
RMM:   1    -0.413161862924E+03    0.25737E-02   -0.96228E+00  4189   0.645E-01    0.906E-01
RMM:   2    -0.413167855611E+03   -0.59927E-02   -0.11622E-01  3956   0.896E-02    0.643E-01
RMM:   3    -0.413165352770E+03    0.25028E-02   -0.12492E-02  4889   0.443E-02    0.124E-01
RMM:   4    -0.413194036679E+03   -0.28684E-01   -0.30085E-02  5174   0.145E-01    0.707E-01
RMM:   5    -0.413164786310E+03    0.29250E-01   -0.14036E-02  4822   0.118E-01    0.488E-02
RMM:   6    -0.413164985898E+03   -0.19959E-03   -0.25628E-03  5768   0.488E-02    0.331E-02
RMM:   7    -0.413164982786E+03    0.31127E-05   -0.42972E-04  5711   0.189E-02    0.206E-02
RMM:   8    -0.413164975349E+03    0.74369E-05   -0.59375E-05  5123   0.833E-03    0.944E-03
RMM:   9    -0.413164973652E+03    0.16969E-05   -0.12058E-05  3802   0.385E-03    0.710E-03
RMM:  10    -0.413164973892E+03   -0.23983E-06   -0.19186E-06  2576   0.219E-03
    3 T=    61. E= -.41286697E+03 F= -.41316497E+03 E0= -.41314248E+03  EK= 0.29801E+00 SP= 0.00E+00 SK= 0.00E+00
       N       E                     dE             d eps       ncg     rms          rms(c)
RMM:   1    -0.413161357437E+03    0.36162E-02   -0.95501E+00  4221   0.647E-01    0.890E-01
RMM:   2    -0.413167602315E+03   -0.62449E-02   -0.11572E-01  4212   0.905E-02    0.637E-01
RMM:   3    -0.413169984291E+03   -0.23820E-02   -0.16098E-02  5162   0.787E-02    0.321E-01
RMM:   4    -0.413189655735E+03   -0.19671E-01   -0.39101E-02  5114   0.169E-01    0.653E-01
RMM:   5    -0.413164714559E+03    0.24941E-01   -0.96369E-03  4706   0.107E-01    0.595E-02
RMM:   6    -0.413164730431E+03   -0.15872E-04   -0.18362E-03  5457   0.432E-02    0.301E-02
RMM:   7    -0.413164749731E+03   -0.19300E-04   -0.35267E-04  6012   0.170E-02    0.185E-02
RMM:   8    -0.413164746526E+03    0.32046E-05   -0.65658E-05  5201   0.914E-03    0.778E-03
RMM:   9    -0.413164744634E+03    0.18921E-05   -0.88227E-06  3525   0.374E-03    0.391E-03
RMM:  10    -0.413164745796E+03   -0.11614E-05   -0.16945E-06  2549   0.212E-03    0.253E-03
RMM:  11    -0.413164747767E+03   -0.19718E-05   -0.14595E-06  2546   0.186E-03    0.155E-03
RMM:  12    -0.413164748687E+03   -0.91948E-06   -0.73858E-07  2491   0.140E-03
    4 T=    61. E= -.41286674E+03 F= -.41316475E+03 E0= -.41314226E+03  EK= 0.29801E+00 SP= 0.00E+00 SK= 0.00E+00
       N       E                     dE             d eps       ncg     rms          rms(c)
RMM:   1    -0.413161300159E+03    0.34476E-02   -0.96082E+00  4235   0.652E-01    0.883E-01
RMM:   2    -0.413168150485E+03   -0.68503E-02   -0.11789E-01  4051   0.906E-02    0.647E-01
RMM:   3    -0.413165322055E+03    0.28284E-02   -0.12861E-02  4920   0.459E-02    0.116E-01
RMM:   4    -0.413195315676E+03   -0.29994E-01   -0.31443E-02  5151   0.148E-01    0.723E-01
RMM:   5    -0.413164699881E+03    0.30616E-01   -0.14656E-02  4811   0.120E-01    0.475E-02
RMM:   6    -0.413164896570E+03   -0.19669E-03   -0.25017E-03  5772   0.491E-02    0.311E-02
RMM:   7    -0.413164903636E+03   -0.70667E-05   -0.41010E-04  5775   0.185E-02    0.198E-02
RMM:   8    -0.413164902110E+03    0.15260E-05   -0.62939E-05  5074   0.843E-03    0.924E-03
RMM:   9    -0.413164903306E+03   -0.11958E-05   -0.12339E-05  3841   0.395E-03    0.683E-03
RMM:  10    -0.413164907534E+03   -0.42274E-05   -0.18328E-06  2572   0.213E-03    0.431E-03
RMM:  11    -0.413164911922E+03   -0.43878E-05   -0.13136E-06  2538   0.178E-03    0.224E-03
RMM:  12    -0.413164917924E+03   -0.60024E-05   -0.17804E-06  2589   0.190E-03    0.981E-04
RMM:  13    -0.413164919162E+03   -0.12379E-05   -0.50268E-07  2337   0.122E-03    0.644E-04
RMM:  14    -0.413164919120E+03    0.41786E-07   -0.21733E-07  1772   0.815E-04
    5 T=    61. E= -.41286678E+03 F= -.41316492E+03 E0= -.41314244E+03  EK= 0.29814E+00 SP= 0.00E+00 SK= 0.00E+00
       N       E                     dE             d eps       ncg     rms          rms(c)
RMM:   1    -0.413162213300E+03    0.27059E-02   -0.96306E+00  4246   0.659E-01    0.902E-01
RMM:   2    -0.413168155913E+03   -0.59426E-02   -0.11662E-01  4078   0.916E-02    0.645E-01
RMM:   3    -0.413165623354E+03    0.25326E-02   -0.12494E-02  4798   0.433E-02    0.111E-01
RMM:   4    -0.413188138847E+03   -0.22515E-01   -0.23053E-02  5156   0.127E-01    0.628E-01
RMM:   5    -0.413165225255E+03    0.22914E-01   -0.11083E-02  4819   0.104E-01    0.452E-02
RMM:   6    -0.413165386029E+03   -0.16077E-03   -0.20039E-03  5770   0.430E-02    0.310E-02
RMM:   7    -0.413165382253E+03    0.37766E-05   -0.35837E-04  5634   0.179E-02    0.192E-02
RMM:   8    -0.413165374681E+03    0.75716E-05   -0.50298E-05  4954   0.788E-03    0.893E-03
RMM:   9    -0.413165373458E+03    0.12235E-05   -0.99168E-06  3562   0.356E-03    0.686E-03
RMM:  10    -0.413165373985E+03   -0.52782E-06   -0.16640E-06  2549   0.214E-03
    6 T=    61. E= -.41286699E+03 F= -.41316537E+03 E0= -.41314291E+03  EK= 0.29838E+00 SP= 0.00E+00 SK= 0.00E+00
       N       E                     dE             d eps       ncg     rms          rms(c)
RMM:   1    -0.413161839587E+03    0.35339E-02   -0.95782E+00  4255   0.661E-01    0.897E-01
RMM:   2    -0.413167874289E+03   -0.60347E-02   -0.11597E-01  4213   0.903E-02    0.638E-01
RMM:   3    -0.413168872776E+03   -0.99849E-03   -0.14914E-02  5123   0.702E-02    0.275E-01
RMM:   4    -0.413195159754E+03   -0.26287E-01   -0.41538E-02  5117   0.173E-01    0.715E-01
RMM:   5    -0.413165072700E+03    0.30087E-01   -0.12367E-02  4733   0.118E-01    0.599E-02
RMM:   6    -0.413165142524E+03   -0.69824E-04   -0.22876E-03  5547   0.477E-02    0.308E-02
RMM:   7    -0.413165161074E+03   -0.18550E-04   -0.39010E-04  6018   0.173E-02    0.188E-02
RMM:   8    -0.413165156994E+03    0.40803E-05   -0.68218E-05  5225   0.914E-03    0.803E-03
RMM:   9    -0.413165153504E+03    0.34901E-05   -0.93155E-06  3476   0.369E-03    0.411E-03
RMM:  10    -0.413165153530E+03   -0.26866E-07   -0.21590E-06  2583   0.221E-03
    7 T=    61. E= -.41286675E+03 F= -.41316515E+03 E0= -.41314271E+03  EK= 0.29840E+00 SP= 0.00E+00 SK= 0.00E+00
       N       E                     dE             d eps       ncg     rms          rms(c)
RMM:   1    -0.413162068672E+03    0.30848E-02   -0.95939E+00  4262   0.665E-01    0.881E-01
RMM:   2    -0.413168958576E+03   -0.68899E-02   -0.11739E-01  4135   0.909E-02    0.645E-01
RMM:   3    -0.413166315212E+03    0.26434E-02   -0.12835E-02  4935   0.487E-02    0.129E-01
RMM:   4    -0.413200608337E+03   -0.34293E-01   -0.36498E-02  5141   0.159E-01    0.772E-01
RMM:   5    -0.413165505700E+03    0.35103E-01   -0.16666E-02  4806   0.129E-01    0.501E-02
RMM:   6    -0.413165718020E+03   -0.21232E-03   -0.28642E-03  5758   0.524E-02    0.320E-02
RMM:   7    -0.413165725321E+03   -0.73015E-05   -0.45431E-04  5825   0.190E-02    0.206E-02
RMM:   8    -0.413165723726E+03    0.15959E-05   -0.66901E-05  5153   0.865E-03    0.949E-03
RMM:   9    -0.413165723716E+03    0.94988E-08   -0.13102E-05  3905   0.406E-03    0.677E-03
RMM:  10    -0.413165726700E+03   -0.29844E-05   -0.20310E-06  2582   0.218E-03    0.430E-03
RMM:  11    -0.413165729533E+03   -0.28330E-05   -0.12537E-06  2534   0.175E-03    0.231E-03
RMM:  12    -0.413165733617E+03   -0.40838E-05   -0.18311E-06  2588   0.195E-03    0.959E-04
RMM:  13    -0.413165734656E+03   -0.10385E-05   -0.57743E-07  2361   0.127E-03    0.702E-04
RMM:  14    -0.413165734439E+03    0.21678E-06   -0.23424E-07  1844   0.839E-04
    8 T=    61. E= -.41286702E+03 F= -.41316573E+03 E0= -.41314330E+03  EK= 0.29872E+00 SP= 0.00E+00 SK= 0.00E+00
       N       E                     dE             d eps       ncg     rms          rms(c)
RMM:   1    -0.413162671699E+03    0.30630E-02   -0.96426E+00  4280   0.678E-01    0.897E-01
RMM:   2    -0.413169062292E+03   -0.63906E-02   -0.11736E-01  4165   0.928E-02    0.647E-01
RMM:   3    -0.413166166479E+03    0.28958E-02   -0.12547E-02  4790   0.437E-02    0.109E-01
RMM:   4    -0.413189244917E+03   -0.23078E-01   -0.23702E-02  5149   0.128E-01    0.636E-01
RMM:   5    -0.413165754856E+03    0.23490E-01   -0.11392E-02  4812   0.105E-01    0.448E-02
RMM:   6    -0.413165915638E+03   -0.16078E-03   -0.20274E-03  5789   0.430E-02    0.298E-02
RMM:   7    -0.413165916865E+03   -0.12275E-05   -0.34350E-04  5639   0.176E-02    0.189E-02
RMM:   8    -0.413165909301E+03    0.75642E-05   -0.55070E-05  4954   0.809E-03    0.908E-03
RMM:   9    -0.413165907941E+03    0.13607E-05   -0.10819E-05  3715   0.374E-03    0.699E-03
RMM:  10    -0.413165908631E+03   -0.69008E-06   -0.16643E-06  2551   0.214E-03
    9 T=    61. E= -.41286689E+03 F= -.41316591E+03 E0= -.41314350E+03  EK= 0.29902E+00 SP= 0.00E+00 SK= 0.00E+00
       N       E                     dE             d eps       ncg     rms          rms(c)
RMM:   1    -0.413162855678E+03    0.30523E-02   -0.96193E+00  4293   0.675E-01    0.904E-01
RMM:   2    -0.413168809532E+03   -0.59539E-02   -0.11609E-01  4300   0.923E-02    0.640E-01
RMM:   3    -0.413170062697E+03   -0.12532E-02   -0.15279E-02  5112   0.734E-02    0.288E-01
RMM:   4    -0.413194359355E+03   -0.24297E-01   -0.40576E-02  5099   0.171E-01    0.696E-01
RMM:   5    -0.413165894706E+03    0.28465E-01   -0.11508E-02  4717   0.114E-01    0.593E-02
RMM:   6    -0.413165955789E+03   -0.61083E-04   -0.21747E-03  5530   0.462E-02    0.310E-02
RMM:   7    -0.413165968205E+03   -0.12416E-04   -0.37399E-04  6000   0.171E-02    0.188E-02
RMM:   8    -0.413165962734E+03    0.54708E-05   -0.66064E-05  5179   0.908E-03    0.798E-03
RMM:   9    -0.413165958152E+03    0.45828E-05   -0.89036E-06  3440   0.367E-03    0.408E-03
RMM:  10    -0.413165957045E+03    0.11068E-05   -0.20440E-06  2577   0.219E-03    0.269E-03
RMM:  11    -0.413165955240E+03    0.18045E-05   -0.13312E-06  2519   0.182E-03    0.150E-03
RMM:  12    -0.413165953432E+03    0.18078E-05   -0.76554E-07  2481   0.142E-03    0.556E-04
RMM:  13    -0.413165952395E+03    0.10378E-05   -0.37609E-07  2080   0.100E-03    0.315E-04
RMM:  14    -0.413165951336E+03    0.10588E-05   -0.23402E-07  1616   0.804E-04    0.215E-04
RMM:  15    -0.413165949848E+03    0.14879E-05   -0.20475E-07  1461   0.742E-04    0.122E-04
RMM:  16    -0.413165948178E+03    0.16697E-05   -0.18269E-07  1381   0.709E-04    0.121E-04
RMM:  17    -0.413165946495E+03    0.16835E-05   -0.15197E-07  1341   0.672E-04    0.680E-05
RMM:  18    -0.413165945371E+03    0.11234E-05   -0.88498E-08  1086   0.601E-04    0.334E-05
RMM:  19    -0.413165944833E+03    0.53840E-06   -0.45511E-08   862   0.550E-04
   10 T=    61. E= -.41286666E+03 F= -.41316594E+03 E0= -.41314356E+03  EK= 0.29929E+00 SP= 0.00E+00 SK= 0.00E+00
       N       E                     dE             d eps       ncg     rms          rms(c)
RMM:   1    -0.413163166225E+03    0.27791E-02   -0.95899E+00  4290   0.681E-01    0.882E-01
RMM:   2    -0.413169808496E+03   -0.66423E-02   -0.11727E-01  4214   0.915E-02    0.643E-01
RMM:   3    -0.413167256449E+03    0.25520E-02   -0.12632E-02  4912   0.476E-02    0.128E-01
RMM:   4    -0.413200613055E+03   -0.33357E-01   -0.35483E-02  5136   0.157E-01    0.761E-01
RMM:   5    -0.413166498492E+03    0.34115E-01   -0.16300E-02  4796   0.127E-01    0.498E-02
RMM:   6    -0.413166712642E+03   -0.21415E-03   -0.28438E-03  5742   0.515E-02    0.324E-02
RMM:   7    -0.413166716939E+03   -0.42973E-05   -0.44381E-04  5722   0.189E-02    0.206E-02
RMM:   8    -0.413166712431E+03    0.45085E-05   -0.66161E-05  5136   0.863E-03    0.963E-03
RMM:   9    -0.413166711033E+03    0.13980E-05   -0.13338E-05  3962   0.410E-03    0.699E-03
RMM:  10    -0.413166712629E+03   -0.15967E-05   -0.19290E-06  2576   0.216E-03    0.444E-03
RMM:  11    -0.413166714211E+03   -0.15821E-05   -0.11832E-06  2510   0.172E-03    0.243E-03
RMM:  12    -0.413166716549E+03   -0.23377E-05   -0.16966E-06  2568   0.192E-03    0.971E-04
RMM:  13    -0.413166717100E+03   -0.55057E-06   -0.54076E-07  2352   0.127E-03
   11 T=    61. E= -.41286695E+03 F= -.41316672E+03 E0= -.41314436E+03  EK= 0.29977E+00 SP= 0.00E+00 SK= 0.00E+00
       N       E                     dE             d eps       ncg     rms          rms(c)
RMM:   1    -0.413163232011E+03    0.34845E-02   -0.96619E+00  4295   0.684E-01    0.894E-01
RMM:   2    -0.413169809602E+03   -0.65776E-02   -0.11806E-01  4234   0.929E-02    0.650E-01
RMM:   3    -0.413166981568E+03    0.28280E-02   -0.12727E-02  4831   0.445E-02    0.110E-01
RMM:   4    -0.413192655736E+03   -0.25674E-01   -0.26647E-02  5134   0.136E-01    0.670E-01
RMM:   5    -0.413166497067E+03    0.26159E-01   -0.12641E-02  4805   0.111E-01    0.457E-02
RMM:   6    -0.413166671110E+03   -0.17404E-03   -0.22511E-03  5786   0.451E-02    0.297E-02
RMM:   7    -0.413166675848E+03   -0.47381E-05   -0.35289E-04  5694   0.177E-02    0.190E-02
RMM:   8    -0.413166669305E+03    0.65431E-05   -0.61706E-05  4984   0.840E-03    0.944E-03
RMM:   9    -0.413166667621E+03    0.16843E-05   -0.12211E-05  3922   0.399E-03    0.721E-03
RMM:  10    -0.413166668558E+03   -0.93756E-06   -0.17047E-06  2554   0.214E-03
   12 T=    61. E= -.41286664E+03 F= -.41316667E+03 E0= -.41314434E+03  EK= 0.30003E+00 SP= 0.00E+00 SK= 0.00E+00
       N       E                     dE             d eps       ncg     rms          rms(c)
RMM:   1    -0.413164247605E+03    0.24200E-02   -0.96569E+00  4303   0.687E-01    0.909E-01
RMM:   2    -0.413169794532E+03   -0.55469E-02   -0.11664E-01  4313   0.910E-02    0.643E-01
RMM:   3    -0.413172324564E+03   -0.25300E-02   -0.16249E-02  5130   0.774E-02    0.317E-01
RMM:   4    -0.413192506596E+03   -0.20182E-01   -0.39328E-02  5092   0.169E-01    0.658E-01
RMM:   5    -0.413167195197E+03    0.25311E-01   -0.98843E-03  4696   0.107E-01    0.586E-02
RMM:   6    -0.413167228892E+03   -0.33695E-04   -0.19055E-03  5473   0.433E-02    0.310E-02
RMM:   7    -0.413167241169E+03   -0.12277E-04   -0.34487E-04  5975   0.168E-02    0.187E-02
RMM:   8    -0.413167233796E+03    0.73728E-05   -0.63917E-05  5153   0.905E-03    0.781E-03
RMM:   9    -0.413167228184E+03    0.56123E-05   -0.83340E-06  3408   0.367E-03    0.393E-03
RMM:  10    -0.413167226467E+03    0.17163E-05   -0.17933E-06  2550   0.214E-03    0.254E-03
RMM:  11    -0.413167223485E+03    0.29830E-05   -0.13362E-06  2518   0.182E-03    0.150E-03
RMM:  12    -0.413167220978E+03    0.25065E-05   -0.70342E-07  2468   0.139E-03    0.573E-04
RMM:  13    -0.413167219366E+03    0.16122E-05   -0.36178E-07  2075   0.991E-04    0.323E-04
RMM:  14    -0.413167217878E+03    0.14874E-05   -0.21759E-07  1602   0.794E-04    0.222E-04
RMM:  15    -0.413167215471E+03    0.24071E-05   -0.21011E-07  1503   0.756E-04    0.134E-04
RMM:  16    -0.413167213256E+03    0.22155E-05   -0.16955E-07  1422   0.701E-04    0.128E-04
RMM:  17    -0.413167210836E+03    0.24203E-05   -0.15189E-07  1370   0.674E-04    0.720E-05
RMM:  18    -0.413167209853E+03    0.98279E-06   -0.68901E-08   978   0.572E-04
   13 T=    61. E= -.41286676E+03 F= -.41316721E+03 E0= -.41314491E+03  EK= 0.30045E+00 SP= 0.00E+00 SK= 0.00E+00
       N       E                     dE             d eps       ncg     rms          rms(c)
RMM:   1    -0.413167638686E+03   -0.42785E-03   -0.96257E+00  4293   0.719E-01    0.885E-01
RMM:   2    -0.413170833685E+03   -0.31950E-02   -0.11950E-01  4253   0.958E-02    0.641E-01
RMM:   3    -0.413168493045E+03    0.23406E-02   -0.12422E-02  4922   0.472E-02    0.135E-01
RMM:   4    -0.413203054835E+03   -0.34562E-01   -0.36949E-02  5139   0.160E-01    0.774E-01
RMM:   5    -0.413167719903E+03    0.35335E-01   -0.16992E-02  4792   0.129E-01    0.503E-02
RMM:   6    -0.413167935570E+03   -0.21567E-03   -0.29303E-03  5746   0.523E-02    0.329E-02
RMM:   7    -0.413167935170E+03    0.40056E-06   -0.45043E-04  5700   0.192E-02    0.209E-02
RMM:   8    -0.413167928733E+03    0.64372E-05   -0.68371E-05  5146   0.883E-03    0.981E-03
RMM:   9    -0.413167925759E+03    0.29733E-05   -0.14259E-05  4065   0.422E-03    0.707E-03
RMM:  10    -0.413167925646E+03    0.11340E-06   -0.19844E-06  2576   0.217E-03
   14 T=    61. E= -.41286698E+03 F= -.41316793E+03 E0= -.41314566E+03  EK= 0.30095E+00 SP= 0.00E+00 SK= 0.00E+00
       N       E                     dE             d eps       ncg     rms          rms(c)
RMM:   1    -0.413164479774E+03    0.34460E-02   -0.96812E+00  4304   0.696E-01    0.891E-01
RMM:   2    -0.413171262673E+03   -0.67829E-02   -0.11860E-01  4324   0.924E-02    0.652E-01
RMM:   3    -0.413174353875E+03   -0.30912E-02   -0.17636E-02  5127   0.841E-02    0.348E-01
RMM:   4    -0.413193070838E+03   -0.18717E-01   -0.41656E-02  5076   0.174E-01    0.654E-01
RMM:   5    -0.413167909312E+03    0.25162E-01   -0.94840E-03  4679   0.106E-01    0.582E-02
RMM:   6    -0.413167931756E+03   -0.22443E-04   -0.18303E-03  5432   0.423E-02    0.291E-02
RMM:   7    -0.413167952445E+03   -0.20689E-04   -0.33021E-04  5974   0.166E-02    0.180E-02
RMM:   8    -0.413167951873E+03    0.57181E-06   -0.63924E-05  5157   0.898E-03    0.752E-03
RMM:   9    -0.413167950178E+03    0.16947E-05   -0.84727E-06  3402   0.370E-03    0.377E-03
RMM:  10    -0.413167951300E+03   -0.11220E-05   -0.16410E-06  2540   0.207E-03    0.242E-03
RMM:  11    -0.413167952947E+03   -0.16468E-05   -0.14417E-06  2534   0.184E-03    0.154E-03
RMM:  12    -0.413167953350E+03   -0.40340E-06   -0.66938E-07  2462   0.137E-03
   15 T=    61. E= -.41286663E+03 F= -.41316795E+03 E0= -.41314572E+03  EK= 0.30133E+00 SP= 0.00E+00 SK= 0.00E+00
       N       E                     dE             d eps       ncg     rms          rms(c)
RMM:   1    -0.413165970988E+03    0.19820E-02   -0.96922E+00  4298   0.701E-01    0.911E-01
RMM:   2    -0.413171905076E+03   -0.59341E-02   -0.11729E-01  4262   0.930E-02    0.646E-01
RMM:   3    -0.413169613459E+03    0.22916E-02   -0.12739E-02  4947   0.478E-02    0.141E-01
RMM:   4    -0.413204961056E+03   -0.35348E-01   -0.37969E-02  5134   0.162E-01    0.783E-01
RMM:   5    -0.413168796544E+03    0.36165E-01   -0.17435E-02  4794   0.131E-01    0.512E-02
RMM:   6    -0.413169007596E+03   -0.21105E-03   -0.29841E-03  5753   0.533E-02    0.340E-02
RMM:   7    -0.413169001115E+03    0.64812E-05   -0.46401E-04  5735   0.198E-02    0.216E-02
RMM:   8    -0.413168990422E+03    0.10693E-04   -0.73813E-05  5174   0.920E-03    0.104E-02
RMM:   9    -0.413168984172E+03    0.62499E-05   -0.14627E-05  4093   0.431E-03    0.742E-03
RMM:  10    -0.413168980401E+03    0.37714E-05   -0.20953E-06  2579   0.224E-03    0.466E-03
RMM:  11    -0.413168977509E+03    0.28920E-05   -0.12130E-06  2515   0.175E-03    0.264E-03
RMM:  12    -0.413168972022E+03    0.54874E-05   -0.18673E-06  2583   0.205E-03    0.107E-03
RMM:  13    -0.413168969500E+03    0.25215E-05   -0.60989E-07  2392   0.135E-03    0.828E-04
RMM:  14    -0.413168969669E+03   -0.16891E-06   -0.24790E-07  1941   0.876E-04
   16 T=    62. E= -.41286686E+03 F= -.41316897E+03 E0= -.41314677E+03  EK= 0.30211E+00 SP= 0.00E+00 SK= 0.00E+00
       N       E                     dE             d eps       ncg     rms          rms(c)
RMM:   1    -0.413166022826E+03    0.29467E-02   -0.96242E+00  4297   0.707E-01    0.891E-01
RMM:   2    -0.413172499860E+03   -0.64770E-02   -0.11724E-01  4264   0.923E-02    0.641E-01
RMM:   3    -0.413169814416E+03    0.26854E-02   -0.12330E-02  4859   0.452E-02    0.122E-01
RMM:   4    -0.413198541913E+03   -0.28727E-01   -0.30135E-02  5133   0.144E-01    0.707E-01
RMM:   5    -0.413169244492E+03    0.29297E-01   -0.14241E-02  4797   0.118E-01    0.476E-02
RMM:   6    -0.413169424284E+03   -0.17979E-03   -0.24959E-03  5790   0.478E-02    0.313E-02
RMM:   7    -0.413169424831E+03   -0.54674E-06   -0.38759E-04  5685   0.184E-02    0.198E-02
RMM:   8    -0.413169414926E+03    0.99049E-05   -0.66788E-05  5042   0.872E-03    0.989E-03
RMM:   9    -0.413169410142E+03    0.47833E-05   -0.13222E-05  4016   0.414E-03    0.742E-03
RMM:  10    -0.413169407830E+03    0.23119E-05   -0.18270E-06  2560   0.217E-03    0.464E-03
RMM:  11    -0.413169405719E+03    0.21119E-05   -0.12780E-06  2513   0.182E-03    0.249E-03
RMM:  12    -0.413169402332E+03    0.33868E-05   -0.16328E-06  2552   0.194E-03    0.974E-04
RMM:  13    -0.413169401008E+03    0.13239E-05   -0.49586E-07  2322   0.125E-03    0.636E-04
RMM:  14    -0.413169400874E+03    0.13354E-06   -0.22407E-07  1848   0.834E-04
   17 T=    62. E= -.41286666E+03 F= -.41316940E+03 E0= -.41314724E+03  EK= 0.30274E+00 SP= 0.00E+00 SK= 0.00E+00
       N       E                     dE             d eps       ncg     rms          rms(c)
RMM:   1    -0.413166435471E+03    0.29655E-02   -0.97078E+00  4297   0.710E-01    0.889E-01
RMM:   2    -0.413173214282E+03   -0.67788E-02   -0.11950E-01  4270   0.932E-02    0.652E-01
RMM:   3    -0.413170289223E+03    0.29251E-02   -0.13049E-02  4877   0.465E-02    0.115E-01
RMM:   4    -0.413199896776E+03   -0.29608E-01   -0.31178E-02  5127   0.146E-01    0.718E-01
RMM:   5    -0.413169688882E+03    0.30208E-01   -0.14699E-02  4793   0.119E-01    0.475E-02
RMM:   6    -0.413169873926E+03   -0.18504E-03   -0.25143E-03  5773   0.486E-02    0.311E-02
RMM:   7    -0.413169876868E+03   -0.29426E-05   -0.40103E-04  5671   0.184E-02    0.198E-02
RMM:   8    -0.413169870888E+03    0.59807E-05   -0.64495E-05  5074   0.859E-03    0.951E-03
RMM:   9    -0.413169868418E+03    0.24698E-05   -0.12995E-05  3928   0.407E-03    0.704E-03
RMM:  10    -0.413169868820E+03   -0.40190E-06   -0.17840E-06  2552   0.212E-03
   18 T=    62. E= -.41286649E+03 F= -.41316987E+03 E0= -.41314775E+03  EK= 0.30338E+00 SP= 0.00E+00 SK= 0.00E+00
       N       E                     dE             d eps       ncg     rms          rms(c)
RMM:   1    -0.413168081491E+03    0.17869E-02   -0.97323E+00  4303   0.718E-01    0.911E-01
RMM:   2    -0.413174005818E+03   -0.59243E-02   -0.11841E-01  4322   0.931E-02    0.649E-01
RMM:   3    -0.413176206286E+03   -0.22005E-02   -0.16360E-02  5114   0.783E-02    0.315E-01
RMM:   4    -0.413198026677E+03   -0.21820E-01   -0.41214E-02  5079   0.172E-01    0.677E-01
RMM:   5    -0.413171089485E+03    0.26937E-01   -0.10592E-02  4694   0.111E-01    0.585E-02
RMM:   6    -0.413171131653E+03   -0.42168E-04   -0.20260E-03  5469   0.447E-02    0.309E-02
RMM:   7    -0.413171140633E+03   -0.89795E-05   -0.35995E-04  5973   0.170E-02    0.190E-02
RMM:   8    -0.413171132799E+03    0.78339E-05   -0.67416E-05  5158   0.918E-03    0.803E-03
RMM:   9    -0.413171126112E+03    0.66870E-05   -0.89291E-06  3452   0.376E-03    0.400E-03
RMM:  10    -0.413171123802E+03    0.23096E-05   -0.19184E-06  2564   0.216E-03    0.261E-03
RMM:  11    -0.413171119846E+03    0.39561E-05   -0.12750E-06  2510   0.181E-03    0.149E-03
RMM:  12    -0.413171116445E+03    0.34012E-05   -0.67029E-07  2461   0.138E-03    0.545E-04
RMM:  13    -0.413171114389E+03    0.20559E-05   -0.33479E-07  2064   0.980E-04    0.312E-04
RMM:  14    -0.413171112565E+03    0.18233E-05   -0.19231E-07  1563   0.781E-04    0.216E-04
RMM:  15    -0.413171109420E+03    0.31457E-05   -0.17289E-07  1450   0.737E-04    0.126E-04
RMM:  16    -0.413171106729E+03    0.26908E-05   -0.13127E-07  1342   0.682E-04    0.122E-04
RMM:  17    -0.413171103700E+03    0.30287E-05   -0.11783E-07  1333   0.662E-04    0.678E-05
RMM:  18    -0.413171102213E+03    0.14869E-05   -0.63382E-08  1021   0.582E-04    0.408E-05
RMM:  19    -0.413171101273E+03    0.94056E-06   -0.34938E-08   852   0.546E-04
   19 T=    62. E= -.41286683E+03 F= -.41317110E+03 E0= -.41314902E+03  EK= 0.30427E+00 SP= 0.00E+00 SK= 0.00E+00
       N       E                     dE             d eps       ncg     rms          rms(c)
RMM:   1    -0.413168267089E+03    0.28351E-02   -0.96752E+00  4296   0.713E-01    0.900E-01
RMM:   2    -0.413174176879E+03   -0.59098E-02   -0.11790E-01  4267   0.932E-02    0.643E-01
RMM:   3    -0.413172177154E+03    0.19997E-02   -0.12674E-02  4933   0.485E-02    0.143E-01
RMM:   4    -0.413208338643E+03   -0.36161E-01   -0.39191E-02  5132   0.164E-01    0.792E-01
RMM:   5    -0.413171292248E+03    0.37046E-01   -0.17892E-02  4785   0.132E-01    0.518E-02
RMM:   6    -0.413171502260E+03   -0.21001E-03   -0.30928E-03  5740   0.541E-02    0.341E-02
RMM:   7    -0.413171500597E+03    0.16640E-05   -0.48227E-04  5705   0.199E-02    0.218E-02
RMM:   8    -0.413171490022E+03    0.10574E-04   -0.74884E-05  5185   0.925E-03    0.104E-02
RMM:   9    -0.413171483668E+03    0.63537E-05   -0.15165E-05  4145   0.437E-03    0.737E-03
RMM:  10    -0.413171480000E+03    0.36683E-05   -0.21208E-06  2577   0.224E-03    0.467E-03
RMM:  11    -0.413171477275E+03    0.27254E-05   -0.11648E-06  2508   0.173E-03    0.266E-03
RMM:  12    -0.413171472351E+03    0.49232E-05   -0.17227E-06  2558   0.202E-03    0.103E-03
RMM:  13    -0.413171470042E+03    0.23096E-05   -0.59526E-07  2379   0.135E-03    0.828E-04
RMM:  14    -0.413171470220E+03   -0.17807E-06   -0.25364E-07  1962   0.886E-04
   20 T=    62. E= -.41286660E+03 F= -.41317147E+03 E0= -.41314944E+03  EK= 0.30487E+00 SP= 0.00E+00 SK= 0.00E+00
       N       E                     dE             d eps       ncg     rms          rms(c)
RMM:   1    -0.413175849393E+03   -0.43794E-02   -0.97956E+00  4295   0.760E-01    0.889E-01
RMM:   2    -0.413175923229E+03   -0.73836E-04   -0.12533E-01  4280   0.950E-02    0.653E-01
RMM:   3    -0.413172964476E+03    0.29588E-02   -0.12668E-02  4849   0.456E-02    0.117E-01
RMM:   4    -0.413200922369E+03   -0.27958E-01   -0.29261E-02  5132   0.142E-01    0.698E-01
RMM:   5    -0.413172441311E+03    0.28481E-01   -0.13943E-02  4798   0.116E-01    0.466E-02
RMM:   6    -0.413172613594E+03   -0.17228E-03   -0.24230E-03  5805   0.471E-02    0.297E-02
RMM:   7    -0.413172617780E+03   -0.41852E-05   -0.35222E-04  5690   0.177E-02    0.186E-02
RMM:   8    -0.413172610853E+03    0.69270E-05   -0.69419E-05  5023   0.873E-03    0.999E-03
RMM:   9    -0.413172606924E+03    0.39287E-05   -0.13602E-05  4102   0.424E-03    0.745E-03
RMM:  10    -0.413172606310E+03    0.61360E-06   -0.17879E-06  2553   0.216E-03
   21 T=    62. E= -.41286686E+03 F= -.41317261E+03 E0= -.41315062E+03  EK= 0.30574E+00 SP= 0.00E+00 SK= 0.00E+00
       N       E                     dE             d eps       ncg     rms          rms(c)
RMM:   1    -0.413174465408E+03   -0.18585E-02   -0.98111E+00  4295   0.767E-01    0.908E-01
RMM:   2    -0.413176839711E+03   -0.23743E-02   -0.12538E-01  4320   0.989E-02    0.654E-01
RMM:   3    -0.413178609922E+03   -0.17702E-02   -0.16040E-02  5108   0.779E-02    0.312E-01
RMM:   4    -0.413203230153E+03   -0.24620E-01   -0.43943E-02  5088   0.177E-01    0.708E-01
RMM:   5    -0.413173649250E+03    0.29581E-01   -0.11813E-02  4694   0.116E-01    0.588E-02
RMM:   6    -0.413173709666E+03   -0.60416E-04   -0.22406E-03  5526   0.469E-02    0.310E-02
RMM:   7    -0.413173718252E+03   -0.85858E-05   -0.37919E-04  5960   0.175E-02    0.194E-02
RMM:   8    -0.413173711823E+03    0.64294E-05   -0.71299E-05  5161   0.941E-03    0.829E-03
RMM:   9    -0.413173705286E+03    0.65368E-05   -0.10298E-05  3594   0.395E-03    0.410E-03
RMM:  10    -0.413173703085E+03    0.22013E-05   -0.21318E-06  2590   0.219E-03    0.274E-03
RMM:  11    -0.413173699421E+03    0.36631E-05   -0.12211E-06  2499   0.179E-03    0.152E-03
RMM:  12    -0.413173695842E+03    0.35796E-05   -0.69728E-07  2458   0.140E-03    0.516E-04
RMM:  13    -0.413173693765E+03    0.20766E-05   -0.34139E-07  2067   0.986E-04    0.291E-04
RMM:  14    -0.413173691875E+03    0.18902E-05   -0.19482E-07  1568   0.780E-04    0.199E-04
RMM:  15    -0.413173689093E+03    0.27821E-05   -0.15239E-07  1395   0.717E-04    0.115E-04
RMM:  16    -0.413173686288E+03    0.28045E-05   -0.12600E-07  1340   0.683E-04    0.125E-04
RMM:  17    -0.413173683447E+03    0.28419E-05   -0.10007E-07  1249   0.644E-04    0.668E-05
RMM:  18    -0.413173681440E+03    0.20069E-05   -0.64518E-08  1043   0.590E-04    0.308E-05
RMM:  19    -0.413173680491E+03    0.94884E-06   -0.32967E-08   835   0.548E-04
   22 T=    62. E= -.41286696E+03 F= -.41317368E+03 E0= -.41315174E+03  EK= 0.30672E+00 SP= 0.00E+00 SK= 0.00E+00
       N       E                     dE             d eps       ncg     rms          rms(c)
RMM:   1    -0.413171256276E+03    0.24252E-02   -0.97466E+00  4295   0.727E-01    0.909E-01
RMM:   2    -0.413177439933E+03   -0.61837E-02   -0.11889E-01  4282   0.951E-02    0.647E-01
RMM:   3    -0.413174947233E+03    0.24927E-02   -0.12752E-02  4895   0.489E-02    0.138E-01
RMM:   4    -0.413209361477E+03   -0.34414E-01   -0.36797E-02  5133   0.159E-01    0.772E-01
RMM:   5    -0.413174198106E+03    0.35163E-01   -0.17144E-02  4791   0.129E-01    0.508E-02
RMM:   6    -0.413174396339E+03   -0.19823E-03   -0.29306E-03  5767   0.527E-02    0.338E-02
RMM:   7    -0.413174393036E+03    0.33032E-05   -0.44940E-04  5682   0.198E-02    0.213E-02
RMM:   8    -0.413174381138E+03    0.11898E-04   -0.76887E-05  5145   0.936E-03    0.107E-02
RMM:   9    -0.413174373642E+03    0.74962E-05   -0.15177E-05  4144   0.442E-03    0.764E-03
RMM:  10    -0.413174368812E+03    0.48304E-05   -0.20933E-06  2580   0.225E-03    0.482E-03
RMM:  11    -0.413174364892E+03    0.39199E-05   -0.12573E-06  2510   0.180E-03    0.268E-03
RMM:  12    -0.413174358243E+03    0.66486E-05   -0.17854E-06  2564   0.205E-03    0.106E-03
RMM:  13    -0.413174355385E+03    0.28584E-05   -0.55999E-07  2362   0.134E-03    0.788E-04
RMM:  14    -0.413174355608E+03   -0.22352E-06   -0.25032E-07  1934   0.879E-04
   23 T=    63. E= -.41286663E+03 F= -.41317436E+03 E0= -.41315246E+03  EK= 0.30773E+00 SP= 0.00E+00 SK= 0.00E+00
       N       E                     dE             d eps       ncg     rms          rms(c)
RMM:   1    -0.413173134856E+03    0.12205E-02   -0.97707E+00  4296   0.750E-01    0.892E-01
RMM:   2    -0.413179541482E+03   -0.64066E-02   -0.12245E-01  4283   0.992E-02    0.653E-01
RMM:   3    -0.413176188539E+03    0.33529E-02   -0.12748E-02  4759   0.462E-02    0.106E-01
RMM:   4    -0.413197840786E+03   -0.21652E-01   -0.22333E-02  5136   0.124E-01    0.616E-01
RMM:   5    -0.413175817684E+03    0.22023E-01   -0.10937E-02  4803   0.102E-01    0.441E-02
RMM:   6    -0.413175941152E+03   -0.12347E-03   -0.18872E-03  5825   0.411E-02    0.269E-02
RMM:   7    -0.413175944408E+03   -0.32557E-05   -0.23259E-04  5626   0.152E-02    0.138E-02
RMM:   8    -0.413175941249E+03    0.31589E-05   -0.48179E-05  4961   0.714E-03    0.933E-03
RMM:   9    -0.413175937154E+03    0.40952E-05   -0.10442E-05  3802   0.369E-03    0.708E-03
RMM:  10    -0.413175935726E+03    0.14280E-05   -0.15651E-06  2539   0.213E-03    0.443E-03
RMM:  11    -0.413175933739E+03    0.19862E-05   -0.17267E-06  2550   0.206E-03    0.217E-03
RMM:  12    -0.413175930971E+03    0.27686E-05   -0.12141E-06  2492   0.176E-03    0.811E-04
RMM:  13    -0.413175930274E+03    0.69675E-06   -0.39367E-07  2192   0.110E-03
   24 T=    63. E= -.41286681E+03 F= -.41317593E+03 E0= -.41315408E+03  EK= 0.30912E+00 SP= 0.00E+00 SK= 0.00E+00
       N       E                     dE             d eps       ncg     rms          rms(c)
RMM:   1    -0.413175244569E+03    0.68640E-03   -0.98600E+00  4298   0.767E-01    0.907E-01
RMM:   2    -0.413180406467E+03   -0.51619E-02   -0.12514E-01  4281   0.103E-01    0.659E-01
RMM:   3    -0.413177050179E+03    0.33563E-02   -0.12735E-02  4647   0.457E-02    0.103E-01
RMM:   4    -0.413192628372E+03   -0.15578E-01   -0.15967E-02  5141   0.105E-01    0.524E-01
RMM:   5    -0.413176819681E+03    0.15809E-01   -0.78809E-03  4821   0.868E-02    0.420E-02
RMM:   6    -0.413176892953E+03   -0.73271E-04   -0.13922E-03  5828   0.346E-02    0.243E-02
RMM:   7    -0.413176891035E+03    0.19180E-05   -0.15746E-04  5535   0.127E-02    0.114E-02
RMM:   8    -0.413176884598E+03    0.64363E-05   -0.25746E-05  4568   0.533E-03    0.770E-03
RMM:   9    -0.413176883714E+03    0.88480E-06   -0.64603E-06  3227   0.298E-03
   25 T=    63. E= -.41286651E+03 F= -.41317688E+03 E0= -.41315509E+03  EK= 0.31037E+00 SP= 0.00E+00 SK= 0.00E+00
       N       E                     dE             d eps       ncg     rms          rms(c)
RMM:   1    -0.413175471900E+03    0.14127E-02   -0.98514E+00  4294   0.751E-01    0.920E-01
RMM:   2    -0.413181201377E+03   -0.57295E-02   -0.12051E-01  4347   0.996E-02    0.653E-01
RMM:   3    -0.413186185784E+03   -0.49844E-02   -0.18912E-02  5128   0.935E-02    0.389E-01
RMM:   4    -0.413198328997E+03   -0.12143E-01   -0.37675E-02  5053   0.167E-01    0.585E-01
RMM:   5    -0.413178258081E+03    0.20071E-01   -0.69905E-03  4641   0.961E-02    0.557E-02
RMM:   6    -0.413178255184E+03    0.28967E-05   -0.15364E-03  5479   0.379E-02    0.317E-02
RMM:   7    -0.413178249917E+03    0.52671E-05   -0.29025E-04  5828   0.164E-02    0.188E-02
RMM:   8    -0.413178239496E+03    0.10420E-04   -0.59793E-05  5050   0.891E-03    0.760E-03
RMM:   9    -0.413178230624E+03    0.88729E-05   -0.77451E-06  3405   0.370E-03    0.385E-03
RMM:  10    -0.413178226506E+03    0.41177E-05   -0.14314E-06  2513   0.205E-03    0.243E-03
RMM:  11    -0.413178219212E+03    0.72936E-05   -0.10981E-06  2500   0.170E-03    0.138E-03
RMM:  12    -0.413178213565E+03    0.56475E-05   -0.57731E-07  2428   0.129E-03    0.514E-04
RMM:  13    -0.413178209583E+03    0.39818E-05   -0.29770E-07  2033   0.932E-04    0.290E-04
RMM:  14    -0.413178206506E+03    0.30767E-05   -0.16207E-07  1447   0.734E-04    0.196E-04
RMM:  15    -0.413178200269E+03    0.62375E-05   -0.16203E-07  1471   0.734E-04    0.167E-04
RMM:  16    -0.413178196863E+03    0.34059E-05   -0.98449E-08  1201   0.636E-04    0.134E-04
RMM:  17    -0.413178192062E+03    0.48006E-05   -0.11026E-07  1327   0.656E-04    0.695E-05
RMM:  18    -0.413178190622E+03    0.14406E-05   -0.47610E-08   905   0.557E-04    0.480E-05
RMM:  19    -0.413178189582E+03    0.10392E-05   -0.27659E-08   781   0.536E-04    0.315E-05
RMM:  20    -0.413178189372E+03    0.21068E-06   -0.15165E-08   691   0.522E-04
   26 T=    63. E= -.41286645E+03 F= -.41317819E+03 E0= -.41315644E+03  EK= 0.31174E+00 SP= 0.00E+00 SK= 0.00E+00
       N       E                     dE             d eps       ncg     rms          rms(c)
RMM:   1    -0.413184549350E+03   -0.63598E-02   -0.99047E+00  4287   0.824E-01    0.898E-01
RMM:   2    -0.413183189899E+03    0.13595E-02   -0.12366E-01  4278   0.104E-01    0.654E-01
RMM:   3    -0.413180322572E+03    0.28673E-02   -0.13007E-02  4746   0.506E-02    0.113E-01
RMM:   4    -0.413205388671E+03   -0.25066E-01   -0.25873E-02  5138   0.134E-01    0.661E-01
RMM:   5    -0.413179901620E+03    0.25487E-01   -0.12691E-02  4806   0.110E-01    0.458E-02
RMM:   6    -0.413180037051E+03   -0.13543E-03   -0.21276E-03  5825   0.437E-02    0.294E-02
RMM:   7    -0.413180038863E+03   -0.18126E-05   -0.30153E-04  5655   0.171E-02    0.169E-02
RMM:   8    -0.413180032468E+03    0.63951E-05   -0.62755E-05  5006   0.832E-03    0.987E-03
RMM:   9    -0.413180027032E+03    0.54361E-05   -0.12433E-05  4013   0.411E-03    0.720E-03
RMM:  10    -0.413180024815E+03    0.22169E-05   -0.16840E-06  2547   0.215E-03    0.445E-03
RMM:  11    -0.413180022491E+03    0.23244E-05   -0.13821E-06  2520   0.190E-03    0.226E-03
RMM:  12    -0.413180019248E+03    0.32427E-05   -0.13736E-06  2515   0.182E-03    0.897E-04
RMM:  13    -0.413180018070E+03    0.11782E-05   -0.43479E-07  2272   0.117E-03    0.561E-04
RMM:  14    -0.413180017775E+03    0.29483E-06   -0.20591E-07  1755   0.807E-04
   27 T=    64. E= -.41286674E+03 F= -.41318002E+03 E0= -.41315832E+03  EK= 0.31328E+00 SP= 0.00E+00 SK= 0.00E+00
       N       E                     dE             d eps       ncg     rms          rms(c)
RMM:   1    -0.413179229407E+03    0.78866E-03   -0.99467E+00  4292   0.782E-01    0.908E-01
RMM:   2    -0.413184493072E+03   -0.52637E-02   -0.12464E-01  4277   0.103E-01    0.664E-01
RMM:   3    -0.413181326583E+03    0.31665E-02   -0.13345E-02  4590   0.502E-02    0.961E-02
RMM:   4    -0.413195405337E+03   -0.14079E-01   -0.14362E-02  5146   0.100E-01    0.499E-01
RMM:   5    -0.413181154755E+03    0.14251E-01   -0.71879E-03  4823   0.820E-02    0.416E-02
RMM:   6    -0.413181211106E+03   -0.56351E-04   -0.12428E-03  5856   0.326E-02    0.242E-02
RMM:   7    -0.413181208661E+03    0.24442E-05   -0.14920E-04  5460   0.129E-02    0.112E-02
RMM:   8    -0.413181203064E+03    0.55973E-05   -0.21886E-05  4371   0.506E-03    0.709E-03
RMM:   9    -0.413181201858E+03    0.12062E-05   -0.44415E-06  2867   0.267E-03    0.486E-03
RMM:  10    -0.413181200204E+03    0.16540E-05   -0.10057E-06  2501   0.173E-03    0.333E-03
RMM:  11    -0.413181196745E+03    0.34585E-05   -0.16135E-06  2519   0.209E-03    0.184E-03
RMM:  12    -0.413181194831E+03    0.19140E-05   -0.75574E-07  2427   0.145E-03    0.104E-03
RMM:  13    -0.413181194054E+03    0.77711E-06   -0.26150E-07  2041   0.918E-04
   28 T=    64. E= -.41286654E+03 F= -.41318119E+03 E0= -.41315955E+03  EK= 0.31465E+00 SP= 0.00E+00 SK= 0.00E+00
       N       E                     dE             d eps       ncg     rms          rms(c)
RMM:   1    -0.413180347847E+03    0.84698E-03   -0.99553E+00  4290   0.768E-01    0.927E-01
RMM:   2    -0.413186241595E+03   -0.58937E-02   -0.12261E-01  4277   0.105E-01    0.659E-01
RMM:   3    -0.413183245813E+03    0.29958E-02   -0.13142E-02  4462   0.489E-02    0.104E-01
RMM:   4    -0.413190901391E+03   -0.76556E-02   -0.79857E-03  5156   0.748E-02    0.369E-01
RMM:   5    -0.413183191838E+03    0.77096E-02   -0.39605E-03  4836   0.609E-02    0.406E-02
RMM:   6    -0.413183217206E+03   -0.25368E-04   -0.79825E-04  5788   0.265E-02    0.251E-02
RMM:   7    -0.413183208005E+03    0.92013E-05   -0.22982E-04  5325   0.154E-02    0.167E-02
RMM:   8    -0.413183191368E+03    0.16637E-04   -0.20114E-05  4288   0.588E-03    0.707E-03
RMM:   9    -0.413183187846E+03    0.35221E-05   -0.41290E-06  2871   0.258E-03    0.485E-03
RMM:  10    -0.413183182223E+03    0.56233E-05   -0.15077E-06  2500   0.202E-03    0.261E-03
RMM:  11    -0.413183176043E+03    0.61796E-05   -0.90752E-07  2467   0.162E-03    0.125E-03
RMM:  12    -0.413183171100E+03    0.49437E-05   -0.46035E-07  2241   0.117E-03    0.602E-04
RMM:  13    -0.413183168330E+03    0.27691E-05   -0.25464E-07  1863   0.867E-04    0.285E-04
RMM:  14    -0.413183164685E+03    0.36454E-05   -0.14931E-07  1500   0.730E-04    0.185E-04
RMM:  15    -0.413183159883E+03    0.48025E-05   -0.11038E-07  1326   0.680E-04    0.103E-04
RMM:  16    -0.413183157325E+03    0.25578E-05   -0.60892E-08  1053   0.611E-04    0.796E-05
RMM:  17    -0.413183153048E+03    0.42764E-05   -0.72853E-08  1226   0.628E-04    0.518E-05
RMM:  18    -0.413183151076E+03    0.19721E-05   -0.39036E-08   966   0.562E-04    0.319E-05
RMM:  19    -0.413183150591E+03    0.48559E-06   -0.15207E-08   720   0.520E-04
   29 T=    64. E= -.41286673E+03 F= -.41318315E+03 E0= -.41316155E+03  EK= 0.31643E+00 SP= 0.00E+00 SK= 0.00E+00
       N       E                     dE             d eps       ncg     rms          rms(c)
RMM:   1    -0.413182289115E+03    0.86196E-03   -0.99223E+00  4285   0.799E-01    0.907E-01
RMM:   2    -0.413188559898E+03   -0.62708E-02   -0.12387E-01  4272   0.112E-01    0.657E-01
RMM:   3    -0.413185157801E+03    0.34021E-02   -0.13132E-02  4513   0.530E-02    0.999E-02
RMM:   4    -0.413195784956E+03   -0.10627E-01   -0.10896E-02  5147   0.875E-02    0.434E-01
RMM:   5    -0.413185053648E+03    0.10731E-01   -0.54790E-03  4830   0.715E-02    0.408E-02
RMM:   6    -0.413185092033E+03   -0.38385E-04   -0.99744E-04  5834   0.295E-02    0.254E-02
RMM:   7    -0.413185094137E+03   -0.21036E-05   -0.24073E-04  5424   0.155E-02    0.169E-02
RMM:   8    -0.413185076913E+03    0.17224E-04   -0.28840E-05  4649   0.656E-03    0.753E-03
RMM:   9    -0.413185074840E+03    0.20727E-05   -0.54695E-06  3019   0.291E-03    0.543E-03
RMM:  10    -0.413185071445E+03    0.33949E-05   -0.15047E-06  2503   0.204E-03    0.299E-03
RMM:  11    -0.413185068010E+03    0.34354E-05   -0.96951E-07  2474   0.166E-03    0.150E-03
RMM:  12    -0.413185064652E+03    0.33576E-05   -0.60546E-07  2372   0.129E-03    0.772E-04
RMM:  13    -0.413185063078E+03    0.15738E-05   -0.27475E-07  1971   0.910E-04    0.336E-04
RMM:  14    -0.413185061415E+03    0.16632E-05   -0.14932E-07  1429   0.722E-04    0.207E-04
RMM:  15    -0.413185058799E+03    0.26163E-05   -0.10229E-07  1269   0.672E-04    0.988E-05
RMM:  16    -0.413185056746E+03    0.20524E-05   -0.62345E-08  1011   0.624E-04    0.758E-05
RMM:  17    -0.413185055128E+03    0.16189E-05   -0.43241E-08   934   0.600E-04    0.513E-05
RMM:  18    -0.413185052125E+03    0.30022E-05   -0.58779E-08  1123   0.619E-04    0.309E-05
RMM:  19    -0.413185051481E+03    0.64458E-06   -0.23083E-08   791   0.551E-04
   30 T=    65. E= -.41286668E+03 F= -.41318505E+03 E0= -.41316350E+03  EK= 0.31838E+00 SP= 0.00E+00 SK= 0.00E+00
       N       E                     dE             d eps       ncg     rms          rms(c)
RMM:   1    -0.413187079766E+03   -0.20276E-02   -0.10080E+01  4291   0.821E-01    0.910E-01
RMM:   2    -0.413190778376E+03   -0.36986E-02   -0.12935E-01  4280   0.117E-01    0.670E-01
RMM:   3    -0.413186789117E+03    0.39893E-02   -0.13746E-02  4506   0.586E-02    0.954E-02
RMM:   4    -0.413198414772E+03   -0.11626E-01   -0.11836E-02  5143   0.912E-02    0.454E-01
RMM:   5    -0.413186670751E+03    0.11744E-01   -0.59775E-03  4826   0.746E-02    0.408E-02
RMM:   6    -0.413186714258E+03   -0.43507E-04   -0.10617E-03  5831   0.304E-02    0.251E-02
RMM:   7    -0.413186722618E+03   -0.83594E-05   -0.23401E-04  5454   0.153E-02    0.167E-02
RMM:   8    -0.413186706699E+03    0.15919E-04   -0.31566E-05  4696   0.667E-03    0.756E-03
RMM:   9    -0.413186705715E+03    0.98390E-06   -0.59361E-06  3095   0.303E-03
   31 T=    65. E= -.41286636E+03 F= -.41318671E+03 E0= -.41316521E+03  EK= 0.32035E+00 SP= 0.00E+00 SK= 0.00E+00
       N       E                     dE             d eps       ncg     rms          rms(c)
RMM:   1    -0.413186763723E+03   -0.57024E-04   -0.10094E+01  4297   0.806E-01    0.934E-01
RMM:   2    -0.413192838484E+03   -0.60748E-02   -0.12629E-01  4304   0.121E-01    0.667E-01
RMM:   3    -0.413191677974E+03    0.11605E-02   -0.15177E-02  4999   0.757E-02    0.230E-01
RMM:   4    -0.413230678699E+03   -0.39001E-01   -0.49520E-02  5103   0.187E-01    0.835E-01
RMM:   5    -0.413189139839E+03    0.41539E-01   -0.18769E-02  4771   0.138E-01    0.564E-02
RMM:   6    -0.413189323019E+03   -0.18318E-03   -0.34424E-03  5789   0.557E-02    0.355E-02
RMM:   7    -0.413189324851E+03   -0.18323E-05   -0.49001E-04  5746   0.202E-02    0.232E-02
RMM:   8    -0.413189315330E+03    0.95208E-05   -0.98517E-05  5207   0.105E-02    0.120E-02
RMM:   9    -0.413189303589E+03    0.11741E-04   -0.15775E-05  4179   0.485E-03    0.648E-03
RMM:  10    -0.413189297322E+03    0.62665E-05   -0.33698E-06  2742   0.258E-03    0.419E-03
RMM:  11    -0.413189292416E+03    0.49061E-05   -0.12047E-06  2501   0.184E-03    0.234E-03
RMM:  12    -0.413189283578E+03    0.88384E-05   -0.12981E-06  2498   0.187E-03    0.838E-04
RMM:  13    -0.413189278924E+03    0.46536E-05   -0.59718E-07  2381   0.132E-03    0.610E-04
RMM:  14    -0.413189278016E+03    0.90856E-06   -0.27982E-07  2019   0.917E-04
   32 T=    66. E= -.41286665E+03 F= -.41318928E+03 E0= -.41316783E+03  EK= 0.32263E+00 SP= 0.00E+00 SK= 0.00E+00
       N       E                     dE             d eps       ncg     rms          rms(c)
RMM:   1    -0.413188547800E+03    0.73112E-03   -0.10065E+01  4292   0.820E-01    0.920E-01
RMM:   2    -0.413194677836E+03   -0.61300E-02   -0.12729E-01  4286   0.123E-01    0.663E-01
RMM:   3    -0.413191231041E+03    0.34468E-02   -0.13394E-02  4285   0.583E-02    0.976E-02
RMM:   4    -0.413191979233E+03   -0.74819E-03   -0.13460E-03  5126   0.297E-02    0.117E-01
RMM:   5    -0.413191285490E+03    0.69374E-03   -0.42275E-04  4794   0.207E-02    0.401E-02
RMM:   6    -0.413191295967E+03   -0.10477E-04   -0.36010E-04  5386   0.188E-02    0.298E-02
RMM:   7    -0.413191257716E+03    0.38251E-04   -0.20288E-04  4879   0.140E-02    0.170E-02
RMM:   8    -0.413191252020E+03    0.56959E-05   -0.22778E-05  4338   0.505E-03    0.590E-03
RMM:   9    -0.413191250236E+03    0.17837E-05   -0.31178E-06  2483   0.215E-03    0.260E-03
RMM:  10    -0.413191243118E+03    0.71182E-05   -0.88622E-07  2411   0.150E-03    0.121E-03
RMM:  11    -0.413191238269E+03    0.48496E-05   -0.36855E-07  2097   0.978E-04    0.524E-04
RMM:  12    -0.413191232826E+03    0.54427E-05   -0.23272E-07  1746   0.821E-04    0.227E-04
RMM:  13    -0.413191228577E+03    0.42492E-05   -0.12173E-07  1274   0.682E-04    0.197E-04
RMM:  14    -0.413191223589E+03    0.49880E-05   -0.89909E-08  1136   0.644E-04    0.123E-04
RMM:  15    -0.413191216966E+03    0.66231E-05   -0.98678E-08  1276   0.656E-04    0.906E-05
RMM:  16    -0.413191214459E+03    0.25068E-05   -0.40932E-08   896   0.563E-04    0.747E-05
RMM:  17    -0.413191212766E+03    0.16926E-05   -0.22938E-08   728   0.534E-04    0.309E-05
RMM:  18    -0.413191212151E+03    0.61531E-06   -0.13092E-08   624   0.516E-04
   33 T=    66. E= -.41286646E+03 F= -.41319121E+03 E0= -.41316981E+03  EK= 0.32475E+00 SP= 0.00E+00 SK= 0.00E+00
       N       E                     dE             d eps       ncg     rms          rms(c)
RMM:   1    -0.413197834215E+03   -0.66214E-02   -0.10245E+01  4298   0.881E-01    0.915E-01
RMM:   2    -0.413197238135E+03    0.59608E-03   -0.13668E-01  4279   0.129E-01    0.675E-01
RMM:   3    -0.413193563427E+03    0.36747E-02   -0.13658E-02  4261   0.618E-02    0.932E-02
RMM:   4    -0.413194280688E+03   -0.71726E-03   -0.13432E-03  5110   0.288E-02    0.113E-01
RMM:   5    -0.413193621271E+03    0.65942E-03   -0.38525E-04  4786   0.198E-02    0.390E-02
RMM:   6    -0.413193640258E+03   -0.18987E-04   -0.35055E-04  5398   0.182E-02    0.278E-02
RMM:   7    -0.413193609404E+03    0.30854E-04   -0.18995E-04  4872   0.139E-02    0.176E-02
RMM:   8    -0.413193603707E+03    0.56966E-05   -0.23148E-05  4160   0.490E-03    0.551E-03
RMM:   9    -0.413193603145E+03    0.56212E-06   -0.25451E-06  2497   0.209E-03
   34 T=    67. E= -.41286649E+03 F= -.41319360E+03 E0= -.41317225E+03  EK= 0.32712E+00 SP= 0.00E+00 SK= 0.00E+00
       N       E                     dE             d eps       ncg     rms          rms(c)
RMM:   1    -0.413196473277E+03   -0.28696E-02   -0.10271E+01  4302   0.900E-01    0.938E-01
RMM:   2    -0.413199568299E+03   -0.30950E-02   -0.13452E-01  4270   0.130E-01    0.676E-01
RMM:   3    -0.413196368733E+03    0.31996E-02   -0.13725E-02  4478   0.631E-02    0.108E-01
RMM:   4    -0.413205623935E+03   -0.92552E-02   -0.95752E-03  5169   0.831E-02    0.406E-01
RMM:   5    -0.413196355796E+03    0.92681E-02   -0.47350E-03  4827   0.676E-02    0.430E-02
RMM:   6    -0.413196354908E+03    0.88793E-06   -0.94980E-04  5742   0.306E-02    0.317E-02
RMM:   7    -0.413196345280E+03    0.96278E-05   -0.29669E-04  5319   0.167E-02    0.171E-02
RMM:   8    -0.413196332505E+03    0.12775E-04   -0.28894E-05  4685   0.629E-03    0.741E-03
RMM:   9    -0.413196329514E+03    0.29913E-05   -0.47128E-06  2898   0.264E-03    0.440E-03
RMM:  10    -0.413196323474E+03    0.60398E-05   -0.12755E-06  2501   0.191E-03    0.228E-03
RMM:  11    -0.413196317259E+03    0.62152E-05   -0.81474E-07  2465   0.147E-03    0.116E-03
RMM:  12    -0.413196311481E+03    0.57780E-05   -0.47272E-07  2252   0.114E-03    0.522E-04
RMM:  13    -0.413196308413E+03    0.30679E-05   -0.23886E-07  1812   0.841E-04    0.285E-04
RMM:  14    -0.413196304711E+03    0.37013E-05   -0.13057E-07  1263   0.698E-04    0.182E-04
RMM:  15    -0.413196298677E+03    0.60349E-05   -0.10728E-07  1216   0.676E-04    0.997E-05
RMM:  16    -0.413196295631E+03    0.30460E-05   -0.66367E-08  1074   0.623E-04    0.804E-05
RMM:  17    -0.413196291528E+03    0.41027E-05   -0.61961E-08  1152   0.620E-04    0.477E-05
RMM:  18    -0.413196288692E+03    0.28356E-05   -0.43629E-08  1050   0.585E-04    0.257E-05
RMM:  19    -0.413196288108E+03    0.58445E-06   -0.20033E-08   732   0.524E-04
   35 T=    67. E= -.41286667E+03 F= -.41319629E+03 E0= -.41317498E+03  EK= 0.32962E+00 SP= 0.00E+00 SK= 0.00E+00
       N       E                     dE             d eps       ncg     rms          rms(c)
RMM:   1    -0.413196017948E+03    0.27074E-03   -0.10240E+01  4301   0.877E-01    0.936E-01
RMM:   2    -0.413201460370E+03   -0.54424E-02   -0.13213E-01  4262   0.131E-01    0.671E-01
RMM:   3    -0.413198457132E+03    0.30032E-02   -0.13706E-02  4479   0.639E-02    0.111E-01
RMM:   4    -0.413208065411E+03   -0.96083E-02   -0.98902E-03  5172   0.840E-02    0.414E-01
RMM:   5    -0.413198424207E+03    0.96412E-02   -0.49198E-03  4820   0.687E-02    0.429E-02
RMM:   6    -0.413198434474E+03   -0.10267E-04   -0.10027E-03  5763   0.309E-02    0.301E-02
RMM:   7    -0.413198427306E+03    0.71680E-05   -0.30097E-04  5330   0.172E-02    0.182E-02
RMM:   8    -0.413198411456E+03    0.15850E-04   -0.31085E-05  4812   0.677E-03    0.814E-03
RMM:   9    -0.413198408634E+03    0.28220E-05   -0.51803E-06  2947   0.282E-03    0.505E-03
RMM:  10    -0.413198403126E+03    0.55077E-05   -0.14450E-06  2512   0.204E-03    0.265E-03
RMM:  11    -0.413198397455E+03    0.56710E-05   -0.93960E-07  2473   0.161E-03    0.133E-03
RMM:  12    -0.413198392044E+03    0.54119E-05   -0.55514E-07  2353   0.125E-03    0.652E-04
RMM:  13    -0.413198389175E+03    0.28686E-05   -0.27225E-07  1938   0.898E-04    0.329E-04
RMM:  14    -0.413198386376E+03    0.27990E-05   -0.13917E-07  1393   0.709E-04    0.192E-04
RMM:  15    -0.413198381951E+03    0.44248E-05   -0.87841E-08  1143   0.655E-04    0.967E-05
RMM:  16    -0.413198378775E+03    0.31758E-05   -0.59650E-08  1007   0.623E-04    0.700E-05
RMM:  17    -0.413198376201E+03    0.25741E-05   -0.43299E-08   956   0.602E-04    0.474E-05
RMM:  18    -0.413198372141E+03    0.40599E-05   -0.55718E-08  1211   0.624E-04    0.311E-05
RMM:  19    -0.413198371249E+03    0.89282E-06   -0.21309E-08   785   0.537E-04
   36 T=    68. E= -.41286644E+03 F= -.41319837E+03 E0= -.41317711E+03  EK= 0.33193E+00 SP= 0.00E+00 SK= 0.00E+00
       N       E                     dE             d eps       ncg     rms          rms(c)
RMM:   1    -0.413206182938E+03   -0.78108E-02   -0.10385E+01  4303   0.966E-01    0.922E-01
RMM:   2    -0.413205276528E+03    0.90641E-03   -0.14809E-01  4262   0.137E-01    0.681E-01
RMM:   3    -0.413201458078E+03    0.38184E-02   -0.13193E-02  4596   0.605E-02    0.124E-01
RMM:   4    -0.413220244675E+03   -0.18787E-01   -0.19122E-02  5153   0.116E-01    0.575E-01
RMM:   5    -0.413201305556E+03    0.18939E-01   -0.96034E-03  4810   0.955E-02    0.456E-02
RMM:   6    -0.413201324454E+03   -0.18898E-04   -0.16680E-03  5836   0.387E-02    0.292E-02
RMM:   7    -0.413201339484E+03   -0.15031E-04   -0.31783E-04  5525   0.172E-02    0.184E-02
RMM:   8    -0.413201323256E+03    0.16228E-04   -0.53600E-05  4963   0.811E-03    0.882E-03
RMM:   9    -0.413201322168E+03    0.10883E-05   -0.10442E-05  3731   0.394E-03    0.615E-03
RMM:  10    -0.413201319278E+03    0.28903E-05   -0.16560E-06  2547   0.221E-03    0.347E-03
RMM:  11    -0.413201316828E+03    0.24494E-05   -0.98366E-07  2498   0.162E-03    0.193E-03
RMM:  12    -0.413201312531E+03    0.42972E-05   -0.11374E-06  2495   0.167E-03    0.986E-04
RMM:  13    -0.413201310485E+03    0.20464E-05   -0.41448E-07  2205   0.111E-03    0.520E-04
RMM:  14    -0.413201309785E+03    0.69928E-06   -0.19166E-07  1633   0.781E-04
   37 T=    68. E= -.41286676E+03 F= -.41320131E+03 E0= -.41318009E+03  EK= 0.33455E+00 SP= 0.00E+00 SK= 0.00E+00
       N       E                     dE             d eps       ncg     rms          rms(c)
RMM:   1    -0.413219494387E+03   -0.18184E-01   -0.10589E+01  4305   0.106E+00    0.941E-01
RMM:   2    -0.413207952931E+03    0.11541E-01   -0.15898E-01  4259   0.136E-01    0.688E-01
RMM:   3    -0.413204127776E+03    0.38252E-02   -0.12826E-02  4750   0.564E-02    0.154E-01
RMM:   4    -0.413236227871E+03   -0.32100E-01   -0.32933E-02  5148   0.152E-01    0.747E-01
RMM:   5    -0.413203721712E+03    0.32506E-01   -0.16470E-02  4800   0.125E-01    0.506E-02
RMM:   6    -0.413203781275E+03   -0.59563E-04   -0.26488E-03  5845   0.488E-02    0.322E-02
RMM:   7    -0.413203793090E+03   -0.11815E-04   -0.35876E-04  5675   0.179E-02    0.172E-02
RMM:   8    -0.413203783602E+03    0.94876E-05   -0.61585E-05  5025   0.819E-03    0.100E-02
RMM:   9    -0.413203781763E+03    0.18393E-05   -0.19571E-05  4511   0.488E-03    0.735E-03
RMM:  10    -0.413203776119E+03    0.56437E-05   -0.25113E-06  2645   0.255E-03    0.421E-03
RMM:  11    -0.413203772964E+03    0.31551E-05   -0.12266E-06  2498   0.180E-03    0.261E-03
RMM:  12    -0.413203764875E+03    0.80886E-05   -0.17789E-06  2538   0.215E-03    0.130E-03
RMM:  13    -0.413203761177E+03    0.36985E-05   -0.64740E-07  2384   0.142E-03    0.847E-04
RMM:  14    -0.413203760857E+03    0.32017E-06   -0.25382E-07  1986   0.909E-04
   38 T=    69. E= -.41286667E+03 F= -.41320376E+03 E0= -.41318258E+03  EK= 0.33709E+00 SP= 0.00E+00 SK= 0.00E+00
       N       E                     dE             d eps       ncg     rms          rms(c)
RMM:   1    -0.413205664043E+03   -0.19029E-02   -0.10443E+01  4305   0.984E-01    0.953E-01
RMM:   2    -0.413210187998E+03   -0.45240E-02   -0.13725E-01  4264   0.124E-01    0.680E-01
RMM:   3    -0.413206852608E+03    0.33354E-02   -0.14158E-02  4894   0.563E-02    0.153E-01
RMM:   4    -0.413245941556E+03   -0.39089E-01   -0.41305E-02  5134   0.169E-01    0.822E-01
RMM:   5    -0.413206176659E+03    0.39765E-01   -0.19813E-02  4795   0.137E-01    0.543E-02
RMM:   6    -0.413206269470E+03   -0.92812E-04   -0.32461E-03  5830   0.536E-02    0.341E-02
RMM:   7    -0.413206280410E+03   -0.10939E-04   -0.41345E-04  5697   0.189E-02    0.181E-02
RMM:   8    -0.413206269356E+03    0.11053E-04   -0.61088E-05  5005   0.805E-03    0.102E-02
RMM:   9    -0.413206267011E+03    0.23451E-05   -0.22829E-05  4624   0.501E-03    0.799E-03
RMM:  10    -0.413206258859E+03    0.81522E-05   -0.32549E-06  2709   0.279E-03    0.450E-03
RMM:  11    -0.413206254241E+03    0.46178E-05   -0.15507E-06  2513   0.200E-03    0.277E-03
RMM:  12    -0.413206242764E+03    0.11477E-04   -0.19090E-06  2541   0.225E-03    0.130E-03
RMM:  13    -0.413206237882E+03    0.48819E-05   -0.69141E-07  2425   0.149E-03    0.858E-04
RMM:  14    -0.413206237527E+03    0.35491E-06   -0.27478E-07  2073   0.944E-04
   39 T=    69. E= -.41286657E+03 F= -.41320624E+03 E0= -.41318510E+03  EK= 0.33967E+00 SP= 0.00E+00 SK= 0.00E+00
       N       E                     dE             d eps       ncg     rms          rms(c)
RMM:   1    -0.413233244538E+03   -0.27007E-01   -0.10711E+01  4309   0.117E+00    0.930E-01
RMM:   2    -0.413213739930E+03    0.19505E-01   -0.17424E-01  4264   0.139E-01    0.689E-01
RMM:   3    -0.413210218899E+03    0.35210E-02   -0.12270E-02  4968   0.585E-02    0.207E-01
RMM:   4    -0.413264692136E+03   -0.54473E-01   -0.59293E-02  5132   0.203E-01    0.966E-01
RMM:   5    -0.413208997940E+03    0.55694E-01   -0.27509E-02  4785   0.163E-01    0.606E-02
RMM:   6    -0.413209172628E+03   -0.17469E-03   -0.45391E-03  5827   0.629E-02    0.366E-02
RMM:   7    -0.413209189161E+03   -0.16533E-04   -0.54228E-04  5791   0.210E-02    0.212E-02
RMM:   8    -0.413209190534E+03   -0.13728E-05   -0.11651E-04  5233   0.106E-02    0.137E-02
RMM:   9    -0.413209178032E+03    0.12501E-04   -0.30352E-05  4770   0.617E-03    0.745E-03
RMM:  10    -0.413209173768E+03    0.42649E-05   -0.49814E-06  2882   0.305E-03    0.459E-03
RMM:  11    -0.413209170340E+03    0.34274E-05   -0.16901E-06  2508   0.213E-03    0.278E-03
RMM:  12    -0.413209162923E+03    0.74167E-05   -0.17087E-06  2527   0.214E-03    0.997E-04
RMM:  13    -0.413209158627E+03    0.42961E-05   -0.71967E-07  2434   0.148E-03    0.768E-04
RMM:  14    -0.413209158204E+03    0.42344E-06   -0.30299E-07  2108   0.976E-04
   40 T=    70. E= -.41286677E+03 F= -.41320916E+03 E0= -.41318805E+03  EK= 0.34239E+00 SP= 0.00E+00 SK= 0.00E+00
       N       E                     dE             d eps       ncg     rms          rms(c)
RMM:   1    -0.413223364060E+03   -0.14205E-01   -0.10716E+01  4310   0.114E+00    0.946E-01
RMM:   2    -0.413215810847E+03    0.75532E-02   -0.15665E-01  4266   0.141E-01    0.696E-01
RMM:   3    -0.413212821219E+03    0.29896E-02   -0.14578E-02  5003   0.652E-02    0.211E-01
RMM:   4    -0.413265604912E+03   -0.52784E-01   -0.60729E-02  5126   0.206E-01    0.955E-01
RMM:   5    -0.413211047804E+03    0.54557E-01   -0.26215E-02  4780   0.160E-01    0.609E-02
RMM:   6    -0.413211212717E+03   -0.16491E-03   -0.43817E-03  5819   0.620E-02    0.362E-02
RMM:   7    -0.413211228387E+03   -0.15670E-04   -0.53561E-04  5788   0.209E-02    0.215E-02
RMM:   8    -0.413211230693E+03   -0.23063E-05   -0.12125E-04  5246   0.108E-02    0.140E-02
RMM:   9    -0.413211217232E+03    0.13462E-04   -0.28097E-05  4721   0.609E-03    0.709E-03
RMM:  10    -0.413211213287E+03    0.39448E-05   -0.51814E-06  2943   0.305E-03    0.434E-03
RMM:  11    -0.413211210139E+03    0.31479E-05   -0.15622E-06  2503   0.209E-03    0.260E-03
RMM:  12    -0.413211203461E+03    0.66784E-05   -0.14711E-06  2509   0.201E-03    0.957E-04
RMM:  13    -0.413211199351E+03    0.41099E-05   -0.66082E-07  2422   0.141E-03    0.655E-04
RMM:  14    -0.413211198649E+03    0.70138E-06   -0.29182E-07  2077   0.949E-04
   41 T=    70. E= -.41286643E+03 F= -.41321120E+03 E0= -.41319013E+03  EK= 0.34476E+00 SP= 0.00E+00 SK= 0.00E+00
       N       E                     dE             d eps       ncg     rms          rms(c)
RMM:   1    -0.413217611634E+03   -0.64123E-02   -0.10650E+01  4310   0.115E+00    0.967E-01
RMM:   2    -0.413217581660E+03    0.29974E-04   -0.14557E-01  4294   0.134E-01    0.690E-01
RMM:   3    -0.413216671601E+03    0.91006E-03   -0.16358E-02  5066   0.741E-02    0.263E-01
RMM:   4    -0.413257973389E+03   -0.41302E-01   -0.55180E-02  5096   0.197E-01    0.865E-01
RMM:   5    -0.413213571602E+03    0.44402E-01   -0.20114E-02  4756   0.144E-01    0.609E-02
RMM:   6    -0.413213661568E+03   -0.89967E-04   -0.34963E-03  5776   0.560E-02    0.361E-02
RMM:   7    -0.413213669106E+03   -0.75377E-05   -0.48351E-04  5753   0.202E-02    0.222E-02
RMM:   8    -0.413213667387E+03    0.17190E-05   -0.13150E-04  5219   0.116E-02    0.136E-02
RMM:   9    -0.413213651644E+03    0.15743E-04   -0.22630E-05  4530   0.589E-03    0.593E-03
RMM:  10    -0.413213645701E+03    0.59426E-05   -0.50553E-06  2973   0.288E-03    0.371E-03
RMM:  11    -0.413213640395E+03    0.53064E-05   -0.12625E-06  2493   0.194E-03    0.209E-03
RMM:  12    -0.413213630910E+03    0.94855E-05   -0.97403E-07  2471   0.170E-03    0.795E-04
RMM:  13    -0.413213625262E+03    0.56479E-05   -0.46079E-07  2335   0.119E-03    0.439E-04
RMM:  14    -0.413213623599E+03    0.16630E-05   -0.23256E-07  1903   0.852E-04    0.307E-04
RMM:  15    -0.413213619663E+03    0.39353E-05   -0.13106E-07  1425   0.707E-04    0.147E-04
RMM:  16    -0.413213613832E+03    0.58313E-05   -0.97400E-08  1270   0.674E-04    0.158E-04
RMM:  17    -0.413213610675E+03    0.31575E-05   -0.60043E-08  1067   0.620E-04    0.103E-04
RMM:  18    -0.413213606707E+03    0.39681E-05   -0.58174E-08  1231   0.627E-04    0.723E-05
RMM:  19    -0.413213603827E+03    0.28795E-05   -0.41072E-08  1109   0.592E-04    0.420E-05
RMM:  20    -0.413213603118E+03    0.70952E-06   -0.20232E-08   816   0.537E-04
   42 T=    71. E= -.41286650E+03 F= -.41321360E+03 E0= -.41319256E+03  EK= 0.34710E+00 SP= 0.00E+00 SK= 0.00E+00
       N       E                     dE             d eps       ncg     rms          rms(c)
RMM:   1    -0.413244263741E+03   -0.30660E-01   -0.10859E+01  4310   0.133E+00    0.944E-01
RMM:   2    -0.413219722009E+03    0.24542E-01   -0.17215E-01  4299   0.148E-01    0.692E-01
RMM:   3    -0.413219976904E+03   -0.25490E-03   -0.15688E-02  5074   0.811E-02    0.322E-01
RMM:   4    -0.413258400356E+03   -0.38423E-01   -0.57166E-02  5095   0.202E-01    0.852E-01
RMM:   5    -0.413215521184E+03    0.42879E-01   -0.18924E-02  4734   0.142E-01    0.631E-02
RMM:   6    -0.413215589785E+03   -0.68601E-04   -0.33317E-03  5742   0.549E-02    0.360E-02
RMM:   7    -0.413215594976E+03   -0.51914E-05   -0.49516E-04  5784   0.202E-02    0.238E-02
RMM:   8    -0.413215592779E+03    0.21968E-05   -0.13067E-04  5191   0.118E-02    0.126E-02
RMM:   9    -0.413215580526E+03    0.12254E-04   -0.21744E-05  4515   0.585E-03    0.496E-03
RMM:  10    -0.413215577344E+03    0.31814E-05   -0.46968E-06  2891   0.270E-03    0.316E-03
RMM:  11    -0.413215573597E+03    0.37476E-05   -0.13145E-06  2496   0.189E-03    0.172E-03
RMM:  12    -0.413215568299E+03    0.52976E-05   -0.77104E-07  2452   0.150E-03    0.656E-04
RMM:  13    -0.413215565106E+03    0.31934E-05   -0.38456E-07  2140   0.106E-03    0.307E-04
RMM:  14    -0.413215563037E+03    0.20686E-05   -0.20692E-07  1682   0.812E-04    0.204E-04
RMM:  15    -0.413215559229E+03    0.38085E-05   -0.13830E-07  1350   0.719E-04    0.112E-04
RMM:  16    -0.413215556769E+03    0.24599E-05   -0.87388E-08  1159   0.660E-04    0.836E-05
RMM:  17    -0.413215554209E+03    0.25598E-05   -0.68729E-08  1151   0.642E-04    0.507E-05
RMM:  18    -0.413215551582E+03    0.26265E-05   -0.55215E-08  1152   0.622E-04    0.351E-05
RMM:  19    -0.413215549839E+03    0.17438E-05   -0.34746E-08   970   0.579E-04    0.246E-05
RMM:  20    -0.413215549302E+03    0.53648E-06   -0.18740E-08   784   0.547E-04
   43 T=    71. E= -.41286650E+03 F= -.41321555E+03 E0= -.41319454E+03  EK= 0.34905E+00 SP= 0.00E+00 SK= 0.00E+00
       N       E                     dE             d eps       ncg     rms          rms(c)
RMM:   1    -0.413227326713E+03   -0.11777E-01   -0.10781E+01  4310   0.130E+00    0.949E-01
RMM:   2    -0.413221058982E+03    0.62677E-02   -0.15692E-01  4300   0.157E-01    0.703E-01
RMM:   3    -0.413222343122E+03   -0.12841E-02   -0.18793E-02  5075   0.918E-02    0.342E-01
RMM:   4    -0.413255320248E+03   -0.32977E-01   -0.55146E-02  5069   0.200E-01    0.808E-01
RMM:   5    -0.413216619279E+03    0.38701E-01   -0.16167E-02  4715   0.134E-01    0.608E-02
RMM:   6    -0.413216660691E+03   -0.41412E-04   -0.29426E-03  5727   0.516E-02    0.347E-02
RMM:   7    -0.413216661778E+03   -0.10865E-05   -0.43618E-04  5740   0.195E-02    0.227E-02
RMM:   8    -0.413216659197E+03    0.25801E-05   -0.11950E-04  5173   0.114E-02    0.117E-02
RMM:   9    -0.413216648740E+03    0.10457E-04   -0.18722E-05  4389   0.554E-03    0.471E-03
RMM:  10    -0.413216646446E+03    0.22947E-05   -0.38530E-06  2788   0.255E-03    0.296E-03
RMM:  11    -0.413216643644E+03    0.28020E-05   -0.12721E-06  2499   0.185E-03    0.159E-03
RMM:  12    -0.413216639588E+03    0.40553E-05   -0.78402E-07  2440   0.147E-03    0.631E-04
RMM:  13    -0.413216637089E+03    0.24991E-05   -0.38590E-07  2090   0.104E-03    0.292E-04
RMM:  14    -0.413216635308E+03    0.17807E-05   -0.21268E-07  1599   0.800E-04    0.187E-04
RMM:  15    -0.413216631671E+03    0.36375E-05   -0.15913E-07  1360   0.730E-04    0.120E-04
RMM:  16    -0.413216629925E+03    0.17456E-05   -0.92316E-08  1112   0.658E-04    0.813E-05
RMM:  17    -0.413216627578E+03    0.23475E-05   -0.76972E-08  1156   0.649E-04    0.476E-05
RMM:  18    -0.413216625293E+03    0.22853E-05   -0.61008E-08  1135   0.624E-04    0.345E-05
RMM:  19    -0.413216623822E+03    0.14708E-05   -0.36013E-08   915   0.579E-04    0.217E-05
RMM:  20    -0.413216623205E+03    0.61693E-06   -0.22326E-08   785   0.556E-04
   44 T=    71. E= -.41286629E+03 F= -.41321662E+03 E0= -.41319564E+03  EK= 0.35033E+00 SP= 0.00E+00 SK= 0.00E+00
       N       E                     dE             d eps       ncg     rms          rms(c)
RMM:   1    -0.413249648278E+03   -0.33024E-01   -0.10966E+01  4309   0.147E+00    0.973E-01
RMM:   2    -0.413221675815E+03    0.27972E-01   -0.16901E-01  4320   0.167E-01    0.700E-01
RMM:   3    -0.413226728319E+03   -0.50525E-02   -0.20610E-02  5113   0.105E-01    0.429E-01
RMM:   4    -0.413244557421E+03   -0.17829E-01   -0.47210E-02  5056   0.187E-01    0.680E-01
RMM:   5    -0.413217863730E+03    0.26694E-01   -0.10360E-02  4667   0.114E-01    0.598E-02
RMM:   6    -0.413217839119E+03    0.24612E-04   -0.20407E-03  5618   0.439E-02    0.345E-02
RMM:   7    -0.413217834986E+03    0.41326E-05   -0.35419E-04  5641   0.182E-02    0.227E-02
RMM:   8    -0.413217826887E+03    0.80989E-05   -0.12183E-04  5085   0.117E-02    0.108E-02
RMM:   9    -0.413217813608E+03    0.13279E-04   -0.16407E-05  4335   0.553E-03    0.434E-03
RMM:  10    -0.413217809836E+03    0.37724E-05   -0.31228E-06  2744   0.235E-03    0.256E-03
RMM:  11    -0.413217804000E+03    0.58355E-05   -0.11784E-06  2482   0.180E-03    0.139E-03
RMM:  12    -0.413217797936E+03    0.60645E-05   -0.62073E-07  2429   0.136E-03    0.647E-04
RMM:  13    -0.413217794214E+03    0.37216E-05   -0.29968E-07  1911   0.940E-04    0.296E-04
RMM:  14    -0.413217790812E+03    0.34020E-05   -0.17144E-07  1478   0.746E-04    0.168E-04
RMM:  15    -0.413217785831E+03    0.49811E-05   -0.12640E-07  1294   0.699E-04    0.122E-04
RMM:  16    -0.413217782878E+03    0.29527E-05   -0.83916E-08  1166   0.649E-04    0.939E-05
RMM:  17    -0.413217778018E+03    0.48602E-05   -0.85561E-08  1362   0.661E-04    0.664E-05
RMM:  18    -0.413217776084E+03    0.19346E-05   -0.44692E-08  1000   0.573E-04    0.429E-05
RMM:  19    -0.413217774383E+03    0.17001E-05   -0.32905E-08   938   0.556E-04    0.225E-05
RMM:  20    -0.413217774080E+03    0.30344E-06   -0.17511E-08   732   0.519E-04
   45 T=    71. E= -.41286668E+03 F= -.41321777E+03 E0= -.41319681E+03  EK= 0.35109E+00 SP= 0.00E+00 SK= 0.00E+00
       N       E                     dE             d eps       ncg     rms          rms(c)
RMM:   1    -0.413256257555E+03   -0.38483E-01   -0.10916E+01  4308   0.158E+00    0.952E-01
RMM:   2    -0.413221374666E+03    0.34883E-01   -0.18142E-01  4337   0.183E-01    0.695E-01
RMM:   3    -0.413228530306E+03   -0.71556E-02   -0.21301E-02  5118   0.113E-01    0.482E-01
RMM:   4    -0.413240090928E+03   -0.11561E-01   -0.45388E-02  5038   0.185E-01    0.632E-01
RMM:   5    -0.413217438231E+03    0.22653E-01   -0.85938E-03  4621   0.108E-01    0.597E-02
RMM:   6    -0.413217395633E+03    0.42598E-04   -0.17305E-03  5494   0.408E-02    0.336E-02
RMM:   7    -0.413217389911E+03    0.57215E-05   -0.31337E-04  5635   0.172E-02    0.228E-02
RMM:   8    -0.413217381037E+03    0.88741E-05   -0.12852E-04  5082   0.118E-02    0.106E-02
RMM:   9    -0.413217367639E+03    0.13398E-04   -0.16952E-05  4353   0.567E-03    0.423E-03
RMM:  10    -0.413217364526E+03    0.31134E-05   -0.29619E-06  2731   0.229E-03    0.244E-03
RMM:  11    -0.413217359034E+03    0.54918E-05   -0.12903E-06  2493   0.183E-03    0.135E-03
RMM:  12    -0.413217354344E+03    0.46905E-05   -0.59809E-07  2433   0.134E-03    0.695E-04
RMM:  13    -0.413217350869E+03    0.34750E-05   -0.28844E-07  1857   0.919E-04    0.326E-04
RMM:  14    -0.413217347361E+03    0.35078E-05   -0.16482E-07  1400   0.731E-04    0.175E-04
RMM:  15    -0.413217343496E+03    0.38653E-05   -0.11846E-07  1254   0.682E-04    0.118E-04
RMM:  16    -0.413217340591E+03    0.29049E-05   -0.82341E-08  1140   0.642E-04    0.100E-04
RMM:  17    -0.413217336260E+03    0.43306E-05   -0.82967E-08  1312   0.655E-04    0.656E-05
RMM:  18    -0.413217334280E+03    0.19803E-05   -0.45067E-08  1016   0.574E-04    0.493E-05
RMM:  19    -0.413217333073E+03    0.12065E-05   -0.27733E-08   841   0.538E-04    0.282E-05
RMM:  20    -0.413217332490E+03    0.58356E-06   -0.17233E-08   734   0.522E-04
   46 T=    71. E= -.41286665E+03 F= -.41321733E+03 E0= -.41319638E+03  EK= 0.35068E+00 SP= 0.00E+00 SK= 0.00E+00
       N       E                     dE             d eps       ncg     rms          rms(c)
RMM:   1    -0.413236837861E+03   -0.19505E-01   -0.10734E+01  4309   0.156E+00    0.942E-01
RMM:   2    -0.413220454124E+03    0.16384E-01   -0.17503E-01  4352   0.188E-01    0.705E-01
RMM:   3    -0.413229575057E+03   -0.91209E-02   -0.24084E-02  5107   0.125E-01    0.518E-01
RMM:   4    -0.413237568732E+03   -0.79937E-02   -0.47003E-02  5026   0.190E-01    0.612E-01
RMM:   5    -0.413216045878E+03    0.21523E-01   -0.76850E-03  4607   0.105E-01    0.591E-02
RMM:   6    -0.413215984098E+03    0.61781E-04   -0.15494E-03  5430   0.390E-02    0.320E-02
RMM:   7    -0.413215978868E+03    0.52300E-05   -0.28307E-04  5639   0.165E-02    0.219E-02
RMM:   8    -0.413215968400E+03    0.10467E-04   -0.13112E-04  5093   0.119E-02    0.104E-02
RMM:   9    -0.413215956308E+03    0.12092E-04   -0.16333E-05  4307   0.565E-03    0.416E-03
RMM:  10    -0.413215954204E+03    0.21042E-05   -0.29986E-06  2731   0.229E-03    0.239E-03
RMM:  11    -0.413215950393E+03    0.38110E-05   -0.13146E-06  2494   0.185E-03    0.130E-03
RMM:  12    -0.413215947296E+03    0.30971E-05   -0.61693E-07  2411   0.135E-03    0.700E-04
RMM:  13    -0.413215944675E+03    0.26211E-05   -0.31337E-07  1858   0.941E-04    0.337E-04
RMM:  14    -0.413215942039E+03    0.26356E-05   -0.18030E-07  1413   0.745E-04    0.172E-04
RMM:  15    -0.413215939236E+03    0.28034E-05   -0.13136E-07  1258   0.690E-04    0.113E-04
RMM:  16    -0.413215937106E+03    0.21293E-05   -0.91363E-08  1196   0.647E-04    0.960E-05
RMM:  17    -0.413215934053E+03    0.30528E-05   -0.85883E-08  1266   0.644E-04    0.534E-05
RMM:  18    -0.413215932224E+03    0.18295E-05   -0.50231E-08  1013   0.580E-04    0.449E-05
RMM:  19    -0.413215931465E+03    0.75912E-06   -0.27725E-08   812   0.536E-04
   47 T=    71. E= -.41286678E+03 F= -.41321593E+03 E0= -.41319500E+03  EK= 0.34916E+00 SP= 0.00E+00 SK= 0.00E+00
       N       E                     dE             d eps       ncg     rms          rms(c)
RMM:   1    -0.413240066259E+03   -0.24134E-01   -0.10669E+01  4303   0.169E+00    0.962E-01
RMM:   2    -0.413217461525E+03    0.22605E-01   -0.17063E-01  4404   0.199E-01    0.700E-01
RMM:   3    -0.413234383582E+03   -0.16922E-01   -0.30698E-02  5142   0.146E-01    0.632E-01
RMM:   4    -0.413226250036E+03    0.81335E-02   -0.42417E-02  4981   0.184E-01    0.481E-01
RMM:   5    -0.413213510491E+03    0.12740E-01   -0.45896E-03  4543   0.900E-02    0.585E-02
RMM:   6    -0.413213392318E+03    0.11817E-03   -0.71092E-04  4892   0.303E-02    0.307E-02
RMM:   7    -0.413213375491E+03    0.16827E-04   -0.17790E-04  5830   0.131E-02    0.126E-02
RMM:   8    -0.413213369160E+03    0.63310E-05   -0.43567E-05  5191   0.761E-03    0.712E-03
RMM:   9    -0.413213363385E+03    0.57751E-05   -0.78193E-06  3440   0.351E-03    0.389E-03
RMM:  10    -0.413213361358E+03    0.20265E-05   -0.20152E-06  2569   0.227E-03    0.231E-03
RMM:  11    -0.413213355246E+03    0.61126E-05   -0.12953E-06  2465   0.190E-03    0.147E-03
RMM:  12    -0.413213352034E+03    0.32119E-05   -0.47342E-07  2373   0.125E-03    0.867E-04
RMM:  13    -0.413213347637E+03    0.43970E-05   -0.26508E-07  2008   0.917E-04    0.476E-04
RMM:  14    -0.413213342864E+03    0.47725E-05   -0.15592E-07  1403   0.715E-04    0.281E-04
RMM:  15    -0.413213339033E+03    0.38316E-05   -0.92829E-08  1028   0.612E-04    0.121E-04
RMM:  16    -0.413213336091E+03    0.29413E-05   -0.67545E-08  1009   0.592E-04    0.867E-05
RMM:  17    -0.413213332547E+03    0.35443E-05   -0.62290E-08  1095   0.598E-04    0.787E-05
RMM:  18    -0.413213330300E+03    0.22467E-05   -0.40086E-08   971   0.559E-04    0.483E-05
RMM:  19    -0.413213328794E+03    0.15064E-05   -0.24089E-08   777   0.517E-04    0.311E-05
RMM:  20    -0.413213327811E+03    0.98276E-06   -0.17034E-08   686   0.499E-04
   48 T=    70. E= -.41286709E+03 F= -.41321333E+03 E0= -.41319240E+03  EK= 0.34624E+00 SP= 0.00E+00 SK= 0.00E+00
       N       E                     dE             d eps       ncg     rms          rms(c)
RMM:   1    -0.413239538867E+03   -0.26210E-01   -0.10472E+01  4303   0.182E+00    0.949E-01
RMM:   2    -0.413212151045E+03    0.27388E-01   -0.17015E-01  4470   0.209E-01    0.688E-01
RMM:   3    -0.413236603377E+03   -0.24452E-01   -0.36556E-02  5153   0.164E-01    0.729E-01
RMM:   4    -0.413216808806E+03    0.19795E-01   -0.41414E-02  4954   0.185E-01    0.401E-01
RMM:   5    -0.413208428949E+03    0.83799E-02   -0.41223E-03  4626   0.880E-02    0.646E-02
RMM:   6    -0.413208239290E+03    0.18966E-03   -0.44448E-04  4656   0.291E-02    0.332E-02
RMM:   7    -0.413208247783E+03   -0.84925E-05   -0.31525E-04  5745   0.187E-02    0.251E-02
RMM:   8    -0.413208210050E+03    0.37733E-04   -0.10210E-04  4997   0.116E-02    0.983E-03
RMM:   9    -0.413208203607E+03    0.64425E-05   -0.22963E-05  5192   0.597E-03    0.490E-03
RMM:  10    -0.413208199574E+03    0.40334E-05   -0.26415E-06  2666   0.250E-03    0.268E-03
RMM:  11    -0.413208193779E+03    0.57949E-05   -0.15813E-06  2501   0.205E-03    0.196E-03
RMM:  12    -0.413208189962E+03    0.38173E-05   -0.46577E-07  2418   0.128E-03    0.103E-03
RMM:  13    -0.413208185829E+03    0.41323E-05   -0.25836E-07  2017   0.876E-04    0.491E-04
RMM:  14    -0.413208180379E+03    0.54506E-05   -0.23285E-07  1818   0.814E-04    0.371E-04
RMM:  15    -0.413208175454E+03    0.49244E-05   -0.11991E-07  1150   0.648E-04    0.152E-04
RMM:  16    -0.413208172706E+03    0.27482E-05   -0.73208E-08  1051   0.602E-04    0.904E-05
RMM:  17    -0.413208168914E+03    0.37924E-05   -0.69523E-08  1133   0.612E-04    0.635E-05
RMM:  18    -0.413208167094E+03    0.18201E-05   -0.41081E-08   979   0.563E-04    0.535E-05
RMM:  19    -0.413208165483E+03    0.16110E-05   -0.31079E-08   913   0.541E-04    0.334E-05
RMM:  20    -0.413208164538E+03    0.94428E-06   -0.21881E-08   814   0.517E-04
   49 T=    69. E= -.41286688E+03 F= -.41320816E+03 E0= -.41318725E+03  EK= 0.34129E+00 SP= 0.00E+00 SK= 0.00E+00
       N       E                     dE             d eps       ncg     rms          rms(c)
RMM:   1    -0.413229563708E+03   -0.21398E-01   -0.10240E+01  4303   0.188E+00    0.921E-01
RMM:   2    -0.413206083233E+03    0.23480E-01   -0.16914E-01  4496   0.218E-01    0.690E-01
RMM:   3    -0.413232561276E+03   -0.26478E-01   -0.38428E-02  5154   0.171E-01    0.759E-01
RMM:   4    -0.413209849318E+03    0.22712E-01   -0.42892E-02  4946   0.190E-01    0.391E-01
RMM:   5    -0.413201784114E+03    0.80652E-02   -0.44974E-03  4726   0.918E-02    0.695E-02
RMM:   6    -0.413201548170E+03    0.23594E-03   -0.47137E-04  4631   0.308E-02    0.338E-02
RMM:   7    -0.413201557034E+03   -0.88636E-05   -0.30739E-04  5731   0.187E-02    0.254E-02
RMM:   8    -0.413201522517E+03    0.34517E-04   -0.97334E-05  5017   0.113E-02    0.107E-02
RMM:   9    -0.413201517210E+03    0.53069E-05   -0.24020E-05  5215   0.611E-03    0.472E-03
RMM:  10    -0.413201513943E+03    0.32673E-05   -0.30496E-06  2721   0.256E-03    0.277E-03
[...]
RMM:   8    -0.413160419636E+03   -0.40411E-05   -0.54445E-05  5194   0.844E-03    0.824E-03
RMM:   9    -0.413160421035E+03   -0.13987E-05   -0.71917E-06  3069   0.344E-03    0.373E-03
RMM:  10    -0.413160423643E+03   -0.26077E-05   -0.16231E-06  2554   0.197E-03    0.233E-03
RMM:  11    -0.413160427329E+03   -0.36862E-05   -0.16344E-06  2531   0.174E-03    0.126E-03
RMM:  12    -0.413160428622E+03   -0.12931E-05   -0.76690E-07  2385   0.127E-03    0.521E-04
RMM:  13    -0.413160429430E+03   -0.80845E-06   -0.50518E-07  1977   0.989E-04
  138 T=    60. E= -.41286709E+03 F= -.41316043E+03 E0= -.41313972E+03  EK= 0.29334E+00 SP= 0.00E+00 SK= 0.00E+00
       N       E                     dE             d eps       ncg     rms          rms(c)
RMM:   1    -0.413167182384E+03   -0.67538E-02   -0.59704E+00  4264   0.655E-01    0.856E-01
RMM:   2    -0.413165511603E+03    0.16708E-02   -0.76301E-02  4330   0.760E-02    0.618E-01
RMM:   3    -0.413163607107E+03    0.19045E-02   -0.39155E-02  5155   0.736E-02    0.287E-01
RMM:   4    -0.413180065875E+03   -0.16459E-01   -0.29077E-02  5084   0.146E-01    0.598E-01
RMM:   5    -0.413159826101E+03    0.20240E-01   -0.94999E-03  4725   0.101E-01    0.501E-02
RMM:   6    -0.413159807231E+03    0.18870E-04   -0.15711E-03  5489   0.393E-02    0.284E-02
RMM:   7    -0.413159827091E+03   -0.19860E-04   -0.27817E-04  5830   0.154E-02    0.186E-02
RMM:   8    -0.413159827577E+03   -0.48575E-06   -0.53041E-05  5190   0.828E-03    0.825E-03
RMM:   9    -0.413159828754E+03   -0.11770E-05   -0.73300E-06  3077   0.337E-03    0.377E-03
RMM:  10    -0.413159831433E+03   -0.26790E-05   -0.17938E-06  2561   0.199E-03    0.236E-03
RMM:  11    -0.413159834592E+03   -0.31591E-05   -0.16067E-06  2530   0.172E-03    0.122E-03
RMM:  12    -0.413159835961E+03   -0.13697E-05   -0.89978E-07  2403   0.132E-03    0.518E-04
RMM:  13    -0.413159836478E+03   -0.51671E-06   -0.46182E-07  1917   0.970E-04
  139 T=    60. E= -.41286671E+03 F= -.41315984E+03 E0= -.41313913E+03  EK= 0.29313E+00 SP= 0.00E+00 SK= 0.00E+00
       N       E                     dE             d eps       ncg     rms          rms(c)
RMM:   1    -0.413168279990E+03   -0.84440E-02   -0.59727E+00  4264   0.660E-01    0.848E-01
RMM:   2    -0.413167012485E+03    0.12675E-02   -0.75466E-02  4320   0.768E-02    0.622E-01
RMM:   3    -0.413164618635E+03    0.23938E-02   -0.43438E-02  5125   0.748E-02    0.306E-01
RMM:   4    -0.413180983382E+03   -0.16365E-01   -0.27850E-02  5087   0.142E-01    0.599E-01
RMM:   5    -0.413160885549E+03    0.20098E-01   -0.10021E-02  4721   0.102E-01    0.486E-02
RMM:   6    -0.413160890438E+03   -0.48893E-05   -0.15917E-03  5517   0.392E-02    0.270E-02
RMM:   7    -0.413160932654E+03   -0.42216E-04   -0.27161E-04  5830   0.149E-02    0.175E-02
RMM:   8    -0.413160943824E+03   -0.11171E-04   -0.49959E-05  5183   0.786E-03    0.767E-03
RMM:   9    -0.413160949157E+03   -0.53326E-05   -0.66968E-06  3053   0.322E-03    0.371E-03
RMM:  10    -0.413160956989E+03   -0.78323E-05   -0.18453E-06  2557   0.197E-03    0.230E-03
RMM:  11    -0.413160965892E+03   -0.89024E-05   -0.15088E-06  2509   0.162E-03    0.110E-03
RMM:  12    -0.413160972054E+03   -0.61624E-05   -0.98375E-07  2383   0.129E-03    0.479E-04
RMM:  13    -0.413160974686E+03   -0.26317E-05   -0.44341E-07  1855   0.936E-04    0.336E-04
RMM:  14    -0.413160977178E+03   -0.24919E-05   -0.38223E-07  1521   0.839E-04    0.197E-04
RMM:  15    -0.413160979587E+03   -0.24096E-05   -0.50070E-07  1680   0.865E-04    0.195E-04
RMM:  16    -0.413160980470E+03   -0.88279E-06   -0.31660E-07  1412   0.743E-04
  140 T=    60. E= -.41286702E+03 F= -.41316098E+03 E0= -.41314028E+03  EK= 0.29396E+00 SP= 0.00E+00 SK= 0.00E+00
       N       E                     dE             d eps       ncg     rms          rms(c)
RMM:   1    -0.413168973371E+03   -0.79938E-02   -0.59498E+00  4264   0.658E-01    0.860E-01
RMM:   2    -0.413167126286E+03    0.18471E-02   -0.75298E-02  4324   0.774E-02    0.624E-01
RMM:   3    -0.413164319452E+03    0.28068E-02   -0.41277E-02  5080   0.730E-02    0.280E-01
RMM:   4    -0.413182187157E+03   -0.17868E-01   -0.28137E-02  5090   0.143E-01    0.610E-01
RMM:   5    -0.413161109230E+03    0.21078E-01   -0.10281E-02  4728   0.104E-01    0.492E-02
RMM:   6    -0.413161107295E+03    0.19344E-05   -0.16699E-03  5526   0.403E-02    0.277E-02
RMM:   7    -0.413161143058E+03   -0.35763E-04   -0.28013E-04  5823   0.153E-02    0.179E-02
RMM:   8    -0.413161149781E+03   -0.67225E-05   -0.50705E-05  5203   0.792E-03    0.789E-03
RMM:   9    -0.413161152374E+03   -0.25937E-05   -0.71673E-06  3091   0.328E-03    0.375E-03
RMM:  10    -0.413161157255E+03   -0.48803E-05   -0.19048E-06  2559   0.200E-03    0.235E-03
RMM:  11    -0.413161162594E+03   -0.53391E-05   -0.14260E-06  2498   0.163E-03    0.115E-03
RMM:  12    -0.413161166251E+03   -0.36577E-05   -0.92684E-07  2402   0.130E-03    0.498E-04
RMM:  13    -0.413161167626E+03   -0.13743E-05   -0.39093E-07  1853   0.926E-04    0.337E-04
RMM:  14    -0.413161168902E+03   -0.12764E-05   -0.32161E-07  1507   0.818E-04    0.190E-04
RMM:  15    -0.413161169991E+03   -0.10887E-05   -0.40250E-07  1530   0.825E-04    0.166E-04
RMM:  16    -0.413161170246E+03   -0.25587E-06   -0.25692E-07  1341   0.732E-04
  141 T=    60. E= -.41286701E+03 F= -.41316117E+03 E0= -.41314048E+03  EK= 0.29416E+00 SP= 0.00E+00 SK= 0.00E+00
       N       E                     dE             d eps       ncg     rms          rms(c)
RMM:   1    -0.413168290411E+03   -0.71204E-02   -0.59564E+00  4264   0.663E-01    0.861E-01
RMM:   2    -0.413166357368E+03    0.19330E-02   -0.75436E-02  4327   0.775E-02    0.619E-01
RMM:   3    -0.413162916289E+03    0.34411E-02   -0.38251E-02  5065   0.679E-02    0.239E-01
RMM:   4    -0.413182988319E+03   -0.20072E-01   -0.27850E-02  5099   0.142E-01    0.625E-01
RMM:   5    -0.413160575566E+03    0.22413E-01   -0.10793E-02  4761   0.106E-01    0.496E-02
RMM:   6    -0.413160570926E+03    0.46404E-05   -0.17932E-03  5572   0.417E-02    0.289E-02
RMM:   7    -0.413160581367E+03   -0.10441E-04   -0.29809E-04  5801   0.159E-02    0.183E-02
RMM:   8    -0.413160581508E+03   -0.14116E-06   -0.51123E-05  5196   0.804E-03    0.809E-03
RMM:   9    -0.413160582008E+03   -0.49941E-06   -0.78505E-06  3160   0.336E-03
  142 T=    60. E= -.41286666E+03 F= -.41316058E+03 E0= -.41313990E+03  EK= 0.29392E+00 SP= 0.00E+00 SK= 0.00E+00
       N       E                     dE             d eps       ncg     rms          rms(c)
RMM:   1    -0.413168384243E+03   -0.78027E-02   -0.60763E+00  4267   0.674E-01    0.843E-01
RMM:   2    -0.413167655811E+03    0.72843E-03   -0.75560E-02  4336   0.798E-02    0.618E-01
RMM:   3    -0.413166524090E+03    0.11317E-02   -0.41120E-02  5130   0.840E-02    0.329E-01
RMM:   4    -0.413180037902E+03   -0.13514E-01   -0.28541E-02  5062   0.145E-01    0.576E-01
RMM:   5    -0.413161622693E+03    0.18415E-01   -0.89150E-03  4715   0.982E-02    0.522E-02
RMM:   6    -0.413161578974E+03    0.43719E-04   -0.14126E-03  5362   0.376E-02    0.271E-02
RMM:   7    -0.413161620071E+03   -0.41098E-04   -0.27407E-04  5939   0.153E-02    0.175E-02
RMM:   8    -0.413161630230E+03   -0.10158E-04   -0.51881E-05  5248   0.818E-03    0.786E-03
RMM:   9    -0.413161636236E+03   -0.60061E-05   -0.73325E-06  3105   0.344E-03    0.364E-03
RMM:  10    -0.413161642196E+03   -0.59598E-05   -0.15514E-06  2534   0.197E-03    0.230E-03
RMM:  11    -0.413161652986E+03   -0.10790E-04   -0.19074E-06  2545   0.182E-03    0.132E-03
RMM:  12    -0.413161656788E+03   -0.38019E-05   -0.70188E-07  2389   0.126E-03    0.567E-04
RMM:  13    -0.413161661065E+03   -0.42769E-05   -0.56763E-07  1986   0.100E-03    0.341E-04
RMM:  14    -0.413161664723E+03   -0.36583E-05   -0.51946E-07  1702   0.887E-04    0.238E-04
RMM:  15    -0.413161667296E+03   -0.25726E-05   -0.48224E-07  1665   0.848E-04    0.197E-04
RMM:  16    -0.413161668287E+03   -0.99084E-06   -0.27637E-07  1380   0.709E-04
  143 T=    60. E= -.41286692E+03 F= -.41316167E+03 E0= -.41314099E+03  EK= 0.29475E+00 SP= 0.00E+00 SK= 0.00E+00
       N       E                     dE             d eps       ncg     rms          rms(c)
RMM:   1    -0.413168202072E+03   -0.65348E-02   -0.62652E+00  4264   0.684E-01    0.851E-01
RMM:   2    -0.413167581453E+03    0.62062E-03   -0.77043E-02  4336   0.777E-02    0.623E-01
RMM:   3    -0.413163029511E+03    0.45519E-02   -0.36933E-02  4980   0.597E-02    0.213E-01
RMM:   4    -0.413180189323E+03   -0.17160E-01   -0.21048E-02  5116   0.123E-01    0.570E-01
RMM:   5    -0.413161585082E+03    0.18604E-01   -0.91843E-03  4791   0.960E-02    0.465E-02
RMM:   6    -0.413161603381E+03   -0.18299E-04   -0.15821E-03  5618   0.391E-02    0.293E-02
RMM:   7    -0.413161628336E+03   -0.24955E-04   -0.27688E-04  5705   0.152E-02    0.170E-02
RMM:   8    -0.413161635497E+03   -0.71605E-05   -0.42229E-05  5068   0.705E-03    0.753E-03
RMM:   9    -0.413161639626E+03   -0.41295E-05   -0.63736E-06  3070   0.300E-03    0.401E-03
RMM:  10    -0.413161648074E+03   -0.84480E-05   -0.19406E-06  2549   0.202E-03    0.237E-03
RMM:  11    -0.413161655120E+03   -0.70455E-05   -0.11595E-06  2493   0.154E-03    0.108E-03
RMM:  12    -0.413161661215E+03   -0.60949E-05   -0.91125E-07  2358   0.127E-03    0.556E-04
RMM:  13    -0.413161664226E+03   -0.30109E-05   -0.43371E-07  1950   0.955E-04    0.331E-04
RMM:  14    -0.413161666094E+03   -0.18680E-05   -0.25636E-07  1463   0.785E-04    0.195E-04
RMM:  15    -0.413161668915E+03   -0.28220E-05   -0.40968E-07  1682   0.844E-04    0.193E-04
RMM:  16    -0.413161670225E+03   -0.13099E-05   -0.24945E-07  1419   0.721E-04    0.144E-04
RMM:  17    -0.413161670497E+03   -0.27139E-06   -0.10717E-07  1043   0.595E-04
  144 T=    60. E= -.41286663E+03 F= -.41316167E+03 E0= -.41314100E+03  EK= 0.29504E+00 SP= 0.00E+00 SK= 0.00E+00
       N       E                     dE             d eps       ncg     rms          rms(c)
RMM:   1    -0.413167583846E+03   -0.59136E-02   -0.64234E+00  4264   0.695E-01    0.860E-01
RMM:   2    -0.413166787276E+03    0.79657E-03   -0.78705E-02  4336   0.812E-02    0.618E-01
RMM:   3    -0.413162164443E+03    0.46228E-02   -0.31187E-02  4940   0.503E-02    0.146E-01
RMM:   4    -0.413173383753E+03   -0.11219E-01   -0.12890E-02  5135   0.971E-02    0.458E-01
RMM:   5    -0.413161441725E+03    0.11942E-01   -0.59692E-03  4819   0.767E-02    0.444E-02
RMM:   6    -0.413161457789E+03   -0.16064E-04   -0.11545E-03  5582   0.339E-02    0.312E-02
RMM:   7    -0.413161465850E+03   -0.80616E-05   -0.24223E-04  5472   0.147E-02    0.166E-02
RMM:   8    -0.413161466473E+03   -0.62292E-06   -0.36157E-05  4955   0.666E-03    0.754E-03
RMM:   9    -0.413161467523E+03   -0.10494E-05   -0.52450E-06  2915   0.272E-03    0.400E-03
RMM:  10    -0.413161471153E+03   -0.36302E-05   -0.19306E-06  2542   0.204E-03    0.220E-03
RMM:  11    -0.413161473624E+03   -0.24709E-05   -0.10994E-06  2498   0.152E-03    0.100E-03
RMM:  12    -0.413161475382E+03   -0.17581E-05   -0.77594E-07  2285   0.122E-03    0.528E-04
RMM:  13    -0.413161476446E+03   -0.10637E-05   -0.50314E-07  2008   0.976E-04    0.315E-04
RMM:  14    -0.413161476905E+03   -0.45915E-06   -0.25593E-07  1457   0.778E-04
  145 T=    60. E= -.41286679E+03 F= -.41316148E+03 E0= -.41314082E+03  EK= 0.29469E+00 SP= 0.00E+00 SK= 0.00E+00
       N       E                     dE             d eps       ncg     rms          rms(c)
RMM:   1    -0.413166796695E+03   -0.53202E-02   -0.66289E+00  4265   0.710E-01    0.837E-01
RMM:   2    -0.413167147374E+03   -0.35068E-03   -0.79963E-02  4337   0.791E-02    0.612E-01
RMM:   3    -0.413162608115E+03    0.45393E-02   -0.29702E-02  4833   0.477E-02    0.141E-01
RMM:   4    -0.413165987027E+03   -0.33789E-02   -0.46377E-03  5127   0.612E-02    0.265E-01
RMM:   5    -0.413162059271E+03    0.39278E-02   -0.20018E-03  4826   0.451E-02    0.414E-02
RMM:   6    -0.413162069985E+03   -0.10713E-04   -0.56286E-04  5434   0.247E-02    0.299E-02
RMM:   7    -0.413162085030E+03   -0.15046E-04   -0.18301E-04  5117   0.128E-02    0.160E-02
RMM:   8    -0.413162085600E+03   -0.56997E-06   -0.26090E-05  4722   0.568E-03    0.696E-03
RMM:   9    -0.413162089351E+03   -0.37510E-05   -0.52731E-06  2724   0.235E-03    0.298E-03
RMM:  10    -0.413162098567E+03   -0.92156E-05   -0.16563E-06  2520   0.181E-03    0.149E-03
RMM:  11    -0.413162104862E+03   -0.62954E-05   -0.93262E-07  2432   0.136E-03    0.655E-04
RMM:  12    -0.413162109622E+03   -0.47597E-05   -0.62233E-07  2091   0.108E-03    0.410E-04
RMM:  13    -0.413162113831E+03   -0.42089E-05   -0.53731E-07  1864   0.931E-04    0.249E-04
RMM:  14    -0.413162116116E+03   -0.22847E-05   -0.30613E-07  1495   0.772E-04    0.175E-04
RMM:  15    -0.413162118507E+03   -0.23915E-05   -0.40964E-07  1628   0.803E-04    0.118E-04
RMM:  16    -0.413162119488E+03   -0.98125E-06   -0.21728E-07  1354   0.683E-04
  146 T=    60. E= -.41286694E+03 F= -.41316212E+03 E0= -.41314146E+03  EK= 0.29518E+00 SP= 0.00E+00 SK= 0.00E+00
       N       E                     dE             d eps       ncg     rms          rms(c)
RMM:   1    -0.413166197813E+03   -0.40793E-02   -0.69872E+00  4264   0.728E-01    0.842E-01
RMM:   2    -0.413167362625E+03   -0.11648E-02   -0.82990E-02  4332   0.808E-02    0.619E-01
RMM:   3    -0.413162750162E+03    0.46125E-02   -0.28028E-02  4683   0.472E-02    0.131E-01
RMM:   4    -0.413162531958E+03    0.21820E-03   -0.91331E-04  4985   0.290E-02    0.711E-02
RMM:   5    -0.413162377286E+03    0.15467E-03   -0.24229E-04  4944   0.158E-02    0.486E-02
RMM:   6    -0.413162351655E+03    0.25631E-04   -0.30198E-04  5156   0.177E-02    0.294E-02
RMM:   7    -0.413162368384E+03   -0.16730E-04   -0.15361E-04  4678   0.111E-02    0.165E-02
RMM:   8    -0.413162366865E+03    0.15195E-05   -0.13714E-05  3852   0.432E-03    0.731E-03
RMM:   9    -0.413162373180E+03   -0.63147E-05   -0.92593E-06  2574   0.255E-03    0.217E-03
RMM:  10    -0.413162386373E+03   -0.13194E-04   -0.20626E-06  2503   0.191E-03    0.104E-03
RMM:  11    -0.413162394655E+03   -0.82813E-05   -0.10083E-06  2410   0.135E-03    0.587E-04
RMM:  12    -0.413162398775E+03   -0.41209E-05   -0.37411E-07  1858   0.910E-04    0.485E-04
RMM:  13    -0.413162405249E+03   -0.64738E-05   -0.53090E-07  1826   0.891E-04    0.401E-04
RMM:  14    -0.413162408536E+03   -0.32865E-05   -0.30617E-07  1404   0.714E-04    0.180E-04
RMM:  15    -0.413162410162E+03   -0.16259E-05   -0.17365E-07  1174   0.634E-04    0.824E-05
RMM:  16    -0.413162411869E+03   -0.17076E-05   -0.20306E-07  1371   0.669E-04    0.832E-05
RMM:  17    -0.413162411935E+03   -0.65917E-07   -0.47795E-08   757   0.490E-04
  147 T=    60. E= -.41286654E+03 F= -.41316241E+03 E0= -.41314176E+03  EK= 0.29587E+00 SP= 0.00E+00 SK= 0.00E+00
       N       E                     dE             d eps       ncg     rms          rms(c)
RMM:   1    -0.413165921651E+03   -0.35098E-02   -0.72774E+00  4264   0.744E-01    0.857E-01
RMM:   2    -0.413167152555E+03   -0.12309E-02   -0.85593E-02  4329   0.830E-02    0.614E-01
RMM:   3    -0.413162943268E+03    0.42093E-02   -0.22380E-02  4756   0.443E-02    0.811E-02
RMM:   4    -0.413165641345E+03   -0.26981E-02   -0.32551E-03  5171   0.507E-02    0.230E-01
RMM:   5    -0.413162758806E+03    0.28825E-02   -0.15211E-03  4855   0.389E-02    0.434E-02
RMM:   6    -0.413162767686E+03   -0.88804E-05   -0.54205E-04  5419   0.238E-02    0.320E-02
RMM:   7    -0.413162768631E+03   -0.94502E-06   -0.18828E-04  5063   0.125E-02    0.164E-02
RMM:   8    -0.413162766477E+03    0.21546E-05   -0.23306E-05  4699   0.534E-03    0.723E-03
RMM:   9    -0.413162768830E+03   -0.23536E-05   -0.58787E-06  2734   0.253E-03    0.275E-03
RMM:  10    -0.413162772813E+03   -0.39826E-05   -0.16138E-06  2518   0.187E-03    0.153E-03
RMM:  11    -0.413162776910E+03   -0.40973E-05   -0.12245E-06  2496   0.154E-03    0.800E-04
RMM:  12    -0.413162779103E+03   -0.21929E-05   -0.61005E-07  2208   0.112E-03    0.354E-04
RMM:  13    -0.413162780800E+03   -0.16964E-05   -0.48187E-07  1936   0.936E-04    0.336E-04
RMM:  14    -0.413162782179E+03   -0.13790E-05   -0.42432E-07  1681   0.845E-04    0.226E-04
RMM:  15    -0.413162782963E+03   -0.78445E-06   -0.31893E-07  1547   0.767E-04
  148 T=    60. E= -.41286687E+03 F= -.41316278E+03 E0= -.41314213E+03  EK= 0.29591E+00 SP= 0.00E+00 SK= 0.00E+00
       N       E                     dE             d eps       ncg     rms          rms(c)
RMM:   1    -0.413164272649E+03   -0.14905E-02   -0.75466E+00  4264   0.760E-01    0.838E-01
RMM:   2    -0.413166866528E+03   -0.25939E-02   -0.87776E-02  4315   0.861E-02    0.605E-01
RMM:   3    -0.413163072572E+03    0.37940E-02   -0.19872E-02  4879   0.479E-02    0.907E-02
RMM:   4    -0.413176121681E+03   -0.13049E-01   -0.13924E-02  5138   0.100E-01    0.484E-01
RMM:   5    -0.413162739402E+03    0.13382E-01   -0.66297E-03  4829   0.796E-02    0.485E-02
RMM:   6    -0.413162752845E+03   -0.13443E-04   -0.12833E-03  5602   0.348E-02    0.321E-02
RMM:   7    -0.413162768104E+03   -0.15259E-04   -0.26780E-04  5595   0.150E-02    0.162E-02
RMM:   8    -0.413162770721E+03   -0.26161E-05   -0.38274E-05  5135   0.678E-03    0.729E-03
RMM:   9    -0.413162772934E+03   -0.22134E-05   -0.55630E-06  3005   0.285E-03    0.392E-03
RMM:  10    -0.413162778809E+03   -0.58751E-05   -0.18964E-06  2544   0.208E-03    0.221E-03
RMM:  11    -0.413162783626E+03   -0.48173E-05   -0.11221E-06  2501   0.157E-03    0.116E-03
RMM:  12    -0.413162787716E+03   -0.40893E-05   -0.82823E-07  2379   0.128E-03    0.591E-04
RMM:  13    -0.413162790086E+03   -0.23699E-05   -0.46352E-07  2011   0.989E-04    0.327E-04
RMM:  14    -0.413162791804E+03   -0.17183E-05   -0.30076E-07  1667   0.832E-04    0.261E-04
RMM:  15    -0.413162793898E+03   -0.20943E-05   -0.37806E-07  1749   0.842E-04    0.167E-04
RMM:  16    -0.413162795052E+03   -0.11544E-05   -0.26696E-07  1485   0.726E-04    0.102E-04
RMM:  17    -0.413162795297E+03   -0.24418E-06   -0.11100E-07  1071   0.589E-04
  149 T=    60. E= -.41286670E+03 F= -.41316280E+03 E0= -.41314215E+03  EK= 0.29610E+00 SP= 0.00E+00 SK= 0.00E+00
       N       E                     dE             d eps       ncg     rms          rms(c)
RMM:   1    -0.413163773147E+03   -0.97809E-03   -0.79627E+00  4264   0.778E-01    0.837E-01
RMM:   2    -0.413167616089E+03   -0.38429E-02   -0.92074E-02  4310   0.893E-02    0.613E-01
RMM:   3    -0.413163887065E+03    0.37290E-02   -0.18776E-02  4890   0.515E-02    0.986E-02
RMM:   4    -0.413181411598E+03   -0.17525E-01   -0.18828E-02  5142   0.116E-01    0.558E-01
RMM:   5    -0.413163457968E+03    0.17954E-01   -0.88669E-03  4832   0.919E-02    0.503E-02
RMM:   6    -0.413163474568E+03   -0.16600E-04   -0.15827E-03  5654   0.384E-02    0.312E-02
RMM:   7    -0.413163499408E+03   -0.24840E-04   -0.29462E-04  5745   0.148E-02    0.159E-02
RMM:   8    -0.413163506862E+03   -0.74533E-05   -0.40236E-05  5164   0.684E-03    0.720E-03
RMM:   9    -0.413163511416E+03   -0.45545E-05   -0.60916E-06  3094   0.297E-03    0.400E-03
RMM:  10    -0.413163521255E+03   -0.98387E-05   -0.19992E-06  2550   0.210E-03    0.238E-03
RMM:  11    -0.413163529431E+03   -0.81765E-05   -0.11156E-06  2500   0.158E-03    0.125E-03
RMM:  12    -0.413163537147E+03   -0.77151E-05   -0.88889E-07  2441   0.132E-03    0.656E-04
RMM:  13    -0.413163540961E+03   -0.38142E-05   -0.43156E-07  2001   0.972E-04    0.350E-04
RMM:  14    -0.413163543853E+03   -0.28918E-05   -0.27892E-07  1635   0.822E-04    0.256E-04
RMM:  15    -0.413163547683E+03   -0.38300E-05   -0.34141E-07  1695   0.823E-04    0.178E-04
RMM:  16    -0.413163550131E+03   -0.24487E-05   -0.25729E-07  1555   0.745E-04    0.123E-04
RMM:  17    -0.413163550591E+03   -0.45988E-06   -0.98867E-08  1042   0.584E-04
  150 T=    60. E= -.41286660E+03 F= -.41316355E+03 E0= -.41314290E+03  EK= 0.29695E+00 SP= 0.00E+00 SK= 0.00E+00
