       N       E                     dE             d eps       ncg     rms          rms(c)
RMM:   1     0.220167767137E+04    0.22017E+04   -0.52439E+04  2132   0.654E+02
RMM:   2     0.705210825382E+03   -0.14965E+04   -0.16264E+04  2132   0.177E+02
RMM:   3     0.137659217012E+03   -0.56755E+03   -0.65722E+03  2132   0.117E+02
RMM:   4    -0.159474757157E+03   -0.29713E+03   -0.27887E+03  2132   0.937E+01
RMM:   5    -0.287393550487E+03   -0.12792E+03   -0.11420E+03  2132   0.595E+01
RMM:   6    -0.349685367186E+03   -0.62292E+02   -0.55114E+02  2132   0.423E+01
RMM:   7    -0.382609398923E+03   -0.32924E+02   -0.30435E+02  2132   0.293E+01
RMM:   8    -0.404108036185E+03   -0.21499E+02   -0.18470E+02  2132   0.233E+01
RMM:   9    -0.435928388649E+03   -0.31820E+02   -0.30742E+02  6106   0.173E+01
RMM:  10    -0.441285740153E+03   -0.53574E+01   -0.63948E+01  6395   0.540E+00
RMM:  11    -0.442491477696E+03   -0.12057E+01   -0.11201E+01  6218   0.174E+00
RMM:  12    -0.442866428409E+03   -0.37495E+00   -0.26146E+00  6365   0.601E-01    0.134E+02
RMM:  13    -0.425582070322E+03    0.17284E+02   -0.81130E+01  4676   0.119E+01    0.712E+01
RMM:  14    -0.499106762962E+03   -0.73525E+02   -0.54034E+02  5425   0.232E+01    0.306E+01
RMM:  15    -0.414357673461E+03    0.84749E+02   -0.19564E+02  5058   0.163E+01    0.613E+00
RMM:  16    -0.414063252267E+03    0.29442E+00   -0.39218E+01  6072   0.604E+00    0.429E+00
RMM:  17    -0.413219522321E+03    0.84373E+00   -0.23218E+00  5334   0.182E+00    0.245E+00
RMM:  18    -0.413166341606E+03    0.53181E-01   -0.89479E-01  5965   0.974E-01    0.158E+00
RMM:  19    -0.413169736272E+03   -0.33947E-02   -0.28380E-01  5726   0.565E-01    0.857E-01
RMM:  20    -0.413185571487E+03   -0.15835E-01   -0.21096E-01  5345   0.506E-01    0.551E-01
RMM:  21    -0.413168440659E+03    0.17131E-01   -0.33989E-02  4980   0.234E-01    0.246E-01
RMM:  22    -0.413166941062E+03    0.14996E-02   -0.13436E-02  6114   0.981E-02    0.153E-01
RMM:  23    -0.413165058006E+03    0.18831E-02   -0.60391E-03  5800   0.737E-02    0.841E-02
RMM:  24    -0.413163394412E+03    0.16636E-02   -0.15892E-03  5366   0.408E-02    0.374E-02
RMM:  25    -0.413162999953E+03    0.39446E-03   -0.79556E-04  5762   0.248E-02    0.311E-02
RMM:  26    -0.413163120155E+03   -0.12020E-03   -0.64171E-04  5788   0.268E-02    0.313E-02
RMM:  27    -0.413163525810E+03   -0.40566E-03   -0.18140E-04  4518   0.197E-02    0.185E-02
RMM:  28    -0.413164007161E+03   -0.48135E-03   -0.20362E-04  5154   0.210E-02    0.933E-03
RMM:  29    -0.413164346023E+03   -0.33886E-03   -0.10098E-04  4389   0.147E-02    0.407E-03
RMM:  30    -0.413164551794E+03   -0.20577E-03   -0.77210E-05  4186   0.101E-02    0.315E-03
RMM:  31    -0.413164634432E+03   -0.82638E-04   -0.43738E-05  3126   0.560E-03    0.268E-03
RMM:  32    -0.413164650414E+03   -0.15981E-04   -0.16609E-05  2916   0.274E-03    0.140E-03
RMM:  33    -0.413164654522E+03   -0.41081E-05   -0.75200E-06  2731   0.195E-03    0.455E-04
RMM:  34    -0.413164653760E+03    0.76115E-06   -0.37456E-06  2617   0.151E-03
    1 T=    61. E= -.41286686E+03 F= -.41316465E+03 E0= -.41314216E+03  EK= 0.29779E+00 SP= 0.00E+00 SK= 0.00E+00
       N       E                     dE             d eps       ncg     rms          rms(c)
RMM:   1    -0.413173957086E+03   -0.93026E-02   -0.62577E+00  3988   0.490E-01    0.909E-01
RMM:   2    -0.413171523284E+03    0.24338E-02   -0.81041E-02  3987   0.731E-02    0.664E-01
RMM:   3    -0.413167922038E+03    0.36012E-02   -0.51513E-02  5081   0.791E-02    0.317E-01
RMM:   4    -0.413186516608E+03   -0.18595E-01   -0.29729E-02  5170   0.147E-01    0.628E-01
RMM:   5    -0.413164208321E+03    0.22308E-01   -0.11347E-02  4762   0.107E-01    0.475E-02
RMM:   6    -0.413164341924E+03   -0.13360E-03   -0.18965E-03  5660   0.427E-02    0.297E-02
RMM:   7    -0.413164361232E+03   -0.19308E-04   -0.32899E-04  5767   0.162E-02    0.195E-02
RMM:   8    -0.413164362450E+03   -0.12177E-05   -0.42046E-05  4922   0.731E-03    0.678E-03
RMM:   9    -0.413164365770E+03   -0.33201E-05   -0.84856E-06  3215   0.307E-03    0.443E-03
RMM:  10    -0.413164371349E+03   -0.55785E-05   -0.18496E-06  2562   0.196E-03    0.273E-03
RMM:  11    -0.413164375381E+03   -0.40319E-05   -0.99479E-07  2478   0.142E-03    0.133E-03
RMM:  12    -0.413164380951E+03   -0.55702E-05   -0.98305E-07  2491   0.133E-03    0.663E-04
RMM:  13    -0.413164383702E+03   -0.27512E-05   -0.50996E-07  2036   0.988E-04    0.413E-04
RMM:  14    -0.413164384296E+03   -0.59355E-06   -0.29202E-07  1522   0.757E-04
    2 T=    61. E= -.41286665E+03 F= -.41316438E+03 E0= -.41314188E+03  EK= 0.29774E+00 SP= 0.00E+00 SK= 0.00E+00
       N       E                     dE             d eps       ncg     rms          rms(c)
RMM:   1    -0.413175086286E+03   -0.10703E-01   -0.62073E+00  4187   0.493E-01    0.925E-01
RMM:   2    -0.413171704914E+03    0.33814E-02   -0.81510E-02  3996   0.731E-02    0.663E-01
RMM:   3    -0.413168822910E+03    0.28820E-02   -0.47966E-02  5106   0.791E-02    0.302E-01
RMM:   4    -0.413187213424E+03   -0.18391E-01   -0.30622E-02  5138   0.150E-01    0.627E-01
RMM:   5    -0.413164804201E+03    0.22409E-01   -0.10649E-02  4723   0.105E-01    0.468E-02
RMM:   6    -0.413164935536E+03   -0.13134E-03   -0.18628E-03  5647   0.425E-02    0.318E-02
RMM:   7    -0.413164933895E+03    0.16406E-05   -0.33074E-04  5645   0.172E-02    0.214E-02
RMM:   8    -0.413164928287E+03    0.56082E-05   -0.46793E-05  5083   0.788E-03    0.820E-03
RMM:   9    -0.413164926701E+03    0.15863E-05   -0.88161E-06  3315   0.340E-03    0.492E-03
RMM:  10    -0.413164926792E+03   -0.91317E-07   -0.16337E-06  2540   0.205E-03
    3 T=    61. E= -.41286694E+03 F= -.41316493E+03 E0= -.41314243E+03  EK= 0.29798E+00 SP= 0.00E+00 SK= 0.00E+00
       N       E                     dE             d eps       ncg     rms          rms(c)
RMM:   1    -0.413174359997E+03   -0.94333E-02   -0.61686E+00  4215   0.497E-01    0.910E-01
RMM:   2    -0.413171415208E+03    0.29448E-02   -0.80800E-02  4139   0.719E-02    0.657E-01
RMM:   3    -0.413172652249E+03   -0.12370E-02   -0.50805E-02  5160   0.983E-02    0.405E-01
RMM:   4    -0.413179933352E+03   -0.72811E-02   -0.29227E-02  5081   0.149E-01    0.530E-01
RMM:   5    -0.413164642331E+03    0.15291E-01   -0.73391E-03  4606   0.883E-02    0.461E-02
RMM:   6    -0.413164690308E+03   -0.47977E-04   -0.12087E-03  5425   0.339E-02    0.294E-02
RMM:   7    -0.413164696019E+03   -0.57115E-05   -0.22994E-04  5578   0.144E-02    0.186E-02
RMM:   8    -0.413164692513E+03    0.35063E-05   -0.34286E-05  4849   0.696E-03    0.637E-03
RMM:   9    -0.413164692584E+03   -0.70715E-07   -0.48237E-06  2854   0.270E-03
    4 T=    61. E= -.41286668E+03 F= -.41316469E+03 E0= -.41314221E+03  EK= 0.29802E+00 SP= 0.00E+00 SK= 0.00E+00
       N       E                     dE             d eps       ncg     rms          rms(c)
RMM:   1    -0.413174273875E+03   -0.95814E-02   -0.62568E+00  4238   0.503E-01    0.907E-01
RMM:   2    -0.413171782108E+03    0.24918E-02   -0.81153E-02  4103   0.699E-02    0.663E-01
RMM:   3    -0.413172772344E+03   -0.99024E-03   -0.53997E-02  5150   0.975E-02    0.418E-01
RMM:   4    -0.413180487436E+03   -0.77151E-02   -0.29157E-02  5082   0.149E-01    0.543E-01
RMM:   5    -0.413164777691E+03    0.15710E-01   -0.81477E-03  4618   0.909E-02    0.455E-02
RMM:   6    -0.413164840061E+03   -0.62370E-04   -0.12330E-03  5477   0.342E-02    0.285E-02
RMM:   7    -0.413164855197E+03   -0.15135E-04   -0.23235E-04  5582   0.145E-02    0.179E-02
RMM:   8    -0.413164856390E+03   -0.11939E-05   -0.33240E-05  4777   0.688E-03    0.596E-03
RMM:   9    -0.413164859342E+03   -0.29517E-05   -0.46781E-06  2869   0.263E-03    0.356E-03
RMM:  10    -0.413164864141E+03   -0.47986E-05   -0.12668E-06  2530   0.175E-03    0.215E-03
RMM:  11    -0.413164867507E+03   -0.33660E-05   -0.73517E-07  2372   0.129E-03    0.104E-03
RMM:  12    -0.413164871763E+03   -0.42563E-05   -0.79392E-07  2445   0.121E-03    0.539E-04
RMM:  13    -0.413164874043E+03   -0.22806E-05   -0.45843E-07  1860   0.923E-04    0.323E-04
RMM:  14    -0.413164874665E+03   -0.62173E-06   -0.22588E-07  1405   0.743E-04
    5 T=    61. E= -.41286671E+03 F= -.41316487E+03 E0= -.41314240E+03  EK= 0.29817E+00 SP= 0.00E+00 SK= 0.00E+00
       N       E                     dE             d eps       ncg     rms          rms(c)
RMM:   1    -0.413175362333E+03   -0.10488E-01   -0.62231E+00  4246   0.502E-01    0.922E-01
RMM:   2    -0.413172149027E+03    0.32133E-02   -0.81154E-02  4059   0.697E-02    0.664E-01
RMM:   3    -0.413169678191E+03    0.24708E-02   -0.48934E-02  5107   0.794E-02    0.320E-01
RMM:   4    -0.413186679517E+03   -0.17001E-01   -0.30299E-02  5114   0.149E-01    0.616E-01
RMM:   5    -0.413165221202E+03    0.21458E-01   -0.10276E-02  4704   0.103E-01    0.464E-02
RMM:   6    -0.413165343431E+03   -0.12223E-03   -0.17392E-03  5610   0.410E-02    0.312E-02
RMM:   7    -0.413165338555E+03    0.48762E-05   -0.30912E-04  5631   0.167E-02    0.208E-02
RMM:   8    -0.413165335169E+03    0.33860E-05   -0.43549E-05  4997   0.774E-03    0.780E-03
RMM:   9    -0.413165334469E+03    0.70036E-06   -0.77896E-06  3173   0.325E-03
    6 T=    61. E= -.41286695E+03 F= -.41316533E+03 E0= -.41314287E+03  EK= 0.29838E+00 SP= 0.00E+00 SK= 0.00E+00
       N       E                     dE             d eps       ncg     rms          rms(c)
RMM:   1    -0.413174894094E+03   -0.95589E-02   -0.61786E+00  4270   0.507E-01    0.916E-01
RMM:   2    -0.413171830040E+03    0.30641E-02   -0.80922E-02  4263   0.709E-02    0.658E-01
RMM:   3    -0.413175501262E+03   -0.36712E-02   -0.51659E-02  5175   0.107E-01    0.451E-01
RMM:   4    -0.413177774351E+03   -0.22731E-02   -0.29050E-02  5055   0.150E-01    0.485E-01
RMM:   5    -0.413165108365E+03    0.12666E-01   -0.60672E-03  4558   0.815E-02    0.460E-02
RMM:   6    -0.413165121661E+03   -0.13297E-04   -0.95945E-04  5337   0.304E-02    0.293E-02
RMM:   7    -0.413165134006E+03   -0.12345E-04   -0.19244E-04  5468   0.137E-02    0.175E-02
RMM:   8    -0.413165128908E+03    0.50986E-05   -0.29341E-05  4728   0.672E-03    0.569E-03
RMM:   9    -0.413165127858E+03    0.10494E-05   -0.39011E-06  2740   0.249E-03    0.307E-03
RMM:  10    -0.413165127295E+03    0.56295E-06   -0.10911E-06  2499   0.164E-03
    7 T=    61. E= -.41286675E+03 F= -.41316513E+03 E0= -.41314268E+03  EK= 0.29838E+00 SP= 0.00E+00 SK= 0.00E+00
       N       E                     dE             d eps       ncg     rms          rms(c)
RMM:   1    -0.413175149780E+03   -0.10022E-01   -0.62420E+00  4275   0.516E-01    0.905E-01
RMM:   2    -0.413172765310E+03    0.23845E-02   -0.80936E-02  4123   0.728E-02    0.661E-01
RMM:   3    -0.413170600725E+03    0.21646E-02   -0.51772E-02  5067   0.855E-02    0.349E-01
RMM:   4    -0.413186033824E+03   -0.15433E-01   -0.29531E-02  5093   0.148E-01    0.607E-01
RMM:   5    -0.413165586513E+03    0.20447E-01   -0.10211E-02  4694   0.101E-01    0.450E-02
RMM:   6    -0.413165708460E+03   -0.12195E-03   -0.16818E-03  5624   0.399E-02    0.302E-02
RMM:   7    -0.413165702045E+03    0.64153E-05   -0.30004E-04  5584   0.166E-02    0.201E-02
RMM:   8    -0.413165699534E+03    0.25107E-05   -0.41240E-05  4918   0.768E-03    0.747E-03
RMM:   9    -0.413165701225E+03   -0.16913E-05   -0.75266E-06  3135   0.321E-03    0.459E-03
RMM:  10    -0.413165704482E+03   -0.32570E-05   -0.14715E-06  2534   0.197E-03    0.275E-03
RMM:  11    -0.413165706606E+03   -0.21238E-05   -0.83484E-07  2483   0.141E-03    0.141E-03
RMM:  12    -0.413165709416E+03   -0.28101E-05   -0.10148E-06  2501   0.141E-03    0.733E-04
RMM:  13    -0.413165710292E+03   -0.87575E-06   -0.47762E-07  2114   0.103E-03
    8 T=    61. E= -.41286702E+03 F= -.41316571E+03 E0= -.41314328E+03  EK= 0.29869E+00 SP= 0.00E+00 SK= 0.00E+00
       N       E                     dE             d eps       ncg     rms          rms(c)
RMM:   1    -0.413175697537E+03   -0.99881E-02   -0.62445E+00  4283   0.517E-01    0.918E-01
RMM:   2    -0.413172895338E+03    0.28022E-02   -0.81140E-02  4168   0.742E-02    0.665E-01
RMM:   3    -0.413169899071E+03    0.29963E-02   -0.49837E-02  5048   0.814E-02    0.317E-01
RMM:   4    -0.413187848458E+03   -0.17949E-01   -0.29805E-02  5093   0.148E-01    0.625E-01
RMM:   5    -0.413165764817E+03    0.22084E-01   -0.10748E-02  4704   0.104E-01    0.450E-02
RMM:   6    -0.413165900895E+03   -0.13608E-03   -0.18244E-03  5652   0.416E-02    0.316E-02
RMM:   7    -0.413165895925E+03    0.49695E-05   -0.32069E-04  5573   0.172E-02    0.211E-02
RMM:   8    -0.413165891063E+03    0.48621E-05   -0.43651E-05  4960   0.789E-03    0.815E-03
RMM:   9    -0.413165890596E+03    0.46741E-06   -0.84718E-06  3264   0.337E-03
    9 T=    61. E= -.41286693E+03 F= -.41316589E+03 E0= -.41314348E+03  EK= 0.29896E+00 SP= 0.00E+00 SK= 0.00E+00
       N       E                     dE             d eps       ncg     rms          rms(c)
RMM:   1    -0.413175919392E+03   -0.10028E-01   -0.62018E+00  4300   0.520E-01    0.922E-01
RMM:   2    -0.413172670469E+03    0.32489E-02   -0.81497E-02  4322   0.741E-02    0.661E-01
RMM:   3    -0.413178028434E+03   -0.53580E-02   -0.52691E-02  5152   0.115E-01    0.480E-01
RMM:   4    -0.413177292562E+03    0.73587E-03   -0.29147E-02  5029   0.151E-01    0.461E-01
RMM:   5    -0.413165962182E+03    0.11330E-01   -0.54250E-03  4525   0.778E-02    0.457E-02
RMM:   6    -0.413165952297E+03    0.98849E-05   -0.83944E-04  5279   0.285E-02    0.295E-02
RMM:   7    -0.413165946501E+03    0.57959E-05   -0.18020E-04  5337   0.137E-02    0.170E-02
RMM:   8    -0.413165941537E+03    0.49640E-05   -0.28287E-05  4648   0.661E-03    0.537E-03
RMM:   9    -0.413165939599E+03    0.19385E-05   -0.35580E-06  2693   0.239E-03    0.288E-03
RMM:  10    -0.413165937714E+03    0.18842E-05   -0.10519E-06  2477   0.159E-03    0.167E-03
RMM:  11    -0.413165935662E+03    0.20521E-05   -0.66224E-07  2222   0.118E-03    0.783E-04
RMM:  12    -0.413165932591E+03    0.30710E-05   -0.60552E-07  2254   0.107E-03    0.438E-04
RMM:  13    -0.413165930029E+03    0.25625E-05   -0.30980E-07  1588   0.817E-04    0.284E-04
RMM:  14    -0.413165927386E+03    0.26433E-05   -0.23599E-07  1415   0.745E-04    0.175E-04
RMM:  15    -0.413165923531E+03    0.38542E-05   -0.33014E-07  1777   0.797E-04    0.305E-04
RMM:  16    -0.413165919345E+03    0.41861E-05   -0.29350E-07  1364   0.703E-04    0.143E-04
RMM:  17    -0.413165918602E+03    0.74352E-06   -0.78587E-08   895   0.545E-04
   10 T=    61. E= -.41286669E+03 F= -.41316592E+03 E0= -.41314353E+03  EK= 0.29923E+00 SP= 0.00E+00 SK= 0.00E+00
       N       E                     dE             d eps       ncg     rms          rms(c)
RMM:   1    -0.413176202594E+03   -0.10283E-01   -0.62304E+00  4290   0.528E-01    0.905E-01
RMM:   2    -0.413173659900E+03    0.25427E-02   -0.80974E-02  4212   0.735E-02    0.660E-01
RMM:   3    -0.413171099768E+03    0.25601E-02   -0.50759E-02  5057   0.832E-02    0.334E-01
RMM:   4    -0.413187917104E+03   -0.16817E-01   -0.29752E-02  5083   0.148E-01    0.617E-01
RMM:   5    -0.413166568324E+03    0.21349E-01   -0.10569E-02  4692   0.103E-01    0.451E-02
RMM:   6    -0.413166693484E+03   -0.12516E-03   -0.17432E-03  5615   0.405E-02    0.308E-02
RMM:   7    -0.413166696870E+03   -0.33861E-05   -0.30753E-04  5539   0.166E-02    0.205E-02
RMM:   8    -0.413166694519E+03    0.23506E-05   -0.40974E-05  4957   0.753E-03    0.766E-03
RMM:   9    -0.413166695545E+03   -0.10260E-05   -0.76546E-06  3162   0.325E-03    0.468E-03
RMM:  10    -0.413166698246E+03   -0.27014E-05   -0.14512E-06  2520   0.197E-03    0.281E-03
RMM:  11    -0.413166699833E+03   -0.15862E-05   -0.77377E-07  2469   0.139E-03    0.145E-03
RMM:  12    -0.413166701753E+03   -0.19205E-05   -0.88490E-07  2483   0.139E-03    0.768E-04
RMM:  13    -0.413166702076E+03   -0.32283E-06   -0.37214E-07  2069   0.100E-03
   11 T=    61. E= -.41286695E+03 F= -.41316670E+03 E0= -.41314434E+03  EK= 0.29976E+00 SP= 0.00E+00 SK= 0.00E+00
       N       E                     dE             d eps       ncg     rms          rms(c)
RMM:   1    -0.413176423824E+03   -0.97221E-02   -0.62795E+00  4292   0.531E-01    0.916E-01
RMM:   2    -0.413173612885E+03    0.28109E-02   -0.81514E-02  4240   0.731E-02    0.666E-01
RMM:   3    -0.413170905904E+03    0.27070E-02   -0.51006E-02  5073   0.803E-02    0.329E-01
RMM:   4    -0.413188384795E+03   -0.17479E-01   -0.30016E-02  5090   0.148E-01    0.623E-01
RMM:   5    -0.413166525453E+03    0.21859E-01   -0.10735E-02  4700   0.104E-01    0.450E-02
RMM:   6    -0.413166672534E+03   -0.14708E-03   -0.17984E-03  5656   0.411E-02    0.311E-02
RMM:   7    -0.413166667640E+03    0.48935E-05   -0.31463E-04  5555   0.170E-02    0.209E-02
RMM:   8    -0.413166663416E+03    0.42245E-05   -0.42743E-05  4949   0.768E-03    0.797E-03
RMM:   9    -0.413166663761E+03   -0.34539E-06   -0.81383E-06  3228   0.333E-03
   12 T=    61. E= -.41286667E+03 F= -.41316666E+03 E0= -.41314433E+03  EK= 0.29999E+00 SP= 0.00E+00 SK= 0.00E+00
       N       E                     dE             d eps       ncg     rms          rms(c)
RMM:   1    -0.413177401162E+03   -0.10738E-01   -0.62340E+00  4295   0.532E-01    0.927E-01
RMM:   2    -0.413173947568E+03    0.34536E-02   -0.81771E-02  4365   0.716E-02    0.663E-01
RMM:   3    -0.413179709750E+03   -0.57622E-02   -0.52966E-02  5170   0.115E-01    0.487E-01
RMM:   4    -0.413178383287E+03    0.13265E-02   -0.29482E-02  5030   0.152E-01    0.456E-01
RMM:   5    -0.413167260007E+03    0.11123E-01   -0.53034E-03  4510   0.776E-02    0.456E-02
RMM:   6    -0.413167261992E+03   -0.19846E-05   -0.81703E-04  5259   0.282E-02    0.296E-02
RMM:   7    -0.413167261996E+03   -0.48312E-08   -0.17642E-04  5325   0.133E-02    0.170E-02
RMM:   8    -0.413167256507E+03    0.54893E-05   -0.27964E-05  4632   0.664E-03    0.533E-03
RMM:   9    -0.413167254058E+03    0.24486E-05   -0.35560E-06  2688   0.242E-03    0.283E-03
RMM:  10    -0.413167251499E+03    0.25596E-05   -0.10334E-06  2469   0.157E-03    0.163E-03
RMM:  11    -0.413167248669E+03    0.28294E-05   -0.64931E-07  2193   0.117E-03    0.773E-04
RMM:  12    -0.413167244600E+03    0.40695E-05   -0.56232E-07  2215   0.106E-03    0.440E-04
RMM:  13    -0.413167241748E+03    0.28519E-05   -0.25802E-07  1559   0.796E-04    0.302E-04
RMM:  14    -0.413167238317E+03    0.34306E-05   -0.20568E-07  1324   0.733E-04    0.166E-04
RMM:  15    -0.413167233322E+03    0.49955E-05   -0.27997E-07  1737   0.787E-04    0.304E-04
RMM:  16    -0.413167228652E+03    0.46696E-05   -0.20290E-07  1258   0.663E-04    0.150E-04
RMM:  17    -0.413167227394E+03    0.12586E-05   -0.73851E-08   881   0.544E-04    0.866E-05
RMM:  18    -0.413167226161E+03    0.12326E-05   -0.49519E-08   839   0.538E-04    0.280E-05
RMM:  19    -0.413167225346E+03    0.81529E-06   -0.31568E-08   753   0.523E-04
   13 T=    61. E= -.41286681E+03 F= -.41316723E+03 E0= -.41314492E+03  EK= 0.30041E+00 SP= 0.00E+00 SK= 0.00E+00
       N       E                     dE             d eps       ncg     rms          rms(c)
RMM:   1    -0.413177470923E+03   -0.10245E-01   -0.62250E+00  4298   0.541E-01    0.907E-01
RMM:   2    -0.413174775151E+03    0.26958E-02   -0.81022E-02  4260   0.718E-02    0.659E-01
RMM:   3    -0.413172556919E+03    0.22182E-02   -0.49945E-02  5084   0.812E-02    0.334E-01
RMM:   4    -0.413189005606E+03   -0.16449E-01   -0.30269E-02  5082   0.149E-01    0.614E-01
RMM:   5    -0.413167826682E+03    0.21179E-01   -0.10304E-02  4689   0.102E-01    0.454E-02
RMM:   6    -0.413167954661E+03   -0.12798E-03   -0.17181E-03  5600   0.402E-02    0.310E-02
RMM:   7    -0.413167966027E+03   -0.11366E-04   -0.30371E-04  5521   0.168E-02    0.206E-02
RMM:   8    -0.413167960127E+03    0.58997E-05   -0.41460E-05  4955   0.762E-03    0.763E-03
RMM:   9    -0.413167959517E+03    0.61008E-06   -0.78175E-06  3166   0.327E-03
   14 T=    61. E= -.41286706E+03 F= -.41316796E+03 E0= -.41314569E+03  EK= 0.30090E+00 SP= 0.00E+00 SK= 0.00E+00
       N       E                     dE             d eps       ncg     rms          rms(c)
RMM:   1    -0.413177586812E+03   -0.96267E-02   -0.63130E+00  4300   0.545E-01    0.914E-01
RMM:   2    -0.413175086586E+03    0.25002E-02   -0.81830E-02  4331   0.734E-02    0.667E-01
RMM:   3    -0.413180388069E+03   -0.53015E-02   -0.56790E-02  5145   0.116E-01    0.500E-01
RMM:   4    -0.413179591380E+03    0.79669E-03   -0.29439E-02  5026   0.151E-01    0.478E-01
RMM:   5    -0.413167959223E+03    0.11632E-01   -0.64272E-03  4513   0.803E-02    0.443E-02
RMM:   6    -0.413167977731E+03   -0.18509E-04   -0.88229E-04  5271   0.285E-02    0.281E-02
RMM:   7    -0.413167977310E+03    0.42123E-06   -0.18183E-04  5268   0.135E-02    0.164E-02
RMM:   8    -0.413167976522E+03    0.78850E-06   -0.27203E-05  4522   0.661E-03    0.500E-03
RMM:   9    -0.413167977731E+03   -0.12090E-05   -0.35367E-06  2695   0.238E-03    0.296E-03
RMM:  10    -0.413167979715E+03   -0.19847E-05   -0.10294E-06  2474   0.156E-03    0.170E-03
RMM:  11    -0.413167980629E+03   -0.91323E-06   -0.57650E-07  2107   0.112E-03
   15 T=    61. E= -.41286674E+03 F= -.41316798E+03 E0= -.41314575E+03  EK= 0.30124E+00 SP= 0.00E+00 SK= 0.00E+00
       N       E                     dE             d eps       ncg     rms          rms(c)
RMM:   1    -0.413179225494E+03   -0.11246E-01   -0.62669E+00  4296   0.544E-01    0.929E-01
RMM:   2    -0.413175932782E+03    0.32927E-02   -0.82151E-02  4270   0.750E-02    0.666E-01
RMM:   3    -0.413173312734E+03    0.26200E-02   -0.48104E-02  5056   0.822E-02    0.312E-01
RMM:   4    -0.413190993851E+03   -0.17681E-01   -0.30886E-02  5075   0.150E-01    0.622E-01
RMM:   5    -0.413168945666E+03    0.22048E-01   -0.10310E-02  4703   0.104E-01    0.459E-02
RMM:   6    -0.413169075004E+03   -0.12934E-03   -0.18028E-03  5637   0.412E-02    0.323E-02
RMM:   7    -0.413169064611E+03    0.10394E-04   -0.31810E-04  5536   0.174E-02    0.215E-02
RMM:   8    -0.413169055446E+03    0.91648E-05   -0.44116E-05  4999   0.796E-03    0.829E-03
RMM:   9    -0.413169051615E+03    0.38307E-05   -0.87165E-06  3253   0.342E-03    0.495E-03
RMM:  10    -0.413169048556E+03    0.30588E-05   -0.15907E-06  2533   0.207E-03    0.295E-03
RMM:  11    -0.413169045862E+03    0.26943E-05   -0.84472E-07  2488   0.145E-03    0.156E-03
RMM:  12    -0.413169040472E+03    0.53894E-05   -0.10620E-06  2496   0.151E-03    0.838E-04
RMM:  13    -0.413169036253E+03    0.42194E-05   -0.46942E-07  2199   0.108E-03    0.595E-04
RMM:  14    -0.413169035807E+03    0.44598E-06   -0.18499E-07  1565   0.753E-04
   16 T=    61. E= -.41286704E+03 F= -.41316904E+03 E0= -.41314684E+03  EK= 0.30199E+00 SP= 0.00E+00 SK= 0.00E+00
       N       E                     dE             d eps       ncg     rms          rms(c)
RMM:   1    -0.413179187637E+03   -0.10151E-01   -0.62404E+00  4295   0.550E-01    0.912E-01
RMM:   2    -0.413176457191E+03    0.27304E-02   -0.81694E-02  4271   0.764E-02    0.660E-01
RMM:   3    -0.413173916781E+03    0.25404E-02   -0.49088E-02  5044   0.837E-02    0.322E-01
RMM:   4    -0.413191217956E+03   -0.17301E-01   -0.30558E-02  5073   0.149E-01    0.621E-01
RMM:   5    -0.413169376240E+03    0.21842E-01   -0.10472E-02  4706   0.103E-01    0.457E-02
RMM:   6    -0.413169496245E+03   -0.12000E-03   -0.17648E-03  5641   0.407E-02    0.316E-02
RMM:   7    -0.413169493982E+03    0.22623E-05   -0.31127E-04  5533   0.172E-02    0.210E-02
RMM:   8    -0.413169486664E+03    0.73186E-05   -0.43248E-05  4975   0.793E-03    0.788E-03
RMM:   9    -0.413169484461E+03    0.22029E-05   -0.84513E-06  3207   0.339E-03    0.473E-03
RMM:  10    -0.413169483272E+03    0.11894E-05   -0.15410E-06  2528   0.204E-03    0.284E-03
RMM:  11    -0.413169481943E+03    0.13288E-05   -0.80188E-07  2476   0.142E-03    0.149E-03
RMM:  12    -0.413169479091E+03    0.28513E-05   -0.93465E-07  2489   0.144E-03    0.788E-04
RMM:  13    -0.413169476564E+03    0.25273E-05   -0.40237E-07  2112   0.103E-03    0.529E-04
RMM:  14    -0.413169475995E+03    0.56950E-06   -0.17591E-07  1527   0.744E-04
   17 T=    62. E= -.41286683E+03 F= -.41316948E+03 E0= -.41314732E+03  EK= 0.30265E+00 SP= 0.00E+00 SK= 0.00E+00
       N       E                     dE             d eps       ncg     rms          rms(c)
RMM:   1    -0.413179588018E+03   -0.10111E-01   -0.63485E+00  4291   0.559E-01    0.913E-01
RMM:   2    -0.413177203545E+03    0.23845E-02   -0.82404E-02  4272   0.775E-02    0.668E-01
RMM:   3    -0.413174685373E+03    0.25182E-02   -0.52487E-02  5042   0.858E-02    0.348E-01
RMM:   4    -0.413191180467E+03   -0.16495E-01   -0.30180E-02  5070   0.149E-01    0.619E-01
RMM:   5    -0.413169837008E+03    0.21343E-01   -0.10694E-02  4692   0.103E-01    0.450E-02
RMM:   6    -0.413169967572E+03   -0.13056E-03   -0.17534E-03  5650   0.401E-02    0.307E-02
RMM:   7    -0.413169961852E+03    0.57196E-05   -0.30451E-04  5530   0.169E-02    0.204E-02
RMM:   8    -0.413169961023E+03    0.82936E-06   -0.41804E-05  4918   0.780E-03    0.760E-03
RMM:   9    -0.413169961174E+03   -0.15078E-06   -0.82491E-06  3198   0.334E-03
   18 T=    62. E= -.41286665E+03 F= -.41316996E+03 E0= -.41314784E+03  EK= 0.30331E+00 SP= 0.00E+00 SK= 0.00E+00
       N       E                     dE             d eps       ncg     rms          rms(c)
RMM:   1    -0.413181319860E+03   -0.11359E-01   -0.63124E+00  4302   0.557E-01    0.930E-01
RMM:   2    -0.413178095483E+03    0.32244E-02   -0.82699E-02  4335   0.760E-02    0.668E-01
RMM:   3    -0.413183016837E+03   -0.49214E-02   -0.53423E-02  5142   0.113E-01    0.477E-01
RMM:   4    -0.413183300439E+03   -0.28360E-03   -0.29838E-02  5028   0.152E-01    0.475E-01
RMM:   5    -0.413171232447E+03    0.12068E-01   -0.57905E-03  4532   0.804E-02    0.454E-02
RMM:   6    -0.413171260419E+03   -0.27972E-04   -0.91884E-04  5316   0.291E-02    0.296E-02
RMM:   7    -0.413171247751E+03    0.12668E-04   -0.18781E-04  5311   0.140E-02    0.174E-02
RMM:   8    -0.413171243457E+03    0.42944E-05   -0.28807E-05  4615   0.691E-03    0.544E-03
RMM:   9    -0.413171240958E+03    0.24989E-05   -0.39171E-06  2735   0.251E-03    0.297E-03
RMM:  10    -0.413171238218E+03    0.27398E-05   -0.10795E-06  2498   0.163E-03    0.172E-03
RMM:  11    -0.413171235359E+03    0.28592E-05   -0.62832E-07  2210   0.118E-03    0.823E-04
RMM:  12    -0.413171230620E+03    0.47391E-05   -0.58757E-07  2237   0.108E-03    0.456E-04
RMM:  13    -0.413171226696E+03    0.39237E-05   -0.27181E-07  1556   0.811E-04    0.281E-04
RMM:  14    -0.413171223325E+03    0.33712E-05   -0.16639E-07  1254   0.696E-04    0.162E-04
RMM:  15    -0.413171217327E+03    0.59981E-05   -0.20081E-07  1473   0.737E-04    0.268E-04
RMM:  16    -0.413171211483E+03    0.58432E-05   -0.16436E-07  1254   0.660E-04    0.152E-04
RMM:  17    -0.413171210344E+03    0.11394E-05   -0.58250E-08   845   0.546E-04    0.104E-04
RMM:  18    -0.413171208356E+03    0.19879E-05   -0.46440E-08   901   0.551E-04    0.372E-05
RMM:  19    -0.413171207637E+03    0.71868E-06   -0.24537E-08   744   0.523E-04
   19 T=    62. E= -.41286703E+03 F= -.41317121E+03 E0= -.41314913E+03  EK= 0.30418E+00 SP= 0.00E+00 SK= 0.00E+00
       N       E                     dE             d eps       ncg     rms          rms(c)
RMM:   1    -0.413181477497E+03   -0.10269E-01   -0.62804E+00  4295   0.561E-01    0.919E-01
RMM:   2    -0.413178419003E+03    0.30585E-02   -0.82311E-02  4276   0.759E-02    0.663E-01
RMM:   3    -0.413176026967E+03    0.23920E-02   -0.48388E-02  5077   0.804E-02    0.318E-01
RMM:   4    -0.413193625085E+03   -0.17598E-01   -0.31234E-02  5079   0.151E-01    0.624E-01
RMM:   5    -0.413171483441E+03    0.22142E-01   -0.10474E-02  4698   0.104E-01    0.460E-02
RMM:   6    -0.413171612966E+03   -0.12953E-03   -0.18040E-03  5636   0.413E-02    0.321E-02
RMM:   7    -0.413171606052E+03    0.69141E-05   -0.31714E-04  5520   0.174E-02    0.215E-02
RMM:   8    -0.413171601305E+03    0.47470E-05   -0.44997E-05  5007   0.818E-03    0.826E-03
RMM:   9    -0.413171598860E+03    0.24454E-05   -0.89728E-06  3276   0.352E-03    0.489E-03
RMM:  10    -0.413171597143E+03    0.17163E-05   -0.15947E-06  2528   0.209E-03    0.293E-03
RMM:  11    -0.413171595474E+03    0.16694E-05   -0.82200E-07  2487   0.144E-03    0.155E-03
RMM:  12    -0.413171592042E+03    0.34323E-05   -0.10005E-06  2496   0.149E-03    0.830E-04
RMM:  13    -0.413171589104E+03    0.29375E-05   -0.43011E-07  2144   0.106E-03    0.565E-04
RMM:  14    -0.413171588627E+03    0.47721E-06   -0.18522E-07  1544   0.754E-04
   20 T=    62. E= -.41286677E+03 F= -.41317159E+03 E0= -.41314956E+03  EK= 0.30482E+00 SP= 0.00E+00 SK= 0.00E+00
       N       E                     dE             d eps       ncg     rms          rms(c)
RMM:   1    -0.413183045590E+03   -0.11456E-01   -0.63824E+00  4293   0.584E-01    0.911E-01
RMM:   2    -0.413179863142E+03    0.31824E-02   -0.86433E-02  4277   0.782E-02    0.669E-01
RMM:   3    -0.413176769961E+03    0.30932E-02   -0.50985E-02  5059   0.782E-02    0.324E-01
RMM:   4    -0.413196776213E+03   -0.20006E-01   -0.32057E-02  5087   0.152E-01    0.652E-01
RMM:   5    -0.413172614588E+03    0.24162E-01   -0.11871E-02  4713   0.110E-01    0.459E-02
RMM:   6    -0.413172761905E+03   -0.14732E-03   -0.19887E-03  5673   0.432E-02    0.312E-02
RMM:   7    -0.413172764940E+03   -0.30345E-05   -0.33823E-04  5573   0.175E-02    0.212E-02
RMM:   8    -0.413172761397E+03    0.35425E-05   -0.48288E-05  5003   0.822E-03    0.840E-03
RMM:   9    -0.413172760694E+03    0.70391E-06   -0.94761E-06  3387   0.372E-03
   21 T=    62. E= -.41286699E+03 F= -.41317276E+03 E0= -.41315077E+03  EK= 0.30577E+00 SP= 0.00E+00 SK= 0.00E+00
       N       E                     dE             d eps       ncg     rms          rms(c)
RMM:   1    -0.413183896959E+03   -0.11136E-01   -0.63711E+00  4303   0.572E-01    0.929E-01
RMM:   2    -0.413180826460E+03    0.30705E-02   -0.83212E-02  4345   0.775E-02    0.671E-01
RMM:   3    -0.413187343318E+03   -0.65169E-02   -0.55399E-02  5145   0.119E-01    0.507E-01
RMM:   4    -0.413185164377E+03    0.21789E-02   -0.30249E-02  5016   0.154E-01    0.463E-01
RMM:   5    -0.413173882771E+03    0.11282E-01   -0.56431E-03  4482   0.792E-02    0.446E-02
RMM:   6    -0.413173899280E+03   -0.16509E-04   -0.84190E-04  5318   0.283E-02    0.293E-02
RMM:   7    -0.413173904457E+03   -0.51773E-05   -0.18271E-04  5204   0.140E-02    0.172E-02
RMM:   8    -0.413173901494E+03    0.29634E-05   -0.28272E-05  4534   0.725E-03    0.518E-03
RMM:   9    -0.413173899463E+03    0.20305E-05   -0.37694E-06  2716   0.250E-03    0.287E-03
RMM:  10    -0.413173897300E+03    0.21628E-05   -0.10116E-06  2475   0.157E-03    0.165E-03
RMM:  11    -0.413173894972E+03    0.23287E-05   -0.57484E-07  2102   0.113E-03    0.785E-04
RMM:  12    -0.413173890746E+03    0.42253E-05   -0.57005E-07  2238   0.106E-03    0.465E-04
RMM:  13    -0.413173886692E+03    0.40541E-05   -0.27525E-07  1515   0.795E-04    0.283E-04
RMM:  14    -0.413173883512E+03    0.31804E-05   -0.15344E-07  1176   0.677E-04    0.162E-04
RMM:  15    -0.413173877912E+03    0.55999E-05   -0.18028E-07  1308   0.708E-04    0.251E-04
RMM:  16    -0.413173871638E+03    0.62743E-05   -0.15879E-07  1213   0.664E-04    0.152E-04
RMM:  17    -0.413173870572E+03    0.10658E-05   -0.53742E-08   824   0.550E-04    0.111E-04
RMM:  18    -0.413173868756E+03    0.18160E-05   -0.38863E-08   845   0.549E-04    0.502E-05
RMM:  19    -0.413173867629E+03    0.11267E-05   -0.26256E-08   797   0.537E-04    0.212E-05
RMM:  20    -0.413173867367E+03    0.26283E-06   -0.99726E-09   609   0.509E-04
   22 T=    62. E= -.41286711E+03 F= -.41317387E+03 E0= -.41315193E+03  EK= 0.30676E+00 SP= 0.00E+00 SK= 0.00E+00
       N       E                     dE             d eps       ncg     rms          rms(c)
RMM:   1    -0.413184729520E+03   -0.10862E-01   -0.63429E+00  4292   0.574E-01    0.928E-01
RMM:   2    -0.413181497117E+03    0.32324E-02   -0.83291E-02  4290   0.777E-02    0.667E-01
RMM:   3    -0.413178525586E+03    0.29715E-02   -0.47871E-02  5030   0.813E-02    0.299E-01
RMM:   4    -0.413198074516E+03   -0.19549E-01   -0.31524E-02  5086   0.152E-01    0.641E-01
RMM:   5    -0.413174500424E+03    0.23574E-01   -0.11047E-02  4712   0.107E-01    0.463E-02
RMM:   6    -0.413174641641E+03   -0.14122E-03   -0.19524E-03  5670   0.429E-02    0.328E-02
RMM:   7    -0.413174634157E+03    0.74836E-05   -0.33953E-04  5528   0.180E-02    0.221E-02
RMM:   8    -0.413174625886E+03    0.82711E-05   -0.49018E-05  5033   0.841E-03    0.888E-03
RMM:   9    -0.413174622352E+03    0.35347E-05   -0.10200E-05  3409   0.364E-03    0.534E-03
RMM:  10    -0.413174619718E+03    0.26334E-05   -0.16741E-06  2536   0.212E-03    0.320E-03
RMM:  11    -0.413174617267E+03    0.24510E-05   -0.89094E-07  2497   0.150E-03    0.170E-03
RMM:  12    -0.413174612507E+03    0.47597E-05   -0.11510E-06  2513   0.158E-03    0.885E-04
RMM:  13    -0.413174608975E+03    0.35328E-05   -0.46398E-07  2211   0.110E-03    0.628E-04
RMM:  14    -0.413174608563E+03    0.41120E-06   -0.19314E-07  1609   0.766E-04
   23 T=    63. E= -.41286687E+03 F= -.41317461E+03 E0= -.41315271E+03  EK= 0.30774E+00 SP= 0.00E+00 SK= 0.00E+00
       N       E                     dE             d eps       ncg     rms          rms(c)
RMM:   1    -0.413185875725E+03   -0.11267E-01   -0.64085E+00  4295   0.583E-01    0.915E-01
RMM:   2    -0.413183447833E+03    0.24279E-02   -0.83598E-02  4295   0.801E-02    0.669E-01
RMM:   3    -0.413179994145E+03    0.34537E-02   -0.51163E-02  4999   0.827E-02    0.313E-01
RMM:   4    -0.413199884966E+03   -0.19891E-01   -0.30286E-02  5086   0.149E-01    0.647E-01
RMM:   5    -0.413176089063E+03    0.23796E-01   -0.11728E-02  4730   0.109E-01    0.451E-02
RMM:   6    -0.413176231598E+03   -0.14254E-03   -0.19941E-03  5719   0.430E-02    0.313E-02
RMM:   7    -0.413176236111E+03   -0.45129E-05   -0.33926E-04  5547   0.179E-02    0.215E-02
RMM:   8    -0.413176233399E+03    0.27124E-05   -0.49262E-05  4908   0.858E-03    0.881E-03
RMM:   9    -0.413176231965E+03    0.14336E-05   -0.10854E-05  3444   0.378E-03    0.555E-03
RMM:  10    -0.413176232112E+03   -0.14690E-06   -0.16826E-06  2535   0.213E-03
   24 T=    63. E= -.41286711E+03 F= -.41317623E+03 E0= -.41315439E+03  EK= 0.30913E+00 SP= 0.00E+00 SK= 0.00E+00
       N       E                     dE             d eps       ncg     rms          rms(c)
RMM:   1    -0.413187649841E+03   -0.11418E-01   -0.64605E+00  4303   0.594E-01    0.929E-01
RMM:   2    -0.413184512988E+03    0.31369E-02   -0.84903E-02  4319   0.825E-02    0.675E-01
RMM:   3    -0.413185804260E+03   -0.12913E-02   -0.53278E-02  5088   0.107E-01    0.421E-01
RMM:   4    -0.413193536696E+03   -0.77324E-02   -0.30451E-02  5047   0.152E-01    0.548E-01
RMM:   5    -0.413177165494E+03    0.16371E-01   -0.77973E-03  4609   0.913E-02    0.456E-02
RMM:   6    -0.413177231438E+03   -0.65944E-04   -0.13325E-03  5533   0.344E-02    0.299E-02
RMM:   7    -0.413177230166E+03    0.12717E-05   -0.24309E-04  5420   0.153E-02    0.192E-02
RMM:   8    -0.413177225879E+03    0.42874E-05   -0.35251E-05  4774   0.729E-03    0.649E-03
RMM:   9    -0.413177224085E+03    0.17937E-05   -0.56407E-06  2923   0.288E-03    0.369E-03
RMM:  10    -0.413177222559E+03    0.15263E-05   -0.12131E-06  2509   0.180E-03    0.224E-03
RMM:  11    -0.413177220786E+03    0.17733E-05   -0.66834E-07  2369   0.128E-03    0.113E-03
RMM:  12    -0.413177217198E+03    0.35882E-05   -0.69675E-07  2417   0.122E-03    0.590E-04
RMM:  13    -0.413177214570E+03    0.26272E-05   -0.29725E-07  1827   0.882E-04    0.393E-04
RMM:  14    -0.413177212448E+03    0.21223E-05   -0.15210E-07  1308   0.700E-04    0.218E-04
RMM:  15    -0.413177207400E+03    0.50479E-05   -0.16830E-07  1413   0.725E-04    0.264E-04
RMM:  16    -0.413177201319E+03    0.60812E-05   -0.15454E-07  1243   0.668E-04    0.203E-04
RMM:  17    -0.413177199531E+03    0.17882E-05   -0.59124E-08   919   0.571E-04    0.142E-04
RMM:  18    -0.413177196733E+03    0.27977E-05   -0.49383E-08   987   0.580E-04    0.624E-05
RMM:  19    -0.413177195468E+03    0.12646E-05   -0.29553E-08   854   0.551E-04    0.255E-05
RMM:  20    -0.413177195141E+03    0.32722E-06   -0.12100E-08   674   0.522E-04
   25 T=    63. E= -.41286682E+03 F= -.41317720E+03 E0= -.41315540E+03  EK= 0.31037E+00 SP= 0.00E+00 SK= 0.00E+00
       N       E                     dE             d eps       ncg     rms          rms(c)
RMM:   1    -0.413189059247E+03   -0.11864E-01   -0.64309E+00  4293   0.590E-01    0.938E-01
RMM:   2    -0.413185633969E+03    0.34253E-02   -0.84917E-02  4300   0.805E-02    0.673E-01
RMM:   3    -0.413182133115E+03    0.35009E-02   -0.47633E-02  5010   0.823E-02    0.286E-01
RMM:   4    -0.413203460469E+03   -0.21327E-01   -0.32027E-02  5089   0.153E-01    0.658E-01
RMM:   5    -0.413178509445E+03    0.24951E-01   -0.11714E-02  4729   0.110E-01    0.466E-02
RMM:   6    -0.413178655409E+03   -0.14596E-03   -0.20858E-03  5731   0.438E-02    0.332E-02
RMM:   7    -0.413178648318E+03    0.70911E-05   -0.35215E-04  5531   0.183E-02    0.227E-02
RMM:   8    -0.413178640187E+03    0.81305E-05   -0.51379E-05  5010   0.866E-03    0.945E-03
RMM:   9    -0.413178635923E+03    0.42648E-05   -0.10780E-05  3508   0.384E-03    0.571E-03
RMM:  10    -0.413178632603E+03    0.33198E-05   -0.18200E-06  2549   0.220E-03    0.340E-03
RMM:  11    -0.413178629671E+03    0.29322E-05   -0.97438E-07  2498   0.156E-03    0.183E-03
RMM:  12    -0.413178624107E+03    0.55637E-05   -0.13128E-06  2525   0.168E-03    0.945E-04
RMM:  13    -0.413178620383E+03    0.37237E-05   -0.50517E-07  2267   0.115E-03    0.678E-04
RMM:  14    -0.413178619927E+03    0.45646E-06   -0.20755E-07  1662   0.786E-04
   26 T=    63. E= -.41286689E+03 F= -.41317862E+03 E0= -.41315687E+03  EK= 0.31173E+00 SP= 0.00E+00 SK= 0.00E+00
       N       E                     dE             d eps       ncg     rms          rms(c)
RMM:   1    -0.413190590113E+03   -0.11970E-01   -0.64636E+00  4295   0.604E-01    0.920E-01
RMM:   2    -0.413187690455E+03    0.28997E-02   -0.84651E-02  4294   0.815E-02    0.671E-01
RMM:   3    -0.413183803529E+03    0.38869E-02   -0.50040E-02  5012   0.790E-02    0.297E-01
RMM:   4    -0.413205026122E+03   -0.21223E-01   -0.30616E-02  5100   0.150E-01    0.656E-01
RMM:   5    -0.413180317026E+03    0.24709E-01   -0.11939E-02  4734   0.110E-01    0.455E-02
RMM:   6    -0.413180472848E+03   -0.15582E-03   -0.20823E-03  5769   0.434E-02    0.316E-02
RMM:   7    -0.413180473417E+03   -0.56882E-06   -0.33802E-04  5540   0.181E-02    0.219E-02
RMM:   8    -0.413180469222E+03    0.41945E-05   -0.52655E-05  4941   0.859E-03    0.946E-03
RMM:   9    -0.413180467115E+03    0.21071E-05   -0.10529E-05  3517   0.389E-03    0.586E-03
RMM:  10    -0.413180466054E+03    0.10606E-05   -0.18002E-06  2544   0.220E-03    0.347E-03
RMM:  11    -0.413180464491E+03    0.15637E-05   -0.10415E-06  2499   0.162E-03    0.179E-03
RMM:  12    -0.413180461405E+03    0.30852E-05   -0.12745E-06  2508   0.168E-03    0.100E-03
RMM:  13    -0.413180459155E+03    0.22501E-05   -0.42358E-07  2227   0.112E-03    0.638E-04
RMM:  14    -0.413180458583E+03    0.57230E-06   -0.18830E-07  1609   0.770E-04
   27 T=    64. E= -.41286718E+03 F= -.41318046E+03 E0= -.41315876E+03  EK= 0.31328E+00 SP= 0.00E+00 SK= 0.00E+00
       N       E                     dE             d eps       ncg     rms          rms(c)
RMM:   1    -0.413192194290E+03   -0.11735E-01   -0.65630E+00  4292   0.612E-01    0.928E-01
RMM:   2    -0.413188893300E+03    0.33010E-02   -0.89043E-02  4291   0.856E-02    0.680E-01
RMM:   3    -0.413184530558E+03    0.43627E-02   -0.50556E-02  5005   0.754E-02    0.289E-01
RMM:   4    -0.413207233820E+03   -0.22703E-01   -0.30903E-02  5108   0.150E-01    0.669E-01
RMM:   5    -0.413181474953E+03    0.25759E-01   -0.12528E-02  4747   0.113E-01    0.455E-02
RMM:   6    -0.413181626755E+03   -0.15180E-03   -0.21984E-03  5805   0.444E-02    0.315E-02
RMM:   7    -0.413181629175E+03   -0.24198E-05   -0.34172E-04  5556   0.181E-02    0.218E-02
RMM:   8    -0.413181623882E+03    0.52929E-05   -0.54241E-05  4934   0.873E-03    0.971E-03
RMM:   9    -0.413181621571E+03    0.23108E-05   -0.10935E-05  3604   0.402E-03    0.610E-03
RMM:  10    -0.413181621087E+03    0.48384E-06   -0.19617E-06  2565   0.227E-03
   28 T=    64. E= -.41286693E+03 F= -.41318162E+03 E0= -.41315997E+03  EK= 0.31469E+00 SP= 0.00E+00 SK= 0.00E+00
       N       E                     dE             d eps       ncg     rms          rms(c)
RMM:   1    -0.413194196096E+03   -0.12575E-01   -0.65326E+00  4295   0.608E-01    0.946E-01
RMM:   2    -0.413190814293E+03    0.33818E-02   -0.86564E-02  4314   0.861E-02    0.679E-01
RMM:   3    -0.413191628726E+03   -0.81443E-03   -0.50745E-02  5105   0.102E-01    0.397E-01
RMM:   4    -0.413201032757E+03   -0.94040E-02   -0.31608E-02  5040   0.154E-01    0.558E-01
RMM:   5    -0.413183605819E+03    0.17427E-01   -0.77329E-03  4629   0.930E-02    0.467E-02
RMM:   6    -0.413183659422E+03   -0.53603E-04   -0.14348E-03  5596   0.358E-02    0.315E-02
RMM:   7    -0.413183655541E+03    0.38814E-05   -0.26217E-04  5407   0.164E-02    0.204E-02
RMM:   8    -0.413183653286E+03    0.22552E-05   -0.38590E-05  4822   0.802E-03    0.728E-03
RMM:   9    -0.413183649263E+03    0.40226E-05   -0.70782E-06  3031   0.321E-03    0.392E-03
RMM:  10    -0.413183644695E+03    0.45677E-05   -0.14655E-06  2535   0.196E-03    0.236E-03
RMM:  11    -0.413183640425E+03    0.42706E-05   -0.78837E-07  2437   0.138E-03    0.122E-03
RMM:  12    -0.413183633096E+03    0.73289E-05   -0.82164E-07  2463   0.131E-03    0.620E-04
RMM:  13    -0.413183628920E+03    0.41754E-05   -0.36457E-07  1950   0.945E-04    0.441E-04
RMM:  14    -0.413183625836E+03    0.30846E-05   -0.18297E-07  1425   0.733E-04    0.255E-04
RMM:  15    -0.413183618345E+03    0.74911E-05   -0.19463E-07  1551   0.750E-04    0.304E-04
RMM:  16    -0.413183610461E+03    0.78832E-05   -0.14571E-07  1207   0.661E-04    0.213E-04
RMM:  17    -0.413183607530E+03    0.29316E-05   -0.70932E-08   981   0.585E-04    0.145E-04
RMM:  18    -0.413183604206E+03    0.33239E-05   -0.59353E-08  1096   0.601E-04    0.458E-05
RMM:  19    -0.413183603140E+03    0.10661E-05   -0.29443E-08   846   0.549E-04    0.478E-05
RMM:  20    -0.413183602972E+03    0.16774E-06   -0.12665E-08   668   0.522E-04
   29 T=    64. E= -.41286714E+03 F= -.41318360E+03 E0= -.41316201E+03  EK= 0.31646E+00 SP= 0.00E+00 SK= 0.00E+00
       N       E                     dE             d eps       ncg     rms          rms(c)
RMM:   1    -0.413195460894E+03   -0.11858E-01   -0.65364E+00  4294   0.620E-01    0.928E-01
RMM:   2    -0.413192916029E+03    0.25449E-02   -0.86369E-02  4285   0.898E-02    0.674E-01
RMM:   3    -0.413188340575E+03    0.45755E-02   -0.49103E-02  4973   0.780E-02    0.276E-01
RMM:   4    -0.413210999077E+03   -0.22659E-01   -0.30624E-02  5106   0.149E-01    0.667E-01
RMM:   5    -0.413185324756E+03    0.25674E-01   -0.12456E-02  4745   0.113E-01    0.456E-02
RMM:   6    -0.413185485066E+03   -0.16031E-03   -0.22154E-03  5819   0.444E-02    0.319E-02
RMM:   7    -0.413185500573E+03   -0.15507E-04   -0.33438E-04  5548   0.183E-02    0.220E-02
RMM:   8    -0.413185498427E+03    0.21462E-05   -0.57864E-05  4906   0.913E-03    0.103E-02
RMM:   9    -0.413185495957E+03    0.24703E-05   -0.12326E-05  3661   0.423E-03    0.639E-03
RMM:  10    -0.413185494769E+03    0.11876E-05   -0.21896E-06  2581   0.241E-03    0.374E-03
RMM:  11    -0.413185493115E+03    0.16545E-05   -0.11947E-06  2505   0.175E-03    0.192E-03
RMM:  12    -0.413185490132E+03    0.29823E-05   -0.14324E-06  2525   0.179E-03    0.108E-03
RMM:  13    -0.413185488330E+03    0.18018E-05   -0.45678E-07  2275   0.117E-03    0.690E-04
RMM:  14    -0.413185487600E+03    0.73084E-06   -0.20662E-07  1686   0.795E-04
   30 T=    65. E= -.41286722E+03 F= -.41318549E+03 E0= -.41316394E+03  EK= 0.31826E+00 SP= 0.00E+00 SK= 0.00E+00
       N       E                     dE             d eps       ncg     rms          rms(c)
RMM:   1    -0.413197464122E+03   -0.11976E-01   -0.66707E+00  4298   0.634E-01    0.933E-01
RMM:   2    -0.413195021307E+03    0.24428E-02   -0.89916E-02  4278   0.958E-02    0.684E-01
RMM:   3    -0.413189589607E+03    0.54317E-02   -0.51620E-02  4872   0.803E-02    0.278E-01
RMM:   4    -0.413210864937E+03   -0.21275E-01   -0.27243E-02  5120   0.141E-01    0.644E-01
RMM:   5    -0.413186922107E+03    0.23943E-01   -0.11829E-02  4774   0.108E-01    0.439E-02
RMM:   6    -0.413187065191E+03   -0.14308E-03   -0.20165E-03  5848   0.425E-02    0.300E-02
RMM:   7    -0.413187080327E+03   -0.15136E-04   -0.28815E-04  5583   0.170E-02    0.198E-02
RMM:   8    -0.413187079799E+03    0.52774E-06   -0.56214E-05  4931   0.843E-03    0.978E-03
RMM:   9    -0.413187077484E+03    0.23154E-05   -0.11127E-05  3696   0.404E-03    0.627E-03
RMM:  10    -0.413187077502E+03   -0.17790E-07   -0.19385E-06  2558   0.229E-03
   31 T=    65. E= -.41286699E+03 F= -.41318708E+03 E0= -.41316558E+03  EK= 0.32009E+00 SP= 0.00E+00 SK= 0.00E+00
       N       E                     dE             d eps       ncg     rms          rms(c)
RMM:   1    -0.413202159951E+03   -0.15082E-01   -0.66691E+00  4303   0.663E-01    0.950E-01
RMM:   2    -0.413197339607E+03    0.48203E-02   -0.94194E-02  4304   0.104E-01    0.686E-01
RMM:   3    -0.413195701190E+03    0.16384E-02   -0.49096E-02  5035   0.103E-01    0.349E-01
RMM:   4    -0.413212769972E+03   -0.17069E-01   -0.35000E-02  5062   0.161E-01    0.636E-01
RMM:   5    -0.413189572773E+03    0.23197E-01   -0.10309E-02  4679   0.106E-01    0.483E-02
RMM:   6    -0.413189688775E+03   -0.11600E-03   -0.19419E-03  5694   0.417E-02    0.327E-02
RMM:   7    -0.413189698034E+03   -0.92584E-05   -0.32429E-04  5506   0.177E-02    0.221E-02
RMM:   8    -0.413189695426E+03    0.26081E-05   -0.48430E-05  4991   0.845E-03    0.864E-03
RMM:   9    -0.413189690797E+03    0.46291E-05   -0.95421E-06  3281   0.365E-03    0.471E-03
RMM:  10    -0.413189686379E+03    0.44177E-05   -0.17697E-06  2556   0.216E-03    0.289E-03
RMM:  11    -0.413189682089E+03    0.42895E-05   -0.89645E-07  2485   0.151E-03    0.152E-03
RMM:  12    -0.413189674571E+03    0.75188E-05   -0.94873E-07  2483   0.146E-03    0.726E-04
RMM:  13    -0.413189670729E+03    0.38422E-05   -0.40524E-07  2123   0.104E-03    0.533E-04
RMM:  14    -0.413189668242E+03    0.24861E-05   -0.19684E-07  1599   0.774E-04    0.323E-04
RMM:  15    -0.413189661235E+03    0.70071E-05   -0.18209E-07  1644   0.762E-04    0.307E-04
RMM:  16    -0.413189654164E+03    0.70717E-05   -0.12016E-07  1225   0.649E-04    0.266E-04
RMM:  17    -0.413189649047E+03    0.51169E-05   -0.82543E-08  1077   0.607E-04    0.191E-04
RMM:  18    -0.413189646011E+03    0.30358E-05   -0.59264E-08  1061   0.592E-04    0.476E-05
RMM:  19    -0.413189644092E+03    0.19187E-05   -0.39214E-08   975   0.571E-04    0.658E-05
RMM:  20    -0.413189643944E+03    0.14788E-06   -0.15948E-08   711   0.523E-04
   32 T=    66. E= -.41286729E+03 F= -.41318964E+03 E0= -.41316819E+03  EK= 0.32235E+00 SP= 0.00E+00 SK= 0.00E+00
       N       E                     dE             d eps       ncg     rms          rms(c)
RMM:   1    -0.413202068769E+03   -0.12425E-01   -0.66501E+00  4299   0.660E-01    0.940E-01
RMM:   2    -0.413199015869E+03    0.30529E-02   -0.90067E-02  4274   0.102E-01    0.681E-01
RMM:   3    -0.413193642909E+03    0.53730E-02   -0.48264E-02  4830   0.850E-02    0.244E-01
RMM:   4    -0.413216290308E+03   -0.22647E-01   -0.27699E-02  5118   0.143E-01    0.656E-01
RMM:   5    -0.413191269308E+03    0.25021E-01   -0.12227E-02  4774   0.110E-01    0.448E-02
RMM:   6    -0.413191435990E+03   -0.16668E-03   -0.21413E-03  5821   0.437E-02    0.313E-02
RMM:   7    -0.413191458691E+03   -0.22701E-04   -0.28250E-04  5566   0.175E-02    0.196E-02
RMM:   8    -0.413191458604E+03    0.87915E-07   -0.60781E-05  4953   0.868E-03    0.106E-02
RMM:   9    -0.413191453937E+03    0.46667E-05   -0.12476E-05  3861   0.427E-03    0.679E-03
RMM:  10    -0.413191451795E+03    0.21418E-05   -0.22348E-06  2593   0.249E-03    0.395E-03
RMM:  11    -0.413191449167E+03    0.26281E-05   -0.13923E-06  2523   0.186E-03    0.205E-03
RMM:  12    -0.413191444722E+03    0.44448E-05   -0.14927E-06  2526   0.187E-03    0.118E-03
RMM:  13    -0.413191442515E+03    0.22073E-05   -0.45564E-07  2299   0.119E-03    0.724E-04
RMM:  14    -0.413191441630E+03    0.88493E-06   -0.20583E-07  1737   0.800E-04
   33 T=    66. E= -.41286699E+03 F= -.41319144E+03 E0= -.41317004E+03  EK= 0.32445E+00 SP= 0.00E+00 SK= 0.00E+00
       N       E                     dE             d eps       ncg     rms          rms(c)
RMM:   1    -0.413205037741E+03   -0.13595E-01   -0.67952E+00  4306   0.674E-01    0.936E-01
RMM:   2    -0.413201531149E+03    0.35066E-02   -0.95202E-02  4272   0.105E-01    0.690E-01
RMM:   3    -0.413195624197E+03    0.59070E-02   -0.50809E-02  4675   0.837E-02    0.248E-01
RMM:   4    -0.413210288978E+03   -0.14665E-01   -0.18105E-02  5124   0.116E-01    0.537E-01
RMM:   5    -0.413193705471E+03    0.16584E-01   -0.81957E-03  4793   0.895E-02    0.405E-02
RMM:   6    -0.413193807570E+03   -0.10210E-03   -0.14316E-03  5823   0.355E-02    0.273E-02
RMM:   7    -0.413193822217E+03   -0.14647E-04   -0.15709E-04  5391   0.141E-02    0.138E-02
RMM:   8    -0.413193820134E+03    0.20838E-05   -0.25832E-05  4286   0.548E-03    0.713E-03
RMM:   9    -0.413193821625E+03   -0.14914E-05   -0.68117E-06  3184   0.316E-03    0.500E-03
RMM:  10    -0.413193820182E+03    0.14435E-05   -0.13195E-06  2535   0.193E-03    0.320E-03
RMM:  11    -0.413193818787E+03    0.13949E-05   -0.17735E-06  2530   0.202E-03    0.174E-03
RMM:  12    -0.413193816766E+03    0.20205E-05   -0.10126E-06  2446   0.155E-03    0.135E-03
RMM:  13    -0.413193815557E+03    0.12089E-05   -0.30373E-07  2109   0.973E-04    0.605E-04
RMM:  14    -0.413193814363E+03    0.11945E-05   -0.14647E-07  1450   0.707E-04    0.391E-04
RMM:  15    -0.413193809178E+03    0.51848E-05   -0.26957E-07  2184   0.867E-04    0.652E-04
RMM:  16    -0.413193807691E+03    0.14869E-05   -0.65286E-08  1036   0.588E-04    0.461E-04
RMM:  17    -0.413193802866E+03    0.48252E-05   -0.72807E-08   937   0.593E-04    0.262E-04
RMM:  18    -0.413193800610E+03    0.22561E-05   -0.45302E-08   961   0.580E-04    0.749E-05
RMM:  19    -0.413193797754E+03    0.28559E-05   -0.45515E-08  1131   0.599E-04    0.178E-04
RMM:  20    -0.413193797264E+03    0.49017E-06   -0.16973E-08   773   0.523E-04
   34 T=    67. E= -.41286705E+03 F= -.41319380E+03 E0= -.41317244E+03  EK= 0.32675E+00 SP= 0.00E+00 SK= 0.00E+00
       N       E                     dE             d eps       ncg     rms          rms(c)
RMM:   1    -0.413207831072E+03   -0.14033E-01   -0.67991E+00  4306   0.685E-01    0.959E-01
RMM:   2    -0.413203734987E+03    0.40961E-02   -0.92145E-02  4267   0.115E-01    0.692E-01
RMM:   3    -0.413198037534E+03    0.56975E-02   -0.48653E-02  4631   0.894E-02    0.218E-01
RMM:   4    -0.413212859776E+03   -0.14822E-01   -0.17396E-02  5126   0.114E-01    0.534E-01
RMM:   5    -0.413196431924E+03    0.16428E-01   -0.81184E-03  4797   0.888E-02    0.411E-02
RMM:   6    -0.413196533197E+03   -0.10127E-03   -0.14131E-03  5812   0.354E-02    0.282E-02
RMM:   7    -0.413196553375E+03   -0.20179E-04   -0.19333E-04  5449   0.151E-02    0.166E-02
RMM:   8    -0.413196544190E+03    0.91858E-05   -0.37725E-05  4799   0.681E-03    0.853E-03
RMM:   9    -0.413196543732E+03    0.45802E-06   -0.91375E-06  3578   0.369E-03
   35 T=    67. E= -.41286737E+03 F= -.41319654E+03 E0= -.41317524E+03  EK= 0.32918E+00 SP= 0.00E+00 SK= 0.00E+00
       N       E                     dE             d eps       ncg     rms          rms(c)
RMM:   1    -0.413209349504E+03   -0.12805E-01   -0.67911E+00  4306   0.707E-01    0.956E-01
RMM:   2    -0.413205678264E+03    0.36712E-02   -0.92865E-02  4283   0.119E-01    0.689E-01
RMM:   3    -0.413203420433E+03    0.22578E-02   -0.49816E-02  4951   0.113E-01    0.321E-01
RMM:   4    -0.413223770524E+03   -0.20350E-01   -0.34529E-02  5070   0.160E-01    0.663E-01
RMM:   5    -0.413198426440E+03    0.25344E-01   -0.11605E-02  4712   0.110E-01    0.481E-02
RMM:   6    -0.413198562670E+03   -0.13623E-03   -0.21839E-03  5761   0.437E-02    0.339E-02
RMM:   7    -0.413198571203E+03   -0.85333E-05   -0.34781E-04  5518   0.183E-02    0.233E-02
RMM:   8    -0.413198567500E+03    0.37027E-05   -0.60943E-05  5020   0.945E-03    0.104E-02
RMM:   9    -0.413198561874E+03    0.56266E-05   -0.11797E-05  3564   0.423E-03    0.550E-03
RMM:  10    -0.413198556640E+03    0.52335E-05   -0.22209E-06  2604   0.239E-03    0.327E-03
RMM:  11    -0.413198551952E+03    0.46886E-05   -0.10167E-06  2494   0.164E-03    0.176E-03
RMM:  12    -0.413198542879E+03    0.90726E-05   -0.12179E-06  2494   0.171E-03    0.948E-04
RMM:  13    -0.413198538067E+03    0.48121E-05   -0.48132E-07  2287   0.117E-03    0.698E-04
RMM:  14    -0.413198536289E+03    0.17777E-05   -0.21769E-07  1726   0.813E-04    0.430E-04
RMM:  15    -0.413198529227E+03    0.70625E-05   -0.18782E-07  1766   0.786E-04    0.352E-04
RMM:  16    -0.413198521047E+03    0.81796E-05   -0.14059E-07  1489   0.688E-04    0.438E-04
RMM:  17    -0.413198514929E+03    0.61177E-05   -0.83781E-08  1093   0.594E-04    0.349E-04
RMM:  18    -0.413198511148E+03    0.37816E-05   -0.61506E-08  1047   0.585E-04    0.936E-05
RMM:  19    -0.413198509004E+03    0.21436E-05   -0.45819E-08  1066   0.582E-04    0.108E-04
RMM:  20    -0.413198508903E+03    0.10086E-06   -0.18037E-08   703   0.515E-04
   36 T=    67. E= -.41286703E+03 F= -.41319851E+03 E0= -.41317725E+03  EK= 0.33148E+00 SP= 0.00E+00 SK= 0.00E+00
       N       E                     dE             d eps       ncg     rms          rms(c)
RMM:   1    -0.413212234253E+03   -0.13725E-01   -0.69103E+00  4311   0.727E-01    0.945E-01
RMM:   2    -0.413209136197E+03    0.30981E-02   -0.96140E-02  4264   0.121E-01    0.694E-01
RMM:   3    -0.413202894095E+03    0.62421E-02   -0.51469E-02  4350   0.947E-02    0.227E-01
RMM:   4    -0.413202068407E+03    0.82569E-03   -0.26151E-03  4915   0.358E-02    0.951E-02
RMM:   5    -0.413201657990E+03    0.41042E-03   -0.30793E-04  4697   0.175E-02    0.381E-02
RMM:   6    -0.413201690789E+03   -0.32799E-04   -0.35371E-04  5257   0.181E-02    0.307E-02
RMM:   7    -0.413201694926E+03   -0.41368E-05   -0.16115E-04  4773   0.142E-02    0.202E-02
RMM:   8    -0.413201686700E+03    0.82257E-05   -0.29615E-05  4466   0.543E-03    0.565E-03
RMM:   9    -0.413201687356E+03   -0.65625E-06   -0.68368E-06  2467   0.231E-03
   37 T=    68. E= -.41286744E+03 F= -.41320169E+03 E0= -.41318047E+03  EK= 0.33425E+00 SP= 0.00E+00 SK= 0.00E+00
       N       E                     dE             d eps       ncg     rms          rms(c)
RMM:   1    -0.413215667487E+03   -0.13981E-01   -0.69760E+00  4309   0.752E-01    0.963E-01
RMM:   2    -0.413212007426E+03    0.36601E-02   -0.96625E-02  4264   0.115E-01    0.701E-01
RMM:   3    -0.413205380902E+03    0.66265E-02   -0.50056E-02  4375   0.875E-02    0.209E-01
RMM:   4    -0.413204426291E+03    0.95461E-03   -0.20434E-03  4829   0.320E-02    0.690E-02
RMM:   5    -0.413204274688E+03    0.15160E-03   -0.21871E-04  4812   0.144E-02    0.427E-02
RMM:   6    -0.413204273555E+03    0.11332E-05   -0.32366E-04  5158   0.175E-02    0.313E-02
RMM:   7    -0.413204276002E+03   -0.24474E-05   -0.16637E-04  4756   0.141E-02    0.212E-02
RMM:   8    -0.413204265858E+03    0.10144E-04   -0.24651E-05  4435   0.552E-03    0.741E-03
RMM:   9    -0.413204265614E+03    0.24392E-06   -0.11865E-05  2434   0.237E-03    0.382E-03
RMM:  10    -0.413204260337E+03    0.52763E-05   -0.16131E-06  2344   0.145E-03    0.127E-03
RMM:  11    -0.413204257013E+03    0.33243E-05   -0.47123E-07  1416   0.818E-04    0.442E-04
RMM:  12    -0.413204251226E+03    0.57868E-05   -0.23183E-07  1282   0.734E-04    0.279E-04
RMM:  13    -0.413204244716E+03    0.65106E-05   -0.16749E-07  1186   0.679E-04    0.163E-04
RMM:  14    -0.413204235222E+03    0.94942E-05   -0.16677E-07  1239   0.684E-04    0.209E-04
RMM:  15    -0.413204229330E+03    0.58911E-05   -0.68543E-08  1009   0.589E-04    0.106E-04
RMM:  16    -0.413204226870E+03    0.24606E-05   -0.28567E-08   715   0.514E-04    0.532E-05
RMM:  17    -0.413204224997E+03    0.18733E-05   -0.16865E-08   658   0.503E-04    0.297E-05
RMM:  18    -0.413204223406E+03    0.15907E-05   -0.14398E-08   637   0.503E-04    0.199E-05
RMM:  19    -0.413204223071E+03    0.33450E-06   -0.40153E-09   457   0.473E-04
   38 T=    69. E= -.41286728E+03 F= -.41320422E+03 E0= -.41318304E+03  EK= 0.33695E+00 SP= 0.00E+00 SK= 0.00E+00
       N       E                     dE             d eps       ncg     rms          rms(c)
RMM:   1    -0.413219201287E+03   -0.14978E-01   -0.69807E+00  4310   0.796E-01    0.972E-01
RMM:   2    -0.413214564482E+03    0.46368E-02   -0.97628E-02  4262   0.114E-01    0.699E-01
RMM:   3    -0.413208254574E+03    0.63099E-02   -0.47802E-02  4684   0.837E-02    0.198E-01
RMM:   4    -0.413224213825E+03   -0.15959E-01   -0.18561E-02  5128   0.116E-01    0.551E-01
RMM:   5    -0.413206890898E+03    0.17323E-01   -0.85700E-03  4795   0.916E-02    0.437E-02
RMM:   6    -0.413206920030E+03   -0.29132E-04   -0.14974E-03  5749   0.377E-02    0.316E-02
RMM:   7    -0.413206939447E+03   -0.19416E-04   -0.29947E-04  5458   0.175E-02    0.211E-02
RMM:   8    -0.413206927272E+03    0.12175E-04   -0.49305E-05  5054   0.801E-03    0.977E-03
RMM:   9    -0.413206925950E+03    0.13219E-05   -0.95907E-06  3365   0.375E-03    0.528E-03
RMM:  10    -0.413206922759E+03    0.31904E-05   -0.17750E-06  2546   0.222E-03    0.290E-03
RMM:  11    -0.413206918999E+03    0.37598E-05   -0.10584E-06  2489   0.165E-03    0.146E-03
RMM:  12    -0.413206913887E+03    0.51121E-05   -0.82191E-07  2433   0.143E-03    0.912E-04
RMM:  13    -0.413206911147E+03    0.27401E-05   -0.31412E-07  2094   0.977E-04    0.483E-04
RMM:  14    -0.413206909233E+03    0.19142E-05   -0.15645E-07  1410   0.728E-04    0.278E-04
RMM:  15    -0.413206903547E+03    0.56865E-05   -0.12750E-07  1374   0.712E-04    0.173E-04
RMM:  16    -0.413206899396E+03    0.41507E-05   -0.76696E-08  1070   0.640E-04    0.153E-04
RMM:  17    -0.413206894562E+03    0.48339E-05   -0.64550E-08  1105   0.627E-04    0.135E-04
RMM:  18    -0.413206890008E+03    0.45543E-05   -0.53696E-08  1112   0.610E-04    0.551E-05
RMM:  19    -0.413206888823E+03    0.11848E-05   -0.26956E-08   816   0.550E-04    0.245E-05
RMM:  20    -0.413206888379E+03    0.44397E-06   -0.17382E-08   733   0.534E-04
   39 T=    69. E= -.41286713E+03 F= -.41320689E+03 E0= -.41318575E+03  EK= 0.33976E+00 SP= 0.00E+00 SK= 0.00E+00
       N       E                     dE             d eps       ncg     rms          rms(c)
RMM:   1    -0.413222217551E+03   -0.15329E-01   -0.70613E+00  4312   0.821E-01    0.956E-01
RMM:   2    -0.413218155753E+03    0.40618E-02   -0.99729E-02  4260   0.115E-01    0.700E-01
RMM:   3    -0.413212103350E+03    0.60524E-02   -0.50649E-02  4757   0.889E-02    0.239E-01
RMM:   4    -0.413233585637E+03   -0.21482E-01   -0.25800E-02  5113   0.137E-01    0.639E-01
RMM:   5    -0.413210111329E+03    0.23474E-01   -0.11453E-02  4793   0.107E-01    0.456E-02
RMM:   6    -0.413210156830E+03   -0.45501E-04   -0.19742E-03  5784   0.421E-02    0.306E-02
RMM:   7    -0.413210184515E+03   -0.27684E-04   -0.30922E-04  5590   0.170E-02    0.202E-02
RMM:   8    -0.413210176670E+03    0.78447E-05   -0.58963E-05  5056   0.825E-03    0.103E-02
RMM:   9    -0.413210177653E+03   -0.98278E-06   -0.12322E-05  3865   0.428E-03    0.581E-03
RMM:  10    -0.413210177000E+03    0.65277E-06   -0.21810E-06  2603   0.234E-03
   40 T=    70. E= -.41286744E+03 F= -.41321018E+03 E0= -.41318907E+03  EK= 0.34273E+00 SP= 0.00E+00 SK= 0.00E+00
       N       E                     dE             d eps       ncg     rms          rms(c)
RMM:   1    -0.413225026809E+03   -0.14849E-01   -0.71759E+00  4315   0.849E-01    0.968E-01
RMM:   2    -0.413220656386E+03    0.43704E-02   -0.10509E-01  4287   0.117E-01    0.710E-01
RMM:   3    -0.413217985347E+03    0.26710E-02   -0.52512E-02  5015   0.106E-01    0.340E-01
RMM:   4    -0.413241465530E+03   -0.23480E-01   -0.40384E-02  5064   0.172E-01    0.711E-01
RMM:   5    -0.413212410954E+03    0.29055E-01   -0.13083E-02  4717   0.119E-01    0.504E-02
RMM:   6    -0.413212473939E+03   -0.62986E-04   -0.23520E-03  5756   0.455E-02    0.317E-02
RMM:   7    -0.413212490250E+03   -0.16311E-04   -0.33001E-04  5599   0.176E-02    0.215E-02
RMM:   8    -0.413212492856E+03   -0.26056E-05   -0.81169E-05  5100   0.952E-03    0.114E-02
RMM:   9    -0.413212487330E+03    0.55261E-05   -0.13617E-05  3945   0.468E-03    0.541E-03
RMM:  10    -0.413212484699E+03    0.26303E-05   -0.26264E-06  2671   0.243E-03    0.313E-03
RMM:  11    -0.413212482153E+03    0.25462E-05   -0.11351E-06  2507   0.169E-03    0.172E-03
RMM:  12    -0.413212476234E+03    0.59193E-05   -0.12261E-06  2503   0.165E-03    0.915E-04
RMM:  13    -0.413212472039E+03    0.41951E-05   -0.46702E-07  2252   0.113E-03    0.568E-04
RMM:  14    -0.413212470461E+03    0.15775E-05   -0.21108E-07  1657   0.791E-04    0.324E-04
RMM:  15    -0.413212463391E+03    0.70706E-05   -0.19835E-07  1618   0.780E-04    0.329E-04
RMM:  16    -0.413212458220E+03    0.51709E-05   -0.11648E-07  1247   0.662E-04    0.288E-04
RMM:  17    -0.413212453850E+03    0.43693E-05   -0.79413E-08  1120   0.617E-04    0.177E-04
RMM:  18    -0.413212449803E+03    0.40476E-05   -0.63317E-08  1174   0.610E-04    0.857E-05
RMM:  19    -0.413212448079E+03    0.17239E-05   -0.35996E-08   940   0.559E-04    0.433E-05
RMM:  20    -0.413212447226E+03    0.85308E-06   -0.24960E-08   826   0.535E-04
   41 T=    70. E= -.41286715E+03 F= -.41321245E+03 E0= -.41319138E+03  EK= 0.34530E+00 SP= 0.00E+00 SK= 0.00E+00
       N       E                     dE             d eps       ncg     rms          rms(c)
RMM:   1    -0.413229589612E+03   -0.17142E-01   -0.71751E+00  4315   0.919E-01    0.985E-01
RMM:   2    -0.413223047292E+03    0.65423E-02   -0.10544E-01  4308   0.123E-01    0.709E-01
RMM:   3    -0.413217636032E+03    0.54113E-02   -0.47218E-02  4928   0.875E-02    0.232E-01
RMM:   4    -0.413247949579E+03   -0.30314E-01   -0.37858E-02  5110   0.165E-01    0.750E-01
RMM:   5    -0.413215100296E+03    0.32849E-01   -0.15514E-02  4779   0.125E-01    0.508E-02
RMM:   6    -0.413215181111E+03   -0.80815E-04   -0.26511E-03  5782   0.483E-02    0.321E-02
RMM:   7    -0.413215208924E+03   -0.27813E-04   -0.32284E-04  5691   0.169E-02    0.188E-02
RMM:   8    -0.413215206080E+03    0.28444E-05   -0.49448E-05  4925   0.732E-03    0.949E-03
RMM:   9    -0.413215206630E+03   -0.55069E-06   -0.19156E-05  4414   0.468E-03    0.683E-03
RMM:  10    -0.413215201535E+03    0.50959E-05   -0.30237E-06  2677   0.274E-03    0.372E-03
RMM:  11    -0.413215198831E+03    0.27033E-05   -0.13136E-06  2499   0.186E-03    0.219E-03
RMM:  12    -0.413215191998E+03    0.68333E-05   -0.14040E-06  2493   0.190E-03    0.119E-03
RMM:  13    -0.413215188095E+03    0.39026E-05   -0.52851E-07  2365   0.129E-03    0.768E-04
RMM:  14    -0.413215186945E+03    0.11507E-05   -0.22070E-07  1837   0.846E-04    0.445E-04
RMM:  15    -0.413215182690E+03    0.42550E-05   -0.12714E-07  1482   0.724E-04    0.207E-04
RMM:  16    -0.413215177614E+03    0.50759E-05   -0.93324E-08  1389   0.671E-04    0.339E-04
RMM:  17    -0.413215174903E+03    0.27106E-05   -0.45686E-08   946   0.573E-04    0.277E-04
RMM:  18    -0.413215168431E+03    0.64725E-05   -0.62398E-08  1263   0.623E-04    0.168E-04
RMM:  19    -0.413215166606E+03    0.18241E-05   -0.29598E-08   898   0.542E-04    0.556E-05
RMM:  20    -0.413215165348E+03    0.12580E-05   -0.22211E-08   861   0.543E-04    0.515E-05
RMM:  21    -0.413215165087E+03    0.26193E-06   -0.12819E-08   720   0.518E-04
   42 T=    71. E= -.41286725E+03 F= -.41321517E+03 E0= -.41319413E+03  EK= 0.34791E+00 SP= 0.00E+00 SK= 0.00E+00
       N       E                     dE             d eps       ncg     rms          rms(c)
RMM:   1    -0.413231877869E+03   -0.16713E-01   -0.72041E+00  4316   0.961E-01    0.967E-01
RMM:   2    -0.413225488108E+03    0.63898E-02   -0.10554E-01  4371   0.122E-01    0.706E-01
RMM:   3    -0.413220417134E+03    0.50710E-02   -0.49363E-02  4943   0.920E-02    0.264E-01
RMM:   4    -0.413250259120E+03   -0.29842E-01   -0.39308E-02  5100   0.168E-01    0.753E-01
RMM:   5    -0.413217254436E+03    0.33005E-01   -0.15481E-02  4777   0.126E-01    0.510E-02
RMM:   6    -0.413217332407E+03   -0.77972E-04   -0.26518E-03  5767   0.481E-02    0.312E-02
RMM:   7    -0.413217362476E+03   -0.30068E-04   -0.30906E-04  5691   0.166E-02    0.180E-02
RMM:   8    -0.413217361335E+03    0.11408E-05   -0.42536E-05  4784   0.678E-03    0.829E-03
RMM:   9    -0.413217363597E+03   -0.22617E-05   -0.16449E-05  4209   0.431E-03    0.637E-03
RMM:  10    -0.413217359758E+03    0.38388E-05   -0.33052E-06  2756   0.267E-03    0.351E-03
RMM:  11    -0.413217357945E+03    0.18124E-05   -0.13174E-06  2494   0.184E-03    0.204E-03
RMM:  12    -0.413217353107E+03    0.48384E-05   -0.13875E-06  2507   0.183E-03    0.109E-03
RMM:  13    -0.413217350420E+03    0.26870E-05   -0.47277E-07  2348   0.121E-03    0.683E-04
RMM:  14    -0.413217349396E+03    0.10245E-05   -0.19991E-07  1691   0.801E-04    0.383E-04
RMM:  15    -0.413217344430E+03    0.49658E-05   -0.15911E-07  1697   0.769E-04    0.340E-04
RMM:  16    -0.413217341478E+03    0.29521E-05   -0.68894E-08  1014   0.607E-04    0.228E-04
RMM:  17    -0.413217337346E+03    0.41321E-05   -0.62860E-08  1096   0.616E-04    0.224E-04
RMM:  18    -0.413217333257E+03    0.40884E-05   -0.52066E-08  1087   0.606E-04    0.911E-05
RMM:  19    -0.413217331222E+03    0.20350E-05   -0.33921E-08   979   0.575E-04    0.474E-05
RMM:  20    -0.413217330701E+03    0.52134E-06   -0.14802E-08   737   0.533E-04
   43 T=    71. E= -.41286727E+03 F= -.41321733E+03 E0= -.41319632E+03  EK= 0.35006E+00 SP= 0.00E+00 SK= 0.00E+00
       N       E                     dE             d eps       ncg     rms          rms(c)
RMM:   1    -0.413235313428E+03   -0.17982E-01   -0.73522E+00  4316   0.103E+00    0.969E-01
RMM:   2    -0.413226913197E+03    0.84002E-02   -0.11428E-01  4394   0.133E-01    0.716E-01
RMM:   3    -0.413222290282E+03    0.46229E-02   -0.49493E-02  4968   0.973E-02    0.288E-01
RMM:   4    -0.413254110116E+03   -0.31820E-01   -0.44547E-02  5094   0.180E-01    0.783E-01
RMM:   5    -0.413218282544E+03    0.35828E-01   -0.16398E-02  4762   0.131E-01    0.525E-02
RMM:   6    -0.413218366971E+03   -0.84427E-04   -0.28398E-03  5772   0.496E-02    0.308E-02
RMM:   7    -0.413218396293E+03   -0.29322E-04   -0.32367E-04  5728   0.167E-02    0.182E-02
RMM:   8    -0.413218402734E+03   -0.64410E-05   -0.62504E-05  5086   0.795E-03    0.102E-02
RMM:   9    -0.413218398399E+03    0.43353E-05   -0.19142E-05  4419   0.486E-03    0.603E-03
RMM:  10    -0.413218397966E+03    0.43311E-06   -0.33924E-06  2702   0.276E-03
   44 T=    72. E= -.41286706E+03 F= -.41321840E+03 E0= -.41319741E+03  EK= 0.35134E+00 SP= 0.00E+00 SK= 0.00E+00
       N       E                     dE             d eps       ncg     rms          rms(c)
RMM:   1    -0.413237391321E+03   -0.18993E-01   -0.73038E+00  4316   0.109E+00    0.989E-01
RMM:   2    -0.413227951350E+03    0.94400E-02   -0.11231E-01  4437   0.138E-01    0.716E-01
RMM:   3    -0.413231004869E+03   -0.30535E-02   -0.52633E-02  5083   0.128E-01    0.452E-01
RMM:   4    -0.413239898468E+03   -0.88936E-02   -0.40282E-02  5034   0.176E-01    0.595E-01
RMM:   5    -0.413219630220E+03    0.20268E-01   -0.76979E-03  4608   0.999E-02    0.503E-02
RMM:   6    -0.413219632262E+03   -0.20423E-05   -0.15693E-03  5590   0.377E-02    0.302E-02
RMM:   7    -0.413219642028E+03   -0.97657E-05   -0.26187E-04  5459   0.164E-02    0.212E-02
RMM:   8    -0.413219639324E+03    0.27039E-05   -0.79850E-05  5027   0.986E-03    0.993E-03
RMM:   9    -0.413219631769E+03    0.75551E-05   -0.94529E-06  3547   0.434E-03    0.429E-03
RMM:  10    -0.413219626650E+03    0.51183E-05   -0.19254E-06  2593   0.215E-03    0.240E-03
RMM:  11    -0.413219621163E+03    0.54872E-05   -0.99075E-07  2479   0.156E-03    0.124E-03
RMM:  12    -0.413219612531E+03    0.86318E-05   -0.73147E-07  2372   0.130E-03    0.621E-04
RMM:  13    -0.413219607915E+03    0.46163E-05   -0.29765E-07  1910   0.911E-04    0.361E-04
RMM:  14    -0.413219603868E+03    0.40467E-05   -0.15937E-07  1302   0.714E-04    0.182E-04
RMM:  15    -0.413219592697E+03    0.11172E-04   -0.17293E-07  1534   0.760E-04    0.225E-04
RMM:  16    -0.413219588463E+03    0.42340E-05   -0.92944E-08  1236   0.641E-04    0.124E-04
RMM:  17    -0.413219582836E+03    0.56268E-05   -0.79365E-08  1325   0.635E-04    0.628E-05
RMM:  18    -0.413219578959E+03    0.38766E-05   -0.52415E-08  1159   0.581E-04    0.592E-05
RMM:  19    -0.413219578496E+03    0.46301E-06   -0.25818E-08   811   0.513E-04
   45 T=    72. E= -.41286749E+03 F= -.41321958E+03 E0= -.41319861E+03  EK= 0.35208E+00 SP= 0.00E+00 SK= 0.00E+00
       N       E                     dE             d eps       ncg     rms          rms(c)
RMM:   1    -0.413236995121E+03   -0.17416E-01   -0.72530E+00  4315   0.116E+00    0.971E-01
RMM:   2    -0.413227198716E+03    0.97964E-02   -0.11306E-01  4419   0.145E-01    0.709E-01
RMM:   3    -0.413225686189E+03    0.15125E-02   -0.48456E-02  5025   0.114E-01    0.353E-01
RMM:   4    -0.413247936155E+03   -0.22250E-01   -0.43287E-02  5069   0.180E-01    0.707E-01
RMM:   5    -0.413218929283E+03    0.29007E-01   -0.12216E-02  4708   0.118E-01    0.527E-02
RMM:   6    -0.413218959539E+03   -0.30256E-04   -0.22016E-03  5704   0.444E-02    0.298E-02
RMM:   7    -0.413218982285E+03   -0.22745E-04   -0.28212E-04  5698   0.164E-02    0.189E-02
RMM:   8    -0.413218989626E+03   -0.73419E-05   -0.90008E-05  5129   0.976E-03    0.117E-02
RMM:   9    -0.413218980519E+03    0.91074E-05   -0.16280E-05  4243   0.514E-03    0.489E-03
RMM:  10    -0.413218977578E+03    0.29407E-05   -0.33635E-06  2753   0.260E-03    0.300E-03
RMM:  11    -0.413218974705E+03    0.28729E-05   -0.11684E-06  2494   0.177E-03    0.158E-03
RMM:  12    -0.413218969125E+03    0.55803E-05   -0.82954E-07  2460   0.147E-03    0.809E-04
RMM:  13    -0.413218964702E+03    0.44229E-05   -0.35826E-07  2064   0.101E-03    0.365E-04
RMM:  14    -0.413218962162E+03    0.25401E-05   -0.18001E-07  1483   0.752E-04    0.193E-04
RMM:  15    -0.413218956018E+03    0.61446E-05   -0.13890E-07  1311   0.715E-04    0.160E-04
RMM:  16    -0.413218952529E+03    0.34887E-05   -0.90793E-08  1197   0.657E-04    0.121E-04
RMM:  17    -0.413218948726E+03    0.38025E-05   -0.76191E-08  1272   0.640E-04    0.690E-05
RMM:  18    -0.413218944893E+03    0.38332E-05   -0.55931E-08  1177   0.601E-04    0.390E-05
RMM:  19    -0.413218943159E+03    0.17340E-05   -0.31987E-08   902   0.545E-04    0.318E-05
RMM:  20    -0.413218942829E+03    0.32999E-06   -0.18775E-08   740   0.520E-04
   46 T=    72. E= -.41286741E+03 F= -.41321894E+03 E0= -.41319799E+03  EK= 0.35153E+00 SP= 0.00E+00 SK= 0.00E+00
       N       E                     dE             d eps       ncg     rms          rms(c)
RMM:   1    -0.413239558879E+03   -0.20616E-01   -0.73589E+00  4316   0.129E+00    0.962E-01
RMM:   2    -0.413226109327E+03    0.13450E-01   -0.11713E-01  4453   0.159E-01    0.715E-01
RMM:   3    -0.413227823865E+03   -0.17145E-02   -0.53291E-02  5059   0.131E-01    0.437E-01
RMM:   4    -0.413241996159E+03   -0.14172E-01   -0.43474E-02  5039   0.183E-01    0.656E-01
RMM:   5    -0.413217408892E+03    0.24587E-01   -0.10054E-02  4662   0.111E-01    0.518E-02
RMM:   6    -0.413217398197E+03    0.10694E-04   -0.17604E-03  5612   0.405E-02    0.274E-02
RMM:   7    -0.413217414239E+03   -0.16041E-04   -0.24992E-04  5652   0.157E-02    0.185E-02
RMM:   8    -0.413217422703E+03   -0.84644E-05   -0.91259E-05  5098   0.101E-02    0.103E-02
RMM:   9    -0.413217417073E+03    0.56304E-05   -0.12071E-05  3910   0.478E-03    0.429E-03
RMM:  10    -0.413217415454E+03    0.16191E-05   -0.28180E-06  2705   0.238E-03    0.261E-03
RMM:  11    -0.413217413250E+03    0.22031E-05   -0.12333E-06  2498   0.172E-03    0.126E-03
RMM:  12    -0.413217409668E+03    0.35823E-05   -0.77086E-07  2385   0.135E-03    0.646E-04
RMM:  13    -0.413217406670E+03    0.29979E-05   -0.35175E-07  1845   0.946E-04    0.290E-04
RMM:  14    -0.413217403895E+03    0.27752E-05   -0.20180E-07  1417   0.761E-04    0.154E-04
RMM:  15    -0.413217399287E+03    0.46086E-05   -0.17517E-07  1405   0.743E-04    0.123E-04
RMM:  16    -0.413217396183E+03    0.31038E-05   -0.12084E-07  1325   0.671E-04    0.898E-05
RMM:  17    -0.413217391208E+03    0.49747E-05   -0.11393E-07  1429   0.672E-04    0.521E-05
RMM:  18    -0.413217389235E+03    0.19726E-05   -0.57559E-08  1018   0.565E-04    0.345E-05
RMM:  19    -0.413217388357E+03    0.87806E-06   -0.32788E-08   828   0.530E-04
   47 T=    71. E= -.41286747E+03 F= -.41321739E+03 E0= -.41319645E+03  EK= 0.34992E+00 SP= 0.00E+00 SK= 0.00E+00
       N       E                     dE             d eps       ncg     rms          rms(c)
RMM:   1    -0.413238117806E+03   -0.20729E-01   -0.72574E+00  4312   0.135E+00    0.975E-01
RMM:   2    -0.413223088582E+03    0.15029E-01   -0.11830E-01  4488   0.170E-01    0.712E-01
RMM:   3    -0.413229282781E+03   -0.61942E-02   -0.51487E-02  5083   0.143E-01    0.505E-01
RMM:   4    -0.413233319688E+03   -0.40369E-02   -0.41829E-02  5008   0.182E-01    0.568E-01
RMM:   5    -0.413214786065E+03    0.18534E-01   -0.68085E-03  4603   0.983E-02    0.521E-02
RMM:   6    -0.413214741409E+03    0.44656E-04   -0.12223E-03  5340   0.350E-02    0.271E-02
RMM:   7    -0.413214766309E+03   -0.24901E-04   -0.18935E-04  5612   0.140E-02    0.168E-02
RMM:   8    -0.413214770803E+03   -0.44932E-05   -0.89392E-05  5161   0.987E-03    0.105E-02
RMM:   9    -0.413214760595E+03    0.10207E-04   -0.11649E-05  3908   0.482E-03    0.405E-03
RMM:  10    -0.413214757615E+03    0.29804E-05   -0.27941E-06  2699   0.238E-03    0.236E-03
RMM:  11    -0.413214753143E+03    0.44715E-05   -0.12289E-06  2490   0.179E-03    0.120E-03
RMM:  12    -0.413214748650E+03    0.44931E-05   -0.57789E-07  2316   0.127E-03    0.661E-04
RMM:  13    -0.413214744612E+03    0.40382E-05   -0.27709E-07  1771   0.903E-04    0.308E-04
RMM:  14    -0.413214740114E+03    0.44978E-05   -0.16683E-07  1426   0.740E-04    0.160E-04
RMM:  15    -0.413214735387E+03    0.47270E-05   -0.11913E-07  1281   0.688E-04    0.117E-04
RMM:  16    -0.413214731600E+03    0.37871E-05   -0.86141E-08  1225   0.645E-04    0.836E-05
RMM:  17    -0.413214724936E+03    0.66646E-05   -0.92976E-08  1473   0.668E-04    0.690E-05
RMM:  18    -0.413214723813E+03    0.11229E-05   -0.33510E-08   829   0.525E-04    0.484E-05
RMM:  19    -0.413214722154E+03    0.16587E-05   -0.28769E-08   859   0.528E-04    0.195E-05
RMM:  20    -0.413214721514E+03    0.63951E-06   -0.16566E-08   707   0.505E-04
   48 T=    71. E= -.41286775E+03 F= -.41321472E+03 E0= -.41319379E+03  EK= 0.34698E+00 SP= 0.00E+00 SK= 0.00E+00
       N       E                     dE             d eps       ncg     rms          rms(c)
RMM:   1    -0.413233392845E+03   -0.18671E-01   -0.71078E+00  4311   0.144E+00    0.961E-01
RMM:   2    -0.413217677110E+03    0.15716E-01   -0.11820E-01  4550   0.177E-01    0.701E-01
RMM:   3    -0.413231551497E+03   -0.13874E-01   -0.54325E-02  5111   0.162E-01    0.618E-01
RMM:   4    -0.413222019135E+03    0.95324E-02   -0.41384E-02  4972   0.185E-01    0.469E-01
RMM:   5    -0.413209516607E+03    0.12503E-01   -0.46170E-03  4574   0.884E-02    0.527E-02
RMM:   6    -0.413209423910E+03    0.92696E-04   -0.65035E-04  4866   0.289E-02    0.270E-02
RMM:   7    -0.413209445384E+03   -0.21474E-04   -0.14737E-04  5688   0.133E-02    0.122E-02
RMM:   8    -0.413209443933E+03    0.14514E-05   -0.31615E-05  5127   0.697E-03    0.680E-03
RMM:   9    -0.413209441904E+03    0.20293E-05   -0.81999E-06  3507   0.339E-03    0.343E-03
RMM:  10    -0.413209438141E+03    0.37625E-05   -0.16851E-06  2539   0.212E-03    0.236E-03
RMM:  11    -0.413209433219E+03    0.49224E-05   -0.96851E-07  2465   0.168E-03    0.143E-03
RMM:  12    -0.413209429828E+03    0.33913E-05   -0.39690E-07  2343   0.111E-03    0.771E-04
RMM:  13    -0.413209425172E+03    0.46557E-05   -0.26494E-07  1864   0.880E-04    0.383E-04
RMM:  14    -0.413209419405E+03    0.57668E-05   -0.18606E-07  1601   0.756E-04    0.378E-04
RMM:  15    -0.413209414766E+03    0.46391E-05   -0.94567E-08  1047   0.610E-04    0.156E-04
RMM:  16    -0.413209411253E+03    0.35134E-05   -0.70591E-08  1082   0.606E-04    0.101E-04
RMM:  17    -0.413209407027E+03    0.42254E-05   -0.62058E-08  1157   0.606E-04    0.121E-04
RMM:  18    -0.413209406199E+03    0.82805E-06   -0.28429E-08   781   0.527E-04
   49 T=    70. E= -.41286743E+03 F= -.41320941E+03 E0= -.41318848E+03  EK= 0.34198E+00 SP= 0.00E+00 SK= 0.00E+00
       N       E                     dE             d eps       ncg     rms          rms(c)
RMM:   1    -0.413229009937E+03   -0.19603E-01   -0.70598E+00  4311   0.158E+00    0.930E-01
RMM:   2    -0.413211493304E+03    0.17517E-01   -0.12658E-01  4678   0.191E-01    0.699E-01
RMM:   3    -0.413235700888E+03   -0.24208E-01   -0.60602E-02  5126   0.188E-01    0.746E-01
RMM:   4    -0.413212828185E+03    0.22873E-01   -0.46159E-02  4936   0.199E-01    0.417E-01
RMM:   5    -0.413203188666E+03    0.96395E-02   -0.46481E-03  4648   0.911E-02    0.579E-02
RMM:   6    -0.413203044462E+03    0.14420E-03   -0.50531E-04  4709   0.286E-02    0.276E-02
RMM:   7    -0.413203080149E+03   -0.35687E-04   -0.23964E-04  5688   0.173E-02    0.197E-02
RMM:   8    -0.413203062425E+03    0.17723E-04   -0.61239E-05  5041   0.903E-03    0.968E-03
RMM:   9    -0.413203060482E+03    0.19432E-05   -0.18031E-05  4819   0.536E-03    0.432E-03
RMM:  10    -0.413203057559E+03    0.29234E-05   -0.24365E-06  2691   0.244E-03    0.258E-03
RMM:  11    -0.413203053441E+03    0.41176E-05   -0.12205E-06  2497   0.186E-03    0.190E-03
RMM:  12    -0.413203050168E+03    0.32730E-05   -0.47167E-07  2345   0.117E-03    0.956E-04
RMM:  13    -0.413203046782E+03    0.33867E-05   -0.32465E-07  2073   0.917E-04    0.388E-04
RMM:  14    -0.413203042708E+03    0.40737E-05   -0.23288E-07  1668   0.783E-04    0.325E-04
RMM:  15    -0.413203037596E+03    0.51122E-05   -0.17614E-07  1328   0.698E-04    0.138E-04
RMM:  16    -0.413203034748E+03    0.28472E-05   -0.10214E-07  1170   0.621E-04    0.898E-05
RMM:  17    -0.413203030643E+03    0.41056E-05   -0.10105E-07  1310   0.630E-04    0.723E-05
RMM:  18    -0.413203028018E+03    0.26251E-05   -0.62616E-08  1057   0.566E-04    0.533E-05
RMM:  19    -0.413203026596E+03    0.14218E-05   -0.35957E-08   878   0.527E-04    0.286E-05
RMM:  20    -0.413203025478E+03    0.11175E-05   -0.28803E-08   879   0.519E-04    0.238E-05
RMM:  21    -0.413203025172E+03    0.30653E-06   -0.14029E-08   710   0.485E-04
   50 T=    68. E= -.41286777E+03 F= -.41320303E+03 E0= -.41318210E+03  EK= 0.33526E+00 SP= 0.00E+00 SK= 0.00E+00
       N       E                     dE             d eps       ncg     rms          rms(c)
RMM:   1    -0.413221105967E+03   -0.18080E-01   -0.68840E+00  4309   0.165E+00    0.930E-01
RMM:   2    -0.413201897173E+03    0.19209E-01   -0.12806E-01  4769   0.198E-01    0.694E-01
RMM:   3    -0.413236481322E+03   -0.34584E-01   -0.65265E-02  5147   0.206E-01    0.853E-01
[...]
RMM:  15    -0.413160288319E+03   -0.28258E-05   -0.20275E-07  1460   0.733E-04    0.128E-04
RMM:  16    -0.413160290383E+03   -0.20647E-05   -0.13319E-07  1320   0.656E-04    0.890E-05
RMM:  17    -0.413160292612E+03   -0.22290E-05   -0.13146E-07  1304   0.644E-04    0.604E-05
RMM:  18    -0.413160293201E+03   -0.58883E-06   -0.53069E-08   857   0.534E-04
  138 T=    60. E= -.41286740E+03 F= -.41316029E+03 E0= -.41313956E+03  EK= 0.29290E+00 SP= 0.00E+00 SK= 0.00E+00
       N       E                     dE             d eps       ncg     rms          rms(c)
RMM:   1    -0.413170469457E+03   -0.10177E-01   -0.55634E+00  4267   0.643E-01    0.897E-01
RMM:   2    -0.413166028308E+03    0.44411E-02   -0.73661E-02  4370   0.760E-02    0.640E-01
RMM:   3    -0.413166083750E+03   -0.55442E-04   -0.52129E-02  5135   0.914E-02    0.370E-01
RMM:   4    -0.413174281813E+03   -0.81981E-02   -0.25358E-02  5055   0.139E-01    0.518E-01
RMM:   5    -0.413159878458E+03    0.14403E-01   -0.75965E-03  4656   0.881E-02    0.463E-02
RMM:   6    -0.413159860030E+03    0.18429E-04   -0.11310E-03  5319   0.330E-02    0.266E-02
RMM:   7    -0.413159888394E+03   -0.28365E-04   -0.21704E-04  5761   0.141E-02    0.187E-02
RMM:   8    -0.413159886930E+03    0.14645E-05   -0.47477E-05  5105   0.801E-03    0.742E-03
RMM:   9    -0.413159887040E+03   -0.10976E-06   -0.65825E-06  2920   0.322E-03
  139 T=    60. E= -.41286713E+03 F= -.41315989E+03 E0= -.41313917E+03  EK= 0.29275E+00 SP= 0.00E+00 SK= 0.00E+00
       N       E                     dE             d eps       ncg     rms          rms(c)
RMM:   1    -0.413170541693E+03   -0.10655E-01   -0.55504E+00  4275   0.646E-01    0.886E-01
RMM:   2    -0.413166705070E+03    0.38366E-02   -0.72672E-02  4381   0.762E-02    0.641E-01
RMM:   3    -0.413169231538E+03   -0.25265E-02   -0.57478E-02  5156   0.104E-01    0.444E-01
RMM:   4    -0.413171434757E+03   -0.22032E-02   -0.24397E-02  5033   0.138E-01    0.475E-01
RMM:   5    -0.413160217486E+03    0.11217E-01   -0.71140E-03  4582   0.812E-02    0.459E-02
RMM:   6    -0.413160184205E+03    0.33281E-04   -0.83804E-04  5110   0.291E-02    0.251E-02
RMM:   7    -0.413160223322E+03   -0.39117E-04   -0.17948E-04  5751   0.130E-02    0.172E-02
RMM:   8    -0.413160228252E+03   -0.49296E-05   -0.41495E-05  5105   0.753E-03    0.651E-03
RMM:   9    -0.413160233850E+03   -0.55987E-05   -0.59277E-06  2884   0.312E-03    0.339E-03
RMM:  10    -0.413160238272E+03   -0.44217E-05   -0.10457E-06  2515   0.176E-03    0.227E-03
RMM:  11    -0.413160247568E+03   -0.92964E-05   -0.12603E-06  2506   0.149E-03    0.110E-03
RMM:  12    -0.413160251429E+03   -0.38609E-05   -0.44602E-07  1972   0.998E-04    0.551E-04
RMM:  13    -0.413160257440E+03   -0.60104E-05   -0.42388E-07  1939   0.919E-04    0.280E-04
RMM:  14    -0.413160262351E+03   -0.49109E-05   -0.29078E-07  1531   0.774E-04    0.207E-04
RMM:  15    -0.413160268173E+03   -0.58222E-05   -0.35737E-07  1682   0.807E-04    0.171E-04
RMM:  16    -0.413160271048E+03   -0.28749E-05   -0.17005E-07  1302   0.649E-04    0.121E-04
RMM:  17    -0.413160274525E+03   -0.34776E-05   -0.19592E-07  1393   0.692E-04    0.652E-05
RMM:  18    -0.413160275351E+03   -0.82581E-06   -0.75373E-08   989   0.547E-04
  140 T=    60. E= -.41286739E+03 F= -.41316028E+03 E0= -.41313956E+03  EK= 0.29288E+00 SP= 0.00E+00 SK= 0.00E+00
       N       E                     dE             d eps       ncg     rms          rms(c)
RMM:   1    -0.413171077706E+03   -0.10803E-01   -0.54999E+00  4265   0.643E-01    0.899E-01
RMM:   2    -0.413166586601E+03    0.44911E-02   -0.72369E-02  4365   0.759E-02    0.645E-01
RMM:   3    -0.413165058981E+03    0.15276E-02   -0.54935E-02  5103   0.857E-02    0.354E-01
RMM:   4    -0.413175905981E+03   -0.10847E-01   -0.24446E-02  5064   0.135E-01    0.543E-01
RMM:   5    -0.413160095431E+03    0.15811E-01   -0.88245E-03  4693   0.924E-02    0.453E-02
RMM:   6    -0.413160085824E+03    0.96075E-05   -0.12287E-03  5425   0.346E-02    0.256E-02
RMM:   7    -0.413160116045E+03   -0.30221E-04   -0.21993E-04  5767   0.139E-02    0.178E-02
RMM:   8    -0.413160119563E+03   -0.35184E-05   -0.46608E-05  5117   0.781E-03    0.710E-03
RMM:   9    -0.413160122103E+03   -0.25395E-05   -0.65586E-06  2929   0.313E-03    0.345E-03
RMM:  10    -0.413160125255E+03   -0.31520E-05   -0.12604E-06  2533   0.175E-03    0.223E-03
RMM:  11    -0.413160130199E+03   -0.49445E-05   -0.12161E-06  2495   0.147E-03    0.104E-03
RMM:  12    -0.413160133062E+03   -0.28631E-05   -0.49095E-07  2036   0.106E-03    0.437E-04
RMM:  13    -0.413160136085E+03   -0.30230E-05   -0.32119E-07  1770   0.876E-04    0.249E-04
RMM:  14    -0.413160138739E+03   -0.26540E-05   -0.21863E-07  1367   0.755E-04    0.166E-04
RMM:  15    -0.413160141988E+03   -0.32483E-05   -0.25172E-07  1566   0.768E-04    0.132E-04
RMM:  16    -0.413160144483E+03   -0.24956E-05   -0.18353E-07  1409   0.694E-04    0.101E-04
RMM:  17    -0.413160146256E+03   -0.17726E-05   -0.13206E-07  1233   0.628E-04    0.642E-05
RMM:  18    -0.413160146936E+03   -0.67969E-06   -0.67200E-08   920   0.546E-04
  141 T=    60. E= -.41286734E+03 F= -.41316015E+03 E0= -.41313944E+03  EK= 0.29281E+00 SP= 0.00E+00 SK= 0.00E+00
       N       E                     dE             d eps       ncg     rms          rms(c)
RMM:   1    -0.413171330763E+03   -0.11185E-01   -0.54163E+00  4264   0.641E-01    0.904E-01
RMM:   2    -0.413166370188E+03    0.49606E-02   -0.72137E-02  4359   0.758E-02    0.642E-01
RMM:   3    -0.413163912443E+03    0.24577E-02   -0.52766E-02  5089   0.798E-02    0.316E-01
RMM:   4    -0.413177252333E+03   -0.13340E-01   -0.24713E-02  5076   0.135E-01    0.561E-01
RMM:   5    -0.413159958113E+03    0.17294E-01   -0.91721E-03  4719   0.956E-02    0.457E-02
RMM:   6    -0.413159942248E+03    0.15865E-04   -0.13661E-03  5492   0.362E-02    0.261E-02
RMM:   7    -0.413159970185E+03   -0.27937E-04   -0.23384E-04  5799   0.142E-02    0.182E-02
RMM:   8    -0.413159972585E+03   -0.24004E-05   -0.47091E-05  5133   0.775E-03    0.752E-03
RMM:   9    -0.413159972634E+03   -0.48309E-07   -0.70707E-06  2984   0.321E-03
  142 T=    60. E= -.41286725E+03 F= -.41315997E+03 E0= -.41313928E+03  EK= 0.29272E+00 SP= 0.00E+00 SK= 0.00E+00
       N       E                     dE             d eps       ncg     rms          rms(c)
RMM:   1    -0.413171147546E+03   -0.11175E-01   -0.54041E+00  4269   0.645E-01    0.887E-01
RMM:   2    -0.413166903937E+03    0.42436E-02   -0.71130E-02  4364   0.761E-02    0.639E-01
RMM:   3    -0.413165860175E+03    0.10438E-02   -0.56397E-02  5119   0.891E-02    0.373E-01
RMM:   4    -0.413174856182E+03   -0.89960E-02   -0.23694E-02  5056   0.134E-01    0.527E-01
RMM:   5    -0.413160290215E+03    0.14566E-01   -0.85973E-03  4708   0.898E-02    0.463E-02
RMM:   6    -0.413160266565E+03    0.23650E-04   -0.11118E-03  5326   0.332E-02    0.247E-02
RMM:   7    -0.413160303975E+03   -0.37411E-04   -0.20900E-04  5840   0.136E-02    0.168E-02
RMM:   8    -0.413160311674E+03   -0.76982E-05   -0.44924E-05  5177   0.763E-03    0.686E-03
RMM:   9    -0.413160316608E+03   -0.49342E-05   -0.63689E-06  2921   0.313E-03    0.357E-03
RMM:  10    -0.413160320923E+03   -0.43148E-05   -0.12003E-06  2523   0.177E-03    0.238E-03
RMM:  11    -0.413160329176E+03   -0.82529E-05   -0.15171E-06  2515   0.157E-03    0.114E-03
RMM:  12    -0.413160332714E+03   -0.35382E-05   -0.52538E-07  2085   0.109E-03    0.547E-04
RMM:  13    -0.413160337478E+03   -0.47643E-05   -0.42911E-07  1971   0.933E-04    0.293E-04
RMM:  14    -0.413160342110E+03   -0.46324E-05   -0.36277E-07  1513   0.804E-04    0.214E-04
RMM:  15    -0.413160346632E+03   -0.45214E-05   -0.39336E-07  1653   0.812E-04    0.177E-04
RMM:  16    -0.413160349465E+03   -0.28331E-05   -0.24480E-07  1400   0.704E-04    0.124E-04
RMM:  17    -0.413160352432E+03   -0.29668E-05   -0.26414E-07  1437   0.709E-04    0.761E-05
RMM:  18    -0.413160352965E+03   -0.53289E-06   -0.81223E-08   961   0.550E-04
  143 T=    60. E= -.41286743E+03 F= -.41316035E+03 E0= -.41313967E+03  EK= 0.29292E+00 SP= 0.00E+00 SK= 0.00E+00
       N       E                     dE             d eps       ncg     rms          rms(c)
RMM:   1    -0.413171255131E+03   -0.10903E-01   -0.54256E+00  4264   0.646E-01    0.896E-01
RMM:   2    -0.413166808000E+03    0.44471E-02   -0.71167E-02  4347   0.767E-02    0.645E-01
RMM:   3    -0.413163143285E+03    0.36647E-02   -0.56002E-02  5007   0.751E-02    0.314E-01
RMM:   4    -0.413177437197E+03   -0.14294E-01   -0.22201E-02  5091   0.128E-01    0.561E-01
RMM:   5    -0.413160046383E+03    0.17391E-01   -0.96069E-03  4767   0.959E-02    0.436E-02
RMM:   6    -0.413160049900E+03   -0.35163E-05   -0.13910E-03  5583   0.366E-02    0.251E-02
RMM:   7    -0.413160081983E+03   -0.32083E-04   -0.22701E-04  5733   0.138E-02    0.166E-02
RMM:   8    -0.413160090514E+03   -0.85314E-05   -0.42670E-05  5058   0.721E-03    0.674E-03
RMM:   9    -0.413160093812E+03   -0.32974E-05   -0.65131E-06  3013   0.305E-03    0.355E-03
RMM:  10    -0.413160098795E+03   -0.49832E-05   -0.15931E-06  2540   0.183E-03    0.229E-03
RMM:  11    -0.413160104311E+03   -0.55165E-05   -0.10923E-06  2444   0.141E-03    0.989E-04
RMM:  12    -0.413160109321E+03   -0.50096E-05   -0.62276E-07  2157   0.111E-03    0.419E-04
RMM:  13    -0.413160112046E+03   -0.27251E-05   -0.28392E-07  1629   0.838E-04    0.278E-04
RMM:  14    -0.413160115080E+03   -0.30340E-05   -0.24566E-07  1409   0.773E-04    0.153E-04
RMM:  15    -0.413160118577E+03   -0.34967E-05   -0.28022E-07  1631   0.785E-04    0.167E-04
RMM:  16    -0.413160121425E+03   -0.28480E-05   -0.24554E-07  1502   0.725E-04    0.115E-04
RMM:  17    -0.413160122508E+03   -0.10836E-05   -0.11080E-07  1105   0.597E-04    0.665E-05
RMM:  18    -0.413160123341E+03   -0.83284E-06   -0.78686E-08  1004   0.569E-04
  144 T=    60. E= -.41286712E+03 F= -.41316012E+03 E0= -.41313945E+03  EK= 0.29300E+00 SP= 0.00E+00 SK= 0.00E+00
       N       E                     dE             d eps       ncg     rms          rms(c)
RMM:   1    -0.413172078892E+03   -0.11956E-01   -0.53728E+00  4264   0.649E-01    0.907E-01
RMM:   2    -0.413166944144E+03    0.51347E-02   -0.71586E-02  4341   0.776E-02    0.643E-01
RMM:   3    -0.413162668469E+03    0.42757E-02   -0.52543E-02  4989   0.694E-02    0.269E-01
RMM:   4    -0.413178019646E+03   -0.15351E-01   -0.21446E-02  5095   0.125E-01    0.561E-01
RMM:   5    -0.413160304685E+03    0.17715E-01   -0.92960E-03  4776   0.956E-02    0.436E-02
RMM:   6    -0.413160315710E+03   -0.11025E-04   -0.14419E-03  5621   0.371E-02    0.262E-02
RMM:   7    -0.413160339366E+03   -0.23656E-04   -0.23402E-04  5751   0.136E-02    0.173E-02
RMM:   8    -0.413160342778E+03   -0.34118E-05   -0.40662E-05  5026   0.698E-03    0.701E-03
RMM:   9    -0.413160342696E+03    0.81887E-07   -0.67756E-06  3041   0.307E-03
  145 T=    60. E= -.41286727E+03 F= -.41316034E+03 E0= -.41313967E+03  EK= 0.29308E+00 SP= 0.00E+00 SK= 0.00E+00
       N       E                     dE             d eps       ncg     rms          rms(c)
RMM:   1    -0.413171479320E+03   -0.11137E-01   -0.53651E+00  4268   0.652E-01    0.888E-01
RMM:   2    -0.413167105604E+03    0.43737E-02   -0.70648E-02  4356   0.772E-02    0.638E-01
RMM:   3    -0.413164005553E+03    0.31001E-02   -0.54535E-02  5048   0.786E-02    0.317E-01
RMM:   4    -0.413178004887E+03   -0.13999E-01   -0.23371E-02  5078   0.131E-01    0.565E-01
RMM:   5    -0.413160472433E+03    0.17532E-01   -0.96890E-03  4745   0.973E-02    0.463E-02
RMM:   6    -0.413160456642E+03    0.15791E-04   -0.13893E-03  5505   0.369E-02    0.250E-02
RMM:   7    -0.413160496225E+03   -0.39582E-04   -0.23062E-04  5824   0.137E-02    0.166E-02
RMM:   8    -0.413160503593E+03   -0.73681E-05   -0.44831E-05  5131   0.757E-03    0.706E-03
RMM:   9    -0.413160506830E+03   -0.32374E-05   -0.66637E-06  2999   0.317E-03    0.353E-03
RMM:  10    -0.413160511205E+03   -0.43749E-05   -0.16596E-06  2543   0.188E-03    0.231E-03
RMM:  11    -0.413160517523E+03   -0.63178E-05   -0.14186E-06  2498   0.156E-03    0.107E-03
RMM:  12    -0.413160522016E+03   -0.44936E-05   -0.66520E-07  2217   0.116E-03    0.448E-04
RMM:  13    -0.413160525116E+03   -0.31001E-05   -0.36413E-07  1778   0.883E-04    0.309E-04
RMM:  14    -0.413160529051E+03   -0.39349E-05   -0.39743E-07  1566   0.837E-04    0.205E-04
RMM:  15    -0.413160532589E+03   -0.35375E-05   -0.39708E-07  1692   0.824E-04    0.177E-04
RMM:  16    -0.413160535459E+03   -0.28706E-05   -0.35538E-07  1578   0.766E-04    0.123E-04
RMM:  17    -0.413160537249E+03   -0.17897E-05   -0.22290E-07  1289   0.668E-04    0.698E-05
RMM:  18    -0.413160537648E+03   -0.39849E-06   -0.90150E-08   981   0.560E-04
  146 T=    60. E= -.41286728E+03 F= -.41316054E+03 E0= -.41313987E+03  EK= 0.29326E+00 SP= 0.00E+00 SK= 0.00E+00
       N       E                     dE             d eps       ncg     rms          rms(c)
RMM:   1    -0.413171430407E+03   -0.10893E-01   -0.54511E+00  4264   0.660E-01    0.891E-01
RMM:   2    -0.413167186951E+03    0.42435E-02   -0.71097E-02  4335   0.790E-02    0.644E-01
RMM:   3    -0.413162304330E+03    0.48826E-02   -0.55688E-02  4830   0.667E-02    0.286E-01
RMM:   4    -0.413168748322E+03   -0.64440E-02   -0.11457E-02  5099   0.898E-02    0.387E-01
RMM:   5    -0.413160329492E+03    0.84188E-02   -0.43781E-03  4802   0.665E-02    0.374E-02
RMM:   6    -0.413160339777E+03   -0.10285E-04   -0.77662E-04  5566   0.282E-02    0.249E-02
RMM:   7    -0.413160374679E+03   -0.34902E-04   -0.16727E-04  5410   0.124E-02    0.154E-02
RMM:   8    -0.413160381502E+03   -0.68231E-05   -0.29710E-05  4621   0.619E-03    0.569E-03
RMM:   9    -0.413160385248E+03   -0.37463E-05   -0.50898E-06  2841   0.254E-03    0.343E-03
RMM:  10    -0.413160391823E+03   -0.65747E-05   -0.13565E-06  2508   0.168E-03    0.201E-03
RMM:  11    -0.413160397383E+03   -0.55598E-05   -0.87035E-07  2322   0.126E-03    0.790E-04
RMM:  12    -0.413160402405E+03   -0.50225E-05   -0.49449E-07  2046   0.997E-04    0.374E-04
RMM:  13    -0.413160406320E+03   -0.39146E-05   -0.30235E-07  1506   0.818E-04    0.227E-04
RMM:  14    -0.413160409365E+03   -0.30447E-05   -0.22831E-07  1368   0.753E-04    0.147E-04
RMM:  15    -0.413160412727E+03   -0.33625E-05   -0.28311E-07  1627   0.776E-04    0.148E-04
RMM:  16    -0.413160415900E+03   -0.31724E-05   -0.29137E-07  1568   0.745E-04    0.114E-04
RMM:  17    -0.413160416149E+03   -0.24911E-06   -0.78048E-08   955   0.546E-04
  147 T=    60. E= -.41286703E+03 F= -.41316042E+03 E0= -.41313976E+03  EK= 0.29339E+00 SP= 0.00E+00 SK= 0.00E+00
       N       E                     dE             d eps       ncg     rms          rms(c)
RMM:   1    -0.413172258872E+03   -0.11843E-01   -0.54263E+00  4264   0.654E-01    0.904E-01
RMM:   2    -0.413167516266E+03    0.47426E-02   -0.71566E-02  4336   0.789E-02    0.643E-01
RMM:   3    -0.413162307004E+03    0.52093E-02   -0.51477E-02  4784   0.599E-02    0.239E-01
RMM:   4    -0.413165079022E+03   -0.27720E-02   -0.66645E-03  5109   0.667E-02    0.276E-01
RMM:   5    -0.413160838633E+03    0.42404E-02   -0.22265E-03  4814   0.476E-02    0.362E-02
RMM:   6    -0.413160842960E+03   -0.43270E-05   -0.49194E-04  5478   0.228E-02    0.259E-02
RMM:   7    -0.413160864435E+03   -0.21475E-04   -0.13233E-04  5194   0.112E-02    0.156E-02
RMM:   8    -0.413160864445E+03   -0.10310E-07   -0.23793E-05  4509   0.538E-03    0.567E-03
RMM:   9    -0.413160866112E+03   -0.16664E-05   -0.44515E-06  2662   0.228E-03    0.301E-03
RMM:  10    -0.413160868288E+03   -0.21767E-05   -0.11131E-06  2493   0.153E-03    0.176E-03
RMM:  11    -0.413160870295E+03   -0.20070E-05   -0.82615E-07  2214   0.118E-03    0.664E-04
RMM:  12    -0.413160871977E+03   -0.16811E-05   -0.40159E-07  1916   0.919E-04    0.328E-04
RMM:  13    -0.413160873501E+03   -0.15250E-05   -0.26863E-07  1407   0.780E-04    0.202E-04
RMM:  14    -0.413160875100E+03   -0.15987E-05   -0.28643E-07  1451   0.764E-04    0.149E-04
RMM:  15    -0.413160876465E+03   -0.13644E-05   -0.24783E-07  1367   0.717E-04    0.115E-04
RMM:  16    -0.413160877810E+03   -0.13458E-05   -0.27603E-07  1407   0.721E-04    0.813E-05
RMM:  17    -0.413160878058E+03   -0.24782E-06   -0.76202E-08   942   0.566E-04
  148 T=    60. E= -.41286731E+03 F= -.41316088E+03 E0= -.41314022E+03  EK= 0.29357E+00 SP= 0.00E+00 SK= 0.00E+00
       N       E                     dE             d eps       ncg     rms          rms(c)
RMM:   1    -0.413171565260E+03   -0.10687E-01   -0.54399E+00  4264   0.661E-01    0.889E-01
RMM:   2    -0.413167380579E+03    0.41847E-02   -0.71289E-02  4334   0.790E-02    0.637E-01
RMM:   3    -0.413162125915E+03    0.52547E-02   -0.51443E-02  4625   0.599E-02    0.244E-01
RMM:   4    -0.413160877389E+03    0.12485E-02   -0.31919E-03  4933   0.329E-02    0.665E-02
RMM:   5    -0.413160727266E+03    0.15012E-03   -0.28347E-04  4943   0.155E-02    0.397E-02
RMM:   6    -0.413160715264E+03    0.12002E-04   -0.20927E-04  5109   0.145E-02    0.253E-02
RMM:   7    -0.413160742019E+03   -0.26756E-04   -0.10209E-04  4538   0.993E-03    0.160E-02
RMM:   8    -0.413160740725E+03    0.12944E-05   -0.13939E-05  3670   0.419E-03    0.492E-03
RMM:   9    -0.413160744919E+03   -0.41944E-05   -0.66384E-06  2530   0.228E-03    0.340E-03
RMM:  10    -0.413160748066E+03   -0.31467E-05   -0.10365E-06  2421   0.138E-03    0.218E-03
RMM:  11    -0.413160751470E+03   -0.34040E-05   -0.10740E-06  1918   0.104E-03    0.519E-04
RMM:  12    -0.413160753733E+03   -0.22629E-05   -0.29404E-07  1423   0.762E-04    0.283E-04
RMM:  13    -0.413160756780E+03   -0.30466E-05   -0.35890E-07  1604   0.793E-04    0.206E-04
RMM:  14    -0.413160758104E+03   -0.13247E-05   -0.15693E-07  1175   0.623E-04    0.150E-04
RMM:  15    -0.413160759935E+03   -0.18309E-05   -0.23854E-07  1352   0.679E-04    0.809E-05
RMM:  16    -0.413160760953E+03   -0.10174E-05   -0.13569E-07  1044   0.589E-04    0.523E-05
RMM:  17    -0.413160761250E+03   -0.29709E-06   -0.57504E-08   838   0.522E-04
  149 T=    60. E= -.41286710E+03 F= -.41316076E+03 E0= -.41314011E+03  EK= 0.29366E+00 SP= 0.00E+00 SK= 0.00E+00
       N       E                     dE             d eps       ncg     rms          rms(c)
RMM:   1    -0.413171420617E+03   -0.10660E-01   -0.55623E+00  4264   0.670E-01    0.885E-01
RMM:   2    -0.413167816314E+03    0.36043E-02   -0.71764E-02  4338   0.803E-02    0.642E-01
RMM:   3    -0.413162517987E+03    0.52983E-02   -0.53740E-02  4661   0.616E-02    0.273E-01
RMM:   4    -0.413162363939E+03    0.15405E-03   -0.50264E-03  5128   0.478E-02    0.164E-01
RMM:   5    -0.413160942955E+03    0.14210E-02   -0.84899E-04  4822   0.298E-02    0.355E-02
RMM:   6    -0.413160949053E+03   -0.60984E-05   -0.30150E-04  5335   0.178E-02    0.249E-02
RMM:   7    -0.413160984106E+03   -0.35053E-04   -0.11090E-04  4912   0.995E-03    0.147E-02
RMM:   8    -0.413160986692E+03   -0.25860E-05   -0.17865E-05  4213   0.476E-03    0.481E-03
RMM:   9    -0.413160991574E+03   -0.48818E-05   -0.44226E-06  2586   0.227E-03    0.317E-03
RMM:  10    -0.413160997795E+03   -0.62213E-05   -0.11112E-06  2477   0.147E-03    0.176E-03
RMM:  11    -0.413161004240E+03   -0.64450E-05   -0.90997E-07  2173   0.115E-03    0.637E-04
RMM:  12    -0.413161008711E+03   -0.44711E-05   -0.34764E-07  1733   0.859E-04    0.288E-04
RMM:  13    -0.413161012539E+03   -0.38276E-05   -0.25307E-07  1446   0.753E-04    0.184E-04
RMM:  14    -0.413161016624E+03   -0.40850E-05   -0.30250E-07  1483   0.755E-04    0.148E-04
RMM:  15    -0.413161019292E+03   -0.26685E-05   -0.22357E-07  1354   0.696E-04    0.798E-05
RMM:  16    -0.413161020948E+03   -0.16552E-05   -0.16863E-07  1239   0.644E-04    0.555E-05
RMM:  17    -0.413161021312E+03   -0.36469E-06   -0.77757E-08   944   0.555E-04
  150 T=    60. E= -.41286712E+03 F= -.41316102E+03 E0= -.41314037E+03  EK= 0.29390E+00 SP= 0.00E+00 SK= 0.00E+00
