       N       E                     dE             d eps       ncg     rms          rms(c)
RMM:   1     0.220142686775E+04    0.22014E+04   -0.52441E+04  2132   0.654E+02
RMM:   2     0.705661668400E+03   -0.14958E+04   -0.16263E+04  2132   0.177E+02
RMM:   3     0.137631730351E+03   -0.56803E+03   -0.65743E+03  2132   0.117E+02
RMM:   4    -0.159287378306E+03   -0.29692E+03   -0.27818E+03  2132   0.936E+01
RMM:   5    -0.287534784834E+03   -0.12825E+03   -0.11455E+03  2132   0.595E+01
RMM:   6    -0.349949455192E+03   -0.62415E+02   -0.55131E+02  2132   0.423E+01
RMM:   7    -0.382697653092E+03   -0.32748E+02   -0.30333E+02  2132   0.293E+01
RMM:   8    -0.404218304176E+03   -0.21521E+02   -0.18411E+02  2132   0.233E+01
RMM:   9    -0.436077782903E+03   -0.31859E+02   -0.30713E+02  6114   0.173E+01
RMM:  10    -0.441365042825E+03   -0.52873E+01   -0.62971E+01  6400   0.539E+00
RMM:  11    -0.442527806671E+03   -0.11628E+01   -0.10953E+01  6199   0.173E+00
RMM:  12    -0.442886793481E+03   -0.35899E+00   -0.24590E+00  6375   0.590E-01    0.134E+02
RMM:  13    -0.425616414356E+03    0.17270E+02   -0.81161E+01  4676   0.119E+01    0.712E+01
RMM:  14    -0.499781930387E+03   -0.74166E+02   -0.54118E+02  5419   0.233E+01    0.307E+01
RMM:  15    -0.415880643473E+03    0.83901E+02   -0.19933E+02  5077   0.164E+01    0.702E+00
RMM:  16    -0.413999301341E+03    0.18813E+01   -0.39582E+01  6085   0.611E+00    0.423E+00
RMM:  17    -0.413215516848E+03    0.78378E+00   -0.25571E+00  5387   0.187E+00    0.244E+00
RMM:  18    -0.413174321585E+03    0.41195E-01   -0.78879E-01  5970   0.909E-01    0.166E+00
RMM:  19    -0.413169021150E+03    0.53004E-02   -0.29295E-01  5689   0.580E-01    0.864E-01
RMM:  20    -0.413187090784E+03   -0.18070E-01   -0.24630E-01  5566   0.523E-01    0.595E-01
RMM:  21    -0.413167982502E+03    0.19108E-01   -0.35288E-02  5002   0.238E-01    0.266E-01
RMM:  22    -0.413165731074E+03    0.22514E-02   -0.17735E-02  6016   0.120E-01    0.137E-01
RMM:  23    -0.413164566906E+03    0.11642E-02   -0.58555E-03  5986   0.691E-02    0.857E-02
RMM:  24    -0.413163335404E+03    0.12315E-02   -0.16678E-03  5298   0.413E-02    0.483E-02
RMM:  25    -0.413162891375E+03    0.44403E-03   -0.89648E-04  5387   0.284E-02    0.360E-02
RMM:  26    -0.413163042005E+03   -0.15063E-03   -0.88503E-04  5839   0.299E-02    0.330E-02
RMM:  27    -0.413163484232E+03   -0.44223E-03   -0.19662E-04  4549   0.200E-02    0.197E-02
RMM:  28    -0.413163933660E+03   -0.44943E-03   -0.17017E-04  5230   0.182E-02    0.991E-03
RMM:  29    -0.413164351885E+03   -0.41822E-03   -0.11835E-04  4494   0.162E-02    0.441E-03
RMM:  30    -0.413164571030E+03   -0.21915E-03   -0.79471E-05  4421   0.102E-02    0.401E-03
RMM:  31    -0.413164702265E+03   -0.13123E-03   -0.54898E-05  3218   0.713E-03    0.349E-03
RMM:  32    -0.413164725207E+03   -0.22943E-04   -0.20956E-05  2990   0.307E-03    0.183E-03
RMM:  33    -0.413164736644E+03   -0.11437E-04   -0.86520E-06  2801   0.235E-03    0.589E-04
RMM:  34    -0.413164738119E+03   -0.14745E-05   -0.47410E-06  2636   0.163E-03    0.686E-04
RMM:  35    -0.413164737771E+03    0.34727E-06   -0.21999E-06  2329   0.123E-03
    1 T=    61. E= -.41286693E+03 F= -.41316474E+03 E0= -.41314224E+03  EK= 0.29781E+00 SP= 0.00E+00 SK= 0.00E+00
       N       E                     dE             d eps       ncg     rms          rms(c)
RMM:   1    -0.413160534863E+03    0.42033E-02   -0.97026E+00  3991   0.643E-01    0.885E-01
RMM:   2    -0.413167777518E+03   -0.72427E-02   -0.11894E-01  3991   0.920E-02    0.648E-01
RMM:   3    -0.413164679205E+03    0.30983E-02   -0.12285E-02  4792   0.439E-02    0.103E-01
RMM:   4    -0.413186150295E+03   -0.21471E-01   -0.22698E-02  5206   0.125E-01    0.612E-01
RMM:   5    -0.413164299239E+03    0.21851E-01   -0.10774E-02  4848   0.103E-01    0.439E-02
RMM:   6    -0.413164453096E+03   -0.15386E-03   -0.19100E-03  5796   0.423E-02    0.302E-02
RMM:   7    -0.413164456915E+03   -0.38183E-05   -0.35462E-04  5680   0.173E-02    0.184E-02
RMM:   8    -0.413164456345E+03    0.56975E-06   -0.44996E-05  4939   0.728E-03    0.804E-03
RMM:   9    -0.413164459452E+03   -0.31074E-05   -0.97727E-06  3440   0.333E-03    0.622E-03
RMM:  10    -0.413164464514E+03   -0.50615E-05   -0.18039E-06  2568   0.203E-03    0.383E-03
RMM:  11    -0.413164470040E+03   -0.55266E-05   -0.14016E-06  2541   0.173E-03    0.191E-03
RMM:  12    -0.413164477090E+03   -0.70501E-05   -0.14476E-06  2537   0.170E-03    0.813E-04
RMM:  13    -0.413164478485E+03   -0.13944E-05   -0.54143E-07  2255   0.112E-03    0.515E-04
RMM:  14    -0.413164478814E+03   -0.32959E-06   -0.30236E-07  1713   0.787E-04
    2 T=    61. E= -.41286671E+03 F= -.41316448E+03 E0= -.41314198E+03  EK= 0.29777E+00 SP= 0.00E+00 SK= 0.00E+00
       N       E                     dE             d eps       ncg     rms          rms(c)
RMM:   1    -0.413161585698E+03    0.28928E-02   -0.97088E+00  4191   0.648E-01    0.906E-01
RMM:   2    -0.413167821407E+03   -0.62357E-02   -0.11723E-01  3965   0.903E-02    0.643E-01
RMM:   3    -0.413165309611E+03    0.25118E-02   -0.12021E-02  4837   0.434E-02    0.120E-01
RMM:   4    -0.413190575387E+03   -0.25266E-01   -0.26086E-02  5176   0.135E-01    0.664E-01
RMM:   5    -0.413164856299E+03    0.25719E-01   -0.12460E-02  4827   0.111E-01    0.465E-02
RMM:   6    -0.413165029394E+03   -0.17310E-03   -0.21978E-03  5771   0.457E-02    0.320E-02
RMM:   7    -0.413165023630E+03    0.57649E-05   -0.38860E-04  5682   0.182E-02    0.195E-02
RMM:   8    -0.413165016845E+03    0.67850E-05   -0.53972E-05  5061   0.803E-03    0.895E-03
RMM:   9    -0.413165015564E+03    0.12810E-05   -0.10952E-05  3676   0.368E-03    0.679E-03
RMM:  10    -0.413165016076E+03   -0.51281E-06   -0.17553E-06  2561   0.213E-03
    3 T=    61. E= -.41286702E+03 F= -.41316502E+03 E0= -.41314252E+03  EK= 0.29800E+00 SP= 0.00E+00 SK= 0.00E+00
       N       E                     dE             d eps       ncg     rms          rms(c)
RMM:   1    -0.413161108898E+03    0.39067E-02   -0.96326E+00  4222   0.649E-01    0.890E-01
RMM:   2    -0.413167568679E+03   -0.64598E-02   -0.11667E-01  4181   0.911E-02    0.637E-01
RMM:   3    -0.413168828113E+03   -0.12594E-02   -0.14715E-02  5146   0.723E-02    0.286E-01
RMM:   4    -0.413193784413E+03   -0.24956E-01   -0.41147E-02  5130   0.172E-01    0.704E-01
RMM:   5    -0.413164729010E+03    0.29055E-01   -0.11843E-02  4731   0.116E-01    0.600E-02
RMM:   6    -0.413164780779E+03   -0.51770E-04   -0.21821E-03  5520   0.468E-02    0.301E-02
RMM:   7    -0.413164801838E+03   -0.21059E-04   -0.38108E-04  6030   0.172E-02    0.186E-02
RMM:   8    -0.413164799876E+03    0.19614E-05   -0.68848E-05  5244   0.919E-03    0.799E-03
RMM:   9    -0.413164797841E+03    0.20353E-05   -0.94216E-06  3528   0.376E-03    0.400E-03
RMM:  10    -0.413164799206E+03   -0.13648E-05   -0.20490E-06  2587   0.218E-03    0.263E-03
RMM:  11    -0.413164801180E+03   -0.19741E-05   -0.14340E-06  2532   0.187E-03    0.155E-03
RMM:  12    -0.413164802181E+03   -0.10011E-05   -0.77851E-07  2493   0.143E-03    0.585E-04
RMM:  13    -0.413164802799E+03   -0.61806E-06   -0.39250E-07  2089   0.101E-03
    4 T=    61. E= -.41286681E+03 F= -.41316480E+03 E0= -.41314232E+03  EK= 0.29799E+00 SP= 0.00E+00 SK= 0.00E+00
       N       E                     dE             d eps       ncg     rms          rms(c)
RMM:   1    -0.413161062245E+03    0.37399E-02   -0.96853E+00  4234   0.655E-01    0.883E-01
RMM:   2    -0.413168108142E+03   -0.70459E-02   -0.11886E-01  4035   0.906E-02    0.647E-01
RMM:   3    -0.413165337453E+03    0.27707E-02   -0.12370E-02  4908   0.446E-02    0.116E-01
RMM:   4    -0.413194387805E+03   -0.29050E-01   -0.30262E-02  5151   0.145E-01    0.712E-01
RMM:   5    -0.413164751153E+03    0.29637E-01   -0.14135E-02  4809   0.118E-01    0.471E-02
RMM:   6    -0.413164950206E+03   -0.19905E-03   -0.25001E-03  5769   0.482E-02    0.308E-02
RMM:   7    -0.413164957729E+03   -0.75236E-05   -0.40176E-04  5738   0.181E-02    0.196E-02
RMM:   8    -0.413164956354E+03    0.13751E-05   -0.59780E-05  5030   0.822E-03    0.908E-03
RMM:   9    -0.413164957796E+03   -0.14418E-05   -0.12085E-05  3815   0.390E-03    0.684E-03
RMM:  10    -0.413164961956E+03   -0.41602E-05   -0.17877E-06  2570   0.211E-03    0.433E-03
RMM:  11    -0.413164966296E+03   -0.43397E-05   -0.13120E-06  2533   0.179E-03    0.226E-03
RMM:  12    -0.413164972339E+03   -0.60435E-05   -0.17572E-06  2581   0.190E-03    0.948E-04
RMM:  13    -0.413164973556E+03   -0.12167E-05   -0.49111E-07  2329   0.121E-03    0.620E-04
RMM:  14    -0.413164973516E+03    0.40276E-07   -0.21603E-07  1782   0.814E-04
    5 T=    61. E= -.41286686E+03 F= -.41316497E+03 E0= -.41314250E+03  EK= 0.29812E+00 SP= 0.00E+00 SK= 0.00E+00
       N       E                     dE             d eps       ncg     rms          rms(c)
RMM:   1    -0.413161953050E+03    0.30205E-02   -0.97064E+00  4245   0.661E-01    0.902E-01
RMM:   2    -0.413168143081E+03   -0.61900E-02   -0.11753E-01  4060   0.919E-02    0.645E-01
RMM:   3    -0.413165631409E+03    0.25117E-02   -0.12074E-02  4783   0.423E-02    0.111E-01
RMM:   4    -0.413186775003E+03   -0.21144E-01   -0.21591E-02  5155   0.123E-01    0.609E-01
RMM:   5    -0.413165273159E+03    0.21502E-01   -0.10463E-02  4818   0.101E-01    0.442E-02
RMM:   6    -0.413165420945E+03   -0.14779E-03   -0.18725E-03  5772   0.415E-02    0.302E-02
RMM:   7    -0.413165416403E+03    0.45424E-05   -0.34179E-04  5629   0.174E-02    0.187E-02
RMM:   8    -0.413165408520E+03    0.78830E-05   -0.48130E-05  4919   0.772E-03    0.872E-03
RMM:   9    -0.413165407494E+03    0.10260E-05   -0.96095E-06  3532   0.351E-03    0.672E-03
RMM:  10    -0.413165408081E+03   -0.58734E-06   -0.16101E-06  2544   0.211E-03
    6 T=    61. E= -.41286704E+03 F= -.41316541E+03 E0= -.41314295E+03  EK= 0.29836E+00 SP= 0.00E+00 SK= 0.00E+00
       N       E                     dE             d eps       ncg     rms          rms(c)
RMM:   1    -0.413161614451E+03    0.37930E-02   -0.96516E+00  4257   0.663E-01    0.897E-01
RMM:   2    -0.413167884859E+03   -0.62704E-02   -0.11681E-01  4211   0.902E-02    0.638E-01
RMM:   3    -0.413168409672E+03   -0.52481E-03   -0.14164E-02  5110   0.669E-02    0.259E-01
RMM:   4    -0.413197384494E+03   -0.28975E-01   -0.42685E-02  5120   0.174E-01    0.741E-01
RMM:   5    -0.413165105802E+03    0.32279E-01   -0.13613E-02  4748   0.122E-01    0.596E-02
RMM:   6    -0.413165188957E+03   -0.83155E-04   -0.24418E-03  5570   0.492E-02    0.307E-02
RMM:   7    -0.413165207993E+03   -0.19035E-04   -0.40113E-04  6014   0.173E-02    0.188E-02
RMM:   8    -0.413165204102E+03    0.38909E-05   -0.69352E-05  5226   0.910E-03    0.811E-03
RMM:   9    -0.413165200579E+03    0.35232E-05   -0.98493E-06  3500   0.372E-03    0.420E-03
RMM:  10    -0.413165200645E+03   -0.66149E-07   -0.23170E-06  2601   0.225E-03
    7 T=    61. E= -.41286678E+03 F= -.41316520E+03 E0= -.41314275E+03  EK= 0.29842E+00 SP= 0.00E+00 SK= 0.00E+00
       N       E                     dE             d eps       ncg     rms          rms(c)
RMM:   1    -0.413161830044E+03    0.33705E-02   -0.96626E+00  4262   0.668E-01    0.881E-01
RMM:   2    -0.413168969315E+03   -0.71393E-02   -0.11829E-01  4148   0.910E-02    0.644E-01
RMM:   3    -0.413166510026E+03    0.24593E-02   -0.12554E-02  4970   0.502E-02    0.141E-01
RMM:   4    -0.413203823392E+03   -0.37313E-01   -0.40395E-02  5140   0.168E-01    0.805E-01
RMM:   5    -0.413165540890E+03    0.38283E-01   -0.18149E-02  4803   0.134E-01    0.514E-02
RMM:   6    -0.413165751286E+03   -0.21040E-03   -0.30020E-03  5757   0.542E-02    0.319E-02
RMM:   7    -0.413165762700E+03   -0.11414E-04   -0.46805E-04  5860   0.192E-02    0.206E-02
RMM:   8    -0.413165761477E+03    0.12236E-05   -0.71686E-05  5214   0.887E-03    0.954E-03
RMM:   9    -0.413165761194E+03    0.28282E-06   -0.13787E-05  3970   0.416E-03    0.648E-03
RMM:  10    -0.413165764452E+03   -0.32587E-05   -0.22246E-06  2596   0.219E-03    0.416E-03
RMM:  11    -0.413165767389E+03   -0.29366E-05   -0.12246E-06  2529   0.173E-03    0.221E-03
RMM:  12    -0.413165771435E+03   -0.40462E-05   -0.17070E-06  2571   0.189E-03    0.894E-04
RMM:  13    -0.413165772570E+03   -0.11349E-05   -0.59074E-07  2349   0.126E-03    0.681E-04
RMM:  14    -0.413165772361E+03    0.20920E-06   -0.23862E-07  1840   0.844E-04
    8 T=    61. E= -.41286701E+03 F= -.41316577E+03 E0= -.41314334E+03  EK= 0.29877E+00 SP= 0.00E+00 SK= 0.00E+00
       N       E                     dE             d eps       ncg     rms          rms(c)
RMM:   1    -0.413162326448E+03    0.34461E-02   -0.97074E+00  4282   0.676E-01    0.897E-01
RMM:   2    -0.413169065741E+03   -0.67393E-02   -0.11802E-01  4161   0.925E-02    0.647E-01
RMM:   3    -0.413166204145E+03    0.28616E-02   -0.12223E-02  4800   0.434E-02    0.111E-01
RMM:   4    -0.413189396320E+03   -0.23192E-01   -0.23854E-02  5146   0.129E-01    0.637E-01
RMM:   5    -0.413165793329E+03    0.23603E-01   -0.11457E-02  4809   0.106E-01    0.446E-02
RMM:   6    -0.413165949035E+03   -0.15571E-03   -0.20298E-03  5783   0.430E-02    0.296E-02
RMM:   7    -0.413165950400E+03   -0.13642E-05   -0.34064E-04  5652   0.175E-02    0.187E-02
RMM:   8    -0.413165943099E+03    0.73008E-05   -0.55673E-05  4967   0.807E-03    0.907E-03
RMM:   9    -0.413165941725E+03    0.13739E-05   -0.10885E-05  3723   0.375E-03    0.697E-03
RMM:  10    -0.413165942494E+03   -0.76892E-06   -0.16334E-06  2550   0.212E-03
    9 T=    61. E= -.41286691E+03 F= -.41316594E+03 E0= -.41314353E+03  EK= 0.29903E+00 SP= 0.00E+00 SK= 0.00E+00
       N       E                     dE             d eps       ncg     rms          rms(c)
RMM:   1    -0.413165279283E+03    0.66244E-03   -0.97059E+00  4298   0.699E-01    0.904E-01
RMM:   2    -0.413168800064E+03   -0.35208E-02   -0.11672E-01  4295   0.931E-02    0.640E-01
RMM:   3    -0.413169797240E+03   -0.99718E-03   -0.14779E-02  5098   0.718E-02    0.279E-01
RMM:   4    -0.413195533689E+03   -0.25736E-01   -0.41119E-02  5100   0.171E-01    0.710E-01
RMM:   5    -0.413165931014E+03    0.29603E-01   -0.12187E-02  4727   0.117E-01    0.590E-02
RMM:   6    -0.413166000558E+03   -0.69544E-04   -0.22394E-03  5545   0.470E-02    0.309E-02
RMM:   7    -0.413166012702E+03   -0.12143E-04   -0.37536E-04  5992   0.170E-02    0.188E-02
RMM:   8    -0.413166007268E+03    0.54337E-05   -0.66483E-05  5204   0.899E-03    0.801E-03
RMM:   9    -0.413166002685E+03    0.45831E-05   -0.91125E-06  3450   0.367E-03    0.409E-03
RMM:  10    -0.413166001722E+03    0.96288E-06   -0.21304E-06  2582   0.221E-03
   10 T=    61. E= -.41286676E+03 F= -.41316600E+03 E0= -.41314362E+03  EK= 0.29924E+00 SP= 0.00E+00 SK= 0.00E+00
       N       E                     dE             d eps       ncg     rms          rms(c)
RMM:   1    -0.413163009678E+03    0.29930E-02   -0.96452E+00  4293   0.685E-01    0.882E-01
RMM:   2    -0.413169825471E+03   -0.68158E-02   -0.11795E-01  4236   0.931E-02    0.642E-01
RMM:   3    -0.413167547552E+03    0.22779E-02   -0.12462E-02  4969   0.503E-02    0.146E-01
RMM:   4    -0.413205394790E+03   -0.37847E-01   -0.41285E-02  5135   0.169E-01    0.811E-01
RMM:   5    -0.413166538879E+03    0.38856E-01   -0.18430E-02  4800   0.135E-01    0.521E-02
RMM:   6    -0.413166751956E+03   -0.21308E-03   -0.30921E-03  5747   0.544E-02    0.324E-02
RMM:   7    -0.413166759278E+03   -0.73216E-05   -0.47718E-04  5842   0.192E-02    0.209E-02
RMM:   8    -0.413166755498E+03    0.37793E-05   -0.72440E-05  5220   0.891E-03    0.970E-03
RMM:   9    -0.413166753261E+03    0.22375E-05   -0.14059E-05  4013   0.420E-03    0.655E-03
RMM:  10    -0.413166754489E+03   -0.12284E-05   -0.22506E-06  2595   0.220E-03    0.422E-03
RMM:  11    -0.413166755653E+03   -0.11639E-05   -0.11677E-06  2520   0.171E-03    0.231E-03
RMM:  12    -0.413166757088E+03   -0.14351E-05   -0.16971E-06  2577   0.190E-03    0.914E-04
RMM:  13    -0.413166757329E+03   -0.24053E-06   -0.59759E-07  2363   0.128E-03
   11 T=    61. E= -.41286708E+03 F= -.41316676E+03 E0= -.41314440E+03  EK= 0.29968E+00 SP= 0.00E+00 SK= 0.00E+00
       N       E                     dE             d eps       ncg     rms          rms(c)
RMM:   1    -0.413163066161E+03    0.36909E-02   -0.97144E+00  4295   0.686E-01    0.893E-01
RMM:   2    -0.413169825153E+03   -0.67590E-02   -0.11870E-01  4242   0.927E-02    0.649E-01
RMM:   3    -0.413167030888E+03    0.27943E-02   -0.12410E-02  4813   0.449E-02    0.111E-01
RMM:   4    -0.413192579625E+03   -0.25549E-01   -0.26463E-02  5140   0.135E-01    0.668E-01
RMM:   5    -0.413166555664E+03    0.26024E-01   -0.12638E-02  4810   0.111E-01    0.452E-02
RMM:   6    -0.413166728348E+03   -0.17268E-03   -0.21952E-03  5796   0.448E-02    0.293E-02
RMM:   7    -0.413166733000E+03   -0.46527E-05   -0.34588E-04  5698   0.175E-02    0.187E-02
RMM:   8    -0.413166726516E+03    0.64842E-05   -0.61484E-05  4991   0.836E-03    0.935E-03
RMM:   9    -0.413166724682E+03    0.18341E-05   -0.12142E-05  3910   0.398E-03    0.712E-03
RMM:  10    -0.413166725529E+03   -0.84696E-06   -0.16823E-06  2549   0.212E-03
   12 T=    61. E= -.41286678E+03 F= -.41316673E+03 E0= -.41314439E+03  EK= 0.29995E+00 SP= 0.00E+00 SK= 0.00E+00
       N       E                     dE             d eps       ncg     rms          rms(c)
RMM:   1    -0.413164098165E+03    0.26265E-02   -0.97098E+00  4309   0.690E-01    0.909E-01
RMM:   2    -0.413169792003E+03   -0.56938E-02   -0.11723E-01  4310   0.905E-02    0.643E-01
RMM:   3    -0.413171799693E+03   -0.20077E-02   -0.15528E-02  5120   0.743E-02    0.302E-01
RMM:   4    -0.413194395497E+03   -0.22596E-01   -0.40288E-02  5090   0.170E-01    0.681E-01
RMM:   5    -0.413167225509E+03    0.27170E-01   -0.10824E-02  4704   0.111E-01    0.587E-02
RMM:   6    -0.413167275845E+03   -0.50336E-04   -0.20526E-03  5500   0.448E-02    0.309E-02
RMM:   7    -0.413167287558E+03   -0.11713E-04   -0.35934E-04  5996   0.169E-02    0.188E-02
RMM:   8    -0.413167281165E+03    0.63930E-05   -0.65615E-05  5177   0.906E-03    0.797E-03
RMM:   9    -0.413167275450E+03    0.57150E-05   -0.86772E-06  3421   0.368E-03    0.402E-03
RMM:  10    -0.413167273701E+03    0.17489E-05   -0.19573E-06  2563   0.217E-03    0.263E-03
RMM:  11    -0.413167270838E+03    0.28629E-05   -0.13396E-06  2514   0.183E-03    0.149E-03
RMM:  12    -0.413167268289E+03    0.25486E-05   -0.72798E-07  2470   0.141E-03    0.559E-04
RMM:  13    -0.413167266762E+03    0.15275E-05   -0.37097E-07  2075   0.100E-03    0.322E-04
RMM:  14    -0.413167265334E+03    0.14274E-05   -0.22448E-07  1629   0.806E-04    0.222E-04
RMM:  15    -0.413167263006E+03    0.23285E-05   -0.21724E-07  1551   0.766E-04    0.135E-04
RMM:  16    -0.413167260805E+03    0.22014E-05   -0.17112E-07  1411   0.707E-04    0.126E-04
RMM:  17    -0.413167258553E+03    0.22510E-05   -0.14646E-07  1392   0.675E-04    0.672E-05
RMM:  18    -0.413167257486E+03    0.10672E-05   -0.72838E-08  1022   0.577E-04    0.392E-05
RMM:  19    -0.413167256667E+03    0.81954E-06   -0.45756E-08   873   0.544E-04
   13 T=    61. E= -.41286686E+03 F= -.41316726E+03 E0= -.41314496E+03  EK= 0.30040E+00 SP= 0.00E+00 SK= 0.00E+00
       N       E                     dE             d eps       ncg     rms          rms(c)
RMM:   1    -0.413164187333E+03    0.30702E-02   -0.96424E+00  4293   0.696E-01    0.885E-01
RMM:   2    -0.413170822607E+03   -0.66353E-02   -0.11770E-01  4252   0.935E-02    0.641E-01
RMM:   3    -0.413168504496E+03    0.23181E-02   -0.12258E-02  4929   0.460E-02    0.132E-01
RMM:   4    -0.413202254831E+03   -0.33750E-01   -0.36009E-02  5137   0.158E-01    0.766E-01
RMM:   5    -0.413167752143E+03    0.34503E-01   -0.16617E-02  4792   0.127E-01    0.497E-02
RMM:   6    -0.413167962079E+03   -0.20994E-03   -0.28412E-03  5753   0.516E-02    0.324E-02
RMM:   7    -0.413167963588E+03   -0.15089E-05   -0.43998E-04  5698   0.189E-02    0.206E-02
RMM:   8    -0.413167957390E+03    0.61982E-05   -0.67424E-05  5150   0.873E-03    0.972E-03
RMM:   9    -0.413167954391E+03    0.29987E-05   -0.13925E-05  4037   0.418E-03    0.699E-03
RMM:  10    -0.413167954339E+03    0.52081E-07   -0.19553E-06  2569   0.215E-03
   14 T=    61. E= -.41286705E+03 F= -.41316795E+03 E0= -.41314569E+03  EK= 0.30090E+00 SP= 0.00E+00 SK= 0.00E+00
       N       E                     dE             d eps       ncg     rms          rms(c)
RMM:   1    -0.413164327267E+03    0.36271E-02   -0.97268E+00  4305   0.699E-01    0.891E-01
RMM:   2    -0.413171315718E+03   -0.69885E-02   -0.11923E-01  4327   0.933E-02    0.651E-01
RMM:   3    -0.413173913550E+03   -0.25978E-02   -0.16972E-02  5128   0.815E-02    0.336E-01
RMM:   4    -0.413194393886E+03   -0.20480E-01   -0.42298E-02  5084   0.175E-01    0.670E-01
RMM:   5    -0.413167944852E+03    0.26449E-01   -0.10159E-02  4682   0.109E-01    0.582E-02
RMM:   6    -0.413167975373E+03   -0.30521E-04   -0.19389E-03  5466   0.434E-02    0.290E-02
RMM:   7    -0.413167996696E+03   -0.21323E-04   -0.33814E-04  5979   0.167E-02    0.180E-02
RMM:   8    -0.413167996070E+03    0.62517E-06   -0.65074E-05  5170   0.900E-03    0.763E-03
RMM:   9    -0.413167994288E+03    0.17830E-05   -0.87264E-06  3425   0.373E-03    0.379E-03
RMM:  10    -0.413167995412E+03   -0.11242E-05   -0.17232E-06  2544   0.209E-03    0.245E-03
RMM:  11    -0.413167997069E+03   -0.16573E-05   -0.14552E-06  2532   0.185E-03    0.154E-03
RMM:  12    -0.413167997554E+03   -0.48506E-06   -0.69000E-07  2464   0.138E-03
   15 T=    61. E= -.41286671E+03 F= -.41316800E+03 E0= -.41314576E+03  EK= 0.30129E+00 SP= 0.00E+00 SK= 0.00E+00
       N       E                     dE             d eps       ncg     rms          rms(c)
RMM:   1    -0.413165943893E+03    0.20532E-02   -0.97361E+00  4298   0.705E-01    0.911E-01
RMM:   2    -0.413171931917E+03   -0.59880E-02   -0.11774E-01  4264   0.939E-02    0.645E-01
RMM:   3    -0.413169631094E+03    0.23008E-02   -0.12519E-02  4930   0.480E-02    0.141E-01
RMM:   4    -0.413204756129E+03   -0.35125E-01   -0.37591E-02  5136   0.161E-01    0.781E-01
RMM:   5    -0.413168835522E+03    0.35921E-01   -0.17345E-02  4794   0.130E-01    0.508E-02
RMM:   6    -0.413169042658E+03   -0.20714E-03   -0.29415E-03  5758   0.528E-02    0.338E-02
RMM:   7    -0.413169037450E+03    0.52086E-05   -0.45767E-04  5739   0.197E-02    0.214E-02
RMM:   8    -0.413169026980E+03    0.10469E-04   -0.72612E-05  5176   0.909E-03    0.104E-02
RMM:   9    -0.413169020643E+03    0.63375E-05   -0.14338E-05  4076   0.428E-03    0.736E-03
RMM:  10    -0.413169016937E+03    0.37061E-05   -0.20813E-06  2579   0.224E-03    0.462E-03
RMM:  11    -0.413169014077E+03    0.28602E-05   -0.12430E-06  2518   0.177E-03    0.258E-03
RMM:  12    -0.413169008810E+03    0.52668E-05   -0.18766E-06  2590   0.204E-03    0.105E-03
RMM:  13    -0.413169006447E+03    0.23626E-05   -0.58822E-07  2393   0.134E-03    0.796E-04
RMM:  14    -0.413169006605E+03   -0.15768E-06   -0.24434E-07  1932   0.869E-04
   16 T=    61. E= -.41286696E+03 F= -.41316901E+03 E0= -.41314681E+03  EK= 0.30205E+00 SP= 0.00E+00 SK= 0.00E+00
       N       E                     dE             d eps       ncg     rms          rms(c)
RMM:   1    -0.413167985277E+03    0.10212E-02   -0.96859E+00  4300   0.726E-01    0.892E-01
RMM:   2    -0.413172510933E+03   -0.45257E-02   -0.11751E-01  4273   0.935E-02    0.641E-01
RMM:   3    -0.413169867653E+03    0.26433E-02   -0.12166E-02  4837   0.461E-02    0.123E-01
RMM:   4    -0.413198776764E+03   -0.28909E-01   -0.30283E-02  5131   0.144E-01    0.710E-01
RMM:   5    -0.413169285124E+03    0.29492E-01   -0.14328E-02  4794   0.118E-01    0.474E-02
RMM:   6    -0.413169469837E+03   -0.18471E-03   -0.24808E-03  5787   0.477E-02    0.313E-02
RMM:   7    -0.413169469452E+03    0.38470E-06   -0.39059E-04  5686   0.184E-02    0.198E-02
RMM:   8    -0.413169459834E+03    0.96186E-05   -0.66402E-05  5053   0.867E-03    0.983E-03
RMM:   9    -0.413169455078E+03    0.47556E-05   -0.13128E-05  4001   0.413E-03    0.733E-03
RMM:  10    -0.413169452796E+03    0.22824E-05   -0.17934E-06  2554   0.215E-03    0.459E-03
RMM:  11    -0.413169450685E+03    0.21107E-05   -0.13334E-06  2519   0.184E-03    0.240E-03
RMM:  12    -0.413169447419E+03    0.32664E-05   -0.15932E-06  2546   0.192E-03    0.947E-04
RMM:  13    -0.413169446275E+03    0.11439E-05   -0.48250E-07  2312   0.123E-03    0.617E-04
RMM:  14    -0.413169446103E+03    0.17139E-06   -0.21962E-07  1832   0.829E-04
   17 T=    62. E= -.41286682E+03 F= -.41316945E+03 E0= -.41314729E+03  EK= 0.30263E+00 SP= 0.00E+00 SK= 0.00E+00
       N       E                     dE             d eps       ncg     rms          rms(c)
RMM:   1    -0.413166342990E+03    0.31033E-02   -0.97431E+00  4297   0.711E-01    0.889E-01
RMM:   2    -0.413173247594E+03   -0.69046E-02   -0.11992E-01  4272   0.945E-02    0.652E-01
RMM:   3    -0.413170356705E+03    0.28909E-02   -0.12805E-02  4867   0.471E-02    0.118E-01
RMM:   4    -0.413200697898E+03   -0.30341E-01   -0.31950E-02  5128   0.148E-01    0.726E-01
RMM:   5    -0.413169730661E+03    0.30967E-01   -0.15039E-02  4791   0.121E-01    0.478E-02
RMM:   6    -0.413169925311E+03   -0.19465E-03   -0.25871E-03  5784   0.486E-02    0.314E-02
RMM:   7    -0.413169928769E+03   -0.34581E-05   -0.40640E-04  5673   0.185E-02    0.199E-02
RMM:   8    -0.413169922864E+03    0.59046E-05   -0.63984E-05  5087   0.855E-03    0.948E-03
RMM:   9    -0.413169920453E+03    0.24109E-05   -0.13175E-05  3934   0.408E-03    0.697E-03
RMM:  10    -0.413169920814E+03   -0.36076E-06   -0.18061E-06  2555   0.211E-03
   18 T=    62. E= -.41286669E+03 F= -.41316992E+03 E0= -.41314780E+03  EK= 0.30323E+00 SP= 0.00E+00 SK= 0.00E+00
       N       E                     dE             d eps       ncg     rms          rms(c)
RMM:   1    -0.413167973374E+03    0.19471E-02   -0.97667E+00  4305   0.719E-01    0.910E-01
RMM:   2    -0.413174003340E+03   -0.60300E-02   -0.11883E-01  4324   0.936E-02    0.649E-01
RMM:   3    -0.413176141411E+03   -0.21381E-02   -0.16075E-02  5109   0.779E-02    0.313E-01
RMM:   4    -0.413198339961E+03   -0.22199E-01   -0.41285E-02  5081   0.172E-01    0.680E-01
RMM:   5    -0.413171116190E+03    0.27224E-01   -0.10749E-02  4693   0.111E-01    0.583E-02
RMM:   6    -0.413171165243E+03   -0.49053E-04   -0.20404E-03  5486   0.446E-02    0.308E-02
RMM:   7    -0.413171173667E+03   -0.84235E-05   -0.35790E-04  5983   0.169E-02    0.190E-02
RMM:   8    -0.413171166141E+03    0.75260E-05   -0.66884E-05  5168   0.911E-03    0.802E-03
RMM:   9    -0.413171159551E+03    0.65902E-05   -0.89406E-06  3452   0.375E-03    0.398E-03
RMM:  10    -0.413171157347E+03    0.22037E-05   -0.19217E-06  2558   0.216E-03    0.261E-03
RMM:  11    -0.413171153579E+03    0.37678E-05   -0.12852E-06  2512   0.181E-03    0.150E-03
RMM:  12    -0.413171150374E+03    0.32048E-05   -0.67049E-07  2459   0.138E-03    0.542E-04
RMM:  13    -0.413171148409E+03    0.19650E-05   -0.33685E-07  2063   0.981E-04    0.312E-04
RMM:  14    -0.413171146660E+03    0.17498E-05   -0.19454E-07  1571   0.783E-04    0.216E-04
RMM:  15    -0.413171143686E+03    0.29733E-05   -0.17399E-07  1465   0.738E-04    0.125E-04
RMM:  16    -0.413171141042E+03    0.26448E-05   -0.13334E-07  1362   0.682E-04    0.121E-04
RMM:  17    -0.413171138126E+03    0.29158E-05   -0.11646E-07  1312   0.658E-04    0.666E-05
RMM:  18    -0.413171136648E+03    0.14782E-05   -0.63272E-08  1029   0.580E-04    0.399E-05
RMM:  19    -0.413171135711E+03    0.93636E-06   -0.36137E-08   857   0.546E-04
   19 T=    62. E= -.41286700E+03 F= -.41317114E+03 E0= -.41314906E+03  EK= 0.30413E+00 SP= 0.00E+00 SK= 0.00E+00
       N       E                     dE             d eps       ncg     rms          rms(c)
RMM:   1    -0.413168189170E+03    0.29475E-02   -0.97121E+00  4295   0.714E-01    0.900E-01
RMM:   2    -0.413174217188E+03   -0.60280E-02   -0.11832E-01  4272   0.935E-02    0.643E-01
RMM:   3    -0.413172216740E+03    0.20004E-02   -0.12479E-02  4943   0.481E-02    0.145E-01
RMM:   4    -0.413208700460E+03   -0.36484E-01   -0.39555E-02  5137   0.165E-01    0.795E-01
RMM:   5    -0.413171329312E+03    0.37371E-01   -0.18049E-02  4785   0.133E-01    0.518E-02
RMM:   6    -0.413171540577E+03   -0.21127E-03   -0.30925E-03  5752   0.537E-02    0.341E-02
RMM:   7    -0.413171536428E+03    0.41493E-05   -0.47931E-04  5709   0.198E-02    0.217E-02
RMM:   8    -0.413171525921E+03    0.10507E-04   -0.74576E-05  5191   0.921E-03    0.104E-02
RMM:   9    -0.413171519522E+03    0.63988E-05   -0.15203E-05  4143   0.438E-03    0.725E-03
RMM:  10    -0.413171516030E+03    0.34922E-05   -0.21489E-06  2580   0.223E-03    0.460E-03
RMM:  11    -0.413171513416E+03    0.26144E-05   -0.11602E-06  2509   0.172E-03    0.263E-03
RMM:  12    -0.413171508624E+03    0.47923E-05   -0.17136E-06  2556   0.201E-03    0.104E-03
RMM:  13    -0.413171506262E+03    0.23618E-05   -0.60213E-07  2384   0.135E-03    0.840E-04
RMM:  14    -0.413171506460E+03   -0.19783E-06   -0.25216E-07  1959   0.885E-04
   20 T=    62. E= -.41286673E+03 F= -.41317151E+03 E0= -.41314947E+03  EK= 0.30478E+00 SP= 0.00E+00 SK= 0.00E+00
       N       E                     dE             d eps       ncg     rms          rms(c)
RMM:   1    -0.413169514109E+03    0.19922E-02   -0.97673E+00  4294   0.734E-01    0.889E-01
RMM:   2    -0.413175953307E+03   -0.64392E-02   -0.12110E-01  4280   0.944E-02    0.652E-01
RMM:   3    -0.413172980539E+03    0.29728E-02   -0.12736E-02  4847   0.454E-02    0.112E-01
RMM:   4    -0.413199864298E+03   -0.26884E-01   -0.28095E-02  5133   0.139E-01    0.684E-01
RMM:   5    -0.413172477297E+03    0.27387E-01   -0.13431E-02  4802   0.114E-01    0.458E-02
RMM:   6    -0.413172641346E+03   -0.16405E-03   -0.22825E-03  5810   0.456E-02    0.291E-02
RMM:   7    -0.413172646466E+03   -0.51202E-05   -0.33071E-04  5687   0.173E-02    0.178E-02
RMM:   8    -0.413172640271E+03    0.61951E-05   -0.67027E-05  5019   0.854E-03    0.979E-03
RMM:   9    -0.413172636176E+03    0.40949E-05   -0.13102E-05  4053   0.418E-03    0.726E-03
RMM:  10    -0.413172635589E+03    0.58737E-06   -0.17348E-06  2553   0.213E-03
   21 T=    62. E= -.41286695E+03 F= -.41317264E+03 E0= -.41315065E+03  EK= 0.30569E+00 SP= 0.00E+00 SK= 0.00E+00
       N       E                     dE             d eps       ncg     rms          rms(c)
RMM:   1    -0.413172960640E+03   -0.32446E-03   -0.98324E+00  4296   0.764E-01    0.908E-01
RMM:   2    -0.413176851465E+03   -0.38908E-02   -0.12365E-01  4317   0.991E-02    0.654E-01
RMM:   3    -0.413177918949E+03   -0.10675E-02   -0.15416E-02  5107   0.739E-02    0.291E-01
RMM:   4    -0.413205484698E+03   -0.27566E-01   -0.45006E-02  5099   0.179E-01    0.734E-01
RMM:   5    -0.413173628311E+03    0.31856E-01   -0.13159E-02  4711   0.121E-01    0.584E-02
RMM:   6    -0.413173707891E+03   -0.79580E-04   -0.24039E-03  5586   0.483E-02    0.311E-02
RMM:   7    -0.413173717837E+03   -0.99462E-05   -0.38770E-04  5948   0.176E-02    0.194E-02
RMM:   8    -0.413173712299E+03    0.55375E-05   -0.71470E-05  5171   0.937E-03    0.837E-03
RMM:   9    -0.413173705907E+03    0.63923E-05   -0.10870E-05  3630   0.398E-03    0.422E-03
RMM:  10    -0.413173703703E+03    0.22043E-05   -0.22370E-06  2601   0.223E-03    0.286E-03
RMM:  11    -0.413173700261E+03    0.34419E-05   -0.11953E-06  2504   0.176E-03    0.153E-03
RMM:  12    -0.413173696589E+03    0.36724E-05   -0.72156E-07  2466   0.140E-03    0.505E-04
RMM:  13    -0.413173694579E+03    0.20098E-05   -0.35043E-07  2081   0.995E-04    0.305E-04
RMM:  14    -0.413173693063E+03    0.15156E-05   -0.19676E-07  1600   0.781E-04    0.217E-04
RMM:  15    -0.413173690378E+03    0.26853E-05   -0.15177E-07  1369   0.717E-04    0.112E-04
RMM:  16    -0.413173687517E+03    0.28608E-05   -0.12707E-07  1337   0.687E-04    0.134E-04
RMM:  17    -0.413173685108E+03    0.24093E-05   -0.93590E-08  1219   0.638E-04    0.775E-05
RMM:  18    -0.413173682641E+03    0.24669E-05   -0.75672E-08  1146   0.607E-04    0.290E-05
RMM:  19    -0.413173681752E+03    0.88922E-06   -0.35519E-08   846   0.546E-04
   22 T=    62. E= -.41286699E+03 F= -.41317368E+03 E0= -.41315174E+03  EK= 0.30669E+00 SP= 0.00E+00 SK= 0.00E+00
       N       E                     dE             d eps       ncg     rms          rms(c)
RMM:   1    -0.413171128984E+03    0.25537E-02   -0.97816E+00  4293   0.729E-01    0.909E-01
RMM:   2    -0.413177447667E+03   -0.63187E-02   -0.11933E-01  4283   0.962E-02    0.647E-01
RMM:   3    -0.413174908424E+03    0.25392E-02   -0.12565E-02  4878   0.488E-02    0.136E-01
RMM:   4    -0.413208079023E+03   -0.33171E-01   -0.35186E-02  5137   0.156E-01    0.758E-01
RMM:   5    -0.413174213059E+03    0.33866E-01   -0.16489E-02  4788   0.127E-01    0.502E-02
RMM:   6    -0.413174406864E+03   -0.19380E-03   -0.28748E-03  5790   0.512E-02    0.334E-02
RMM:   7    -0.413174403238E+03    0.36252E-05   -0.43311E-04  5693   0.194E-02    0.209E-02
RMM:   8    -0.413174391723E+03    0.11515E-04   -0.75828E-05  5126   0.922E-03    0.107E-02
RMM:   9    -0.413174384374E+03    0.73484E-05   -0.14940E-05  4157   0.441E-03    0.772E-03
RMM:  10    -0.413174379732E+03    0.46420E-05   -0.20649E-06  2580   0.225E-03    0.485E-03
RMM:  11    -0.413174375942E+03    0.37905E-05   -0.13139E-06  2524   0.182E-03    0.270E-03
RMM:  12    -0.413174369513E+03    0.64293E-05   -0.17722E-06  2557   0.207E-03    0.107E-03
RMM:  13    -0.413174367077E+03    0.24356E-05   -0.57193E-07  2369   0.135E-03    0.757E-04
RMM:  14    -0.413174367046E+03    0.30501E-07   -0.25270E-07  1953   0.886E-04
   23 T=    63. E= -.41286666E+03 F= -.41317437E+03 E0= -.41315247E+03  EK= 0.30771E+00 SP= 0.00E+00 SK= 0.00E+00
       N       E                     dE             d eps       ncg     rms          rms(c)
RMM:   1    -0.413175514088E+03   -0.11470E-02   -0.98290E+00  4296   0.768E-01    0.891E-01
RMM:   2    -0.413179566663E+03   -0.40526E-02   -0.12861E-01  4289   0.102E-01    0.653E-01
RMM:   3    -0.413176171229E+03    0.33954E-02   -0.12129E-02  4710   0.455E-02    0.110E-01
RMM:   4    -0.413195820361E+03   -0.19649E-01   -0.20206E-02  5142   0.118E-01    0.587E-01
RMM:   5    -0.413175850257E+03    0.19970E-01   -0.99295E-03  4812   0.973E-02    0.432E-02
RMM:   6    -0.413175958511E+03   -0.10825E-03   -0.17136E-03  5830   0.387E-02    0.262E-02
RMM:   7    -0.413175960691E+03   -0.21798E-05   -0.21362E-04  5614   0.146E-02    0.132E-02
RMM:   8    -0.413175957771E+03    0.29195E-05   -0.43254E-05  4921   0.682E-03    0.894E-03
RMM:   9    -0.413175954087E+03    0.36841E-05   -0.93980E-06  3676   0.353E-03    0.680E-03
RMM:  10    -0.413175952840E+03    0.12474E-05   -0.14594E-06  2528   0.209E-03    0.424E-03
RMM:  11    -0.413175950910E+03    0.19294E-05   -0.16599E-06  2545   0.204E-03    0.206E-03
RMM:  12    -0.413175948319E+03    0.25913E-05   -0.11321E-06  2479   0.171E-03    0.825E-04
RMM:  13    -0.413175947726E+03    0.59260E-06   -0.37222E-07  2182   0.107E-03
   24 T=    63. E= -.41286689E+03 F= -.41317595E+03 E0= -.41315410E+03  EK= 0.30906E+00 SP= 0.00E+00 SK= 0.00E+00
       N       E                     dE             d eps       ncg     rms          rms(c)
RMM:   1    -0.413174396461E+03    0.15519E-02   -0.98836E+00  4298   0.764E-01    0.907E-01
RMM:   2    -0.413180451677E+03   -0.60552E-02   -0.12367E-01  4283   0.102E-01    0.658E-01
RMM:   3    -0.413177086998E+03    0.33647E-02   -0.12664E-02  4652   0.465E-02    0.103E-01
RMM:   4    -0.413193555023E+03   -0.16468E-01   -0.16843E-02  5140   0.108E-01    0.539E-01
RMM:   5    -0.413176843781E+03    0.16711E-01   -0.83184E-03  4818   0.888E-02    0.421E-02
RMM:   6    -0.413176923457E+03   -0.79677E-04   -0.14579E-03  5821   0.352E-02    0.248E-02
RMM:   7    -0.413176920696E+03    0.27613E-05   -0.16034E-04  5529   0.129E-02    0.113E-02
RMM:   8    -0.413176915017E+03    0.56793E-05   -0.25368E-05  4498   0.528E-03    0.760E-03
RMM:   9    -0.413176912633E+03    0.23838E-05   -0.38095E-06  2773   0.249E-03    0.484E-03
RMM:  10    -0.413176911218E+03    0.14147E-05   -0.90764E-07  2469   0.157E-03    0.362E-03
RMM:  11    -0.413176906695E+03    0.45236E-05   -0.19089E-06  2552   0.227E-03    0.201E-03
RMM:  12    -0.413176904608E+03    0.20871E-05   -0.79393E-07  2423   0.152E-03    0.111E-03
RMM:  13    -0.413176903836E+03    0.77171E-06   -0.26821E-07  2044   0.928E-04
   25 T=    63. E= -.41286667E+03 F= -.41317690E+03 E0= -.41315511E+03  EK= 0.31023E+00 SP= 0.00E+00 SK= 0.00E+00
       N       E                     dE             d eps       ncg     rms          rms(c)
RMM:   1    -0.413176101098E+03    0.80351E-03   -0.98910E+00  4295   0.760E-01    0.919E-01
RMM:   2    -0.413181246398E+03   -0.51453E-02   -0.12083E-01  4284   0.998E-02    0.652E-01
RMM:   3    -0.413178577793E+03    0.26686E-02   -0.12656E-02  4722   0.484E-02    0.120E-01
RMM:   4    -0.413201975456E+03   -0.23398E-01   -0.24053E-02  5142   0.129E-01    0.640E-01
RMM:   5    -0.413178184643E+03    0.23791E-01   -0.11854E-02  4805   0.106E-01    0.461E-02
RMM:   6    -0.413178309143E+03   -0.12450E-03   -0.20403E-03  5818   0.426E-02    0.296E-02
RMM:   7    -0.413178303363E+03    0.57803E-05   -0.28893E-04  5653   0.168E-02    0.168E-02
RMM:   8    -0.413178293385E+03    0.99780E-05   -0.59665E-05  4992   0.814E-03    0.995E-03
RMM:   9    -0.413178286209E+03    0.71756E-05   -0.11712E-05  3931   0.400E-03    0.742E-03
RMM:  10    -0.413178280800E+03    0.54091E-05   -0.16847E-06  2551   0.218E-03    0.452E-03
RMM:  11    -0.413178275025E+03    0.57749E-05   -0.13934E-06  2511   0.192E-03    0.232E-03
RMM:  12    -0.413178267276E+03    0.77495E-05   -0.13759E-06  2512   0.183E-03    0.873E-04
RMM:  13    -0.413178264468E+03    0.28078E-05   -0.44596E-07  2275   0.118E-03    0.558E-04
RMM:  14    -0.413178263968E+03    0.50005E-06   -0.21536E-07  1790   0.818E-04
   26 T=    63. E= -.41286667E+03 F= -.41317826E+03 E0= -.41315652E+03  EK= 0.31160E+00 SP= 0.00E+00 SK= 0.00E+00
       N       E                     dE             d eps       ncg     rms          rms(c)
RMM:   1    -0.413181783440E+03   -0.35190E-02   -0.99124E+00  4292   0.826E-01    0.897E-01
RMM:   2    -0.413183239998E+03   -0.14566E-02   -0.12679E-01  4284   0.105E-01    0.654E-01
RMM:   3    -0.413180280685E+03    0.29593E-02   -0.12508E-02  4699   0.484E-02    0.111E-01
RMM:   4    -0.413200496830E+03   -0.20216E-01   -0.20725E-02  5146   0.120E-01    0.595E-01
RMM:   5    -0.413179979498E+03    0.20517E-01   -0.10246E-02  4814   0.985E-02    0.440E-02
RMM:   6    -0.413180084274E+03   -0.10478E-03   -0.17705E-03  5831   0.394E-02    0.280E-02
RMM:   7    -0.413180082102E+03    0.21719E-05   -0.26443E-04  5633   0.161E-02    0.161E-02
RMM:   8    -0.413180074988E+03    0.71141E-05   -0.53475E-05  4953   0.781E-03    0.926E-03
RMM:   9    -0.413180069904E+03    0.50835E-05   -0.10298E-05  3774   0.380E-03    0.689E-03
RMM:  10    -0.413180067093E+03    0.28117E-05   -0.14951E-06  2522   0.210E-03    0.417E-03
RMM:  11    -0.413180063799E+03    0.32934E-05   -0.13451E-06  2517   0.189E-03    0.205E-03
RMM:  12    -0.413180059834E+03    0.39653E-05   -0.11353E-06  2492   0.167E-03    0.785E-04
RMM:  13    -0.413180058430E+03    0.14045E-05   -0.39121E-07  2199   0.110E-03    0.511E-04
RMM:  14    -0.413180057859E+03    0.57047E-06   -0.18828E-07  1686   0.782E-04
   27 T=    64. E= -.41286687E+03 F= -.41318006E+03 E0= -.41315836E+03  EK= 0.31319E+00 SP= 0.00E+00 SK= 0.00E+00
       N       E                     dE             d eps       ncg     rms          rms(c)
RMM:   1    -0.413178503472E+03    0.15550E-02   -0.99766E+00  4294   0.778E-01    0.908E-01
RMM:   2    -0.413184527805E+03   -0.60243E-02   -0.12461E-01  4277   0.102E-01    0.664E-01
RMM:   3    -0.413181504752E+03    0.30231E-02   -0.13180E-02  4725   0.503E-02    0.106E-01
RMM:   4    -0.413202780879E+03   -0.21276E-01   -0.21799E-02  5143   0.123E-01    0.610E-01
RMM:   5    -0.413181178935E+03    0.21602E-01   -0.10790E-02  4812   0.101E-01    0.444E-02
RMM:   6    -0.413181285130E+03   -0.10619E-03   -0.18094E-03  5836   0.402E-02    0.281E-02
RMM:   7    -0.413181284927E+03    0.20244E-06   -0.27458E-04  5633   0.164E-02    0.163E-02
RMM:   8    -0.413181278623E+03    0.63047E-05   -0.56916E-05  4962   0.804E-03    0.922E-03
RMM:   9    -0.413181273772E+03    0.48507E-05   -0.10804E-05  3822   0.390E-03    0.676E-03
RMM:  10    -0.413181271669E+03    0.21025E-05   -0.15316E-06  2529   0.210E-03    0.412E-03
RMM:  11    -0.413181269071E+03    0.25985E-05   -0.13503E-06  2515   0.189E-03    0.200E-03
RMM:  12    -0.413181265883E+03    0.31882E-05   -0.11197E-06  2491   0.166E-03    0.785E-04
RMM:  13    -0.413181264785E+03    0.10973E-05   -0.38527E-07  2194   0.109E-03    0.512E-04
RMM:  14    -0.413181264278E+03    0.50776E-06   -0.18413E-07  1643   0.776E-04
   28 T=    64. E= -.41286665E+03 F= -.41318126E+03 E0= -.41315962E+03  EK= 0.31461E+00 SP= 0.00E+00 SK= 0.00E+00
       N       E                     dE             d eps       ncg     rms          rms(c)
RMM:   1    -0.413180223222E+03    0.10416E-02   -0.99944E+00  4292   0.768E-01    0.927E-01
RMM:   2    -0.413186237379E+03   -0.60142E-02   -0.12306E-01  4279   0.104E-01    0.658E-01
RMM:   3    -0.413183344467E+03    0.28929E-02   -0.12989E-02  4561   0.503E-02    0.109E-01
RMM:   4    -0.413195856275E+03   -0.12512E-01   -0.12788E-02  5151   0.947E-02    0.471E-01
RMM:   5    -0.413183200300E+03    0.12656E-01   -0.64181E-03  4827   0.775E-02    0.421E-02
RMM:   6    -0.413183247136E+03   -0.46836E-04   -0.11507E-03  5853   0.313E-02    0.247E-02
RMM:   7    -0.413183241461E+03    0.56748E-05   -0.15771E-04  5487   0.133E-02    0.127E-02
RMM:   8    -0.413183231307E+03    0.10155E-04   -0.25853E-05  4606   0.557E-03    0.767E-03
RMM:   9    -0.413183228822E+03    0.24845E-05   -0.59212E-06  3159   0.298E-03    0.608E-03
RMM:  10    -0.413183223191E+03    0.56307E-05   -0.12614E-06  2500   0.202E-03    0.334E-03
RMM:  11    -0.413183217042E+03    0.61490E-05   -0.11259E-06  2502   0.174E-03    0.171E-03
RMM:  12    -0.413183210761E+03    0.62818E-05   -0.77338E-07  2434   0.144E-03    0.851E-04
RMM:  13    -0.413183208700E+03    0.20604E-05   -0.30733E-07  2112   0.973E-04    0.467E-04
RMM:  14    -0.413183207244E+03    0.14565E-05   -0.14541E-07  1482   0.719E-04    0.354E-04
RMM:  15    -0.413183202849E+03    0.43942E-05   -0.14492E-07  1721   0.742E-04    0.225E-04
RMM:  16    -0.413183199730E+03    0.31190E-05   -0.72590E-08  1189   0.625E-04    0.229E-04
RMM:  17    -0.413183197136E+03    0.25949E-05   -0.42276E-08   896   0.564E-04    0.149E-04
RMM:  18    -0.413183193525E+03    0.36107E-05   -0.50184E-08   985   0.586E-04    0.368E-05
RMM:  19    -0.413183192334E+03    0.11910E-05   -0.23329E-08   811   0.553E-04    0.388E-05
RMM:  20    -0.413183191884E+03    0.44971E-06   -0.11981E-08   705   0.536E-04
   29 T=    64. E= -.41286683E+03 F= -.41318319E+03 E0= -.41316159E+03  EK= 0.31637E+00 SP= 0.00E+00 SK= 0.00E+00
       N       E                     dE             d eps       ncg     rms          rms(c)
RMM:   1    -0.413182193942E+03    0.99839E-03   -0.99641E+00  4287   0.803E-01    0.907E-01
RMM:   2    -0.413188507069E+03   -0.63131E-02   -0.12434E-01  4275   0.112E-01    0.657E-01
RMM:   3    -0.413185139888E+03    0.33672E-02   -0.12922E-02  4487   0.525E-02    0.100E-01
RMM:   4    -0.413194532110E+03   -0.93922E-02   -0.96722E-03  5148   0.825E-02    0.409E-01
RMM:   5    -0.413185052215E+03    0.94799E-02   -0.48398E-03  4828   0.672E-02    0.403E-02
RMM:   6    -0.413185085006E+03   -0.32791E-04   -0.91088E-04  5832   0.281E-02    0.251E-02
RMM:   7    -0.413185083480E+03    0.15263E-05   -0.23202E-04  5386   0.153E-02    0.167E-02
RMM:   8    -0.413185066968E+03    0.16511E-04   -0.25811E-05  4564   0.632E-03    0.732E-03
RMM:   9    -0.413185064888E+03    0.20807E-05   -0.47755E-06  2961   0.276E-03    0.520E-03
RMM:  10    -0.413185061497E+03    0.33909E-05   -0.15026E-06  2502   0.201E-03    0.283E-03
RMM:  11    -0.413185058119E+03    0.33776E-05   -0.95302E-07  2474   0.163E-03    0.142E-03
RMM:  12    -0.413185054963E+03    0.31559E-05   -0.54324E-07  2344   0.124E-03    0.724E-04
RMM:  13    -0.413185053383E+03    0.15799E-05   -0.25841E-07  1925   0.882E-04    0.316E-04
RMM:  14    -0.413185051561E+03    0.18220E-05   -0.14212E-07  1405   0.714E-04    0.192E-04
RMM:  15    -0.413185048912E+03    0.26494E-05   -0.95190E-08  1216   0.664E-04    0.961E-05
RMM:  16    -0.413185046979E+03    0.19325E-05   -0.59383E-08  1020   0.620E-04    0.733E-05
RMM:  17    -0.413185045215E+03    0.17643E-05   -0.41431E-08   923   0.594E-04    0.434E-05
RMM:  18    -0.413185042413E+03    0.28024E-05   -0.55515E-08  1109   0.612E-04    0.307E-05
RMM:  19    -0.413185041836E+03    0.57690E-06   -0.18908E-08   745   0.543E-04
   30 T=    65. E= -.41286678E+03 F= -.41318504E+03 E0= -.41316349E+03  EK= 0.31826E+00 SP= 0.00E+00 SK= 0.00E+00
       N       E                     dE             d eps       ncg     rms          rms(c)
RMM:   1    -0.413190538994E+03   -0.54966E-02   -0.10156E+01  4290   0.836E-01    0.910E-01
RMM:   2    -0.413190723596E+03   -0.18460E-03   -0.13259E-01  4288   0.118E-01    0.669E-01
RMM:   3    -0.413186699260E+03    0.40243E-02   -0.13275E-02  4409   0.576E-02    0.965E-02
RMM:   4    -0.413193415943E+03   -0.67167E-02   -0.70480E-03  5160   0.706E-02    0.346E-01
RMM:   5    -0.413186662877E+03    0.67531E-02   -0.34660E-03  4831   0.570E-02    0.390E-02
RMM:   6    -0.413186694471E+03   -0.31594E-04   -0.71568E-04  5768   0.254E-02    0.258E-02
RMM:   7    -0.413186689339E+03    0.51323E-05   -0.23481E-04  5292   0.153E-02    0.164E-02
RMM:   8    -0.413186676653E+03    0.12686E-04   -0.20184E-05  4355   0.582E-03    0.695E-03
RMM:   9    -0.413186675500E+03    0.11529E-05   -0.32871E-06  2756   0.239E-03    0.457E-03
RMM:  10    -0.413186673751E+03    0.17488E-05   -0.13657E-06  2498   0.186E-03    0.243E-03
RMM:  11    -0.413186672138E+03    0.16126E-05   -0.83633E-07  2447   0.150E-03    0.117E-03
RMM:  12    -0.413186670511E+03    0.16278E-05   -0.45182E-07  2217   0.112E-03    0.553E-04
RMM:  13    -0.413186669372E+03    0.11389E-05   -0.23209E-07  1756   0.829E-04    0.276E-04
RMM:  14    -0.413186667913E+03    0.14587E-05   -0.13041E-07  1282   0.697E-04    0.172E-04
RMM:  15    -0.413186665672E+03    0.22414E-05   -0.98670E-08  1159   0.664E-04    0.895E-05
RMM:  16    -0.413186664423E+03    0.12490E-05   -0.56653E-08   967   0.609E-04    0.655E-05
RMM:  17    -0.413186662559E+03    0.18636E-05   -0.52455E-08   992   0.602E-04    0.372E-05
RMM:  18    -0.413186660824E+03    0.17351E-05   -0.41956E-08   962   0.582E-04    0.253E-05
RMM:  19    -0.413186660287E+03    0.53742E-06   -0.15948E-08   697   0.535E-04
   31 T=    65. E= -.41286651E+03 F= -.41318666E+03 E0= -.41316516E+03  EK= 0.32015E+00 SP= 0.00E+00 SK= 0.00E+00
       N       E                     dE             d eps       ncg     rms          rms(c)
RMM:   1    -0.413186491856E+03    0.16897E-03   -0.10135E+01  4287   0.809E-01    0.933E-01
RMM:   2    -0.413192770228E+03   -0.62784E-02   -0.12686E-01  4285   0.122E-01    0.666E-01
RMM:   3    -0.413189215750E+03    0.35545E-02   -0.13297E-02  4276   0.554E-02    0.101E-01
RMM:   4    -0.413189979893E+03   -0.76414E-03   -0.13989E-03  5091   0.298E-02    0.117E-01
RMM:   5    -0.413189269656E+03    0.71024E-03   -0.42932E-04  4813   0.207E-02    0.401E-02
RMM:   6    -0.413189287189E+03   -0.17533E-04   -0.36698E-04  5380   0.190E-02    0.293E-02
RMM:   7    -0.413189246013E+03    0.41175E-04   -0.19187E-04  4875   0.143E-02    0.162E-02
RMM:   8    -0.413189241203E+03    0.48098E-05   -0.22801E-05  4381   0.516E-03    0.574E-03
RMM:   9    -0.413189239643E+03    0.15600E-05   -0.27604E-06  2513   0.213E-03    0.274E-03
RMM:  10    -0.413189233008E+03    0.66359E-05   -0.90083E-07  2416   0.153E-03    0.118E-03
RMM:  11    -0.413189228122E+03    0.48857E-05   -0.38651E-07  2076   0.980E-04    0.462E-04
RMM:  12    -0.413189224265E+03    0.38568E-05   -0.19992E-07  1688   0.789E-04    0.280E-04
RMM:  13    -0.413189220845E+03    0.34196E-05   -0.12267E-07  1325   0.691E-04    0.184E-04
RMM:  14    -0.413189216962E+03    0.38838E-05   -0.82851E-08  1108   0.642E-04    0.937E-05
RMM:  15    -0.413189212691E+03    0.42702E-05   -0.67681E-08  1075   0.623E-04    0.885E-05
RMM:  16    -0.413189208935E+03    0.37562E-05   -0.48414E-08   933   0.588E-04    0.609E-05
RMM:  17    -0.413189207630E+03    0.13048E-05   -0.26849E-08   774   0.545E-04    0.418E-05
RMM:  18    -0.413189206900E+03    0.73021E-06   -0.15060E-08   648   0.526E-04
   32 T=    66. E= -.41286689E+03 F= -.41318921E+03 E0= -.41316776E+03  EK= 0.32232E+00 SP= 0.00E+00 SK= 0.00E+00
       N       E                     dE             d eps       ncg     rms          rms(c)
RMM:   1    -0.413188285457E+03    0.92217E-03   -0.10108E+01  4286   0.821E-01    0.920E-01
RMM:   2    -0.413194635654E+03   -0.63502E-02   -0.12778E-01  4284   0.124E-01    0.662E-01
RMM:   3    -0.413191175874E+03    0.34598E-02   -0.13090E-02  4253   0.570E-02    0.996E-02
RMM:   4    -0.413191519111E+03   -0.34324E-03   -0.98379E-04  5047   0.235E-02    0.789E-02
RMM:   5    -0.413191255830E+03    0.26328E-03   -0.22560E-04  4773   0.150E-02    0.413E-02
RMM:   6    -0.413191260588E+03   -0.47577E-05   -0.33200E-04  5316   0.178E-02    0.289E-02
RMM:   7    -0.413191221245E+03    0.39343E-04   -0.18622E-04  4850   0.137E-02    0.162E-02
RMM:   8    -0.413191216384E+03    0.48609E-05   -0.21355E-05  4324   0.502E-03    0.585E-03
RMM:   9    -0.413191215059E+03    0.13252E-05   -0.33225E-06  2399   0.213E-03    0.220E-03
RMM:  10    -0.413191208576E+03    0.64822E-05   -0.88652E-07  2311   0.144E-03    0.865E-04
RMM:  11    -0.413191204852E+03    0.37243E-05   -0.27223E-07  1787   0.880E-04    0.407E-04
RMM:  12    -0.413191200859E+03    0.39932E-05   -0.17645E-07  1482   0.761E-04    0.211E-04
RMM:  13    -0.413191197344E+03    0.35152E-05   -0.10934E-07  1146   0.673E-04    0.172E-04
RMM:  14    -0.413191193215E+03    0.41286E-05   -0.78807E-08  1006   0.634E-04    0.104E-04
RMM:  15    -0.413191189099E+03    0.41163E-05   -0.60786E-08   910   0.605E-04    0.596E-05
RMM:  16    -0.413191186355E+03    0.27439E-05   -0.36756E-08   764   0.570E-04    0.557E-05
RMM:  17    -0.413191185299E+03    0.10555E-05   -0.18312E-08   601   0.529E-04    0.314E-05
RMM:  18    -0.413191184579E+03    0.72025E-06   -0.11561E-08   521   0.519E-04
   33 T=    66. E= -.41286678E+03 F= -.41319118E+03 E0= -.41316978E+03  EK= 0.32441E+00 SP= 0.00E+00 SK= 0.00E+00
       N       E                     dE             d eps       ncg     rms          rms(c)
RMM:   1    -0.413195936822E+03   -0.47515E-02   -0.10271E+01  4299   0.878E-01    0.915E-01
RMM:   2    -0.413197218380E+03   -0.12816E-02   -0.13617E-01  4286   0.129E-01    0.674E-01
RMM:   3    -0.413193561598E+03    0.36568E-02   -0.13370E-02  4257   0.602E-02    0.939E-02
RMM:   4    -0.413193975524E+03   -0.41393E-03   -0.10623E-03  5074   0.243E-02    0.859E-02
RMM:   5    -0.413193628481E+03    0.34704E-03   -0.24359E-04  4771   0.157E-02    0.397E-02
RMM:   6    -0.413193642000E+03   -0.13519E-04   -0.32511E-04  5336   0.175E-02    0.278E-02
RMM:   7    -0.413193610338E+03    0.31662E-04   -0.18434E-04  4837   0.135E-02    0.173E-02
RMM:   8    -0.413193605043E+03    0.52946E-05   -0.22600E-05  4144   0.482E-03    0.550E-03
RMM:   9    -0.413193604481E+03    0.56203E-06   -0.27301E-06  2456   0.207E-03
   34 T=    67. E= -.41286679E+03 F= -.41319360E+03 E0= -.41317225E+03  EK= 0.32682E+00 SP= 0.00E+00 SK= 0.00E+00
       N       E                     dE             d eps       ncg     rms          rms(c)
RMM:   1    -0.413196092758E+03   -0.24877E-02   -0.10322E+01  4303   0.899E-01    0.937E-01
RMM:   2    -0.413199593202E+03   -0.35004E-02   -0.13493E-01  4276   0.130E-01    0.675E-01
RMM:   3    -0.413196428304E+03    0.31649E-02   -0.13383E-02  4511   0.618E-02    0.113E-01
RMM:   4    -0.413208668688E+03   -0.12240E-01   -0.12471E-02  5166   0.947E-02    0.466E-01
RMM:   5    -0.413196384998E+03    0.12284E-01   -0.62983E-03  4823   0.775E-02    0.437E-02
RMM:   6    -0.413196381594E+03    0.34049E-05   -0.11339E-03  5764   0.335E-02    0.316E-02
RMM:   7    -0.413196373610E+03    0.79837E-05   -0.31293E-04  5410   0.171E-02    0.173E-02
RMM:   8    -0.413196359637E+03    0.13973E-04   -0.32134E-05  4792   0.670E-03    0.736E-03
RMM:   9    -0.413196356583E+03    0.30542E-05   -0.55411E-06  3021   0.287E-03    0.462E-03
RMM:  10    -0.413196350770E+03    0.58132E-05   -0.12908E-06  2509   0.194E-03    0.245E-03
RMM:  11    -0.413196344372E+03    0.63980E-05   -0.92936E-07  2493   0.156E-03    0.125E-03
RMM:  12    -0.413196338201E+03    0.61705E-05   -0.54888E-07  2324   0.122E-03    0.606E-04
RMM:  13    -0.413196335497E+03    0.27048E-05   -0.25829E-07  1883   0.874E-04    0.322E-04
RMM:  14    -0.413196332360E+03    0.31369E-05   -0.13871E-07  1329   0.709E-04    0.189E-04
RMM:  15    -0.413196326812E+03    0.55481E-05   -0.10837E-07  1243   0.682E-04    0.102E-04
RMM:  16    -0.413196323392E+03    0.34197E-05   -0.75453E-08  1136   0.634E-04    0.941E-05
RMM:  17    -0.413196319989E+03    0.34024E-05   -0.56565E-08  1091   0.611E-04    0.631E-05
RMM:  18    -0.413196316273E+03    0.37167E-05   -0.53379E-08  1151   0.605E-04    0.325E-05
RMM:  19    -0.413196315575E+03    0.69817E-06   -0.22432E-08   763   0.526E-04
   35 T=    67. E= -.41286692E+03 F= -.41319632E+03 E0= -.41317501E+03  EK= 0.32939E+00 SP= 0.00E+00 SK= 0.00E+00
       N       E                     dE             d eps       ncg     rms          rms(c)
RMM:   1    -0.413195822206E+03    0.49407E-03   -0.10300E+01  4300   0.880E-01    0.936E-01
RMM:   2    -0.413201455578E+03   -0.56334E-02   -0.13273E-01  4261   0.131E-01    0.670E-01
RMM:   3    -0.413198446427E+03    0.30092E-02   -0.13339E-02  4441   0.616E-02    0.112E-01
RMM:   4    -0.413204703504E+03   -0.62571E-02   -0.66727E-03  5172   0.690E-02    0.335E-01
RMM:   5    -0.413198448671E+03    0.62548E-02   -0.32058E-03  4818   0.557E-02    0.415E-02
RMM:   6    -0.413198458202E+03   -0.95306E-05   -0.74563E-04  5718   0.270E-02    0.301E-02
RMM:   7    -0.413198441366E+03    0.16836E-04   -0.27411E-04  5229   0.164E-02    0.173E-02
RMM:   8    -0.413198428703E+03    0.12663E-04   -0.25740E-05  4677   0.616E-03    0.759E-03
RMM:   9    -0.413198426055E+03    0.26475E-05   -0.38967E-06  2764   0.249E-03    0.438E-03
RMM:  10    -0.413198420375E+03    0.56804E-05   -0.12623E-06  2495   0.188E-03    0.229E-03
RMM:  11    -0.413198414887E+03    0.54875E-05   -0.75755E-07  2444   0.142E-03    0.114E-03
RMM:  12    -0.413198409819E+03    0.50681E-05   -0.43063E-07  2223   0.110E-03    0.521E-04
RMM:  13    -0.413198406548E+03    0.32711E-05   -0.22995E-07  1766   0.829E-04    0.266E-04
RMM:  14    -0.413198403129E+03    0.34187E-05   -0.11591E-07  1227   0.682E-04    0.172E-04
RMM:  15    -0.413198398382E+03    0.47476E-05   -0.81861E-08  1084   0.647E-04    0.864E-05
RMM:  16    -0.413198395369E+03    0.30129E-05   -0.55876E-08  1002   0.616E-04    0.635E-05
RMM:  17    -0.413198392548E+03    0.28210E-05   -0.45281E-08  1009   0.601E-04    0.416E-05
RMM:  18    -0.413198389012E+03    0.35355E-05   -0.46811E-08  1123   0.603E-04    0.283E-05
RMM:  19    -0.413198388445E+03    0.56725E-06   -0.18033E-08   756   0.527E-04
   36 T=    68. E= -.41286664E+03 F= -.41319839E+03 E0= -.41317713E+03  EK= 0.33174E+00 SP= 0.00E+00 SK= 0.00E+00
       N       E                     dE             d eps       ncg     rms          rms(c)
RMM:   1    -0.413207781927E+03   -0.93929E-02   -0.10468E+01  4301   0.977E-01    0.921E-01
RMM:   2    -0.413205216070E+03    0.25659E-02   -0.15228E-01  4262   0.137E-01    0.681E-01
RMM:   3    -0.413201427072E+03    0.37890E-02   -0.12557E-02  4598   0.590E-02    0.132E-01
RMM:   4    -0.413218856444E+03   -0.17429E-01   -0.17773E-02  5154   0.113E-01    0.554E-01
RMM:   5    -0.413201300871E+03    0.17556E-01   -0.89195E-03  4810   0.921E-02    0.447E-02
RMM:   6    -0.413201310649E+03   -0.97780E-05   -0.15192E-03  5831   0.375E-02    0.289E-02
RMM:   7    -0.413201322182E+03   -0.11533E-04   -0.30882E-04  5508   0.170E-02    0.181E-02
RMM:   8    -0.413201306047E+03    0.16135E-04   -0.50527E-05  4949   0.795E-03    0.845E-03
RMM:   9    -0.413201304903E+03    0.11442E-05   -0.95633E-06  3615   0.378E-03    0.584E-03
RMM:  10    -0.413201301990E+03    0.29129E-05   -0.15618E-06  2536   0.215E-03    0.329E-03
RMM:  11    -0.413201299336E+03    0.26541E-05   -0.96964E-07  2494   0.161E-03    0.178E-03
RMM:  12    -0.413201295201E+03    0.41345E-05   -0.10150E-06  2479   0.157E-03    0.930E-04
RMM:  13    -0.413201293244E+03    0.19570E-05   -0.37519E-07  2159   0.105E-03    0.480E-04
RMM:  14    -0.413201292440E+03    0.80438E-06   -0.17390E-07  1523   0.753E-04
   37 T=    68. E= -.41286696E+03 F= -.41320129E+03 E0= -.41318007E+03  EK= 0.33434E+00 SP= 0.00E+00 SK= 0.00E+00
       N       E                     dE             d eps       ncg     rms          rms(c)
RMM:   1    -0.413218585033E+03   -0.17292E-01   -0.10653E+01  4306   0.106E+00    0.941E-01
RMM:   2    -0.413207811048E+03    0.10774E-01   -0.15826E-01  4261   0.136E-01    0.687E-01
RMM:   3    -0.413204036753E+03    0.37743E-02   -0.12610E-02  4747   0.570E-02    0.155E-01
RMM:   4    -0.413236534486E+03   -0.32498E-01   -0.33327E-02  5152   0.153E-01    0.751E-01
RMM:   5    -0.413203617561E+03    0.32917E-01   -0.16674E-02  4802   0.126E-01    0.506E-02
RMM:   6    -0.413203678181E+03   -0.60619E-04   -0.26823E-03  5844   0.492E-02    0.321E-02
RMM:   7    -0.413203687647E+03   -0.94659E-05   -0.35656E-04  5663   0.179E-02    0.169E-02
RMM:   8    -0.413203678503E+03    0.91437E-05   -0.59442E-05  5007   0.804E-03    0.988E-03
RMM:   9    -0.413203676876E+03    0.16264E-05   -0.19807E-05  4505   0.485E-03    0.738E-03
RMM:  10    -0.413203671029E+03    0.58470E-05   -0.25795E-06  2653   0.257E-03    0.423E-03
RMM:  11    -0.413203667817E+03    0.32124E-05   -0.12473E-06  2495   0.182E-03    0.262E-03
RMM:  12    -0.413203659621E+03    0.81955E-05   -0.18109E-06  2542   0.217E-03    0.130E-03
RMM:  13    -0.413203655947E+03    0.36745E-05   -0.64781E-07  2386   0.143E-03    0.853E-04
RMM:  14    -0.413203655713E+03    0.23345E-06   -0.25250E-07  1982   0.908E-04
   38 T=    69. E= -.41286685E+03 F= -.41320366E+03 E0= -.41318248E+03  EK= 0.33680E+00 SP= 0.00E+00 SK= 0.00E+00
       N       E                     dE             d eps       ncg     rms          rms(c)
RMM:   1    -0.413206054412E+03   -0.23985E-02   -0.10526E+01  4304   0.993E-01    0.953E-01
RMM:   2    -0.413210003729E+03   -0.39493E-02   -0.13809E-01  4266   0.123E-01    0.679E-01
RMM:   3    -0.413206801730E+03    0.32020E-02   -0.13872E-02  4910   0.575E-02    0.159E-01
RMM:   4    -0.413247973145E+03   -0.41171E-01   -0.43793E-02  5137   0.174E-01    0.843E-01
RMM:   5    -0.413206043448E+03    0.41930E-01   -0.20846E-02  4793   0.141E-01    0.550E-02
RMM:   6    -0.413206143537E+03   -0.10009E-03   -0.34198E-03  5829   0.551E-02    0.343E-02
RMM:   7    -0.413206151158E+03   -0.76207E-05   -0.41692E-04  5687   0.190E-02    0.178E-02
RMM:   8    -0.413206140265E+03    0.10892E-04   -0.52682E-05  4841   0.736E-03    0.926E-03
RMM:   9    -0.413206137708E+03    0.25572E-05   -0.19994E-05  4394   0.457E-03    0.767E-03
RMM:  10    -0.413206130469E+03    0.72393E-05   -0.39019E-06  2860   0.279E-03    0.438E-03
RMM:  11    -0.413206125052E+03    0.54172E-05   -0.16858E-06  2523   0.208E-03    0.261E-03
RMM:  12    -0.413206113231E+03    0.11820E-04   -0.19193E-06  2548   0.224E-03    0.122E-03
RMM:  13    -0.413206109642E+03    0.35896E-05   -0.56145E-07  2426   0.141E-03    0.775E-04
RMM:  14    -0.413206109550E+03    0.91793E-07   -0.23827E-07  1994   0.882E-04
   39 T=    69. E= -.41286676E+03 F= -.41320611E+03 E0= -.41318497E+03  EK= 0.33935E+00 SP= 0.00E+00 SK= 0.00E+00
       N       E                     dE             d eps       ncg     rms          rms(c)
RMM:   1    -0.413229762504E+03   -0.23653E-01   -0.10762E+01  4309   0.116E+00    0.931E-01
RMM:   2    -0.413213446982E+03    0.16316E-01   -0.16874E-01  4266   0.137E-01    0.687E-01
RMM:   3    -0.413210128371E+03    0.33186E-02   -0.12447E-02  4985   0.600E-02    0.206E-01
RMM:   4    -0.413264146994E+03   -0.54019E-01   -0.59461E-02  5133   0.203E-01    0.963E-01
RMM:   5    -0.413208811945E+03    0.55335E-01   -0.27112E-02  4787   0.162E-01    0.608E-02
RMM:   6    -0.413208985485E+03   -0.17354E-03   -0.45565E-03  5818   0.629E-02    0.364E-02
RMM:   7    -0.413208999729E+03   -0.14244E-04   -0.55112E-04  5796   0.211E-02    0.217E-02
RMM:   8    -0.413209000910E+03   -0.11811E-05   -0.12267E-04  5238   0.109E-02    0.140E-02
RMM:   9    -0.413208987619E+03    0.13291E-04   -0.28816E-05  4747   0.616E-03    0.730E-03
RMM:  10    -0.413208983201E+03    0.44179E-05   -0.50952E-06  2920   0.303E-03    0.455E-03
RMM:  11    -0.413208979746E+03    0.34544E-05   -0.16342E-06  2505   0.211E-03    0.276E-03
RMM:  12    -0.413208972317E+03    0.74290E-05   -0.16361E-06  2519   0.211E-03    0.988E-04
RMM:  13    -0.413208968056E+03    0.42612E-05   -0.70439E-07  2427   0.146E-03    0.736E-04
RMM:  14    -0.413208967642E+03    0.41429E-06   -0.30056E-07  2088   0.969E-04
   40 T=    70. E= -.41286697E+03 F= -.41320897E+03 E0= -.41318786E+03  EK= 0.34200E+00 SP= 0.00E+00 SK= 0.00E+00
       N       E                     dE             d eps       ncg     rms          rms(c)
RMM:   1    -0.413223317486E+03   -0.14349E-01   -0.10805E+01  4309   0.115E+00    0.945E-01
RMM:   2    -0.413215496080E+03    0.78214E-02   -0.15923E-01  4267   0.140E-01    0.695E-01
RMM:   3    -0.413212729516E+03    0.27666E-02   -0.14102E-02  5015   0.653E-02    0.219E-01
RMM:   4    -0.413265865105E+03   -0.53136E-01   -0.61709E-02  5125   0.207E-01    0.959E-01
RMM:   5    -0.413210840558E+03    0.55025E-01   -0.26352E-02  4779   0.161E-01    0.612E-02
RMM:   6    -0.413211002811E+03   -0.16225E-03   -0.44091E-03  5809   0.624E-02    0.361E-02
RMM:   7    -0.413211017072E+03   -0.14261E-04   -0.54258E-04  5799   0.210E-02    0.218E-02
RMM:   8    -0.413211018075E+03   -0.10028E-05   -0.12622E-04  5255   0.110E-02    0.142E-02
RMM:   9    -0.413211004347E+03    0.13728E-04   -0.27758E-05  4709   0.613E-03    0.692E-03
RMM:  10    -0.413211000350E+03    0.39967E-05   -0.53723E-06  2979   0.306E-03    0.429E-03
RMM:  11    -0.413210997073E+03    0.32773E-05   -0.15447E-06  2504   0.207E-03    0.255E-03
RMM:  12    -0.413210990430E+03    0.66429E-05   -0.13959E-06  2504   0.197E-03    0.915E-04
RMM:  13    -0.413210986385E+03    0.40447E-05   -0.63570E-07  2415   0.138E-03    0.612E-04
RMM:  14    -0.413210985615E+03    0.77051E-06   -0.28482E-07  2053   0.936E-04
   41 T=    70. E= -.41286668E+03 F= -.41321099E+03 E0= -.41318992E+03  EK= 0.34431E+00 SP= 0.00E+00 SK= 0.00E+00
       N       E                     dE             d eps       ncg     rms          rms(c)
RMM:   1    -0.413217043006E+03   -0.60566E-02   -0.10743E+01  4310   0.116E+00    0.966E-01
RMM:   2    -0.413217301490E+03   -0.25848E-03   -0.14659E-01  4296   0.134E-01    0.689E-01
RMM:   3    -0.413216532191E+03    0.76930E-03   -0.15933E-02  5068   0.739E-02    0.268E-01
RMM:   4    -0.413257266647E+03   -0.40734E-01   -0.54874E-02  5096   0.197E-01    0.861E-01
RMM:   5    -0.413213356376E+03    0.43910E-01   -0.19806E-02  4752   0.143E-01    0.608E-02
RMM:   6    -0.413213451550E+03   -0.95174E-04   -0.34803E-03  5774   0.557E-02    0.359E-02
RMM:   7    -0.413213456543E+03   -0.49922E-05   -0.47792E-04  5747   0.201E-02    0.221E-02
RMM:   8    -0.413213453579E+03    0.29635E-05   -0.13098E-04  5225   0.115E-02    0.135E-02
RMM:   9    -0.413213437467E+03    0.16112E-04   -0.22548E-05  4531   0.588E-03    0.582E-03
RMM:  10    -0.413213431474E+03    0.59930E-05   -0.50361E-06  2963   0.286E-03    0.366E-03
RMM:  11    -0.413213426076E+03    0.53979E-05   -0.12493E-06  2494   0.193E-03    0.206E-03
RMM:  12    -0.413213416684E+03    0.93921E-05   -0.93735E-07  2468   0.167E-03    0.778E-04
RMM:  13    -0.413213411029E+03    0.56556E-05   -0.44838E-07  2327   0.118E-03    0.422E-04
RMM:  14    -0.413213409311E+03    0.17171E-05   -0.22546E-07  1872   0.844E-04    0.293E-04
RMM:  15    -0.413213405156E+03    0.41558E-05   -0.12813E-07  1405   0.706E-04    0.140E-04
RMM:  16    -0.413213399691E+03    0.54644E-05   -0.92508E-08  1237   0.671E-04    0.145E-04
RMM:  17    -0.413213396446E+03    0.32452E-05   -0.61135E-08  1100   0.625E-04    0.989E-05
RMM:  18    -0.413213392745E+03    0.37012E-05   -0.58390E-08  1248   0.627E-04    0.708E-05
RMM:  19    -0.413213389834E+03    0.29108E-05   -0.39396E-08  1080   0.588E-04    0.414E-05
RMM:  20    -0.413213389179E+03    0.65465E-06   -0.19199E-08   795   0.539E-04
   42 T=    71. E= -.41286680E+03 F= -.41321339E+03 E0= -.41319235E+03  EK= 0.34659E+00 SP= 0.00E+00 SK= 0.00E+00
       N       E                     dE             d eps       ncg     rms          rms(c)
RMM:   1    -0.413244573331E+03   -0.31183E-01   -0.10968E+01  4310   0.135E+00    0.943E-01
RMM:   2    -0.413219377314E+03    0.25196E-01   -0.17284E-01  4299   0.148E-01    0.691E-01
RMM:   3    -0.413219653394E+03   -0.27608E-03   -0.15240E-02  5073   0.801E-02    0.321E-01
RMM:   4    -0.413258289166E+03   -0.38636E-01   -0.57053E-02  5094   0.202E-01    0.854E-01
RMM:   5    -0.413215275897E+03    0.43013E-01   -0.19020E-02  4733   0.143E-01    0.628E-02
RMM:   6    -0.413215352902E+03   -0.77005E-04   -0.33617E-03  5743   0.549E-02    0.357E-02
RMM:   7    -0.413215358025E+03   -0.51225E-05   -0.49601E-04  5785   0.200E-02    0.237E-02
RMM:   8    -0.413215353777E+03    0.42480E-05   -0.12989E-04  5193   0.117E-02    0.126E-02
RMM:   9    -0.413215340762E+03    0.13015E-04   -0.21962E-05  4512   0.585E-03    0.495E-03
RMM:  10    -0.413215337404E+03    0.33581E-05   -0.47323E-06  2889   0.270E-03    0.316E-03
RMM:  11    -0.413215333528E+03    0.38763E-05   -0.13132E-06  2497   0.189E-03    0.173E-03
RMM:  12    -0.413215328149E+03    0.53789E-05   -0.77326E-07  2457   0.150E-03    0.648E-04
RMM:  13    -0.413215324893E+03    0.32561E-05   -0.38538E-07  2140   0.106E-03    0.303E-04
RMM:  14    -0.413215322843E+03    0.20500E-05   -0.20809E-07  1682   0.813E-04    0.204E-04
RMM:  15    -0.413215319045E+03    0.37975E-05   -0.13829E-07  1347   0.717E-04    0.109E-04
RMM:  16    -0.413215316594E+03    0.24513E-05   -0.86913E-08  1138   0.660E-04    0.810E-05
RMM:  17    -0.413215314103E+03    0.24916E-05   -0.68474E-08  1143   0.643E-04    0.519E-05
RMM:  18    -0.413215311515E+03    0.25879E-05   -0.55057E-08  1137   0.622E-04    0.348E-05
RMM:  19    -0.413215309669E+03    0.18461E-05   -0.36560E-08   979   0.582E-04    0.257E-05
RMM:  20    -0.413215309194E+03    0.47471E-06   -0.18536E-08   777   0.549E-04
   43 T=    71. E= -.41286686E+03 F= -.41321531E+03 E0= -.41319430E+03  EK= 0.34845E+00 SP= 0.00E+00 SK= 0.00E+00
       N       E                     dE             d eps       ncg     rms          rms(c)
RMM:   1    -0.413227736410E+03   -0.12427E-01   -0.10898E+01  4310   0.132E+00    0.949E-01
RMM:   2    -0.413220612168E+03    0.71242E-02   -0.15893E-01  4294   0.158E-01    0.702E-01
RMM:   3    -0.413221895722E+03   -0.12836E-02   -0.18016E-02  5075   0.907E-02    0.340E-01
RMM:   4    -0.413255396220E+03   -0.33500E-01   -0.55267E-02  5074   0.200E-01    0.813E-01
RMM:   5    -0.413216304111E+03    0.39092E-01   -0.16422E-02  4712   0.135E-01    0.608E-02
RMM:   6    -0.413216360777E+03   -0.56666E-04   -0.29990E-03  5727   0.518E-02    0.346E-02
RMM:   7    -0.413216362376E+03   -0.15996E-05   -0.44182E-04  5750   0.194E-02    0.227E-02
RMM:   8    -0.413216359769E+03    0.26070E-05   -0.11964E-04  5178   0.113E-02    0.118E-02
RMM:   9    -0.413216349132E+03    0.10637E-04   -0.19389E-05  4415   0.559E-03    0.470E-03
RMM:  10    -0.413216346662E+03    0.24701E-05   -0.39626E-06  2786   0.257E-03    0.296E-03
RMM:  11    -0.413216343717E+03    0.29448E-05   -0.12822E-06  2497   0.186E-03    0.160E-03
RMM:  12    -0.413216339620E+03    0.40977E-05   -0.78460E-07  2446   0.148E-03    0.627E-04
RMM:  13    -0.413216337092E+03    0.25276E-05   -0.38775E-07  2089   0.104E-03    0.290E-04
RMM:  14    -0.413216335303E+03    0.17890E-05   -0.21386E-07  1605   0.805E-04    0.186E-04
RMM:  15    -0.413216331710E+03    0.35935E-05   -0.15865E-07  1359   0.732E-04    0.118E-04
RMM:  16    -0.413216329999E+03    0.17101E-05   -0.93682E-08  1121   0.663E-04    0.797E-05
RMM:  17    -0.413216327713E+03    0.22866E-05   -0.76603E-08  1148   0.650E-04    0.479E-05
RMM:  18    -0.413216325451E+03    0.22620E-05   -0.60096E-08  1111   0.624E-04    0.347E-05
RMM:  19    -0.413216324006E+03    0.14448E-05   -0.38523E-08   958   0.585E-04    0.207E-05
RMM:  20    -0.413216323396E+03    0.61026E-06   -0.22494E-08   791   0.556E-04
   44 T=    71. E= -.41286666E+03 F= -.41321632E+03 E0= -.41319534E+03  EK= 0.34966E+00 SP= 0.00E+00 SK= 0.00E+00
       N       E                     dE             d eps       ncg     rms          rms(c)
RMM:   1    -0.413250058942E+03   -0.33735E-01   -0.11096E+01  4308   0.149E+00    0.972E-01
RMM:   2    -0.413221068282E+03    0.28991E-01   -0.17016E-01  4316   0.169E-01    0.698E-01
RMM:   3    -0.413226348983E+03   -0.52807E-02   -0.20229E-02  5113   0.105E-01    0.431E-01
RMM:   4    -0.413243686767E+03   -0.17338E-01   -0.46715E-02  5052   0.186E-01    0.675E-01
RMM:   5    -0.413217414565E+03    0.26272E-01   -0.10157E-02  4663   0.113E-01    0.593E-02
RMM:   6    -0.413217400757E+03    0.13809E-04   -0.20466E-03  5613   0.434E-02    0.342E-02
RMM:   7    -0.413217394772E+03    0.59846E-05   -0.34720E-04  5627   0.180E-02    0.225E-02
RMM:   8    -0.413217385062E+03    0.97096E-05   -0.12012E-04  5089   0.115E-02    0.107E-02
RMM:   9    -0.413217371467E+03    0.13596E-04   -0.16474E-05  4344   0.553E-03    0.432E-03
RMM:  10    -0.413217367597E+03    0.38699E-05   -0.30855E-06  2738   0.235E-03    0.256E-03
RMM:  11    -0.413217361674E+03    0.59231E-05   -0.11627E-06  2481   0.179E-03    0.139E-03
RMM:  12    -0.413217355457E+03    0.62173E-05   -0.61849E-07  2424   0.136E-03    0.629E-04
RMM:  13    -0.413217351800E+03    0.36570E-05   -0.29366E-07  1895   0.933E-04    0.295E-04
RMM:  14    -0.413217348418E+03    0.33820E-05   -0.16801E-07  1464   0.745E-04    0.166E-04
RMM:  15    -0.413217343322E+03    0.50951E-05   -0.12596E-07  1299   0.702E-04    0.122E-04
RMM:  16    -0.413217340508E+03    0.28141E-05   -0.81186E-08  1144   0.647E-04    0.928E-05
RMM:  17    -0.413217335769E+03    0.47390E-05   -0.84169E-08  1379   0.659E-04    0.654E-05
RMM:  18    -0.413217333745E+03    0.20243E-05   -0.43284E-08   975   0.569E-04    0.419E-05
RMM:  19    -0.413217332323E+03    0.14224E-05   -0.31122E-08   895   0.549E-04    0.216E-05
RMM:  20    -0.413217331854E+03    0.46903E-06   -0.18160E-08   750   0.525E-04
   45 T=    71. E= -.41286699E+03 F= -.41321733E+03 E0= -.41319637E+03  EK= 0.35034E+00 SP= 0.00E+00 SK= 0.00E+00
       N       E                     dE             d eps       ncg     rms          rms(c)
RMM:   1    -0.413258806660E+03   -0.41474E-01   -0.11079E+01  4308   0.161E+00    0.952E-01
RMM:   2    -0.413220638051E+03    0.38169E-01   -0.18631E-01  4337   0.187E-01    0.694E-01
RMM:   3    -0.413228091324E+03   -0.74533E-02   -0.20769E-02  5113   0.113E-01    0.487E-01
RMM:   4    -0.413239172243E+03   -0.11081E-01   -0.44850E-02  5040   0.184E-01    0.629E-01
RMM:   5    -0.413216941194E+03    0.22231E-01   -0.85548E-03  4619   0.107E-01    0.593E-02
RMM:   6    -0.413216900520E+03    0.40674E-04   -0.17085E-03  5493   0.403E-02    0.334E-02
RMM:   7    -0.413216893300E+03    0.72208E-05   -0.30408E-04  5632   0.170E-02    0.228E-02
RMM:   8    -0.413216881181E+03    0.12119E-04   -0.12597E-04  5081   0.117E-02    0.105E-02
RMM:   9    -0.413216867547E+03    0.13633E-04   -0.17208E-05  4365   0.570E-03    0.421E-03
RMM:  10    -0.413216864420E+03    0.31273E-05   -0.28983E-06  2725   0.228E-03    0.243E-03
RMM:  11    -0.413216858813E+03    0.56068E-05   -0.13179E-06  2498   0.184E-03    0.136E-03
RMM:  12    -0.413216854136E+03    0.46771E-05   -0.59242E-07  2436   0.135E-03    0.692E-04
RMM:  13    -0.413216850673E+03    0.34630E-05   -0.28514E-07  1842   0.918E-04    0.327E-04
RMM:  14    -0.413216847223E+03    0.34507E-05   -0.16309E-07  1393   0.732E-04    0.175E-04
RMM:  15    -0.413216843414E+03    0.38082E-05   -0.11807E-07  1261   0.684E-04    0.119E-04
RMM:  16    -0.413216840636E+03    0.27783E-05   -0.80829E-08  1138   0.641E-04    0.102E-04
RMM:  17    -0.413216836633E+03    0.40027E-05   -0.77720E-08  1282   0.646E-04    0.643E-05
RMM:  18    -0.413216834539E+03    0.20943E-05   -0.46495E-08  1039   0.579E-04    0.511E-05
RMM:  19    -0.413216833572E+03    0.96683E-06   -0.26103E-08   819   0.533E-04
   46 T=    71. E= -.41286692E+03 F= -.41321683E+03 E0= -.41319589E+03  EK= 0.34991E+00 SP= 0.00E+00 SK= 0.00E+00
       N       E                     dE             d eps       ncg     rms          rms(c)
RMM:   1    -0.413237995360E+03   -0.21161E-01   -0.10894E+01  4308   0.159E+00    0.941E-01
RMM:   2    -0.413219703997E+03    0.18291E-01   -0.17976E-01  4351   0.192E-01    0.705E-01
RMM:   3    -0.413229029326E+03   -0.93253E-02   -0.23317E-02  5114   0.124E-01    0.522E-01
RMM:   4    -0.413236762784E+03   -0.77335E-02   -0.46537E-02  5024   0.189E-01    0.611E-01
RMM:   5    -0.413215503290E+03    0.21259E-01   -0.76994E-03  4600   0.105E-01    0.589E-02
RMM:   6    -0.413215446059E+03    0.57231E-04   -0.15403E-03  5440   0.387E-02    0.320E-02
RMM:   7    -0.413215438656E+03    0.74033E-05   -0.27342E-04  5627   0.162E-02    0.220E-02
RMM:   8    -0.413215426673E+03    0.11983E-04   -0.12951E-04  5100   0.118E-02    0.104E-02
RMM:   9    -0.413215414055E+03    0.12618E-04   -0.16912E-05  4344   0.571E-03    0.415E-03
RMM:  10    -0.413215411914E+03    0.21409E-05   -0.30267E-06  2734   0.228E-03    0.239E-03
RMM:  11    -0.413215407961E+03    0.39526E-05   -0.13318E-06  2497   0.186E-03    0.130E-03
RMM:  12    -0.413215404862E+03    0.30991E-05   -0.61104E-07  2431   0.135E-03    0.695E-04
RMM:  13    -0.413215402224E+03    0.26376E-05   -0.30780E-07  1848   0.938E-04    0.339E-04
RMM:  14    -0.413215399650E+03    0.25740E-05   -0.17631E-07  1405   0.746E-04    0.175E-04
RMM:  15    -0.413215396861E+03    0.27898E-05   -0.13114E-07  1258   0.691E-04    0.113E-04
RMM:  16    -0.413215394801E+03    0.20593E-05   -0.86825E-08  1147   0.644E-04    0.949E-05
RMM:  17    -0.413215391881E+03    0.29201E-05   -0.83725E-08  1254   0.645E-04    0.548E-05
RMM:  18    -0.413215390095E+03    0.17865E-05   -0.49803E-08  1013   0.581E-04    0.465E-05
RMM:  19    -0.413215389418E+03    0.67685E-06   -0.25479E-08   778   0.533E-04
   47 T=    71. E= -.41286695E+03 F= -.41321539E+03 E0= -.41319446E+03  EK= 0.34844E+00 SP= 0.00E+00 SK= 0.00E+00
       N       E                     dE             d eps       ncg     rms          rms(c)
RMM:   1    -0.413239969983E+03   -0.24580E-01   -0.10836E+01  4303   0.172E+00    0.962E-01
RMM:   2    -0.413216670998E+03    0.23299E-01   -0.17365E-01  4403   0.201E-01    0.699E-01
RMM:   3    -0.413233964705E+03   -0.17294E-01   -0.30260E-02  5138   0.146E-01    0.636E-01
RMM:   4    -0.413225415276E+03    0.85494E-02   -0.42045E-02  4985   0.183E-01    0.478E-01
RMM:   5    -0.413212950012E+03    0.12465E-01   -0.45760E-03  4531   0.898E-02    0.581E-02
RMM:   6    -0.413212834735E+03    0.11528E-03   -0.68996E-04  4892   0.300E-02    0.307E-02
RMM:   7    -0.413212818114E+03    0.16620E-04   -0.17717E-04  5869   0.131E-02    0.125E-02
RMM:   8    -0.413212808643E+03    0.94708E-05   -0.41961E-05  5153   0.791E-03    0.745E-03
RMM:   9    -0.413212804593E+03    0.40503E-05   -0.74458E-06  3337   0.346E-03    0.331E-03
RMM:  10    -0.413212800666E+03    0.39266E-05   -0.21205E-06  2574   0.225E-03    0.228E-03
RMM:  11    -0.413212795878E+03    0.47883E-05   -0.13677E-06  2470   0.196E-03    0.152E-03
RMM:  12    -0.413212792253E+03    0.36257E-05   -0.48725E-07  2386   0.132E-03    0.853E-04
RMM:  13    -0.413212788520E+03    0.37329E-05   -0.24510E-07  1912   0.882E-04    0.460E-04
RMM:  14    -0.413212782718E+03    0.58011E-05   -0.20336E-07  1705   0.798E-04    0.408E-04
RMM:  15    -0.413212779480E+03    0.32389E-05   -0.89917E-08  1016   0.601E-04    0.162E-04
RMM:  16    -0.413212776834E+03    0.26455E-05   -0.65270E-08   988   0.593E-04    0.988E-05
RMM:  17    -0.413212773023E+03    0.38108E-05   -0.69970E-08  1165   0.617E-04    0.133E-04
RMM:  18    -0.413212772374E+03    0.64924E-06   -0.24608E-08   726   0.526E-04
   48 T=    70. E= -.41286721E+03 F= -.41321277E+03 E0= -.41319186E+03  EK= 0.34556E+00 SP= 0.00E+00 SK= 0.00E+00
       N       E                     dE             d eps       ncg     rms          rms(c)
RMM:   1    -0.413239654328E+03   -0.26881E-01   -0.10656E+01  4304   0.184E+00    0.950E-01
RMM:   2    -0.413211311761E+03    0.28343E-01   -0.17477E-01  4464   0.212E-01    0.688E-01
RMM:   3    -0.413235749668E+03   -0.24438E-01   -0.35804E-02  5151   0.163E-01    0.728E-01
RMM:   4    -0.413216173120E+03    0.19577E-01   -0.41109E-02  4956   0.184E-01    0.404E-01
RMM:   5    -0.413207804489E+03    0.83686E-02   -0.41957E-03  4619   0.881E-02    0.644E-02
RMM:   6    -0.413207620852E+03    0.18364E-03   -0.47058E-04  4669   0.292E-02    0.332E-02
RMM:   7    -0.413207626186E+03   -0.53340E-05   -0.30851E-04  5754   0.184E-02    0.249E-02
RMM:   8    -0.413207588304E+03    0.37881E-04   -0.10219E-04  4997   0.116E-02    0.957E-03
RMM:   9    -0.413207581300E+03    0.70042E-05   -0.21600E-05  5063   0.584E-03    0.485E-03
RMM:  10    -0.413207577015E+03    0.42848E-05   -0.25121E-06  2649   0.247E-03    0.264E-03
RMM:  11    -0.413207570903E+03    0.61126E-05   -0.15112E-06  2502   0.201E-03    0.191E-03
RMM:  12    -0.413207567028E+03    0.38749E-05   -0.45573E-07  2414   0.127E-03    0.992E-04
RMM:  13    -0.413207562618E+03    0.44097E-05   -0.26587E-07  2004   0.884E-04    0.479E-04
RMM:  14    -0.413207557054E+03    0.55639E-05   -0.23021E-07  1812   0.812E-04    0.377E-04
RMM:  15    -0.413207552203E+03    0.48509E-05   -0.12315E-07  1156   0.653E-04    0.155E-04
RMM:  16    -0.413207549576E+03    0.26278E-05   -0.73352E-08  1057   0.605E-04    0.925E-05
RMM:  17    -0.413207545921E+03    0.36546E-05   -0.73793E-08  1203   0.623E-04    0.722E-05
RMM:  18    -0.413207544475E+03    0.14463E-05   -0.39261E-08   939   0.552E-04    0.584E-05
RMM:  19    -0.413207542778E+03    0.16964E-05   -0.33811E-08   952   0.544E-04    0.369E-05
RMM:  20    -0.413207541975E+03    0.80325E-06   -0.22147E-08   809   0.510E-04
   49 T=    69. E= -.41286695E+03 F= -.41320754E+03 E0= -.41318664E+03  EK= 0.34059E+00 SP= 0.00E+00 SK= 0.00E+00
       N       E                     dE             d eps       ncg     rms          rms(c)
RMM:   1    -0.413230382612E+03   -0.22840E-01   -0.10441E+01  4303   0.192E+00    0.923E-01
RMM:   2    -0.413205078540E+03    0.25304E-01   -0.17188E-01  4494   0.219E-01    0.690E-01
RMM:   3    -0.413231498923E+03   -0.26420E-01   -0.37759E-02  5150   0.170E-01    0.757E-01
RMM:   4    -0.413209055564E+03    0.22443E-01   -0.42525E-02  4947   0.189E-01    0.392E-01
RMM:   5    -0.413201028158E+03    0.80274E-02   -0.45243E-03  4721   0.914E-02    0.691E-02
RMM:   6    -0.413200797519E+03    0.23064E-03   -0.47935E-04  4645   0.307E-02    0.340E-02
[...]
RMM:  12    -0.413162067947E+03   -0.63369E-05   -0.89448E-07  2472   0.141E-03    0.610E-04
RMM:  13    -0.413162071838E+03   -0.38915E-05   -0.48934E-07  2086   0.105E-03    0.342E-04
RMM:  14    -0.413162074572E+03   -0.27333E-05   -0.30443E-07  1701   0.852E-04    0.234E-04
RMM:  15    -0.413162078563E+03   -0.39912E-05   -0.41759E-07  1906   0.900E-04    0.169E-04
RMM:  16    -0.413162079508E+03   -0.94535E-06   -0.13865E-07  1268   0.641E-04
  139 T=    60. E= -.41286682E+03 F= -.41316208E+03 E0= -.41314139E+03  EK= 0.29526E+00 SP= 0.00E+00 SK= 0.00E+00
       N       E                     dE             d eps       ncg     rms          rms(c)
RMM:   1    -0.413157252292E+03    0.48263E-02   -0.80809E+00  4264   0.847E-01    0.785E-01
RMM:   2    -0.413162879561E+03   -0.56273E-02   -0.97653E-02  4358   0.943E-02    0.566E-01
RMM:   3    -0.413161573853E+03    0.13057E-02   -0.99097E-03  5063   0.524E-02    0.162E-01
RMM:   4    -0.413193044262E+03   -0.31470E-01   -0.36603E-02  5134   0.160E-01    0.745E-01
RMM:   5    -0.413160543106E+03    0.32501E-01   -0.15464E-02  4798   0.125E-01    0.542E-02
RMM:   6    -0.413160544258E+03   -0.11524E-05   -0.25746E-03  5693   0.491E-02    0.277E-02
RMM:   7    -0.413160577009E+03   -0.32751E-04   -0.38348E-04  5987   0.174E-02    0.184E-02
RMM:   8    -0.413160589998E+03   -0.12989E-04   -0.81501E-05  5224   0.947E-03    0.886E-03
RMM:   9    -0.413160597575E+03   -0.75773E-05   -0.11529E-05  3473   0.399E-03    0.407E-03
RMM:  10    -0.413160605324E+03   -0.77484E-05   -0.26058E-06  2636   0.227E-03    0.270E-03
RMM:  11    -0.413160615893E+03   -0.10570E-04   -0.18341E-06  2559   0.197E-03    0.146E-03
RMM:  12    -0.413160622432E+03   -0.65390E-05   -0.10168E-06  2474   0.147E-03    0.564E-04
RMM:  13    -0.413160625854E+03   -0.34219E-05   -0.52770E-07  2154   0.107E-03    0.345E-04
RMM:  14    -0.413160628137E+03   -0.22832E-05   -0.31148E-07  1786   0.866E-04    0.245E-04
RMM:  15    -0.413160631458E+03   -0.33203E-05   -0.38867E-07  1794   0.877E-04    0.152E-04
RMM:  16    -0.413160632518E+03   -0.10608E-05   -0.15207E-07  1362   0.673E-04    0.854E-05
RMM:  17    -0.413160633613E+03   -0.10942E-05   -0.12051E-07  1266   0.642E-04    0.539E-05
RMM:  18    -0.413160634148E+03   -0.53540E-06   -0.66083E-08  1040   0.571E-04
  140 T=    60. E= -.41286667E+03 F= -.41316063E+03 E0= -.41313996E+03  EK= 0.29397E+00 SP= 0.00E+00 SK= 0.00E+00
       N       E                     dE             d eps       ncg     rms          rms(c)
RMM:   1    -0.413159329044E+03    0.13046E-02   -0.76220E+00  4264   0.813E-01    0.774E-01
RMM:   2    -0.413164561732E+03   -0.52327E-02   -0.93197E-02  4358   0.918E-02    0.575E-01
RMM:   3    -0.413162157425E+03    0.24043E-02   -0.13172E-02  5056   0.525E-02    0.138E-01
RMM:   4    -0.413191929852E+03   -0.29772E-01   -0.34130E-02  5129   0.155E-01    0.725E-01
RMM:   5    -0.413161225321E+03    0.30705E-01   -0.14628E-02  4807   0.121E-01    0.525E-02
RMM:   6    -0.413161234047E+03   -0.87253E-05   -0.24284E-03  5695   0.477E-02    0.281E-02
RMM:   7    -0.413161270592E+03   -0.36545E-04   -0.37547E-04  5920   0.171E-02    0.182E-02
RMM:   8    -0.413161286557E+03   -0.15965E-04   -0.76692E-05  5213   0.923E-03    0.878E-03
RMM:   9    -0.413161296096E+03   -0.95390E-05   -0.10405E-05  3352   0.380E-03    0.419E-03
RMM:  10    -0.413161306538E+03   -0.10442E-04   -0.25170E-06  2624   0.225E-03    0.277E-03
RMM:  11    -0.413161318902E+03   -0.12364E-04   -0.17158E-06  2545   0.190E-03    0.145E-03
RMM:  12    -0.413161328407E+03   -0.95057E-05   -0.11848E-06  2472   0.152E-03    0.526E-04
RMM:  13    -0.413161332740E+03   -0.43323E-05   -0.55621E-07  2185   0.108E-03    0.363E-04
RMM:  14    -0.413161335502E+03   -0.27621E-05   -0.30719E-07  1754   0.860E-04    0.251E-04
RMM:  15    -0.413161340058E+03   -0.45564E-05   -0.40364E-07  1899   0.896E-04    0.176E-04
RMM:  16    -0.413161341662E+03   -0.16040E-05   -0.16282E-07  1357   0.669E-04    0.111E-04
RMM:  17    -0.413161342946E+03   -0.12838E-05   -0.11395E-07  1198   0.624E-04    0.563E-05
RMM:  18    -0.413161343666E+03   -0.71958E-06   -0.68971E-08  1036   0.571E-04
  141 T=    60. E= -.41286685E+03 F= -.41316134E+03 E0= -.41314068E+03  EK= 0.29450E+00 SP= 0.00E+00 SK= 0.00E+00
       N       E                     dE             d eps       ncg     rms          rms(c)
RMM:   1    -0.413160926967E+03    0.41598E-03   -0.71255E+00  4264   0.790E-01    0.789E-01
RMM:   2    -0.413164670178E+03   -0.37432E-02   -0.87517E-02  4359   0.895E-02    0.578E-01
RMM:   3    -0.413161610632E+03    0.30595E-02   -0.16734E-02  5024   0.545E-02    0.134E-01
RMM:   4    -0.413188323637E+03   -0.26713E-01   -0.30506E-02  5124   0.147E-01    0.689E-01
RMM:   5    -0.413160714316E+03    0.27609E-01   -0.13143E-02  4807   0.115E-01    0.514E-02
RMM:   6    -0.413160724712E+03   -0.10396E-04   -0.22493E-03  5700   0.459E-02    0.295E-02
RMM:   7    -0.413160753404E+03   -0.28692E-04   -0.36668E-04  5856   0.172E-02    0.188E-02
RMM:   8    -0.413160763376E+03   -0.99725E-05   -0.71202E-05  5196   0.903E-03    0.903E-03
RMM:   9    -0.413160769674E+03   -0.62975E-05   -0.91438E-06  3263   0.362E-03    0.444E-03
RMM:  10    -0.413160778465E+03   -0.87917E-05   -0.24491E-06  2621   0.225E-03    0.285E-03
RMM:  11    -0.413160787273E+03   -0.88075E-05   -0.15595E-06  2536   0.182E-03    0.146E-03
RMM:  12    -0.413160794906E+03   -0.76332E-05   -0.12803E-06  2495   0.156E-03    0.548E-04
RMM:  13    -0.413160798043E+03   -0.31366E-05   -0.55940E-07  2211   0.110E-03    0.386E-04
RMM:  14    -0.413160799867E+03   -0.18241E-05   -0.29307E-07  1750   0.854E-04    0.261E-04
RMM:  15    -0.413160802911E+03   -0.30440E-05   -0.37952E-07  1899   0.888E-04    0.202E-04
RMM:  16    -0.413160804304E+03   -0.13935E-05   -0.17805E-07  1415   0.692E-04    0.130E-04
RMM:  17    -0.413160805053E+03   -0.74924E-06   -0.10230E-07  1121   0.606E-04
  142 T=    60. E= -.41286677E+03 F= -.41316081E+03 E0= -.41314016E+03  EK= 0.29403E+00 SP= 0.00E+00 SK= 0.00E+00
       N       E                     dE             d eps       ncg     rms          rms(c)
RMM:   1    -0.413161527887E+03   -0.72358E-03   -0.65885E+00  4264   0.769E-01    0.795E-01
RMM:   2    -0.413163382699E+03   -0.18548E-02   -0.82058E-02  4359   0.851E-02    0.576E-01
RMM:   3    -0.413160071174E+03    0.33115E-02   -0.20400E-02  4964   0.564E-02    0.129E-01
RMM:   4    -0.413182883770E+03   -0.22813E-01   -0.25655E-02  5122   0.135E-01    0.638E-01
RMM:   5    -0.413159287376E+03    0.23596E-01   -0.11313E-02  4813   0.106E-01    0.491E-02
RMM:   6    -0.413159298262E+03   -0.10886E-04   -0.19798E-03  5713   0.432E-02    0.303E-02
RMM:   7    -0.413159319153E+03   -0.20892E-04   -0.34145E-04  5779   0.171E-02    0.190E-02
RMM:   8    -0.413159325510E+03   -0.63565E-05   -0.63678E-05  5191   0.876E-03    0.906E-03
RMM:   9    -0.413159329621E+03   -0.41110E-05   -0.81391E-06  3174   0.346E-03    0.454E-03
RMM:  10    -0.413159336329E+03   -0.67082E-05   -0.23418E-06  2608   0.222E-03    0.284E-03
RMM:  11    -0.413159341878E+03   -0.55494E-05   -0.14451E-06  2534   0.176E-03    0.144E-03
RMM:  12    -0.413159346957E+03   -0.50787E-05   -0.13527E-06  2509   0.157E-03    0.594E-04
RMM:  13    -0.413159348914E+03   -0.19570E-05   -0.55806E-07  2216   0.110E-03    0.410E-04
RMM:  14    -0.413159350055E+03   -0.11411E-05   -0.28906E-07  1732   0.850E-04    0.266E-04
RMM:  15    -0.413159351816E+03   -0.17607E-05   -0.36913E-07  1848   0.874E-04    0.212E-04
RMM:  16    -0.413159352826E+03   -0.10100E-05   -0.21177E-07  1499   0.719E-04    0.148E-04
RMM:  17    -0.413159353267E+03   -0.44154E-06   -0.99359E-08  1126   0.596E-04
  143 T=    60. E= -.41286666E+03 F= -.41315935E+03 E0= -.41313872E+03  EK= 0.29269E+00 SP= 0.00E+00 SK= 0.00E+00
       N       E                     dE             d eps       ncg     rms          rms(c)
RMM:   1    -0.413163655135E+03   -0.43023E-02   -0.61431E+00  4264   0.747E-01    0.785E-01
RMM:   2    -0.413164680379E+03   -0.10252E-02   -0.76974E-02  4353   0.856E-02    0.578E-01
RMM:   3    -0.413161034090E+03    0.36463E-02   -0.27206E-02  4918   0.601E-02    0.162E-01
RMM:   4    -0.413178453699E+03   -0.17420E-01   -0.20102E-02  5120   0.120E-01    0.567E-01
RMM:   5    -0.413160025366E+03    0.18428E-01   -0.89595E-03  4810   0.948E-02    0.448E-02
RMM:   6    -0.413160034494E+03   -0.91287E-05   -0.15737E-03  5694   0.388E-02    0.285E-02
RMM:   7    -0.413160063562E+03   -0.29068E-04   -0.28607E-04  5710   0.156E-02    0.176E-02
RMM:   8    -0.413160073738E+03   -0.10177E-04   -0.50903E-05  5143   0.784E-03    0.821E-03
RMM:   9    -0.413160079953E+03   -0.62150E-05   -0.67308E-06  3072   0.313E-03    0.418E-03
RMM:  10    -0.413160088978E+03   -0.90247E-05   -0.19872E-06  2568   0.207E-03    0.263E-03
RMM:  11    -0.413160096636E+03   -0.76577E-05   -0.13201E-06  2515   0.162E-03    0.130E-03
RMM:  12    -0.413160103777E+03   -0.71415E-05   -0.12448E-06  2488   0.145E-03    0.588E-04
RMM:  13    -0.413160106784E+03   -0.30067E-05   -0.50565E-07  2102   0.102E-03    0.397E-04
RMM:  14    -0.413160108722E+03   -0.19382E-05   -0.27368E-07  1558   0.807E-04    0.243E-04
RMM:  15    -0.413160111823E+03   -0.31011E-05   -0.41728E-07  1965   0.888E-04    0.260E-04
RMM:  16    -0.413160113442E+03   -0.16190E-05   -0.20669E-07  1382   0.680E-04    0.166E-04
RMM:  17    -0.413160114341E+03   -0.89908E-06   -0.11531E-07  1112   0.605E-04
  144 T=    60. E= -.41286692E+03 F= -.41316011E+03 E0= -.41313949E+03  EK= 0.29320E+00 SP= 0.00E+00 SK= 0.00E+00
       N       E                     dE             d eps       ncg     rms          rms(c)
RMM:   1    -0.413165490024E+03   -0.53766E-02   -0.57897E+00  4264   0.729E-01    0.799E-01
RMM:   2    -0.413165194934E+03    0.29509E-03   -0.72651E-02  4361   0.821E-02    0.584E-01
RMM:   3    -0.413161291098E+03    0.39038E-02   -0.33031E-02  4921   0.619E-02    0.192E-01
RMM:   4    -0.413176170244E+03   -0.14879E-01   -0.17852E-02  5127   0.114E-01    0.531E-01
RMM:   5    -0.413160102408E+03    0.16068E-01   -0.78982E-03  4807   0.893E-02    0.424E-02
RMM:   6    -0.413160110804E+03   -0.83957E-05   -0.13864E-03  5678   0.366E-02    0.272E-02
RMM:   7    -0.413160136973E+03   -0.26170E-04   -0.24998E-04  5700   0.146E-02    0.168E-02
RMM:   8    -0.413160146493E+03   -0.95193E-05   -0.44078E-05  5068   0.731E-03    0.763E-03
RMM:   9    -0.413160151999E+03   -0.55067E-05   -0.60117E-06  3010   0.299E-03    0.393E-03
RMM:  10    -0.413160159983E+03   -0.79834E-05   -0.18127E-06  2554   0.198E-03    0.249E-03
RMM:  11    -0.413160167034E+03   -0.70515E-05   -0.12949E-06  2510   0.156E-03    0.121E-03
RMM:  12    -0.413160173538E+03   -0.65039E-05   -0.12103E-06  2460   0.139E-03    0.565E-04
RMM:  13    -0.413160176290E+03   -0.27515E-05   -0.48331E-07  2018   0.967E-04    0.382E-04
RMM:  14    -0.413160178308E+03   -0.20186E-05   -0.28923E-07  1499   0.801E-04    0.228E-04
RMM:  15    -0.413160181215E+03   -0.29063E-05   -0.45451E-07  1875   0.879E-04    0.258E-04
RMM:  16    -0.413160182746E+03   -0.15314E-05   -0.23793E-07  1409   0.695E-04    0.168E-04
RMM:  17    -0.413160183474E+03   -0.72789E-06   -0.11435E-07  1092   0.594E-04
  145 T=    60. E= -.41286662E+03 F= -.41316018E+03 E0= -.41313957E+03  EK= 0.29356E+00 SP= 0.00E+00 SK= 0.00E+00
       N       E                     dE             d eps       ncg     rms          rms(c)
RMM:   1    -0.413166151234E+03   -0.59685E-02   -0.54406E+00  4264   0.712E-01    0.813E-01
RMM:   2    -0.413164442015E+03    0.17092E-02   -0.69231E-02  4372   0.798E-02    0.582E-01
RMM:   3    -0.413160357837E+03    0.40842E-02   -0.34873E-02  4942   0.604E-02    0.184E-01
RMM:   4    -0.413174285394E+03   -0.13928E-01   -0.16821E-02  5126   0.111E-01    0.514E-01
RMM:   5    -0.413159209424E+03    0.15076E-01   -0.74972E-03  4815   0.866E-02    0.412E-02
RMM:   6    -0.413159217953E+03   -0.85288E-05   -0.13018E-03  5682   0.355E-02    0.267E-02
RMM:   7    -0.413159240406E+03   -0.22453E-04   -0.23170E-04  5704   0.141E-02    0.169E-02
RMM:   8    -0.413159244960E+03   -0.45542E-05   -0.41261E-05  5023   0.711E-03    0.755E-03
RMM:   9    -0.413159247418E+03   -0.24580E-05   -0.61998E-06  2987   0.298E-03    0.378E-03
RMM:  10    -0.413159251540E+03   -0.41216E-05   -0.17888E-06  2554   0.195E-03    0.242E-03
RMM:  11    -0.413159254879E+03   -0.33385E-05   -0.13118E-06  2509   0.154E-03    0.117E-03
RMM:  12    -0.413159257967E+03   -0.30880E-05   -0.12404E-06  2465   0.137E-03    0.570E-04
RMM:  13    -0.413159259226E+03   -0.12594E-05   -0.48924E-07  1955   0.956E-04    0.384E-04
RMM:  14    -0.413159260241E+03   -0.10147E-05   -0.30735E-07  1493   0.805E-04    0.219E-04
RMM:  15    -0.413159261580E+03   -0.13391E-05   -0.48676E-07  1929   0.893E-04    0.255E-04
RMM:  16    -0.413159262405E+03   -0.82476E-06   -0.25893E-07  1412   0.697E-04
  146 T=    60. E= -.41286672E+03 F= -.41315926E+03 E0= -.41313865E+03  EK= 0.29254E+00 SP= 0.00E+00 SK= 0.00E+00
       N       E                     dE             d eps       ncg     rms          rms(c)
RMM:   1    -0.413166796270E+03   -0.75347E-02   -0.52180E+00  4264   0.711E-01    0.799E-01
RMM:   2    -0.413164704356E+03    0.20919E-02   -0.66307E-02  4352   0.819E-02    0.578E-01
RMM:   3    -0.413160828938E+03    0.38754E-02   -0.39269E-02  4875   0.662E-02    0.219E-01
RMM:   4    -0.413172610393E+03   -0.11781E-01   -0.15178E-02  5128   0.105E-01    0.483E-01
RMM:   5    -0.413159410219E+03    0.13200E-01   -0.66916E-03  4808   0.819E-02    0.386E-02
RMM:   6    -0.413159407740E+03    0.24797E-05   -0.11101E-03  5652   0.332E-02    0.245E-02
RMM:   7    -0.413159431138E+03   -0.23399E-04   -0.19691E-04  5680   0.131E-02    0.155E-02
RMM:   8    -0.413159439227E+03   -0.80887E-05   -0.36599E-05  4940   0.674E-03    0.670E-03
RMM:   9    -0.413159443274E+03   -0.40468E-05   -0.54770E-06  2912   0.285E-03    0.350E-03
RMM:  10    -0.413159448713E+03   -0.54391E-05   -0.16362E-06  2543   0.187E-03    0.230E-03
RMM:  11    -0.413159454081E+03   -0.53684E-05   -0.13485E-06  2496   0.149E-03    0.106E-03
RMM:  12    -0.413159459042E+03   -0.49604E-05   -0.11460E-06  2413   0.128E-03    0.526E-04
RMM:  13    -0.413159461391E+03   -0.23494E-05   -0.46399E-07  1810   0.904E-04    0.357E-04
RMM:  14    -0.413159463574E+03   -0.21834E-05   -0.39430E-07  1557   0.838E-04    0.208E-04
RMM:  15    -0.413159465887E+03   -0.23125E-05   -0.51288E-07  1836   0.884E-04    0.233E-04
RMM:  16    -0.413159467309E+03   -0.14220E-05   -0.32344E-07  1470   0.735E-04    0.143E-04
RMM:  17    -0.413159467864E+03   -0.55553E-06   -0.11926E-07  1075   0.585E-04
  147 T=    60. E= -.41286689E+03 F= -.41315947E+03 E0= -.41313886E+03  EK= 0.29258E+00 SP= 0.00E+00 SK= 0.00E+00
       N       E                     dE             d eps       ncg     rms          rms(c)
RMM:   1    -0.413167776159E+03   -0.83088E-02   -0.51860E+00  4264   0.713E-01    0.802E-01
RMM:   2    -0.413165403736E+03    0.23724E-02   -0.65124E-02  4356   0.813E-02    0.584E-01
RMM:   3    -0.413161490452E+03    0.39133E-02   -0.42648E-02  4817   0.670E-02    0.243E-01
RMM:   4    -0.413170551694E+03   -0.90612E-02   -0.12713E-02  5125   0.962E-02    0.433E-01
RMM:   5    -0.413159989343E+03    0.10562E-01   -0.53866E-03  4803   0.739E-02    0.362E-02
RMM:   6    -0.413159986418E+03    0.29252E-05   -0.90876E-04  5638   0.304E-02    0.234E-02
RMM:   7    -0.413160010009E+03   -0.23592E-04   -0.17578E-04  5613   0.122E-02    0.148E-02
RMM:   8    -0.413160019667E+03   -0.96571E-05   -0.32740E-05  4838   0.644E-03    0.620E-03
RMM:   9    -0.413160024677E+03   -0.50106E-05   -0.49441E-06  2840   0.273E-03    0.344E-03
RMM:  10    -0.413160031413E+03   -0.67358E-05   -0.15868E-06  2533   0.182E-03    0.225E-03
RMM:  11    -0.413160038007E+03   -0.65943E-05   -0.13857E-06  2487   0.146E-03    0.978E-04
RMM:  12    -0.413160044014E+03   -0.60069E-05   -0.10453E-06  2382   0.122E-03    0.498E-04
RMM:  13    -0.413160047273E+03   -0.32590E-05   -0.48375E-07  1756   0.893E-04    0.340E-04
RMM:  14    -0.413160050407E+03   -0.31345E-05   -0.46781E-07  1725   0.876E-04    0.217E-04
RMM:  15    -0.413160053115E+03   -0.27080E-05   -0.47616E-07  1733   0.849E-04    0.211E-04
RMM:  16    -0.413160054949E+03   -0.18331E-05   -0.37129E-07  1471   0.761E-04    0.135E-04
RMM:  17    -0.413160055340E+03   -0.39136E-06   -0.10262E-07  1025   0.573E-04
  148 T=    60. E= -.41286673E+03 F= -.41316006E+03 E0= -.41313945E+03  EK= 0.29333E+00 SP= 0.00E+00 SK= 0.00E+00
       N       E                     dE             d eps       ncg     rms          rms(c)
RMM:   1    -0.413167603680E+03   -0.75487E-02   -0.51633E+00  4264   0.707E-01    0.812E-01
RMM:   2    -0.413164750130E+03    0.28536E-02   -0.65076E-02  4369   0.796E-02    0.582E-01
RMM:   3    -0.413160757636E+03    0.39925E-02   -0.38617E-02  4853   0.607E-02    0.200E-01
RMM:   4    -0.413168699612E+03   -0.79420E-02   -0.10609E-02  5132   0.883E-02    0.401E-01
RMM:   5    -0.413159626621E+03    0.90730E-02   -0.45920E-03  4815   0.681E-02    0.360E-02
RMM:   6    -0.413159626267E+03    0.35394E-06   -0.81367E-04  5630   0.288E-02    0.243E-02
RMM:   7    -0.413159641943E+03   -0.15676E-04   -0.16917E-04  5550   0.124E-02    0.155E-02
RMM:   8    -0.413159646702E+03   -0.47590E-05   -0.32166E-05  4811   0.655E-03    0.655E-03
RMM:   9    -0.413159648754E+03   -0.20515E-05   -0.52866E-06  2817   0.267E-03    0.329E-03
RMM:  10    -0.413159651518E+03   -0.27647E-05   -0.15803E-06  2531   0.180E-03    0.211E-03
RMM:  11    -0.413159654264E+03   -0.27460E-05   -0.13320E-06  2478   0.144E-03    0.953E-04
RMM:  12    -0.413159656786E+03   -0.25219E-05   -0.98570E-07  2355   0.121E-03    0.493E-04
RMM:  13    -0.413159658304E+03   -0.15174E-05   -0.49932E-07  1782   0.902E-04    0.335E-04
RMM:  14    -0.413159659676E+03   -0.13723E-05   -0.47085E-07  1661   0.864E-04    0.209E-04
RMM:  15    -0.413159660784E+03   -0.11076E-05   -0.43934E-07  1733   0.837E-04    0.199E-04
RMM:  16    -0.413159661554E+03   -0.77016E-06   -0.37014E-07  1457   0.757E-04
  149 T=    60. E= -.41286699E+03 F= -.41315966E+03 E0= -.41313906E+03  EK= 0.29267E+00 SP= 0.00E+00 SK= 0.00E+00
       N       E                     dE             d eps       ncg     rms          rms(c)
RMM:   1    -0.413166027897E+03   -0.63671E-02   -0.52692E+00  4265   0.716E-01    0.795E-01
RMM:   2    -0.413163816266E+03    0.22116E-02   -0.65343E-02  4377   0.790E-02    0.575E-01
RMM:   3    -0.413159940359E+03    0.38759E-02   -0.36644E-02  4836   0.587E-02    0.194E-01
RMM:   4    -0.413166178243E+03   -0.62379E-02   -0.86521E-03  5130   0.799E-02    0.358E-01
RMM:   5    -0.413158952196E+03    0.72260E-02   -0.36625E-03  4814   0.609E-02    0.357E-02
RMM:   6    -0.413158951906E+03    0.29018E-06   -0.69741E-04  5582   0.269E-02    0.247E-02
RMM:   7    -0.413158964136E+03   -0.12230E-04   -0.16322E-04  5475   0.122E-02    0.152E-02
RMM:   8    -0.413158968046E+03   -0.39097E-05   -0.30159E-05  4818   0.627E-03    0.655E-03
RMM:   9    -0.413158970756E+03   -0.27102E-05   -0.45909E-06  2729   0.250E-03    0.318E-03
RMM:  10    -0.413158974965E+03   -0.42087E-05   -0.15916E-06  2531   0.178E-03    0.195E-03
RMM:  11    -0.413158978953E+03   -0.39886E-05   -0.13381E-06  2476   0.144E-03    0.893E-04
RMM:  12    -0.413158982069E+03   -0.31161E-05   -0.89591E-07  2291   0.117E-03    0.460E-04
RMM:  13    -0.413158984046E+03   -0.19768E-05   -0.50632E-07  1913   0.923E-04    0.318E-04
RMM:  14    -0.413158985879E+03   -0.18329E-05   -0.50600E-07  1702   0.877E-04    0.216E-04
RMM:  15    -0.413158987210E+03   -0.13311E-05   -0.41102E-07  1630   0.806E-04    0.180E-04
RMM:  16    -0.413158988110E+03   -0.89953E-06   -0.35061E-07  1454   0.749E-04
  150 T=    59. E= -.41286683E+03 F= -.41315899E+03 E0= -.41313838E+03  EK= 0.29216E+00 SP= 0.00E+00 SK= 0.00E+00
