       N       E                     dE             d eps       ncg     rms          rms(c)
RMM:   1     0.220114524395E+04    0.22011E+04   -0.52444E+04  2132   0.654E+02
RMM:   2     0.705487809647E+03   -0.14957E+04   -0.16264E+04  2132   0.177E+02
RMM:   3     0.137416825261E+03   -0.56807E+03   -0.65761E+03  2132   0.117E+02
RMM:   4    -0.159112003344E+03   -0.29653E+03   -0.27843E+03  2132   0.936E+01
RMM:   5    -0.287532808205E+03   -0.12842E+03   -0.11446E+03  2132   0.595E+01
RMM:   6    -0.349825630067E+03   -0.62293E+02   -0.55123E+02  2132   0.423E+01
RMM:   7    -0.382592591838E+03   -0.32767E+02   -0.30367E+02  2132   0.293E+01
RMM:   8    -0.404119353837E+03   -0.21527E+02   -0.18436E+02  2132   0.233E+01
RMM:   9    -0.436042469539E+03   -0.31923E+02   -0.30832E+02  6105   0.173E+01
RMM:  10    -0.441311558787E+03   -0.52691E+01   -0.63128E+01  6397   0.540E+00
RMM:  11    -0.442508039038E+03   -0.11965E+01   -0.10915E+01  6215   0.173E+00
RMM:  12    -0.442880446454E+03   -0.37241E+00   -0.26619E+00  6356   0.598E-01    0.134E+02
RMM:  13    -0.425583171432E+03    0.17297E+02   -0.80831E+01  4676   0.119E+01    0.712E+01
RMM:  14    -0.499404570754E+03   -0.73821E+02   -0.53928E+02  5422   0.232E+01    0.307E+01
RMM:  15    -0.416041109270E+03    0.83363E+02   -0.19956E+02  5094   0.163E+01    0.712E+00
RMM:  16    -0.414001014546E+03    0.20401E+01   -0.39431E+01  6084   0.610E+00    0.424E+00
RMM:  17    -0.413211640510E+03    0.78937E+00   -0.25723E+00  5409   0.188E+00    0.243E+00
RMM:  18    -0.413173464455E+03    0.38176E-01   -0.78652E-01  5970   0.906E-01    0.166E+00
RMM:  19    -0.413168609662E+03    0.48548E-02   -0.27492E-01  5698   0.564E-01    0.868E-01
RMM:  20    -0.413186800443E+03   -0.18191E-01   -0.25597E-01  5576   0.529E-01    0.599E-01
RMM:  21    -0.413167513507E+03    0.19287E-01   -0.34284E-02  5017   0.234E-01    0.274E-01
RMM:  22    -0.413164966119E+03    0.25474E-02   -0.19472E-02  5946   0.128E-01    0.132E-01
RMM:  23    -0.413164075516E+03    0.89060E-03   -0.54546E-03  6031   0.648E-02    0.827E-02
RMM:  24    -0.413162954020E+03    0.11215E-02   -0.16661E-03  5304   0.408E-02    0.489E-02
RMM:  25    -0.413162561106E+03    0.39291E-03   -0.89380E-04  5229   0.278E-02    0.383E-02
RMM:  26    -0.413162739479E+03   -0.17837E-03   -0.10187E-03  5813   0.321E-02    0.352E-02
RMM:  27    -0.413163159047E+03   -0.41957E-03   -0.20263E-04  4579   0.198E-02    0.201E-02
RMM:  28    -0.413163612419E+03   -0.45337E-03   -0.18220E-04  5228   0.184E-02    0.889E-03
RMM:  29    -0.413164004441E+03   -0.39202E-03   -0.11478E-04  4554   0.153E-02    0.465E-03
RMM:  30    -0.413164234086E+03   -0.22965E-03   -0.78361E-05  4289   0.102E-02    0.411E-03
RMM:  31    -0.413164378558E+03   -0.14447E-03   -0.57775E-05  3237   0.739E-03    0.346E-03
RMM:  32    -0.413164404667E+03   -0.26110E-04   -0.21677E-05  2989   0.306E-03    0.194E-03
RMM:  33    -0.413164419194E+03   -0.14527E-04   -0.87566E-06  2804   0.236E-03    0.624E-04
RMM:  34    -0.413164422619E+03   -0.34244E-05   -0.49479E-06  2649   0.168E-03    0.634E-04
RMM:  35    -0.413164423478E+03   -0.85972E-06   -0.24744E-06  2388   0.130E-03
    1 T=    61. E= -.41286658E+03 F= -.41316442E+03 E0= -.41314193E+03  EK= 0.29784E+00 SP= 0.00E+00 SK= 0.00E+00
       N       E                     dE             d eps       ncg     rms          rms(c)
RMM:   1    -0.413155305155E+03    0.91175E-02   -0.10964E+01  3998   0.694E-01    0.886E-01
RMM:   2    -0.413165802414E+03   -0.10497E-01   -0.13505E-01  3858   0.100E-01    0.642E-01
RMM:   3    -0.413164091130E+03    0.17113E-02   -0.69218E-03  4638   0.355E-02    0.144E-01
RMM:   4    -0.413177676464E+03   -0.13585E-01   -0.14278E-02  5226   0.997E-02    0.489E-01
RMM:   5    -0.413163902263E+03    0.13774E-01   -0.68565E-03  4863   0.815E-02    0.289E-02
RMM:   6    -0.413163986021E+03   -0.83757E-04   -0.11190E-03  5837   0.321E-02    0.183E-02
RMM:   7    -0.413163997283E+03   -0.11262E-04   -0.16106E-04  5706   0.112E-02    0.118E-02
RMM:   8    -0.413164003910E+03   -0.66275E-05   -0.22179E-05  4161   0.483E-03    0.530E-03
RMM:   9    -0.413164009520E+03   -0.56101E-05   -0.46851E-06  2865   0.255E-03    0.392E-03
RMM:  10    -0.413164015016E+03   -0.54960E-05   -0.12316E-06  2531   0.160E-03    0.256E-03
RMM:  11    -0.413164022947E+03   -0.79302E-05   -0.12439E-06  2524   0.153E-03    0.106E-03
RMM:  12    -0.413164027838E+03   -0.48910E-05   -0.75987E-07  2293   0.117E-03    0.431E-04
RMM:  13    -0.413164028539E+03   -0.70123E-06   -0.34949E-07  1599   0.805E-04
    2 T=    61. E= -.41286628E+03 F= -.41316403E+03 E0= -.41314153E+03  EK= 0.29775E+00 SP= 0.00E+00 SK= 0.00E+00
       N       E                     dE             d eps       ncg     rms          rms(c)
RMM:   1    -0.413156420854E+03    0.76070E-02   -0.10993E+01  4190   0.696E-01    0.910E-01
RMM:   2    -0.413165907967E+03   -0.94871E-02   -0.13242E-01  3848   0.958E-02    0.634E-01
RMM:   3    -0.413164836464E+03    0.10715E-02   -0.73412E-03  4807   0.381E-02    0.159E-01
RMM:   4    -0.413189821751E+03   -0.24985E-01   -0.25269E-02  5183   0.133E-01    0.659E-01
RMM:   5    -0.413164505648E+03    0.25316E-01   -0.12291E-02  4838   0.110E-01    0.370E-02
RMM:   6    -0.413164668207E+03   -0.16256E-03   -0.20190E-03  5808   0.435E-02    0.215E-02
RMM:   7    -0.413164676320E+03   -0.81122E-05   -0.26046E-04  5902   0.139E-02    0.146E-02
RMM:   8    -0.413164676163E+03    0.15698E-06   -0.38343E-05  4739   0.599E-03    0.761E-03
RMM:   9    -0.413164675681E+03    0.48133E-06   -0.76941E-06  3257   0.316E-03
    3 T=    61. E= -.41286678E+03 F= -.41316468E+03 E0= -.41314218E+03  EK= 0.29790E+00 SP= 0.00E+00 SK= 0.00E+00
       N       E                     dE             d eps       ncg     rms          rms(c)
RMM:   1    -0.413155986788E+03    0.86894E-02   -0.10903E+01  4228   0.696E-01    0.893E-01
RMM:   2    -0.413165944326E+03   -0.99575E-02   -0.13123E-01  4271   0.992E-02    0.628E-01
RMM:   3    -0.413170363102E+03   -0.44188E-02   -0.11767E-02  5192   0.788E-02    0.358E-01
RMM:   4    -0.413185803548E+03   -0.15440E-01   -0.35663E-02  5111   0.162E-01    0.611E-01
RMM:   5    -0.413164446905E+03    0.21357E-01   -0.82051E-03  4694   0.102E-01    0.535E-02
RMM:   6    -0.413164424576E+03    0.22329E-04   -0.14571E-03  5454   0.386E-02    0.205E-02
RMM:   7    -0.413164441295E+03   -0.16719E-04   -0.24508E-04  6010   0.146E-02    0.136E-02
RMM:   8    -0.413164443112E+03   -0.18171E-05   -0.39000E-05  5114   0.651E-03    0.680E-03
RMM:   9    -0.413164444182E+03   -0.10706E-05   -0.91721E-06  3506   0.383E-03    0.363E-03
RMM:  10    -0.413164445554E+03   -0.13714E-05   -0.13293E-06  2533   0.195E-03    0.219E-03
RMM:  11    -0.413164447925E+03   -0.23711E-05   -0.12405E-06  2542   0.172E-03    0.130E-03
RMM:  12    -0.413164449050E+03   -0.11248E-05   -0.55308E-07  2344   0.120E-03    0.447E-04
RMM:  13    -0.413164450058E+03   -0.10087E-05   -0.35108E-07  1632   0.842E-04    0.251E-04
RMM:  14    -0.413164450539E+03   -0.48038E-06   -0.21236E-07  1415   0.731E-04
    4 T=    61. E= -.41286660E+03 F= -.41316445E+03 E0= -.41314196E+03  EK= 0.29785E+00 SP= 0.00E+00 SK= 0.00E+00
       N       E                     dE             d eps       ncg     rms          rms(c)
RMM:   1    -0.413155893842E+03    0.85562E-02   -0.10946E+01  4237   0.708E-01    0.883E-01
RMM:   2    -0.413166296537E+03   -0.10403E-01   -0.13514E-01  3973   0.961E-02    0.640E-01
RMM:   3    -0.413164867417E+03    0.14291E-02   -0.69921E-03  4891   0.381E-02    0.156E-01
RMM:   4    -0.413194471618E+03   -0.29604E-01   -0.30230E-02  5158   0.145E-01    0.717E-01
RMM:   5    -0.413164362210E+03    0.30109E-01   -0.14549E-02  4814   0.120E-01    0.380E-02
RMM:   6    -0.413164551873E+03   -0.18966E-03   -0.23678E-03  5780   0.470E-02    0.204E-02
RMM:   7    -0.413164568687E+03   -0.16814E-04   -0.29484E-04  5902   0.144E-02    0.146E-02
RMM:   8    -0.413164574075E+03   -0.53881E-05   -0.41909E-05  4783   0.612E-03    0.785E-03
RMM:   9    -0.413164577984E+03   -0.39090E-05   -0.86205E-06  3337   0.327E-03    0.529E-03
RMM:  10    -0.413164583047E+03   -0.50630E-05   -0.17949E-06  2558   0.195E-03    0.325E-03
RMM:  11    -0.413164589473E+03   -0.64262E-05   -0.15873E-06  2562   0.184E-03    0.150E-03
RMM:  12    -0.413164593785E+03   -0.43119E-05   -0.91130E-07  2467   0.144E-03    0.511E-04
RMM:  13    -0.413164594409E+03   -0.62464E-06   -0.30801E-07  1991   0.927E-04
    5 T=    61. E= -.41286663E+03 F= -.41316459E+03 E0= -.41314212E+03  EK= 0.29797E+00 SP= 0.00E+00 SK= 0.00E+00
       N       E                     dE             d eps       ncg     rms          rms(c)
RMM:   1    -0.413156756545E+03    0.78372E-02   -0.10991E+01  4252   0.709E-01    0.906E-01
RMM:   2    -0.413166503417E+03   -0.97469E-02   -0.13237E-01  4037   0.974E-02    0.636E-01
RMM:   3    -0.413165349253E+03    0.11542E-02   -0.71748E-03  4807   0.378E-02    0.159E-01
RMM:   4    -0.413191320139E+03   -0.25971E-01   -0.26279E-02  5158   0.135E-01    0.673E-01
RMM:   5    -0.413164946657E+03    0.26373E-01   -0.12869E-02  4825   0.112E-01    0.369E-02
RMM:   6    -0.413165113040E+03   -0.16638E-03   -0.20805E-03  5806   0.439E-02    0.213E-02
RMM:   7    -0.413165121958E+03   -0.89174E-05   -0.26220E-04  5887   0.138E-02    0.146E-02
RMM:   8    -0.413165122142E+03   -0.18444E-06   -0.39061E-05  4750   0.606E-03    0.779E-03
RMM:   9    -0.413165121414E+03    0.72838E-06   -0.80980E-06  3313   0.325E-03
    6 T=    61. E= -.41286687E+03 F= -.41316512E+03 E0= -.41314266E+03  EK= 0.29825E+00 SP= 0.00E+00 SK= 0.00E+00
       N       E                     dE             d eps       ncg     rms          rms(c)
RMM:   1    -0.413156485482E+03    0.86367E-02   -0.10935E+01  4274   0.714E-01    0.901E-01
RMM:   2    -0.413165870739E+03   -0.93853E-02   -0.13165E-01  4311   0.981E-02    0.629E-01
RMM:   3    -0.413170599182E+03   -0.47284E-02   -0.11947E-02  5162   0.787E-02    0.358E-01
RMM:   4    -0.413185830076E+03   -0.15231E-01   -0.35345E-02  5092   0.161E-01    0.608E-01
RMM:   5    -0.413164764387E+03    0.21066E-01   -0.80954E-03  4682   0.101E-01    0.530E-02
RMM:   6    -0.413164746423E+03    0.17964E-04   -0.14472E-03  5448   0.380E-02    0.207E-02
RMM:   7    -0.413164761493E+03   -0.15069E-04   -0.23833E-04  6005   0.144E-02    0.136E-02
RMM:   8    -0.413164761735E+03   -0.24253E-06   -0.38303E-05  5091   0.648E-03    0.674E-03
RMM:   9    -0.413164759811E+03    0.19244E-05   -0.86885E-06  3428   0.376E-03    0.358E-03
RMM:  10    -0.413164760047E+03   -0.23648E-06   -0.12951E-06  2528   0.194E-03
    7 T=    61. E= -.41286642E+03 F= -.41316476E+03 E0= -.41314231E+03  EK= 0.29834E+00 SP= 0.00E+00 SK= 0.00E+00
       N       E                     dE             d eps       ncg     rms          rms(c)
RMM:   1    -0.413156540228E+03    0.82196E-02   -0.10934E+01  4271   0.717E-01    0.882E-01
RMM:   2    -0.413167013743E+03   -0.10474E-01   -0.13441E-01  4063   0.958E-02    0.638E-01
RMM:   3    -0.413165704361E+03    0.13094E-02   -0.69864E-03  4892   0.384E-02    0.158E-01
RMM:   4    -0.413196226640E+03   -0.30522E-01   -0.31184E-02  5151   0.147E-01    0.727E-01
RMM:   5    -0.413165223565E+03    0.31003E-01   -0.15093E-02  4812   0.121E-01    0.393E-02
RMM:   6    -0.413165414346E+03   -0.19078E-03   -0.24351E-03  5771   0.477E-02    0.205E-02
RMM:   7    -0.413165431965E+03   -0.17619E-04   -0.30915E-04  5905   0.145E-02    0.144E-02
RMM:   8    -0.413165436377E+03   -0.44117E-05   -0.39963E-05  4676   0.596E-03    0.739E-03
RMM:   9    -0.413165439547E+03   -0.31707E-05   -0.87172E-06  3290   0.319E-03    0.502E-03
RMM:  10    -0.413165443293E+03   -0.37456E-05   -0.18054E-06  2554   0.193E-03    0.310E-03
RMM:  11    -0.413165447920E+03   -0.46266E-05   -0.15269E-06  2560   0.179E-03    0.139E-03
RMM:  12    -0.413165450822E+03   -0.29019E-05   -0.90644E-07  2456   0.140E-03    0.458E-04
RMM:  13    -0.413165451201E+03   -0.37922E-06   -0.30710E-07  1958   0.914E-04
    8 T=    61. E= -.41286670E+03 F= -.41316545E+03 E0= -.41314302E+03  EK= 0.29875E+00 SP= 0.00E+00 SK= 0.00E+00
       N       E                     dE             d eps       ncg     rms          rms(c)
RMM:   1    -0.413157068635E+03    0.83822E-02   -0.11000E+01  4284   0.721E-01    0.900E-01
RMM:   2    -0.413167020620E+03   -0.99520E-02   -0.13359E-01  4187   0.100E-01    0.639E-01
RMM:   3    -0.413165805855E+03    0.12148E-02   -0.71659E-03  4788   0.399E-02    0.157E-01
RMM:   4    -0.413192008063E+03   -0.26202E-01   -0.26560E-02  5155   0.136E-01    0.676E-01
RMM:   5    -0.413165347491E+03    0.26661E-01   -0.13044E-02  4813   0.113E-01    0.364E-02
RMM:   6    -0.413165515545E+03   -0.16805E-03   -0.21045E-03  5804   0.441E-02    0.209E-02
RMM:   7    -0.413165524901E+03   -0.93564E-05   -0.26259E-04  5876   0.139E-02    0.145E-02
RMM:   8    -0.413165525093E+03   -0.19169E-06   -0.39438E-05  4755   0.610E-03    0.789E-03
RMM:   9    -0.413165524283E+03    0.81050E-06   -0.82443E-06  3320   0.329E-03
    9 T=    61. E= -.41286655E+03 F= -.41316552E+03 E0= -.41314312E+03  EK= 0.29897E+00 SP= 0.00E+00 SK= 0.00E+00
       N       E                     dE             d eps       ncg     rms          rms(c)
RMM:   1    -0.413157543130E+03    0.79820E-02   -0.10981E+01  4292   0.732E-01    0.908E-01
RMM:   2    -0.413166761392E+03   -0.92183E-02   -0.13177E-01  4319   0.982E-02    0.631E-01
RMM:   3    -0.413171731785E+03   -0.49704E-02   -0.12326E-02  5162   0.804E-02    0.366E-01
RMM:   4    -0.413185694668E+03   -0.13963E-01   -0.34763E-02  5083   0.159E-01    0.595E-01
RMM:   5    -0.413165671860E+03    0.20023E-01   -0.76569E-03  4674   0.990E-02    0.522E-02
RMM:   6    -0.413165651464E+03    0.20396E-04   -0.13813E-03  5439   0.369E-02    0.211E-02
RMM:   7    -0.413165664278E+03   -0.12814E-04   -0.22663E-04  5995   0.143E-02    0.137E-02
RMM:   8    -0.413165662794E+03    0.14842E-05   -0.37569E-05  5078   0.649E-03    0.665E-03
RMM:   9    -0.413165658700E+03    0.40942E-05   -0.83316E-06  3361   0.373E-03    0.351E-03
RMM:  10    -0.413165658030E+03    0.66950E-06   -0.12627E-06  2521   0.193E-03
   10 T=    61. E= -.41286655E+03 F= -.41316566E+03 E0= -.41314327E+03  EK= 0.29911E+00 SP= 0.00E+00 SK= 0.00E+00
       N       E                     dE             d eps       ncg     rms          rms(c)
RMM:   1    -0.413157721642E+03    0.79371E-02   -0.10926E+01  4299   0.727E-01    0.883E-01
RMM:   2    -0.413168069392E+03   -0.10348E-01   -0.13333E-01  4192   0.964E-02    0.635E-01
RMM:   3    -0.413166838660E+03    0.12307E-02   -0.69528E-03  4919   0.408E-02    0.162E-01
RMM:   4    -0.413199631008E+03   -0.32792E-01   -0.33648E-02  5146   0.152E-01    0.754E-01
RMM:   5    -0.413166224080E+03    0.33407E-01   -0.16332E-02  4811   0.126E-01    0.402E-02
RMM:   6    -0.413166413715E+03   -0.18964E-03   -0.25187E-03  5769   0.493E-02    0.211E-02
RMM:   7    -0.413166427345E+03   -0.13630E-04   -0.32424E-04  5915   0.150E-02    0.149E-02
RMM:   8    -0.413166429133E+03   -0.17875E-05   -0.42576E-05  4774   0.620E-03    0.770E-03
RMM:   9    -0.413166429758E+03   -0.62511E-06   -0.93918E-06  3370   0.332E-03
   11 T=    61. E= -.41286686E+03 F= -.41316643E+03 E0= -.41314407E+03  EK= 0.29957E+00 SP= 0.00E+00 SK= 0.00E+00
       N       E                     dE             d eps       ncg     rms          rms(c)
RMM:   1    -0.413162148287E+03    0.42808E-02   -0.11051E+01  4297   0.758E-01    0.895E-01
RMM:   2    -0.413167856645E+03   -0.57084E-02   -0.13474E-01  4295   0.989E-02    0.642E-01
RMM:   3    -0.413171609075E+03   -0.37524E-02   -0.11346E-02  5156   0.764E-02    0.341E-01
RMM:   4    -0.413192402711E+03   -0.20794E-01   -0.40580E-02  5097   0.171E-01    0.672E-01
RMM:   5    -0.413166244154E+03    0.26159E-01   -0.10390E-02  4690   0.111E-01    0.541E-02
RMM:   6    -0.413166262852E+03   -0.18698E-04   -0.18361E-03  5511   0.423E-02    0.194E-02
RMM:   7    -0.413166283999E+03   -0.21147E-04   -0.27368E-04  6015   0.151E-02    0.134E-02
RMM:   8    -0.413166287122E+03   -0.31229E-05   -0.43551E-05  5136   0.663E-03    0.694E-03
RMM:   9    -0.413166288217E+03   -0.10948E-05   -0.89253E-06  3324   0.372E-03    0.362E-03
RMM:  10    -0.413166289595E+03   -0.13781E-05   -0.15755E-06  2544   0.199E-03    0.216E-03
RMM:  11    -0.413166291672E+03   -0.20775E-05   -0.13754E-06  2545   0.178E-03    0.139E-03
RMM:  12    -0.413166292396E+03   -0.72409E-06   -0.59435E-07  2400   0.124E-03
   12 T=    61. E= -.41286642E+03 F= -.41316629E+03 E0= -.41314396E+03  EK= 0.29987E+00 SP= 0.00E+00 SK= 0.00E+00
       N       E                     dE             d eps       ncg     rms          rms(c)
RMM:   1    -0.413163297183E+03    0.29945E-02   -0.11071E+01  4296   0.776E-01    0.913E-01
RMM:   2    -0.413168002872E+03   -0.47057E-02   -0.13049E-01  4214   0.960E-02    0.633E-01
RMM:   3    -0.413167500232E+03    0.50264E-03   -0.76534E-03  4995   0.413E-02    0.174E-01
RMM:   4    -0.413205298968E+03   -0.37799E-01   -0.39599E-02  5150   0.165E-01    0.809E-01
RMM:   5    -0.413166739029E+03    0.38560E-01   -0.18577E-02  4796   0.135E-01    0.450E-02
RMM:   6    -0.413166956833E+03   -0.21780E-03   -0.30565E-03  5753   0.533E-02    0.235E-02
RMM:   7    -0.413166968588E+03   -0.11755E-04   -0.38332E-04  5935   0.163E-02    0.168E-02
RMM:   8    -0.413166964670E+03    0.39175E-05   -0.52480E-05  5024   0.685E-03    0.919E-03
RMM:   9    -0.413166959016E+03    0.56538E-05   -0.10528E-05  3487   0.353E-03    0.586E-03
RMM:  10    -0.413166955608E+03    0.34083E-05   -0.21860E-06  2564   0.210E-03    0.352E-03
RMM:  11    -0.413166952094E+03    0.35140E-05   -0.16039E-06  2546   0.191E-03    0.162E-03
RMM:  12    -0.413166948853E+03    0.32409E-05   -0.96925E-07  2488   0.154E-03    0.488E-04
RMM:  13    -0.413166948181E+03    0.67181E-06   -0.35942E-07  2127   0.102E-03
   13 T=    61. E= -.41286657E+03 F= -.41316695E+03 E0= -.41314465E+03  EK= 0.30038E+00 SP= 0.00E+00 SK= 0.00E+00
       N       E                     dE             d eps       ncg     rms          rms(c)
RMM:   1    -0.413158878956E+03    0.80699E-02   -0.10941E+01  4294   0.740E-01    0.888E-01
RMM:   2    -0.413168945072E+03   -0.10066E-01   -0.13351E-01  4225   0.952E-02    0.633E-01
RMM:   3    -0.413167834450E+03    0.11106E-02   -0.70323E-03  4866   0.398E-02    0.163E-01
RMM:   4    -0.413199140035E+03   -0.31306E-01   -0.32070E-02  5144   0.149E-01    0.737E-01
RMM:   5    -0.413167299834E+03    0.31840E-01   -0.15518E-02  4801   0.123E-01    0.391E-02
RMM:   6    -0.413167492461E+03   -0.19263E-03   -0.25257E-03  5790   0.482E-02    0.216E-02
RMM:   7    -0.413167502521E+03   -0.10061E-04   -0.30532E-04  5887   0.149E-02    0.152E-02
RMM:   8    -0.413167501182E+03    0.13388E-05   -0.46240E-05  4893   0.648E-03    0.860E-03
RMM:   9    -0.413167498357E+03    0.28255E-05   -0.95868E-06  3441   0.347E-03    0.577E-03
RMM:  10    -0.413167497896E+03    0.46027E-06   -0.18767E-06  2555   0.203E-03
   14 T=    61. E= -.41286655E+03 F= -.41316750E+03 E0= -.41314523E+03  EK= 0.30095E+00 SP= 0.00E+00 SK= 0.00E+00
       N       E                     dE             d eps       ncg     rms          rms(c)
RMM:   1    -0.413158990209E+03    0.85081E-02   -0.11035E+01  4305   0.753E-01    0.892E-01
RMM:   2    -0.413169549289E+03   -0.10559E-01   -0.13609E-01  4280   0.100E-01    0.645E-01
RMM:   3    -0.413170849008E+03   -0.12997E-02   -0.94985E-03  5123   0.645E-02    0.280E-01
RMM:   4    -0.413203935960E+03   -0.33087E-01   -0.47122E-02  5108   0.182E-01    0.787E-01
RMM:   5    -0.413167517153E+03    0.36419E-01   -0.15691E-02  4740   0.130E-01    0.519E-02
RMM:   6    -0.413167632651E+03   -0.11550E-03   -0.25687E-03  5649   0.503E-02    0.188E-02
RMM:   7    -0.413167656763E+03   -0.24112E-04   -0.33810E-04  6006   0.155E-02    0.139E-02
RMM:   8    -0.413167659999E+03   -0.32358E-05   -0.48847E-05  5114   0.678E-03    0.722E-03
RMM:   9    -0.413167660106E+03   -0.10720E-06   -0.89817E-06  3176   0.340E-03
   15 T=    61. E= -.41286623E+03 F= -.41316766E+03 E0= -.41314543E+03  EK= 0.30143E+00 SP= 0.00E+00 SK= 0.00E+00
       N       E                     dE             d eps       ncg     rms          rms(c)
RMM:   1    -0.413160581761E+03    0.70782E-02   -0.11071E+01  4297   0.753E-01    0.915E-01
RMM:   2    -0.413169854752E+03   -0.92730E-02   -0.13319E-01  4257   0.999E-02    0.637E-01
RMM:   3    -0.413169035536E+03    0.81922E-03   -0.75180E-03  4941   0.401E-02    0.170E-01
RMM:   4    -0.413202983296E+03   -0.33948E-01   -0.34934E-02  5147   0.155E-01    0.766E-01
RMM:   5    -0.413168444256E+03    0.34539E-01   -0.16870E-02  4806   0.128E-01    0.421E-02
RMM:   6    -0.413168638719E+03   -0.19446E-03   -0.26882E-03  5812   0.504E-02    0.232E-02
RMM:   7    -0.413168644700E+03   -0.59806E-05   -0.34497E-04  5945   0.157E-02    0.161E-02
RMM:   8    -0.413168640154E+03    0.45458E-05   -0.46971E-05  4895   0.653E-03    0.849E-03
RMM:   9    -0.413168634670E+03    0.54837E-05   -0.10151E-05  3455   0.346E-03    0.572E-03
RMM:  10    -0.413168631106E+03    0.35642E-05   -0.19247E-06  2552   0.203E-03    0.348E-03
RMM:  11    -0.413168626940E+03    0.41657E-05   -0.16640E-06  2553   0.194E-03    0.157E-03
RMM:  12    -0.413168623037E+03    0.39028E-05   -0.99317E-07  2488   0.153E-03    0.527E-04
RMM:  13    -0.413168622356E+03    0.68191E-06   -0.33139E-07  2096   0.974E-04
   16 T=    61. E= -.41286655E+03 F= -.41316862E+03 E0= -.41314642E+03  EK= 0.30208E+00 SP= 0.00E+00 SK= 0.00E+00
       N       E                     dE             d eps       ncg     rms          rms(c)
RMM:   1    -0.413160486911E+03    0.81361E-02   -0.10982E+01  4298   0.750E-01    0.895E-01
RMM:   2    -0.413170521095E+03   -0.10034E-01   -0.13389E-01  4252   0.974E-02    0.633E-01
RMM:   3    -0.413169331997E+03    0.11891E-02   -0.71216E-03  4881   0.408E-02    0.167E-01
RMM:   4    -0.413202188082E+03   -0.32856E-01   -0.33734E-02  5146   0.152E-01    0.754E-01
RMM:   5    -0.413168809663E+03    0.33378E-01   -0.16379E-02  4804   0.126E-01    0.401E-02
RMM:   6    -0.413168999331E+03   -0.18967E-03   -0.25764E-03  5787   0.493E-02    0.223E-02
RMM:   7    -0.413169007472E+03   -0.81404E-05   -0.31684E-04  5881   0.152E-02    0.155E-02
RMM:   8    -0.413169004658E+03    0.28136E-05   -0.48278E-05  4927   0.661E-03    0.879E-03
RMM:   9    -0.413168999830E+03    0.48285E-05   -0.10105E-05  3486   0.354E-03    0.584E-03
RMM:  10    -0.413168997327E+03    0.25025E-05   -0.19330E-06  2555   0.205E-03    0.355E-03
RMM:  11    -0.413168994267E+03    0.30606E-05   -0.18189E-06  2561   0.202E-03    0.161E-03
RMM:  12    -0.413168991632E+03    0.26349E-05   -0.91890E-07  2480   0.153E-03    0.549E-04
RMM:  13    -0.413168991214E+03    0.41797E-06   -0.32183E-07  2069   0.968E-04
   17 T=    62. E= -.41286647E+03 F= -.41316899E+03 E0= -.41314683E+03  EK= 0.30252E+00 SP= 0.00E+00 SK= 0.00E+00
       N       E                     dE             d eps       ncg     rms          rms(c)
RMM:   1    -0.413165738716E+03    0.32529E-02   -0.11104E+01  4298   0.796E-01    0.889E-01
RMM:   2    -0.413171485615E+03   -0.57469E-02   -0.13996E-01  4265   0.104E-01    0.645E-01
RMM:   3    -0.413169961202E+03    0.15244E-02   -0.70579E-03  4900   0.411E-02    0.166E-01
RMM:   4    -0.413204004441E+03   -0.34043E-01   -0.35100E-02  5150   0.156E-01    0.768E-01
RMM:   5    -0.413169340299E+03    0.34664E-01   -0.17014E-02  4805   0.128E-01    0.401E-02
RMM:   6    -0.413169538127E+03   -0.19783E-03   -0.26894E-03  5794   0.503E-02    0.218E-02
RMM:   7    -0.413169550653E+03   -0.12526E-04   -0.32604E-04  5910   0.154E-02    0.154E-02
RMM:   8    -0.413169550803E+03   -0.15002E-06   -0.49784E-05  4952   0.667E-03    0.885E-03
RMM:   9    -0.413169548708E+03    0.20948E-05   -0.10563E-05  3522   0.361E-03    0.583E-03
RMM:  10    -0.413169549117E+03   -0.40870E-06   -0.20904E-06  2566   0.209E-03
   18 T=    62. E= -.41286642E+03 F= -.41316955E+03 E0= -.41314743E+03  EK= 0.30312E+00 SP= 0.00E+00 SK= 0.00E+00
       N       E                     dE             d eps       ncg     rms          rms(c)
RMM:   1    -0.413162522538E+03    0.70262E-02   -0.11106E+01  4303   0.762E-01    0.914E-01
RMM:   2    -0.413172032031E+03   -0.95095E-02   -0.13476E-01  4303   0.100E-01    0.641E-01
RMM:   3    -0.413174398176E+03   -0.23661E-02   -0.10175E-02  5126   0.681E-02    0.298E-01
RMM:   4    -0.413201407362E+03   -0.27009E-01   -0.42260E-02  5096   0.173E-01    0.728E-01
RMM:   5    -0.413170635781E+03    0.30772E-01   -0.12957E-02  4712   0.120E-01    0.511E-02
RMM:   6    -0.413170712422E+03   -0.76641E-04   -0.21777E-03  5598   0.462E-02    0.206E-02
RMM:   7    -0.413170725290E+03   -0.12868E-04   -0.29915E-04  5992   0.148E-02    0.141E-02
RMM:   8    -0.413170721568E+03    0.37220E-05   -0.46364E-05  5114   0.675E-03    0.711E-03
RMM:   9    -0.413170714214E+03    0.73539E-05   -0.83077E-06  3131   0.336E-03    0.313E-03
RMM:  10    -0.413170711563E+03    0.26511E-05   -0.19248E-06  2548   0.196E-03    0.196E-03
RMM:  11    -0.413170707604E+03    0.39590E-05   -0.10632E-06  2517   0.157E-03    0.114E-03
RMM:  12    -0.413170704730E+03    0.28737E-05   -0.52502E-07  2246   0.116E-03    0.484E-04
RMM:  13    -0.413170702558E+03    0.21723E-05   -0.28820E-07  1844   0.888E-04    0.228E-04
RMM:  14    -0.413170700788E+03    0.17697E-05   -0.18778E-07  1469   0.746E-04    0.143E-04
RMM:  15    -0.413170697553E+03    0.32353E-05   -0.21855E-07  1660   0.766E-04    0.151E-04
RMM:  16    -0.413170696102E+03    0.14506E-05   -0.11017E-07  1193   0.622E-04    0.110E-04
RMM:  17    -0.413170693900E+03    0.22017E-05   -0.10173E-07  1249   0.620E-04    0.484E-05
RMM:  18    -0.413170692475E+03    0.14259E-05   -0.62933E-08  1022   0.565E-04    0.375E-05
RMM:  19    -0.413170691800E+03    0.67447E-06   -0.33488E-08   844   0.533E-04
   19 T=    62. E= -.41286668E+03 F= -.41317069E+03 E0= -.41314862E+03  EK= 0.30401E+00 SP= 0.00E+00 SK= 0.00E+00
       N       E                     dE             d eps       ncg     rms          rms(c)
RMM:   1    -0.413162825489E+03    0.78670E-02   -0.11049E+01  4297   0.767E-01    0.904E-01
RMM:   2    -0.413172557989E+03   -0.97325E-02   -0.13391E-01  4259   0.101E-01    0.634E-01
RMM:   3    -0.413171768433E+03    0.78956E-03   -0.73773E-03  4955   0.423E-02    0.179E-01
RMM:   4    -0.413210959592E+03   -0.39191E-01   -0.41271E-02  5148   0.168E-01    0.822E-01
RMM:   5    -0.413171003871E+03    0.39956E-01   -0.19432E-02  4795   0.138E-01    0.450E-02
RMM:   6    -0.413171215772E+03   -0.21190E-03   -0.31757E-03  5758   0.543E-02    0.237E-02
RMM:   7    -0.413171226309E+03   -0.10536E-04   -0.39176E-04  5887   0.165E-02    0.169E-02
RMM:   8    -0.413171221427E+03    0.48820E-05   -0.55919E-05  5064   0.706E-03    0.942E-03
RMM:   9    -0.413171214473E+03    0.69532E-05   -0.11530E-05  3608   0.370E-03    0.603E-03
RMM:  10    -0.413171210303E+03    0.41701E-05   -0.22799E-06  2570   0.215E-03    0.364E-03
RMM:  11    -0.413171206068E+03    0.42348E-05   -0.16097E-06  2536   0.195E-03    0.170E-03
RMM:  12    -0.413171202427E+03    0.36418E-05   -0.91403E-07  2480   0.156E-03    0.492E-04
RMM:  13    -0.413171201692E+03    0.73469E-06   -0.35337E-07  2149   0.103E-03
   20 T=    62. E= -.41286649E+03 F= -.41317120E+03 E0= -.41314917E+03  EK= 0.30471E+00 SP= 0.00E+00 SK= 0.00E+00
       N       E                     dE             d eps       ncg     rms          rms(c)
RMM:   1    -0.413163654252E+03    0.75482E-02   -0.11089E+01  4301   0.780E-01    0.890E-01
RMM:   2    -0.413174030579E+03   -0.10376E-01   -0.13762E-01  4274   0.101E-01    0.645E-01
RMM:   3    -0.413172597387E+03    0.14332E-02   -0.71906E-03  4906   0.421E-02    0.166E-01
RMM:   4    -0.413208316758E+03   -0.35719E-01   -0.37082E-02  5143   0.160E-01    0.786E-01
RMM:   5    -0.413171931422E+03    0.36385E-01   -0.17828E-02  4796   0.132E-01    0.413E-02
RMM:   6    -0.413172134844E+03   -0.20342E-03   -0.29104E-03  5780   0.520E-02    0.222E-02
RMM:   7    -0.413172149555E+03   -0.14711E-04   -0.34792E-04  5890   0.157E-02    0.157E-02
RMM:   8    -0.413172148818E+03    0.73665E-06   -0.53926E-05  5003   0.691E-03    0.925E-03
RMM:   9    -0.413172145110E+03    0.37089E-05   -0.11403E-05  3620   0.374E-03    0.604E-03
RMM:  10    -0.413172144196E+03    0.91366E-06   -0.22609E-06  2581   0.216E-03
   21 T=    62. E= -.41286658E+03 F= -.41317214E+03 E0= -.41315016E+03  EK= 0.30556E+00 SP= 0.00E+00 SK= 0.00E+00
       N       E                     dE             d eps       ncg     rms          rms(c)
RMM:   1    -0.413164689512E+03    0.74556E-02   -0.11155E+01  4299   0.775E-01    0.911E-01
RMM:   2    -0.413174750542E+03   -0.10061E-01   -0.13644E-01  4315   0.101E-01    0.645E-01
RMM:   3    -0.413177148705E+03   -0.23982E-02   -0.10377E-02  5118   0.698E-02    0.305E-01
RMM:   4    -0.413204369617E+03   -0.27221E-01   -0.43389E-02  5095   0.175E-01    0.732E-01
RMM:   5    -0.413173165181E+03    0.31204E-01   -0.13126E-02  4714   0.121E-01    0.509E-02
RMM:   6    -0.413173238870E+03   -0.73689E-04   -0.22083E-03  5603   0.468E-02    0.204E-02
RMM:   7    -0.413173252002E+03   -0.13132E-04   -0.29813E-04  5994   0.149E-02    0.142E-02
RMM:   8    -0.413173248557E+03    0.34455E-05   -0.46228E-05  5114   0.680E-03    0.711E-03
RMM:   9    -0.413173241261E+03    0.72961E-05   -0.85141E-06  3149   0.339E-03    0.314E-03
RMM:  10    -0.413173238672E+03    0.25886E-05   -0.19198E-06  2553   0.197E-03    0.198E-03
RMM:  11    -0.413173234727E+03    0.39454E-05   -0.10458E-06  2515   0.156E-03    0.114E-03
RMM:  12    -0.413173231842E+03    0.28845E-05   -0.50911E-07  2234   0.116E-03    0.473E-04
RMM:  13    -0.413173229655E+03    0.21872E-05   -0.27922E-07  1822   0.878E-04    0.219E-04
RMM:  14    -0.413173227399E+03    0.22560E-05   -0.19396E-07  1509   0.758E-04    0.128E-04
RMM:  15    -0.413173224343E+03    0.30561E-05   -0.18672E-07  1567   0.735E-04    0.131E-04
RMM:  16    -0.413173222937E+03    0.14056E-05   -0.99293E-08  1187   0.620E-04    0.101E-04
RMM:  17    -0.413173220652E+03    0.22850E-05   -0.90144E-08  1214   0.614E-04    0.412E-05
RMM:  18    -0.413173219255E+03    0.13969E-05   -0.52983E-08   977   0.562E-04    0.405E-05
RMM:  19    -0.413173218649E+03    0.60681E-06   -0.29451E-08   831   0.531E-04
   22 T=    62. E= -.41286671E+03 F= -.41317322E+03 E0= -.41315128E+03  EK= 0.30651E+00 SP= 0.00E+00 SK= 0.00E+00
       N       E                     dE             d eps       ncg     rms          rms(c)
RMM:   1    -0.413166141747E+03    0.70775E-02   -0.11143E+01  4296   0.797E-01    0.913E-01
RMM:   2    -0.413175317589E+03   -0.91758E-02   -0.13492E-01  4273   0.106E-01    0.637E-01
RMM:   3    -0.413174430455E+03    0.88713E-03   -0.75820E-03  4892   0.452E-02    0.175E-01
RMM:   4    -0.413211291264E+03   -0.36861E-01   -0.38299E-02  5149   0.162E-01    0.798E-01
RMM:   5    -0.413173716939E+03    0.37574E-01   -0.18415E-02  4792   0.134E-01    0.437E-02
RMM:   6    -0.413173923334E+03   -0.20639E-03   -0.30561E-03  5777   0.533E-02    0.243E-02
RMM:   7    -0.413173930831E+03   -0.74968E-05   -0.37204E-04  5863   0.164E-02    0.169E-02
RMM:   8    -0.413173924282E+03    0.65493E-05   -0.56479E-05  5050   0.719E-03    0.973E-03
RMM:   9    -0.413173915673E+03    0.86087E-05   -0.11809E-05  3683   0.382E-03    0.640E-03
RMM:  10    -0.413173909983E+03    0.56896E-05   -0.22477E-06  2582   0.218E-03    0.392E-03
RMM:  11    -0.413173903526E+03    0.64571E-05   -0.18354E-06  2554   0.209E-03    0.177E-03
RMM:  12    -0.413173898335E+03    0.51911E-05   -0.92996E-07  2474   0.161E-03    0.546E-04
RMM:  13    -0.413173897441E+03    0.89439E-06   -0.35362E-07  2173   0.104E-03
   23 T=    63. E= -.41286645E+03 F= -.41317390E+03 E0= -.41315200E+03  EK= 0.30744E+00 SP= 0.00E+00 SK= 0.00E+00
       N       E                     dE             d eps       ncg     rms          rms(c)
RMM:   1    -0.413166759573E+03    0.71388E-02   -0.11133E+01  4295   0.789E-01    0.893E-01
RMM:   2    -0.413177498223E+03   -0.10739E-01   -0.13815E-01  4276   0.105E-01    0.645E-01
RMM:   3    -0.413175806900E+03    0.16913E-02   -0.71320E-03  4834   0.421E-02    0.162E-01
RMM:   4    -0.413205927961E+03   -0.30121E-01   -0.30813E-02  5153   0.146E-01    0.722E-01
RMM:   5    -0.413175330287E+03    0.30598E-01   -0.15066E-02  4797   0.121E-01    0.384E-02
RMM:   6    -0.413175502985E+03   -0.17270E-03   -0.24822E-03  5794   0.476E-02    0.216E-02
RMM:   7    -0.413175512797E+03   -0.98128E-05   -0.27788E-04  5846   0.146E-02    0.141E-02
RMM:   8    -0.413175511171E+03    0.16266E-05   -0.49705E-05  4961   0.668E-03    0.911E-03
RMM:   9    -0.413175505393E+03    0.57780E-05   -0.11383E-05  3780   0.379E-03    0.609E-03
RMM:  10    -0.413175503175E+03    0.22181E-05   -0.19140E-06  2552   0.213E-03    0.383E-03
RMM:  11    -0.413175500151E+03    0.30240E-05   -0.21813E-06  2604   0.221E-03    0.175E-03
RMM:  12    -0.413175497643E+03    0.25079E-05   -0.85328E-07  2478   0.156E-03    0.580E-04
RMM:  13    -0.413175497234E+03    0.40852E-06   -0.30785E-07  2095   0.968E-04
   24 T=    63. E= -.41286679E+03 F= -.41317550E+03 E0= -.41315365E+03  EK= 0.30871E+00 SP= 0.00E+00 SK= 0.00E+00
       N       E                     dE             d eps       ncg     rms          rms(c)
RMM:   1    -0.413168225930E+03    0.72717E-02   -0.11234E+01  4296   0.797E-01    0.908E-01
RMM:   2    -0.413178445900E+03   -0.10220E-01   -0.13816E-01  4276   0.107E-01    0.650E-01
RMM:   3    -0.413176821469E+03    0.16244E-02   -0.72933E-03  4783   0.432E-02    0.162E-01
RMM:   4    -0.413204695004E+03   -0.27874E-01   -0.28306E-02  5152   0.140E-01    0.696E-01
RMM:   5    -0.413176379225E+03    0.28316E-01   -0.14026E-02  4808   0.116E-01    0.373E-02
RMM:   6    -0.413176531187E+03   -0.15196E-03   -0.22250E-03  5812   0.454E-02    0.216E-02
RMM:   7    -0.413176538372E+03   -0.71841E-05   -0.25084E-04  5812   0.141E-02    0.135E-02
RMM:   8    -0.413176535765E+03    0.26069E-05   -0.46862E-05  4924   0.657E-03    0.880E-03
RMM:   9    -0.413176529254E+03    0.65102E-05   -0.11144E-05  3797   0.378E-03    0.590E-03
RMM:  10    -0.413176526206E+03    0.30481E-05   -0.17913E-06  2545   0.210E-03    0.374E-03
RMM:  11    -0.413176521768E+03    0.44384E-05   -0.20261E-06  2569   0.218E-03    0.168E-03
RMM:  12    -0.413176518286E+03    0.34818E-05   -0.81948E-07  2472   0.154E-03    0.572E-04
RMM:  13    -0.413176517759E+03    0.52713E-06   -0.29772E-07  2068   0.952E-04
   25 T=    63. E= -.41286666E+03 F= -.41317652E+03 E0= -.41315472E+03  EK= 0.30986E+00 SP= 0.00E+00 SK= 0.00E+00
       N       E                     dE             d eps       ncg     rms          rms(c)
RMM:   1    -0.413179588288E+03   -0.30700E-02   -0.11354E+01  4294   0.847E-01    0.924E-01
RMM:   2    -0.413178953014E+03    0.63527E-03   -0.14133E-01  4273   0.110E-01    0.643E-01
RMM:   3    -0.413177847867E+03    0.11051E-02   -0.75177E-03  4684   0.428E-02    0.168E-01
RMM:   4    -0.413200376580E+03   -0.22529E-01   -0.22673E-02  5149   0.126E-01    0.626E-01
RMM:   5    -0.413177585857E+03    0.22791E-01   -0.11358E-02  4815   0.104E-01    0.359E-02
RMM:   6    -0.413177695652E+03   -0.10979E-03   -0.17642E-03  5805   0.403E-02    0.211E-02
RMM:   7    -0.413177694637E+03    0.10151E-05   -0.18170E-04  5627   0.125E-02    0.109E-02
RMM:   8    -0.413177686466E+03    0.81711E-05   -0.28296E-05  4425   0.517E-03    0.689E-03
RMM:   9    -0.413177679708E+03    0.67573E-05   -0.62313E-06  3087   0.288E-03    0.499E-03
RMM:  10    -0.413177676670E+03    0.30379E-05   -0.14341E-06  2539   0.188E-03    0.350E-03
RMM:  11    -0.413177667128E+03    0.95422E-05   -0.17370E-06  2545   0.211E-03    0.156E-03
RMM:  12    -0.413177661622E+03    0.55059E-05   -0.76703E-07  2440   0.149E-03    0.814E-04
RMM:  13    -0.413177660856E+03    0.76694E-06   -0.24570E-07  2033   0.913E-04
   26 T=    63. E= -.41286655E+03 F= -.41317766E+03 E0= -.41315591E+03  EK= 0.31111E+00 SP= 0.00E+00 SK= 0.00E+00
       N       E                     dE             d eps       ncg     rms          rms(c)
RMM:   1    -0.413170689406E+03    0.69722E-02   -0.11210E+01  4294   0.802E-01    0.899E-01
RMM:   2    -0.413181070275E+03   -0.10381E-01   -0.13851E-01  4271   0.105E-01    0.645E-01
RMM:   3    -0.413179650531E+03    0.14197E-02   -0.71735E-03  4602   0.409E-02    0.156E-01
RMM:   4    -0.413195620143E+03   -0.15970E-01   -0.16222E-02  5152   0.106E-01    0.530E-01
RMM:   5    -0.413179457400E+03    0.16163E-01   -0.80882E-03  4818   0.877E-02    0.313E-02
RMM:   6    -0.413179527569E+03   -0.70169E-04   -0.12660E-03  5837   0.335E-02    0.187E-02
RMM:   7    -0.413179528207E+03   -0.63710E-06   -0.13621E-04  5538   0.109E-02    0.929E-03
RMM:   8    -0.413179521716E+03    0.64905E-05   -0.22377E-05  4291   0.473E-03    0.588E-03
RMM:   9    -0.413179519844E+03    0.18718E-05   -0.60273E-06  3102   0.288E-03    0.490E-03
RMM:  10    -0.413179516839E+03    0.30053E-05   -0.10518E-06  2522   0.177E-03    0.320E-03
RMM:  11    -0.413179511174E+03    0.56649E-05   -0.15617E-06  2540   0.195E-03    0.153E-03
RMM:  12    -0.413179507969E+03    0.32050E-05   -0.61906E-07  2392   0.133E-03    0.676E-04
RMM:  13    -0.413179507294E+03    0.67505E-06   -0.19424E-07  1763   0.805E-04
   27 T=    64. E= -.41286688E+03 F= -.41317951E+03 E0= -.41315781E+03  EK= 0.31263E+00 SP= 0.00E+00 SK= 0.00E+00
       N       E                     dE             d eps       ncg     rms          rms(c)
RMM:   1    -0.413172162615E+03    0.73454E-02   -0.11331E+01  4292   0.829E-01    0.908E-01
RMM:   2    -0.413182444582E+03   -0.10282E-01   -0.14147E-01  4274   0.108E-01    0.656E-01
RMM:   3    -0.413180734632E+03    0.17099E-02   -0.73569E-03  4493   0.419E-02    0.152E-01
RMM:   4    -0.413191055063E+03   -0.10320E-01   -0.10730E-02  5155   0.886E-02    0.428E-01
RMM:   5    -0.413180590624E+03    0.10464E-01   -0.51891E-03  4822   0.702E-02    0.282E-02
RMM:   6    -0.413180624008E+03   -0.33385E-04   -0.80870E-04  5843   0.270E-02    0.176E-02
RMM:   7    -0.413180626444E+03   -0.24357E-05   -0.12162E-04  5549   0.107E-02    0.108E-02
RMM:   8    -0.413180616899E+03    0.95446E-05   -0.23086E-05  4452   0.524E-03    0.518E-03
RMM:   9    -0.413180614911E+03    0.19882E-05   -0.43558E-06  2890   0.274E-03    0.405E-03
RMM:  10    -0.413180612443E+03    0.24687E-05   -0.79836E-07  2489   0.160E-03    0.256E-03
RMM:  11    -0.413180608837E+03    0.36056E-05   -0.74147E-07  2483   0.140E-03    0.122E-03
RMM:  12    -0.413180605489E+03    0.33478E-05   -0.46192E-07  2190   0.107E-03    0.416E-04
RMM:  13    -0.413180604543E+03    0.94582E-06   -0.16741E-07  1470   0.738E-04
   28 T=    64. E= -.41286653E+03 F= -.41318060E+03 E0= -.41315896E+03  EK= 0.31407E+00 SP= 0.00E+00 SK= 0.00E+00
       N       E                     dE             d eps       ncg     rms          rms(c)
RMM:   1    -0.413176828360E+03    0.37771E-02   -0.11411E+01  4292   0.863E-01    0.931E-01
RMM:   2    -0.413184132135E+03   -0.73038E-02   -0.13957E-01  4269   0.111E-01    0.649E-01
RMM:   3    -0.413182808961E+03    0.13232E-02   -0.77808E-03  4390   0.436E-02    0.158E-01
RMM:   4    -0.413188158648E+03   -0.53497E-02   -0.58339E-03  5176   0.642E-02    0.307E-01
RMM:   5    -0.413182824772E+03    0.53339E-02   -0.26624E-03  4835   0.505E-02    0.282E-02
RMM:   6    -0.413182832538E+03   -0.77660E-05   -0.47873E-04  5799   0.208E-02    0.194E-02
RMM:   7    -0.413182820748E+03    0.11789E-04   -0.11628E-04  5313   0.107E-02    0.994E-03
RMM:   8    -0.413182810126E+03    0.10622E-04   -0.10769E-05  3665   0.416E-03    0.440E-03
RMM:   9    -0.413182806198E+03    0.39284E-05   -0.18382E-06  2611   0.204E-03    0.316E-03
RMM:  10    -0.413182800042E+03    0.61554E-05   -0.85740E-07  2476   0.153E-03    0.175E-03
RMM:  11    -0.413182793202E+03    0.68406E-05   -0.56454E-07  2369   0.125E-03    0.734E-04
RMM:  12    -0.413182788284E+03    0.49179E-05   -0.28930E-07  1978   0.923E-04    0.293E-04
RMM:  13    -0.413182785946E+03    0.23381E-05   -0.14029E-07  1303   0.702E-04    0.167E-04
RMM:  14    -0.413182781917E+03    0.40281E-05   -0.10858E-07  1240   0.680E-04    0.988E-05
RMM:  15    -0.413182777760E+03    0.41573E-05   -0.94315E-08  1307   0.670E-04    0.875E-05
RMM:  16    -0.413182775447E+03    0.23134E-05   -0.61056E-08  1128   0.603E-04    0.605E-05
RMM:  17    -0.413182771849E+03    0.35978E-05   -0.68982E-08  1254   0.607E-04    0.364E-05
RMM:  18    -0.413182771234E+03    0.61524E-06   -0.24936E-08   776   0.509E-04
   29 T=    64. E= -.41286686E+03 F= -.41318277E+03 E0= -.41316117E+03  EK= 0.31592E+00 SP= 0.00E+00 SK= 0.00E+00
       N       E                     dE             d eps       ncg     rms          rms(c)
RMM:   1    -0.413175904107E+03    0.68677E-02   -0.11336E+01  4289   0.831E-01    0.909E-01
RMM:   2    -0.413186200136E+03   -0.10296E-01   -0.14112E-01  4268   0.111E-01    0.648E-01
RMM:   3    -0.413184686311E+03    0.15138E-02   -0.74471E-03  4455   0.457E-02    0.158E-01
RMM:   4    -0.413194234322E+03   -0.95480E-02   -0.99634E-03  5163   0.851E-02    0.411E-01
RMM:   5    -0.413184591491E+03    0.96428E-02   -0.48489E-03  4828   0.675E-02    0.290E-02
RMM:   6    -0.413184614964E+03   -0.23473E-04   -0.75692E-04  5852   0.259E-02    0.191E-02
RMM:   7    -0.413184612991E+03    0.19727E-05   -0.13155E-04  5487   0.112E-02    0.114E-02
RMM:   8    -0.413184601797E+03    0.11194E-04   -0.20082E-05  4284   0.516E-03    0.486E-03
RMM:   9    -0.413184598949E+03    0.28484E-05   -0.38066E-06  2852   0.258E-03    0.375E-03
RMM:  10    -0.413184595419E+03    0.35295E-05   -0.81712E-07  2485   0.159E-03    0.233E-03
RMM:  11    -0.413184590747E+03    0.46728E-05   -0.65307E-07  2459   0.133E-03    0.111E-03
RMM:  12    -0.413184586884E+03    0.38630E-05   -0.38665E-07  2136   0.102E-03    0.430E-04
RMM:  13    -0.413184585374E+03    0.15099E-05   -0.15824E-07  1446   0.734E-04    0.206E-04
RMM:  14    -0.413184583650E+03    0.17236E-05   -0.96081E-08  1129   0.656E-04    0.117E-04
RMM:  15    -0.413184580259E+03    0.33916E-05   -0.96113E-08  1269   0.676E-04    0.119E-04
RMM:  16    -0.413184579761E+03    0.49758E-06   -0.42332E-08   875   0.587E-04
   30 T=    65. E= -.41286685E+03 F= -.41318458E+03 E0= -.41316303E+03  EK= 0.31773E+00 SP= 0.00E+00 SK= 0.00E+00
       N       E                     dE             d eps       ncg     rms          rms(c)
RMM:   1    -0.413179102688E+03    0.54776E-02   -0.11478E+01  4293   0.878E-01    0.910E-01
RMM:   2    -0.413188633187E+03   -0.95305E-02   -0.14772E-01  4272   0.122E-01    0.662E-01
RMM:   3    -0.413186211040E+03    0.24221E-02   -0.73808E-03  4385   0.425E-02    0.155E-01
RMM:   4    -0.413190600356E+03   -0.43893E-02   -0.50958E-03  5144   0.606E-02    0.279E-01
RMM:   5    -0.413186207121E+03    0.43932E-02   -0.21920E-03  4823   0.457E-02    0.260E-02
RMM:   6    -0.413186210735E+03   -0.36141E-05   -0.37538E-04  5770   0.189E-02    0.188E-02
RMM:   7    -0.413186206131E+03    0.46033E-05   -0.10097E-04  5227   0.989E-03    0.859E-03
RMM:   8    -0.413186200100E+03    0.60315E-05   -0.10004E-05  3513   0.394E-03    0.405E-03
RMM:   9    -0.413186198772E+03    0.13276E-05   -0.14190E-06  2562   0.191E-03    0.276E-03
RMM:  10    -0.413186196043E+03    0.27289E-05   -0.80088E-07  2460   0.141E-03    0.144E-03
RMM:  11    -0.413186193349E+03    0.26943E-05   -0.48895E-07  2215   0.111E-03    0.592E-04
RMM:  12    -0.413186191242E+03    0.21074E-05   -0.25537E-07  1720   0.848E-04    0.240E-04
RMM:  13    -0.413186190029E+03    0.12127E-05   -0.13133E-07  1152   0.689E-04    0.145E-04
RMM:  14    -0.413186188321E+03    0.17078E-05   -0.10483E-07  1192   0.671E-04    0.904E-05
RMM:  15    -0.413186185988E+03    0.23329E-05   -0.10239E-07  1321   0.665E-04    0.706E-05
RMM:  16    -0.413186185090E+03    0.89868E-06   -0.50976E-08   949   0.573E-04
   31 T=    65. E= -.41286654E+03 F= -.41318619E+03 E0= -.41316469E+03  EK= 0.31965E+00 SP= 0.00E+00 SK= 0.00E+00
       N       E                     dE             d eps       ncg     rms          rms(c)
RMM:   1    -0.413181578699E+03    0.46073E-02   -0.11558E+01  4294   0.876E-01    0.936E-01
RMM:   2    -0.413190426281E+03   -0.88476E-02   -0.14557E-01  4266   0.121E-01    0.657E-01
RMM:   3    -0.413188901862E+03    0.15244E-02   -0.78881E-03  4337   0.497E-02    0.162E-01
RMM:   4    -0.413192701678E+03   -0.37998E-02   -0.45043E-03  5133   0.585E-02    0.260E-01
RMM:   5    -0.413188909471E+03    0.37922E-02   -0.18897E-03  4824   0.427E-02    0.283E-02
RMM:   6    -0.413188907588E+03    0.18832E-05   -0.35228E-04  5734   0.185E-02    0.206E-02
RMM:   7    -0.413188891843E+03    0.15745E-04   -0.10795E-04  5182   0.103E-02    0.854E-03
RMM:   8    -0.413188884192E+03    0.76506E-05   -0.85477E-06  3372   0.378E-03    0.410E-03
RMM:   9    -0.413188881161E+03    0.30308E-05   -0.12170E-06  2529   0.185E-03    0.271E-03
RMM:  10    -0.413188874017E+03    0.71445E-05   -0.82303E-07  2460   0.146E-03    0.130E-03
RMM:  11    -0.413188868908E+03    0.51087E-05   -0.41745E-07  2187   0.106E-03    0.578E-04
RMM:  12    -0.413188864297E+03    0.46113E-05   -0.22976E-07  1724   0.833E-04    0.232E-04
RMM:  13    -0.413188861465E+03    0.28317E-05   -0.12201E-07  1197   0.689E-04    0.139E-04
RMM:  14    -0.413188857924E+03    0.35407E-05   -0.93785E-08  1213   0.662E-04    0.966E-05
RMM:  15    -0.413188853037E+03    0.48875E-05   -0.97456E-08  1415   0.668E-04    0.813E-05
RMM:  16    -0.413188851487E+03    0.15500E-05   -0.47204E-08   973   0.561E-04    0.610E-05
RMM:  17    -0.413188848555E+03    0.29325E-05   -0.47285E-08  1009   0.571E-04    0.282E-05
RMM:  18    -0.413188847852E+03    0.70216E-06   -0.22707E-08   750   0.520E-04
   32 T=    66. E= -.41286683E+03 F= -.41318885E+03 E0= -.41316740E+03  EK= 0.32202E+00 SP= 0.00E+00 SK= 0.00E+00
       N       E                     dE             d eps       ncg     rms          rms(c)
RMM:   1    -0.413183762081E+03    0.50865E-02   -0.11535E+01  4291   0.895E-01    0.923E-01
RMM:   2    -0.413192754418E+03   -0.89923E-02   -0.14794E-01  4276   0.130E-01    0.654E-01
RMM:   3    -0.413190808029E+03    0.19464E-02   -0.75635E-03  4189   0.439E-02    0.164E-01
RMM:   4    -0.413191213426E+03   -0.40540E-03   -0.14070E-03  4996   0.303E-02    0.844E-02
RMM:   5    -0.413190851791E+03    0.36163E-03   -0.20988E-04  4714   0.151E-02    0.275E-02
RMM:   6    -0.413190839989E+03    0.11802E-04   -0.11362E-04  5336   0.112E-02    0.202E-02
RMM:   7    -0.413190819479E+03    0.20510E-04   -0.81278E-05  4644   0.848E-03    0.836E-03
RMM:   8    -0.413190816638E+03    0.28406E-05   -0.47167E-06  2921   0.312E-03    0.380E-03
RMM:   9    -0.413190815126E+03    0.15122E-05   -0.10435E-06  2342   0.160E-03    0.196E-03
RMM:  10    -0.413190807413E+03    0.77133E-05   -0.57045E-07  2098   0.115E-03    0.717E-04
RMM:  11    -0.413190803422E+03    0.39910E-05   -0.20981E-07  1616   0.776E-04    0.307E-04
RMM:  12    -0.413190799377E+03    0.40445E-05   -0.11592E-07  1251   0.673E-04    0.170E-04
RMM:  13    -0.413190795612E+03    0.37652E-05   -0.68369E-08   956   0.618E-04    0.844E-05
RMM:  14    -0.413190791733E+03    0.38796E-05   -0.54633E-08   965   0.605E-04    0.834E-05
RMM:  15    -0.413190787851E+03    0.38818E-05   -0.47856E-08   996   0.583E-04    0.625E-05
RMM:  16    -0.413190785515E+03    0.23352E-05   -0.27817E-08   766   0.529E-04    0.371E-05
RMM:  17    -0.413190784731E+03    0.78491E-06   -0.12371E-08   551   0.490E-04
   33 T=    66. E= -.41286661E+03 F= -.41319078E+03 E0= -.41316939E+03  EK= 0.32418E+00 SP= 0.00E+00 SK= 0.00E+00
       N       E                     dE             d eps       ncg     rms          rms(c)
RMM:   1    -0.413186468236E+03    0.43173E-02   -0.11646E+01  4288   0.929E-01    0.915E-01
RMM:   2    -0.413195418670E+03   -0.89504E-02   -0.15264E-01  4270   0.132E-01    0.667E-01
RMM:   3    -0.413193310418E+03    0.21083E-02   -0.75506E-03  4385   0.492E-02    0.160E-01
RMM:   4    -0.413198390489E+03   -0.50801E-02   -0.57294E-03  5148   0.670E-02    0.301E-01
RMM:   5    -0.413193323016E+03    0.50675E-02   -0.24691E-03  4802   0.495E-02    0.281E-02
RMM:   6    -0.413193312150E+03    0.10866E-04   -0.42887E-04  5743   0.212E-02    0.200E-02
RMM:   7    -0.413193308123E+03    0.40267E-05   -0.11293E-04  5247   0.104E-02    0.926E-03
RMM:   8    -0.413193301496E+03    0.66271E-05   -0.13146E-05  3911   0.440E-03    0.435E-03
RMM:   9    -0.413193300165E+03    0.13314E-05   -0.18463E-06  2623   0.206E-03    0.279E-03
RMM:  10    -0.413193297251E+03    0.29138E-05   -0.74507E-07  2450   0.142E-03    0.150E-03
RMM:  11    -0.413193293800E+03    0.34506E-05   -0.52701E-07  2269   0.114E-03    0.660E-04
RMM:  12    -0.413193291156E+03    0.26447E-05   -0.27909E-07  1820   0.869E-04    0.279E-04
RMM:  13    -0.413193289710E+03    0.14457E-05   -0.13771E-07  1193   0.687E-04    0.150E-04
RMM:  14    -0.413193288123E+03    0.15874E-05   -0.95619E-08  1062   0.649E-04    0.965E-05
RMM:  15    -0.413193285354E+03    0.27686E-05   -0.95191E-08  1179   0.658E-04    0.638E-05
RMM:  16    -0.413193284608E+03    0.74566E-06   -0.48014E-08   912   0.584E-04
   34 T=    66. E= -.41286676E+03 F= -.41319328E+03 E0= -.41317193E+03  EK= 0.32652E+00 SP= 0.00E+00 SK= 0.00E+00
       N       E                     dE             d eps       ncg     rms          rms(c)
RMM:   1    -0.413188013772E+03    0.52716E-02   -0.11734E+01  4299   0.922E-01    0.940E-01
RMM:   2    -0.413197829966E+03   -0.98162E-02   -0.15099E-01  4258   0.133E-01    0.667E-01
RMM:   3    -0.413196085383E+03    0.17446E-02   -0.78216E-03  4434   0.479E-02    0.166E-01
RMM:   4    -0.413202125238E+03   -0.60399E-02   -0.67082E-03  5166   0.695E-02    0.331E-01
RMM:   5    -0.413196004029E+03    0.61212E-02   -0.31201E-03  4817   0.548E-02    0.304E-02
RMM:   6    -0.413195993111E+03    0.10918E-04   -0.54197E-04  5752   0.230E-02    0.217E-02
RMM:   7    -0.413195983807E+03    0.93037E-05   -0.12988E-04  5332   0.110E-02    0.979E-03
RMM:   8    -0.413195974848E+03    0.89595E-05   -0.15892E-05  4065   0.463E-03    0.457E-03
RMM:   9    -0.413195971972E+03    0.28760E-05   -0.22747E-06  2684   0.216E-03    0.294E-03
RMM:  10    -0.413195966344E+03    0.56280E-05   -0.73155E-07  2469   0.143E-03    0.162E-03
RMM:  11    -0.413195959781E+03    0.65627E-05   -0.51820E-07  2340   0.117E-03    0.733E-04
RMM:  12    -0.413195954692E+03    0.50891E-05   -0.27856E-07  1893   0.890E-04    0.300E-04
RMM:  13    -0.413195952415E+03    0.22772E-05   -0.13551E-07  1240   0.697E-04    0.161E-04
RMM:  14    -0.413195949586E+03    0.28290E-05   -0.89453E-08  1073   0.648E-04    0.104E-04
RMM:  15    -0.413195944396E+03    0.51896E-05   -0.92449E-08  1277   0.670E-04    0.828E-05
RMM:  16    -0.413195942876E+03    0.15202E-05   -0.49042E-08   996   0.591E-04    0.715E-05
RMM:  17    -0.413195939618E+03    0.32575E-05   -0.47319E-08  1073   0.592E-04    0.429E-05
RMM:  18    -0.413195938299E+03    0.13193E-05   -0.27243E-08   847   0.542E-04    0.238E-05
RMM:  19    -0.413195937990E+03    0.30933E-06   -0.13403E-08   680   0.514E-04
   35 T=    67. E= -.41286700E+03 F= -.41319594E+03 E0= -.41317463E+03  EK= 0.32894E+00 SP= 0.00E+00 SK= 0.00E+00
       N       E                     dE             d eps       ncg     rms          rms(c)
RMM:   1    -0.413201621639E+03   -0.56833E-02   -0.11850E+01  4297   0.100E+00    0.940E-01
RMM:   2    -0.413199636490E+03    0.19851E-02   -0.15735E-01  4255   0.128E-01    0.661E-01
RMM:   3    -0.413198315697E+03    0.13208E-02   -0.80575E-03  4793   0.491E-02    0.190E-01
RMM:   4    -0.413232326464E+03   -0.34011E-01   -0.34519E-02  5159   0.156E-01    0.768E-01
RMM:   5    -0.413197891261E+03    0.34435E-01   -0.17390E-02  4804   0.128E-01    0.432E-02
RMM:   6    -0.413197962836E+03   -0.71575E-04   -0.27130E-03  5860   0.490E-02    0.250E-02
RMM:   7    -0.413197969878E+03   -0.70424E-05   -0.28861E-04  5737   0.152E-02    0.142E-02
RMM:   8    -0.413197961103E+03    0.87751E-05   -0.43414E-05  4853   0.647E-03    0.859E-03
RMM:   9    -0.413197957458E+03    0.36446E-05   -0.17545E-05  4304   0.442E-03    0.654E-03
RMM:  10    -0.413197950015E+03    0.74439E-05   -0.26705E-06  2619   0.255E-03    0.364E-03
RMM:  11    -0.413197944624E+03    0.53904E-05   -0.16370E-06  2527   0.199E-03    0.213E-03
RMM:  12    -0.413197934400E+03    0.10224E-04   -0.13225E-06  2491   0.196E-03    0.885E-04
RMM:  13    -0.413197931250E+03    0.31499E-05   -0.45157E-07  2329   0.123E-03    0.599E-04
RMM:  14    -0.413197930911E+03    0.33967E-06   -0.18709E-07  1724   0.804E-04
   36 T=    67. E= -.41286674E+03 F= -.41319793E+03 E0= -.41317667E+03  EK= 0.33119E+00 SP= 0.00E+00 SK= 0.00E+00
       N       E                     dE             d eps       ncg     rms          rms(c)
RMM:   1    -0.413196618861E+03    0.13124E-02   -0.11830E+01  4304   0.101E+00    0.923E-01
RMM:   2    -0.413203330503E+03   -0.67116E-02   -0.15820E-01  4255   0.136E-01    0.672E-01
RMM:   3    -0.413201333958E+03    0.19965E-02   -0.77934E-03  4698   0.532E-02    0.180E-01
RMM:   4    -0.413231235257E+03   -0.29901E-01   -0.30187E-02  5160   0.146E-01    0.721E-01
RMM:   5    -0.413200972983E+03    0.30262E-01   -0.15317E-02  4806   0.120E-01    0.406E-02
RMM:   6    -0.413201024162E+03   -0.51179E-04   -0.23638E-03  5859   0.458E-02    0.237E-02
RMM:   7    -0.413201033053E+03   -0.88915E-05   -0.26449E-04  5771   0.145E-02    0.137E-02
RMM:   8    -0.413201026230E+03    0.68234E-05   -0.46238E-05  4935   0.673E-03    0.863E-03
RMM:   9    -0.413201023456E+03    0.27742E-05   -0.16291E-05  4264   0.442E-03    0.575E-03
RMM:  10    -0.413201018238E+03    0.52178E-05   -0.22716E-06  2593   0.234E-03    0.333E-03
RMM:  11    -0.413201014463E+03    0.37754E-05   -0.13568E-06  2504   0.183E-03    0.189E-03
RMM:  12    -0.413201007702E+03    0.67605E-05   -0.10975E-06  2488   0.173E-03    0.762E-04
RMM:  13    -0.413201005515E+03    0.21872E-05   -0.38221E-07  2242   0.112E-03    0.506E-04
RMM:  14    -0.413201005119E+03    0.39554E-06   -0.16133E-07  1550   0.752E-04
   37 T=    68. E= -.41286706E+03 F= -.41320101E+03 E0= -.41317979E+03  EK= 0.33395E+00 SP= 0.00E+00 SK= 0.00E+00
       N       E                     dE             d eps       ncg     rms          rms(c)
RMM:   1    -0.413197829977E+03    0.31755E-02   -0.11946E+01  4306   0.102E+00    0.944E-01
RMM:   2    -0.413206127867E+03   -0.82979E-02   -0.15598E-01  4256   0.131E-01    0.676E-01
RMM:   3    -0.413203839808E+03    0.22881E-02   -0.81500E-03  4716   0.519E-02    0.180E-01
RMM:   4    -0.413232940552E+03   -0.29101E-01   -0.29348E-02  5157   0.143E-01    0.712E-01
RMM:   5    -0.413203515025E+03    0.29426E-01   -0.14970E-02  4812   0.118E-01    0.410E-02
RMM:   6    -0.413203559222E+03   -0.44196E-04   -0.22816E-03  5840   0.452E-02    0.244E-02
RMM:   7    -0.413203567613E+03   -0.83916E-05   -0.27942E-04  5801   0.150E-02    0.149E-02
RMM:   8    -0.413203557726E+03    0.98875E-05   -0.51688E-05  5025   0.724E-03    0.874E-03
RMM:   9    -0.413203553297E+03    0.44285E-05   -0.13836E-05  4079   0.427E-03    0.535E-03
RMM:  10    -0.413203547427E+03    0.58705E-05   -0.20693E-06  2578   0.221E-03    0.322E-03
RMM:  11    -0.413203542343E+03    0.50839E-05   -0.12027E-06  2503   0.174E-03    0.175E-03
RMM:  12    -0.413203534168E+03    0.81748E-05   -0.96216E-07  2465   0.163E-03    0.702E-04
RMM:  13    -0.413203531330E+03    0.28377E-05   -0.36036E-07  2200   0.108E-03    0.474E-04
RMM:  14    -0.413203530710E+03    0.62072E-06   -0.16354E-07  1537   0.750E-04
   38 T=    69. E= -.41286701E+03 F= -.41320353E+03 E0= -.41318235E+03  EK= 0.33652E+00 SP= 0.00E+00 SK= 0.00E+00
       N       E                     dE             d eps       ncg     rms          rms(c)
RMM:   1    -0.413211673581E+03   -0.81423E-02   -0.12093E+01  4305   0.110E+00    0.956E-01
RMM:   2    -0.413208044642E+03    0.36289E-02   -0.16392E-01  4262   0.127E-01    0.671E-01
RMM:   3    -0.413206645564E+03    0.13991E-02   -0.85211E-03  4944   0.533E-02    0.213E-01
RMM:   4    -0.413255071988E+03   -0.48426E-01   -0.50945E-02  5142   0.188E-01    0.913E-01
RMM:   5    -0.413205757210E+03    0.49315E-01   -0.24689E-02  4795   0.153E-01    0.509E-02
RMM:   6    -0.413205898962E+03   -0.14175E-03   -0.38620E-03  5831   0.581E-02    0.279E-02
RMM:   7    -0.413205912532E+03   -0.13569E-04   -0.40840E-04  5774   0.175E-02    0.163E-02
RMM:   8    -0.413205903691E+03    0.88402E-05   -0.50930E-05  4701   0.652E-03    0.860E-03
RMM:   9    -0.413205893950E+03    0.97414E-05   -0.13009E-05  3675   0.381E-03    0.504E-03
RMM:  10    -0.413205890518E+03    0.34316E-05   -0.34031E-06  2705   0.247E-03    0.348E-03
RMM:  11    -0.413205882781E+03    0.77372E-05   -0.13404E-06  2496   0.196E-03    0.195E-03
RMM:  12    -0.413205872244E+03    0.10537E-04   -0.95254E-07  2474   0.168E-03    0.591E-04
RMM:  13    -0.413205869322E+03    0.29220E-05   -0.38138E-07  2301   0.111E-03    0.485E-04
RMM:  14    -0.413205868326E+03    0.99646E-06   -0.17279E-07  1684   0.774E-04
   39 T=    69. E= -.41286687E+03 F= -.41320587E+03 E0= -.41318473E+03  EK= 0.33900E+00 SP= 0.00E+00 SK= 0.00E+00
       N       E                     dE             d eps       ncg     rms          rms(c)
RMM:   1    -0.413203414900E+03    0.24544E-02   -0.11990E+01  4307   0.109E+00    0.934E-01
RMM:   2    -0.413211358961E+03   -0.79441E-02   -0.16166E-01  4264   0.132E-01    0.676E-01
RMM:   3    -0.413209649477E+03    0.17095E-02   -0.83912E-03  4969   0.542E-02    0.213E-01
RMM:   4    -0.413261203770E+03   -0.51554E-01   -0.55128E-02  5143   0.195E-01    0.941E-01
RMM:   5    -0.413208549656E+03    0.52654E-01   -0.26013E-02  4787   0.158E-01    0.524E-02
RMM:   6    -0.413208727492E+03   -0.17784E-03   -0.42783E-03  5826   0.601E-02    0.276E-02
RMM:   7    -0.413208746128E+03   -0.18636E-04   -0.43853E-04  5778   0.179E-02    0.167E-02
RMM:   8    -0.413208741617E+03    0.45109E-05   -0.59986E-05  4946   0.704E-03    0.957E-03
RMM:   9    -0.413208735017E+03    0.65996E-05   -0.21165E-05  4432   0.473E-03    0.649E-03
RMM:  10    -0.413208731044E+03    0.39735E-05   -0.51897E-06  2959   0.296E-03    0.366E-03
RMM:  11    -0.413208726478E+03    0.45656E-05   -0.17941E-06  2522   0.214E-03    0.219E-03
RMM:  12    -0.413208719179E+03    0.72992E-05   -0.10873E-06  2488   0.178E-03    0.626E-04
RMM:  13    -0.413208716638E+03    0.25413E-05   -0.44158E-07  2325   0.119E-03    0.485E-04
RMM:  14    -0.413208715349E+03    0.12889E-05   -0.19520E-07  1852   0.822E-04    0.313E-04
RMM:  15    -0.413208710647E+03    0.47021E-05   -0.13010E-07  1497   0.729E-04    0.193E-04
RMM:  16    -0.413208709399E+03    0.12481E-05   -0.59940E-08  1032   0.604E-04    0.977E-05
RMM:  17    -0.413208706896E+03    0.25027E-05   -0.47961E-08   997   0.603E-04    0.695E-05
RMM:  18    -0.413208703231E+03    0.36653E-05   -0.55943E-08  1209   0.632E-04    0.580E-05
RMM:  19    -0.413208701965E+03    0.12656E-05   -0.27561E-08   929   0.565E-04    0.399E-05
RMM:  20    -0.413208701462E+03    0.50321E-06   -0.14735E-08   763   0.535E-04
   40 T=    70. E= -.41286713E+03 F= -.41320870E+03 E0= -.41318760E+03  EK= 0.34157E+00 SP= 0.00E+00 SK= 0.00E+00
       N       E                     dE             d eps       ncg     rms          rms(c)
RMM:   1    -0.413226878617E+03   -0.18177E-01   -0.12339E+01  4307   0.127E+00    0.947E-01
RMM:   2    -0.413212942620E+03    0.13936E-01   -0.17272E-01  4271   0.141E-01    0.687E-01
RMM:   3    -0.413212128933E+03    0.81369E-03   -0.92625E-03  5042   0.608E-02    0.254E-01
RMM:   4    -0.413266708412E+03   -0.54579E-01   -0.62915E-02  5125   0.209E-01    0.974E-01
RMM:   5    -0.413210190497E+03    0.56518E-01   -0.27312E-02  4778   0.164E-01    0.563E-02
RMM:   6    -0.413210357616E+03   -0.16712E-03   -0.43109E-03  5811   0.618E-02    0.282E-02
RMM:   7    -0.413210376849E+03   -0.19233E-04   -0.48914E-04  5904   0.192E-02    0.194E-02
RMM:   8    -0.413210376726E+03    0.12291E-06   -0.96351E-05  5271   0.924E-03    0.124E-02
RMM:   9    -0.413210365581E+03    0.11146E-04   -0.21161E-05  4435   0.526E-03    0.554E-03
RMM:  10    -0.413210361253E+03    0.43275E-05   -0.48391E-06  2816   0.282E-03    0.326E-03
RMM:  11    -0.413210357801E+03    0.34517E-05   -0.14421E-06  2505   0.194E-03    0.184E-03
RMM:  12    -0.413210352618E+03    0.51832E-05   -0.83885E-07  2468   0.157E-03    0.643E-04
RMM:  13    -0.413210349780E+03    0.28384E-05   -0.39974E-07  2253   0.110E-03    0.330E-04
RMM:  14    -0.413210347811E+03    0.19682E-05   -0.20557E-07  1729   0.810E-04    0.222E-04
RMM:  15    -0.413210344206E+03    0.36052E-05   -0.13509E-07  1326   0.709E-04    0.127E-04
RMM:  16    -0.413210342888E+03    0.13185E-05   -0.79707E-08  1101   0.636E-04    0.721E-05
RMM:  17    -0.413210340853E+03    0.20347E-05   -0.63035E-08  1082   0.628E-04    0.592E-05
RMM:  18    -0.413210338621E+03    0.22322E-05   -0.51433E-08  1044   0.615E-04    0.288E-05
RMM:  19    -0.413210337158E+03    0.14633E-05   -0.37745E-08  1005   0.594E-04    0.222E-05
RMM:  20    -0.413210336572E+03    0.58550E-06   -0.21887E-08   819   0.560E-04
   41 T=    70. E= -.41286669E+03 F= -.41321034E+03 E0= -.41318927E+03  EK= 0.34364E+00 SP= 0.00E+00 SK= 0.00E+00
       N       E                     dE             d eps       ncg     rms          rms(c)
RMM:   1    -0.413233466356E+03   -0.23129E-01   -0.12424E+01  4311   0.131E+00    0.970E-01
RMM:   2    -0.413214657522E+03    0.18809E-01   -0.18138E-01  4290   0.145E-01    0.681E-01
RMM:   3    -0.413216296164E+03   -0.16386E-02   -0.11070E-02  5111   0.724E-02    0.324E-01
RMM:   4    -0.413254050113E+03   -0.37754E-01   -0.53305E-02  5097   0.194E-01    0.844E-01
RMM:   5    -0.413212671294E+03    0.41379E-01   -0.18839E-02  4739   0.141E-01    0.562E-02
RMM:   6    -0.413212741785E+03   -0.70491E-04   -0.31326E-03  5763   0.530E-02    0.278E-02
RMM:   7    -0.413212751822E+03   -0.10036E-04   -0.40349E-04  5857   0.175E-02    0.196E-02
RMM:   8    -0.413212747693E+03    0.41282E-05   -0.90087E-05  5206   0.920E-03    0.111E-02
RMM:   9    -0.413212733776E+03    0.13917E-04   -0.18638E-05  4285   0.518E-03    0.428E-03
RMM:  10    -0.413212728218E+03    0.55577E-05   -0.38604E-06  2740   0.252E-03    0.259E-03
RMM:  11    -0.413212722024E+03    0.61941E-05   -0.12226E-06  2500   0.178E-03    0.138E-03
RMM:  12    -0.413212715134E+03    0.68905E-05   -0.57968E-07  2407   0.133E-03    0.567E-04
RMM:  13    -0.413212710994E+03    0.41391E-05   -0.29323E-07  1916   0.930E-04    0.251E-04
RMM:  14    -0.413212707182E+03    0.38126E-05   -0.16991E-07  1438   0.754E-04    0.145E-04
RMM:  15    -0.413212701225E+03    0.59572E-05   -0.13429E-07  1373   0.718E-04    0.107E-04
RMM:  16    -0.413212699142E+03    0.20830E-05   -0.85982E-08  1213   0.650E-04    0.754E-05
RMM:  17    -0.413212694902E+03    0.42398E-05   -0.78921E-08  1310   0.649E-04    0.586E-05
RMM:  18    -0.413212692476E+03    0.24263E-05   -0.51902E-08  1114   0.592E-04    0.413E-05
RMM:  19    -0.413212691915E+03    0.56086E-06   -0.29217E-08   842   0.539E-04
   42 T=    70. E= -.41286686E+03 F= -.41321269E+03 E0= -.41319166E+03  EK= 0.34583E+00 SP= 0.00E+00 SK= 0.00E+00
       N       E                     dE             d eps       ncg     rms          rms(c)
RMM:   1    -0.413214318435E+03   -0.16260E-02   -0.12161E+01  4311   0.129E+00    0.945E-01
RMM:   2    -0.413216605013E+03   -0.22866E-02   -0.16800E-01  4299   0.149E-01    0.680E-01
RMM:   3    -0.413219422580E+03   -0.28176E-02   -0.12073E-02  5102   0.812E-02    0.349E-01
RMM:   4    -0.413250503812E+03   -0.31081E-01   -0.50214E-02  5071   0.189E-01    0.787E-01
RMM:   5    -0.413214568300E+03    0.35936E-01   -0.15653E-02  4709   0.132E-01    0.540E-02
RMM:   6    -0.413214605507E+03   -0.37207E-04   -0.26637E-03  5738   0.491E-02    0.267E-02
RMM:   7    -0.413214611273E+03   -0.57665E-05   -0.33835E-04  5834   0.166E-02    0.190E-02
RMM:   8    -0.413214607640E+03    0.36328E-05   -0.81416E-05  5149   0.892E-03    0.103E-02
RMM:   9    -0.413214596390E+03    0.11251E-04   -0.16900E-05  4193   0.502E-03    0.393E-03
RMM:  10    -0.413214592594E+03    0.37961E-05   -0.33164E-06  2715   0.238E-03    0.235E-03
RMM:  11    -0.413214587719E+03    0.48742E-05   -0.12238E-06  2498   0.176E-03    0.126E-03
RMM:  12    -0.413214582968E+03    0.47509E-05   -0.56308E-07  2397   0.130E-03    0.553E-04
RMM:  13    -0.413214580002E+03    0.29664E-05   -0.28610E-07  1800   0.903E-04    0.247E-04
RMM:  14    -0.413214577084E+03    0.29184E-05   -0.17471E-07  1379   0.747E-04    0.134E-04
RMM:  15    -0.413214572527E+03    0.45565E-05   -0.14350E-07  1327   0.717E-04    0.102E-04
RMM:  16    -0.413214570954E+03    0.15732E-05   -0.88557E-08  1143   0.647E-04    0.764E-05
RMM:  17    -0.413214567713E+03    0.32406E-05   -0.82350E-08  1300   0.648E-04    0.581E-05
RMM:  18    -0.413214565546E+03    0.21673E-05   -0.55136E-08  1088   0.591E-04    0.393E-05
RMM:  19    -0.413214564822E+03    0.72400E-06   -0.29730E-08   828   0.546E-04
   43 T=    71. E= -.41286691E+03 F= -.41321456E+03 E0= -.41319356E+03  EK= 0.34765E+00 SP= 0.00E+00 SK= 0.00E+00
       N       E                     dE             d eps       ncg     rms          rms(c)
RMM:   1    -0.413251811126E+03   -0.37246E-01   -0.12629E+01  4312   0.151E+00    0.946E-01
RMM:   2    -0.413217814960E+03    0.33996E-01   -0.20827E-01  4304   0.173E-01    0.698E-01
RMM:   3    -0.413221478164E+03   -0.36632E-02   -0.12463E-02  5093   0.888E-02    0.405E-01
RMM:   4    -0.413251494871E+03   -0.30017E-01   -0.52608E-02  5057   0.194E-01    0.796E-01
RMM:   5    -0.413215450467E+03    0.36044E-01   -0.15956E-02  4705   0.135E-01    0.584E-02
RMM:   6    -0.413215464935E+03   -0.14469E-04   -0.26543E-03  5694   0.494E-02    0.276E-02
RMM:   7    -0.413215471127E+03   -0.61918E-05   -0.34758E-04  5881   0.169E-02    0.201E-02
RMM:   8    -0.413215466888E+03    0.42391E-05   -0.80425E-05  5190   0.888E-03    0.106E-02
RMM:   9    -0.413215456842E+03    0.10046E-04   -0.19695E-05  4291   0.538E-03    0.419E-03
RMM:  10    -0.413215454033E+03    0.28086E-05   -0.34938E-06  2718   0.242E-03    0.242E-03
RMM:  11    -0.413215450309E+03    0.37246E-05   -0.17327E-06  2556   0.196E-03    0.142E-03
RMM:  12    -0.413215447440E+03    0.28684E-05   -0.58808E-07  2450   0.137E-03    0.666E-04
RMM:  13    -0.413215445008E+03    0.24323E-05   -0.31452E-07  1725   0.917E-04    0.306E-04
RMM:  14    -0.413215442590E+03    0.24178E-05   -0.20752E-07  1456   0.782E-04    0.157E-04
RMM:  15    -0.413215439869E+03    0.27215E-05   -0.15484E-07  1348   0.718E-04    0.948E-05
RMM:  16    -0.413215437881E+03    0.19878E-05   -0.10786E-07  1229   0.663E-04    0.631E-05
RMM:  17    -0.413215435783E+03    0.20983E-05   -0.85660E-08  1215   0.631E-04    0.477E-05
RMM:  18    -0.413215433889E+03    0.18938E-05   -0.60136E-08  1063   0.587E-04    0.359E-05
RMM:  19    -0.413215433161E+03    0.72730E-06   -0.35060E-08   845   0.547E-04
   44 T=    71. E= -.41286665E+03 F= -.41321543E+03 E0= -.41319445E+03  EK= 0.34879E+00 SP= 0.00E+00 SK= 0.00E+00
       N       E                     dE             d eps       ncg     rms          rms(c)
RMM:   1    -0.413233751207E+03   -0.18317E-01   -0.12444E+01  4309   0.151E+00    0.975E-01
RMM:   2    -0.413218312993E+03    0.15438E-01   -0.17157E-01  4336   0.173E-01    0.687E-01
RMM:   3    -0.413228376059E+03   -0.10063E-01   -0.18865E-02  5138   0.113E-01    0.496E-01
RMM:   4    -0.413234939205E+03   -0.65631E-02   -0.39892E-02  5022   0.173E-01    0.575E-01
RMM:   5    -0.413216744418E+03    0.18195E-01   -0.68243E-03  4602   0.985E-02    0.494E-02
RMM:   6    -0.413216705469E+03    0.38948E-04   -0.12963E-03  5463   0.351E-02    0.253E-02
RMM:   7    -0.413216703195E+03    0.22745E-05   -0.18330E-04  5643   0.132E-02    0.175E-02
RMM:   8    -0.413216696150E+03    0.70447E-05   -0.80183E-05  5083   0.910E-03    0.887E-03
RMM:   9    -0.413216682261E+03    0.13890E-04   -0.13896E-05  4107   0.497E-03    0.357E-03
RMM:  10    -0.413216678549E+03    0.37120E-05   -0.21837E-06  2638   0.208E-03    0.202E-03
RMM:  11    -0.413216671357E+03    0.71913E-05   -0.10959E-06  2484   0.169E-03    0.116E-03
RMM:  12    -0.413216665847E+03    0.55107E-05   -0.47389E-07  2386   0.122E-03    0.576E-04
RMM:  13    -0.413216662051E+03    0.37960E-05   -0.22132E-07  1660   0.822E-04    0.279E-04
RMM:  14    -0.413216658273E+03    0.37775E-05   -0.12733E-07  1240   0.680E-04    0.143E-04
RMM:  15    -0.413216652826E+03    0.54473E-05   -0.10812E-07  1227   0.675E-04    0.115E-04
RMM:  16    -0.413216650197E+03    0.26285E-05   -0.70248E-08  1132   0.619E-04    0.109E-04
RMM:  17    -0.413216647564E+03    0.26337E-05   -0.50186E-08  1015   0.584E-04    0.581E-05
RMM:  18    -0.413216643271E+03    0.42927E-05   -0.58247E-08  1221   0.612E-04    0.573E-05
RMM:  19    -0.413216642971E+03    0.29983E-06   -0.18919E-08   704   0.509E-04
   45 T=    71. E= -.41286698E+03 F= -.41321664E+03 E0= -.41319569E+03  EK= 0.34967E+00 SP= 0.00E+00 SK= 0.00E+00
       N       E                     dE             d eps       ncg     rms          rms(c)
RMM:   1    -0.413231323903E+03   -0.14681E-01   -0.12299E+01  4309   0.158E+00    0.955E-01
RMM:   2    -0.413218107857E+03    0.13216E-01   -0.17936E-01  4353   0.187E-01    0.684E-01
RMM:   3    -0.413230031765E+03   -0.11924E-01   -0.20170E-02  5132   0.120E-01    0.537E-01
RMM:   4    -0.413232565254E+03   -0.25335E-02   -0.39483E-02  5016   0.174E-01    0.548E-01
RMM:   5    -0.413216458246E+03    0.16107E-01   -0.61461E-03  4574   0.962E-02    0.499E-02
RMM:   6    -0.413216404641E+03    0.53604E-04   -0.11088E-03  5319   0.332E-02    0.250E-02
RMM:   7    -0.413216401267E+03    0.33749E-05   -0.15640E-04  5662   0.122E-02    0.168E-02
RMM:   8    -0.413216396749E+03    0.45180E-05   -0.88199E-05  5148   0.946E-03    0.966E-03
RMM:   9    -0.413216382225E+03    0.14524E-04   -0.16677E-05  4302   0.538E-03    0.374E-03
RMM:  10    -0.413216379279E+03    0.29457E-05   -0.25517E-06  2682   0.216E-03    0.212E-03
RMM:  11    -0.413216373243E+03    0.60362E-05   -0.12675E-06  2489   0.179E-03    0.123E-03
RMM:  12    -0.413216368813E+03    0.44300E-05   -0.50452E-07  2401   0.128E-03    0.646E-04
RMM:  13    -0.413216365260E+03    0.35531E-05   -0.23332E-07  1700   0.853E-04    0.316E-04
RMM:  14    -0.413216361768E+03    0.34920E-05   -0.12742E-07  1268   0.690E-04    0.157E-04
RMM:  15    -0.413216357316E+03    0.44517E-05   -0.10210E-07  1195   0.664E-04    0.112E-04
RMM:  16    -0.413216355007E+03    0.23090E-05   -0.60748E-08  1000   0.600E-04    0.998E-05
RMM:  17    -0.413216352107E+03    0.29003E-05   -0.50382E-08  1004   0.588E-04    0.568E-05
RMM:  18    -0.413216348892E+03    0.32152E-05   -0.50134E-08  1095   0.592E-04    0.406E-05
RMM:  19    -0.413216348354E+03    0.53776E-06   -0.17162E-08   668   0.508E-04
   46 T=    71. E= -.41286689E+03 F= -.41321635E+03 E0= -.41319541E+03  EK= 0.34946E+00 SP= 0.00E+00 SK= 0.00E+00
       N       E                     dE             d eps       ncg     rms          rms(c)
RMM:   1    -0.413242689823E+03   -0.26341E-01   -0.12421E+01  4311   0.170E+00    0.943E-01
RMM:   2    -0.413217539362E+03    0.25150E-01   -0.19765E-01  4356   0.202E-01    0.698E-01
RMM:   3    -0.413229612164E+03   -0.12073E-01   -0.20344E-02  5137   0.125E-01    0.559E-01
RMM:   4    -0.413232775450E+03   -0.31633E-02   -0.42128E-02  5009   0.179E-01    0.573E-01
RMM:   5    -0.413215229350E+03    0.17546E-01   -0.69515E-03  4574   0.102E-01    0.530E-02
RMM:   6    -0.413215164054E+03    0.65297E-04   -0.12170E-03  5317   0.350E-02    0.260E-02
RMM:   7    -0.413215160753E+03    0.33001E-05   -0.17587E-04  5713   0.129E-02    0.183E-02
RMM:   8    -0.413215155616E+03    0.51377E-05   -0.88805E-05  5175   0.951E-03    0.988E-03
RMM:   9    -0.413215142583E+03    0.13033E-04   -0.18040E-05  4343   0.557E-03    0.392E-03
RMM:  10    -0.413215140431E+03    0.21517E-05   -0.27221E-06  2691   0.221E-03    0.221E-03
RMM:  11    -0.413215136353E+03    0.40782E-05   -0.14640E-06  2510   0.187E-03    0.135E-03
RMM:  12    -0.413215133393E+03    0.29593E-05   -0.54210E-07  2422   0.133E-03    0.688E-04
RMM:  13    -0.413215130660E+03    0.27335E-05   -0.26805E-07  1749   0.894E-04    0.316E-04
RMM:  14    -0.413215128181E+03    0.24794E-05   -0.15989E-07  1388   0.732E-04    0.164E-04
RMM:  15    -0.413215125110E+03    0.30703E-05   -0.12878E-07  1299   0.686E-04    0.111E-04
RMM:  16    -0.413215123318E+03    0.17924E-05   -0.76561E-08  1046   0.604E-04    0.924E-05
RMM:  17    -0.413215121217E+03    0.21006E-05   -0.61180E-08  1020   0.589E-04    0.518E-05
RMM:  18    -0.413215119252E+03    0.19653E-05   -0.50306E-08   999   0.580E-04    0.401E-05
RMM:  19    -0.413215118802E+03    0.45004E-06   -0.23570E-08   718   0.522E-04
   47 T=    71. E= -.41286698E+03 F= -.41321512E+03 E0= -.41319420E+03  EK= 0.34814E+00 SP= 0.00E+00 SK= 0.00E+00
       N       E                     dE             d eps       ncg     rms          rms(c)
RMM:   1    -0.413268610976E+03   -0.53492E-01   -0.12613E+01  4304   0.191E+00    0.966E-01
RMM:   2    -0.413214562562E+03    0.54048E-01   -0.20613E-01  4448   0.209E-01    0.693E-01
RMM:   3    -0.413234301868E+03   -0.19739E-01   -0.27144E-02  5150   0.145E-01    0.666E-01
RMM:   4    -0.413223254102E+03    0.11048E-01   -0.38513E-02  4965   0.176E-01    0.466E-01
RMM:   5    -0.413212928090E+03    0.10326E-01   -0.49090E-03  4524   0.909E-02    0.558E-02
RMM:   6    -0.413212794659E+03    0.13343E-03   -0.55904E-04  4816   0.289E-02    0.269E-02
RMM:   7    -0.413212790916E+03    0.37425E-05   -0.17464E-04  5935   0.133E-02    0.165E-02
RMM:   8    -0.413212779459E+03    0.11458E-04   -0.85638E-05  5165   0.100E-02    0.114E-02
RMM:   9    -0.413212767191E+03    0.12267E-04   -0.16485E-05  4234   0.522E-03    0.482E-03
RMM:  10    -0.413212763062E+03    0.41291E-05   -0.28462E-06  2632   0.263E-03    0.232E-03
RMM:  11    -0.413212757901E+03    0.51614E-05   -0.21746E-06  2566   0.225E-03    0.162E-03
RMM:  12    -0.413212753399E+03    0.45017E-05   -0.73970E-07  2409   0.156E-03    0.912E-04
RMM:  13    -0.413212749468E+03    0.39309E-05   -0.33222E-07  2068   0.101E-03    0.529E-04
RMM:  14    -0.413212744106E+03    0.53619E-05   -0.20545E-07  1714   0.804E-04    0.287E-04
RMM:  15    -0.413212739808E+03    0.42985E-05   -0.12535E-07  1287   0.653E-04    0.180E-04
RMM:  16    -0.413212737572E+03    0.22360E-05   -0.70912E-08   991   0.575E-04    0.105E-04
RMM:  17    -0.413212734314E+03    0.32581E-05   -0.68197E-08  1044   0.583E-04    0.650E-05
RMM:  18    -0.413212732537E+03    0.17767E-05   -0.39905E-08   877   0.554E-04    0.540E-05
RMM:  19    -0.413212731691E+03    0.84606E-06   -0.23177E-08   734   0.527E-04
   48 T=    70. E= -.41286739E+03 F= -.41321273E+03 E0= -.41319183E+03  EK= 0.34534E+00 SP= 0.00E+00 SK= 0.00E+00
       N       E                     dE             d eps       ncg     rms          rms(c)
RMM:   1    -0.413268445506E+03   -0.55713E-01   -0.12406E+01  4304   0.203E+00    0.954E-01
RMM:   2    -0.413209102096E+03    0.59343E-01   -0.20848E-01  4495   0.220E-01    0.682E-01
RMM:   3    -0.413234507189E+03   -0.25405E-01   -0.32069E-02  5160   0.160E-01    0.739E-01
RMM:   4    -0.413214764928E+03    0.19742E-01   -0.37646E-02  4947   0.176E-01    0.412E-01
RMM:   5    -0.413207568115E+03    0.71968E-02   -0.49293E-03  4651   0.912E-02    0.648E-02
RMM:   6    -0.413207354273E+03    0.21384E-03   -0.48116E-04  4656   0.303E-02    0.303E-02
RMM:   7    -0.413207352426E+03    0.18468E-05   -0.18224E-04  5809   0.143E-02    0.212E-02
RMM:   8    -0.413207330273E+03    0.22153E-04   -0.60460E-05  5000   0.854E-03    0.953E-03
RMM:   9    -0.413207319314E+03    0.10959E-04   -0.14459E-05  3866   0.464E-03    0.431E-03
RMM:  10    -0.413207314311E+03    0.50031E-05   -0.22027E-06  2587   0.230E-03    0.244E-03
RMM:  11    -0.413207307674E+03    0.66372E-05   -0.11065E-06  2496   0.170E-03    0.161E-03
RMM:  12    -0.413207303676E+03    0.39974E-05   -0.39941E-07  2380   0.114E-03    0.781E-04
RMM:  13    -0.413207298391E+03    0.52851E-05   -0.27482E-07  1668   0.866E-04    0.350E-04
RMM:  14    -0.413207293481E+03    0.49101E-05   -0.21843E-07  1804   0.788E-04    0.391E-04
RMM:  15    -0.413207289664E+03    0.38173E-05   -0.12292E-07  1129   0.629E-04    0.186E-04
RMM:  16    -0.413207286358E+03    0.33053E-05   -0.94086E-08  1135   0.622E-04    0.931E-05
RMM:  17    -0.413207284028E+03    0.23301E-05   -0.64581E-08  1042   0.596E-04    0.530E-05
RMM:  18    -0.413207281802E+03    0.22265E-05   -0.52583E-08  1050   0.591E-04    0.660E-05
RMM:  19    -0.413207280759E+03    0.10427E-05   -0.32336E-08   881   0.551E-04    0.513E-05
RMM:  20    -0.413207280084E+03    0.67486E-06   -0.23971E-08   841   0.535E-04
   49 T=    69. E= -.41286705E+03 F= -.41320728E+03 E0= -.41318638E+03  EK= 0.34023E+00 SP= 0.00E+00 SK= 0.00E+00
       N       E                     dE             d eps       ncg     rms          rms(c)
RMM:   1    -0.413228204950E+03   -0.20924E-01   -0.11830E+01  4304   0.199E+00    0.922E-01
RMM:   2    -0.413202896802E+03    0.25308E-01   -0.19723E-01  4497   0.227E-01    0.686E-01
RMM:   3    -0.413228555765E+03   -0.25659E-01   -0.32322E-02  5159   0.162E-01    0.748E-01
RMM:   4    -0.413208310352E+03    0.20245E-01   -0.38930E-02  4942   0.180E-01    0.410E-01
RMM:   5    -0.413200776158E+03    0.75342E-02   -0.51791E-03  4688   0.938E-02    0.677E-02
RMM:   6    -0.413200531680E+03    0.24448E-03   -0.50255E-04  4643   0.314E-02    0.309E-02
RMM:   7    -0.413200529489E+03    0.21913E-05   -0.18730E-04  5813   0.145E-02    0.213E-02
RMM:   8    -0.413200509032E+03    0.20457E-04   -0.59543E-05  5046   0.841E-03    0.969E-03
RMM:   9    -0.413200500746E+03    0.82857E-05   -0.15146E-05  3876   0.474E-03    0.425E-03
RMM:  10    -0.413200496760E+03    0.39862E-05   -0.23626E-06  2611   0.237E-03    0.251E-03
RMM:  11    -0.413200492017E+03    0.47427E-05   -0.10101E-06  2493   0.164E-03    0.158E-03
RMM:  12    -0.413200489105E+03    0.29119E-05   -0.39706E-07  2363   0.111E-03    0.770E-04
RMM:  13    -0.413200485161E+03    0.39440E-05   -0.32333E-07  1799   0.906E-04    0.371E-04
RMM:  14    -0.413200481828E+03    0.33334E-05   -0.22506E-07  1670   0.781E-04    0.343E-04
RMM:  15    -0.413200478972E+03    0.28563E-05   -0.14772E-07  1167   0.662E-04    0.146E-04
RMM:  16    -0.413200477038E+03    0.19341E-05   -0.10026E-07  1153   0.630E-04    0.923E-05
RMM:  17    -0.413200475419E+03    0.16186E-05   -0.72734E-08  1087   0.601E-04    0.572E-05
RMM:  18    -0.413200474336E+03    0.10825E-05   -0.54683E-08  1032   0.573E-04    0.521E-05
RMM:  19    -0.413200473558E+03    0.77823E-06   -0.36372E-08   885   0.547E-04
   50 T=    68. E= -.41286737E+03 F= -.41320047E+03 E0= -.41317959E+03  EK= 0.33311E+00 SP= 0.00E+00 SK= 0.00E+00
       N       E                     dE             d eps       ncg     rms          rms(c)
RMM:   1    -0.413221930183E+03   -0.21456E-01   -0.11563E+01  4300   0.211E+00    0.929E-01
RMM:   2    -0.413192879820E+03    0.29050E-01   -0.19272E-01  4543   0.239E-01    0.678E-01
RMM:   3    -0.413227646594E+03   -0.34767E-01   -0.40879E-02  5166   0.184E-01    0.847E-01
RMM:   4    -0.413195488952E+03    0.32158E-01   -0.39780E-02  4910   0.185E-01    0.350E-01
RMM:   5    -0.413191040212E+03    0.44487E-02   -0.63541E-03  5067   0.101E-01    0.877E-02
RMM:   6    -0.413190596277E+03    0.44394E-03   -0.82298E-04  4690   0.394E-02    0.357E-02
[...]
RMM:   6    -0.413160886451E+03   -0.29408E-04   -0.22751E-03  5642   0.461E-02    0.331E-02
RMM:   7    -0.413160906733E+03   -0.20282E-04   -0.37739E-04  5750   0.173E-02    0.192E-02
RMM:   8    -0.413160908422E+03   -0.16891E-05   -0.51108E-05  5272   0.789E-03    0.851E-03
RMM:   9    -0.413160910084E+03   -0.16616E-05   -0.85234E-06  3319   0.340E-03    0.484E-03
RMM:  10    -0.413160915077E+03   -0.49930E-05   -0.22603E-06  2585   0.219E-03    0.293E-03
RMM:  11    -0.413160919127E+03   -0.40498E-05   -0.11590E-06  2511   0.164E-03    0.150E-03
RMM:  12    -0.413160923736E+03   -0.46089E-05   -0.11740E-06  2508   0.149E-03    0.721E-04
RMM:  13    -0.413160925748E+03   -0.20124E-05   -0.48984E-07  2168   0.107E-03    0.436E-04
RMM:  14    -0.413160927087E+03   -0.13392E-05   -0.26077E-07  1686   0.822E-04    0.272E-04
RMM:  15    -0.413160929654E+03   -0.25671E-05   -0.35090E-07  1775   0.837E-04    0.257E-04
RMM:  16    -0.413160931461E+03   -0.18066E-05   -0.27361E-07  1500   0.744E-04    0.218E-04
RMM:  17    -0.413160932128E+03   -0.66737E-06   -0.11871E-07  1089   0.615E-04
  138 T=    60. E= -.41286691E+03 F= -.41316093E+03 E0= -.41314022E+03  EK= 0.29403E+00 SP= 0.00E+00 SK= 0.00E+00
       N       E                     dE             d eps       ncg     rms          rms(c)
RMM:   1    -0.413164282376E+03   -0.33509E-02   -0.73915E+00  4264   0.714E-01    0.845E-01
RMM:   2    -0.413166096199E+03   -0.18138E-02   -0.87137E-02  4299   0.850E-02    0.618E-01
RMM:   3    -0.413162477684E+03    0.36185E-02   -0.24041E-02  4884   0.582E-02    0.141E-01
RMM:   4    -0.413184910024E+03   -0.22432E-01   -0.25294E-02  5124   0.134E-01    0.634E-01
RMM:   5    -0.413161603357E+03    0.23307E-01   -0.11279E-02  4801   0.106E-01    0.509E-02
RMM:   6    -0.413161635598E+03   -0.32241E-04   -0.19973E-03  5665   0.434E-02    0.327E-02
RMM:   7    -0.413161655217E+03   -0.19618E-04   -0.34983E-04  5674   0.166E-02    0.180E-02
RMM:   8    -0.413161661512E+03   -0.62954E-05   -0.44505E-05  5175   0.726E-03    0.801E-03
RMM:   9    -0.413161665799E+03   -0.42870E-05   -0.73115E-06  3198   0.315E-03    0.478E-03
RMM:  10    -0.413161674717E+03   -0.89180E-05   -0.19790E-06  2554   0.210E-03    0.279E-03
RMM:  11    -0.413161682178E+03   -0.74609E-05   -0.11353E-06  2506   0.160E-03    0.136E-03
RMM:  12    -0.413161689980E+03   -0.78023E-05   -0.10385E-06  2471   0.142E-03    0.668E-04
RMM:  13    -0.413161693129E+03   -0.31488E-05   -0.43516E-07  2117   0.102E-03    0.393E-04
RMM:  14    -0.413161695016E+03   -0.18869E-05   -0.22880E-07  1592   0.792E-04    0.254E-04
RMM:  15    -0.413161699081E+03   -0.40649E-05   -0.32798E-07  1752   0.828E-04    0.244E-04
RMM:  16    -0.413161701312E+03   -0.22312E-05   -0.19940E-07  1389   0.701E-04    0.191E-04
RMM:  17    -0.413161702354E+03   -0.10423E-05   -0.11534E-07  1141   0.618E-04    0.134E-04
RMM:  18    -0.413161703446E+03   -0.10920E-05   -0.11136E-07  1204   0.625E-04    0.323E-05
RMM:  19    -0.413161703669E+03   -0.22319E-06   -0.48521E-08   877   0.549E-04
  139 T=    60. E= -.41286715E+03 F= -.41316170E+03 E0= -.41314101E+03  EK= 0.29456E+00 SP= 0.00E+00 SK= 0.00E+00
       N       E                     dE             d eps       ncg     rms          rms(c)
RMM:   1    -0.413163220088E+03   -0.15166E-02   -0.77976E+00  4264   0.734E-01    0.854E-01
RMM:   2    -0.413165757831E+03   -0.25377E-02   -0.90844E-02  4298   0.863E-02    0.620E-01
RMM:   3    -0.413162176979E+03    0.35809E-02   -0.20504E-02  4846   0.522E-02    0.106E-01
RMM:   4    -0.413180426347E+03   -0.18249E-01   -0.19664E-02  5124   0.118E-01    0.570E-01
RMM:   5    -0.413161705829E+03    0.18721E-01   -0.92105E-03  4816   0.945E-02    0.489E-02
RMM:   6    -0.413161728977E+03   -0.23148E-04   -0.16689E-03  5649   0.399E-02    0.329E-02
RMM:   7    -0.413161742688E+03   -0.13711E-04   -0.31775E-04  5597   0.160E-02    0.170E-02
RMM:   8    -0.413161747047E+03   -0.43589E-05   -0.39119E-05  5018   0.683E-03    0.773E-03
RMM:   9    -0.413161750396E+03   -0.33497E-05   -0.61221E-06  3061   0.292E-03    0.467E-03
RMM:  10    -0.413161758233E+03   -0.78363E-05   -0.18213E-06  2537   0.204E-03    0.263E-03
RMM:  11    -0.413161765026E+03   -0.67936E-05   -0.11041E-06  2497   0.158E-03    0.125E-03
RMM:  12    -0.413161771323E+03   -0.62971E-05   -0.92098E-07  2428   0.135E-03    0.597E-04
RMM:  13    -0.413161774325E+03   -0.30014E-05   -0.41520E-07  2039   0.995E-04    0.344E-04
RMM:  14    -0.413161776050E+03   -0.17246E-05   -0.21848E-07  1570   0.785E-04    0.233E-04
RMM:  15    -0.413161779655E+03   -0.36053E-05   -0.32387E-07  1725   0.822E-04    0.212E-04
RMM:  16    -0.413161781406E+03   -0.17507E-05   -0.17884E-07  1357   0.680E-04    0.158E-04
RMM:  17    -0.413161782224E+03   -0.81830E-06   -0.10402E-07  1084   0.599E-04
  140 T=    60. E= -.41286697E+03 F= -.41316178E+03 E0= -.41314110E+03  EK= 0.29481E+00 SP= 0.00E+00 SK= 0.00E+00
       N       E                     dE             d eps       ncg     rms          rms(c)
RMM:   1    -0.413162107064E+03   -0.32566E-03   -0.81525E+00  4264   0.761E-01    0.863E-01
RMM:   2    -0.413164941029E+03   -0.28340E-02   -0.94035E-02  4292   0.884E-02    0.613E-01
RMM:   3    -0.413161789443E+03    0.31516E-02   -0.16646E-02  4762   0.449E-02    0.767E-02
RMM:   4    -0.413172377013E+03   -0.10588E-01   -0.11046E-02  5153   0.886E-02    0.435E-01
RMM:   5    -0.413161636731E+03    0.10740E-01   -0.54728E-03  4838   0.725E-02    0.460E-02
RMM:   6    -0.413161651799E+03   -0.15068E-04   -0.11026E-03  5581   0.331E-02    0.334E-02
RMM:   7    -0.413161647888E+03    0.39104E-05   -0.26452E-04  5418   0.147E-02    0.156E-02
RMM:   8    -0.413161647817E+03    0.71374E-07   -0.31784E-05  4883   0.620E-03    0.741E-03
RMM:   9    -0.413161648946E+03   -0.11288E-05   -0.43301E-06  2844   0.256E-03    0.428E-03
RMM:  10    -0.413161653016E+03   -0.40705E-05   -0.16895E-06  2531   0.198E-03    0.232E-03
RMM:  11    -0.413161656313E+03   -0.32967E-05   -0.97931E-07  2482   0.150E-03    0.114E-03
RMM:  12    -0.413161658991E+03   -0.26776E-05   -0.73014E-07  2318   0.123E-03    0.518E-04
RMM:  13    -0.413161660875E+03   -0.18844E-05   -0.46010E-07  1994   0.974E-04    0.305E-04
RMM:  14    -0.413161661904E+03   -0.10287E-05   -0.23241E-07  1515   0.778E-04    0.223E-04
RMM:  15    -0.413161663613E+03   -0.17091E-05   -0.32566E-07  1545   0.794E-04    0.152E-04
RMM:  16    -0.413161664453E+03   -0.84074E-06   -0.19060E-07  1396   0.703E-04
  141 T=    60. E= -.41286704E+03 F= -.41316166E+03 E0= -.41314099E+03  EK= 0.29462E+00 SP= 0.00E+00 SK= 0.00E+00
       N       E                     dE             d eps       ncg     rms          rms(c)
RMM:   1    -0.413160772682E+03    0.89093E-03   -0.84622E+00  4264   0.768E-01    0.845E-01
RMM:   2    -0.413165212489E+03   -0.44398E-02   -0.97692E-02  4295   0.899E-02    0.609E-01
RMM:   3    -0.413162142894E+03    0.30696E-02   -0.14568E-02  4638   0.442E-02    0.633E-02
RMM:   4    -0.413165905330E+03   -0.37624E-02   -0.40985E-03  5160   0.549E-02    0.261E-01
RMM:   5    -0.413162108232E+03    0.37971E-02   -0.20096E-03  4845   0.443E-02    0.422E-02
RMM:   6    -0.413162115846E+03   -0.76138E-05   -0.54934E-04  5475   0.240E-02    0.309E-02
RMM:   7    -0.413162126558E+03   -0.10712E-04   -0.20283E-04  5170   0.120E-02    0.153E-02
RMM:   8    -0.413162125771E+03    0.78742E-06   -0.22879E-05  4583   0.526E-03    0.681E-03
RMM:   9    -0.413162128215E+03   -0.24443E-05   -0.41463E-06  2665   0.222E-03    0.321E-03
RMM:  10    -0.413162135817E+03   -0.76025E-05   -0.13597E-06  2504   0.172E-03    0.173E-03
RMM:  11    -0.413162141522E+03   -0.57051E-05   -0.82479E-07  2404   0.131E-03    0.818E-04
RMM:  12    -0.413162146110E+03   -0.45873E-05   -0.58875E-07  2112   0.108E-03    0.360E-04
RMM:  13    -0.413162149814E+03   -0.37046E-05   -0.42963E-07  1832   0.898E-04    0.244E-04
RMM:  14    -0.413162151574E+03   -0.17592E-05   -0.20510E-07  1401   0.732E-04    0.180E-04
RMM:  15    -0.413162153943E+03   -0.23696E-05   -0.26692E-07  1458   0.750E-04    0.830E-05
RMM:  16    -0.413162155007E+03   -0.10639E-05   -0.14609E-07  1274   0.652E-04    0.776E-05
RMM:  17    -0.413162155206E+03   -0.19922E-06   -0.64688E-08   932   0.552E-04
  142 T=    60. E= -.41286717E+03 F= -.41316216E+03 E0= -.41314149E+03  EK= 0.29498E+00 SP= 0.00E+00 SK= 0.00E+00
       N       E                     dE             d eps       ncg     rms          rms(c)
RMM:   1    -0.413159686893E+03    0.24681E-02   -0.88719E+00  4264   0.786E-01    0.850E-01
RMM:   2    -0.413165247475E+03   -0.55606E-02   -0.10214E-01  4294   0.925E-02    0.615E-01
RMM:   3    -0.413162253806E+03    0.29937E-02   -0.12981E-02  4574   0.419E-02    0.609E-02
RMM:   4    -0.413162306997E+03   -0.53191E-04   -0.49972E-04  5104   0.190E-02    0.423E-02
RMM:   5    -0.413162370734E+03   -0.63737E-04   -0.23827E-04  5006   0.160E-02    0.517E-02
RMM:   6    -0.413162317559E+03    0.53175E-04   -0.18588E-04  5319   0.133E-02    0.353E-02
RMM:   7    -0.413162296628E+03    0.20930E-04   -0.17805E-04  4862   0.114E-02    0.146E-02
RMM:   8    -0.413162294271E+03    0.23577E-05   -0.14504E-05  4047   0.451E-03    0.661E-03
RMM:   9    -0.413162297525E+03   -0.32546E-05   -0.55527E-06  2536   0.231E-03    0.173E-03
RMM:  10    -0.413162309346E+03   -0.11821E-04   -0.16987E-06  2489   0.173E-03    0.704E-04
RMM:  11    -0.413162315473E+03   -0.61266E-05   -0.75016E-07  2391   0.121E-03    0.393E-04
RMM:  12    -0.413162318300E+03   -0.28270E-05   -0.30338E-07  1753   0.849E-04    0.299E-04
RMM:  13    -0.413162323356E+03   -0.50563E-05   -0.49499E-07  1563   0.843E-04    0.262E-04
RMM:  14    -0.413162324624E+03   -0.12680E-05   -0.14245E-07  1220   0.652E-04    0.170E-04
RMM:  15    -0.413162325378E+03   -0.75352E-06   -0.92852E-08  1072   0.598E-04
  143 T=    60. E= -.41286687E+03 F= -.41316233E+03 E0= -.41314167E+03  EK= 0.29545E+00 SP= 0.00E+00 SK= 0.00E+00
       N       E                     dE             d eps       ncg     rms          rms(c)
RMM:   1    -0.413159104870E+03    0.32198E-02   -0.92081E+00  4264   0.802E-01    0.868E-01
RMM:   2    -0.413164433077E+03   -0.53282E-02   -0.10507E-01  4297   0.927E-02    0.608E-01
RMM:   3    -0.413162528962E+03    0.19041E-02   -0.11023E-02  4646   0.390E-02    0.896E-02
RMM:   4    -0.413164031182E+03   -0.15022E-02   -0.20513E-03  5208   0.388E-02    0.166E-01
RMM:   5    -0.413162571625E+03    0.14596E-02   -0.85043E-04  4848   0.294E-02    0.412E-02
RMM:   6    -0.413162561892E+03    0.97335E-05   -0.35552E-04  5376   0.195E-02    0.293E-02
RMM:   7    -0.413162559189E+03    0.27025E-05   -0.16529E-04  4925   0.105E-02    0.147E-02
RMM:   8    -0.413162556714E+03    0.24755E-05   -0.14642E-05  4015   0.447E-03    0.647E-03
RMM:   9    -0.413162558409E+03   -0.16955E-05   -0.45323E-06  2607   0.230E-03    0.240E-03
RMM:  10    -0.413162561652E+03   -0.32431E-05   -0.16537E-06  2519   0.186E-03    0.129E-03
RMM:  11    -0.413162564444E+03   -0.27920E-05   -0.10415E-06  2424   0.146E-03    0.702E-04
RMM:  12    -0.413162565753E+03   -0.13088E-05   -0.46942E-07  2026   0.102E-03    0.332E-04
RMM:  13    -0.413162566811E+03   -0.10576E-05   -0.37890E-07  1773   0.865E-04    0.280E-04
RMM:  14    -0.413162567478E+03   -0.66681E-06   -0.29535E-07  1531   0.769E-04
  144 T=    60. E= -.41286707E+03 F= -.41316257E+03 E0= -.41314192E+03  EK= 0.29550E+00 SP= 0.00E+00 SK= 0.00E+00
       N       E                     dE             d eps       ncg     rms          rms(c)
RMM:   1    -0.413157793628E+03    0.47732E-02   -0.94342E+00  4264   0.820E-01    0.850E-01
RMM:   2    -0.413164701065E+03   -0.69074E-02   -0.10806E-01  4292   0.964E-02    0.602E-01
RMM:   3    -0.413162751898E+03    0.19492E-02   -0.95626E-03  4817   0.402E-02    0.105E-01
RMM:   4    -0.413174584164E+03   -0.11832E-01   -0.12266E-02  5157   0.933E-02    0.457E-01
RMM:   5    -0.413162677642E+03    0.11907E-01   -0.60318E-03  4833   0.758E-02    0.442E-02
RMM:   6    -0.413162674428E+03    0.32145E-05   -0.11239E-03  5665   0.318E-02    0.279E-02
RMM:   7    -0.413162689788E+03   -0.15360E-04   -0.21498E-04  5629   0.123E-02    0.121E-02
RMM:   8    -0.413162693153E+03   -0.33658E-05   -0.27879E-05  4747   0.567E-03    0.615E-03
RMM:   9    -0.413162694773E+03   -0.16197E-05   -0.36713E-06  2810   0.249E-03    0.343E-03
RMM:  10    -0.413162699502E+03   -0.47289E-05   -0.16369E-06  2540   0.192E-03    0.194E-03
RMM:  11    -0.413162703681E+03   -0.41790E-05   -0.10802E-06  2493   0.150E-03    0.919E-04
RMM:  12    -0.413162706182E+03   -0.25010E-05   -0.63619E-07  2249   0.113E-03    0.460E-04
RMM:  13    -0.413162707582E+03   -0.13996E-05   -0.35712E-07  1819   0.892E-04    0.239E-04
RMM:  14    -0.413162708526E+03   -0.94457E-06   -0.22902E-07  1454   0.771E-04
  145 T=    60. E= -.41286702E+03 F= -.41316271E+03 E0= -.41314207E+03  EK= 0.29569E+00 SP= 0.00E+00 SK= 0.00E+00
       N       E                     dE             d eps       ncg     rms          rms(c)
RMM:   1    -0.413157080091E+03    0.56275E-02   -0.97588E+00  4264   0.833E-01    0.847E-01
RMM:   2    -0.413165020795E+03   -0.79407E-02   -0.11371E-01  4292   0.989E-02    0.611E-01
RMM:   3    -0.413163060716E+03    0.19601E-02   -0.87875E-03  4835   0.429E-02    0.112E-01
RMM:   4    -0.413179677334E+03   -0.16617E-01   -0.17133E-02  5150   0.110E-01    0.540E-01
RMM:   5    -0.413162889152E+03    0.16788E-01   -0.84239E-03  4835   0.894E-02    0.446E-02
RMM:   6    -0.413162896906E+03   -0.77538E-05   -0.14651E-03  5711   0.359E-02    0.248E-02
RMM:   7    -0.413162920907E+03   -0.24001E-04   -0.21909E-04  5719   0.124E-02    0.113E-02
RMM:   8    -0.413162930277E+03   -0.93699E-05   -0.31337E-05  4783   0.584E-03    0.598E-03
RMM:   9    -0.413162933707E+03   -0.34296E-05   -0.48858E-06  2945   0.270E-03    0.328E-03
RMM:  10    -0.413162940789E+03   -0.70826E-05   -0.18066E-06  2545   0.196E-03    0.202E-03
RMM:  11    -0.413162947227E+03   -0.64381E-05   -0.11645E-06  2511   0.154E-03    0.948E-04
RMM:  12    -0.413162951454E+03   -0.42270E-05   -0.71612E-07  2301   0.117E-03    0.448E-04
RMM:  13    -0.413162953408E+03   -0.19533E-05   -0.35391E-07  1814   0.878E-04    0.253E-04
RMM:  14    -0.413162954769E+03   -0.13613E-05   -0.22563E-07  1421   0.758E-04    0.162E-04
RMM:  15    -0.413162956150E+03   -0.13815E-05   -0.22549E-07  1417   0.739E-04    0.886E-05
RMM:  16    -0.413162956727E+03   -0.57652E-06   -0.13961E-07  1247   0.671E-04
  146 T=    60. E= -.41286669E+03 F= -.41316296E+03 E0= -.41314233E+03  EK= 0.29627E+00 SP= 0.00E+00 SK= 0.00E+00
       N       E                     dE             d eps       ncg     rms          rms(c)
RMM:   1    -0.413157031645E+03    0.59245E-02   -0.10016E+01  4264   0.839E-01    0.868E-01
RMM:   2    -0.413164591701E+03   -0.75601E-02   -0.11487E-01  4296   0.960E-02    0.605E-01
RMM:   3    -0.413163888773E+03    0.70293E-03   -0.81330E-03  4987   0.404E-02    0.141E-01
RMM:   4    -0.413190650892E+03   -0.26762E-01   -0.27949E-02  5147   0.139E-01    0.681E-01
RMM:   5    -0.413163566423E+03    0.27084E-01   -0.13427E-02  4823   0.113E-01    0.515E-02
RMM:   6    -0.413163599853E+03   -0.33430E-04   -0.22639E-03  5700   0.450E-02    0.240E-02
RMM:   7    -0.413163623548E+03   -0.23694E-04   -0.30486E-04  5878   0.143E-02    0.131E-02
RMM:   8    -0.413163627621E+03   -0.40738E-05   -0.40744E-05  5050   0.650E-03    0.650E-03
RMM:   9    -0.413163628241E+03   -0.62018E-06   -0.72886E-06  3166   0.306E-03
  147 T=    60. E= -.41286703E+03 F= -.41316363E+03 E0= -.41314301E+03  EK= 0.29660E+00 SP= 0.00E+00 SK= 0.00E+00
       N       E                     dE             d eps       ncg     rms          rms(c)
RMM:   1    -0.413155974926E+03    0.76527E-02   -0.10145E+01  4266   0.846E-01    0.857E-01
RMM:   2    -0.413164724727E+03   -0.87498E-02   -0.11649E-01  4302   0.101E-01    0.598E-01
RMM:   3    -0.413165346171E+03   -0.62144E-03   -0.87453E-03  5115   0.576E-02    0.227E-01
RMM:   4    -0.413195697297E+03   -0.30351E-01   -0.39585E-02  5116   0.166E-01    0.743E-01
RMM:   5    -0.413163503584E+03    0.32194E-01   -0.15103E-02  4791   0.125E-01    0.654E-02
RMM:   6    -0.413163420382E+03    0.83203E-04   -0.24616E-03  5485   0.489E-02    0.221E-02
RMM:   7    -0.413163458609E+03   -0.38227E-04   -0.41293E-04  6076   0.177E-02    0.149E-02
RMM:   8    -0.413163462334E+03   -0.37244E-05   -0.60272E-05  5460   0.788E-03    0.778E-03
RMM:   9    -0.413163464523E+03   -0.21899E-05   -0.11933E-05  3743   0.403E-03    0.371E-03
RMM:  10    -0.413163466600E+03   -0.20764E-05   -0.20287E-06  2566   0.211E-03    0.234E-03
RMM:  11    -0.413163469319E+03   -0.27192E-05   -0.15732E-06  2547   0.185E-03    0.142E-03
RMM:  12    -0.413163470506E+03   -0.11866E-05   -0.86727E-07  2495   0.135E-03    0.587E-04
RMM:  13    -0.413163470909E+03   -0.40344E-06   -0.42965E-07  1863   0.944E-04
  148 T=    60. E= -.41286676E+03 F= -.41316347E+03 E0= -.41314285E+03  EK= 0.29671E+00 SP= 0.00E+00 SK= 0.00E+00
       N       E                     dE             d eps       ncg     rms          rms(c)
RMM:   1    -0.413158026960E+03    0.54435E-02   -0.10327E+01  4265   0.876E-01    0.844E-01
RMM:   2    -0.413165249827E+03   -0.72229E-02   -0.12452E-01  4292   0.105E-01    0.608E-01
RMM:   3    -0.413164843833E+03    0.40599E-03   -0.70092E-03  5040   0.458E-02    0.170E-01
RMM:   4    -0.413202747494E+03   -0.37904E-01   -0.41078E-02  5138   0.168E-01    0.809E-01
RMM:   5    -0.413164034883E+03    0.38713E-01   -0.18936E-02  4817   0.136E-01    0.566E-02
RMM:   6    -0.413164101361E+03   -0.66478E-04   -0.31286E-03  5674   0.531E-02    0.171E-02
RMM:   7    -0.413164145121E+03   -0.43760E-04   -0.40215E-04  6012   0.159E-02    0.126E-02
RMM:   8    -0.413164154715E+03   -0.95932E-05   -0.46429E-05  5055   0.658E-03    0.664E-03
RMM:   9    -0.413164160444E+03   -0.57291E-05   -0.84514E-06  3108   0.315E-03    0.329E-03
RMM:  10    -0.413164165564E+03   -0.51208E-05   -0.24620E-06  2578   0.208E-03    0.206E-03
RMM:  11    -0.413164170341E+03   -0.47766E-05   -0.13216E-06  2533   0.162E-03    0.121E-03
RMM:  12    -0.413164173693E+03   -0.33517E-05   -0.85767E-07  2404   0.126E-03    0.445E-04
RMM:  13    -0.413164174767E+03   -0.10743E-05   -0.37216E-07  1859   0.907E-04    0.253E-04
RMM:  14    -0.413164175915E+03   -0.11484E-05   -0.35356E-07  1660   0.865E-04    0.174E-04
RMM:  15    -0.413164176337E+03   -0.42201E-06   -0.25049E-07  1624   0.782E-04
  149 T=    61. E= -.41286677E+03 F= -.41316418E+03 E0= -.41314356E+03  EK= 0.29741E+00 SP= 0.00E+00 SK= 0.00E+00
       N       E                     dE             d eps       ncg     rms          rms(c)
RMM:   1    -0.413156159243E+03    0.80167E-02   -0.10446E+01  4264   0.861E-01    0.863E-01
RMM:   2    -0.413165393603E+03   -0.92344E-02   -0.12175E-01  4295   0.100E-01    0.605E-01
RMM:   3    -0.413165456039E+03   -0.62435E-04   -0.70038E-03  5069   0.464E-02    0.182E-01
RMM:   4    -0.413203461960E+03   -0.38006E-01   -0.41863E-02  5134   0.170E-01    0.811E-01
RMM:   5    -0.413164617915E+03    0.38844E-01   -0.18933E-02  4817   0.136E-01    0.582E-02
RMM:   6    -0.413164666312E+03   -0.48398E-04   -0.31129E-03  5651   0.532E-02    0.160E-02
RMM:   7    -0.413164706022E+03   -0.39710E-04   -0.40700E-04  6038   0.160E-02    0.121E-02
RMM:   8    -0.413164710412E+03   -0.43901E-05   -0.43674E-05  4757   0.604E-03    0.689E-03
RMM:   9    -0.413164712700E+03   -0.22875E-05   -0.72139E-06  2955   0.307E-03    0.338E-03
RMM:  10    -0.413164714766E+03   -0.20662E-05   -0.21990E-06  2558   0.202E-03    0.195E-03
RMM:  11    -0.413164716295E+03   -0.15288E-05   -0.12107E-06  2529   0.155E-03    0.106E-03
RMM:  12    -0.413164716848E+03   -0.55346E-06   -0.69883E-07  2260   0.117E-03
  150 T=    61. E= -.41286699E+03 F= -.41316472E+03 E0= -.41314411E+03  EK= 0.29773E+00 SP= 0.00E+00 SK= 0.00E+00
