       N       E                     dE             d eps       ncg     rms          rms(c)
RMM:   1     0.220154748654E+04    0.22015E+04   -0.52438E+04  2132   0.654E+02
RMM:   2     0.705228908366E+03   -0.14963E+04   -0.16263E+04  2132   0.177E+02
RMM:   3     0.137498533530E+03   -0.56773E+03   -0.65724E+03  2132   0.117E+02
RMM:   4    -0.159461207795E+03   -0.29696E+03   -0.27866E+03  2132   0.936E+01
RMM:   5    -0.287451293135E+03   -0.12799E+03   -0.11438E+03  2132   0.595E+01
RMM:   6    -0.349718023015E+03   -0.62267E+02   -0.55114E+02  2132   0.423E+01
RMM:   7    -0.382645228737E+03   -0.32927E+02   -0.30431E+02  2132   0.293E+01
RMM:   8    -0.404137575747E+03   -0.21492E+02   -0.18456E+02  2132   0.233E+01
RMM:   9    -0.435925506669E+03   -0.31788E+02   -0.30717E+02  6106   0.173E+01
RMM:  10    -0.441294482644E+03   -0.53690E+01   -0.63876E+01  6395   0.540E+00
RMM:  11    -0.442508560979E+03   -0.12141E+01   -0.11072E+01  6223   0.173E+00
RMM:  12    -0.442883509155E+03   -0.37495E+00   -0.27057E+00  6369   0.603E-01    0.134E+02
RMM:  13    -0.425621421251E+03    0.17262E+02   -0.81175E+01  4677   0.119E+01    0.712E+01
RMM:  14    -0.499362777260E+03   -0.73741E+02   -0.54208E+02  5422   0.232E+01    0.306E+01
RMM:  15    -0.413947348487E+03    0.85415E+02   -0.19501E+02  5059   0.162E+01    0.591E+00
RMM:  16    -0.414079876128E+03   -0.13253E+00   -0.39055E+01  6074   0.601E+00    0.429E+00
RMM:  17    -0.413230085357E+03    0.84979E+00   -0.22298E+00  5311   0.179E+00    0.247E+00
RMM:  18    -0.413163216721E+03    0.66869E-01   -0.93659E-01  5945   0.100E+00    0.156E+00
RMM:  19    -0.413169241435E+03   -0.60247E-02   -0.28306E-01  5728   0.566E-01    0.855E-01
RMM:  20    -0.413184919715E+03   -0.15678E-01   -0.20290E-01  5299   0.504E-01    0.558E-01
RMM:  21    -0.413167521392E+03    0.17398E-01   -0.35307E-02  4990   0.238E-01    0.250E-01
RMM:  22    -0.413166182788E+03    0.13386E-02   -0.13337E-02  6108   0.978E-02    0.153E-01
RMM:  23    -0.413164365853E+03    0.18169E-02   -0.56037E-03  5821   0.703E-02    0.801E-02
RMM:  24    -0.413162955411E+03    0.14104E-02   -0.17826E-03  5613   0.417E-02    0.351E-02
RMM:  25    -0.413162721146E+03    0.23427E-03   -0.72384E-04  5790   0.230E-02    0.295E-02
RMM:  26    -0.413162912961E+03   -0.19182E-03   -0.59006E-04  5713   0.261E-02    0.289E-02
RMM:  27    -0.413163351588E+03   -0.43863E-03   -0.17942E-04  4536   0.192E-02    0.177E-02
RMM:  28    -0.413163836689E+03   -0.48510E-03   -0.18754E-04  5093   0.198E-02    0.889E-03
RMM:  29    -0.413164196274E+03   -0.35959E-03   -0.10471E-04  4396   0.148E-02    0.369E-03
RMM:  30    -0.413164391359E+03   -0.19508E-03   -0.77654E-05  4252   0.941E-03    0.361E-03
RMM:  31    -0.413164484433E+03   -0.93074E-04   -0.42681E-05  3067   0.567E-03    0.228E-03
RMM:  32    -0.413164501335E+03   -0.16902E-04   -0.17107E-05  2937   0.268E-03    0.117E-03
RMM:  33    -0.413164506966E+03   -0.56306E-05   -0.78291E-06  2738   0.197E-03    0.664E-04
RMM:  34    -0.413164508292E+03   -0.13266E-05   -0.35146E-06  2580   0.143E-03    0.644E-04
RMM:  35    -0.413164507566E+03    0.72638E-06   -0.19778E-06  1970   0.103E-03
    1 T=    61. E= -.41286671E+03 F= -.41316451E+03 E0= -.41314201E+03  EK= 0.29780E+00 SP= 0.00E+00 SK= 0.00E+00
       N       E                     dE             d eps       ncg     rms          rms(c)
RMM:   1    -0.413164819299E+03   -0.31101E-03   -0.85412E+00  3992   0.596E-01    0.888E-01
RMM:   2    -0.413168924579E+03   -0.41053E-02   -0.10524E-01  3947   0.861E-02    0.653E-01
RMM:   3    -0.413164978310E+03    0.39463E-02   -0.20690E-02  4933   0.557E-02    0.130E-01
RMM:   4    -0.413195011829E+03   -0.30034E-01   -0.33915E-02  5189   0.153E-01    0.725E-01
RMM:   5    -0.413163964179E+03    0.31048E-01   -0.14818E-02  4833   0.122E-01    0.509E-02
RMM:   6    -0.413164183369E+03   -0.21919E-03   -0.27266E-03  5784   0.509E-02    0.350E-02
RMM:   7    -0.413164189549E+03   -0.61794E-05   -0.47907E-04  5717   0.201E-02    0.225E-02
RMM:   8    -0.413164185958E+03    0.35911E-05   -0.66927E-05  5235   0.893E-03    0.103E-02
RMM:   9    -0.413164187414E+03   -0.14568E-05   -0.13769E-05  3879   0.398E-03    0.743E-03
RMM:  10    -0.413164192575E+03   -0.51604E-05   -0.26023E-06  2624   0.234E-03    0.451E-03
RMM:  11    -0.413164196349E+03   -0.37747E-05   -0.12983E-06  2531   0.170E-03    0.267E-03
RMM:  12    -0.413164203511E+03   -0.71620E-05   -0.20000E-06  2585   0.202E-03    0.115E-03
RMM:  13    -0.413164207059E+03   -0.35473E-05   -0.84395E-07  2446   0.142E-03    0.938E-04
RMM:  14    -0.413164206784E+03    0.27458E-06   -0.37118E-07  2002   0.923E-04
    2 T=    61. E= -.41286649E+03 F= -.41316421E+03 E0= -.41314171E+03  EK= 0.29772E+00 SP= 0.00E+00 SK= 0.00E+00
       N       E                     dE             d eps       ncg     rms          rms(c)
RMM:   1    -0.413165771822E+03   -0.15648E-02   -0.85291E+00  4188   0.600E-01    0.905E-01
RMM:   2    -0.413169167852E+03   -0.33960E-02   -0.10445E-01  3956   0.850E-02    0.650E-01
RMM:   3    -0.413165250607E+03    0.39172E-02   -0.19161E-02  4869   0.490E-02    0.105E-01
RMM:   4    -0.413189717811E+03   -0.24467E-01   -0.25930E-02  5163   0.135E-01    0.656E-01
RMM:   5    -0.413164637191E+03    0.25081E-01   -0.12054E-02  4834   0.109E-01    0.484E-02
RMM:   6    -0.413164817219E+03   -0.18003E-03   -0.22000E-03  5773   0.458E-02    0.342E-02
RMM:   7    -0.413164805672E+03    0.11546E-04   -0.40997E-04  5609   0.196E-02    0.214E-02
RMM:   8    -0.413164794708E+03    0.10964E-04   -0.56571E-05  5037   0.857E-03    0.101E-02
RMM:   9    -0.413164793234E+03    0.14735E-05   -0.11675E-05  3693   0.376E-03    0.754E-03
RMM:  10    -0.413164793622E+03   -0.38715E-06   -0.21794E-06  2585   0.236E-03
    3 T=    61. E= -.41286691E+03 F= -.41316479E+03 E0= -.41314230E+03  EK= 0.29788E+00 SP= 0.00E+00 SK= 0.00E+00
       N       E                     dE             d eps       ncg     rms          rms(c)
RMM:   1    -0.413165186011E+03   -0.39278E-03   -0.84636E+00  4220   0.604E-01    0.890E-01
RMM:   2    -0.413168702912E+03   -0.35169E-02   -0.10401E-01  4236   0.843E-02    0.644E-01
RMM:   3    -0.413170956665E+03   -0.22538E-02   -0.23360E-02  5171   0.867E-02    0.342E-01
RMM:   4    -0.413186885910E+03   -0.15929E-01   -0.37948E-02  5106   0.168E-01    0.617E-01
RMM:   5    -0.413164542834E+03    0.22343E-01   -0.82753E-03  4684   0.101E-01    0.592E-02
RMM:   6    -0.413164555350E+03   -0.12516E-04   -0.16870E-03  5444   0.416E-02    0.322E-02
RMM:   7    -0.413164575427E+03   -0.20076E-04   -0.34256E-04  5963   0.170E-02    0.193E-02
RMM:   8    -0.413164569007E+03    0.64194E-05   -0.58406E-05  5107   0.910E-03    0.784E-03
RMM:   9    -0.413164567286E+03    0.17213E-05   -0.77144E-06  3314   0.354E-03    0.403E-03
RMM:  10    -0.413164568439E+03   -0.11528E-05   -0.16726E-06  2548   0.214E-03    0.254E-03
RMM:  11    -0.413164569978E+03   -0.15398E-05   -0.13027E-06  2534   0.178E-03    0.140E-03
RMM:  12    -0.413164570849E+03   -0.87099E-06   -0.79180E-07  2488   0.140E-03
    4 T=    61. E= -.41286675E+03 F= -.41316457E+03 E0= -.41314208E+03  EK= 0.29782E+00 SP= 0.00E+00 SK= 0.00E+00
       N       E                     dE             d eps       ncg     rms          rms(c)
RMM:   1    -0.413165185800E+03   -0.61582E-03   -0.85301E+00  4235   0.608E-01    0.885E-01
RMM:   2    -0.413169152804E+03   -0.39670E-02   -0.10536E-01  4044   0.847E-02    0.652E-01
RMM:   3    -0.413165584473E+03    0.35683E-02   -0.20697E-02  4966   0.542E-02    0.135E-01
RMM:   4    -0.413196624808E+03   -0.31040E-01   -0.34330E-02  5144   0.155E-01    0.739E-01
RMM:   5    -0.413164512585E+03    0.32112E-01   -0.15126E-02  4811   0.123E-01    0.509E-02
RMM:   6    -0.413164720185E+03   -0.20760E-03   -0.26521E-03  5741   0.509E-02    0.346E-02
RMM:   7    -0.413164718119E+03    0.20661E-05   -0.46269E-04  5741   0.200E-02    0.220E-02
RMM:   8    -0.413164714145E+03    0.39744E-05   -0.64222E-05  5164   0.894E-03    0.101E-02
RMM:   9    -0.413164714705E+03   -0.56060E-06   -0.12551E-05  3835   0.399E-03    0.723E-03
RMM:  10    -0.413164718869E+03   -0.41636E-05   -0.21398E-06  2597   0.232E-03    0.438E-03
RMM:  11    -0.413164722276E+03   -0.34067E-05   -0.11864E-06  2529   0.173E-03    0.246E-03
RMM:  12    -0.413164727999E+03   -0.57231E-05   -0.19145E-06  2604   0.200E-03    0.110E-03
RMM:  13    -0.413164730281E+03   -0.22823E-05   -0.67404E-07  2423   0.135E-03    0.842E-04
RMM:  14    -0.413164730080E+03    0.20103E-06   -0.25601E-07  1924   0.873E-04
    5 T=    61. E= -.41286674E+03 F= -.41316473E+03 E0= -.41314225E+03  EK= 0.29799E+00 SP= 0.00E+00 SK= 0.00E+00
       N       E                     dE             d eps       ncg     rms          rms(c)
RMM:   1    -0.413166036809E+03   -0.13065E-02   -0.85358E+00  4246   0.612E-01    0.902E-01
RMM:   2    -0.413169365702E+03   -0.33289E-02   -0.10485E-01  4059   0.846E-02    0.651E-01
RMM:   3    -0.413165689479E+03    0.36762E-02   -0.19403E-02  4877   0.489E-02    0.107E-01
RMM:   4    -0.413190932551E+03   -0.25243E-01   -0.26705E-02  5142   0.137E-01    0.666E-01
RMM:   5    -0.413165025342E+03    0.25907E-01   -0.12326E-02  4811   0.110E-01    0.488E-02
RMM:   6    -0.413165212096E+03   -0.18675E-03   -0.23265E-03  5753   0.464E-02    0.344E-02
RMM:   7    -0.413165203066E+03    0.90303E-05   -0.41953E-04  5601   0.196E-02    0.218E-02
RMM:   8    -0.413165192896E+03    0.10170E-04   -0.57485E-05  5018   0.857E-03    0.103E-02
RMM:   9    -0.413165190991E+03    0.19050E-05   -0.11414E-05  3707   0.377E-03    0.769E-03
RMM:  10    -0.413165191243E+03   -0.25232E-06   -0.20572E-06  2563   0.234E-03
    6 T=    61. E= -.41286686E+03 F= -.41316519E+03 E0= -.41314273E+03  EK= 0.29834E+00 SP= 0.00E+00 SK= 0.00E+00
       N       E                     dE             d eps       ncg     rms          rms(c)
RMM:   1    -0.413165808677E+03   -0.61769E-03   -0.84900E+00  4258   0.620E-01    0.897E-01
RMM:   2    -0.413169076835E+03   -0.32682E-02   -0.10436E-01  4286   0.851E-02    0.645E-01
RMM:   3    -0.413171617186E+03   -0.25404E-02   -0.23524E-02  5149   0.874E-02    0.350E-01
RMM:   4    -0.413186456891E+03   -0.14840E-01   -0.37482E-02  5085   0.166E-01    0.606E-01
RMM:   5    -0.413164919491E+03    0.21537E-01   -0.78971E-03  4676   0.989E-02    0.590E-02
RMM:   6    -0.413164924047E+03   -0.45566E-05   -0.16238E-03  5412   0.407E-02    0.325E-02
RMM:   7    -0.413164937156E+03   -0.13109E-04   -0.32946E-04  5947   0.166E-02    0.193E-02
RMM:   8    -0.413164931352E+03    0.58036E-05   -0.56830E-05  5114   0.884E-03    0.777E-03
RMM:   9    -0.413164928288E+03    0.30640E-05   -0.69369E-06  3249   0.343E-03    0.399E-03
RMM:  10    -0.413164928232E+03    0.56643E-07   -0.15820E-06  2529   0.211E-03
    7 T=    61. E= -.41286648E+03 F= -.41316493E+03 E0= -.41314248E+03  EK= 0.29844E+00 SP= 0.00E+00 SK= 0.00E+00
       N       E                     dE             d eps       ncg     rms          rms(c)
RMM:   1    -0.413166004954E+03   -0.10767E-02   -0.85217E+00  4267   0.621E-01    0.884E-01
RMM:   2    -0.413170117363E+03   -0.41124E-02   -0.10507E-01  4125   0.859E-02    0.650E-01
RMM:   3    -0.413166419353E+03    0.36980E-02   -0.20449E-02  4946   0.559E-02    0.136E-01
RMM:   4    -0.413198010138E+03   -0.31591E-01   -0.34917E-02  5133   0.156E-01    0.745E-01
RMM:   5    -0.413165324003E+03    0.32686E-01   -0.15307E-02  4802   0.124E-01    0.515E-02
RMM:   6    -0.413165534442E+03   -0.21044E-03   -0.27323E-03  5734   0.514E-02    0.350E-02
RMM:   7    -0.413165535342E+03   -0.89992E-06   -0.47408E-04  5733   0.200E-02    0.222E-02
RMM:   8    -0.413165530440E+03    0.49020E-05   -0.64390E-05  5177   0.885E-03    0.101E-02
RMM:   9    -0.413165529943E+03    0.49702E-06   -0.12499E-05  3837   0.395E-03    0.724E-03
RMM:  10    -0.413165532517E+03   -0.25741E-05   -0.21085E-06  2580   0.229E-03    0.437E-03
RMM:  11    -0.413165534675E+03   -0.21577E-05   -0.11355E-06  2517   0.171E-03    0.250E-03
RMM:  12    -0.413165538433E+03   -0.37578E-05   -0.19333E-06  2603   0.199E-03    0.112E-03
RMM:  13    -0.413165539901E+03   -0.14686E-05   -0.72771E-07  2430   0.138E-03    0.908E-04
RMM:  14    -0.413165539638E+03    0.26340E-06   -0.25665E-07  1941   0.882E-04
    8 T=    61. E= -.41286673E+03 F= -.41316554E+03 E0= -.41314311E+03  EK= 0.29881E+00 SP= 0.00E+00 SK= 0.00E+00
       N       E                     dE             d eps       ncg     rms          rms(c)
RMM:   1    -0.413166510998E+03   -0.97110E-03   -0.85550E+00  4282   0.627E-01    0.898E-01
RMM:   2    -0.413170270008E+03   -0.37590E-02   -0.10495E-01  4153   0.868E-02    0.653E-01
RMM:   3    -0.413166252002E+03    0.40180E-02   -0.19838E-02  4853   0.524E-02    0.111E-01
RMM:   4    -0.413192481015E+03   -0.26229E-01   -0.27830E-02  5132   0.139E-01    0.679E-01
RMM:   5    -0.413165524787E+03    0.26956E-01   -0.12796E-02  4802   0.112E-01    0.488E-02
RMM:   6    -0.413165715753E+03   -0.19097E-03   -0.23939E-03  5775   0.470E-02    0.339E-02
RMM:   7    -0.413165708517E+03    0.72359E-05   -0.41274E-04  5629   0.195E-02    0.216E-02
RMM:   8    -0.413165697956E+03    0.10561E-04   -0.59734E-05  5017   0.868E-03    0.104E-02
RMM:   9    -0.413165696154E+03    0.18015E-05   -0.11867E-05  3788   0.389E-03    0.773E-03
RMM:  10    -0.413165696662E+03   -0.50743E-06   -0.20396E-06  2563   0.234E-03
    9 T=    61. E= -.41286665E+03 F= -.41316570E+03 E0= -.41314329E+03  EK= 0.29904E+00 SP= 0.00E+00 SK= 0.00E+00
       N       E                     dE             d eps       ncg     rms          rms(c)
RMM:   1    -0.413166706614E+03   -0.10105E-02   -0.85235E+00  4289   0.631E-01    0.903E-01
RMM:   2    -0.413170144687E+03   -0.34381E-02   -0.10451E-01  4334   0.874E-02    0.647E-01
RMM:   3    -0.413172831572E+03   -0.26869E-02   -0.23843E-02  5138   0.896E-02    0.359E-01
RMM:   4    -0.413186495070E+03   -0.13663E-01   -0.37053E-02  5072   0.166E-01    0.594E-01
RMM:   5    -0.413165778113E+03    0.20717E-01   -0.74345E-03  4657   0.967E-02    0.586E-02
RMM:   6    -0.413165785123E+03   -0.70105E-05   -0.15766E-03  5403   0.398E-02    0.328E-02
RMM:   7    -0.413165793116E+03   -0.79927E-05   -0.31544E-04  5897   0.167E-02    0.191E-02
RMM:   8    -0.413165785106E+03    0.80097E-05   -0.55784E-05  5093   0.880E-03    0.763E-03
RMM:   9    -0.413165781193E+03    0.39135E-05   -0.68639E-06  3220   0.339E-03    0.397E-03
RMM:  10    -0.413165780066E+03    0.11271E-05   -0.15796E-06  2529   0.209E-03    0.247E-03
RMM:  11    -0.413165778236E+03    0.18296E-05   -0.11498E-06  2508   0.171E-03    0.134E-03
RMM:  12    -0.413165776338E+03    0.18984E-05   -0.74355E-07  2460   0.136E-03    0.560E-04
RMM:  13    -0.413165775137E+03    0.12003E-05   -0.37890E-07  2089   0.992E-04    0.316E-04
RMM:  14    -0.413165773843E+03    0.12947E-05   -0.23986E-07  1621   0.795E-04    0.205E-04
RMM:  15    -0.413165771781E+03    0.20620E-05   -0.25025E-07  1555   0.763E-04    0.178E-04
RMM:  16    -0.413165769843E+03    0.19371E-05   -0.17826E-07  1325   0.690E-04    0.145E-04
RMM:  17    -0.413165767973E+03    0.18706E-05   -0.15009E-07  1295   0.656E-04    0.745E-05
RMM:  18    -0.413165766800E+03    0.11726E-05   -0.81151E-08  1002   0.582E-04    0.455E-05
RMM:  19    -0.413165766140E+03    0.65986E-06   -0.43445E-08   834   0.545E-04
   10 T=    61. E= -.41286657E+03 F= -.41316577E+03 E0= -.41314338E+03  EK= 0.29919E+00 SP= 0.00E+00 SK= 0.00E+00
       N       E                     dE             d eps       ncg     rms          rms(c)
RMM:   1    -0.413167047073E+03   -0.12803E-02   -0.85091E+00  4291   0.638E-01    0.884E-01
RMM:   2    -0.413170896486E+03   -0.38494E-02   -0.10492E-01  4199   0.853E-02    0.648E-01
RMM:   3    -0.413167516797E+03    0.33797E-02   -0.20101E-02  4960   0.549E-02    0.140E-01
RMM:   4    -0.413200145919E+03   -0.32629E-01   -0.36404E-02  5124   0.159E-01    0.757E-01
RMM:   5    -0.413166361599E+03    0.33784E-01   -0.15853E-02  4789   0.125E-01    0.521E-02
RMM:   6    -0.413166575610E+03   -0.21401E-03   -0.27881E-03  5722   0.519E-02    0.354E-02
RMM:   7    -0.413166573877E+03    0.17328E-05   -0.47628E-04  5642   0.203E-02    0.223E-02
RMM:   8    -0.413166565174E+03    0.87032E-05   -0.66482E-05  5188   0.907E-03    0.101E-02
RMM:   9    -0.413166563322E+03    0.18522E-05   -0.13334E-05  3902   0.407E-03    0.718E-03
RMM:  10    -0.413166564686E+03   -0.13647E-05   -0.21311E-06  2582   0.232E-03    0.436E-03
RMM:  11    -0.413166565927E+03   -0.12404E-05   -0.10680E-06  2507   0.166E-03    0.253E-03
RMM:  12    -0.413166568047E+03   -0.21206E-05   -0.16671E-06  2555   0.195E-03    0.111E-03
RMM:  13    -0.413166568853E+03   -0.80512E-06   -0.67758E-07  2409   0.136E-03
   11 T=    61. E= -.41286695E+03 F= -.41316657E+03 E0= -.41314421E+03  EK= 0.29962E+00 SP= 0.00E+00 SK= 0.00E+00
       N       E                     dE             d eps       ncg     rms          rms(c)
RMM:   1    -0.413167191774E+03   -0.62373E-03   -0.85739E+00  4294   0.639E-01    0.895E-01
RMM:   2    -0.413170873069E+03   -0.36813E-02   -0.10563E-01  4218   0.852E-02    0.655E-01
RMM:   3    -0.413167162278E+03    0.37108E-02   -0.20268E-02  4881   0.517E-02    0.119E-01
RMM:   4    -0.413195216403E+03   -0.28054E-01   -0.30230E-02  5123   0.145E-01    0.702E-01
RMM:   5    -0.413166312969E+03    0.28903E-01   -0.13628E-02  4792   0.116E-01    0.495E-02
RMM:   6    -0.413166514643E+03   -0.20167E-03   -0.25684E-03  5771   0.484E-02    0.337E-02
RMM:   7    -0.413166512801E+03    0.18426E-05   -0.42031E-04  5657   0.196E-02    0.217E-02
RMM:   8    -0.413166502069E+03    0.10732E-04   -0.65159E-05  5025   0.894E-03    0.106E-02
RMM:   9    -0.413166499651E+03    0.24175E-05   -0.13009E-05  3918   0.406E-03    0.789E-03
RMM:  10    -0.413166500239E+03   -0.58779E-06   -0.20773E-06  2571   0.235E-03
   12 T=    61. E= -.41286655E+03 F= -.41316650E+03 E0= -.41314417E+03  EK= 0.29995E+00 SP= 0.00E+00 SK= 0.00E+00
       N       E                     dE             d eps       ncg     rms          rms(c)
RMM:   1    -0.413168356133E+03   -0.18565E-02   -0.85626E+00  4306   0.652E-01    0.908E-01
RMM:   2    -0.413171129305E+03   -0.27732E-02   -0.10523E-01  4345   0.857E-02    0.650E-01
RMM:   3    -0.413175201764E+03   -0.40725E-02   -0.24778E-02  5137   0.933E-02    0.384E-01
RMM:   4    -0.413186089563E+03   -0.10888E-01   -0.36759E-02  5060   0.165E-01    0.569E-01
RMM:   5    -0.413167103266E+03    0.18986E-01   -0.66042E-03  4633   0.928E-02    0.582E-02
RMM:   6    -0.413167091631E+03    0.11635E-04   -0.14242E-03  5351   0.379E-02    0.328E-02
RMM:   7    -0.413167099553E+03   -0.79216E-05   -0.29592E-04  5875   0.163E-02    0.188E-02
RMM:   8    -0.413167091604E+03    0.79483E-05   -0.53218E-05  5081   0.865E-03    0.744E-03
RMM:   9    -0.413167086687E+03    0.49176E-05   -0.62021E-06  3157   0.335E-03    0.382E-03
RMM:  10    -0.413167084902E+03    0.17850E-05   -0.14580E-06  2513   0.206E-03    0.236E-03
RMM:  11    -0.413167081913E+03    0.29885E-05   -0.11399E-06  2504   0.169E-03    0.132E-03
RMM:  12    -0.413167079318E+03    0.25947E-05   -0.66225E-07  2443   0.132E-03    0.563E-04
RMM:  13    -0.413167077509E+03    0.18094E-05   -0.34869E-07  2054   0.971E-04    0.327E-04
RMM:  14    -0.413167075781E+03    0.17284E-05   -0.20636E-07  1527   0.768E-04    0.214E-04
RMM:  15    -0.413167072694E+03    0.30868E-05   -0.24188E-07  1600   0.770E-04    0.193E-04
RMM:  16    -0.413167070133E+03    0.25606E-05   -0.16103E-07  1290   0.674E-04    0.144E-04
RMM:  17    -0.413167067830E+03    0.23037E-05   -0.12739E-07  1265   0.645E-04    0.747E-05
RMM:  18    -0.413167066592E+03    0.12376E-05   -0.65615E-08   963   0.569E-04    0.501E-05
RMM:  19    -0.413167065680E+03    0.91220E-06   -0.39223E-08   820   0.542E-04
   13 T=    61. E= -.41286652E+03 F= -.41316707E+03 E0= -.41314476E+03  EK= 0.30054E+00 SP= 0.00E+00 SK= 0.00E+00
       N       E                     dE             d eps       ncg     rms          rms(c)
RMM:   1    -0.413168320709E+03   -0.12541E-02   -0.85188E+00  4294   0.648E-01    0.887E-01
RMM:   2    -0.413171968247E+03   -0.36475E-02   -0.10508E-01  4245   0.845E-02    0.647E-01
RMM:   3    -0.413168683404E+03    0.32848E-02   -0.19831E-02  4967   0.538E-02    0.142E-01
RMM:   4    -0.413201945865E+03   -0.33262E-01   -0.37358E-02  5121   0.161E-01    0.764E-01
RMM:   5    -0.413167506839E+03    0.34439E-01   -0.16144E-02  4789   0.127E-01    0.526E-02
RMM:   6    -0.413167716531E+03   -0.20969E-03   -0.28634E-03  5729   0.525E-02    0.359E-02
RMM:   7    -0.413167712085E+03    0.44462E-05   -0.48612E-04  5636   0.204E-02    0.227E-02
RMM:   8    -0.413167703000E+03    0.90845E-05   -0.68619E-05  5213   0.918E-03    0.104E-02
RMM:   9    -0.413167699944E+03    0.30567E-05   -0.13375E-05  3942   0.410E-03    0.736E-03
RMM:  10    -0.413167699794E+03    0.14993E-06   -0.21364E-06  2577   0.231E-03
   14 T=    61. E= -.41286660E+03 F= -.41316770E+03 E0= -.41314543E+03  EK= 0.30110E+00 SP= 0.00E+00 SK= 0.00E+00
       N       E                     dE             d eps       ncg     rms          rms(c)
RMM:   1    -0.413168393809E+03   -0.69387E-03   -0.86069E+00  4300   0.652E-01    0.893E-01
RMM:   2    -0.413172389837E+03   -0.39960E-02   -0.10618E-01  4339   0.865E-02    0.657E-01
RMM:   3    -0.413175990921E+03   -0.36011E-02   -0.26213E-02  5136   0.950E-02    0.386E-01
RMM:   4    -0.413188791786E+03   -0.12801E-01   -0.39447E-02  5061   0.171E-01    0.599E-01
RMM:   5    -0.413167735730E+03    0.21056E-01   -0.74732E-03  4633   0.983E-02    0.576E-02
RMM:   6    -0.413167745586E+03   -0.98559E-05   -0.15779E-03  5375   0.393E-02    0.314E-02
RMM:   7    -0.413167761252E+03   -0.15665E-04   -0.31049E-04  5908   0.164E-02    0.187E-02
RMM:   8    -0.413167758961E+03    0.22904E-05   -0.56489E-05  5101   0.875E-03    0.749E-03
RMM:   9    -0.413167757174E+03    0.17867E-05   -0.65011E-06  3160   0.341E-03    0.384E-03
RMM:  10    -0.413167758158E+03   -0.98404E-06   -0.14581E-06  2510   0.204E-03
   15 T=    61. E= -.41286630E+03 F= -.41316776E+03 E0= -.41314552E+03  EK= 0.30146E+00 SP= 0.00E+00 SK= 0.00E+00
       N       E                     dE             d eps       ncg     rms          rms(c)
RMM:   1    -0.413173027988E+03   -0.52708E-02   -0.86310E+00  4299   0.684E-01    0.910E-01
RMM:   2    -0.413173229723E+03   -0.20173E-03   -0.11022E-01  4268   0.888E-02    0.653E-01
RMM:   3    -0.413169744968E+03    0.34848E-02   -0.18962E-02  4966   0.540E-02    0.141E-01
RMM:   4    -0.413204712154E+03   -0.34967E-01   -0.38875E-02  5120   0.164E-01    0.782E-01
RMM:   5    -0.413168626967E+03    0.36085E-01   -0.16976E-02  4788   0.130E-01    0.538E-02
RMM:   6    -0.413168841937E+03   -0.21497E-03   -0.30421E-03  5738   0.541E-02    0.372E-02
RMM:   7    -0.413168829018E+03    0.12919E-04   -0.51211E-04  5689   0.211E-02    0.237E-02
RMM:   8    -0.413168815872E+03    0.13147E-04   -0.74333E-05  5204   0.967E-03    0.111E-02
RMM:   9    -0.413168809988E+03    0.58838E-05   -0.14380E-05  4006   0.428E-03    0.778E-03
RMM:  10    -0.413168806136E+03    0.38519E-05   -0.23833E-06  2600   0.242E-03    0.467E-03
RMM:  11    -0.413168803641E+03    0.24948E-05   -0.11596E-06  2504   0.174E-03    0.276E-03
RMM:  12    -0.413168798396E+03    0.52454E-05   -0.19919E-06  2596   0.210E-03    0.121E-03
RMM:  13    -0.413168794877E+03    0.35189E-05   -0.77277E-07  2440   0.146E-03    0.103E-03
RMM:  14    -0.413168795024E+03   -0.14748E-06   -0.28272E-07  2025   0.937E-04
   16 T=    62. E= -.41286667E+03 F= -.41316880E+03 E0= -.41314660E+03  EK= 0.30212E+00 SP= 0.00E+00 SK= 0.00E+00
       N       E                     dE             d eps       ncg     rms          rms(c)
RMM:   1    -0.413169918828E+03   -0.11240E-02   -0.85411E+00  4296   0.663E-01    0.892E-01
RMM:   2    -0.413173735976E+03   -0.38171E-02   -0.10531E-01  4270   0.886E-02    0.647E-01
RMM:   3    -0.413169950830E+03    0.37851E-02   -0.19344E-02  4886   0.526E-02    0.121E-01
RMM:   4    -0.413199445830E+03   -0.29495E-01   -0.31901E-02  5121   0.149E-01    0.719E-01
RMM:   5    -0.413169102231E+03    0.30344E-01   -0.14431E-02  4787   0.119E-01    0.504E-02
RMM:   6    -0.413169300263E+03   -0.19803E-03   -0.26476E-03  5768   0.495E-02    0.347E-02
RMM:   7    -0.413169288537E+03    0.11726E-04   -0.43402E-04  5637   0.200E-02    0.221E-02
RMM:   8    -0.413169274585E+03    0.13953E-04   -0.67841E-05  5069   0.920E-03    0.108E-02
RMM:   9    -0.413169269753E+03    0.48311E-05   -0.13417E-05  3945   0.418E-03    0.794E-03
RMM:  10    -0.413169267093E+03    0.26608E-05   -0.21644E-06  2581   0.238E-03    0.475E-03
RMM:  11    -0.413169265230E+03    0.18629E-05   -0.12541E-06  2508   0.181E-03    0.267E-03
RMM:  12    -0.413169261889E+03    0.33403E-05   -0.18359E-06  2573   0.205E-03    0.115E-03
RMM:  13    -0.413169259757E+03    0.21329E-05   -0.59796E-07  2386   0.136E-03    0.870E-04
RMM:  14    -0.413169259862E+03   -0.10553E-06   -0.25400E-07  1948   0.882E-04
   17 T=    62. E= -.41286669E+03 F= -.41316926E+03 E0= -.41314710E+03  EK= 0.30257E+00 SP= 0.00E+00 SK= 0.00E+00
       N       E                     dE             d eps       ncg     rms          rms(c)
RMM:   1    -0.413170314903E+03   -0.10551E-02   -0.86284E+00  4295   0.664E-01    0.891E-01
RMM:   2    -0.413174313727E+03   -0.39988E-02   -0.10687E-01  4269   0.880E-02    0.657E-01
RMM:   3    -0.413170562858E+03    0.37509E-02   -0.20830E-02  4903   0.538E-02    0.127E-01
RMM:   4    -0.413200334053E+03   -0.29771E-01   -0.32538E-02  5117   0.151E-01    0.723E-01
RMM:   5    -0.413169607408E+03    0.30727E-01   -0.14637E-02  4790   0.120E-01    0.500E-02
RMM:   6    -0.413169799125E+03   -0.19172E-03   -0.26040E-03  5752   0.496E-02    0.338E-02
RMM:   7    -0.413169795813E+03    0.33114E-05   -0.43250E-04  5639   0.200E-02    0.217E-02
RMM:   8    -0.413169784481E+03    0.11333E-04   -0.67229E-05  5076   0.924E-03    0.104E-02
RMM:   9    -0.413169781408E+03    0.30724E-05   -0.13321E-05  3923   0.415E-03    0.761E-03
RMM:  10    -0.413169781547E+03   -0.13910E-06   -0.20608E-06  2571   0.233E-03
   18 T=    62. E= -.41286665E+03 F= -.41316978E+03 E0= -.41314766E+03  EK= 0.30313E+00 SP= 0.00E+00 SK= 0.00E+00
       N       E                     dE             d eps       ncg     rms          rms(c)
RMM:   1    -0.413171973938E+03   -0.21925E-02   -0.86346E+00  4304   0.674E-01    0.910E-01
RMM:   2    -0.413175199377E+03   -0.32254E-02   -0.10660E-01  4346   0.887E-02    0.656E-01
RMM:   3    -0.413178423486E+03   -0.32241E-02   -0.24663E-02  5135   0.914E-02    0.368E-01
RMM:   4    -0.413192097358E+03   -0.13674E-01   -0.38503E-02  5064   0.168E-01    0.600E-01
RMM:   5    -0.413170953726E+03    0.21144E-01   -0.76058E-03  4653   0.976E-02    0.579E-02
RMM:   6    -0.413170962811E+03   -0.90858E-05   -0.16129E-03  5397   0.398E-02    0.328E-02
RMM:   7    -0.413170963603E+03   -0.79204E-06   -0.31880E-04  5873   0.168E-02    0.193E-02
RMM:   8    -0.413170954294E+03    0.93094E-05   -0.55921E-05  5091   0.881E-03    0.772E-03
RMM:   9    -0.413170948638E+03    0.56560E-05   -0.68411E-06  3202   0.348E-03    0.399E-03
RMM:  10    -0.413170946233E+03    0.24047E-05   -0.15274E-06  2518   0.208E-03    0.249E-03
RMM:  11    -0.413170942682E+03    0.35515E-05   -0.10812E-06  2495   0.168E-03    0.134E-03
RMM:  12    -0.413170939181E+03    0.35009E-05   -0.66296E-07  2449   0.133E-03    0.546E-04
RMM:  13    -0.413170936981E+03    0.22001E-05   -0.33512E-07  2063   0.972E-04    0.316E-04
RMM:  14    -0.413170934904E+03    0.20766E-05   -0.19197E-07  1555   0.764E-04    0.207E-04
RMM:  15    -0.413170931219E+03    0.36846E-05   -0.18069E-07  1440   0.732E-04    0.174E-04
RMM:  16    -0.413170928437E+03    0.27830E-05   -0.12037E-07  1257   0.660E-04    0.152E-04
RMM:  17    -0.413170925380E+03    0.30569E-05   -0.10730E-07  1208   0.641E-04    0.758E-05
RMM:  18    -0.413170923384E+03    0.19959E-05   -0.64766E-08  1015   0.587E-04    0.410E-05
RMM:  19    -0.413170922394E+03    0.99021E-06   -0.33373E-08   807   0.548E-04
   19 T=    62. E= -.41286683E+03 F= -.41317092E+03 E0= -.41314885E+03  EK= 0.30409E+00 SP= 0.00E+00 SK= 0.00E+00
       N       E                     dE             d eps       ncg     rms          rms(c)
RMM:   1    -0.413173535649E+03   -0.26123E-02   -0.86053E+00  4296   0.700E-01    0.899E-01
RMM:   2    -0.413175432535E+03   -0.18969E-02   -0.10928E-01  4268   0.908E-02    0.650E-01
RMM:   3    -0.413172307895E+03    0.31246E-02   -0.19140E-02  4965   0.543E-02    0.142E-01
RMM:   4    -0.413207121757E+03   -0.34814E-01   -0.39134E-02  5118   0.165E-01    0.780E-01
RMM:   5    -0.413171167110E+03    0.35955E-01   -0.17026E-02  4782   0.130E-01    0.537E-02
RMM:   6    -0.413171372801E+03   -0.20569E-03   -0.30003E-03  5730   0.541E-02    0.369E-02
RMM:   7    -0.413171360929E+03    0.11871E-04   -0.50724E-04  5646   0.210E-02    0.234E-02
RMM:   8    -0.413171347435E+03    0.13494E-04   -0.74956E-05  5218   0.973E-03    0.109E-02
RMM:   9    -0.413171341334E+03    0.61014E-05   -0.14671E-05  4055   0.433E-03    0.764E-03
RMM:  10    -0.413171337837E+03    0.34974E-05   -0.22826E-06  2591   0.237E-03    0.465E-03
RMM:  11    -0.413171335712E+03    0.21242E-05   -0.10711E-06  2495   0.169E-03    0.277E-03
RMM:  12    -0.413171331357E+03    0.43550E-05   -0.17622E-06  2560   0.204E-03    0.121E-03
RMM:  13    -0.413171328590E+03    0.27672E-05   -0.71788E-07  2415   0.144E-03    0.997E-04
RMM:  14    -0.413171328666E+03   -0.75670E-07   -0.28009E-07  2039   0.934E-04
   20 T=    62. E= -.41286643E+03 F= -.41317133E+03 E0= -.41314930E+03  EK= 0.30490E+00 SP= 0.00E+00 SK= 0.00E+00
       N       E                     dE             d eps       ncg     rms          rms(c)
RMM:   1    -0.413172996120E+03   -0.16675E-02   -0.86609E+00  4292   0.675E-01    0.892E-01
RMM:   2    -0.413176988909E+03   -0.39928E-02   -0.10756E-01  4280   0.883E-02    0.658E-01
RMM:   3    -0.413173125610E+03    0.38633E-02   -0.20725E-02  4899   0.526E-02    0.121E-01
RMM:   4    -0.413201580863E+03   -0.28455E-01   -0.30837E-02  5115   0.146E-01    0.707E-01
RMM:   5    -0.413172268470E+03    0.29312E-01   -0.14002E-02  4786   0.117E-01    0.494E-02
RMM:   6    -0.413172451897E+03   -0.18343E-03   -0.25520E-03  5782   0.486E-02    0.329E-02
RMM:   7    -0.413172453712E+03   -0.18152E-05   -0.40066E-04  5637   0.193E-02    0.210E-02
RMM:   8    -0.413172444130E+03    0.95825E-05   -0.70188E-05  5049   0.914E-03    0.108E-02
RMM:   9    -0.413172440295E+03    0.38342E-05   -0.13472E-05  3989   0.420E-03    0.791E-03
RMM:  10    -0.413172439663E+03    0.63234E-06   -0.20263E-06  2562   0.231E-03
   21 T=    62. E= -.41286652E+03 F= -.41317244E+03 E0= -.41315045E+03  EK= 0.30592E+00 SP= 0.00E+00 SK= 0.00E+00
       N       E                     dE             d eps       ncg     rms          rms(c)
RMM:   1    -0.413176414852E+03   -0.39746E-02   -0.87139E+00  4300   0.703E-01    0.909E-01
RMM:   2    -0.413178105410E+03   -0.16906E-02   -0.10891E-01  4352   0.892E-02    0.660E-01
RMM:   3    -0.413181098091E+03   -0.29927E-02   -0.24936E-02  5132   0.917E-02    0.369E-01
RMM:   4    -0.413195747187E+03   -0.14649E-01   -0.39979E-02  5069   0.171E-01    0.614E-01
RMM:   5    -0.413173564874E+03    0.22182E-01   -0.80181E-03  4650   0.100E-01    0.576E-02
RMM:   6    -0.413173586141E+03   -0.21267E-04   -0.17005E-03  5420   0.408E-02    0.327E-02
RMM:   7    -0.413173590132E+03   -0.39906E-05   -0.32574E-04  5865   0.169E-02    0.194E-02
RMM:   8    -0.413173582672E+03    0.74602E-05   -0.57186E-05  5088   0.884E-03    0.780E-03
RMM:   9    -0.413173577463E+03    0.52089E-05   -0.70027E-06  3233   0.345E-03    0.407E-03
RMM:  10    -0.413173575177E+03    0.22862E-05   -0.15741E-06  2525   0.208E-03    0.256E-03
RMM:  11    -0.413173571957E+03    0.32200E-05   -0.10389E-06  2486   0.166E-03    0.136E-03
RMM:  12    -0.413173568519E+03    0.34375E-05   -0.66005E-07  2444   0.133E-03    0.523E-04
RMM:  13    -0.413173566451E+03    0.20685E-05   -0.32694E-07  2048   0.965E-04    0.312E-04
RMM:  14    -0.413173564467E+03    0.19831E-05   -0.18348E-07  1551   0.759E-04    0.203E-04
RMM:  15    -0.413173560937E+03    0.35300E-05   -0.15751E-07  1349   0.714E-04    0.160E-04
RMM:  16    -0.413173558247E+03    0.26908E-05   -0.10535E-07  1177   0.652E-04    0.148E-04
RMM:  17    -0.413173555216E+03    0.30309E-05   -0.92644E-08  1175   0.636E-04    0.745E-05
RMM:  18    -0.413173552983E+03    0.22325E-05   -0.59926E-08  1014   0.592E-04    0.360E-05
RMM:  19    -0.413173551853E+03    0.11300E-05   -0.31585E-08   830   0.556E-04    0.261E-05
RMM:  20    -0.413173551462E+03    0.39143E-06   -0.15127E-08   707   0.539E-04
   22 T=    62. E= -.41286661E+03 F= -.41317355E+03 E0= -.41315161E+03  EK= 0.30695E+00 SP= 0.00E+00 SK= 0.00E+00
       N       E                     dE             d eps       ncg     rms          rms(c)
RMM:   1    -0.413175378362E+03   -0.18265E-02   -0.86712E+00  4293   0.693E-01    0.910E-01
RMM:   2    -0.413178750577E+03   -0.33722E-02   -0.10714E-01  4281   0.891E-02    0.654E-01
RMM:   3    -0.413175172385E+03    0.35782E-02   -0.19483E-02  4940   0.549E-02    0.139E-01
RMM:   4    -0.413209307871E+03   -0.34135E-01   -0.38056E-02  5117   0.162E-01    0.772E-01
RMM:   5    -0.413174077800E+03    0.35230E-01   -0.16743E-02  4783   0.128E-01    0.533E-02
RMM:   6    -0.413174281552E+03   -0.20375E-03   -0.29766E-03  5747   0.532E-02    0.371E-02
RMM:   7    -0.413174270501E+03    0.11051E-04   -0.49716E-04  5629   0.212E-02    0.235E-02
RMM:   8    -0.413174256472E+03    0.14029E-04   -0.76248E-05  5209   0.981E-03    0.113E-02
RMM:   9    -0.413174249674E+03    0.67981E-05   -0.14640E-05  4067   0.436E-03    0.795E-03
RMM:  10    -0.413174245025E+03    0.46487E-05   -0.22936E-06  2589   0.241E-03    0.483E-03
RMM:  11    -0.413174241977E+03    0.30477E-05   -0.11644E-06  2504   0.175E-03    0.283E-03
RMM:  12    -0.413174236059E+03    0.59178E-05   -0.18708E-06  2567   0.210E-03    0.122E-03
RMM:  13    -0.413174232499E+03    0.35609E-05   -0.71035E-07  2412   0.145E-03    0.994E-04
RMM:  14    -0.413174232609E+03   -0.11053E-06   -0.28641E-07  2043   0.936E-04
   23 T=    63. E= -.41286644E+03 F= -.41317423E+03 E0= -.41315234E+03  EK= 0.30779E+00 SP= 0.00E+00 SK= 0.00E+00
       N       E                     dE             d eps       ncg     rms          rms(c)
RMM:   1    -0.413176491069E+03   -0.22586E-02   -0.86960E+00  4295   0.693E-01    0.894E-01
RMM:   2    -0.413180732896E+03   -0.42418E-02   -0.10805E-01  4285   0.912E-02    0.658E-01
RMM:   3    -0.413176357044E+03    0.43759E-02   -0.20402E-02  4810   0.534E-02    0.107E-01
RMM:   4    -0.413200510747E+03   -0.24154E-01   -0.25457E-02  5116   0.133E-01    0.652E-01
RMM:   5    -0.413175710287E+03    0.24800E-01   -0.12023E-02  4799   0.108E-01    0.475E-02
RMM:   6    -0.413175858316E+03   -0.14803E-03   -0.21514E-03  5811   0.441E-02    0.303E-02
RMM:   7    -0.413175855927E+03    0.23890E-05   -0.29010E-04  5656   0.172E-02    0.171E-02
RMM:   8    -0.413175849173E+03    0.67545E-05   -0.60035E-05  4993   0.818E-03    0.105E-02
RMM:   9    -0.413175844178E+03    0.49952E-05   -0.11685E-05  3895   0.398E-03    0.775E-03
RMM:  10    -0.413175842560E+03    0.16172E-05   -0.18972E-06  2558   0.227E-03    0.464E-03
RMM:  11    -0.413175841046E+03    0.15143E-05   -0.16013E-06  2528   0.201E-03    0.237E-03
RMM:  12    -0.413175838848E+03    0.21978E-05   -0.14378E-06  2514   0.187E-03    0.101E-03
RMM:  13    -0.413175837893E+03    0.95578E-06   -0.46864E-07  2300   0.121E-03
   24 T=    63. E= -.41286690E+03 F= -.41317584E+03 E0= -.41315399E+03  EK= 0.30893E+00 SP= 0.00E+00 SK= 0.00E+00
       N       E                     dE             d eps       ncg     rms          rms(c)
RMM:   1    -0.413177804303E+03   -0.19655E-02   -0.87616E+00  4296   0.700E-01    0.908E-01
RMM:   2    -0.413181576560E+03   -0.37723E-02   -0.10877E-01  4282   0.927E-02    0.664E-01
RMM:   3    -0.413177286549E+03    0.42900E-02   -0.20358E-02  4779   0.535E-02    0.101E-01
RMM:   4    -0.413199770889E+03   -0.22484E-01   -0.23433E-02  5125   0.128E-01    0.629E-01
RMM:   5    -0.413176727592E+03    0.23043E-01   -0.11172E-02  4799   0.104E-01    0.470E-02
RMM:   6    -0.413176861216E+03   -0.13362E-03   -0.20375E-03  5822   0.426E-02    0.300E-02
RMM:   7    -0.413176856320E+03    0.48963E-05   -0.26406E-04  5630   0.168E-02    0.165E-02
RMM:   8    -0.413176849692E+03    0.66278E-05   -0.54703E-05  4967   0.792E-03    0.104E-02
RMM:   9    -0.413176844384E+03    0.53084E-05   -0.11105E-05  3814   0.388E-03    0.771E-03
RMM:  10    -0.413176841862E+03    0.25214E-05   -0.18015E-06  2547   0.230E-03    0.456E-03
RMM:  11    -0.413176839189E+03    0.26738E-05   -0.16545E-06  2540   0.203E-03    0.234E-03
RMM:  12    -0.413176835688E+03    0.35008E-05   -0.13579E-06  2504   0.185E-03    0.948E-04
RMM:  13    -0.413176834276E+03    0.14114E-05   -0.46427E-07  2283   0.120E-03    0.627E-04
RMM:  14    -0.413176833752E+03    0.52483E-06   -0.21906E-07  1796   0.828E-04
   25 T=    63. E= -.41286683E+03 F= -.41317683E+03 E0= -.41315504E+03  EK= 0.31001E+00 SP= 0.00E+00 SK= 0.00E+00
       N       E                     dE             d eps       ncg     rms          rms(c)
RMM:   1    -0.413179395940E+03   -0.25617E-02   -0.87552E+00  4294   0.711E-01    0.918E-01
RMM:   2    -0.413182548674E+03   -0.31527E-02   -0.10884E-01  4285   0.977E-02    0.659E-01
RMM:   3    -0.413178741165E+03    0.38075E-02   -0.19425E-02  4855   0.546E-02    0.116E-01
RMM:   4    -0.413207858621E+03   -0.29117E-01   -0.30952E-02  5121   0.147E-01    0.713E-01
RMM:   5    -0.413178018008E+03    0.29841E-01   -0.14462E-02  4796   0.118E-01    0.510E-02
RMM:   6    -0.413178185098E+03   -0.16709E-03   -0.26266E-03  5805   0.490E-02    0.361E-02
RMM:   7    -0.413178169080E+03    0.16018E-04   -0.43835E-04  5577   0.205E-02    0.224E-02
RMM:   8    -0.413178153351E+03    0.15729E-04   -0.68514E-05  5078   0.947E-03    0.111E-02
RMM:   9    -0.413178146324E+03    0.70270E-05   -0.13495E-05  3925   0.420E-03    0.801E-03
RMM:  10    -0.413178140577E+03    0.57470E-05   -0.21851E-06  2572   0.241E-03    0.478E-03
RMM:  11    -0.413178136129E+03    0.44485E-05   -0.12791E-06  2519   0.183E-03    0.267E-03
RMM:  12    -0.413178128570E+03    0.75594E-05   -0.17960E-06  2560   0.207E-03    0.115E-03
RMM:  13    -0.413178124209E+03    0.43603E-05   -0.61551E-07  2390   0.138E-03    0.876E-04
RMM:  14    -0.413178124327E+03   -0.11814E-06   -0.27028E-07  1996   0.902E-04
   26 T=    63. E= -.41286674E+03 F= -.41317812E+03 E0= -.41315638E+03  EK= 0.31138E+00 SP= 0.00E+00 SK= 0.00E+00
       N       E                     dE             d eps       ncg     rms          rms(c)
RMM:   1    -0.413181457693E+03   -0.33335E-02   -0.87563E+00  4295   0.723E-01    0.899E-01
RMM:   2    -0.413184474800E+03   -0.30171E-02   -0.10998E-01  4279   0.966E-02    0.659E-01
RMM:   3    -0.413180410420E+03    0.40644E-02   -0.20024E-02  4765   0.540E-02    0.985E-02
RMM:   4    -0.413202338126E+03   -0.21928E-01   -0.22781E-02  5134   0.126E-01    0.622E-01
RMM:   5    -0.413179888803E+03    0.22449E-01   -0.11023E-02  4803   0.103E-01    0.468E-02
RMM:   6    -0.413180007156E+03   -0.11835E-03   -0.19700E-03  5832   0.416E-02    0.298E-02
RMM:   7    -0.413180004369E+03    0.27871E-05   -0.24374E-04  5598   0.161E-02    0.153E-02
RMM:   8    -0.413179999424E+03    0.49456E-05   -0.47442E-05  4951   0.725E-03    0.101E-02
RMM:   9    -0.413179994551E+03    0.48732E-05   -0.10118E-05  3742   0.367E-03    0.748E-03
RMM:  10    -0.413179991994E+03    0.25566E-05   -0.17632E-06  2548   0.227E-03    0.440E-03
RMM:  11    -0.413179989134E+03    0.28601E-05   -0.16564E-06  2541   0.202E-03    0.226E-03
RMM:  12    -0.413179985174E+03    0.39594E-05   -0.13055E-06  2492   0.183E-03    0.939E-04
RMM:  13    -0.413179983752E+03    0.14220E-05   -0.44641E-07  2274   0.118E-03    0.630E-04
RMM:  14    -0.413179983270E+03    0.48283E-06   -0.20881E-07  1768   0.814E-04
   27 T=    64. E= -.41286694E+03 F= -.41317998E+03 E0= -.41315829E+03  EK= 0.31305E+00 SP= 0.00E+00 SK= 0.00E+00
       N       E                     dE             d eps       ncg     rms          rms(c)
RMM:   1    -0.413181882080E+03   -0.18983E-02   -0.88552E+00  4292   0.714E-01    0.909E-01
RMM:   2    -0.413185693761E+03   -0.38117E-02   -0.11087E-01  4281   0.974E-02    0.669E-01
RMM:   3    -0.413181520317E+03    0.41734E-02   -0.21083E-02  4789   0.553E-02    0.106E-01
RMM:   4    -0.413205464052E+03   -0.23944E-01   -0.25072E-02  5131   0.133E-01    0.649E-01
RMM:   5    -0.413180900281E+03    0.24564E-01   -0.12001E-02  4799   0.107E-01    0.478E-02
RMM:   6    -0.413181037048E+03   -0.13677E-03   -0.21713E-03  5828   0.439E-02    0.323E-02
RMM:   7    -0.413181034513E+03    0.25357E-05   -0.33516E-04  5597   0.183E-02    0.193E-02
RMM:   8    -0.413181025798E+03    0.87146E-05   -0.60588E-05  4984   0.862E-03    0.106E-02
RMM:   9    -0.413181020895E+03    0.49034E-05   -0.11591E-05  3829   0.399E-03    0.763E-03
RMM:  10    -0.413181018725E+03    0.21691E-05   -0.19188E-06  2551   0.232E-03    0.444E-03
RMM:  11    -0.413181016887E+03    0.18384E-05   -0.13999E-06  2525   0.190E-03    0.232E-03
RMM:  12    -0.413181014100E+03    0.27874E-05   -0.14891E-06  2522   0.190E-03    0.105E-03
RMM:  13    -0.413181012619E+03    0.14807E-05   -0.50415E-07  2330   0.125E-03    0.668E-04
RMM:  14    -0.413181012195E+03    0.42364E-06   -0.23210E-07  1866   0.846E-04
   28 T=    64. E= -.41286654E+03 F= -.41318101E+03 E0= -.41315936E+03  EK= 0.31448E+00 SP= 0.00E+00 SK= 0.00E+00
       N       E                     dE             d eps       ncg     rms          rms(c)
RMM:   1    -0.413185351753E+03   -0.43391E-02   -0.88744E+00  4293   0.750E-01    0.926E-01
RMM:   2    -0.413187645702E+03   -0.22939E-02   -0.11192E-01  4280   0.101E-01    0.666E-01
RMM:   3    -0.413183295164E+03    0.43505E-02   -0.19594E-02  4633   0.509E-02    0.826E-02
RMM:   4    -0.413196919204E+03   -0.13624E-01   -0.13850E-02  5142   0.986E-02    0.492E-01
RMM:   5    -0.413183051264E+03    0.13868E-01   -0.69724E-03  4827   0.806E-02    0.448E-02
RMM:   6    -0.413183109824E+03   -0.58560E-04   -0.13028E-03  5848   0.333E-02    0.277E-02
RMM:   7    -0.413183105709E+03    0.41148E-05   -0.17672E-04  5474   0.144E-02    0.145E-02
RMM:   8    -0.413183094936E+03    0.10773E-04   -0.28607E-05  4638   0.589E-03    0.850E-03
RMM:   9    -0.413183092531E+03    0.24051E-05   -0.64992E-06  3231   0.309E-03    0.656E-03
RMM:  10    -0.413183087193E+03    0.53385E-05   -0.14808E-06  2511   0.215E-03    0.351E-03
RMM:  11    -0.413183081900E+03    0.52922E-05   -0.12378E-06  2518   0.178E-03    0.185E-03
RMM:  12    -0.413183075907E+03    0.59931E-05   -0.88922E-07  2461   0.153E-03    0.973E-04
RMM:  13    -0.413183073617E+03    0.22904E-05   -0.35655E-07  2169   0.104E-03    0.506E-04
RMM:  14    -0.413183072089E+03    0.15279E-05   -0.17052E-07  1571   0.755E-04    0.368E-04
RMM:  15    -0.413183067649E+03    0.44396E-05   -0.15970E-07  1765   0.757E-04    0.249E-04
RMM:  16    -0.413183063903E+03    0.37467E-05   -0.89589E-08  1280   0.642E-04    0.249E-04
RMM:  17    -0.413183061207E+03    0.26958E-05   -0.43615E-08   873   0.563E-04    0.166E-04
RMM:  18    -0.413183056977E+03    0.42303E-05   -0.56852E-08  1001   0.592E-04    0.406E-05
RMM:  19    -0.413183055797E+03    0.11799E-05   -0.23461E-08   801   0.558E-04    0.532E-05
RMM:  20    -0.413183055338E+03    0.45846E-06   -0.11521E-08   703   0.540E-04
   29 T=    64. E= -.41286679E+03 F= -.41318306E+03 E0= -.41316146E+03  EK= 0.31626E+00 SP= 0.00E+00 SK= 0.00E+00
       N       E                     dE             d eps       ncg     rms          rms(c)
RMM:   1    -0.413191877844E+03   -0.88220E-02   -0.88983E+00  4290   0.784E-01    0.906E-01
RMM:   2    -0.413189871829E+03    0.20060E-02   -0.12353E-01  4275   0.110E-01    0.664E-01
RMM:   3    -0.413185036511E+03    0.48353E-02   -0.18460E-02  4543   0.548E-02    0.796E-02
RMM:   4    -0.413195927541E+03   -0.10891E-01   -0.11034E-02  5137   0.882E-02    0.441E-01
RMM:   5    -0.413184875879E+03    0.11052E-01   -0.56121E-03  4824   0.722E-02    0.432E-02
RMM:   6    -0.413184925470E+03   -0.49591E-04   -0.10835E-03  5833   0.304E-02    0.273E-02
RMM:   7    -0.413184925772E+03   -0.30188E-06   -0.22181E-04  5422   0.155E-02    0.173E-02
RMM:   8    -0.413184909944E+03    0.15828E-04   -0.29312E-05  4660   0.649E-03    0.823E-03
RMM:   9    -0.413184908220E+03    0.17240E-05   -0.54450E-06  3004   0.293E-03    0.588E-03
RMM:  10    -0.413184905294E+03    0.29253E-05   -0.16149E-06  2504   0.210E-03    0.317E-03
RMM:  11    -0.413184902594E+03    0.27003E-05   -0.10559E-06  2487   0.170E-03    0.163E-03
RMM:  12    -0.413184899672E+03    0.29219E-05   -0.68957E-07  2412   0.137E-03    0.898E-04
RMM:  13    -0.413184898094E+03    0.15776E-05   -0.31318E-07  2053   0.964E-04    0.386E-04
RMM:  14    -0.413184896654E+03    0.14404E-05   -0.16746E-07  1529   0.743E-04    0.243E-04
RMM:  15    -0.413184894030E+03    0.26240E-05   -0.11284E-07  1314   0.683E-04    0.126E-04
RMM:  16    -0.413184891516E+03    0.25138E-05   -0.74333E-08  1083   0.637E-04    0.102E-04
RMM:  17    -0.413184889942E+03    0.15739E-05   -0.39922E-08   875   0.588E-04    0.653E-05
RMM:  18    -0.413184886521E+03    0.34212E-05   -0.58783E-08  1042   0.614E-04    0.301E-05
RMM:  19    -0.413184885700E+03    0.82065E-06   -0.22788E-08   783   0.560E-04
   30 T=    65. E= -.41286680E+03 F= -.41318489E+03 E0= -.41316334E+03  EK= 0.31809E+00 SP= 0.00E+00 SK= 0.00E+00
       N       E                     dE             d eps       ncg     rms          rms(c)
RMM:   1    -0.413187405790E+03   -0.25193E-02   -0.89614E+00  4293   0.745E-01    0.912E-01
RMM:   2    -0.413191943898E+03   -0.45381E-02   -0.11330E-01  4276   0.109E-01    0.674E-01
RMM:   3    -0.413186862916E+03    0.50810E-02   -0.21676E-02  4592   0.617E-02    0.851E-02
RMM:   4    -0.413200681519E+03   -0.13819E-01   -0.13992E-02  5141   0.999E-02    0.497E-01
RMM:   5    -0.413186528317E+03    0.14153E-01   -0.70602E-03  4822   0.813E-02    0.438E-02
RMM:   6    -0.413186598145E+03   -0.69828E-04   -0.13125E-03  5843   0.336E-02    0.274E-02
RMM:   7    -0.413186604525E+03   -0.63801E-05   -0.21108E-04  5470   0.151E-02    0.162E-02
RMM:   8    -0.413186592088E+03    0.12437E-04   -0.33417E-05  4744   0.654E-03    0.854E-03
RMM:   9    -0.413186591475E+03    0.61287E-06   -0.67905E-06  3228   0.320E-03
   31 T=    65. E= -.41286665E+03 F= -.41318659E+03 E0= -.41316509E+03  EK= 0.31994E+00 SP= 0.00E+00 SK= 0.00E+00
       N       E                     dE             d eps       ncg     rms          rms(c)
RMM:   1    -0.413195126390E+03   -0.85343E-02   -0.90332E+00  4295   0.825E-01    0.933E-01
RMM:   2    -0.413194243256E+03    0.88313E-03   -0.11800E-01  4306   0.118E-01    0.673E-01
RMM:   3    -0.413192771088E+03    0.14722E-02   -0.22274E-02  5016   0.870E-02    0.259E-01
RMM:   4    -0.413224845623E+03   -0.32075E-01   -0.46336E-02  5084   0.182E-01    0.775E-01
RMM:   5    -0.413189055486E+03    0.35790E-01   -0.15215E-02  4743   0.127E-01    0.580E-02
RMM:   6    -0.413189209433E+03   -0.15395E-03   -0.30382E-03  5745   0.527E-02    0.372E-02
RMM:   7    -0.413189210404E+03   -0.97120E-06   -0.48774E-04  5693   0.205E-02    0.241E-02
RMM:   8    -0.413189201223E+03    0.91815E-05   -0.87711E-05  5194   0.106E-02    0.112E-02
RMM:   9    -0.413189192111E+03    0.91121E-05   -0.13497E-05  3956   0.453E-03    0.612E-03
RMM:  10    -0.413189186587E+03    0.55241E-05   -0.28568E-06  2669   0.253E-03    0.388E-03
RMM:  11    -0.413189182041E+03    0.45452E-05   -0.11563E-06  2499   0.179E-03    0.211E-03
RMM:  12    -0.413189174157E+03    0.78848E-05   -0.11853E-06  2488   0.175E-03    0.814E-04
RMM:  13    -0.413189169985E+03    0.41721E-05   -0.57679E-07  2366   0.127E-03    0.541E-04
RMM:  14    -0.413189168541E+03    0.14434E-05   -0.28252E-07  1988   0.907E-04    0.405E-04
RMM:  15    -0.413189166099E+03    0.24424E-05   -0.15004E-07  1458   0.722E-04    0.211E-04
RMM:  16    -0.413189160123E+03    0.59758E-05   -0.14971E-07  1610   0.736E-04    0.292E-04
RMM:  17    -0.413189156756E+03    0.33667E-05   -0.75907E-08  1051   0.610E-04    0.227E-04
RMM:  18    -0.413189151862E+03    0.48948E-05   -0.80004E-08  1163   0.621E-04    0.126E-04
RMM:  19    -0.413189150083E+03    0.17786E-05   -0.48942E-08   990   0.578E-04    0.461E-05
RMM:  20    -0.413189149123E+03    0.95987E-06   -0.27185E-08   836   0.555E-04
   32 T=    66. E= -.41286697E+03 F= -.41318915E+03 E0= -.41316770E+03  EK= 0.32218E+00 SP= 0.00E+00 SK= 0.00E+00
       N       E                     dE             d eps       ncg     rms          rms(c)
RMM:   1    -0.413203654309E+03   -0.14504E-01   -0.90792E+00  4298   0.876E-01    0.920E-01
RMM:   2    -0.413195849645E+03    0.78047E-02   -0.12531E-01  4281   0.122E-01    0.670E-01
RMM:   3    -0.413191164764E+03    0.46849E-02   -0.19176E-02  4406   0.653E-02    0.729E-02
RMM:   4    -0.413196463782E+03   -0.52990E-02   -0.55016E-03  5151   0.624E-02    0.310E-01
RMM:   5    -0.413191098550E+03    0.53652E-02   -0.27713E-03  4831   0.511E-02    0.425E-02
RMM:   6    -0.413191141396E+03   -0.42846E-04   -0.77966E-04  5710   0.258E-02    0.303E-02
RMM:   7    -0.413191116845E+03    0.24551E-04   -0.25360E-04  5208   0.164E-02    0.186E-02
RMM:   8    -0.413191104240E+03    0.12605E-04   -0.22582E-05  4404   0.594E-03    0.767E-03
RMM:   9    -0.413191102024E+03    0.22160E-05   -0.30663E-06  2677   0.237E-03    0.506E-03
RMM:  10    -0.413191097994E+03    0.40294E-05   -0.13442E-06  2492   0.190E-03    0.268E-03
RMM:  11    -0.413191094226E+03    0.37689E-05   -0.87820E-07  2446   0.151E-03    0.127E-03
RMM:  12    -0.413191090592E+03    0.36332E-05   -0.49488E-07  2266   0.116E-03    0.572E-04
RMM:  13    -0.413191088161E+03    0.24314E-05   -0.26820E-07  1880   0.873E-04    0.291E-04
RMM:  14    -0.413191085350E+03    0.28114E-05   -0.13556E-07  1312   0.700E-04    0.199E-04
RMM:  15    -0.413191081568E+03    0.37813E-05   -0.91009E-08  1126   0.649E-04    0.101E-04
RMM:  16    -0.413191078788E+03    0.27805E-05   -0.57965E-08   973   0.615E-04    0.692E-05
RMM:  17    -0.413191075480E+03    0.33074E-05   -0.55731E-08  1073   0.610E-04    0.522E-05
RMM:  18    -0.413191072957E+03    0.25233E-05   -0.41497E-08   994   0.584E-04    0.418E-05
RMM:  19    -0.413191072268E+03    0.68900E-06   -0.16428E-08   713   0.537E-04
   33 T=    66. E= -.41286676E+03 F= -.41319107E+03 E0= -.41316967E+03  EK= 0.32431E+00 SP= 0.00E+00 SK= 0.00E+00
       N       E                     dE             d eps       ncg     rms          rms(c)
RMM:   1    -0.413194595570E+03   -0.35226E-02   -0.90809E+00  4302   0.785E-01    0.918E-01
RMM:   2    -0.413198438144E+03   -0.38426E-02   -0.11709E-01  4278   0.121E-01    0.679E-01
RMM:   3    -0.413193616020E+03    0.48221E-02   -0.21926E-02  4411   0.715E-02    0.689E-02
RMM:   4    -0.413198815798E+03   -0.51998E-02   -0.53117E-03  5150   0.622E-02    0.309E-01
RMM:   5    -0.413193471289E+03    0.53445E-02   -0.27326E-03  4828   0.508E-02    0.415E-02
RMM:   6    -0.413193516136E+03   -0.44847E-04   -0.77135E-04  5691   0.257E-02    0.297E-02
RMM:   7    -0.413193499227E+03    0.16908E-04   -0.25157E-04  5204   0.164E-02    0.188E-02
RMM:   8    -0.413193486862E+03    0.12366E-04   -0.22615E-05  4363   0.585E-03    0.763E-03
RMM:   9    -0.413193485664E+03    0.11971E-05   -0.30331E-06  2674   0.235E-03    0.497E-03
RMM:  10    -0.413193484068E+03    0.15966E-05   -0.13819E-06  2486   0.191E-03    0.259E-03
RMM:  11    -0.413193482753E+03    0.13146E-05   -0.87980E-07  2442   0.150E-03    0.124E-03
RMM:  12    -0.413193481099E+03    0.16541E-05   -0.50431E-07  2250   0.116E-03    0.553E-04
RMM:  13    -0.413193479765E+03    0.13339E-05   -0.26524E-07  1848   0.865E-04    0.293E-04
RMM:  14    -0.413193477989E+03    0.17762E-05   -0.13689E-07  1274   0.699E-04    0.211E-04
RMM:  15    -0.413193475388E+03    0.26013E-05   -0.97149E-08  1128   0.656E-04    0.102E-04
RMM:  16    -0.413193473505E+03    0.18826E-05   -0.61470E-08   997   0.618E-04    0.694E-05
RMM:  17    -0.413193470886E+03    0.26188E-05   -0.53148E-08   971   0.603E-04    0.393E-05
RMM:  18    -0.413193468996E+03    0.18898E-05   -0.38618E-08   932   0.580E-04    0.331E-05
RMM:  19    -0.413193468284E+03    0.71239E-06   -0.15976E-08   701   0.542E-04
   34 T=    67. E= -.41286682E+03 F= -.41319347E+03 E0= -.41317212E+03  EK= 0.32665E+00 SP= 0.00E+00 SK= 0.00E+00
       N       E                     dE             d eps       ncg     rms          rms(c)
RMM:   1    -0.413201134217E+03   -0.76652E-02   -0.91668E+00  4301   0.850E-01    0.937E-01
RMM:   2    -0.413200768159E+03    0.36606E-03   -0.12386E-01  4268   0.128E-01    0.682E-01
RMM:   3    -0.413196197057E+03    0.45711E-02   -0.20363E-02  4264   0.727E-02    0.623E-02
RMM:   4    -0.413196218003E+03   -0.20945E-04   -0.36344E-04  4962   0.121E-02    0.437E-02
RMM:   5    -0.413196464013E+03   -0.24601E-03   -0.34284E-04  5089   0.167E-02    0.772E-02
RMM:   6    -0.413196239911E+03    0.22410E-03   -0.43033E-04  5194   0.201E-02    0.328E-02
RMM:   7    -0.413196180456E+03    0.59455E-04   -0.19675E-04  4915   0.154E-02    0.134E-02
RMM:   8    -0.413196178073E+03    0.23840E-05   -0.29517E-05  4712   0.557E-03    0.502E-03
RMM:   9    -0.413196176657E+03    0.14150E-05   -0.41279E-06  2543   0.219E-03    0.218E-03
RMM:  10    -0.413196171526E+03    0.51312E-05   -0.10338E-06  2408   0.152E-03    0.851E-04
RMM:  11    -0.413196168120E+03    0.34058E-05   -0.35240E-07  1869   0.941E-04    0.557E-04
RMM:  12    -0.413196164028E+03    0.40922E-05   -0.19090E-07  1475   0.761E-04    0.398E-04
RMM:  13    -0.413196161049E+03    0.29790E-05   -0.99634E-08  1121   0.653E-04    0.268E-04
RMM:  14    -0.413196155656E+03    0.53933E-05   -0.13615E-07  1363   0.697E-04    0.241E-04
RMM:  15    -0.413196153290E+03    0.23655E-05   -0.48244E-08   789   0.590E-04    0.168E-04
RMM:  16    -0.413196150020E+03    0.32706E-05   -0.37862E-08   822   0.581E-04    0.806E-05
RMM:  17    -0.413196147343E+03    0.26772E-05   -0.35567E-08   870   0.575E-04    0.719E-05
RMM:  18    -0.413196146788E+03    0.55460E-06   -0.12303E-08   588   0.522E-04
   35 T=    67. E= -.41286697E+03 F= -.41319615E+03 E0= -.41317484E+03  EK= 0.32918E+00 SP= 0.00E+00 SK= 0.00E+00
       N       E                     dE             d eps       ncg     rms          rms(c)
RMM:   1    -0.413207322827E+03   -0.11175E-01   -0.92031E+00  4301   0.908E-01    0.937E-01
RMM:   2    -0.413202753144E+03    0.45697E-02   -0.12454E-01  4263   0.134E-01    0.677E-01
RMM:   3    -0.413198355229E+03    0.43979E-02   -0.20023E-02  4348   0.729E-02    0.697E-02
RMM:   4    -0.413201029122E+03   -0.26739E-02   -0.29247E-03  5180   0.460E-02    0.223E-01
RMM:   5    -0.413198338158E+03    0.26910E-02   -0.14690E-03  4831   0.375E-02    0.430E-02
RMM:   6    -0.413198375075E+03   -0.36917E-04   -0.60989E-04  5526   0.245E-02    0.333E-02
RMM:   7    -0.413198337758E+03    0.37317E-04   -0.25324E-04  5002   0.169E-02    0.189E-02
RMM:   8    -0.413198328704E+03    0.90536E-05   -0.31630E-05  4889   0.619E-03    0.778E-03
RMM:   9    -0.413198326701E+03    0.20030E-05   -0.41417E-06  2660   0.239E-03    0.391E-03
RMM:  10    -0.413198321884E+03    0.48173E-05   -0.11015E-06  2470   0.176E-03    0.224E-03
RMM:  11    -0.413198317040E+03    0.48435E-05   -0.67224E-07  2376   0.127E-03    0.879E-04
RMM:  12    -0.413198312684E+03    0.43566E-05   -0.34114E-07  2007   0.964E-04    0.353E-04
RMM:  13    -0.413198308477E+03    0.42063E-05   -0.19390E-07  1539   0.784E-04    0.254E-04
RMM:  14    -0.413198305113E+03    0.33638E-05   -0.96035E-08  1051   0.659E-04    0.183E-04
RMM:  15    -0.413198299989E+03    0.51243E-05   -0.81649E-08  1066   0.649E-04    0.836E-05
RMM:  16    -0.413198295786E+03    0.42028E-05   -0.67239E-08  1092   0.627E-04    0.916E-05
RMM:  17    -0.413198293660E+03    0.21261E-05   -0.33345E-08   814   0.567E-04    0.478E-05
RMM:  18    -0.413198290816E+03    0.28445E-05   -0.34048E-08   868   0.572E-04    0.326E-05
RMM:  19    -0.413198290353E+03    0.46282E-06   -0.11474E-08   566   0.524E-04
   36 T=    68. E= -.41286672E+03 F= -.41319829E+03 E0= -.41317703E+03  EK= 0.33157E+00 SP= 0.00E+00 SK= 0.00E+00
       N       E                     dE             d eps       ncg     rms          rms(c)
RMM:   1    -0.413203813947E+03   -0.55231E-02   -0.92197E+00  4310   0.865E-01    0.926E-01
RMM:   2    -0.413206349626E+03   -0.25357E-02   -0.12158E-01  4263   0.128E-01    0.684E-01
RMM:   3    -0.413201345511E+03    0.50041E-02   -0.21797E-02  4476   0.705E-02    0.721E-02
RMM:   4    -0.413209434097E+03   -0.80886E-02   -0.82085E-03  5156   0.768E-02    0.384E-01
RMM:   5    -0.413201186013E+03    0.82481E-02   -0.42120E-03  4827   0.635E-02    0.436E-02
RMM:   6    -0.413201211955E+03   -0.25943E-04   -0.98680E-04  5714   0.302E-02    0.315E-02
RMM:   7    -0.413201203151E+03    0.88043E-05   -0.30664E-04  5264   0.177E-02    0.199E-02
RMM:   8    -0.413201188878E+03    0.14273E-04   -0.33563E-05  4892   0.688E-03    0.900E-03
RMM:   9    -0.413201187465E+03    0.14132E-05   -0.51011E-06  2874   0.278E-03    0.534E-03
RMM:  10    -0.413201185480E+03    0.19848E-05   -0.16351E-06  2527   0.211E-03    0.283E-03
RMM:  11    -0.413201183216E+03    0.22641E-05   -0.10336E-06  2473   0.165E-03    0.139E-03
RMM:  12    -0.413201180858E+03    0.23581E-05   -0.61232E-07  2356   0.127E-03    0.689E-04
RMM:  13    -0.413201179075E+03    0.17833E-05   -0.31805E-07  1968   0.932E-04    0.334E-04
RMM:  14    -0.413201177201E+03    0.18737E-05   -0.16337E-07  1444   0.731E-04    0.215E-04
RMM:  15    -0.413201174353E+03    0.28482E-05   -0.10145E-07  1129   0.660E-04    0.122E-04
RMM:  16    -0.413201171781E+03    0.25720E-05   -0.71600E-08  1026   0.632E-04    0.750E-05
RMM:  17    -0.413201169952E+03    0.18286E-05   -0.41513E-08   868   0.598E-04    0.476E-05
RMM:  18    -0.413201166546E+03    0.34061E-05   -0.52731E-08  1082   0.617E-04    0.295E-05
RMM:  19    -0.413201165756E+03    0.79015E-06   -0.21879E-08   763   0.551E-04
   37 T=    68. E= -.41286696E+03 F= -.41320117E+03 E0= -.41317995E+03  EK= 0.33421E+00 SP= 0.00E+00 SK= 0.00E+00
       N       E                     dE             d eps       ncg     rms          rms(c)
RMM:   1    -0.413215083637E+03   -0.13917E-01   -0.93921E+00  4309   0.955E-01    0.944E-01
RMM:   2    -0.413209135416E+03    0.59482E-02   -0.12595E-01  4260   0.126E-01    0.690E-01
RMM:   3    -0.413204188456E+03    0.49470E-02   -0.21420E-02  4697   0.671E-02    0.102E-01
RMM:   4    -0.413229234319E+03   -0.25046E-01   -0.25773E-02  5135   0.135E-01    0.664E-01
RMM:   5    -0.413203729316E+03    0.25505E-01   -0.12770E-02  4814   0.110E-01    0.499E-02
RMM:   6    -0.413203769886E+03   -0.40571E-04   -0.21831E-03  5831   0.445E-02    0.327E-02
RMM:   7    -0.413203785457E+03   -0.15571E-04   -0.35060E-04  5580   0.184E-02    0.196E-02
RMM:   8    -0.413203771755E+03    0.13702E-04   -0.59963E-05  5056   0.845E-03    0.105E-02
RMM:   9    -0.413203770438E+03    0.13173E-05   -0.13874E-05  4096   0.442E-03    0.716E-03
RMM:  10    -0.413203766721E+03    0.37166E-05   -0.22104E-06  2620   0.246E-03    0.396E-03
RMM:  11    -0.413203764303E+03    0.24179E-05   -0.10508E-06  2493   0.170E-03    0.237E-03
RMM:  12    -0.413203758901E+03    0.54024E-05   -0.15353E-06  2525   0.196E-03    0.127E-03
RMM:  13    -0.413203756029E+03    0.28720E-05   -0.55318E-07  2357   0.131E-03    0.744E-04
RMM:  14    -0.413203755380E+03    0.64848E-06   -0.23637E-07  1915   0.862E-04
   38 T=    69. E= -.41286695E+03 F= -.41320376E+03 E0= -.41318258E+03  EK= 0.33681E+00 SP= 0.00E+00 SK= 0.00E+00
       N       E                     dE             d eps       ncg     rms          rms(c)
RMM:   1    -0.413215676896E+03   -0.11921E-01   -0.93812E+00  4309   0.993E-01    0.953E-01
RMM:   2    -0.413211716523E+03    0.39604E-02   -0.13063E-01  4263   0.127E-01    0.687E-01
RMM:   3    -0.413206936688E+03    0.47798E-02   -0.20186E-02  4848   0.628E-02    0.128E-01
RMM:   4    -0.413241930517E+03   -0.34994E-01   -0.36987E-02  5130   0.161E-01    0.780E-01
RMM:   5    -0.413206230330E+03    0.35700E-01   -0.17651E-02  4798   0.130E-01    0.544E-02
RMM:   6    -0.413206314716E+03   -0.84387E-04   -0.30202E-03  5816   0.518E-02    0.355E-02
RMM:   7    -0.413206323272E+03   -0.85555E-05   -0.39695E-04  5635   0.191E-02    0.191E-02
RMM:   8    -0.413206311762E+03    0.11510E-04   -0.56321E-05  4994   0.790E-03    0.105E-02
RMM:   9    -0.413206310088E+03    0.16743E-05   -0.20624E-05  4517   0.482E-03    0.818E-03
RMM:  10    -0.413206302487E+03    0.76004E-05   -0.30446E-06  2700   0.279E-03    0.450E-03
RMM:  11    -0.413206298389E+03    0.40985E-05   -0.14335E-06  2505   0.195E-03    0.275E-03
RMM:  12    -0.413206288436E+03    0.99523E-05   -0.19441E-06  2547   0.223E-03    0.135E-03
RMM:  13    -0.413206283954E+03    0.44828E-05   -0.69582E-07  2423   0.149E-03    0.871E-04
RMM:  14    -0.413206283292E+03    0.66177E-06   -0.27942E-07  2089   0.949E-04
   39 T=    69. E= -.41286682E+03 F= -.41320628E+03 E0= -.41318515E+03  EK= 0.33946E+00 SP= 0.00E+00 SK= 0.00E+00
       N       E                     dE             d eps       ncg     rms          rms(c)
RMM:   1    -0.413219983281E+03   -0.13699E-01   -0.94293E+00  4309   0.102E+00    0.936E-01
RMM:   2    -0.413215192313E+03    0.47910E-02   -0.12934E-01  4263   0.127E-01    0.689E-01
RMM:   3    -0.413210421672E+03    0.47706E-02   -0.21609E-02  4893   0.682E-02    0.144E-01
RMM:   4    -0.413250236609E+03   -0.39815E-01   -0.43726E-02  5137   0.175E-01    0.832E-01
RMM:   5    -0.413209310245E+03    0.40926E-01   -0.19923E-02  4798   0.138E-01    0.557E-02
RMM:   6    -0.413209419808E+03   -0.10956E-03   -0.33847E-03  5819   0.547E-02    0.353E-02
RMM:   7    -0.413209431216E+03   -0.11408E-04   -0.41113E-04  5650   0.192E-02    0.186E-02
RMM:   8    -0.413209424414E+03    0.68028E-05   -0.47987E-05  4733   0.704E-03    0.938E-03
RMM:   9    -0.413209420934E+03    0.34795E-05   -0.98220E-06  3303   0.346E-03    0.564E-03
RMM:  10    -0.413209418052E+03    0.28825E-05   -0.20165E-06  2566   0.215E-03    0.383E-03
RMM:  11    -0.413209414073E+03    0.39785E-05   -0.16831E-06  2514   0.208E-03    0.218E-03
RMM:  12    -0.413209407604E+03    0.64689E-05   -0.14501E-06  2508   0.195E-03    0.108E-03
RMM:  13    -0.413209405411E+03    0.21927E-05   -0.50431E-07  2355   0.127E-03    0.749E-04
RMM:  14    -0.413209404731E+03    0.68040E-06   -0.22690E-07  1894   0.850E-04
   40 T=    70. E= -.41286712E+03 F= -.41320940E+03 E0= -.41318830E+03  EK= 0.34228E+00 SP= 0.00E+00 SK= 0.00E+00
       N       E                     dE             d eps       ncg     rms          rms(c)
RMM:   1    -0.413216521185E+03   -0.71158E-02   -0.94940E+00  4307   0.102E+00    0.949E-01
RMM:   2    -0.413217506076E+03   -0.98489E-03   -0.13117E-01  4267   0.133E-01    0.700E-01
RMM:   3    -0.413213225536E+03    0.42805E-02   -0.22750E-02  4962   0.728E-02    0.179E-01
RMM:   4    -0.413257927401E+03   -0.44702E-01   -0.51956E-02  5124   0.191E-01    0.884E-01
RMM:   5    -0.413211440388E+03    0.46487E-01   -0.22026E-02  4783   0.147E-01    0.588E-02
RMM:   6    -0.413211574879E+03   -0.13449E-03   -0.37801E-03  5817   0.577E-02    0.362E-02
RMM:   7    -0.413211586188E+03   -0.11309E-04   -0.46678E-04  5723   0.201E-02    0.201E-02
RMM:   8    -0.413211588700E+03   -0.25122E-05   -0.90238E-05  5196   0.947E-03    0.127E-02
RMM:   9    -0.413211579671E+03    0.90290E-05   -0.24017E-05  4586   0.541E-03    0.749E-03
RMM:  10    -0.413211576376E+03    0.32950E-05   -0.39618E-06  2773   0.294E-03    0.446E-03
RMM:  11    -0.413211573800E+03    0.25756E-05   -0.14807E-06  2505   0.203E-03    0.270E-03
RMM:  12    -0.413211567657E+03    0.61431E-05   -0.16122E-06  2522   0.206E-03    0.112E-03
RMM:  13    -0.413211563495E+03    0.41622E-05   -0.71306E-07  2435   0.144E-03    0.760E-04
RMM:  14    -0.413211562775E+03    0.72030E-06   -0.29852E-07  2103   0.959E-04
   41 T=    70. E= -.41286678E+03 F= -.41321156E+03 E0= -.41319050E+03  EK= 0.34478E+00 SP= 0.00E+00 SK= 0.00E+00
       N       E                     dE             d eps       ncg     rms          rms(c)
RMM:   1    -0.413239845060E+03   -0.28282E-01   -0.97047E+00  4311   0.120E+00    0.967E-01
RMM:   2    -0.413219720473E+03    0.20125E-01   -0.14831E-01  4297   0.135E-01    0.698E-01
RMM:   3    -0.413216652619E+03    0.30679E-02   -0.20529E-02  5035   0.736E-02    0.230E-01
RMM:   4    -0.413262888304E+03   -0.46236E-01   -0.57790E-02  5115   0.202E-01    0.905E-01
RMM:   5    -0.413214093953E+03    0.48794E-01   -0.22555E-02  4771   0.150E-01    0.627E-02
RMM:   6    -0.413214230753E+03   -0.13680E-03   -0.39447E-03  5791   0.592E-02    0.386E-02
RMM:   7    -0.413214241125E+03   -0.10371E-04   -0.52434E-04  5728   0.214E-02    0.235E-02
RMM:   8    -0.413214239655E+03    0.14697E-05   -0.13189E-04  5241   0.117E-02    0.146E-02
RMM:   9    -0.413214224766E+03    0.14889E-04   -0.24810E-05  4606   0.604E-03    0.689E-03
RMM:  10    -0.413214219187E+03    0.55785E-05   -0.53669E-06  3013   0.304E-03    0.424E-03
RMM:  11    -0.413214214710E+03    0.44775E-05   -0.13765E-06  2507   0.200E-03    0.248E-03
RMM:  12    -0.413214205634E+03    0.90760E-05   -0.12692E-06  2489   0.189E-03    0.101E-03
RMM:  13    -0.413214199537E+03    0.60961E-05   -0.60111E-07  2398   0.135E-03    0.615E-04
RMM:  14    -0.413214198394E+03    0.11438E-05   -0.28055E-07  2048   0.933E-04    0.413E-04
RMM:  15    -0.413214195998E+03    0.23959E-05   -0.14383E-07  1524   0.728E-04    0.260E-04
RMM:  16    -0.413214187997E+03    0.80013E-05   -0.14205E-07  1668   0.749E-04    0.334E-04
RMM:  17    -0.413214186241E+03    0.17552E-05   -0.53945E-08   971   0.584E-04    0.229E-04
RMM:  18    -0.413214180241E+03    0.60007E-05   -0.67829E-08  1279   0.633E-04    0.165E-04
RMM:  19    -0.413214178562E+03    0.16788E-05   -0.32294E-08   901   0.557E-04    0.557E-05
RMM:  20    -0.413214176723E+03    0.18383E-05   -0.35701E-08  1049   0.579E-04    0.109E-04
RMM:  21    -0.413214176640E+03    0.83019E-07   -0.12392E-08   691   0.522E-04
   42 T=    71. E= -.41286693E+03 F= -.41321418E+03 E0= -.41319314E+03  EK= 0.34724E+00 SP= 0.00E+00 SK= 0.00E+00
       N       E                     dE             d eps       ncg     rms          rms(c)
RMM:   1    -0.413233577867E+03   -0.19401E-01   -0.95974E+00  4311   0.120E+00    0.946E-01
RMM:   2    -0.413221879065E+03    0.11699E-01   -0.14368E-01  4316   0.141E-01    0.696E-01
RMM:   3    -0.413220265298E+03    0.16138E-02   -0.22571E-02  5063   0.846E-02    0.277E-01
RMM:   4    -0.413259200439E+03   -0.38935E-01   -0.55908E-02  5096   0.200E-01    0.849E-01
RMM:   5    -0.413216234728E+03    0.42966E-01   -0.18698E-02  4751   0.140E-01    0.617E-02
RMM:   6    -0.413216328957E+03   -0.94229E-04   -0.34358E-03  5768   0.552E-02    0.373E-02
RMM:   7    -0.413216334521E+03   -0.55640E-05   -0.50882E-04  5713   0.210E-02    0.241E-02
RMM:   8    -0.413216330793E+03    0.37283E-05   -0.12633E-04  5205   0.118E-02    0.133E-02
RMM:   9    -0.413216319672E+03    0.11121E-04   -0.19382E-05  4379   0.562E-03    0.592E-03
RMM:  10    -0.413216316354E+03    0.33184E-05   -0.44530E-06  2872   0.277E-03    0.370E-03
RMM:  11    -0.413216313532E+03    0.28219E-05   -0.12651E-06  2500   0.189E-03    0.206E-03
RMM:  12    -0.413216308061E+03    0.54713E-05   -0.10550E-06  2482   0.171E-03    0.838E-04
RMM:  13    -0.413216304383E+03    0.36774E-05   -0.50644E-07  2339   0.122E-03    0.451E-04
RMM:  14    -0.413216303178E+03    0.12053E-05   -0.24866E-07  1906   0.873E-04    0.309E-04
RMM:  15    -0.413216300581E+03    0.25973E-05   -0.13829E-07  1444   0.715E-04    0.152E-04
RMM:  16    -0.413216296538E+03    0.40425E-05   -0.98965E-08  1240   0.675E-04    0.139E-04
RMM:  17    -0.413216294282E+03    0.22557E-05   -0.58820E-08  1036   0.622E-04    0.894E-05
RMM:  18    -0.413216291470E+03    0.28126E-05   -0.52257E-08  1111   0.619E-04    0.649E-05
RMM:  19    -0.413216288875E+03    0.25947E-05   -0.39003E-08  1017   0.594E-04    0.358E-05
RMM:  20    -0.413216288034E+03    0.84124E-06   -0.21787E-08   824   0.554E-04
   43 T=    71. E= -.41286699E+03 F= -.41321629E+03 E0= -.41319528E+03  EK= 0.34930E+00 SP= 0.00E+00 SK= 0.00E+00
       N       E                     dE             d eps       ncg     rms          rms(c)
RMM:   1    -0.413229319056E+03   -0.13030E-01   -0.96509E+00  4314   0.122E+00    0.950E-01
RMM:   2    -0.413223437298E+03    0.58818E-02   -0.14539E-01  4324   0.150E-01    0.708E-01
RMM:   3    -0.413222504504E+03    0.93279E-03   -0.24670E-02  5059   0.926E-02    0.306E-01
RMM:   4    -0.413259213582E+03   -0.36709E-01   -0.56890E-02  5092   0.203E-01    0.837E-01
RMM:   5    -0.413217437412E+03    0.41776E-01   -0.17677E-02  4732   0.138E-01    0.617E-02
RMM:   6    -0.413217513332E+03   -0.75920E-04   -0.32929E-03  5753   0.541E-02    0.361E-02
RMM:   7    -0.413217519692E+03   -0.63604E-05   -0.48716E-04  5719   0.207E-02    0.236E-02
RMM:   8    -0.413217517325E+03    0.23672E-05   -0.12532E-04  5193   0.118E-02    0.128E-02
RMM:   9    -0.413217508227E+03    0.90981E-05   -0.18634E-05  4339   0.558E-03    0.546E-03
RMM:  10    -0.413217506243E+03    0.19838E-05   -0.42583E-06  2839   0.270E-03    0.343E-03
RMM:  11    -0.413217504124E+03    0.21192E-05   -0.12591E-06  2498   0.186E-03    0.187E-03
RMM:  12    -0.413217500219E+03    0.39049E-05   -0.99775E-07  2482   0.162E-03    0.776E-04
RMM:  13    -0.413217497505E+03    0.27144E-05   -0.47482E-07  2264   0.116E-03    0.380E-04
RMM:  14    -0.413217496128E+03    0.13769E-05   -0.23877E-07  1791   0.843E-04    0.250E-04
RMM:  15    -0.413217492873E+03    0.32555E-05   -0.15840E-07  1419   0.735E-04    0.139E-04
RMM:  16    -0.413217490490E+03    0.23824E-05   -0.97990E-08  1182   0.666E-04    0.109E-04
RMM:  17    -0.413217488436E+03    0.20546E-05   -0.69442E-08  1086   0.632E-04    0.764E-05
RMM:  18    -0.413217485766E+03    0.26696E-05   -0.59193E-08  1135   0.625E-04    0.410E-05
RMM:  19    -0.413217483541E+03    0.22245E-05   -0.41616E-08  1038   0.593E-04    0.311E-05
RMM:  20    -0.413217482933E+03    0.60865E-06   -0.21680E-08   800   0.549E-04
   44 T=    71. E= -.41286673E+03 F= -.41321748E+03 E0= -.41319650E+03  EK= 0.35075E+00 SP= 0.00E+00 SK= 0.00E+00
       N       E                     dE             d eps       ncg     rms          rms(c)
RMM:   1    -0.413244801215E+03   -0.27318E-01   -0.97547E+00  4311   0.136E+00    0.972E-01
RMM:   2    -0.413224403959E+03    0.20397E-01   -0.15359E-01  4326   0.161E-01    0.706E-01
RMM:   3    -0.413226200052E+03   -0.17961E-02   -0.24716E-02  5078   0.102E-01    0.376E-01
RMM:   4    -0.413251048017E+03   -0.24848E-01   -0.51085E-02  5061   0.194E-01    0.739E-01
RMM:   5    -0.413218850115E+03    0.32198E-01   -0.12649E-02  4697   0.122E-01    0.615E-02
RMM:   6    -0.413218867611E+03   -0.17496E-04   -0.25107E-03  5673   0.480E-02    0.365E-02
RMM:   7    -0.413218866828E+03    0.78214E-06   -0.42792E-04  5648   0.199E-02    0.240E-02
RMM:   8    -0.413218859879E+03    0.69495E-05   -0.12163E-04  5119   0.120E-02    0.119E-02
RMM:   9    -0.413218848047E+03    0.11832E-04   -0.15885E-05  4270   0.551E-03    0.487E-03
RMM:  10    -0.413218844065E+03    0.39820E-05   -0.35932E-06  2782   0.251E-03    0.298E-03
RMM:  11    -0.413218839398E+03    0.46669E-05   -0.11874E-06  2490   0.181E-03    0.159E-03
RMM:  12    -0.413218832994E+03    0.64047E-05   -0.74170E-07  2429   0.145E-03    0.686E-04
RMM:  13    -0.413218829171E+03    0.38227E-05   -0.36286E-07  2081   0.104E-03    0.309E-04
RMM:  14    -0.413218826351E+03    0.28204E-05   -0.20053E-07  1633   0.799E-04    0.196E-04
RMM:  15    -0.413218820770E+03    0.55808E-05   -0.14265E-07  1384   0.730E-04    0.140E-04
RMM:  16    -0.413218818185E+03    0.25847E-05   -0.85214E-08  1146   0.654E-04    0.907E-05
RMM:  17    -0.413218814188E+03    0.39967E-05   -0.73938E-08  1236   0.648E-04    0.521E-05
RMM:  18    -0.413218811145E+03    0.30429E-05   -0.53210E-08  1117   0.609E-04    0.408E-05
RMM:  19    -0.413218809028E+03    0.21173E-05   -0.40299E-08  1055   0.580E-04    0.238E-05
RMM:  20    -0.413218808620E+03    0.40772E-06   -0.19513E-08   759   0.534E-04
   45 T=    72. E= -.41286705E+03 F= -.41321881E+03 E0= -.41319785E+03  EK= 0.35175E+00 SP= 0.00E+00 SK= 0.00E+00
       N       E                     dE             d eps       ncg     rms          rms(c)
RMM:   1    -0.413240956459E+03   -0.22147E-01   -0.96199E+00  4311   0.142E+00    0.955E-01
RMM:   2    -0.413224086206E+03    0.16870E-01   -0.14914E-01  4342   0.170E-01    0.700E-01
RMM:   3    -0.413228658600E+03   -0.45724E-02   -0.27196E-02  5091   0.115E-01    0.435E-01
RMM:   4    -0.413243972936E+03   -0.15314E-01   -0.47393E-02  5050   0.189E-01    0.658E-01
RMM:   5    -0.413218521247E+03    0.25452E-01   -0.91346E-03  4650   0.109E-01    0.594E-02
RMM:   6    -0.413218497097E+03    0.24149E-04   -0.19489E-03  5588   0.426E-02    0.342E-02
RMM:   7    -0.413218493932E+03    0.31654E-05   -0.35652E-04  5569   0.186E-02    0.227E-02
RMM:   8    -0.413218482904E+03    0.11027E-04   -0.12128E-04  5076   0.119E-02    0.108E-02
RMM:   9    -0.413218471794E+03    0.11111E-04   -0.14184E-05  4166   0.532E-03    0.448E-03
RMM:  10    -0.413218468426E+03    0.33679E-05   -0.29111E-06  2711   0.234E-03    0.264E-03
RMM:  11    -0.413218463855E+03    0.45708E-05   -0.11302E-06  2485   0.175E-03    0.138E-03
RMM:  12    -0.413218458449E+03    0.54064E-05   -0.65915E-07  2400   0.136E-03    0.672E-04
RMM:  13    -0.413218454939E+03    0.35094E-05   -0.32071E-07  1941   0.969E-04    0.297E-04
RMM:  14    -0.413218451873E+03    0.30663E-05   -0.18194E-07  1501   0.766E-04    0.173E-04
RMM:  15    -0.413218447001E+03    0.48725E-05   -0.13443E-07  1326   0.716E-04    0.125E-04
RMM:  16    -0.413218444373E+03    0.26275E-05   -0.85788E-08  1153   0.654E-04    0.872E-05
RMM:  17    -0.413218439403E+03    0.49696E-05   -0.90557E-08  1463   0.674E-04    0.626E-05
RMM:  18    -0.413218437578E+03    0.18255E-05   -0.43776E-08   969   0.561E-04    0.394E-05
RMM:  19    -0.413218435807E+03    0.17710E-05   -0.33273E-08   905   0.548E-04    0.218E-05
RMM:  20    -0.413218435462E+03    0.34508E-06   -0.19178E-08   730   0.521E-04
   46 T=    72. E= -.41286685E+03 F= -.41321844E+03 E0= -.41319749E+03  EK= 0.35159E+00 SP= 0.00E+00 SK= 0.00E+00
       N       E                     dE             d eps       ncg     rms          rms(c)
RMM:   1    -0.413231550313E+03   -0.13115E-01   -0.95584E+00  4312   0.143E+00    0.946E-01
RMM:   2    -0.413223256777E+03    0.82935E-02   -0.14715E-01  4363   0.175E-01    0.708E-01
RMM:   3    -0.413230215399E+03   -0.69586E-02   -0.30737E-02  5092   0.127E-01    0.483E-01
RMM:   4    -0.413240646641E+03   -0.10431E-01   -0.48213E-02  5034   0.192E-01    0.629E-01
RMM:   5    -0.413217352983E+03    0.23294E-01   -0.78594E-03  4619   0.104E-01    0.587E-02
RMM:   6    -0.413217310596E+03    0.42387E-04   -0.17100E-03  5480   0.400E-02    0.317E-02
RMM:   7    -0.413217313687E+03   -0.30909E-05   -0.31438E-04  5579   0.176E-02    0.217E-02
RMM:   8    -0.413217304391E+03    0.92959E-05   -0.12428E-04  5072   0.119E-02    0.102E-02
RMM:   9    -0.413217294548E+03    0.98424E-05   -0.13351E-05  4079   0.524E-03    0.429E-03
RMM:  10    -0.413217292416E+03    0.21326E-05   -0.27795E-06  2688   0.228E-03    0.249E-03
RMM:  11    -0.413217289201E+03    0.32149E-05   -0.11773E-06  2490   0.176E-03    0.129E-03
RMM:  12    -0.413217285739E+03    0.34616E-05   -0.64892E-07  2383   0.133E-03    0.669E-04
RMM:  13    -0.413217283125E+03    0.26139E-05   -0.32119E-07  1860   0.951E-04    0.301E-04
RMM:  14    -0.413217280586E+03    0.25391E-05   -0.18756E-07  1422   0.754E-04    0.166E-04
RMM:  15    -0.413217277185E+03    0.34017E-05   -0.14355E-07  1315   0.713E-04    0.114E-04
RMM:  16    -0.413217275067E+03    0.21179E-05   -0.92740E-08  1170   0.651E-04    0.814E-05
RMM:  17    -0.413217270821E+03    0.42457E-05   -0.95747E-08  1340   0.668E-04    0.580E-05
RMM:  18    -0.413217269461E+03    0.13599E-05   -0.47400E-08  1003   0.576E-04    0.366E-05
RMM:  19    -0.413217268047E+03    0.14147E-05   -0.33325E-08   909   0.547E-04    0.218E-05
RMM:  20    -0.413217267552E+03    0.49414E-06   -0.19326E-08   737   0.518E-04
   47 T=    71. E= -.41286693E+03 F= -.41321727E+03 E0= -.41319634E+03  EK= 0.35034E+00 SP= 0.00E+00 SK= 0.00E+00
       N       E                     dE             d eps       ncg     rms          rms(c)
RMM:   1    -0.413239523201E+03   -0.22255E-01   -0.95427E+00  4310   0.158E+00    0.961E-01
RMM:   2    -0.413220715658E+03    0.18808E-01   -0.15743E-01  4415   0.191E-01    0.706E-01
RMM:   3    -0.413233954945E+03   -0.13239E-01   -0.33550E-02  5120   0.143E-01    0.590E-01
RMM:   4    -0.413230651660E+03    0.33033E-02   -0.44875E-02  4992   0.189E-01    0.520E-01
RMM:   5    -0.413215026874E+03    0.15625E-01   -0.49581E-03  4572   0.921E-02    0.587E-02
RMM:   6    -0.413214927331E+03    0.99543E-04   -0.95762E-04  5100   0.327E-02    0.309E-02
RMM:   7    -0.413214919245E+03    0.80861E-05   -0.20971E-04  5557   0.147E-02    0.176E-02
RMM:   8    -0.413214917179E+03    0.20653E-05   -0.12804E-04  5185   0.117E-02    0.121E-02
RMM:   9    -0.413214901687E+03    0.15492E-04   -0.18417E-05  4437   0.587E-03    0.440E-03
RMM:  10    -0.413214898871E+03    0.28160E-05   -0.34436E-06  2763   0.243E-03    0.243E-03
RMM:  11    -0.413214893362E+03    0.55091E-05   -0.13623E-06  2454   0.191E-03    0.130E-03
RMM:  12    -0.413214889549E+03    0.38135E-05   -0.60576E-07  2356   0.135E-03    0.763E-04
RMM:  13    -0.413214885405E+03    0.41433E-05   -0.29803E-07  1832   0.960E-04    0.371E-04
RMM:  14    -0.413214881119E+03    0.42867E-05   -0.16002E-07  1425   0.740E-04    0.200E-04
RMM:  15    -0.413214877237E+03    0.38820E-05   -0.98990E-08  1116   0.661E-04    0.120E-04
RMM:  16    -0.413214874249E+03    0.29881E-05   -0.72721E-08  1090   0.626E-04    0.994E-05
RMM:  17    -0.413214870009E+03    0.42395E-05   -0.73353E-08  1263   0.629E-04    0.609E-05
RMM:  18    -0.413214867676E+03    0.23337E-05   -0.37120E-08   892   0.549E-04    0.452E-05
RMM:  19    -0.413214866621E+03    0.10544E-05   -0.20238E-08   702   0.515E-04    0.323E-05
RMM:  20    -0.413214865390E+03    0.12308E-05   -0.20587E-08   756   0.524E-04    0.145E-05
RMM:  21    -0.413214865051E+03    0.33939E-06   -0.10624E-08   601   0.500E-04
   48 T=    71. E= -.41286714E+03 F= -.41321487E+03 E0= -.41319395E+03  EK= 0.34773E+00 SP= 0.00E+00 SK= 0.00E+00
       N       E                     dE             d eps       ncg     rms          rms(c)
RMM:   1    -0.413244899367E+03   -0.30034E-01   -0.94337E+00  4305   0.172E+00    0.949E-01
RMM:   2    -0.413215760432E+03    0.29139E-01   -0.16617E-01  4486   0.202E-01    0.696E-01
RMM:   3    -0.413235831138E+03   -0.20071E-01   -0.37094E-02  5141   0.159E-01    0.687E-01
RMM:   4    -0.413220943232E+03    0.14888E-01   -0.43276E-02  4969   0.188E-01    0.437E-01
RMM:   5    -0.413210323002E+03    0.10620E-01   -0.40544E-03  4569   0.881E-02    0.624E-02
RMM:   6    -0.413210167990E+03    0.15501E-03   -0.53790E-04  4749   0.293E-02    0.320E-02
RMM:   7    -0.413210169483E+03   -0.14929E-05   -0.24760E-04  5828   0.166E-02    0.182E-02
[...]
RMM:  11    -0.413159622333E+03   -0.42793E-05   -0.13865E-06  2517   0.182E-03    0.141E-03
RMM:  12    -0.413159625688E+03   -0.33545E-05   -0.76227E-07  2438   0.138E-03    0.495E-04
RMM:  13    -0.413159627589E+03   -0.19017E-05   -0.39468E-07  2057   0.101E-03    0.310E-04
RMM:  14    -0.413159629222E+03   -0.16326E-05   -0.23765E-07  1584   0.817E-04    0.204E-04
RMM:  15    -0.413159631804E+03   -0.25825E-05   -0.21672E-07  1515   0.781E-04    0.113E-04
RMM:  16    -0.413159633107E+03   -0.13023E-05   -0.13639E-07  1386   0.689E-04    0.824E-05
RMM:  17    -0.413159634690E+03   -0.15832E-05   -0.11975E-07  1395   0.664E-04    0.567E-05
RMM:  18    -0.413159635644E+03   -0.95389E-06   -0.70825E-08  1090   0.588E-04
  139 T=    60. E= -.41286699E+03 F= -.41315964E+03 E0= -.41313892E+03  EK= 0.29265E+00 SP= 0.00E+00 SK= 0.00E+00
       N       E                     dE             d eps       ncg     rms          rms(c)
RMM:   1    -0.413153879505E+03    0.57552E-02   -0.97551E+00  4264   0.845E-01    0.850E-01
RMM:   2    -0.413161855145E+03   -0.79756E-02   -0.11502E-01  4325   0.987E-02    0.613E-01
RMM:   3    -0.413160660570E+03    0.11946E-02   -0.89357E-03  5038   0.470E-02    0.152E-01
RMM:   4    -0.413196346790E+03   -0.35686E-01   -0.39088E-02  5145   0.165E-01    0.787E-01
RMM:   5    -0.413159929585E+03    0.36417E-01   -0.17699E-02  4800   0.132E-01    0.537E-02
RMM:   6    -0.413159967068E+03   -0.37482E-04   -0.28952E-03  5711   0.516E-02    0.253E-02
RMM:   7    -0.413160001448E+03   -0.34380E-04   -0.39383E-04  6022   0.168E-02    0.163E-02
RMM:   8    -0.413160012005E+03   -0.10558E-04   -0.71416E-05  5270   0.846E-03    0.859E-03
RMM:   9    -0.413160016822E+03   -0.48163E-05   -0.10581E-05  3434   0.372E-03    0.387E-03
RMM:  10    -0.413160024179E+03   -0.73576E-05   -0.28103E-06  2633   0.224E-03    0.264E-03
RMM:  11    -0.413160032578E+03   -0.83988E-05   -0.12975E-06  2509   0.175E-03    0.135E-03
RMM:  12    -0.413160039832E+03   -0.72534E-05   -0.78607E-07  2428   0.136E-03    0.459E-04
RMM:  13    -0.413160043415E+03   -0.35838E-05   -0.39107E-07  2011   0.995E-04    0.305E-04
RMM:  14    -0.413160046338E+03   -0.29224E-05   -0.23835E-07  1544   0.814E-04    0.187E-04
RMM:  15    -0.413160050436E+03   -0.40979E-05   -0.22143E-07  1562   0.787E-04    0.107E-04
RMM:  16    -0.413160052672E+03   -0.22364E-05   -0.14866E-07  1474   0.697E-04    0.868E-05
RMM:  17    -0.413160054528E+03   -0.18559E-05   -0.10977E-07  1336   0.636E-04    0.549E-05
RMM:  18    -0.413160055693E+03   -0.11653E-05   -0.69631E-08  1076   0.576E-04    0.286E-05
RMM:  19    -0.413160056171E+03   -0.47742E-06   -0.38484E-08   879   0.541E-04
  140 T=    60. E= -.41286726E+03 F= -.41316006E+03 E0= -.41313935E+03  EK= 0.29280E+00 SP= 0.00E+00 SK= 0.00E+00
       N       E                     dE             d eps       ncg     rms          rms(c)
RMM:   1    -0.413153258682E+03    0.67970E-02   -0.99134E+00  4264   0.855E-01    0.862E-01
RMM:   2    -0.413161440862E+03   -0.81822E-02   -0.11666E-01  4317   0.101E-01    0.617E-01
RMM:   3    -0.413160042213E+03    0.13986E-02   -0.84841E-03  4971   0.455E-02    0.141E-01
RMM:   4    -0.413191668961E+03   -0.31627E-01   -0.33523E-02  5146   0.153E-01    0.741E-01
RMM:   5    -0.413159553410E+03    0.32116E-01   -0.15875E-02  4814   0.124E-01    0.499E-02
RMM:   6    -0.413159585874E+03   -0.32464E-04   -0.25546E-03  5720   0.486E-02    0.245E-02
RMM:   7    -0.413159614806E+03   -0.28931E-04   -0.34863E-04  5972   0.158E-02    0.153E-02
RMM:   8    -0.413159624432E+03   -0.96266E-05   -0.61756E-05  5227   0.788E-03    0.804E-03
RMM:   9    -0.413159628621E+03   -0.41886E-05   -0.92207E-06  3331   0.348E-03    0.374E-03
RMM:  10    -0.413159635669E+03   -0.70485E-05   -0.25495E-06  2605   0.216E-03    0.254E-03
RMM:  11    -0.413159642989E+03   -0.73193E-05   -0.11744E-06  2494   0.167E-03    0.127E-03
RMM:  12    -0.413159649606E+03   -0.66175E-05   -0.75127E-07  2404   0.132E-03    0.434E-04
RMM:  13    -0.413159652783E+03   -0.31767E-05   -0.36530E-07  1985   0.961E-04    0.300E-04
RMM:  14    -0.413159655528E+03   -0.27448E-05   -0.22818E-07  1498   0.792E-04    0.168E-04
RMM:  15    -0.413159658902E+03   -0.33748E-05   -0.20079E-07  1471   0.762E-04    0.958E-05
RMM:  16    -0.413159661134E+03   -0.22313E-05   -0.15260E-07  1537   0.709E-04    0.932E-05
RMM:  17    -0.413159662379E+03   -0.12449E-05   -0.92991E-08  1239   0.610E-04    0.631E-05
RMM:  18    -0.413159663783E+03   -0.14039E-05   -0.74217E-08  1126   0.583E-04    0.304E-05
RMM:  19    -0.413159664058E+03   -0.27560E-06   -0.35843E-08   855   0.528E-04
  141 T=    60. E= -.41286694E+03 F= -.41315966E+03 E0= -.41313896E+03  EK= 0.29272E+00 SP= 0.00E+00 SK= 0.00E+00
       N       E                     dE             d eps       ncg     rms          rms(c)
RMM:   1    -0.413153288128E+03    0.63757E-02   -0.10008E+01  4264   0.856E-01    0.878E-01
RMM:   2    -0.413160931933E+03   -0.76438E-02   -0.11546E-01  4315   0.100E-01    0.608E-01
RMM:   3    -0.413159858225E+03    0.10737E-02   -0.81672E-03  4938   0.421E-02    0.140E-01
RMM:   4    -0.413183572058E+03   -0.23714E-01   -0.24587E-02  5153   0.131E-01    0.644E-01
RMM:   5    -0.413159600998E+03    0.23971E-01   -0.12027E-02  4824   0.108E-01    0.461E-02
RMM:   6    -0.413159610221E+03   -0.92229E-05   -0.19387E-03  5707   0.426E-02    0.249E-02
RMM:   7    -0.413159627542E+03   -0.17321E-04   -0.27690E-04  5899   0.144E-02    0.142E-02
RMM:   8    -0.413159631542E+03   -0.39992E-05   -0.50717E-05  5108   0.726E-03    0.726E-03
RMM:   9    -0.413159632368E+03   -0.82605E-06   -0.67758E-06  3099   0.308E-03
  142 T=    60. E= -.41286685E+03 F= -.41315963E+03 E0= -.41313894E+03  EK= 0.29278E+00 SP= 0.00E+00 SK= 0.00E+00
       N       E                     dE             d eps       ncg     rms          rms(c)
RMM:   1    -0.413152987142E+03    0.66444E-02   -0.10022E+01  4265   0.860E-01    0.851E-01
RMM:   2    -0.413161529066E+03   -0.85419E-02   -0.11756E-01  4329   0.987E-02    0.607E-01
RMM:   3    -0.413161222290E+03    0.30678E-03   -0.81750E-03  5095   0.504E-02    0.185E-01
RMM:   4    -0.413198794691E+03   -0.37572E-01   -0.43249E-02  5134   0.173E-01    0.811E-01
RMM:   5    -0.413160125162E+03    0.38670E-01   -0.18518E-02  4796   0.137E-01    0.593E-02
RMM:   6    -0.413160113657E+03    0.11505E-04   -0.30473E-03  5661   0.533E-02    0.220E-02
RMM:   7    -0.413160157879E+03   -0.44222E-04   -0.41982E-04  6089   0.172E-02    0.153E-02
RMM:   8    -0.413160169774E+03   -0.11894E-04   -0.68972E-05  5354   0.810E-03    0.848E-03
RMM:   9    -0.413160177161E+03   -0.73872E-05   -0.11160E-05  3483   0.380E-03    0.359E-03
RMM:  10    -0.413160183675E+03   -0.65136E-05   -0.25894E-06  2607   0.218E-03    0.232E-03
RMM:  11    -0.413160193774E+03   -0.10099E-04   -0.15564E-06  2531   0.184E-03    0.139E-03
RMM:  12    -0.413160199811E+03   -0.60374E-05   -0.77859E-07  2463   0.135E-03    0.562E-04
RMM:  13    -0.413160203348E+03   -0.35368E-05   -0.38849E-07  1948   0.971E-04    0.307E-04
RMM:  14    -0.413160206230E+03   -0.28821E-05   -0.24463E-07  1518   0.813E-04    0.195E-04
RMM:  15    -0.413160211330E+03   -0.50995E-05   -0.35515E-07  1856   0.871E-04    0.175E-04
RMM:  16    -0.413160212598E+03   -0.12688E-05   -0.13379E-07  1286   0.651E-04    0.118E-04
RMM:  17    -0.413160214882E+03   -0.22834E-05   -0.14059E-07  1359   0.664E-04    0.488E-05
RMM:  18    -0.413160216272E+03   -0.13900E-05   -0.89369E-08  1124   0.597E-04    0.430E-05
RMM:  19    -0.413160216580E+03   -0.30875E-06   -0.43836E-08   897   0.546E-04
  143 T=    60. E= -.41286705E+03 F= -.41316022E+03 E0= -.41313953E+03  EK= 0.29316E+00 SP= 0.00E+00 SK= 0.00E+00
       N       E                     dE             d eps       ncg     rms          rms(c)
RMM:   1    -0.413152258884E+03    0.79574E-02   -0.10183E+01  4264   0.866E-01    0.857E-01
RMM:   2    -0.413161359739E+03   -0.91009E-02   -0.12045E-01  4322   0.997E-02    0.617E-01
RMM:   3    -0.413159666496E+03    0.16932E-02   -0.71963E-03  4760   0.381E-02    0.119E-01
RMM:   4    -0.413163820366E+03   -0.41539E-02   -0.47424E-03  5177   0.585E-02    0.272E-01
RMM:   5    -0.413159689497E+03    0.41309E-02   -0.21307E-03  4841   0.458E-02    0.311E-02
RMM:   6    -0.413159675085E+03    0.14412E-04   -0.41028E-04  5555   0.209E-02    0.191E-02
RMM:   7    -0.413159695844E+03   -0.20759E-04   -0.90952E-05  5468   0.890E-03    0.966E-03
RMM:   8    -0.413159704317E+03   -0.84724E-05   -0.23573E-05  4580   0.538E-03    0.457E-03
RMM:   9    -0.413159708010E+03   -0.36933E-05   -0.17172E-06  2608   0.194E-03    0.252E-03
RMM:  10    -0.413159715076E+03   -0.70665E-05   -0.79260E-07  2486   0.136E-03    0.140E-03
RMM:  11    -0.413159725400E+03   -0.10324E-04   -0.88485E-07  2333   0.127E-03    0.695E-04
RMM:  12    -0.413159729691E+03   -0.42903E-05   -0.34188E-07  1932   0.908E-04    0.287E-04
RMM:  13    -0.413159732857E+03   -0.31660E-05   -0.19645E-07  1320   0.737E-04    0.173E-04
RMM:  14    -0.413159737533E+03   -0.46760E-05   -0.24687E-07  1477   0.767E-04    0.140E-04
RMM:  15    -0.413159739387E+03   -0.18539E-05   -0.12062E-07  1265   0.653E-04    0.115E-04
RMM:  16    -0.413159741658E+03   -0.22710E-05   -0.12558E-07  1306   0.649E-04    0.431E-05
RMM:  17    -0.413159742777E+03   -0.11190E-05   -0.69069E-08  1055   0.563E-04    0.351E-05
RMM:  18    -0.413159743074E+03   -0.29695E-06   -0.35948E-08   830   0.510E-04
  144 T=    60. E= -.41286661E+03 F= -.41315974E+03 E0= -.41313906E+03  EK= 0.29313E+00 SP= 0.00E+00 SK= 0.00E+00
       N       E                     dE             d eps       ncg     rms          rms(c)
RMM:   1    -0.413152721791E+03    0.70210E-02   -0.10271E+01  4264   0.872E-01    0.880E-01
RMM:   2    -0.413160909758E+03   -0.81880E-02   -0.11888E-01  4320   0.998E-02    0.608E-01
RMM:   3    -0.413159978037E+03    0.93172E-03   -0.72100E-03  4811   0.345E-02    0.132E-01
RMM:   4    -0.413160555830E+03   -0.57779E-03   -0.13785E-03  5169   0.323E-02    0.104E-01
RMM:   5    -0.413160002686E+03    0.55314E-03   -0.36183E-04  4902   0.199E-02    0.340E-02
RMM:   6    -0.413159973686E+03    0.28999E-04   -0.16332E-04  5224   0.138E-02    0.199E-02
RMM:   7    -0.413159982229E+03   -0.85427E-05   -0.67252E-05  5274   0.819E-03    0.982E-03
RMM:   8    -0.413159982188E+03    0.40836E-07   -0.13609E-05  3989   0.460E-03    0.490E-03
RMM:   9    -0.413159983937E+03   -0.17493E-05   -0.18277E-06  2537   0.210E-03    0.239E-03
RMM:  10    -0.413159986448E+03   -0.25110E-05   -0.11445E-06  2468   0.164E-03    0.130E-03
RMM:  11    -0.413159990853E+03   -0.44046E-05   -0.11344E-06  2436   0.147E-03    0.653E-04
RMM:  12    -0.413159992430E+03   -0.15774E-05   -0.37641E-07  1981   0.968E-04    0.331E-04
RMM:  13    -0.413159993664E+03   -0.12334E-05   -0.19368E-07  1504   0.740E-04    0.254E-04
RMM:  14    -0.413159996370E+03   -0.27062E-05   -0.31426E-07  1535   0.784E-04    0.199E-04
RMM:  15    -0.413159996786E+03   -0.41623E-06   -0.74922E-08   984   0.579E-04
  145 T=    60. E= -.41286690E+03 F= -.41316000E+03 E0= -.41313932E+03  EK= 0.29309E+00 SP= 0.00E+00 SK= 0.00E+00
       N       E                     dE             d eps       ncg     rms          rms(c)
RMM:   1    -0.413151995481E+03    0.80009E-02   -0.10234E+01  4264   0.872E-01    0.856E-01
RMM:   2    -0.413161009938E+03   -0.90145E-02   -0.11997E-01  4322   0.999E-02    0.604E-01
RMM:   3    -0.413160030847E+03    0.97909E-03   -0.66232E-03  4815   0.357E-02    0.132E-01
RMM:   4    -0.413161671025E+03   -0.16402E-02   -0.23193E-03  5223   0.412E-02    0.170E-01
RMM:   5    -0.413160082232E+03    0.15888E-02   -0.85855E-04  4846   0.298E-02    0.299E-02
RMM:   6    -0.413160061894E+03    0.20338E-04   -0.23033E-04  5427   0.160E-02    0.176E-02
RMM:   7    -0.413160076660E+03   -0.14766E-04   -0.62746E-05  5283   0.780E-03    0.881E-03
RMM:   8    -0.413160080723E+03   -0.40628E-05   -0.15212E-05  4120   0.457E-03    0.427E-03
RMM:   9    -0.413160083475E+03   -0.27514E-05   -0.13488E-06  2529   0.193E-03    0.227E-03
RMM:  10    -0.413160088297E+03   -0.48221E-05   -0.90686E-07  2480   0.148E-03    0.116E-03
RMM:  11    -0.413160094756E+03   -0.64595E-05   -0.84885E-07  2347   0.129E-03    0.571E-04
RMM:  12    -0.413160097514E+03   -0.27578E-05   -0.31709E-07  1960   0.888E-04    0.280E-04
RMM:  13    -0.413160099671E+03   -0.21575E-05   -0.17797E-07  1290   0.713E-04    0.170E-04
RMM:  14    -0.413160103176E+03   -0.35046E-05   -0.26085E-07  1436   0.758E-04    0.135E-04
RMM:  15    -0.413160104263E+03   -0.10870E-05   -0.10112E-07  1174   0.634E-04    0.886E-05
RMM:  16    -0.413160105679E+03   -0.14163E-05   -0.10243E-07  1251   0.626E-04    0.377E-05
RMM:  17    -0.413160106689E+03   -0.10097E-05   -0.64044E-08  1028   0.563E-04    0.307E-05
RMM:  18    -0.413160106891E+03   -0.20226E-06   -0.27514E-08   756   0.503E-04
  146 T=    60. E= -.41286683E+03 F= -.41316011E+03 E0= -.41313944E+03  EK= 0.29327E+00 SP= 0.00E+00 SK= 0.00E+00
       N       E                     dE             d eps       ncg     rms          rms(c)
RMM:   1    -0.413151915118E+03    0.81916E-02   -0.10366E+01  4264   0.879E-01    0.853E-01
RMM:   2    -0.413161879626E+03   -0.99645E-02   -0.12322E-01  4331   0.998E-02    0.616E-01
RMM:   3    -0.413160314462E+03    0.15652E-02   -0.65316E-03  4943   0.358E-02    0.130E-01
RMM:   4    -0.413170430603E+03   -0.10116E-01   -0.10585E-02  5177   0.868E-02    0.423E-01
RMM:   5    -0.413160242868E+03    0.10188E-01   -0.51519E-03  4832   0.701E-02    0.338E-02
RMM:   6    -0.413160235301E+03    0.75675E-05   -0.87189E-04  5715   0.283E-02    0.156E-02
RMM:   7    -0.413160258127E+03   -0.22826E-04   -0.11650E-04  5464   0.963E-03    0.908E-03
RMM:   8    -0.413160270383E+03   -0.12257E-04   -0.22704E-05  4408   0.499E-03    0.500E-03
RMM:   9    -0.413160277055E+03   -0.66718E-05   -0.28720E-06  2675   0.232E-03    0.236E-03
RMM:  10    -0.413160285000E+03   -0.79450E-05   -0.12189E-06  2519   0.165E-03    0.144E-03
RMM:  11    -0.413160293456E+03   -0.84554E-05   -0.84704E-07  2406   0.132E-03    0.730E-04
RMM:  12    -0.413160299130E+03   -0.56748E-05   -0.45324E-07  2034   0.997E-04    0.281E-04
RMM:  13    -0.413160302312E+03   -0.31813E-05   -0.23723E-07  1441   0.785E-04    0.176E-04
RMM:  14    -0.413160305628E+03   -0.33158E-05   -0.21013E-07  1340   0.750E-04    0.105E-04
RMM:  15    -0.413160307893E+03   -0.22652E-05   -0.15368E-07  1351   0.704E-04    0.673E-05
RMM:  16    -0.413160309304E+03   -0.14109E-05   -0.10981E-07  1234   0.642E-04    0.417E-05
RMM:  17    -0.413160310514E+03   -0.12100E-05   -0.86138E-08  1126   0.604E-04    0.192E-05
RMM:  18    -0.413160310602E+03   -0.88621E-07   -0.39320E-08   842   0.538E-04
  147 T=    60. E= -.41286675E+03 F= -.41316031E+03 E0= -.41313965E+03  EK= 0.29356E+00 SP= 0.00E+00 SK= 0.00E+00
       N       E                     dE             d eps       ncg     rms          rms(c)
RMM:   1    -0.413152581453E+03    0.77291E-02   -0.10442E+01  4264   0.884E-01    0.878E-01
RMM:   2    -0.413161359920E+03   -0.87785E-02   -0.12128E-01  4339   0.980E-02    0.609E-01
RMM:   3    -0.413160634159E+03    0.72576E-03   -0.67457E-03  5007   0.370E-02    0.147E-01
RMM:   4    -0.413179394455E+03   -0.18760E-01   -0.19281E-02  5171   0.117E-01    0.572E-01
RMM:   5    -0.413160439316E+03    0.18955E-01   -0.95243E-03  4835   0.949E-02    0.416E-02
RMM:   6    -0.413160453665E+03   -0.14349E-04   -0.15535E-03  5728   0.374E-02    0.173E-02
RMM:   7    -0.413160470349E+03   -0.16684E-04   -0.19062E-04  5686   0.118E-02    0.106E-02
RMM:   8    -0.413160475144E+03   -0.47950E-05   -0.28116E-05  4440   0.524E-03    0.590E-03
RMM:   9    -0.413160477722E+03   -0.25784E-05   -0.43868E-06  2814   0.263E-03    0.266E-03
RMM:  10    -0.413160481048E+03   -0.33264E-05   -0.15610E-06  2537   0.177E-03    0.160E-03
RMM:  11    -0.413160484289E+03   -0.32409E-05   -0.86487E-07  2433   0.136E-03    0.821E-04
RMM:  12    -0.413160486657E+03   -0.23682E-05   -0.50321E-07  2111   0.105E-03    0.272E-04
RMM:  13    -0.413160487892E+03   -0.12351E-05   -0.25808E-07  1570   0.827E-04    0.176E-04
RMM:  14    -0.413160489194E+03   -0.13011E-05   -0.20443E-07  1361   0.763E-04    0.101E-04
RMM:  15    -0.413160490164E+03   -0.97042E-06   -0.15549E-07  1365   0.715E-04
  148 T=    60. E= -.41286696E+03 F= -.41316049E+03 E0= -.41313983E+03  EK= 0.29353E+00 SP= 0.00E+00 SK= 0.00E+00
       N       E                     dE             d eps       ncg     rms          rms(c)
RMM:   1    -0.413151737971E+03    0.87512E-02   -0.10383E+01  4264   0.883E-01    0.863E-01
RMM:   2    -0.413160849113E+03   -0.91111E-02   -0.12146E-01  4328   0.101E-01    0.602E-01
RMM:   3    -0.413160299645E+03    0.54947E-03   -0.65768E-03  5035   0.401E-02    0.157E-01
RMM:   4    -0.413188528304E+03   -0.28229E-01   -0.29205E-02  5166   0.142E-01    0.698E-01
RMM:   5    -0.413159992587E+03    0.28536E-01   -0.14242E-02  4829   0.117E-01    0.473E-02
RMM:   6    -0.413160043416E+03   -0.50829E-04   -0.22651E-03  5717   0.457E-02    0.162E-02
RMM:   7    -0.413160069461E+03   -0.26045E-04   -0.27675E-04  5849   0.138E-02    0.113E-02
RMM:   8    -0.413160074930E+03   -0.54687E-05   -0.34746E-05  4417   0.545E-03    0.661E-03
RMM:   9    -0.413160078144E+03   -0.32146E-05   -0.55406E-06  2877   0.283E-03    0.307E-03
RMM:  10    -0.413160081858E+03   -0.37134E-05   -0.18526E-06  2546   0.186E-03    0.174E-03
RMM:  11    -0.413160085282E+03   -0.34249E-05   -0.92782E-07  2453   0.140E-03    0.893E-04
RMM:  12    -0.413160088003E+03   -0.27208E-05   -0.56726E-07  2188   0.111E-03    0.270E-04
RMM:  13    -0.413160089156E+03   -0.11526E-05   -0.27680E-07  1653   0.860E-04    0.187E-04
RMM:  14    -0.413160090680E+03   -0.15240E-05   -0.23428E-07  1461   0.797E-04    0.117E-04
RMM:  15    -0.413160091728E+03   -0.10479E-05   -0.16863E-07  1378   0.728E-04    0.586E-05
RMM:  16    -0.413160092387E+03   -0.65915E-06   -0.12013E-07  1302   0.671E-04
  149 T=    60. E= -.41286675E+03 F= -.41316009E+03 E0= -.41313943E+03  EK= 0.29335E+00 SP= 0.00E+00 SK= 0.00E+00
       N       E                     dE             d eps       ncg     rms          rms(c)
RMM:   1    -0.413151813569E+03    0.82782E-02   -0.10444E+01  4264   0.891E-01    0.849E-01
RMM:   2    -0.413162446696E+03   -0.10633E-01   -0.12508E-01  4343   0.996E-02    0.614E-01
RMM:   3    -0.413161212832E+03    0.12339E-02   -0.64447E-03  5135   0.410E-02    0.162E-01
RMM:   4    -0.413196791702E+03   -0.35579E-01   -0.37735E-02  5162   0.161E-01    0.782E-01
RMM:   5    -0.413160645637E+03    0.36146E-01   -0.17868E-02  4821   0.131E-01    0.513E-02
RMM:   6    -0.413160726453E+03   -0.80817E-04   -0.28239E-03  5710   0.514E-02    0.134E-02
RMM:   7    -0.413160765750E+03   -0.39297E-04   -0.35086E-04  5979   0.151E-02    0.111E-02
RMM:   8    -0.413160776005E+03   -0.10255E-04   -0.40416E-05  4437   0.558E-03    0.688E-03
RMM:   9    -0.413160785469E+03   -0.94639E-05   -0.61160E-06  2897   0.291E-03    0.335E-03
RMM:  10    -0.413160793987E+03   -0.85177E-05   -0.20532E-06  2555   0.193E-03    0.183E-03
RMM:  11    -0.413160801885E+03   -0.78980E-05   -0.99987E-07  2460   0.142E-03    0.928E-04
RMM:  12    -0.413160807850E+03   -0.59653E-05   -0.60552E-07  2208   0.112E-03    0.320E-04
RMM:  13    -0.413160810417E+03   -0.25668E-05   -0.29713E-07  1773   0.875E-04    0.216E-04
RMM:  14    -0.413160814149E+03   -0.37316E-05   -0.28461E-07  1536   0.817E-04    0.134E-04
RMM:  15    -0.413160816233E+03   -0.20843E-05   -0.18089E-07  1399   0.728E-04    0.692E-05
RMM:  16    -0.413160817312E+03   -0.10791E-05   -0.12686E-07  1289   0.667E-04    0.413E-05
RMM:  17    -0.413160818264E+03   -0.95198E-06   -0.97106E-08  1178   0.631E-04
  150 T=    60. E= -.41286696E+03 F= -.41316082E+03 E0= -.41314016E+03  EK= 0.29385E+00 SP= 0.00E+00 SK= 0.00E+00
