       N       E                     dE             d eps       ncg     rms          rms(c)
RMM:   1     0.220084532827E+04    0.22008E+04   -0.52446E+04  2132   0.654E+02
RMM:   2     0.705311642692E+03   -0.14955E+04   -0.16260E+04  2132   0.177E+02
RMM:   3     0.137671327018E+03   -0.56764E+03   -0.65711E+03  2132   0.117E+02
RMM:   4    -0.159207828012E+03   -0.29688E+03   -0.27822E+03  2132   0.936E+01
RMM:   5    -0.287512890590E+03   -0.12831E+03   -0.11449E+03  2132   0.595E+01
RMM:   6    -0.349833402453E+03   -0.62321E+02   -0.55157E+02  2132   0.423E+01
RMM:   7    -0.382788230355E+03   -0.32955E+02   -0.30465E+02  2132   0.293E+01
RMM:   8    -0.404316697696E+03   -0.21528E+02   -0.18426E+02  2132   0.233E+01
RMM:   9    -0.436033805770E+03   -0.31717E+02   -0.30618E+02  6105   0.173E+01
RMM:  10    -0.441304165470E+03   -0.52704E+01   -0.62813E+01  6393   0.537E+00
RMM:  11    -0.442509357221E+03   -0.12052E+01   -0.11101E+01  6218   0.172E+00
RMM:  12    -0.442879063529E+03   -0.36971E+00   -0.25622E+00  6374   0.596E-01    0.134E+02
RMM:  13    -0.425653061265E+03    0.17226E+02   -0.81420E+01  4683   0.119E+01    0.712E+01
RMM:  14    -0.500258929063E+03   -0.74606E+02   -0.54514E+02  5420   0.233E+01    0.308E+01
RMM:  15    -0.416380672375E+03    0.83878E+02   -0.20097E+02  5091   0.164E+01    0.741E+00
RMM:  16    -0.413988753514E+03    0.23919E+01   -0.39946E+01  6083   0.615E+00    0.424E+00
RMM:  17    -0.413208677476E+03    0.78008E+00   -0.25811E+00  5411   0.190E+00    0.242E+00
RMM:  18    -0.413179491271E+03    0.29186E-01   -0.73983E-01  5984   0.882E-01    0.169E+00
RMM:  19    -0.413170943226E+03    0.85480E-02   -0.28161E-01  5666   0.576E-01    0.887E-01
RMM:  20    -0.413192474244E+03   -0.21531E-01   -0.29496E-01  5587   0.562E-01    0.656E-01
RMM:  21    -0.413168643226E+03    0.23831E-01   -0.37664E-02  4979   0.253E-01    0.290E-01
RMM:  22    -0.413165649931E+03    0.29933E-02   -0.23002E-02  5939   0.144E-01    0.133E-01
RMM:  23    -0.413164766223E+03    0.88371E-03   -0.53075E-03  6024   0.645E-02    0.836E-02
RMM:  24    -0.413163573306E+03    0.11929E-02   -0.16115E-03  5321   0.410E-02    0.533E-02
RMM:  25    -0.413162992624E+03    0.58068E-03   -0.84680E-04  5128   0.296E-02    0.388E-02
RMM:  26    -0.413163100872E+03   -0.10825E-03   -0.10185E-03  5853   0.326E-02    0.346E-02
RMM:  27    -0.413163513300E+03   -0.41243E-03   -0.19389E-04  4557   0.208E-02    0.195E-02
RMM:  28    -0.413163931451E+03   -0.41815E-03   -0.15797E-04  5244   0.176E-02    0.881E-03
RMM:  29    -0.413164329599E+03   -0.39815E-03   -0.10379E-04  4486   0.159E-02    0.426E-03
RMM:  30    -0.413164562722E+03   -0.23312E-03   -0.78729E-05  4395   0.105E-02    0.426E-03
RMM:  31    -0.413164697011E+03   -0.13429E-03   -0.54282E-05  3239   0.708E-03    0.377E-03
RMM:  32    -0.413164723073E+03   -0.26062E-04   -0.20644E-05  2985   0.315E-03    0.181E-03
RMM:  33    -0.413164736825E+03   -0.13753E-04   -0.81989E-06  2793   0.223E-03    0.706E-04
RMM:  34    -0.413164740183E+03   -0.33573E-05   -0.47660E-06  2635   0.166E-03    0.590E-04
RMM:  35    -0.413164740906E+03   -0.72294E-06   -0.22213E-06  2378   0.130E-03
    1 T=    61. E= -.41286694E+03 F= -.41316474E+03 E0= -.41314224E+03  EK= 0.29780E+00 SP= 0.00E+00 SK= 0.00E+00
       N       E                     dE             d eps       ncg     rms          rms(c)
RMM:   1    -0.413158721887E+03    0.60183E-02   -0.10172E+01  3988   0.661E-01    0.885E-01
RMM:   2    -0.413167410798E+03   -0.86889E-02   -0.12466E-01  3934   0.965E-02    0.645E-01
RMM:   3    -0.413164630010E+03    0.27808E-02   -0.99679E-03  4715   0.428E-02    0.115E-01
RMM:   4    -0.413183028102E+03   -0.18398E-01   -0.19242E-02  5215   0.115E-01    0.568E-01
RMM:   5    -0.413164345822E+03    0.18682E-01   -0.92558E-03  4860   0.951E-02    0.398E-02
RMM:   6    -0.413164466929E+03   -0.12111E-03   -0.15874E-03  5806   0.385E-02    0.271E-02
RMM:   7    -0.413164473301E+03   -0.63718E-05   -0.29012E-04  5715   0.155E-02    0.162E-02
RMM:   8    -0.413164474732E+03   -0.14310E-05   -0.37098E-05  4775   0.656E-03    0.693E-03
RMM:   9    -0.413164478357E+03   -0.36256E-05   -0.79772E-06  3257   0.306E-03    0.546E-03
RMM:  10    -0.413164483269E+03   -0.49117E-05   -0.15247E-06  2556   0.188E-03    0.343E-03
RMM:  11    -0.413164489395E+03   -0.61255E-05   -0.13475E-06  2535   0.170E-03    0.159E-03
RMM:  12    -0.413164495658E+03   -0.62629E-05   -0.11822E-06  2497   0.152E-03    0.709E-04
RMM:  13    -0.413164496499E+03   -0.84188E-06   -0.45166E-07  2095   0.996E-04
    2 T=    61. E= -.41286677E+03 F= -.41316450E+03 E0= -.41314200E+03  EK= 0.29773E+00 SP= 0.00E+00 SK= 0.00E+00
       N       E                     dE             d eps       ncg     rms          rms(c)
RMM:   1    -0.413159784182E+03    0.47115E-02   -0.10187E+01  4195   0.667E-01    0.907E-01
RMM:   2    -0.413167357164E+03   -0.75730E-02   -0.12258E-01  3886   0.945E-02    0.640E-01
RMM:   3    -0.413165184680E+03    0.21725E-02   -0.99646E-03  4785   0.418E-02    0.130E-01
RMM:   4    -0.413186933321E+03   -0.21749E-01   -0.22133E-02  5183   0.125E-01    0.617E-01
RMM:   5    -0.413164894674E+03    0.22039E-01   -0.10728E-02  4837   0.103E-01    0.421E-02
RMM:   6    -0.413165033141E+03   -0.13847E-03   -0.18480E-03  5802   0.414E-02    0.279E-02
RMM:   7    -0.413165032853E+03    0.28853E-06   -0.30947E-04  5715   0.165E-02    0.174E-02
RMM:   8    -0.413165026844E+03    0.60090E-05   -0.49073E-05  4946   0.755E-03    0.810E-03
RMM:   9    -0.413165025928E+03    0.91534E-06   -0.98351E-06  3580   0.355E-03
    3 T=    61. E= -.41286709E+03 F= -.41316503E+03 E0= -.41314253E+03  EK= 0.29794E+00 SP= 0.00E+00 SK= 0.00E+00
       N       E                     dE             d eps       ncg     rms          rms(c)
RMM:   1    -0.413159270753E+03    0.57561E-02   -0.10107E+01  4223   0.668E-01    0.891E-01
RMM:   2    -0.413167074706E+03   -0.78040E-02   -0.12188E-01  4360   0.920E-02    0.634E-01
RMM:   3    -0.413173157289E+03   -0.60826E-02   -0.16411E-02  5196   0.911E-02    0.405E-01
RMM:   4    -0.413182108480E+03   -0.89512E-02   -0.34707E-02  5096   0.162E-01    0.548E-01
RMM:   5    -0.413164857209E+03    0.17251E-01   -0.60275E-03  4642   0.918E-02    0.579E-02
RMM:   6    -0.413164777411E+03    0.79797E-04   -0.11977E-03  5285   0.354E-02    0.276E-02
RMM:   7    -0.413164795131E+03   -0.17719E-04   -0.27858E-04  5989   0.163E-02    0.173E-02
RMM:   8    -0.413164791459E+03    0.36717E-05   -0.54056E-05  5197   0.850E-03    0.703E-03
RMM:   9    -0.413164790160E+03    0.12986E-05   -0.10988E-05  4004   0.412E-03    0.372E-03
RMM:  10    -0.413164791077E+03   -0.91620E-06   -0.12222E-06  2523   0.196E-03
    4 T=    61. E= -.41286682E+03 F= -.41316479E+03 E0= -.41314230E+03  EK= 0.29797E+00 SP= 0.00E+00 SK= 0.00E+00
       N       E                     dE             d eps       ncg     rms          rms(c)
RMM:   1    -0.413159179239E+03    0.56109E-02   -0.10159E+01  4234   0.674E-01    0.883E-01
RMM:   2    -0.413167582830E+03   -0.84036E-02   -0.12469E-01  3907   0.916E-02    0.644E-01
RMM:   3    -0.413165236763E+03    0.23461E-02   -0.99438E-03  4895   0.413E-02    0.125E-01
RMM:   4    -0.413192094149E+03   -0.26857E-01   -0.27660E-02  5166   0.139E-01    0.684E-01
RMM:   5    -0.413164798272E+03    0.27296E-01   -0.13233E-02  4829   0.114E-01    0.440E-02
RMM:   6    -0.413164958808E+03   -0.16054E-03   -0.21858E-03  5784   0.455E-02    0.281E-02
RMM:   7    -0.413164966827E+03   -0.80187E-05   -0.34308E-04  5834   0.163E-02    0.170E-02
RMM:   8    -0.413164968762E+03   -0.19345E-05   -0.46601E-05  4945   0.707E-03    0.736E-03
RMM:   9    -0.413164971412E+03   -0.26507E-05   -0.10014E-05  3539   0.348E-03    0.562E-03
RMM:  10    -0.413164975614E+03   -0.42018E-05   -0.15358E-06  2555   0.193E-03    0.361E-03
RMM:  11    -0.413164980712E+03   -0.50978E-05   -0.12780E-06  2537   0.172E-03    0.171E-03
RMM:  12    -0.413164986047E+03   -0.53348E-05   -0.13545E-06  2544   0.164E-03    0.773E-04
RMM:  13    -0.413164986599E+03   -0.55227E-06   -0.37214E-07  2158   0.103E-03
    5 T=    61. E= -.41286688E+03 F= -.41316499E+03 E0= -.41314251E+03  EK= 0.29811E+00 SP= 0.00E+00 SK= 0.00E+00
       N       E                     dE             d eps       ncg     rms          rms(c)
RMM:   1    -0.413160077859E+03    0.49082E-02   -0.10189E+01  4252   0.680E-01    0.903E-01
RMM:   2    -0.413167735055E+03   -0.76572E-02   -0.12291E-01  4001   0.952E-02    0.642E-01
RMM:   3    -0.413165610518E+03    0.21245E-02   -0.99411E-03  4712   0.436E-02    0.127E-01
RMM:   4    -0.413186345614E+03   -0.20735E-01   -0.21007E-02  5159   0.121E-01    0.603E-01
RMM:   5    -0.413165297287E+03    0.21048E-01   -0.10324E-02  4831   0.999E-02    0.411E-02
RMM:   6    -0.413165425229E+03   -0.12794E-03   -0.17633E-03  5822   0.399E-02    0.267E-02
RMM:   7    -0.413165425923E+03   -0.69396E-06   -0.28586E-04  5686   0.158E-02    0.168E-02
RMM:   8    -0.413165419415E+03    0.65077E-05   -0.49129E-05  4909   0.751E-03    0.805E-03
RMM:   9    -0.413165418133E+03    0.12823E-05   -0.97503E-06  3619   0.361E-03    0.629E-03
RMM:  10    -0.413165418545E+03   -0.41226E-06   -0.14454E-06  2541   0.202E-03
    6 T=    61. E= -.41286709E+03 F= -.41316542E+03 E0= -.41314296E+03  EK= 0.29833E+00 SP= 0.00E+00 SK= 0.00E+00
       N       E                     dE             d eps       ncg     rms          rms(c)
RMM:   1    -0.413159793102E+03    0.56250E-02   -0.10135E+01  4255   0.682E-01    0.898E-01
RMM:   2    -0.413167541762E+03   -0.77487E-02   -0.12208E-01  4200   0.953E-02    0.635E-01
RMM:   3    -0.413167902277E+03   -0.36052E-03   -0.11793E-02  5105   0.636E-02    0.251E-01
RMM:   4    -0.413199467099E+03   -0.31565E-01   -0.43591E-02  5131   0.176E-01    0.765E-01
RMM:   5    -0.413165089015E+03    0.34378E-01   -0.14895E-02  4770   0.126E-01    0.577E-02
RMM:   6    -0.413165187282E+03   -0.98267E-04   -0.25703E-03  5621   0.502E-02    0.284E-02
RMM:   7    -0.413165207091E+03   -0.19809E-04   -0.39016E-04  6027   0.168E-02    0.177E-02
RMM:   8    -0.413165204609E+03    0.24817E-05   -0.66943E-05  5248   0.869E-03    0.788E-03
RMM:   9    -0.413165201083E+03    0.35261E-05   -0.10368E-05  3514   0.373E-03    0.390E-03
RMM:  10    -0.413165201043E+03    0.39716E-07   -0.24198E-06  2604   0.223E-03
    7 T=    61. E= -.41286677E+03 F= -.41316520E+03 E0= -.41314275E+03  EK= 0.29843E+00 SP= 0.00E+00 SK= 0.00E+00
       N       E                     dE             d eps       ncg     rms          rms(c)
RMM:   1    -0.413162529828E+03    0.26713E-02   -0.10169E+01  4266   0.709E-01    0.881E-01
RMM:   2    -0.413168415998E+03   -0.58862E-02   -0.12691E-01  4089   0.955E-02    0.642E-01
RMM:   3    -0.413166487378E+03    0.19286E-02   -0.10152E-02  5015   0.477E-02    0.161E-01
RMM:   4    -0.413207363539E+03   -0.40876E-01   -0.44292E-02  5151   0.175E-01    0.841E-01
RMM:   5    -0.413165512516E+03    0.41851E-01   -0.19921E-02  4803   0.140E-01    0.511E-02
RMM:   6    -0.413165726952E+03   -0.21444E-03   -0.32713E-03  5777   0.558E-02    0.296E-02
RMM:   7    -0.413165742333E+03   -0.15380E-04   -0.45502E-04  5943   0.184E-02    0.197E-02
RMM:   8    -0.413165743373E+03   -0.10407E-05   -0.72889E-05  5225   0.862E-03    0.943E-03
RMM:   9    -0.413165742984E+03    0.38927E-06   -0.14802E-05  4049   0.425E-03    0.596E-03
RMM:  10    -0.413165746149E+03   -0.31651E-05   -0.25164E-06  2621   0.218E-03    0.393E-03
RMM:  11    -0.413165749177E+03   -0.30277E-05   -0.12906E-06  2536   0.174E-03    0.204E-03
RMM:  12    -0.413165752898E+03   -0.37212E-05   -0.15305E-06  2564   0.179E-03    0.717E-04
RMM:  13    -0.413165753930E+03   -0.10318E-05   -0.53890E-07  2302   0.119E-03    0.554E-04
RMM:  14    -0.413165753803E+03    0.12694E-06   -0.22297E-07  1731   0.815E-04
    8 T=    61. E= -.41286697E+03 F= -.41316575E+03 E0= -.41314332E+03  EK= 0.29878E+00 SP= 0.00E+00 SK= 0.00E+00
       N       E                     dE             d eps       ncg     rms          rms(c)
RMM:   1    -0.413160435435E+03    0.53185E-02   -0.10195E+01  4282   0.694E-01    0.898E-01
RMM:   2    -0.413168532940E+03   -0.80975E-02   -0.12373E-01  4077   0.959E-02    0.644E-01
RMM:   3    -0.413166175939E+03    0.23570E-02   -0.10020E-02  4780   0.429E-02    0.126E-01
RMM:   4    -0.413189561295E+03   -0.23385E-01   -0.23866E-02  5155   0.129E-01    0.640E-01
RMM:   5    -0.413165792150E+03    0.23769E-01   -0.11695E-02  4821   0.106E-01    0.419E-02
RMM:   6    -0.413165937153E+03   -0.14500E-03   -0.18962E-03  5808   0.422E-02    0.276E-02
RMM:   7    -0.413165938157E+03   -0.10047E-05   -0.31129E-04  5685   0.164E-02    0.172E-02
RMM:   8    -0.413165933467E+03    0.46909E-05   -0.49429E-05  4952   0.753E-03    0.801E-03
RMM:   9    -0.413165932271E+03    0.11958E-05   -0.98808E-06  3585   0.360E-03    0.610E-03
RMM:  10    -0.413165933054E+03   -0.78286E-06   -0.14489E-06  2545   0.197E-03
    9 T=    61. E= -.41286692E+03 F= -.41316593E+03 E0= -.41314352E+03  EK= 0.29901E+00 SP= 0.00E+00 SK= 0.00E+00
       N       E                     dE             d eps       ncg     rms          rms(c)
RMM:   1    -0.413160790640E+03    0.51416E-02   -0.10172E+01  4297   0.695E-01    0.905E-01
RMM:   2    -0.413168293319E+03   -0.75027E-02   -0.12227E-01  4248   0.958E-02    0.636E-01
RMM:   3    -0.413168303930E+03   -0.10612E-04   -0.11567E-02  5088   0.616E-02    0.235E-01
RMM:   4    -0.413202502444E+03   -0.34199E-01   -0.44827E-02  5134   0.177E-01    0.789E-01
RMM:   5    -0.413165894209E+03    0.36608E-01   -0.16279E-02  4767   0.131E-01    0.573E-02
RMM:   6    -0.413166005833E+03   -0.11162E-03   -0.27666E-03  5634   0.517E-02    0.291E-02
RMM:   7    -0.413166020078E+03   -0.14245E-04   -0.40992E-04  6013   0.171E-02    0.182E-02
RMM:   8    -0.413166015894E+03    0.41834E-05   -0.67233E-05  5251   0.865E-03    0.816E-03
RMM:   9    -0.413166010896E+03    0.49980E-05   -0.11064E-05  3600   0.379E-03    0.419E-03
RMM:  10    -0.413166009635E+03    0.12610E-05   -0.25857E-06  2617   0.226E-03    0.293E-03
RMM:  11    -0.413166007937E+03    0.16979E-05   -0.11889E-06  2512   0.174E-03    0.149E-03
RMM:  12    -0.413166005932E+03    0.20052E-05   -0.80558E-07  2489   0.141E-03    0.502E-04
RMM:  13    -0.413166004998E+03    0.93395E-06   -0.39197E-07  2095   0.101E-03
   10 T=    61. E= -.41286677E+03 F= -.41316600E+03 E0= -.41314362E+03  EK= 0.29924E+00 SP= 0.00E+00 SK= 0.00E+00
       N       E                     dE             d eps       ncg     rms          rms(c)
RMM:   1    -0.413161243676E+03    0.47623E-02   -0.10135E+01  4286   0.708E-01    0.882E-01
RMM:   2    -0.413169346709E+03   -0.81030E-02   -0.12381E-01  4198   0.953E-02    0.639E-01
RMM:   3    -0.413167103690E+03    0.22430E-02   -0.98778E-03  4861   0.438E-02    0.133E-01
RMM:   4    -0.413197004415E+03   -0.29901E-01   -0.31078E-02  5142   0.146E-01    0.721E-01
RMM:   5    -0.413166566144E+03    0.30438E-01   -0.14809E-02  4804   0.120E-01    0.448E-02
RMM:   6    -0.413166744250E+03   -0.17811E-03   -0.24489E-03  5790   0.476E-02    0.286E-02
RMM:   7    -0.413166750068E+03   -0.58181E-05   -0.36643E-04  5743   0.171E-02    0.183E-02
RMM:   8    -0.413166746646E+03    0.34216E-05   -0.59436E-05  5018   0.802E-03    0.879E-03
RMM:   9    -0.413166745104E+03    0.15426E-05   -0.12285E-05  3834   0.395E-03    0.646E-03
RMM:  10    -0.413166746178E+03   -0.10744E-05   -0.17145E-06  2564   0.204E-03    0.418E-03
RMM:  11    -0.413166747638E+03   -0.14595E-05   -0.15731E-06  2550   0.193E-03    0.191E-03
RMM:  12    -0.413166748874E+03   -0.12363E-05   -0.13901E-06  2538   0.173E-03    0.814E-04
RMM:  13    -0.413166748983E+03   -0.10899E-06   -0.38743E-07  2214   0.108E-03
   11 T=    61. E= -.41286702E+03 F= -.41316675E+03 E0= -.41314439E+03  EK= 0.29973E+00 SP= 0.00E+00 SK= 0.00E+00
       N       E                     dE             d eps       ncg     rms          rms(c)
RMM:   1    -0.413161284541E+03    0.54643E-02   -0.10210E+01  4292   0.712E-01    0.894E-01
RMM:   2    -0.413169272467E+03   -0.79879E-02   -0.12475E-01  4198   0.950E-02    0.647E-01
RMM:   3    -0.413166935415E+03    0.23371E-02   -0.99878E-03  4792   0.415E-02    0.124E-01
RMM:   4    -0.413190475814E+03   -0.23540E-01   -0.24212E-02  5142   0.129E-01    0.641E-01
RMM:   5    -0.413166563760E+03    0.23912E-01   -0.11678E-02  4810   0.106E-01    0.418E-02
RMM:   6    -0.413166713105E+03   -0.14935E-03   -0.19836E-03  5814   0.421E-02    0.266E-02
RMM:   7    -0.413166719642E+03   -0.65371E-05   -0.29733E-04  5714   0.160E-02    0.170E-02
RMM:   8    -0.413166715112E+03    0.45305E-05   -0.54635E-05  4941   0.776E-03    0.843E-03
RMM:   9    -0.413166713751E+03    0.13609E-05   -0.10847E-05  3746   0.379E-03    0.648E-03
RMM:  10    -0.413166714705E+03   -0.95414E-06   -0.14633E-06  2538   0.200E-03
   12 T=    61. E= -.41286673E+03 F= -.41316671E+03 E0= -.41314438E+03  EK= 0.29998E+00 SP= 0.00E+00 SK= 0.00E+00
       N       E                     dE             d eps       ncg     rms          rms(c)
RMM:   1    -0.413162201054E+03    0.45127E-02   -0.10210E+01  4307   0.708E-01    0.910E-01
RMM:   2    -0.413169312280E+03   -0.71112E-02   -0.12263E-01  4284   0.920E-02    0.639E-01
RMM:   3    -0.413169921519E+03   -0.60924E-03   -0.12004E-02  5102   0.628E-02    0.250E-01
RMM:   4    -0.413201933525E+03   -0.32012E-01   -0.44126E-02  5116   0.176E-01    0.769E-01
RMM:   5    -0.413167131893E+03    0.34802E-01   -0.15226E-02  4756   0.127E-01    0.568E-02
RMM:   6    -0.413167237753E+03   -0.10586E-03   -0.25867E-03  5617   0.502E-02    0.291E-02
RMM:   7    -0.413167249177E+03   -0.11424E-04   -0.39106E-04  6003   0.169E-02    0.182E-02
RMM:   8    -0.413167243952E+03    0.52248E-05   -0.66605E-05  5238   0.865E-03    0.808E-03
RMM:   9    -0.413167238125E+03    0.58269E-05   -0.10699E-05  3558   0.378E-03    0.405E-03
RMM:  10    -0.413167236047E+03    0.20788E-05   -0.24611E-06  2612   0.223E-03    0.281E-03
RMM:  11    -0.413167233235E+03    0.28113E-05   -0.11841E-06  2512   0.174E-03    0.145E-03
RMM:  12    -0.413167230249E+03    0.29862E-05   -0.76460E-07  2481   0.139E-03    0.479E-04
RMM:  13    -0.413167228879E+03    0.13697E-05   -0.36954E-07  2048   0.992E-04    0.306E-04
RMM:  14    -0.413167227711E+03    0.11681E-05   -0.21658E-07  1594   0.795E-04    0.210E-04
RMM:  15    -0.413167225899E+03    0.18128E-05   -0.18838E-07  1409   0.741E-04    0.102E-04
RMM:  16    -0.413167223932E+03    0.19668E-05   -0.16664E-07  1437   0.715E-04    0.120E-04
RMM:  17    -0.413167222244E+03    0.16878E-05   -0.12544E-07  1326   0.655E-04    0.700E-05
RMM:  18    -0.413167220709E+03    0.15349E-05   -0.94342E-08  1132   0.601E-04    0.287E-05
RMM:  19    -0.413167220258E+03    0.45061E-06   -0.43407E-08   853   0.541E-04
   13 T=    61. E= -.41286680E+03 F= -.41316722E+03 E0= -.41314492E+03  EK= 0.30042E+00 SP= 0.00E+00 SK= 0.00E+00
       N       E                     dE             d eps       ncg     rms          rms(c)
RMM:   1    -0.413162321554E+03    0.48992E-02   -0.10139E+01  4293   0.717E-01    0.886E-01
RMM:   2    -0.413170343896E+03   -0.80223E-02   -0.12353E-01  4228   0.925E-02    0.638E-01
RMM:   3    -0.413168384239E+03    0.19597E-02   -0.99532E-03  4939   0.427E-02    0.143E-01
RMM:   4    -0.413202248371E+03   -0.33864E-01   -0.35757E-02  5138   0.157E-01    0.766E-01
RMM:   5    -0.413167716026E+03    0.34532E-01   -0.16811E-02  4794   0.127E-01    0.472E-02
RMM:   6    -0.413167908697E+03   -0.19267E-03   -0.27327E-03  5761   0.505E-02    0.298E-02
RMM:   7    -0.413167911938E+03   -0.32401E-05   -0.39885E-04  5739   0.177E-02    0.190E-02
RMM:   8    -0.413167907371E+03    0.45663E-05   -0.64335E-05  5125   0.829E-03    0.911E-03
RMM:   9    -0.413167904170E+03    0.32016E-05   -0.13358E-05  3969   0.412E-03    0.638E-03
RMM:  10    -0.413167903985E+03    0.18452E-06   -0.18615E-06  2559   0.206E-03
   14 T=    61. E= -.41286691E+03 F= -.41316790E+03 E0= -.41314563E+03  EK= 0.30099E+00 SP= 0.00E+00 SK= 0.00E+00
       N       E                     dE             d eps       ncg     rms          rms(c)
RMM:   1    -0.413162392798E+03    0.55114E-02   -0.10229E+01  4301   0.720E-01    0.891E-01
RMM:   2    -0.413170854674E+03   -0.84619E-02   -0.12556E-01  4310   0.961E-02    0.649E-01
RMM:   3    -0.413171866393E+03   -0.10117E-02   -0.12953E-02  5109   0.712E-02    0.285E-01
RMM:   4    -0.413201340577E+03   -0.29474E-01   -0.45871E-02  5101   0.180E-01    0.753E-01
RMM:   5    -0.413167848999E+03    0.33492E-01   -0.13920E-02  4719   0.123E-01    0.572E-02
RMM:   6    -0.413167934239E+03   -0.85240E-04   -0.24341E-03  5601   0.485E-02    0.271E-02
RMM:   7    -0.413167953227E+03   -0.18988E-04   -0.36901E-04  6009   0.166E-02    0.174E-02
RMM:   8    -0.413167954796E+03   -0.15686E-05   -0.68392E-05  5226   0.877E-03    0.791E-03
RMM:   9    -0.413167952613E+03    0.21825E-05   -0.10612E-05  3538   0.385E-03    0.366E-03
RMM:  10    -0.413167953815E+03   -0.12012E-05   -0.22902E-06  2585   0.217E-03    0.246E-03
RMM:  11    -0.413167955179E+03   -0.13648E-05   -0.14548E-06  2532   0.184E-03    0.142E-03
RMM:  12    -0.413167955683E+03   -0.50387E-06   -0.73936E-07  2469   0.139E-03
   15 T=    61. E= -.41286657E+03 F= -.41316796E+03 E0= -.41314572E+03  EK= 0.30138E+00 SP= 0.00E+00 SK= 0.00E+00
       N       E                     dE             d eps       ncg     rms          rms(c)
RMM:   1    -0.413163826746E+03    0.41284E-02   -0.10245E+01  4301   0.721E-01    0.912E-01
RMM:   2    -0.413171442911E+03   -0.76162E-02   -0.12352E-01  4253   0.985E-02    0.642E-01
RMM:   3    -0.413169553863E+03    0.18890E-02   -0.10376E-02  4919   0.473E-02    0.153E-01
RMM:   4    -0.413205818932E+03   -0.36265E-01   -0.38477E-02  5134   0.163E-01    0.793E-01
RMM:   5    -0.413168784302E+03    0.37035E-01   -0.17883E-02  4790   0.132E-01    0.494E-02
RMM:   6    -0.413169000836E+03   -0.21653E-03   -0.30774E-03  5774   0.528E-02    0.314E-02
RMM:   7    -0.413169002515E+03   -0.16788E-05   -0.43131E-04  5771   0.186E-02    0.203E-02
RMM:   8    -0.413168993922E+03    0.85922E-05   -0.70170E-05  5143   0.865E-03    0.101E-02
RMM:   9    -0.413168987452E+03    0.64704E-05   -0.14320E-05  4049   0.426E-03    0.702E-03
RMM:  10    -0.413168983799E+03    0.36530E-05   -0.20947E-06  2583   0.219E-03    0.451E-03
RMM:  11    -0.413168980408E+03    0.33910E-05   -0.14114E-06  2530   0.185E-03    0.235E-03
RMM:  12    -0.413168975231E+03    0.51766E-05   -0.16506E-06  2559   0.195E-03    0.881E-04
RMM:  13    -0.413168973818E+03    0.14132E-05   -0.51266E-07  2336   0.126E-03    0.656E-04
RMM:  14    -0.413168973763E+03    0.54701E-07   -0.22709E-07  1858   0.843E-04
   16 T=    61. E= -.41286694E+03 F= -.41316897E+03 E0= -.41314678E+03  EK= 0.30204E+00 SP= 0.00E+00 SK= 0.00E+00
       N       E                     dE             d eps       ncg     rms          rms(c)
RMM:   1    -0.413163916708E+03    0.50571E-02   -0.10167E+01  4298   0.722E-01    0.892E-01
RMM:   2    -0.413172002948E+03   -0.80862E-02   -0.12356E-01  4260   0.982E-02    0.638E-01
RMM:   3    -0.413169733075E+03    0.22699E-02   -0.98838E-03  4837   0.450E-02    0.137E-01
RMM:   4    -0.413199003980E+03   -0.29271E-01   -0.30302E-02  5137   0.145E-01    0.713E-01
RMM:   5    -0.413169234110E+03    0.29770E-01   -0.14548E-02  4805   0.118E-01    0.455E-02
RMM:   6    -0.413169422127E+03   -0.18802E-03   -0.24884E-03  5792   0.470E-02    0.294E-02
RMM:   7    -0.413169423264E+03   -0.11374E-05   -0.36482E-04  5707   0.174E-02    0.187E-02
RMM:   8    -0.413169415136E+03    0.81286E-05   -0.60107E-05  5011   0.816E-03    0.908E-03
RMM:   9    -0.413169410540E+03    0.45953E-05   -0.12447E-05  3865   0.399E-03    0.669E-03
RMM:  10    -0.413169408342E+03    0.21983E-05   -0.16757E-06  2550   0.206E-03    0.429E-03
RMM:  11    -0.413169405717E+03    0.26253E-05   -0.15641E-06  2538   0.196E-03    0.197E-03
RMM:  12    -0.413169402654E+03    0.30631E-05   -0.13087E-06  2517   0.176E-03    0.808E-04
RMM:  13    -0.413169402139E+03    0.51437E-06   -0.39680E-07  2215   0.111E-03
   17 T=    62. E= -.41286683E+03 F= -.41316940E+03 E0= -.41314724E+03  EK= 0.30257E+00 SP= 0.00E+00 SK= 0.00E+00
       N       E                     dE             d eps       ncg     rms          rms(c)
RMM:   1    -0.413164288329E+03    0.51143E-02   -0.10245E+01  4296   0.732E-01    0.889E-01
RMM:   2    -0.413172742862E+03   -0.84545E-02   -0.12602E-01  4270   0.960E-02    0.649E-01
RMM:   3    -0.413170204258E+03    0.25386E-02   -0.10233E-02  4833   0.452E-02    0.128E-01
RMM:   4    -0.413199170242E+03   -0.28966E-01   -0.30139E-02  5128   0.144E-01    0.710E-01
RMM:   5    -0.413169675583E+03    0.29495E-01   -0.14484E-02  4802   0.118E-01    0.440E-02
RMM:   6    -0.413169851556E+03   -0.17597E-03   -0.23603E-03  5813   0.463E-02    0.278E-02
RMM:   7    -0.413169858181E+03   -0.66253E-05   -0.33920E-04  5725   0.169E-02    0.177E-02
RMM:   8    -0.413169853817E+03    0.43635E-05   -0.62732E-05  5011   0.817E-03    0.899E-03
RMM:   9    -0.413169850970E+03    0.28474E-05   -0.13120E-05  3978   0.409E-03    0.660E-03
RMM:  10    -0.413169851112E+03   -0.14229E-06   -0.16884E-06  2554   0.203E-03
   18 T=    62. E= -.41286666E+03 F= -.41316985E+03 E0= -.41314773E+03  EK= 0.30319E+00 SP= 0.00E+00 SK= 0.00E+00
       N       E                     dE             d eps       ncg     rms          rms(c)
RMM:   1    -0.413165989865E+03    0.38611E-02   -0.10281E+01  4304   0.736E-01    0.911E-01
RMM:   2    -0.413173359570E+03   -0.73697E-02   -0.12457E-01  4322   0.953E-02    0.646E-01
RMM:   3    -0.413174489681E+03   -0.11301E-02   -0.12660E-02  5108   0.675E-02    0.273E-01
RMM:   4    -0.413204072183E+03   -0.29583E-01   -0.44417E-02  5097   0.177E-01    0.750E-01
RMM:   5    -0.413171004347E+03    0.33068E-01   -0.14069E-02  4725   0.123E-01    0.567E-02
RMM:   6    -0.413171100413E+03   -0.96066E-04   -0.24399E-03  5611   0.484E-02    0.287E-02
RMM:   7    -0.413171108825E+03   -0.84111E-05   -0.37105E-04  6002   0.167E-02    0.181E-02
RMM:   8    -0.413171102832E+03    0.59922E-05   -0.66717E-05  5209   0.868E-03    0.803E-03
RMM:   9    -0.413171095734E+03    0.70987E-05   -0.10405E-05  3556   0.381E-03    0.386E-03
RMM:  10    -0.413171093118E+03    0.26161E-05   -0.23085E-06  2591   0.219E-03    0.265E-03
RMM:  11    -0.413171089304E+03    0.38131E-05   -0.11996E-06  2512   0.175E-03    0.142E-03
RMM:  12    -0.413171085672E+03    0.36329E-05   -0.67761E-07  2448   0.136E-03    0.458E-04
RMM:  13    -0.413171083876E+03    0.17957E-05   -0.33249E-07  2018   0.962E-04    0.292E-04
RMM:  14    -0.413171082365E+03    0.15113E-05   -0.19229E-07  1523   0.776E-04    0.201E-04
RMM:  15    -0.413171079744E+03    0.26203E-05   -0.16672E-07  1406   0.731E-04    0.997E-05
RMM:  16    -0.413171077426E+03    0.23182E-05   -0.13085E-07  1347   0.686E-04    0.104E-04
RMM:  17    -0.413171074799E+03    0.26267E-05   -0.12006E-07  1379   0.662E-04    0.584E-05
RMM:  18    -0.413171073276E+03    0.15234E-05   -0.68054E-08  1041   0.577E-04    0.300E-05
RMM:  19    -0.413171072583E+03    0.69276E-06   -0.35859E-08   843   0.540E-04
   19 T=    62. E= -.41286700E+03 F= -.41317107E+03 E0= -.41314900E+03  EK= 0.30407E+00 SP= 0.00E+00 SK= 0.00E+00
       N       E                     dE             d eps       ncg     rms          rms(c)
RMM:   1    -0.413166130187E+03    0.49431E-02   -0.10224E+01  4296   0.734E-01    0.901E-01
RMM:   2    -0.413173672654E+03   -0.75425E-02   -0.12405E-01  4266   0.967E-02    0.639E-01
RMM:   3    -0.413172049346E+03    0.16233E-02   -0.10203E-02  4923   0.470E-02    0.155E-01
RMM:   4    -0.413209275215E+03   -0.37226E-01   -0.39753E-02  5134   0.165E-01    0.802E-01
RMM:   5    -0.413171265854E+03    0.38009E-01   -0.18508E-02  4795   0.134E-01    0.495E-02
RMM:   6    -0.413171469656E+03   -0.20380E-03   -0.30080E-03  5780   0.528E-02    0.315E-02
RMM:   7    -0.413171466418E+03    0.32381E-05   -0.42949E-04  5745   0.186E-02    0.200E-02
RMM:   8    -0.413171457574E+03    0.88440E-05   -0.70089E-05  5174   0.865E-03    0.966E-03
RMM:   9    -0.413171450929E+03    0.66444E-05   -0.14927E-05  4113   0.431E-03    0.657E-03
RMM:  10    -0.413171447295E+03    0.36347E-05   -0.21146E-06  2586   0.213E-03    0.426E-03
RMM:  11    -0.413171443967E+03    0.33273E-05   -0.11896E-06  2505   0.175E-03    0.223E-03
RMM:  12    -0.413171439146E+03    0.48218E-05   -0.14546E-06  2538   0.184E-03    0.820E-04
RMM:  13    -0.413171437626E+03    0.15199E-05   -0.46759E-07  2307   0.121E-03    0.608E-04
RMM:  14    -0.413171437647E+03   -0.21744E-07   -0.21419E-07  1819   0.821E-04
   20 T=    62. E= -.41286671E+03 F= -.41317144E+03 E0= -.41314940E+03  EK= 0.30473E+00 SP= 0.00E+00 SK= 0.00E+00
       N       E                     dE             d eps       ncg     rms          rms(c)
RMM:   1    -0.413166994098E+03    0.44435E-02   -0.10271E+01  4295   0.749E-01    0.889E-01
RMM:   2    -0.413175479378E+03   -0.84853E-02   -0.12720E-01  4269   0.976E-02    0.650E-01
RMM:   3    -0.413172904979E+03    0.25744E-02   -0.10219E-02  4875   0.444E-02    0.131E-01
RMM:   4    -0.413202579267E+03   -0.29674E-01   -0.30948E-02  5136   0.146E-01    0.718E-01
RMM:   5    -0.413172380172E+03    0.30199E-01   -0.14844E-02  4802   0.119E-01    0.448E-02
RMM:   6    -0.413172556245E+03   -0.17607E-03   -0.24851E-03  5818   0.469E-02    0.284E-02
RMM:   7    -0.413172561286E+03   -0.50416E-05   -0.34746E-04  5719   0.171E-02    0.180E-02
RMM:   8    -0.413172555939E+03    0.53475E-05   -0.64389E-05  5027   0.826E-03    0.922E-03
RMM:   9    -0.413172551929E+03    0.40100E-05   -0.13297E-05  4021   0.415E-03    0.668E-03
RMM:  10    -0.413172551163E+03    0.76598E-06   -0.17123E-06  2557   0.204E-03
   21 T=    62. E= -.41286685E+03 F= -.41317255E+03 E0= -.41315056E+03  EK= 0.30570E+00 SP= 0.00E+00 SK= 0.00E+00
       N       E                     dE             d eps       ncg     rms          rms(c)
RMM:   1    -0.413168362054E+03    0.41899E-02   -0.10329E+01  4299   0.751E-01    0.909E-01
RMM:   2    -0.413176196723E+03   -0.78347E-02   -0.12607E-01  4319   0.990E-02    0.650E-01
RMM:   3    -0.413176949584E+03   -0.75286E-03   -0.12711E-02  5085   0.683E-02    0.272E-01
RMM:   4    -0.413208004014E+03   -0.31054E-01   -0.45911E-02  5107   0.180E-01    0.765E-01
RMM:   5    -0.413173475620E+03    0.34528E-01   -0.14827E-02  4736   0.126E-01    0.563E-02
RMM:   6    -0.413173581772E+03   -0.10615E-03   -0.25618E-03  5634   0.494E-02    0.288E-02
RMM:   7    -0.413173590415E+03   -0.86431E-05   -0.37897E-04  5973   0.171E-02    0.183E-02
RMM:   8    -0.413173584563E+03    0.58522E-05   -0.68107E-05  5194   0.879E-03    0.815E-03
RMM:   9    -0.413173577642E+03    0.69210E-05   -0.11202E-05  3610   0.391E-03    0.395E-03
RMM:  10    -0.413173575130E+03    0.25121E-05   -0.24193E-06  2606   0.221E-03    0.272E-03
RMM:  11    -0.413173571436E+03    0.36939E-05   -0.11474E-06  2507   0.173E-03    0.142E-03
RMM:  12    -0.413173567668E+03    0.37673E-05   -0.68297E-07  2446   0.136E-03    0.431E-04
RMM:  13    -0.413173565738E+03    0.19304E-05   -0.33435E-07  2015   0.965E-04    0.272E-04
RMM:  14    -0.413173564175E+03    0.15624E-05   -0.19121E-07  1514   0.773E-04    0.181E-04
RMM:  15    -0.413173561626E+03    0.25493E-05   -0.15256E-07  1354   0.719E-04    0.955E-05
RMM:  16    -0.413173559275E+03    0.23514E-05   -0.11969E-07  1320   0.684E-04    0.108E-04
RMM:  17    -0.413173556845E+03    0.24299E-05   -0.10268E-07  1329   0.655E-04    0.610E-05
RMM:  18    -0.413173554917E+03    0.19281E-05   -0.68601E-08  1088   0.592E-04    0.242E-05
RMM:  19    -0.413173554222E+03    0.69504E-06   -0.34412E-08   840   0.542E-04
   22 T=    62. E= -.41286687E+03 F= -.41317355E+03 E0= -.41315161E+03  EK= 0.30669E+00 SP= 0.00E+00 SK= 0.00E+00
       N       E                     dE             d eps       ncg     rms          rms(c)
RMM:   1    -0.413169032573E+03    0.45223E-02   -0.10304E+01  4295   0.749E-01    0.911E-01
RMM:   2    -0.413176793609E+03   -0.77610E-02   -0.12528E-01  4278   0.100E-01    0.643E-01
RMM:   3    -0.413174749019E+03    0.20446E-02   -0.10392E-02  4869   0.491E-02    0.151E-01
RMM:   4    -0.413209891646E+03   -0.35143E-01   -0.37025E-02  5134   0.160E-01    0.779E-01
RMM:   5    -0.413174089559E+03    0.35802E-01   -0.17530E-02  4794   0.130E-01    0.485E-02
RMM:   6    -0.413174290222E+03   -0.20066E-03   -0.29088E-03  5790   0.514E-02    0.315E-02
RMM:   7    -0.413174288861E+03    0.13609E-05   -0.41313E-04  5714   0.186E-02    0.198E-02
RMM:   8    -0.413174278720E+03    0.10140E-04   -0.71766E-05  5131   0.877E-03    0.101E-02
RMM:   9    -0.413174270860E+03    0.78605E-05   -0.14923E-05  4143   0.436E-03    0.705E-03
RMM:  10    -0.413174266060E+03    0.48000E-05   -0.20067E-06  2573   0.216E-03    0.452E-03
RMM:  11    -0.413174261477E+03    0.45826E-05   -0.13767E-06  2521   0.186E-03    0.233E-03
RMM:  12    -0.413174254971E+03    0.65066E-05   -0.15254E-06  2533   0.191E-03    0.867E-04
RMM:  13    -0.413174252966E+03    0.20047E-05   -0.47377E-07  2317   0.123E-03    0.608E-04
RMM:  14    -0.413174253048E+03   -0.81807E-07   -0.22246E-07  1822   0.832E-04
   23 T=    63. E= -.41286669E+03 F= -.41317425E+03 E0= -.41315236E+03  EK= 0.30757E+00 SP= 0.00E+00 SK= 0.00E+00
       N       E                     dE             d eps       ncg     rms          rms(c)
RMM:   1    -0.413173779604E+03    0.47336E-03   -0.10343E+01  4292   0.807E-01    0.892E-01
RMM:   2    -0.413178910220E+03   -0.51306E-02   -0.12860E-01  4280   0.105E-01    0.649E-01
RMM:   3    -0.413176059886E+03    0.28503E-02   -0.10135E-02  4739   0.468E-02    0.127E-01
RMM:   4    -0.413200390494E+03   -0.24331E-01   -0.24966E-02  5133   0.131E-01    0.651E-01
RMM:   5    -0.413175706466E+03    0.24684E-01   -0.12230E-02  4805   0.108E-01    0.425E-02
RMM:   6    -0.413175840569E+03   -0.13410E-03   -0.20465E-03  5819   0.422E-02    0.267E-02
RMM:   7    -0.413175843420E+03   -0.28510E-05   -0.27856E-04  5682   0.158E-02    0.158E-02
RMM:   8    -0.413175838087E+03    0.53329E-05   -0.59464E-05  4984   0.791E-03    0.900E-03
RMM:   9    -0.413175833191E+03    0.48965E-05   -0.11911E-05  3947   0.402E-03    0.664E-03
RMM:  10    -0.413175831424E+03    0.17667E-05   -0.15351E-06  2547   0.203E-03    0.426E-03
RMM:  11    -0.413175828956E+03    0.24686E-05   -0.16533E-06  2535   0.206E-03    0.196E-03
RMM:  12    -0.413175826321E+03    0.26346E-05   -0.10848E-06  2472   0.166E-03    0.667E-04
RMM:  13    -0.413175825780E+03    0.54071E-06   -0.36560E-07  2141   0.104E-03
   24 T=    63. E= -.41286699E+03 F= -.41317583E+03 E0= -.41315398E+03  EK= 0.30884E+00 SP= 0.00E+00 SK= 0.00E+00
       N       E                     dE             d eps       ncg     rms          rms(c)
RMM:   1    -0.413175823255E+03    0.30658E-05   -0.10439E+01  4299   0.814E-01    0.905E-01
RMM:   2    -0.413179794613E+03   -0.39714E-02   -0.13779E-01  4282   0.107E-01    0.656E-01
RMM:   3    -0.413176954160E+03    0.28405E-02   -0.98345E-03  4693   0.432E-02    0.135E-01
RMM:   4    -0.413195683602E+03   -0.18729E-01   -0.19236E-02  5138   0.116E-01    0.573E-01
RMM:   5    -0.413176703692E+03    0.18980E-01   -0.93958E-03  4812   0.944E-02    0.406E-02
RMM:   6    -0.413176797211E+03   -0.93519E-04   -0.15857E-03  5829   0.366E-02    0.241E-02
RMM:   7    -0.413176795681E+03    0.15303E-05   -0.17722E-04  5596   0.129E-02    0.109E-02
RMM:   8    -0.413176790556E+03    0.51249E-05   -0.30598E-05  4721   0.570E-03    0.733E-03
RMM:   9    -0.413176787307E+03    0.32485E-05   -0.53055E-06  3005   0.270E-03    0.527E-03
RMM:  10    -0.413176786171E+03    0.11359E-05   -0.11886E-06  2515   0.176E-03    0.381E-03
RMM:  11    -0.413176781502E+03    0.46693E-05   -0.18612E-06  2543   0.222E-03    0.185E-03
RMM:  12    -0.413176778748E+03    0.27541E-05   -0.88453E-07  2439   0.157E-03    0.109E-03
RMM:  13    -0.413176778186E+03    0.56242E-06   -0.26193E-07  2080   0.938E-04
   25 T=    63. E= -.41286677E+03 F= -.41317678E+03 E0= -.41315498E+03  EK= 0.31001E+00 SP= 0.00E+00 SK= 0.00E+00
       N       E                     dE             d eps       ncg     rms          rms(c)
RMM:   1    -0.413173086584E+03    0.36922E-02   -0.10408E+01  4296   0.766E-01    0.920E-01
RMM:   2    -0.413180471599E+03   -0.73850E-02   -0.12661E-01  4280   0.990E-02    0.648E-01
RMM:   3    -0.413178397153E+03    0.20744E-02   -0.10329E-02  4704   0.451E-02    0.134E-01
RMM:   4    -0.413199192491E+03   -0.20795E-01   -0.21267E-02  5144   0.122E-01    0.603E-01
RMM:   5    -0.413178091755E+03    0.21101E-01   -0.10515E-02  4815   0.996E-02    0.426E-02
RMM:   6    -0.413178194908E+03   -0.10315E-03   -0.17709E-03  5821   0.390E-02    0.262E-02
RMM:   7    -0.413178187666E+03    0.72421E-05   -0.22492E-04  5669   0.146E-02    0.138E-02
RMM:   8    -0.413178180252E+03    0.74135E-05   -0.49165E-05  4959   0.720E-03    0.901E-03
RMM:   9    -0.413178173504E+03    0.67490E-05   -0.99878E-06  3762   0.371E-03    0.675E-03
RMM:  10    -0.413178168496E+03    0.50078E-05   -0.14293E-06  2536   0.206E-03    0.421E-03
RMM:  11    -0.413178161609E+03    0.68871E-05   -0.15581E-06  2532   0.201E-03    0.201E-03
RMM:  12    -0.413178154046E+03    0.75628E-05   -0.10099E-06  2464   0.164E-03    0.650E-04
RMM:  13    -0.413178152448E+03    0.15981E-05   -0.35610E-07  2140   0.104E-03    0.475E-04
RMM:  14    -0.413178151502E+03    0.94597E-06   -0.17376E-07  1629   0.765E-04
   26 T=    63. E= -.41286681E+03 F= -.41317815E+03 E0= -.41315640E+03  EK= 0.31134E+00 SP= 0.00E+00 SK= 0.00E+00
       N       E                     dE             d eps       ncg     rms          rms(c)
RMM:   1    -0.413174442038E+03    0.37104E-02   -0.10374E+01  4294   0.785E-01    0.897E-01
RMM:   2    -0.413182505097E+03   -0.80631E-02   -0.12813E-01  4284   0.102E-01    0.650E-01
RMM:   3    -0.413180179189E+03    0.23259E-02   -0.10265E-02  4765   0.465E-02    0.130E-01
RMM:   4    -0.413204821940E+03   -0.24643E-01   -0.25298E-02  5146   0.132E-01    0.655E-01
RMM:   5    -0.413179791038E+03    0.25031E-01   -0.12429E-02  4806   0.109E-01    0.434E-02
RMM:   6    -0.413179921172E+03   -0.13013E-03   -0.20991E-03  5817   0.429E-02    0.282E-02
RMM:   7    -0.413179918664E+03    0.25074E-05   -0.30736E-04  5683   0.165E-02    0.171E-02
RMM:   8    -0.413179910673E+03    0.79908E-05   -0.59730E-05  4989   0.809E-03    0.909E-03
RMM:   9    -0.413179904869E+03    0.58048E-05   -0.11629E-05  3882   0.399E-03    0.663E-03
RMM:  10    -0.413179901700E+03    0.31688E-05   -0.15374E-06  2546   0.204E-03    0.418E-03
RMM:  11    -0.413179898003E+03    0.36967E-05   -0.13695E-06  2520   0.189E-03    0.200E-03
RMM:  12    -0.413179893613E+03    0.43901E-05   -0.11509E-06  2488   0.169E-03    0.717E-04
RMM:  13    -0.413179892492E+03    0.11209E-05   -0.37549E-07  2193   0.108E-03    0.465E-04
RMM:  14    -0.413179892041E+03    0.45106E-06   -0.18126E-07  1648   0.772E-04
   27 T=    64. E= -.41286701E+03 F= -.41317989E+03 E0= -.41315819E+03  EK= 0.31288E+00 SP= 0.00E+00 SK= 0.00E+00
       N       E                     dE             d eps       ncg     rms          rms(c)
RMM:   1    -0.413176591603E+03    0.33009E-02   -0.10498E+01  4296   0.812E-01    0.906E-01
RMM:   2    -0.413183842052E+03   -0.72504E-02   -0.13215E-01  4279   0.107E-01    0.661E-01
RMM:   3    -0.413181275497E+03    0.25666E-02   -0.10550E-02  4725   0.468E-02    0.126E-01
RMM:   4    -0.413202267395E+03   -0.20992E-01   -0.21432E-02  5148   0.122E-01    0.606E-01
RMM:   5    -0.413180985029E+03    0.21282E-01   -0.10614E-02  4810   0.100E-01    0.415E-02
RMM:   6    -0.413181088954E+03   -0.10393E-03   -0.17730E-03  5824   0.393E-02    0.261E-02
RMM:   7    -0.413181088226E+03    0.72798E-06   -0.25038E-04  5679   0.151E-02    0.150E-02
RMM:   8    -0.413181082649E+03    0.55775E-05   -0.54392E-05  4955   0.765E-03    0.870E-03
RMM:   9    -0.413181077474E+03    0.51749E-05   -0.10691E-05  3843   0.387E-03    0.639E-03
RMM:  10    -0.413181075151E+03    0.23226E-05   -0.14079E-06  2532   0.200E-03    0.398E-03
RMM:  11    -0.413181072126E+03    0.30257E-05   -0.14084E-06  2518   0.192E-03    0.189E-03
RMM:  12    -0.413181068681E+03    0.34445E-05   -0.99131E-07  2455   0.159E-03    0.617E-04
RMM:  13    -0.413181067846E+03    0.83505E-06   -0.34674E-07  2119   0.102E-03
   28 T=    64. E= -.41286670E+03 F= -.41318107E+03 E0= -.41315942E+03  EK= 0.31437E+00 SP= 0.00E+00 SK= 0.00E+00
       N       E                     dE             d eps       ncg     rms          rms(c)
RMM:   1    -0.413178020632E+03    0.30480E-02   -0.10529E+01  4293   0.789E-01    0.928E-01
RMM:   2    -0.413185484316E+03   -0.74637E-02   -0.12913E-01  4276   0.105E-01    0.655E-01
RMM:   3    -0.413183152558E+03    0.23318E-02   -0.10725E-02  4514   0.493E-02    0.128E-01
RMM:   4    -0.413193794227E+03   -0.10642E-01   -0.10977E-02  5154   0.878E-02    0.434E-01
RMM:   5    -0.413183072624E+03    0.10722E-01   -0.54537E-03  4833   0.714E-02    0.387E-02
RMM:   6    -0.413183105279E+03   -0.32655E-04   -0.94853E-04  5816   0.287E-02    0.237E-02
RMM:   7    -0.413183103690E+03    0.15888E-05   -0.21893E-04  5440   0.148E-02    0.157E-02
RMM:   8    -0.413183085772E+03    0.17918E-04   -0.26713E-05  4526   0.632E-03    0.649E-03
RMM:   9    -0.413183081912E+03    0.38601E-05   -0.58999E-06  3124   0.294E-03    0.489E-03
RMM:  10    -0.413183076379E+03    0.55332E-05   -0.13331E-06  2494   0.202E-03    0.270E-03
RMM:  11    -0.413183069842E+03    0.65367E-05   -0.94923E-07  2485   0.164E-03    0.130E-03
RMM:  12    -0.413183063972E+03    0.58697E-05   -0.45938E-07  2301   0.117E-03    0.500E-04
RMM:  13    -0.413183061692E+03    0.22802E-05   -0.22242E-07  1832   0.830E-04    0.269E-04
RMM:  14    -0.413183059055E+03    0.26368E-05   -0.12643E-07  1389   0.703E-04    0.193E-04
RMM:  15    -0.413183053446E+03    0.56088E-05   -0.11544E-07  1369   0.696E-04    0.105E-04
RMM:  16    -0.413183052320E+03    0.11260E-05   -0.47990E-08   938   0.595E-04    0.732E-05
RMM:  17    -0.413183047268E+03    0.50526E-05   -0.86981E-08  1399   0.665E-04    0.838E-05
RMM:  18    -0.413183045778E+03    0.14893E-05   -0.35454E-08   899   0.546E-04    0.390E-05
RMM:  19    -0.413183045393E+03    0.38492E-06   -0.14671E-08   708   0.515E-04
   29 T=    64. E= -.41286685E+03 F= -.41318305E+03 E0= -.41316145E+03  EK= 0.31620E+00 SP= 0.00E+00 SK= 0.00E+00
       N       E                     dE             d eps       ncg     rms          rms(c)
RMM:   1    -0.413179386830E+03    0.36589E-02   -0.10484E+01  4286   0.799E-01    0.907E-01
RMM:   2    -0.413187822091E+03   -0.84353E-02   -0.13036E-01  4266   0.110E-01    0.653E-01
RMM:   3    -0.413185004060E+03    0.28180E-02   -0.10461E-02  4518   0.482E-02    0.123E-01
RMM:   4    -0.413195424414E+03   -0.10420E-01   -0.10780E-02  5156   0.876E-02    0.430E-01
RMM:   5    -0.413184913402E+03    0.10511E-01   -0.53181E-03  4826   0.705E-02    0.380E-02
RMM:   6    -0.413184949561E+03   -0.36159E-04   -0.91913E-04  5827   0.283E-02    0.235E-02
RMM:   7    -0.413184951168E+03   -0.16072E-05   -0.21561E-04  5443   0.145E-02    0.155E-02
RMM:   8    -0.413184934911E+03    0.16257E-04   -0.27300E-05  4583   0.629E-03    0.667E-03
RMM:   9    -0.413184932689E+03    0.22216E-05   -0.52856E-06  3039   0.287E-03    0.494E-03
RMM:  10    -0.413184929102E+03    0.35869E-05   -0.13167E-06  2491   0.195E-03    0.275E-03
RMM:  11    -0.413184925239E+03    0.38632E-05   -0.86477E-07  2468   0.158E-03    0.137E-03
RMM:  12    -0.413184921527E+03    0.37124E-05   -0.53340E-07  2337   0.122E-03    0.665E-04
RMM:  13    -0.413184920121E+03    0.14061E-05   -0.23039E-07  1859   0.851E-04    0.301E-04
RMM:  14    -0.413184918437E+03    0.16832E-05   -0.12604E-07  1328   0.697E-04    0.185E-04
RMM:  15    -0.413184915459E+03    0.29789E-05   -0.97184E-08  1239   0.669E-04    0.811E-05
RMM:  16    -0.413184914242E+03    0.12169E-05   -0.49806E-08   953   0.610E-04    0.680E-05
RMM:  17    -0.413184912239E+03    0.20025E-05   -0.48569E-08  1004   0.608E-04    0.500E-05
RMM:  18    -0.413184909837E+03    0.24025E-05   -0.50379E-08  1096   0.603E-04    0.338E-05
RMM:  19    -0.413184909339E+03    0.49763E-06   -0.17168E-08   722   0.535E-04
   30 T=    65. E= -.41286696E+03 F= -.41318491E+03 E0= -.41316336E+03  EK= 0.31795E+00 SP= 0.00E+00 SK= 0.00E+00
       N       E                     dE             d eps       ncg     rms          rms(c)
RMM:   1    -0.413189507934E+03   -0.45981E-02   -0.10688E+01  4291   0.869E-01    0.907E-01
RMM:   2    -0.413190176854E+03   -0.66892E-03   -0.15022E-01  4280   0.122E-01    0.668E-01
RMM:   3    -0.413186496158E+03    0.36807E-02   -0.10042E-02  4336   0.500E-02    0.137E-01
RMM:   4    -0.413188852961E+03   -0.23568E-02   -0.32393E-03  5119   0.476E-02    0.203E-01
RMM:   5    -0.413186564140E+03    0.22888E-02   -0.11581E-03  4810   0.338E-02    0.348E-02
RMM:   6    -0.413186572421E+03   -0.82802E-05   -0.33538E-04  5605   0.182E-02    0.241E-02
RMM:   7    -0.413186558166E+03    0.14254E-04   -0.17668E-04  5069   0.130E-02    0.135E-02
RMM:   8    -0.413186551723E+03    0.64435E-05   -0.13119E-05  3832   0.465E-03    0.529E-03
RMM:   9    -0.413186550952E+03    0.77085E-06   -0.18211E-06  2507   0.196E-03
   31 T=    65. E= -.41286678E+03 F= -.41318655E+03 E0= -.41316505E+03  EK= 0.31977E+00 SP= 0.00E+00 SK= 0.00E+00
       N       E                     dE             d eps       ncg     rms          rms(c)
RMM:   1    -0.413185368763E+03    0.11830E-02   -0.10678E+01  4291   0.839E-01    0.934E-01
RMM:   2    -0.413192079305E+03   -0.67105E-02   -0.13317E-01  4283   0.125E-01    0.663E-01
RMM:   3    -0.413189131394E+03    0.29479E-02   -0.10966E-02  4337   0.532E-02    0.123E-01
RMM:   4    -0.413189697862E+03   -0.56647E-03   -0.13644E-03  5077   0.306E-02    0.991E-02
RMM:   5    -0.413189219270E+03    0.47859E-03   -0.31290E-04  4796   0.183E-02    0.389E-02
RMM:   6    -0.413189206391E+03    0.12879E-04   -0.24836E-04  5297   0.163E-02    0.285E-02
RMM:   7    -0.413189177156E+03    0.29235E-04   -0.17295E-04  4758   0.124E-02    0.149E-02
RMM:   8    -0.413189172585E+03    0.45712E-05   -0.14238E-05  3963   0.451E-03    0.583E-03
RMM:   9    -0.413189170899E+03    0.16857E-05   -0.34823E-06  2414   0.204E-03    0.206E-03
RMM:  10    -0.413189161239E+03    0.96598E-05   -0.10663E-06  2378   0.164E-03    0.756E-04
RMM:  11    -0.413189156826E+03    0.44135E-05   -0.35951E-07  2067   0.102E-03    0.378E-04
RMM:  12    -0.413189152426E+03    0.43995E-05   -0.19666E-07  1589   0.801E-04    0.236E-04
RMM:  13    -0.413189147053E+03    0.53733E-05   -0.11661E-07  1233   0.679E-04    0.158E-04
RMM:  14    -0.413189141498E+03    0.55548E-05   -0.96952E-08  1200   0.655E-04    0.131E-04
RMM:  15    -0.413189136614E+03    0.48843E-05   -0.78984E-08  1119   0.615E-04    0.632E-05
RMM:  16    -0.413189133325E+03    0.32885E-05   -0.49068E-08   892   0.564E-04    0.404E-05
RMM:  17    -0.413189132226E+03    0.10995E-05   -0.22203E-08   636   0.513E-04    0.321E-05
RMM:  18    -0.413189131506E+03    0.72040E-06   -0.15685E-08   578   0.506E-04
   32 T=    66. E= -.41286706E+03 F= -.41318913E+03 E0= -.41316768E+03  EK= 0.32207E+00 SP= 0.00E+00 SK= 0.00E+00
       N       E                     dE             d eps       ncg     rms          rms(c)
RMM:   1    -0.413186326091E+03    0.28061E-02   -0.10643E+01  4284   0.845E-01    0.921E-01
RMM:   2    -0.413193923756E+03   -0.75977E-02   -0.13423E-01  4272   0.126E-01    0.659E-01
RMM:   3    -0.413191061318E+03    0.28624E-02   -0.10678E-02  4291   0.512E-02    0.125E-01
RMM:   4    -0.413192456831E+03   -0.13955E-02   -0.21029E-03  5104   0.389E-02    0.156E-01
RMM:   5    -0.413191162921E+03    0.12939E-02   -0.67975E-04  4789   0.264E-02    0.362E-02
RMM:   6    -0.413191161856E+03    0.10649E-05   -0.29666E-04  5509   0.176E-02    0.261E-02
RMM:   7    -0.413191135663E+03    0.26193E-04   -0.17870E-04  4957   0.129E-02    0.149E-02
RMM:   8    -0.413191129561E+03    0.61016E-05   -0.15428E-05  4042   0.475E-03    0.574E-03
RMM:   9    -0.413191127969E+03    0.15924E-05   -0.25493E-06  2505   0.202E-03    0.271E-03
RMM:  10    -0.413191121947E+03    0.60217E-05   -0.86443E-07  2414   0.148E-03    0.128E-03
RMM:  11    -0.413191117938E+03    0.40096E-05   -0.39605E-07  2044   0.102E-03    0.566E-04
RMM:  12    -0.413191113589E+03    0.43484E-05   -0.23941E-07  1779   0.843E-04    0.235E-04
RMM:  13    -0.413191110397E+03    0.31920E-05   -0.11809E-07  1193   0.680E-04    0.160E-04
RMM:  14    -0.413191106666E+03    0.37314E-05   -0.83471E-08  1039   0.638E-04    0.120E-04
RMM:  15    -0.413191102096E+03    0.45695E-05   -0.79339E-08  1100   0.636E-04    0.628E-05
RMM:  16    -0.413191100180E+03    0.19162E-05   -0.41916E-08   852   0.571E-04    0.569E-05
RMM:  17    -0.413191098129E+03    0.20514E-05   -0.31131E-08   756   0.549E-04    0.232E-05
RMM:  18    -0.413191097158E+03    0.97048E-06   -0.19508E-08   615   0.521E-04
   33 T=    66. E= -.41286683E+03 F= -.41319110E+03 E0= -.41316970E+03  EK= 0.32427E+00 SP= 0.00E+00 SK= 0.00E+00
       N       E                     dE             d eps       ncg     rms          rms(c)
RMM:   1    -0.413194561262E+03   -0.34631E-02   -0.10811E+01  4298   0.925E-01    0.913E-01
RMM:   2    -0.413196451584E+03   -0.18903E-02   -0.14965E-01  4272   0.137E-01    0.673E-01
RMM:   3    -0.413193578668E+03    0.28729E-02   -0.10495E-02  4214   0.582E-02    0.130E-01
RMM:   4    -0.413193863935E+03   -0.28527E-03   -0.12780E-03  4920   0.270E-02    0.703E-02
RMM:   5    -0.413193653929E+03    0.21001E-03   -0.17522E-04  4733   0.133E-02    0.371E-02
RMM:   6    -0.413193649493E+03    0.44357E-05   -0.21945E-04  5299   0.147E-02    0.247E-02
RMM:   7    -0.413193624934E+03    0.24559E-04   -0.16181E-04  4824   0.121E-02    0.144E-02
RMM:   8    -0.413193621194E+03    0.37402E-05   -0.14239E-05  3548   0.417E-03    0.432E-03
RMM:   9    -0.413193620639E+03    0.55521E-06   -0.21511E-06  2397   0.195E-03
   34 T=    67. E= -.41286686E+03 F= -.41319362E+03 E0= -.41317227E+03  EK= 0.32676E+00 SP= 0.00E+00 SK= 0.00E+00
       N       E                     dE             d eps       ncg     rms          rms(c)
RMM:   1    -0.413192687704E+03    0.93349E-03   -0.10853E+01  4302   0.889E-01    0.938E-01
RMM:   2    -0.413199212835E+03   -0.65251E-02   -0.13954E-01  4276   0.130E-01    0.672E-01
RMM:   3    -0.413196328865E+03    0.28840E-02   -0.10926E-02  4374   0.557E-02    0.127E-01
RMM:   4    -0.413197688918E+03   -0.13601E-02   -0.22311E-03  5128   0.394E-02    0.154E-01
RMM:   5    -0.413196418757E+03    0.12702E-02   -0.67550E-04  4802   0.263E-02    0.382E-02
RMM:   6    -0.413196408422E+03    0.10335E-04   -0.27995E-04  5480   0.171E-02    0.284E-02
RMM:   7    -0.413196384014E+03    0.24408E-04   -0.19207E-04  4871   0.124E-02    0.158E-02
RMM:   8    -0.413196378223E+03    0.57913E-05   -0.15693E-05  3763   0.441E-03    0.550E-03
RMM:   9    -0.413196376450E+03    0.17728E-05   -0.25592E-06  2478   0.198E-03    0.259E-03
RMM:  10    -0.413196367231E+03    0.92192E-05   -0.10063E-06  2409   0.157E-03    0.108E-03
RMM:  11    -0.413196362667E+03    0.45645E-05   -0.38072E-07  2033   0.998E-04    0.400E-04
RMM:  12    -0.413196357954E+03    0.47130E-05   -0.21203E-07  1653   0.809E-04    0.242E-04
RMM:  13    -0.413196354232E+03    0.37221E-05   -0.11405E-07  1180   0.674E-04    0.145E-04
RMM:  14    -0.413196347297E+03    0.69346E-05   -0.11845E-07  1263   0.684E-04    0.139E-04
RMM:  15    -0.413196342303E+03    0.49939E-05   -0.82259E-08  1139   0.627E-04    0.900E-05
RMM:  16    -0.413196339487E+03    0.28166E-05   -0.50312E-08   913   0.564E-04    0.464E-05
RMM:  17    -0.413196337628E+03    0.18581E-05   -0.27962E-08   691   0.525E-04    0.265E-05
RMM:  18    -0.413196336996E+03    0.63291E-06   -0.17699E-08   584   0.506E-04
   35 T=    67. E= -.41286698E+03 F= -.41319634E+03 E0= -.41317503E+03  EK= 0.32936E+00 SP= 0.00E+00 SK= 0.00E+00
       N       E                     dE             d eps       ncg     rms          rms(c)
RMM:   1    -0.413193922150E+03    0.24155E-02   -0.10847E+01  4299   0.906E-01    0.938E-01
RMM:   2    -0.413201015854E+03   -0.70937E-02   -0.13929E-01  4254   0.133E-01    0.667E-01
RMM:   3    -0.413198476566E+03    0.25393E-02   -0.11056E-02  4502   0.593E-02    0.138E-01
RMM:   4    -0.413210252666E+03   -0.11776E-01   -0.12104E-02  5175   0.926E-02    0.457E-01
RMM:   5    -0.413198448613E+03    0.11804E-01   -0.60487E-03  4818   0.760E-02    0.408E-02
RMM:   6    -0.413198446418E+03    0.21946E-05   -0.10635E-03  5803   0.319E-02    0.276E-02
RMM:   7    -0.413198443638E+03    0.27800E-05   -0.27217E-04  5418   0.160E-02    0.167E-02
RMM:   8    -0.413198426897E+03    0.16741E-04   -0.31690E-05  4738   0.670E-03    0.715E-03
RMM:   9    -0.413198423850E+03    0.30476E-05   -0.56957E-06  3068   0.297E-03    0.485E-03
RMM:  10    -0.413198418090E+03    0.57594E-05   -0.12452E-06  2504   0.194E-03    0.264E-03
RMM:  11    -0.413198411798E+03    0.62920E-05   -0.89302E-07  2472   0.158E-03    0.135E-03
RMM:  12    -0.413198405255E+03    0.65435E-05   -0.57799E-07  2359   0.126E-03    0.669E-04
RMM:  13    -0.413198402700E+03    0.25547E-05   -0.24591E-07  1870   0.874E-04    0.336E-04
RMM:  14    -0.413198400119E+03    0.25809E-05   -0.12669E-07  1316   0.694E-04    0.201E-04
RMM:  15    -0.413198395614E+03    0.45052E-05   -0.89574E-08  1201   0.663E-04    0.842E-05
RMM:  16    -0.413198392957E+03    0.26569E-05   -0.54520E-08   982   0.615E-04    0.696E-05
RMM:  17    -0.413198390124E+03    0.28325E-05   -0.47248E-08  1032   0.607E-04    0.585E-05
RMM:  18    -0.413198386372E+03    0.37525E-05   -0.49370E-08  1170   0.608E-04    0.411E-05
RMM:  19    -0.413198385489E+03    0.88311E-06   -0.21717E-08   798   0.530E-04
   36 T=    68. E= -.41286663E+03 F= -.41319839E+03 E0= -.41317712E+03  EK= 0.33176E+00 SP= 0.00E+00 SK= 0.00E+00
       N       E                     dE             d eps       ncg     rms          rms(c)
RMM:   1    -0.413220394229E+03   -0.22008E-01   -0.11152E+01  4302   0.110E+00    0.922E-01
RMM:   2    -0.413204944165E+03    0.15450E-01   -0.16091E-01  4246   0.143E-01    0.678E-01
RMM:   3    -0.413201646197E+03    0.32980E-02   -0.10435E-02  4673   0.569E-02    0.159E-01
RMM:   4    -0.413227344359E+03   -0.25698E-01   -0.26102E-02  5161   0.136E-01    0.669E-01
RMM:   5    -0.413201419878E+03    0.25924E-01   -0.13083E-02  4803   0.112E-01    0.455E-02
RMM:   6    -0.413201449691E+03   -0.29813E-04   -0.21818E-03  5844   0.440E-02    0.287E-02
RMM:   7    -0.413201459540E+03   -0.98491E-05   -0.29259E-04  5662   0.160E-02    0.154E-02
RMM:   8    -0.413201450847E+03    0.86934E-05   -0.56335E-05  4980   0.783E-03    0.923E-03
RMM:   9    -0.413201449288E+03    0.15582E-05   -0.16267E-05  4348   0.459E-03    0.674E-03
RMM:  10    -0.413201445266E+03    0.40224E-05   -0.20631E-06  2601   0.234E-03    0.396E-03
RMM:  11    -0.413201442863E+03    0.24032E-05   -0.11359E-06  2499   0.172E-03    0.243E-03
RMM:  12    -0.413201437087E+03    0.57755E-05   -0.15914E-06  2526   0.201E-03    0.113E-03
RMM:  13    -0.413201434704E+03    0.23830E-05   -0.53622E-07  2337   0.130E-03    0.670E-04
RMM:  14    -0.413201434455E+03    0.24906E-06   -0.22297E-07  1859   0.842E-04
   37 T=    68. E= -.41286698E+03 F= -.41320143E+03 E0= -.41318021E+03  EK= 0.33446E+00 SP= 0.00E+00 SK= 0.00E+00
       N       E                     dE             d eps       ncg     rms          rms(c)
RMM:   1    -0.413212797623E+03   -0.11363E-01   -0.11163E+01  4307   0.107E+00    0.941E-01
RMM:   2    -0.413207492269E+03    0.53054E-02   -0.15886E-01  4249   0.133E-01    0.683E-01
RMM:   3    -0.413204102669E+03    0.33896E-02   -0.10756E-02  4745   0.543E-02    0.165E-01
RMM:   4    -0.413235199613E+03   -0.31097E-01   -0.31719E-02  5159   0.149E-01    0.735E-01
RMM:   5    -0.413203744810E+03    0.31455E-01   -0.15865E-02  4801   0.123E-01    0.484E-02
RMM:   6    -0.413203792982E+03   -0.48172E-04   -0.26278E-03  5843   0.483E-02    0.304E-02
RMM:   7    -0.413203802875E+03   -0.98930E-05   -0.35074E-04  5716   0.172E-02    0.168E-02
RMM:   8    -0.413203792312E+03    0.10563E-04   -0.66117E-05  5043   0.842E-03    0.100E-02
RMM:   9    -0.413203789027E+03    0.32853E-05   -0.18262E-05  4458   0.487E-03    0.674E-03
RMM:  10    -0.413203783377E+03    0.56498E-05   -0.24404E-06  2635   0.244E-03    0.404E-03
RMM:  11    -0.413203779689E+03    0.36881E-05   -0.11823E-06  2493   0.177E-03    0.243E-03
RMM:  12    -0.413203771202E+03    0.84872E-05   -0.15093E-06  2514   0.201E-03    0.113E-03
RMM:  13    -0.413203767225E+03    0.39762E-05   -0.56670E-07  2353   0.133E-03    0.756E-04
RMM:  14    -0.413203767080E+03    0.14524E-06   -0.23502E-07  1920   0.865E-04
   38 T=    69. E= -.41286684E+03 F= -.41320377E+03 E0= -.41318259E+03  EK= 0.33693E+00 SP= 0.00E+00 SK= 0.00E+00
       N       E                     dE             d eps       ncg     rms          rms(c)
RMM:   1    -0.413203747257E+03    0.19969E-04   -0.11074E+01  4304   0.102E+00    0.955E-01
RMM:   2    -0.413209628917E+03   -0.58817E-02   -0.14556E-01  4256   0.123E-01    0.676E-01
RMM:   3    -0.413207125208E+03    0.25037E-02   -0.11674E-02  4976   0.563E-02    0.184E-01
RMM:   4    -0.413252876146E+03   -0.45751E-01   -0.49047E-02  5135   0.184E-01    0.888E-01
RMM:   5    -0.413206269017E+03    0.46607E-01   -0.23004E-02  4790   0.149E-01    0.557E-02
RMM:   6    -0.413206378223E+03   -0.10921E-03   -0.38357E-03  5824   0.581E-02    0.335E-02
RMM:   7    -0.413206388716E+03   -0.10494E-04   -0.44055E-04  5733   0.189E-02    0.178E-02
RMM:   8    -0.413206382091E+03    0.66253E-05   -0.63165E-05  4987   0.773E-03    0.994E-03
RMM:   9    -0.413206374564E+03    0.75268E-05   -0.20885E-05  4467   0.474E-03    0.721E-03
RMM:  10    -0.413206368983E+03    0.55814E-05   -0.48296E-06  2952   0.295E-03    0.433E-03
RMM:  11    -0.413206363173E+03    0.58100E-05   -0.16547E-06  2507   0.213E-03    0.259E-03
RMM:  12    -0.413206351116E+03    0.12057E-04   -0.15896E-06  2509   0.213E-03    0.941E-04
RMM:  13    -0.413206346433E+03    0.46828E-05   -0.57033E-07  2400   0.137E-03    0.763E-04
RMM:  14    -0.413206346343E+03    0.89691E-07   -0.24893E-07  2006   0.900E-04
   39 T=    69. E= -.41286686E+03 F= -.41320635E+03 E0= -.41318521E+03  EK= 0.33949E+00 SP= 0.00E+00 SK= 0.00E+00
       N       E                     dE             d eps       ncg     rms          rms(c)
RMM:   1    -0.413224296928E+03   -0.17950E-01   -0.11264E+01  4310   0.117E+00    0.933E-01
RMM:   2    -0.413213049205E+03    0.11248E-01   -0.16345E-01  4261   0.132E-01    0.682E-01
RMM:   3    -0.413210389349E+03    0.26599E-02   -0.11068E-02  5000   0.580E-02    0.207E-01
RMM:   4    -0.413263163057E+03   -0.52774E-01   -0.57783E-02  5135   0.200E-01    0.952E-01
RMM:   5    -0.413209139983E+03    0.54023E-01   -0.26511E-02  4787   0.160E-01    0.585E-02
RMM:   6    -0.413209277918E+03   -0.13794E-03   -0.44017E-03  5820   0.621E-02    0.340E-02
RMM:   7    -0.413209294965E+03   -0.17047E-04   -0.51626E-04  5820   0.200E-02    0.201E-02
RMM:   8    -0.413209295991E+03   -0.10254E-05   -0.11119E-04  5235   0.102E-02    0.132E-02
RMM:   9    -0.413209283207E+03    0.12784E-04   -0.28117E-05  4732   0.594E-03    0.692E-03
RMM:  10    -0.413209278495E+03    0.47123E-05   -0.48199E-06  2859   0.296E-03    0.430E-03
RMM:  11    -0.413209274552E+03    0.39430E-05   -0.16489E-06  2505   0.211E-03    0.254E-03
RMM:  12    -0.413209266939E+03    0.76129E-05   -0.14090E-06  2504   0.199E-03    0.867E-04
RMM:  13    -0.413209263020E+03    0.39192E-05   -0.59925E-07  2400   0.136E-03    0.615E-04
RMM:  14    -0.413209262205E+03    0.81431E-06   -0.26664E-07  1986   0.915E-04
   40 T=    70. E= -.41286707E+03 F= -.41320926E+03 E0= -.41318816E+03  EK= 0.34219E+00 SP= 0.00E+00 SK= 0.00E+00
       N       E                     dE             d eps       ncg     rms          rms(c)
RMM:   1    -0.413230948716E+03   -0.21686E-01   -0.11445E+01  4308   0.122E+00    0.944E-01
RMM:   2    -0.413215322286E+03    0.15626E-01   -0.18018E-01  4264   0.144E-01    0.695E-01
RMM:   3    -0.413213122726E+03    0.21996E-02   -0.11237E-02  5043   0.631E-02    0.248E-01
RMM:   4    -0.413270693123E+03   -0.57570E-01   -0.65966E-02  5126   0.214E-01    0.997E-01
RMM:   5    -0.413211228237E+03    0.59465E-01   -0.28832E-02  4774   0.168E-01    0.623E-02
RMM:   6    -0.413211382519E+03   -0.15428E-03   -0.47140E-03  5808   0.649E-02    0.347E-02
RMM:   7    -0.413211401743E+03   -0.19225E-04   -0.58076E-04  5869   0.210E-02    0.224E-02
RMM:   8    -0.413211402242E+03   -0.49923E-06   -0.13160E-04  5275   0.112E-02    0.140E-02
RMM:   9    -0.413211388205E+03    0.14038E-04   -0.27414E-05  4665   0.612E-03    0.623E-03
RMM:  10    -0.413211384029E+03    0.41762E-05   -0.60339E-06  3043   0.304E-03    0.395E-03
RMM:  11    -0.413211380402E+03    0.36262E-05   -0.15173E-06  2506   0.203E-03    0.229E-03
RMM:  12    -0.413211373997E+03    0.64057E-05   -0.11088E-06  2485   0.178E-03    0.750E-04
RMM:  13    -0.413211370452E+03    0.35447E-05   -0.52185E-07  2368   0.125E-03    0.472E-04
RMM:  14    -0.413211369282E+03    0.11698E-05   -0.25000E-07  1947   0.883E-04    0.322E-04
RMM:  15    -0.413211366671E+03    0.26113E-05   -0.13937E-07  1409   0.717E-04    0.141E-04
RMM:  16    -0.413211363189E+03    0.34821E-05   -0.10301E-07  1234   0.677E-04    0.128E-04
RMM:  17    -0.413211361334E+03    0.18547E-05   -0.62496E-08  1055   0.624E-04    0.770E-05
RMM:  18    -0.413211358388E+03    0.29466E-05   -0.60678E-08  1183   0.633E-04    0.661E-05
RMM:  19    -0.413211356440E+03    0.19474E-05   -0.37901E-08   985   0.590E-04    0.390E-05
RMM:  20    -0.413211355630E+03    0.80985E-06   -0.24805E-08   879   0.560E-04
   41 T=    70. E= -.41286678E+03 F= -.41321136E+03 E0= -.41319029E+03  EK= 0.34458E+00 SP= 0.00E+00 SK= 0.00E+00
       N       E                     dE             d eps       ncg     rms          rms(c)
RMM:   1    -0.413222205345E+03   -0.10849E-01   -0.11371E+01  4310   0.121E+00    0.969E-01
RMM:   2    -0.413217361203E+03    0.48441E-02   -0.15128E-01  4295   0.134E-01    0.686E-01
RMM:   3    -0.413217427676E+03   -0.66473E-04   -0.14228E-02  5071   0.751E-02    0.287E-01
RMM:   4    -0.413255563900E+03   -0.38136E-01   -0.53174E-02  5094   0.194E-01    0.840E-01
RMM:   5    -0.413213982967E+03    0.41581E-01   -0.18595E-02  4741   0.140E-01    0.590E-02
RMM:   6    -0.413214049824E+03   -0.66857E-04   -0.32592E-03  5761   0.541E-02    0.340E-02
RMM:   7    -0.413214058128E+03   -0.83035E-05   -0.44732E-04  5761   0.193E-02    0.217E-02
RMM:   8    -0.413214053708E+03    0.44200E-05   -0.11988E-04  5207   0.111E-02    0.125E-02
RMM:   9    -0.413214039035E+03    0.14672E-04   -0.20448E-05  4451   0.560E-03    0.525E-03
RMM:  10    -0.413214033715E+03    0.53200E-05   -0.44009E-06  2861   0.269E-03    0.339E-03
RMM:  11    -0.413214028327E+03    0.53881E-05   -0.12154E-06  2496   0.187E-03    0.183E-03
RMM:  12    -0.413214020089E+03    0.82379E-05   -0.78992E-07  2461   0.155E-03    0.667E-04
RMM:  13    -0.413214015538E+03    0.45510E-05   -0.37562E-07  2190   0.108E-03    0.343E-04
RMM:  14    -0.413214013546E+03    0.19924E-05   -0.19680E-07  1707   0.800E-04    0.224E-04
RMM:  15    -0.413214008647E+03    0.48985E-05   -0.12492E-07  1345   0.709E-04    0.124E-04
RMM:  16    -0.413214005593E+03    0.30538E-05   -0.80607E-08  1158   0.652E-04    0.100E-04
RMM:  17    -0.413214002403E+03    0.31901E-05   -0.64375E-08  1154   0.634E-04    0.689E-05
RMM:  18    -0.413213999516E+03    0.28877E-05   -0.51127E-08  1140   0.612E-04    0.445E-05
RMM:  19    -0.413213997129E+03    0.23863E-05   -0.40419E-08  1061   0.584E-04    0.376E-05
RMM:  20    -0.413213996754E+03    0.37546E-06   -0.18055E-08   754   0.536E-04
   42 T=    71. E= -.41286701E+03 F= -.41321400E+03 E0= -.41319296E+03  EK= 0.34699E+00 SP= 0.00E+00 SK= 0.00E+00
       N       E                     dE             d eps       ncg     rms          rms(c)
RMM:   1    -0.413238439963E+03   -0.24443E-01   -0.11471E+01  4310   0.135E+00    0.946E-01
RMM:   2    -0.413219605881E+03    0.18834E-01   -0.16743E-01  4304   0.148E-01    0.687E-01
RMM:   3    -0.413220393515E+03   -0.78763E-03   -0.14100E-02  5083   0.796E-02    0.321E-01
RMM:   4    -0.413257131840E+03   -0.36738E-01   -0.54722E-02  5090   0.197E-01    0.836E-01
RMM:   5    -0.413216092766E+03    0.41039E-01   -0.18088E-02  4728   0.139E-01    0.599E-02
RMM:   6    -0.413216157536E+03   -0.64770E-04   -0.31902E-03  5753   0.535E-02    0.335E-02
RMM:   7    -0.413216163711E+03   -0.61751E-05   -0.45408E-04  5784   0.191E-02    0.222E-02
RMM:   8    -0.413216160937E+03    0.27738E-05   -0.11851E-04  5199   0.111E-02    0.120E-02
RMM:   9    -0.413216148432E+03    0.12505E-04   -0.20812E-05  4464   0.563E-03    0.476E-03
RMM:  10    -0.413216144841E+03    0.35903E-05   -0.42682E-06  2817   0.263E-03    0.306E-03
RMM:  11    -0.413216140625E+03    0.42166E-05   -0.12807E-06  2501   0.186E-03    0.165E-03
RMM:  12    -0.413216134945E+03    0.56799E-05   -0.73539E-07  2443   0.146E-03    0.609E-04
RMM:  13    -0.413216131786E+03    0.31588E-05   -0.36255E-07  2086   0.103E-03    0.290E-04
RMM:  14    -0.413216129702E+03    0.20843E-05   -0.19669E-07  1577   0.789E-04    0.185E-04
RMM:  15    -0.413216125462E+03    0.42402E-05   -0.14020E-07  1301   0.717E-04    0.114E-04
RMM:  16    -0.413216123585E+03    0.18763E-05   -0.87486E-08  1131   0.658E-04    0.784E-05
RMM:  17    -0.413216120943E+03    0.26425E-05   -0.73764E-08  1190   0.651E-04    0.537E-05
RMM:  18    -0.413216118548E+03    0.23945E-05   -0.56840E-08  1124   0.619E-04    0.351E-05
RMM:  19    -0.413216116978E+03    0.15708E-05   -0.36975E-08   959   0.577E-04    0.222E-05
RMM:  20    -0.413216116550E+03    0.42775E-06   -0.20086E-08   758   0.544E-04
   43 T=    71. E= -.41286711E+03 F= -.41321612E+03 E0= -.41319511E+03  EK= 0.34900E+00 SP= 0.00E+00 SK= 0.00E+00
       N       E                     dE             d eps       ncg     rms          rms(c)
RMM:   1    -0.413236019601E+03   -0.19903E-01   -0.11551E+01  4310   0.138E+00    0.949E-01
RMM:   2    -0.413221232462E+03    0.14787E-01   -0.17441E-01  4306   0.164E-01    0.701E-01
RMM:   3    -0.413222903034E+03   -0.16706E-02   -0.15322E-02  5074   0.889E-02    0.355E-01
RMM:   4    -0.413257025536E+03   -0.34123E-01   -0.55655E-02  5076   0.200E-01    0.821E-01
RMM:   5    -0.413217435924E+03    0.39590E-01   -0.17018E-02  4715   0.137E-01    0.603E-02
RMM:   6    -0.413217475806E+03   -0.39882E-04   -0.29936E-03  5731   0.522E-02    0.331E-02
RMM:   7    -0.413217476170E+03   -0.36329E-06   -0.41894E-04  5793   0.188E-02    0.222E-02
RMM:   8    -0.413217473087E+03    0.30829E-05   -0.11092E-04  5175   0.109E-02    0.114E-02
RMM:   9    -0.413217462517E+03    0.10569E-04   -0.20479E-05  4431   0.559E-03    0.438E-03
RMM:  10    -0.413217460064E+03    0.24535E-05   -0.40195E-06  2802   0.256E-03    0.273E-03
RMM:  11    -0.413217456814E+03    0.32499E-05   -0.13424E-06  2510   0.185E-03    0.148E-03
RMM:  12    -0.413217452886E+03    0.39283E-05   -0.69886E-07  2434   0.141E-03    0.577E-04
RMM:  13    -0.413217450518E+03    0.23673E-05   -0.34828E-07  1970   0.978E-04    0.269E-04
RMM:  14    -0.413217448580E+03    0.19380E-05   -0.19990E-07  1494   0.780E-04    0.163E-04
RMM:  15    -0.413217445291E+03    0.32896E-05   -0.15531E-07  1321   0.726E-04    0.996E-05
RMM:  16    -0.413217443697E+03    0.15939E-05   -0.94951E-08  1148   0.663E-04    0.711E-05
RMM:  17    -0.413217441235E+03    0.24620E-05   -0.84706E-08  1243   0.659E-04    0.460E-05
RMM:  18    -0.413217439502E+03    0.17328E-05   -0.55167E-08  1059   0.609E-04    0.363E-05
RMM:  19    -0.413217438413E+03    0.10886E-05   -0.34989E-08   896   0.571E-04    0.208E-05
RMM:  20    -0.413217437983E+03    0.43071E-06   -0.20180E-08   758   0.547E-04
   44 T=    71. E= -.41286689E+03 F= -.41321744E+03 E0= -.41319646E+03  EK= 0.35055E+00 SP= 0.00E+00 SK= 0.00E+00
       N       E                     dE             d eps       ncg     rms          rms(c)
RMM:   1    -0.413248322807E+03   -0.30884E-01   -0.11666E+01  4310   0.151E+00    0.976E-01
RMM:   2    -0.413222184286E+03    0.26139E-01   -0.17016E-01  4360   0.170E-01    0.696E-01
RMM:   3    -0.413228732529E+03   -0.65482E-02   -0.19508E-02  5123   0.107E-01    0.449E-01
RMM:   4    -0.413242787705E+03   -0.14055E-01   -0.44350E-02  5047   0.182E-01    0.645E-01
RMM:   5    -0.413219150212E+03    0.23637E-01   -0.90303E-03  4645   0.108E-01    0.563E-02
RMM:   6    -0.413219124203E+03    0.26009E-04   -0.18120E-03  5575   0.411E-02    0.319E-02
RMM:   7    -0.413219119955E+03    0.42484E-05   -0.30144E-04  5637   0.167E-02    0.212E-02
RMM:   8    -0.413219110983E+03    0.89717E-05   -0.11051E-04  5079   0.109E-02    0.101E-02
RMM:   9    -0.413219097489E+03    0.13494E-04   -0.15605E-05  4260   0.536E-03    0.412E-03
RMM:  10    -0.413219093474E+03    0.40153E-05   -0.27359E-06  2693   0.227E-03    0.239E-03
RMM:  11    -0.413219087054E+03    0.64191E-05   -0.11541E-06  2486   0.176E-03    0.129E-03
RMM:  12    -0.413219080761E+03    0.62938E-05   -0.57552E-07  2406   0.132E-03    0.597E-04
RMM:  13    -0.413219077204E+03    0.35568E-05   -0.26936E-07  1835   0.897E-04    0.288E-04
RMM:  14    -0.413219073826E+03    0.33782E-05   -0.15288E-07  1355   0.719E-04    0.157E-04
RMM:  15    -0.413219068669E+03    0.51567E-05   -0.12313E-07  1290   0.695E-04    0.121E-04
RMM:  16    -0.413219066227E+03    0.24414E-05   -0.76186E-08  1089   0.632E-04    0.946E-05
RMM:  17    -0.413219061806E+03    0.44216E-05   -0.76416E-08  1305   0.649E-04    0.634E-05
RMM:  18    -0.413219059498E+03    0.23074E-05   -0.47110E-08  1038   0.578E-04    0.393E-05
RMM:  19    -0.413219058523E+03    0.97595E-06   -0.28216E-08   828   0.538E-04
   45 T=    72. E= -.41286718E+03 F= -.41321906E+03 E0= -.41319810E+03  EK= 0.35188E+00 SP= 0.00E+00 SK= 0.00E+00
       N       E                     dE             d eps       ncg     rms          rms(c)
RMM:   1    -0.413256907435E+03   -0.37848E-01   -0.11656E+01  4310   0.162E+00    0.958E-01
RMM:   2    -0.413222405350E+03    0.34502E-01   -0.18287E-01  4403   0.184E-01    0.692E-01
RMM:   3    -0.413231378002E+03   -0.89727E-02   -0.20660E-02  5126   0.115E-01    0.503E-01
RMM:   4    -0.413239429487E+03   -0.80515E-02   -0.42896E-02  5027   0.180E-01    0.600E-01
RMM:   5    -0.413219443148E+03    0.19986E-01   -0.75800E-03  4604   0.103E-01    0.561E-02
RMM:   6    -0.413219397721E+03    0.45427E-04   -0.14959E-03  5453   0.379E-02    0.311E-02
RMM:   7    -0.413219392732E+03    0.49888E-05   -0.25370E-04  5612   0.156E-02    0.210E-02
RMM:   8    -0.413219382531E+03    0.10201E-04   -0.11774E-04  5090   0.111E-02    0.101E-02
RMM:   9    -0.413219368557E+03    0.13975E-04   -0.16469E-05  4323   0.555E-03    0.406E-03
RMM:  10    -0.413219365313E+03    0.32435E-05   -0.27941E-06  2698   0.222E-03    0.232E-03
RMM:  11    -0.413219359134E+03    0.61792E-05   -0.12630E-06  2488   0.182E-03    0.129E-03
RMM:  12    -0.413219354322E+03    0.48116E-05   -0.55987E-07  2428   0.132E-03    0.653E-04
RMM:  13    -0.413219350917E+03    0.34059E-05   -0.26215E-07  1786   0.886E-04    0.321E-04
RMM:  14    -0.413219347530E+03    0.33862E-05   -0.14644E-07  1318   0.709E-04    0.168E-04
RMM:  15    -0.413219343498E+03    0.40327E-05   -0.11330E-07  1231   0.675E-04    0.117E-04
RMM:  16    -0.413219341090E+03    0.24081E-05   -0.74687E-08  1114   0.626E-04    0.102E-04
RMM:  17    -0.413219337829E+03    0.32602E-05   -0.64092E-08  1162   0.622E-04    0.590E-05
RMM:  18    -0.413219335183E+03    0.26465E-05   -0.50702E-08  1096   0.588E-04    0.474E-05
RMM:  19    -0.413219334490E+03    0.69325E-06   -0.23972E-08   798   0.529E-04
   46 T=    72. E= -.41286696E+03 F= -.41321933E+03 E0= -.41319839E+03  EK= 0.35237E+00 SP= 0.00E+00 SK= 0.00E+00
       N       E                     dE             d eps       ncg     rms          rms(c)
RMM:   1    -0.413243104851E+03   -0.23770E-01   -0.11557E+01  4310   0.164E+00    0.946E-01
RMM:   2    -0.413222647365E+03    0.20457E-01   -0.19113E-01  4384   0.200E-01    0.706E-01
RMM:   3    -0.413232049016E+03   -0.94017E-02   -0.21202E-02  5113   0.123E-01    0.523E-01
RMM:   4    -0.413240672072E+03   -0.86231E-02   -0.45887E-02  5027   0.187E-01    0.620E-01
RMM:   5    -0.413219145866E+03    0.21526E-01   -0.82174E-03  4602   0.107E-01    0.580E-02
RMM:   6    -0.413219095499E+03    0.50367E-04   -0.15861E-03  5453   0.391E-02    0.314E-02
RMM:   7    -0.413219090780E+03    0.47182E-05   -0.26181E-04  5664   0.158E-02    0.219E-02
RMM:   8    -0.413219080337E+03    0.10444E-04   -0.11928E-04  5120   0.112E-02    0.102E-02
RMM:   9    -0.413219067560E+03    0.12777E-04   -0.18144E-05  4362   0.574E-03    0.403E-03
RMM:  10    -0.413219065380E+03    0.21803E-05   -0.29977E-06  2725   0.227E-03    0.234E-03
RMM:  11    -0.413219061217E+03    0.41630E-05   -0.14263E-06  2512   0.187E-03    0.135E-03
RMM:  12    -0.413219058089E+03    0.31276E-05   -0.59045E-07  2437   0.135E-03    0.696E-04
RMM:  13    -0.413219055506E+03    0.25835E-05   -0.29623E-07  1813   0.920E-04    0.333E-04
RMM:  14    -0.413219053028E+03    0.24776E-05   -0.17261E-07  1364   0.740E-04    0.175E-04
RMM:  15    -0.413219050300E+03    0.27277E-05   -0.13363E-07  1263   0.694E-04    0.114E-04
RMM:  16    -0.413219048504E+03    0.17963E-05   -0.88976E-08  1172   0.640E-04    0.102E-04
RMM:  17    -0.413219046398E+03    0.21060E-05   -0.71757E-08  1161   0.619E-04    0.533E-05
RMM:  18    -0.413219044280E+03    0.21182E-05   -0.57581E-08  1059   0.589E-04    0.426E-05
RMM:  19    -0.413219043861E+03    0.41921E-06   -0.25748E-08   782   0.532E-04
   47 T=    72. E= -.41286691E+03 F= -.41321904E+03 E0= -.41319812E+03  EK= 0.35213E+00 SP= 0.00E+00 SK= 0.00E+00
       N       E                     dE             d eps       ncg     rms          rms(c)
RMM:   1    -0.413251664512E+03   -0.32620E-01   -0.11603E+01  4306   0.178E+00    0.970E-01
RMM:   2    -0.413221286157E+03    0.30378E-01   -0.18720E-01  4443   0.206E-01    0.701E-01
RMM:   3    -0.413237687703E+03   -0.16402E-01   -0.27498E-02  5137   0.142E-01    0.625E-01
RMM:   4    -0.413231271656E+03    0.64160E-02   -0.41344E-02  4987   0.181E-01    0.497E-01
RMM:   5    -0.413218159139E+03    0.13113E-01   -0.50422E-03  4532   0.922E-02    0.569E-02
RMM:   6    -0.413218061172E+03    0.97967E-04   -0.76833E-04  4960   0.306E-02    0.299E-02
RMM:   7    -0.413218045964E+03    0.15208E-04   -0.16207E-04  5836   0.124E-02    0.125E-02
RMM:   8    -0.413218040218E+03    0.57461E-05   -0.53747E-05  5222   0.796E-03    0.802E-03
RMM:   9    -0.413218032186E+03    0.80324E-05   -0.12943E-05  4094   0.428E-03    0.441E-03
RMM:  10    -0.413218030039E+03    0.21466E-05   -0.19936E-06  2546   0.229E-03    0.226E-03
RMM:  11    -0.413218024090E+03    0.59494E-05   -0.15933E-06  2485   0.201E-03    0.147E-03
RMM:  12    -0.413218019982E+03    0.41083E-05   -0.57197E-07  2384   0.138E-03    0.880E-04
RMM:  13    -0.413218015919E+03    0.40624E-05   -0.25340E-07  1845   0.921E-04    0.473E-04
RMM:  14    -0.413218011295E+03    0.46244E-05   -0.18125E-07  1651   0.779E-04    0.361E-04
RMM:  15    -0.413218007030E+03    0.42642E-05   -0.10624E-07  1098   0.624E-04    0.169E-04
RMM:  16    -0.413218004582E+03    0.24486E-05   -0.65993E-08   992   0.578E-04    0.110E-04
RMM:  17    -0.413218002309E+03    0.22726E-05   -0.50419E-08   954   0.568E-04    0.907E-05
RMM:  18    -0.413217999677E+03    0.26324E-05   -0.48499E-08  1005   0.573E-04    0.642E-05
RMM:  19    -0.413217999177E+03    0.50008E-06   -0.17423E-08   664   0.505E-04
   48 T=    71. E= -.41286717E+03 F= -.41321800E+03 E0= -.41319709E+03  EK= 0.35083E+00 SP= 0.00E+00 SK= 0.00E+00
       N       E                     dE             d eps       ncg     rms          rms(c)
RMM:   1    -0.413253940019E+03   -0.35940E-01   -0.11479E+01  4305   0.191E+00    0.962E-01
RMM:   2    -0.413218080036E+03    0.35860E-01   -0.18868E-01  4499   0.218E-01    0.691E-01
RMM:   3    -0.413240537166E+03   -0.22457E-01   -0.32557E-02  5152   0.158E-01    0.706E-01
RMM:   4    -0.413224160453E+03    0.16377E-01   -0.40023E-02  4960   0.181E-01    0.428E-01
RMM:   5    -0.413215055041E+03    0.91054E-02   -0.44889E-03  4575   0.886E-02    0.623E-02
RMM:   6    -0.413214894935E+03    0.16011E-03   -0.48904E-04  4723   0.289E-02    0.324E-02
RMM:   7    -0.413214901153E+03   -0.62176E-05   -0.28246E-04  5777   0.173E-02    0.229E-02
RMM:   8    -0.413214868684E+03    0.32469E-04   -0.10272E-04  5058   0.115E-02    0.897E-03
RMM:   9    -0.413214860778E+03    0.79061E-05   -0.16751E-05  4539   0.543E-03    0.477E-03
RMM:  10    -0.413214856364E+03    0.44144E-05   -0.21784E-06  2605   0.235E-03    0.251E-03
RMM:  11    -0.413214850011E+03    0.63523E-05   -0.13796E-06  2496   0.190E-03    0.172E-03
RMM:  12    -0.413214846291E+03    0.37204E-05   -0.43323E-07  2394   0.122E-03    0.893E-04
RMM:  13    -0.413214841187E+03    0.51039E-05   -0.28397E-07  1948   0.898E-04    0.454E-04
RMM:  14    -0.413214835940E+03    0.52469E-05   -0.22114E-07  1747   0.797E-04    0.387E-04
RMM:  15    -0.413214831515E+03    0.44249E-05   -0.12831E-07  1159   0.648E-04    0.149E-04
RMM:  16    -0.413214829200E+03    0.23158E-05   -0.79317E-08  1094   0.605E-04    0.987E-05
RMM:  17    -0.413214826239E+03    0.29609E-05   -0.73106E-08  1155   0.608E-04    0.781E-05
RMM:  18    -0.413214825061E+03    0.11775E-05   -0.37520E-08   891   0.551E-04    0.635E-05
RMM:  19    -0.413214823527E+03    0.15342E-05   -0.38159E-08   973   0.557E-04    0.337E-05
RMM:  20    -0.413214822875E+03    0.65209E-06   -0.25102E-08   828   0.519E-04
   49 T=    71. E= -.41286687E+03 F= -.41321482E+03 E0= -.41319392E+03  EK= 0.34795E+00 SP= 0.00E+00 SK= 0.00E+00
       N       E                     dE             d eps       ncg     rms          rms(c)
RMM:   1    -0.413240326624E+03   -0.25503E-01   -0.11256E+01  4305   0.197E+00    0.935E-01
RMM:   2    -0.413214751610E+03    0.25575E-01   -0.18917E-01  4518   0.226E-01    0.696E-01
RMM:   3    -0.413237078704E+03   -0.22327E-01   -0.32466E-02  5163   0.160E-01    0.714E-01
RMM:   4    -0.413220841844E+03    0.16237E-01   -0.41338E-02  4961   0.185E-01    0.437E-01
RMM:   5    -0.413211202444E+03    0.96394E-02   -0.49169E-03  4603   0.925E-02    0.651E-02
RMM:   6    -0.413211012689E+03    0.18975E-03   -0.52617E-04  4720   0.304E-02    0.327E-02
RMM:   7    -0.413211018191E+03   -0.55016E-05   -0.29401E-04  5786   0.177E-02    0.232E-02
RMM:   8    -0.413210986795E+03    0.31396E-04   -0.10137E-04  5103   0.113E-02    0.966E-03
RMM:   9    -0.413210980409E+03    0.63853E-05   -0.19438E-05  4768   0.570E-03    0.495E-03
RMM:  10    -0.413210976859E+03    0.35504E-05   -0.26409E-06  2639   0.250E-03    0.262E-03
RMM:  11    -0.413210972474E+03    0.43850E-05   -0.14984E-06  2510   0.199E-03    0.187E-03
RMM:  12    -0.413210969726E+03    0.27482E-05   -0.47732E-07  2425   0.128E-03    0.987E-04
RMM:  13    -0.413210966210E+03    0.35157E-05   -0.31494E-07  2074   0.930E-04    0.497E-04
RMM:  14    -0.413210962477E+03    0.37326E-05   -0.25327E-07  1740   0.806E-04    0.369E-04
RMM:  15    -0.413210959422E+03    0.30550E-05   -0.16100E-07  1225   0.679E-04    0.159E-04
RMM:  16    -0.413210957859E+03    0.15633E-05   -0.96701E-08  1158   0.622E-04    0.994E-05
RMM:  17    -0.413210955671E+03    0.21882E-05   -0.10301E-07  1245   0.635E-04    0.842E-05
[...]
RMM:   7    -0.413849161149E+03    0.12640E-02   -0.45134E-03  5246   0.858E-02    0.122E-01
RMM:   8    -0.413848861341E+03    0.29981E-03   -0.89033E-04  4648   0.413E-02    0.739E-02
RMM:   9    -0.413848762674E+03    0.98667E-04   -0.97449E-04  4476   0.397E-02    0.200E-02
RMM:  10    -0.413848787739E+03   -0.25066E-04   -0.25074E-04  5992   0.180E-02    0.171E-02
RMM:  11    -0.413848785251E+03    0.24888E-05   -0.47492E-05  4605   0.891E-03    0.650E-03
RMM:  12    -0.413848790952E+03   -0.57013E-05   -0.14446E-05  3994   0.485E-03    0.394E-03
RMM:  13    -0.413848793660E+03   -0.27079E-05   -0.37157E-06  2868   0.279E-03    0.198E-03
RMM:  14    -0.413848794111E+03   -0.45136E-06   -0.16679E-06  2613   0.184E-03
  139 T=   197. E= -.41287949E+03 F= -.41384879E+03 E0= -.41382674E+03  EK= 0.96931E+00 SP= 0.00E+00 SK= 0.00E+00
       N       E                     dE             d eps       ncg     rms          rms(c)
RMM:   1    -0.414063846097E+03   -0.21505E+00   -0.24109E+01  4288   0.901E+00    0.132E+00
RMM:   2    -0.413869864264E+03    0.19398E+00   -0.74557E-01  5440   0.108E+00    0.133E+00
RMM:   3    -0.413882447062E+03   -0.12583E-01   -0.12152E-01  5719   0.385E-01    0.116E+00
RMM:   4    -0.413877582944E+03    0.48641E-02   -0.56119E-02  5424   0.243E-01    0.996E-01
RMM:   5    -0.413856135256E+03    0.21448E-01   -0.61572E-02  4329   0.337E-01    0.246E-01
RMM:   6    -0.413854668880E+03    0.14664E-02   -0.11461E-02  5329   0.140E-01    0.144E-01
RMM:   7    -0.413854339380E+03    0.32950E-03   -0.21358E-03  5452   0.579E-02    0.100E-01
RMM:   8    -0.413854121585E+03    0.21779E-03   -0.97886E-04  4696   0.391E-02    0.553E-02
RMM:   9    -0.413854064765E+03    0.56821E-04   -0.73128E-04  4850   0.342E-02    0.221E-02
RMM:  10    -0.413854075769E+03   -0.11005E-04   -0.15505E-04  5792   0.155E-02    0.159E-02
RMM:  11    -0.413854075098E+03    0.67110E-06   -0.34292E-05  4659   0.779E-03    0.682E-03
RMM:  12    -0.413854080379E+03   -0.52811E-05   -0.10052E-05  3609   0.415E-03    0.387E-03
RMM:  13    -0.413854084422E+03   -0.40424E-05   -0.26836E-06  2743   0.260E-03    0.215E-03
RMM:  14    -0.413854086272E+03   -0.18507E-05   -0.17463E-06  2624   0.189E-03    0.895E-04
RMM:  15    -0.413854087418E+03   -0.11459E-05   -0.11275E-06  2421   0.149E-03    0.497E-04
RMM:  16    -0.413854087812E+03   -0.39335E-06   -0.69842E-07  2183   0.114E-03
  140 T=   199. E= -.41287728E+03 F= -.41385409E+03 E0= -.41383207E+03  EK= 0.97681E+00 SP= 0.00E+00 SK= 0.00E+00
       N       E                     dE             d eps       ncg     rms          rms(c)
RMM:   1    -0.413932001187E+03   -0.77914E-01   -0.22914E+01  4268   0.899E+00    0.130E+00
RMM:   2    -0.413791893006E+03    0.14011E+00   -0.68794E-01  5421   0.102E+00    0.124E+00
RMM:   3    -0.413791201571E+03    0.69143E-03   -0.91391E-02  5576   0.346E-01    0.893E-01
RMM:   4    -0.413931557987E+03   -0.14036E+00   -0.15998E-01  5245   0.382E-01    0.165E+00
RMM:   5    -0.413785224787E+03    0.14633E+00   -0.96806E-02  4775   0.368E-01    0.251E-01
RMM:   6    -0.413783650339E+03    0.15744E-02   -0.17894E-02  5567   0.158E-01    0.116E-01
RMM:   7    -0.413783588060E+03    0.62279E-04   -0.35960E-03  5777   0.636E-02    0.828E-02
RMM:   8    -0.413783496781E+03    0.91279E-04   -0.11305E-03  5148   0.384E-02    0.476E-02
RMM:   9    -0.413783469785E+03    0.26996E-04   -0.43444E-04  4852   0.272E-02    0.203E-02
RMM:  10    -0.413783481213E+03   -0.11428E-04   -0.12027E-04  5943   0.122E-02    0.148E-02
RMM:  11    -0.413783481461E+03   -0.24798E-06   -0.32677E-05  4913   0.697E-03    0.769E-03
RMM:  12    -0.413783485242E+03   -0.37814E-05   -0.86717E-06  3530   0.409E-03    0.419E-03
RMM:  13    -0.413783488744E+03   -0.35020E-05   -0.20255E-06  2657   0.235E-03    0.199E-03
RMM:  14    -0.413783492597E+03   -0.38529E-05   -0.18598E-06  2650   0.200E-03    0.822E-04
RMM:  15    -0.413783494673E+03   -0.20753E-05   -0.90154E-07  2379   0.135E-03    0.530E-04
RMM:  16    -0.413783496030E+03   -0.13570E-05   -0.55129E-07  2011   0.104E-03    0.291E-04
RMM:  17    -0.413783497245E+03   -0.12152E-05   -0.48881E-07  1929   0.965E-04    0.173E-04
RMM:  18    -0.413783498020E+03   -0.77541E-06   -0.36014E-07  1690   0.829E-04
  141 T=   185. E= -.41287373E+03 F= -.41378350E+03 E0= -.41376123E+03  EK= 0.90977E+00 SP= 0.00E+00 SK= 0.00E+00
       N       E                     dE             d eps       ncg     rms          rms(c)
RMM:   1    -0.413766342167E+03    0.17155E-01   -0.20318E+01  4267   0.852E+00    0.128E+00
RMM:   2    -0.413674522979E+03    0.91819E-01   -0.64647E-01  5398   0.912E-01    0.109E+00
RMM:   3    -0.413688804084E+03   -0.14281E-01   -0.96435E-02  5564   0.365E-01    0.817E-01
RMM:   4    -0.413744359538E+03   -0.55555E-01   -0.10982E-01  5221   0.325E-01    0.119E+00
RMM:   5    -0.413673386324E+03    0.70973E-01   -0.59976E-02  4884   0.306E-01    0.222E-01
RMM:   6    -0.413671884868E+03    0.15015E-02   -0.82515E-03  5204   0.120E-01    0.864E-02
RMM:   7    -0.413671947070E+03   -0.62202E-04   -0.27610E-03  5740   0.567E-02    0.704E-02
RMM:   8    -0.413671871023E+03    0.76047E-04   -0.96925E-04  5245   0.359E-02    0.429E-02
RMM:   9    -0.413671847169E+03    0.23854E-04   -0.20885E-04  5134   0.194E-02    0.226E-02
RMM:  10    -0.413671847665E+03   -0.49635E-06   -0.10590E-04  5726   0.114E-02    0.103E-02
RMM:  11    -0.413671849887E+03   -0.22218E-05   -0.20242E-05  4582   0.534E-03    0.606E-03
RMM:  12    -0.413671852774E+03   -0.28869E-05   -0.53355E-06  3135   0.354E-03    0.318E-03
RMM:  13    -0.413671855605E+03   -0.28313E-05   -0.21107E-06  2650   0.235E-03    0.162E-03
RMM:  14    -0.413671858045E+03   -0.24403E-05   -0.12183E-06  2551   0.174E-03    0.720E-04
RMM:  15    -0.413671859328E+03   -0.12826E-05   -0.63226E-07  2330   0.119E-03    0.444E-04
RMM:  16    -0.413671860481E+03   -0.11530E-05   -0.53471E-07  2017   0.104E-03    0.262E-04
RMM:  17    -0.413671861185E+03   -0.70432E-06   -0.40168E-07  1781   0.891E-04
  142 T=   162. E= -.41287516E+03 F= -.41367186E+03 E0= -.41364917E+03  EK= 0.79670E+00 SP= 0.00E+00 SK= 0.00E+00
       N       E                     dE             d eps       ncg     rms          rms(c)
RMM:   1    -0.413567736502E+03    0.10412E+00   -0.16847E+01  4272   0.778E+00    0.143E+00
RMM:   2    -0.413520030910E+03    0.47706E-01   -0.58348E-01  5358   0.805E-01    0.111E+00
RMM:   3    -0.413619587545E+03   -0.99557E-01   -0.16030E-01  5423   0.430E-01    0.144E+00
RMM:   4    -0.413537106570E+03    0.82481E-01   -0.10820E-01  5131   0.349E-01    0.648E-01
RMM:   5    -0.413521281620E+03    0.15825E-01   -0.58236E-02  5165   0.300E-01    0.250E-01
RMM:   6    -0.413519132685E+03    0.21489E-02   -0.55713E-03  4784   0.110E-01    0.113E-01
RMM:   7    -0.413518917318E+03    0.21537E-03   -0.19999E-03  5266   0.556E-02    0.674E-02
RMM:   8    -0.413518848791E+03    0.68527E-04   -0.12462E-03  5404   0.427E-02    0.460E-02
RMM:   9    -0.413518839041E+03    0.97498E-05   -0.23685E-04  5667   0.192E-02    0.325E-02
RMM:  10    -0.413518818637E+03    0.20404E-04   -0.14781E-04  5421   0.147E-02    0.921E-03
RMM:  11    -0.413518824129E+03   -0.54921E-05   -0.39300E-05  5392   0.674E-03    0.693E-03
RMM:  12    -0.413518825931E+03   -0.18019E-05   -0.58682E-06  3181   0.354E-03    0.305E-03
RMM:  13    -0.413518827609E+03   -0.16782E-05   -0.19868E-06  2646   0.225E-03    0.148E-03
RMM:  14    -0.413518828919E+03   -0.13096E-05   -0.16030E-06  2591   0.187E-03    0.840E-04
RMM:  15    -0.413518829023E+03   -0.10438E-06   -0.83570E-07  2307   0.131E-03
  143 T=   132. E= -.41287129E+03 F= -.41351883E+03 E0= -.41349575E+03  EK= 0.64754E+00 SP= 0.00E+00 SK= 0.00E+00
       N       E                     dE             d eps       ncg     rms          rms(c)
RMM:   1    -0.413425985730E+03    0.92843E-01   -0.12633E+01  4276   0.690E+00    0.110E+00
RMM:   2    -0.413418392150E+03    0.75936E-02   -0.42289E-01  5357   0.686E-01    0.936E-01
RMM:   3    -0.413449210533E+03   -0.30818E-01   -0.94498E-02  5494   0.321E-01    0.114E+00
RMM:   4    -0.413407745502E+03    0.41465E-01   -0.50398E-02  5055   0.267E-01    0.449E-01
RMM:   5    -0.413406687747E+03    0.10578E-02   -0.35371E-02  4956   0.238E-01    0.229E-01
RMM:   6    -0.413405014826E+03    0.16729E-02   -0.11269E-02  5203   0.129E-01    0.135E-01
RMM:   7    -0.413404317271E+03    0.69756E-03   -0.15344E-03  4653   0.567E-02    0.679E-02
RMM:   8    -0.413404313032E+03    0.42387E-05   -0.10621E-03  5595   0.384E-02    0.386E-02
RMM:   9    -0.413404321427E+03   -0.83945E-05   -0.26535E-04  5498   0.194E-02    0.254E-02
RMM:  10    -0.413404311317E+03    0.10110E-04   -0.91197E-05  5501   0.118E-02    0.102E-02
RMM:  11    -0.413404318164E+03   -0.68467E-05   -0.38590E-05  5358   0.699E-03    0.728E-03
RMM:  12    -0.413404323071E+03   -0.49079E-05   -0.73631E-06  3448   0.392E-03    0.322E-03
RMM:  13    -0.413404325411E+03   -0.23396E-05   -0.32753E-06  2812   0.258E-03    0.166E-03
RMM:  14    -0.413404326282E+03   -0.87094E-06   -0.18388E-06  2613   0.194E-03
  144 T=   110. E= -.41286335E+03 F= -.41340433E+03 E0= -.41338097E+03  EK= 0.54098E+00 SP= 0.00E+00 SK= 0.00E+00
       N       E                     dE             d eps       ncg     rms          rms(c)
RMM:   1    -0.413444786595E+03   -0.40461E-01   -0.11724E+01  4279   0.656E+00    0.125E+00
RMM:   2    -0.413455869807E+03   -0.11083E-01   -0.41654E-01  5373   0.715E-01    0.123E+00
RMM:   3    -0.413448924213E+03    0.69456E-02   -0.10046E-01  5425   0.344E-01    0.116E+00
RMM:   4    -0.413420834183E+03    0.28090E-01   -0.56119E-02  5164   0.291E-01    0.510E-01
RMM:   5    -0.413419748603E+03    0.10856E-02   -0.39053E-02  4910   0.253E-01    0.252E-01
RMM:   6    -0.413417093919E+03    0.26547E-02   -0.13578E-02  5073   0.144E-01    0.135E-01
RMM:   7    -0.413416409589E+03    0.68433E-03   -0.13608E-03  4558   0.575E-02    0.654E-02
RMM:   8    -0.413416392061E+03    0.17528E-04   -0.66079E-04  5498   0.315E-02    0.368E-02
RMM:   9    -0.413416407347E+03   -0.15286E-04   -0.23960E-04  5107   0.191E-02    0.173E-02
RMM:  10    -0.413416412371E+03   -0.50241E-05   -0.62645E-05  5537   0.964E-03    0.923E-03
RMM:  11    -0.413416418483E+03   -0.61118E-05   -0.22727E-05  4794   0.572E-03    0.615E-03
RMM:  12    -0.413416424322E+03   -0.58391E-05   -0.62678E-06  3189   0.364E-03    0.334E-03
RMM:  13    -0.413416426970E+03   -0.26473E-05   -0.33063E-06  2819   0.261E-03    0.178E-03
RMM:  14    -0.413416427649E+03   -0.67921E-06   -0.20340E-06  2642   0.202E-03
  145 T=   110. E= -.41287689E+03 F= -.41341643E+03 E0= -.41339277E+03  EK= 0.53954E+00 SP= 0.00E+00 SK= 0.00E+00
       N       E                     dE             d eps       ncg     rms          rms(c)
RMM:   1    -0.413445401125E+03   -0.28974E-01   -0.12486E+01  4281   0.645E+00    0.154E+00
RMM:   2    -0.413433403669E+03    0.11997E-01   -0.48253E-01  5381   0.766E-01    0.145E+00
RMM:   3    -0.413448203023E+03   -0.14799E-01   -0.13223E-01  5453   0.389E-01    0.147E+00
RMM:   4    -0.413403045489E+03    0.45158E-01   -0.83314E-02  5142   0.351E-01    0.608E-01
RMM:   5    -0.413399136047E+03    0.39094E-02   -0.44742E-02  4817   0.280E-01    0.227E-01
RMM:   6    -0.413396967648E+03    0.21684E-02   -0.13165E-02  5157   0.142E-01    0.129E-01
RMM:   7    -0.413396170987E+03    0.79666E-03   -0.16151E-03  4595   0.592E-02    0.609E-02
RMM:   8    -0.413396141613E+03    0.29373E-04   -0.66803E-04  5448   0.324E-02    0.355E-02
RMM:   9    -0.413396150781E+03   -0.91678E-05   -0.23413E-04  5293   0.186E-02    0.188E-02
RMM:  10    -0.413396150711E+03    0.70439E-07   -0.60272E-05  5558   0.962E-03    0.955E-03
RMM:  11    -0.413396154391E+03   -0.36801E-05   -0.26777E-05  5062   0.601E-03    0.636E-03
RMM:  12    -0.413396156533E+03   -0.21423E-05   -0.48998E-06  3001   0.328E-03    0.321E-03
RMM:  13    -0.413396157568E+03   -0.10354E-05   -0.28408E-06  2748   0.247E-03    0.163E-03
RMM:  14    -0.413396157469E+03    0.99852E-07   -0.14714E-06  2564   0.190E-03
  146 T=   106. E= -.41287731E+03 F= -.41339616E+03 E0= -.41337224E+03  EK= 0.51884E+00 SP= 0.00E+00 SK= 0.00E+00
       N       E                     dE             d eps       ncg     rms          rms(c)
RMM:   1    -0.413348350029E+03    0.47808E-01   -0.10500E+01  4282   0.587E+00    0.108E+00
RMM:   2    -0.413331465368E+03    0.16885E-01   -0.36577E-01  5390   0.653E-01    0.104E+00
RMM:   3    -0.413342117542E+03   -0.10652E-01   -0.73236E-02  5639   0.287E-01    0.107E+00
RMM:   4    -0.413319195721E+03    0.22922E-01   -0.35686E-02  5115   0.233E-01    0.507E-01
RMM:   5    -0.413318081569E+03    0.11142E-02   -0.23999E-02  4538   0.214E-01    0.171E-01
RMM:   6    -0.413316893631E+03    0.11879E-02   -0.65850E-03  5026   0.103E-01    0.983E-02
RMM:   7    -0.413316435789E+03    0.45784E-03   -0.11027E-03  4775   0.462E-02    0.501E-02
RMM:   8    -0.413316402066E+03    0.33723E-04   -0.39847E-04  5281   0.251E-02    0.297E-02
RMM:   9    -0.413316401528E+03    0.53827E-06   -0.15744E-04  5044   0.156E-02    0.137E-02
RMM:  10    -0.413316402484E+03   -0.95614E-06   -0.42877E-05  5528   0.782E-03    0.829E-03
RMM:  11    -0.413316402865E+03   -0.38144E-06   -0.14087E-05  4281   0.460E-03    0.480E-03
RMM:  12    -0.413316403216E+03   -0.35100E-06   -0.26522E-06  2724   0.261E-03
  147 T=    92. E= -.41286632E+03 F= -.41331640E+03 E0= -.41329238E+03  EK= 0.45008E+00 SP= 0.00E+00 SK= 0.00E+00
       N       E                     dE             d eps       ncg     rms          rms(c)
RMM:   1    -0.413310999218E+03    0.54036E-02   -0.84908E+00  4286   0.551E+00    0.649E-01
RMM:   2    -0.413305715320E+03    0.52839E-02   -0.24673E-01  5333   0.529E-01    0.603E-01
RMM:   3    -0.413312858333E+03   -0.71430E-02   -0.38756E-02  5776   0.208E-01    0.660E-01
RMM:   4    -0.413302065332E+03    0.10793E-01   -0.14106E-02  5094   0.148E-01    0.312E-01
RMM:   5    -0.413301858970E+03    0.20636E-03   -0.10325E-02  4533   0.143E-01    0.112E-01
RMM:   6    -0.413301439756E+03    0.41921E-03   -0.30284E-03  5089   0.688E-02    0.666E-02
RMM:   7    -0.413301242017E+03    0.19774E-03   -0.66738E-04  5014   0.335E-02    0.345E-02
RMM:   8    -0.413301228108E+03    0.13909E-04   -0.21481E-04  5447   0.181E-02    0.227E-02
RMM:   9    -0.413301227250E+03    0.85816E-06   -0.76599E-05  5042   0.108E-02    0.109E-02
RMM:  10    -0.413301229161E+03   -0.19112E-05   -0.26019E-05  5084   0.616E-03    0.659E-03
RMM:  11    -0.413301230947E+03   -0.17860E-05   -0.66481E-06  3278   0.343E-03    0.398E-03
RMM:  12    -0.413301233179E+03   -0.22315E-05   -0.17596E-06  2576   0.236E-03    0.151E-03
RMM:  13    -0.413301235192E+03   -0.20133E-05   -0.94701E-07  2476   0.160E-03    0.901E-04
RMM:  14    -0.413301237772E+03   -0.25800E-05   -0.55749E-07  2338   0.123E-03    0.445E-04
RMM:  15    -0.413301239634E+03   -0.18620E-05   -0.32211E-07  1760   0.890E-04    0.242E-04
RMM:  16    -0.413301241734E+03   -0.20995E-05   -0.27963E-07  1753   0.846E-04    0.155E-04
RMM:  17    -0.413301243583E+03   -0.18497E-05   -0.21978E-07  1545   0.755E-04    0.109E-04
RMM:  18    -0.413301245323E+03   -0.17399E-05   -0.18758E-07  1460   0.709E-04    0.704E-05
RMM:  19    -0.413301246694E+03   -0.13710E-05   -0.12489E-07  1248   0.640E-04    0.437E-05
RMM:  20    -0.413301247593E+03   -0.89912E-06   -0.82091E-08  1091   0.592E-04
  148 T=    89. E= -.41286588E+03 F= -.41330125E+03 E0= -.41327742E+03  EK= 0.43536E+00 SP= 0.00E+00 SK= 0.00E+00
       N       E                     dE             d eps       ncg     rms          rms(c)
RMM:   1    -0.413364259919E+03   -0.63013E-01   -0.90318E+00  4294   0.583E+00    0.794E-01
RMM:   2    -0.413355734383E+03    0.85255E-02   -0.20973E-01  5243   0.535E-01    0.657E-01
RMM:   3    -0.413383034293E+03   -0.27300E-01   -0.54727E-02  5583   0.243E-01    0.887E-01
RMM:   4    -0.413354974184E+03    0.28060E-01   -0.27692E-02  5028   0.197E-01    0.289E-01
RMM:   5    -0.413354048889E+03    0.92529E-03   -0.13620E-02  5002   0.152E-01    0.116E-01
RMM:   6    -0.413353538087E+03    0.51080E-03   -0.28105E-03  5162   0.675E-02    0.592E-02
RMM:   7    -0.413353420143E+03    0.11794E-03   -0.74101E-04  5179   0.330E-02    0.314E-02
RMM:   8    -0.413353395810E+03    0.24333E-04   -0.21871E-04  5520   0.181E-02    0.212E-02
RMM:   9    -0.413353393826E+03    0.19842E-05   -0.64531E-05  5326   0.963E-03    0.111E-02
RMM:  10    -0.413353398577E+03   -0.47515E-05   -0.26912E-05  5176   0.620E-03    0.661E-03
RMM:  11    -0.413353403959E+03   -0.53814E-05   -0.68125E-06  3279   0.356E-03    0.423E-03
RMM:  12    -0.413353410060E+03   -0.61012E-05   -0.25491E-06  2682   0.267E-03    0.178E-03
RMM:  13    -0.413353415144E+03   -0.50839E-05   -0.12802E-06  2534   0.184E-03    0.108E-03
RMM:  14    -0.413353422516E+03   -0.73717E-05   -0.10797E-06  2551   0.157E-03    0.686E-04
RMM:  15    -0.413353427284E+03   -0.47685E-05   -0.58456E-07  2168   0.108E-03    0.404E-04
RMM:  16    -0.413353433733E+03   -0.64494E-05   -0.79687E-07  2319   0.118E-03    0.253E-04
RMM:  17    -0.413353439172E+03   -0.54390E-05   -0.66869E-07  1930   0.989E-04    0.189E-04
RMM:  18    -0.413353442703E+03   -0.35306E-05   -0.40335E-07  1663   0.821E-04    0.115E-04
RMM:  19    -0.413353445049E+03   -0.23461E-05   -0.23064E-07  1441   0.695E-04    0.820E-05
RMM:  20    -0.413353447101E+03   -0.20518E-05   -0.14053E-07  1200   0.619E-04    0.586E-05
RMM:  21    -0.413353448027E+03   -0.92584E-06   -0.74025E-08  1021   0.568E-04
  149 T=    98. E= -.41287247E+03 F= -.41335345E+03 E0= -.41333017E+03  EK= 0.48097E+00 SP= 0.00E+00 SK= 0.00E+00
       N       E                     dE             d eps       ncg     rms          rms(c)
RMM:   1    -0.413397939008E+03   -0.44492E-01   -0.10285E+01  4295   0.623E+00    0.950E-01
RMM:   2    -0.413381716515E+03    0.16222E-01   -0.22275E-01  5270   0.591E-01    0.799E-01
RMM:   3    -0.413423958974E+03   -0.42242E-01   -0.72092E-02  5568   0.277E-01    0.106E+00
RMM:   4    -0.413382934309E+03    0.41025E-01   -0.41715E-02  5078   0.230E-01    0.387E-01
RMM:   5    -0.413380634275E+03    0.23000E-02   -0.19603E-02  4998   0.183E-01    0.136E-01
RMM:   6    -0.413379807598E+03    0.82668E-03   -0.29720E-03  4907   0.744E-02    0.604E-02
RMM:   7    -0.413379717385E+03    0.90213E-04   -0.85587E-04  5315   0.352E-02    0.349E-02
RMM:   8    -0.413379670777E+03    0.46608E-04   -0.28995E-04  5416   0.208E-02    0.226E-02
RMM:   9    -0.413379666878E+03    0.38992E-05   -0.77076E-05  5323   0.107E-02    0.123E-02
RMM:  10    -0.413379671666E+03   -0.47878E-05   -0.31571E-05  5305   0.669E-03    0.694E-03
RMM:  11    -0.413379678449E+03   -0.67836E-05   -0.97121E-06  3735   0.407E-03    0.469E-03
RMM:  12    -0.413379685978E+03   -0.75286E-05   -0.30001E-06  2748   0.296E-03    0.208E-03
RMM:  13    -0.413379692533E+03   -0.65548E-05   -0.17125E-06  2604   0.203E-03    0.124E-03
RMM:  14    -0.413379700888E+03   -0.83555E-05   -0.12255E-06  2570   0.169E-03    0.728E-04
RMM:  15    -0.413379706288E+03   -0.54002E-05   -0.68433E-07  2283   0.116E-03    0.473E-04
RMM:  16    -0.413379713477E+03   -0.71883E-05   -0.98267E-07  2443   0.129E-03    0.281E-04
RMM:  17    -0.413379718925E+03   -0.54479E-05   -0.72395E-07  1945   0.103E-03    0.218E-04
RMM:  18    -0.413379723119E+03   -0.41938E-05   -0.54927E-07  1864   0.918E-04    0.130E-04
RMM:  19    -0.413379725072E+03   -0.19535E-05   -0.23616E-07  1389   0.695E-04    0.963E-05
RMM:  20    -0.413379727466E+03   -0.23943E-05   -0.17086E-07  1286   0.647E-04    0.744E-05
RMM:  21    -0.413379728539E+03   -0.10724E-05   -0.91735E-08  1082   0.581E-04    0.427E-05
RMM:  22    -0.413379729144E+03   -0.60503E-06   -0.49707E-08   953   0.550E-04
  150 T=   103. E= -.41287387E+03 F= -.41337973E+03 E0= -.41335723E+03  EK= 0.50586E+00 SP= 0.00E+00 SK= 0.00E+00
