       N       E                     dE             d eps       ncg     rms          rms(c)
RMM:   1     0.220178857066E+04    0.22018E+04   -0.52440E+04  2132   0.654E+02
RMM:   2     0.706007451603E+03   -0.14958E+04   -0.16265E+04  2132   0.177E+02
RMM:   3     0.138112765513E+03   -0.56789E+03   -0.65721E+03  2132   0.117E+02
RMM:   4    -0.159326834343E+03   -0.29744E+03   -0.27847E+03  2132   0.936E+01
RMM:   5    -0.287520410973E+03   -0.12819E+03   -0.11450E+03  2132   0.595E+01
RMM:   6    -0.349972599467E+03   -0.62452E+02   -0.55202E+02  2132   0.423E+01
RMM:   7    -0.382857300095E+03   -0.32885E+02   -0.30420E+02  2132   0.293E+01
RMM:   8    -0.404262787165E+03   -0.21405E+02   -0.18383E+02  2132   0.233E+01
RMM:   9    -0.436054319680E+03   -0.31792E+02   -0.30676E+02  6103   0.173E+01
RMM:  10    -0.441318928418E+03   -0.52646E+01   -0.63042E+01  6395   0.539E+00
RMM:  11    -0.442533649845E+03   -0.12147E+01   -0.11163E+01  6221   0.173E+00
RMM:  12    -0.442899502867E+03   -0.36585E+00   -0.26695E+00  6371   0.598E-01    0.134E+02
RMM:  13    -0.425583034964E+03    0.17316E+02   -0.81053E+01  4677   0.119E+01    0.712E+01
RMM:  14    -0.498807736592E+03   -0.73225E+02   -0.53749E+02  5423   0.232E+01    0.305E+01
RMM:  15    -0.415541742965E+03    0.83266E+02   -0.19805E+02  5088   0.163E+01    0.677E+00
RMM:  16    -0.414023237095E+03    0.15185E+01   -0.39221E+01  6084   0.606E+00    0.425E+00
RMM:  17    -0.413220228081E+03    0.80301E+00   -0.24224E+00  5391   0.185E+00    0.245E+00
RMM:  18    -0.413171345841E+03    0.48882E-01   -0.80417E-01  5969   0.923E-01    0.164E+00
RMM:  19    -0.413167831005E+03    0.35148E-02   -0.27968E-01  5730   0.564E-01    0.852E-01
RMM:  20    -0.413183789189E+03   -0.15958E-01   -0.22441E-01  5497   0.508E-01    0.551E-01
RMM:  21    -0.413167731829E+03    0.16057E-01   -0.31894E-02  5006   0.224E-01    0.259E-01
RMM:  22    -0.413165503223E+03    0.22286E-02   -0.16275E-02  6021   0.114E-01    0.137E-01
RMM:  23    -0.413164267406E+03    0.12358E-02   -0.55170E-03  5960   0.672E-02    0.823E-02
RMM:  24    -0.413162926912E+03    0.13405E-02   -0.15964E-03  5376   0.407E-02    0.434E-02
RMM:  25    -0.413162542828E+03    0.38408E-03   -0.82202E-04  5303   0.263E-02    0.371E-02
RMM:  26    -0.413162680194E+03   -0.13737E-03   -0.84860E-04  5777   0.303E-02    0.326E-02
RMM:  27    -0.413163107665E+03   -0.42747E-03   -0.18315E-04  4530   0.196E-02    0.188E-02
RMM:  28    -0.413163577929E+03   -0.47026E-03   -0.17092E-04  5161   0.188E-02    0.941E-03
RMM:  29    -0.413163969485E+03   -0.39156E-03   -0.11439E-04  4516   0.157E-02    0.469E-03
RMM:  30    -0.413164185970E+03   -0.21648E-03   -0.76469E-05  4147   0.994E-03    0.338E-03
RMM:  31    -0.413164304084E+03   -0.11811E-03   -0.50961E-05  3241   0.666E-03    0.331E-03
RMM:  32    -0.413164325626E+03   -0.21542E-04   -0.19661E-05  2957   0.300E-03    0.157E-03
RMM:  33    -0.413164334885E+03   -0.92588E-05   -0.79351E-06  2773   0.214E-03    0.570E-04
RMM:  34    -0.413164336723E+03   -0.18377E-05   -0.45736E-06  2661   0.166E-03    0.764E-04
RMM:  35    -0.413164336056E+03    0.66675E-06   -0.21300E-06  2272   0.118E-03
    1 T=    61. E= -.41286648E+03 F= -.41316434E+03 E0= -.41314184E+03  EK= 0.29785E+00 SP= 0.00E+00 SK= 0.00E+00
       N       E                     dE             d eps       ncg     rms          rms(c)
RMM:   1    -0.413161497179E+03    0.28395E-02   -0.93680E+00  3989   0.633E-01    0.886E-01
RMM:   2    -0.413167852474E+03   -0.63553E-02   -0.11481E-01  3897   0.896E-02    0.649E-01
RMM:   3    -0.413164293712E+03    0.35588E-02   -0.14229E-02  4810   0.451E-02    0.947E-02
RMM:   4    -0.413185456045E+03   -0.21162E-01   -0.22400E-02  5203   0.124E-01    0.608E-01
RMM:   5    -0.413163880188E+03    0.21576E-01   -0.10551E-02  4845   0.102E-01    0.454E-02
RMM:   6    -0.413164038442E+03   -0.15825E-03   -0.19343E-03  5768   0.427E-02    0.318E-02
RMM:   7    -0.413164039444E+03   -0.10019E-05   -0.37604E-04  5661   0.177E-02    0.190E-02
RMM:   8    -0.413164037818E+03    0.16255E-05   -0.42539E-05  4914   0.722E-03    0.817E-03
RMM:   9    -0.413164040635E+03   -0.28170E-05   -0.92170E-06  3363   0.321E-03    0.625E-03
RMM:  10    -0.413164045412E+03   -0.47766E-05   -0.18687E-06  2569   0.207E-03    0.374E-03
RMM:  11    -0.413164050212E+03   -0.48003E-05   -0.13088E-06  2529   0.170E-03    0.191E-03
RMM:  12    -0.413164056775E+03   -0.65626E-05   -0.14275E-06  2540   0.169E-03    0.778E-04
RMM:  13    -0.413164058734E+03   -0.19590E-05   -0.54985E-07  2267   0.114E-03    0.500E-04
RMM:  14    -0.413164058916E+03   -0.18207E-06   -0.30817E-07  1720   0.793E-04
    2 T=    61. E= -.41286622E+03 F= -.41316406E+03 E0= -.41314156E+03  EK= 0.29783E+00 SP= 0.00E+00 SK= 0.00E+00
       N       E                     dE             d eps       ncg     rms          rms(c)
RMM:   1    -0.413162452666E+03    0.16061E-02   -0.93678E+00  4187   0.635E-01    0.905E-01
RMM:   2    -0.413168050434E+03   -0.55978E-02   -0.11339E-01  3973   0.885E-02    0.645E-01
RMM:   3    -0.413164967212E+03    0.30832E-02   -0.13718E-02  4862   0.446E-02    0.113E-01
RMM:   4    -0.413191051387E+03   -0.26084E-01   -0.27167E-02  5168   0.138E-01    0.675E-01
RMM:   5    -0.413164456756E+03    0.26595E-01   -0.12796E-02  4827   0.113E-01    0.478E-02
RMM:   6    -0.413164633716E+03   -0.17696E-03   -0.22642E-03  5769   0.467E-02    0.332E-02
RMM:   7    -0.413164624260E+03    0.94558E-05   -0.41182E-04  5648   0.190E-02    0.204E-02
RMM:   8    -0.413164616191E+03    0.80696E-05   -0.56132E-05  5090   0.831E-03    0.938E-03
RMM:   9    -0.413164614588E+03    0.16027E-05   -0.11209E-05  3694   0.373E-03    0.707E-03
RMM:  10    -0.413164614648E+03   -0.59728E-07   -0.18588E-06  2566   0.220E-03
    3 T=    61. E= -.41286660E+03 F= -.41316461E+03 E0= -.41314212E+03  EK= 0.29802E+00 SP= 0.00E+00 SK= 0.00E+00
       N       E                     dE             d eps       ncg     rms          rms(c)
RMM:   1    -0.413161981007E+03    0.26336E-02   -0.92943E+00  4221   0.637E-01    0.890E-01
RMM:   2    -0.413167771666E+03   -0.57907E-02   -0.11291E-01  4213   0.902E-02    0.639E-01
RMM:   3    -0.413169169167E+03   -0.13975E-02   -0.16897E-02  5155   0.772E-02    0.303E-01
RMM:   4    -0.413191015076E+03   -0.21846E-01   -0.40024E-02  5127   0.171E-01    0.674E-01
RMM:   5    -0.413164357276E+03    0.26658E-01   -0.10511E-02  4720   0.111E-01    0.603E-02
RMM:   6    -0.413164391350E+03   -0.34074E-04   -0.19938E-03  5501   0.450E-02    0.309E-02
RMM:   7    -0.413164412414E+03   -0.21064E-04   -0.37073E-04  6022   0.172E-02    0.189E-02
RMM:   8    -0.413164409231E+03    0.31830E-05   -0.65967E-05  5194   0.916E-03    0.795E-03
RMM:   9    -0.413164407097E+03    0.21344E-05   -0.86074E-06  3460   0.367E-03    0.404E-03
RMM:  10    -0.413164408105E+03   -0.10081E-05   -0.18345E-06  2559   0.217E-03    0.263E-03
RMM:  11    -0.413164409680E+03   -0.15752E-05   -0.14286E-06  2539   0.186E-03    0.155E-03
RMM:  12    -0.413164410549E+03   -0.86842E-06   -0.77762E-07  2494   0.143E-03
    4 T=    61. E= -.41286645E+03 F= -.41316441E+03 E0= -.41314192E+03  EK= 0.29796E+00 SP= 0.00E+00 SK= 0.00E+00
       N       E                     dE             d eps       ncg     rms          rms(c)
RMM:   1    -0.413162906294E+03    0.15034E-02   -0.93591E+00  4235   0.657E-01    0.883E-01
RMM:   2    -0.413168287847E+03   -0.53816E-02   -0.11530E-01  4055   0.907E-02    0.648E-01
RMM:   3    -0.413165063640E+03    0.32242E-02   -0.14309E-02  4905   0.480E-02    0.115E-01
RMM:   4    -0.413195330332E+03   -0.30267E-01   -0.31901E-02  5146   0.149E-01    0.727E-01
RMM:   5    -0.413164372738E+03    0.30958E-01   -0.14723E-02  4813   0.121E-01    0.486E-02
RMM:   6    -0.413164574248E+03   -0.20151E-03   -0.25802E-03  5760   0.496E-02    0.322E-02
RMM:   7    -0.413164579835E+03   -0.55866E-05   -0.42559E-04  5745   0.190E-02    0.205E-02
RMM:   8    -0.413164577596E+03    0.22382E-05   -0.63941E-05  5090   0.862E-03    0.958E-03
RMM:   9    -0.413164578534E+03   -0.93792E-06   -0.12507E-05  3850   0.398E-03    0.711E-03
RMM:  10    -0.413164582459E+03   -0.39249E-05   -0.18746E-06  2568   0.219E-03    0.444E-03
RMM:  11    -0.413164586270E+03   -0.38111E-05   -0.12625E-06  2528   0.178E-03    0.239E-03
RMM:  12    -0.413164592109E+03   -0.58383E-05   -0.18953E-06  2599   0.197E-03    0.103E-03
RMM:  13    -0.413164593744E+03   -0.16356E-05   -0.55439E-07  2368   0.127E-03    0.698E-04
RMM:  14    -0.413164593644E+03    0.10016E-06   -0.23410E-07  1851   0.838E-04
    5 T=    61. E= -.41286651E+03 F= -.41316459E+03 E0= -.41314212E+03  EK= 0.29808E+00 SP= 0.00E+00 SK= 0.00E+00
       N       E                     dE             d eps       ncg     rms          rms(c)
RMM:   1    -0.413162888468E+03    0.17053E-02   -0.93668E+00  4245   0.652E-01    0.901E-01
RMM:   2    -0.413168321716E+03   -0.54332E-02   -0.11380E-01  4059   0.915E-02    0.646E-01
RMM:   3    -0.413165301463E+03    0.30203E-02   -0.13805E-02  4822   0.437E-02    0.104E-01
RMM:   4    -0.413187628076E+03   -0.22327E-01   -0.22962E-02  5156   0.126E-01    0.626E-01
RMM:   5    -0.413164890582E+03    0.22737E-01   -0.11018E-02  4823   0.104E-01    0.456E-02
RMM:   6    -0.413165046607E+03   -0.15602E-03   -0.19568E-03  5779   0.430E-02    0.313E-02
RMM:   7    -0.413165042558E+03    0.40493E-05   -0.36514E-04  5626   0.182E-02    0.196E-02
RMM:   8    -0.413165033365E+03    0.91924E-05   -0.50269E-05  4929   0.801E-03    0.913E-03
RMM:   9    -0.413165031895E+03    0.14705E-05   -0.10138E-05  3599   0.359E-03    0.698E-03
RMM:  10    -0.413165032061E+03   -0.16632E-06   -0.17244E-06  2548   0.218E-03
    6 T=    61. E= -.41286667E+03 F= -.41316503E+03 E0= -.41314257E+03  EK= 0.29836E+00 SP= 0.00E+00 SK= 0.00E+00
       N       E                     dE             d eps       ncg     rms          rms(c)
RMM:   1    -0.413162519857E+03    0.25120E-02   -0.93149E+00  4255   0.650E-01    0.897E-01
RMM:   2    -0.413168026500E+03   -0.55066E-02   -0.11309E-01  4216   0.891E-02    0.640E-01
RMM:   3    -0.413168730447E+03   -0.70395E-03   -0.16331E-02  5123   0.721E-02    0.278E-01
RMM:   4    -0.413194108138E+03   -0.25378E-01   -0.41293E-02  5116   0.172E-01    0.707E-01
RMM:   5    -0.413164722017E+03    0.29386E-01   -0.11974E-02  4731   0.116E-01    0.602E-02
RMM:   6    -0.413164788834E+03   -0.66817E-04   -0.22504E-03  5534   0.473E-02    0.316E-02
RMM:   7    -0.413164806254E+03   -0.17420E-04   -0.39109E-04  6015   0.173E-02    0.193E-02
RMM:   8    -0.413164801204E+03    0.50497E-05   -0.67121E-05  5206   0.912E-03    0.815E-03
RMM:   9    -0.413164797432E+03    0.37720E-05   -0.88279E-06  3445   0.366E-03    0.421E-03
RMM:  10    -0.413164797048E+03    0.38389E-06   -0.21227E-06  2585   0.222E-03
    7 T=    61. E= -.41286632E+03 F= -.41316480E+03 E0= -.41314235E+03  EK= 0.29847E+00 SP= 0.00E+00 SK= 0.00E+00
       N       E                     dE             d eps       ncg     rms          rms(c)
RMM:   1    -0.413162741307E+03    0.20561E-02   -0.93318E+00  4262   0.655E-01    0.882E-01
RMM:   2    -0.413169062287E+03   -0.63210E-02   -0.11429E-01  4126   0.902E-02    0.646E-01
RMM:   3    -0.413166123913E+03    0.29384E-02   -0.14424E-02  4958   0.511E-02    0.134E-01
RMM:   4    -0.413201749475E+03   -0.35626E-01   -0.38695E-02  5141   0.164E-01    0.788E-01
RMM:   5    -0.413165157378E+03    0.36592E-01   -0.17353E-02  4807   0.131E-01    0.517E-02
RMM:   6    -0.413165368767E+03   -0.21139E-03   -0.29077E-03  5743   0.535E-02    0.331E-02
RMM:   7    -0.413165375060E+03   -0.62934E-05   -0.47119E-04  5813   0.195E-02    0.211E-02
RMM:   8    -0.413165372429E+03    0.26315E-05   -0.69570E-05  5200   0.891E-03    0.966E-03
RMM:   9    -0.413165371747E+03    0.68242E-06   -0.13219E-05  3928   0.409E-03    0.673E-03
RMM:  10    -0.413165374357E+03   -0.26102E-05   -0.20694E-06  2577   0.221E-03    0.424E-03
RMM:  11    -0.413165376721E+03   -0.23644E-05   -0.11586E-06  2520   0.170E-03    0.233E-03
RMM:  12    -0.413165380396E+03   -0.36753E-05   -0.17936E-06  2585   0.193E-03    0.983E-04
RMM:  13    -0.413165381742E+03   -0.13456E-05   -0.64401E-07  2389   0.130E-03    0.774E-04
RMM:  14    -0.413165381514E+03    0.22828E-06   -0.24449E-07  1887   0.854E-04
    8 T=    61. E= -.41286650E+03 F= -.41316538E+03 E0= -.41314295E+03  EK= 0.29888E+00 SP= 0.00E+00 SK= 0.00E+00
       N       E                     dE             d eps       ncg     rms          rms(c)
RMM:   1    -0.413163243955E+03    0.21378E-02   -0.93749E+00  4284   0.663E-01    0.897E-01
RMM:   2    -0.413169240417E+03   -0.59965E-02   -0.11422E-01  4172   0.913E-02    0.649E-01
RMM:   3    -0.413165855493E+03    0.33849E-02   -0.14023E-02  4818   0.460E-02    0.104E-01
RMM:   4    -0.413189632260E+03   -0.23777E-01   -0.24619E-02  5142   0.130E-01    0.646E-01
RMM:   5    -0.413165386918E+03    0.24245E-01   -0.11748E-02  4811   0.107E-01    0.459E-02
RMM:   6    -0.413165554381E+03   -0.16746E-03   -0.21042E-03  5782   0.439E-02    0.307E-02
RMM:   7    -0.413165555397E+03   -0.10162E-05   -0.35952E-04  5627   0.181E-02    0.196E-02
RMM:   8    -0.413165546483E+03    0.89145E-05   -0.56952E-05  4971   0.832E-03    0.949E-03
RMM:   9    -0.413165544730E+03    0.17525E-05   -0.11256E-05  3749   0.381E-03    0.726E-03
RMM:  10    -0.413165545152E+03   -0.42168E-06   -0.17605E-06  2555   0.220E-03
    9 T=    61. E= -.41286639E+03 F= -.41316555E+03 E0= -.41314314E+03  EK= 0.29915E+00 SP= 0.00E+00 SK= 0.00E+00
       N       E                     dE             d eps       ncg     rms          rms(c)
RMM:   1    -0.413163561658E+03    0.19831E-02   -0.93462E+00  4297   0.665E-01    0.903E-01
RMM:   2    -0.413169089278E+03   -0.55276E-02   -0.11310E-01  4286   0.944E-02    0.642E-01
RMM:   3    -0.413170306729E+03   -0.12175E-02   -0.17024E-02  5125   0.769E-02    0.302E-01
RMM:   4    -0.413192146754E+03   -0.21840E-01   -0.39869E-02  5098   0.170E-01    0.673E-01
RMM:   5    -0.413165567119E+03    0.26580E-01   -0.10504E-02  4709   0.110E-01    0.595E-02
RMM:   6    -0.413165614488E+03   -0.47370E-04   -0.20366E-03  5501   0.448E-02    0.317E-02
RMM:   7    -0.413165626942E+03   -0.12453E-04   -0.36357E-04  5986   0.171E-02    0.191E-02
RMM:   8    -0.413165620361E+03    0.65811E-05   -0.64275E-05  5151   0.911E-03    0.799E-03
RMM:   9    -0.413165615488E+03    0.48728E-05   -0.82741E-06  3397   0.363E-03    0.411E-03
RMM:  10    -0.413165614230E+03    0.12580E-05   -0.19344E-06  2570   0.218E-03    0.268E-03
RMM:  11    -0.413165612119E+03    0.21111E-05   -0.12873E-06  2515   0.180E-03    0.149E-03
RMM:  12    -0.413165610225E+03    0.18941E-05   -0.75000E-07  2477   0.141E-03    0.569E-04
RMM:  13    -0.413165609156E+03    0.10691E-05   -0.37685E-07  2097   0.100E-03    0.314E-04
RMM:  14    -0.413165608100E+03    0.10554E-05   -0.23006E-07  1631   0.805E-04    0.213E-04
RMM:  15    -0.413165606579E+03    0.15214E-05   -0.20373E-07  1504   0.747E-04    0.132E-04
RMM:  16    -0.413165604899E+03    0.16802E-05   -0.17471E-07  1397   0.705E-04    0.131E-04
RMM:  17    -0.413165603207E+03    0.16916E-05   -0.14456E-07  1332   0.664E-04    0.738E-05
RMM:  18    -0.413165602073E+03    0.11343E-05   -0.84536E-08  1052   0.590E-04    0.330E-05
RMM:  19    -0.413165601513E+03    0.55981E-06   -0.44966E-08   862   0.545E-04
   10 T=    61. E= -.41286628E+03 F= -.41316560E+03 E0= -.41314322E+03  EK= 0.29932E+00 SP= 0.00E+00 SK= 0.00E+00
       N       E                     dE             d eps       ncg     rms          rms(c)
RMM:   1    -0.413163816385E+03    0.17857E-02   -0.93144E+00  4288   0.668E-01    0.882E-01
RMM:   2    -0.413169959635E+03   -0.61432E-02   -0.11402E-01  4217   0.904E-02    0.644E-01
RMM:   3    -0.413166948729E+03    0.30109E-02   -0.14137E-02  4909   0.491E-02    0.124E-01
RMM:   4    -0.413199753602E+03   -0.32805E-01   -0.35132E-02  5136   0.156E-01    0.756E-01
RMM:   5    -0.413166149894E+03    0.33604E-01   -0.16034E-02  4798   0.126E-01    0.503E-02
RMM:   6    -0.413166364340E+03   -0.21445E-03   -0.28125E-03  5739   0.513E-02    0.333E-02
RMM:   7    -0.413166365029E+03   -0.68870E-06   -0.45302E-04  5682   0.194E-02    0.212E-02
RMM:   8    -0.413166359282E+03    0.57467E-05   -0.66287E-05  5135   0.880E-03    0.986E-03
RMM:   9    -0.413166357590E+03    0.16918E-05   -0.13168E-05  3936   0.409E-03    0.718E-03
RMM:  10    -0.413166358829E+03   -0.12389E-05   -0.19471E-06  2573   0.220E-03    0.450E-03
RMM:  11    -0.413166360082E+03   -0.12531E-05   -0.11736E-06  2508   0.172E-03    0.249E-03
RMM:  12    -0.413166362105E+03   -0.20233E-05   -0.17132E-06  2565   0.195E-03    0.101E-03
RMM:  13    -0.413166362715E+03   -0.60925E-06   -0.56052E-07  2364   0.130E-03
   11 T=    61. E= -.41286667E+03 F= -.41316636E+03 E0= -.41314400E+03  EK= 0.29969E+00 SP= 0.00E+00 SK= 0.00E+00
       N       E                     dE             d eps       ncg     rms          rms(c)
RMM:   1    -0.413163955456E+03    0.24066E-02   -0.93796E+00  4292   0.673E-01    0.893E-01
RMM:   2    -0.413169963662E+03   -0.60082E-02   -0.11472E-01  4229   0.902E-02    0.651E-01
RMM:   3    -0.413166704466E+03    0.32592E-02   -0.14298E-02  4848   0.460E-02    0.106E-01
RMM:   4    -0.413192671663E+03   -0.25967E-01   -0.27152E-02  5134   0.137E-01    0.674E-01
RMM:   5    -0.413166161233E+03    0.26510E-01   -0.12788E-02  4798   0.112E-01    0.467E-02
RMM:   6    -0.413166340896E+03   -0.17966E-03   -0.23004E-03  5783   0.458E-02    0.306E-02
RMM:   7    -0.413166346133E+03   -0.52375E-05   -0.36699E-04  5683   0.182E-02    0.197E-02
RMM:   8    -0.413166338044E+03    0.80891E-05   -0.62383E-05  4984   0.854E-03    0.979E-03
RMM:   9    -0.413166336054E+03    0.19899E-05   -0.12266E-05  3906   0.399E-03    0.745E-03
RMM:  10    -0.413166336639E+03   -0.58516E-06   -0.17878E-06  2557   0.220E-03
   12 T=    61. E= -.41286642E+03 F= -.41316634E+03 E0= -.41314401E+03  EK= 0.29992E+00 SP= 0.00E+00 SK= 0.00E+00
       N       E                     dE             d eps       ncg     rms          rms(c)
RMM:   1    -0.413165005857E+03    0.13302E-02   -0.93708E+00  4302   0.676E-01    0.908E-01
RMM:   2    -0.413170099727E+03   -0.50939E-02   -0.11364E-01  4304   0.905E-02    0.645E-01
RMM:   3    -0.413172625633E+03   -0.25259E-02   -0.17999E-02  5133   0.810E-02    0.330E-01
RMM:   4    -0.413190835282E+03   -0.18210E-01   -0.38778E-02  5082   0.168E-01    0.639E-01
RMM:   5    -0.413166927503E+03    0.23908E-01   -0.90579E-03  4684   0.104E-01    0.589E-02
RMM:   6    -0.413166949376E+03   -0.21873E-04   -0.18161E-03  5468   0.422E-02    0.317E-02
RMM:   7    -0.413166959069E+03   -0.96933E-05   -0.33882E-04  5952   0.168E-02    0.189E-02
RMM:   8    -0.413166952164E+03    0.69056E-05   -0.61607E-05  5130   0.900E-03    0.778E-03
RMM:   9    -0.413166946565E+03    0.55984E-05   -0.77317E-06  3349   0.359E-03    0.397E-03
RMM:  10    -0.413166944674E+03    0.18910E-05   -0.17272E-06  2544   0.213E-03    0.255E-03
RMM:  11    -0.413166941464E+03    0.32103E-05   -0.12509E-06  2508   0.178E-03    0.146E-03
RMM:  12    -0.413166938868E+03    0.25955E-05   -0.67928E-07  2459   0.137E-03    0.573E-04
RMM:  13    -0.413166937259E+03    0.16097E-05   -0.35062E-07  2086   0.983E-04    0.321E-04
RMM:  14    -0.413166935776E+03    0.14823E-05   -0.20834E-07  1575   0.783E-04    0.217E-04
RMM:  15    -0.413166933372E+03    0.24046E-05   -0.19473E-07  1436   0.742E-04    0.134E-04
RMM:  16    -0.413166931281E+03    0.20908E-05   -0.14737E-07  1338   0.684E-04    0.128E-04
RMM:  17    -0.413166928912E+03    0.23685E-05   -0.14188E-07  1321   0.663E-04    0.727E-05
RMM:  18    -0.413166927807E+03    0.11053E-05   -0.64893E-08   967   0.577E-04    0.421E-05
RMM:  19    -0.413166926912E+03    0.89549E-06   -0.42208E-08   865   0.552E-04
   13 T=    61. E= -.41286651E+03 F= -.41316693E+03 E0= -.41314463E+03  EK= 0.30042E+00 SP= 0.00E+00 SK= 0.00E+00
       N       E                     dE             d eps       ncg     rms          rms(c)
RMM:   1    -0.413165194381E+03    0.17334E-02   -0.93119E+00  4292   0.688E-01    0.885E-01
RMM:   2    -0.413171010393E+03   -0.58160E-02   -0.11384E-01  4239   0.906E-02    0.642E-01
RMM:   3    -0.413168230067E+03    0.27803E-02   -0.14092E-02  4915   0.494E-02    0.130E-01
RMM:   4    -0.413202331755E+03   -0.34102E-01   -0.36849E-02  5125   0.159E-01    0.770E-01
RMM:   5    -0.413167372641E+03    0.34959E-01   -0.16697E-02  4792   0.128E-01    0.512E-02
RMM:   6    -0.413167586807E+03   -0.21417E-03   -0.29222E-03  5735   0.522E-02    0.339E-02
RMM:   7    -0.413167587550E+03   -0.74322E-06   -0.46622E-04  5698   0.197E-02    0.216E-02
RMM:   8    -0.413167580232E+03    0.73176E-05   -0.68573E-05  5150   0.893E-03    0.101E-02
RMM:   9    -0.413167576939E+03    0.32933E-05   -0.13578E-05  3976   0.415E-03    0.727E-03
RMM:  10    -0.413167576475E+03    0.46380E-06   -0.19804E-06  2571   0.221E-03
   14 T=    61. E= -.41286660E+03 F= -.41316758E+03 E0= -.41314531E+03  EK= 0.30098E+00 SP= 0.00E+00 SK= 0.00E+00
       N       E                     dE             d eps       ncg     rms          rms(c)
RMM:   1    -0.413165278033E+03    0.22989E-02   -0.93971E+00  4306   0.689E-01    0.891E-01
RMM:   2    -0.413171403415E+03   -0.61254E-02   -0.11522E-01  4314   0.911E-02    0.653E-01
RMM:   3    -0.413174388973E+03   -0.29856E-02   -0.19500E-02  5129   0.874E-02    0.355E-01
RMM:   4    -0.413191760327E+03   -0.17371E-01   -0.41192E-02  5072   0.173E-01    0.641E-01
RMM:   5    -0.413167540835E+03    0.24219E-01   -0.89482E-03  4664   0.104E-01    0.585E-02
RMM:   6    -0.413167559932E+03   -0.19098E-04   -0.17786E-03  5424   0.416E-02    0.298E-02
RMM:   7    -0.413167579956E+03   -0.20023E-04   -0.32831E-04  5963   0.166E-02    0.182E-02
RMM:   8    -0.413167577850E+03    0.21051E-05   -0.61794E-05  5133   0.893E-03    0.751E-03
RMM:   9    -0.413167575663E+03    0.21870E-05   -0.78332E-06  3314   0.363E-03    0.381E-03
RMM:  10    -0.413167576568E+03   -0.90477E-06   -0.16006E-06  2533   0.207E-03
   15 T=    61. E= -.41286619E+03 F= -.41316758E+03 E0= -.41314534E+03  EK= 0.30139E+00 SP= 0.00E+00 SK= 0.00E+00
       N       E                     dE             d eps       ncg     rms          rms(c)
RMM:   1    -0.413167875747E+03   -0.30008E-03   -0.94121E+00  4305   0.698E-01    0.910E-01
RMM:   2    -0.413172154087E+03   -0.42783E-02   -0.11452E-01  4245   0.913E-02    0.648E-01
RMM:   3    -0.413169260036E+03    0.28941E-02   -0.14134E-02  4936   0.484E-02    0.135E-01
RMM:   4    -0.413203681526E+03   -0.34421E-01   -0.37099E-02  5130   0.160E-01    0.773E-01
RMM:   5    -0.413168423718E+03    0.35258E-01   -0.16987E-02  4799   0.129E-01    0.517E-02
RMM:   6    -0.413168633904E+03   -0.21019E-03   -0.29230E-03  5749   0.529E-02    0.348E-02
RMM:   7    -0.413168626906E+03    0.69983E-05   -0.47559E-04  5724   0.201E-02    0.222E-02
RMM:   8    -0.413168614930E+03    0.11975E-04   -0.72225E-05  5173   0.923E-03    0.105E-02
RMM:   9    -0.413168608828E+03    0.61026E-05   -0.13771E-05  3994   0.422E-03    0.751E-03
RMM:  10    -0.413168604830E+03    0.39973E-05   -0.21255E-06  2580   0.229E-03    0.463E-03
RMM:  11    -0.413168602003E+03    0.28277E-05   -0.11468E-06  2504   0.173E-03    0.268E-03
RMM:  12    -0.413168596501E+03    0.55019E-05   -0.18971E-06  2588   0.206E-03    0.113E-03
RMM:  13    -0.413168593641E+03    0.28598E-05   -0.64708E-07  2399   0.138E-03    0.902E-04
RMM:  14    -0.413168593877E+03   -0.23635E-06   -0.25599E-07  1963   0.892E-04
   16 T=    62. E= -.41286649E+03 F= -.41316859E+03 E0= -.41314640E+03  EK= 0.30211E+00 SP= 0.00E+00 SK= 0.00E+00
       N       E                     dE             d eps       ncg     rms          rms(c)
RMM:   1    -0.413166740590E+03    0.18531E-02   -0.93311E+00  4296   0.693E-01    0.891E-01
RMM:   2    -0.413172730289E+03   -0.59897E-02   -0.11386E-01  4253   0.909E-02    0.643E-01
RMM:   3    -0.413169511782E+03    0.32185E-02   -0.13850E-02  4868   0.463E-02    0.115E-01
RMM:   4    -0.413197694690E+03   -0.28183E-01   -0.29687E-02  5128   0.143E-01    0.701E-01
RMM:   5    -0.413168921540E+03    0.28773E-01   -0.13968E-02  4800   0.116E-01    0.481E-02
RMM:   6    -0.413169098336E+03   -0.17680E-03   -0.24548E-03  5787   0.475E-02    0.319E-02
RMM:   7    -0.413169097618E+03    0.71776E-06   -0.39108E-04  5672   0.188E-02    0.203E-02
RMM:   8    -0.413169085585E+03    0.12033E-04   -0.66389E-05  5035   0.884E-03    0.101E-02
RMM:   9    -0.413169080643E+03    0.49420E-05   -0.12917E-05  3980   0.412E-03    0.759E-03
RMM:  10    -0.413169077983E+03    0.26607E-05   -0.18799E-06  2563   0.222E-03    0.468E-03
RMM:  11    -0.413169075723E+03    0.22598E-05   -0.12845E-06  2514   0.183E-03    0.252E-03
RMM:  12    -0.413169072213E+03    0.35102E-05   -0.16064E-06  2546   0.195E-03    0.102E-03
RMM:  13    -0.413169070815E+03    0.13975E-05   -0.50843E-07  2337   0.127E-03    0.661E-04
RMM:  14    -0.413169070702E+03    0.11371E-06   -0.22992E-07  1859   0.842E-04
   17 T=    62. E= -.41286642E+03 F= -.41316907E+03 E0= -.41314691E+03  EK= 0.30265E+00 SP= 0.00E+00 SK= 0.00E+00
       N       E                     dE             d eps       ncg     rms          rms(c)
RMM:   1    -0.413167607315E+03    0.14635E-02   -0.94153E+00  4295   0.706E-01    0.889E-01
RMM:   2    -0.413173414863E+03   -0.58075E-02   -0.11588E-01  4258   0.926E-02    0.653E-01
RMM:   3    -0.413170089163E+03    0.33257E-02   -0.14768E-02  4869   0.486E-02    0.113E-01
RMM:   4    -0.413199804200E+03   -0.29715E-01   -0.31514E-02  5124   0.147E-01    0.720E-01
RMM:   5    -0.413169426342E+03    0.30378E-01   -0.14714E-02  4793   0.119E-01    0.485E-02
RMM:   6    -0.413169611036E+03   -0.18469E-03   -0.25666E-03  5772   0.488E-02    0.321E-02
RMM:   7    -0.413169611572E+03   -0.53610E-06   -0.41529E-04  5660   0.190E-02    0.206E-02
RMM:   8    -0.413169603887E+03    0.76848E-05   -0.64882E-05  5071   0.876E-03    0.985E-03
RMM:   9    -0.413169601181E+03    0.27064E-05   -0.12917E-05  3926   0.408E-03    0.728E-03
RMM:  10    -0.413169601287E+03   -0.10575E-06   -0.18478E-06  2558   0.218E-03
   18 T=    62. E= -.41286637E+03 F= -.41316960E+03 E0= -.41314748E+03  EK= 0.30323E+00 SP= 0.00E+00 SK= 0.00E+00
       N       E                     dE             d eps       ncg     rms          rms(c)
RMM:   1    -0.413168916868E+03    0.68431E-03   -0.94271E+00  4302   0.707E-01    0.909E-01
RMM:   2    -0.413174269202E+03   -0.53523E-02   -0.11503E-01  4316   0.926E-02    0.651E-01
RMM:   3    -0.413176511935E+03   -0.22427E-02   -0.18295E-02  5122   0.820E-02    0.329E-01
RMM:   4    -0.413195990501E+03   -0.19479E-01   -0.40476E-02  5077   0.171E-01    0.655E-01
RMM:   5    -0.413170773999E+03    0.25217E-01   -0.96394E-03  4681   0.106E-01    0.586E-02
RMM:   6    -0.413170801492E+03   -0.27492E-04   -0.19048E-03  5451   0.431E-02    0.315E-02
RMM:   7    -0.413170807574E+03   -0.60828E-05   -0.34938E-04  5951   0.170E-02    0.193E-02
RMM:   8    -0.413170799632E+03    0.79425E-05   -0.64290E-05  5139   0.912E-03    0.798E-03
RMM:   9    -0.413170793127E+03    0.65049E-05   -0.81047E-06  3373   0.368E-03    0.404E-03
RMM:  10    -0.413170790772E+03    0.23548E-05   -0.17834E-06  2545   0.215E-03    0.260E-03
RMM:  11    -0.413170786914E+03    0.38584E-05   -0.12244E-06  2505   0.177E-03    0.146E-03
RMM:  12    -0.413170783583E+03    0.33304E-05   -0.65587E-07  2453   0.137E-03    0.549E-04
RMM:  13    -0.413170781609E+03    0.19743E-05   -0.33200E-07  2085   0.979E-04    0.314E-04
RMM:  14    -0.413170779864E+03    0.17450E-05   -0.18793E-07  1555   0.774E-04    0.215E-04
RMM:  15    -0.413170776831E+03    0.30330E-05   -0.16433E-07  1421   0.730E-04    0.135E-04
RMM:  16    -0.413170774269E+03    0.25625E-05   -0.12202E-07  1298   0.671E-04    0.128E-04
RMM:  17    -0.413170771266E+03    0.30027E-05   -0.11316E-07  1301   0.659E-04    0.707E-05
RMM:  18    -0.413170769661E+03    0.16047E-05   -0.58976E-08   970   0.580E-04    0.401E-05
RMM:  19    -0.413170768678E+03    0.98277E-06   -0.34590E-08   846   0.552E-04
   19 T=    62. E= -.41286673E+03 F= -.41317077E+03 E0= -.41314869E+03  EK= 0.30404E+00 SP= 0.00E+00 SK= 0.00E+00
       N       E                     dE             d eps       ncg     rms          rms(c)
RMM:   1    -0.413169179442E+03    0.15902E-02   -0.93723E+00  4296   0.705E-01    0.899E-01
RMM:   2    -0.413174380963E+03   -0.52015E-02   -0.11456E-01  4263   0.917E-02    0.645E-01
RMM:   3    -0.413171930727E+03    0.24502E-02   -0.14211E-02  4952   0.502E-02    0.142E-01
RMM:   4    -0.413208179582E+03   -0.36249E-01   -0.39794E-02  5129   0.166E-01    0.794E-01
RMM:   5    -0.413170959907E+03    0.37220E-01   -0.17938E-02  4785   0.132E-01    0.526E-02
RMM:   6    -0.413171163284E+03   -0.20338E-03   -0.30476E-03  5738   0.543E-02    0.351E-02
RMM:   7    -0.413171157389E+03    0.58949E-05   -0.49019E-04  5694   0.203E-02    0.223E-02
RMM:   8    -0.413171146855E+03    0.10534E-04   -0.75524E-05  5201   0.946E-03    0.105E-02
RMM:   9    -0.413171140768E+03    0.60868E-05   -0.15018E-05  4107   0.437E-03    0.736E-03
RMM:  10    -0.413171137088E+03    0.36803E-05   -0.22132E-06  2590   0.230E-03    0.462E-03
RMM:  11    -0.413171134561E+03    0.25266E-05   -0.11044E-06  2503   0.170E-03    0.268E-03
RMM:  12    -0.413171129864E+03    0.46966E-05   -0.16984E-06  2549   0.201E-03    0.110E-03
RMM:  13    -0.413171127542E+03    0.23223E-05   -0.63473E-07  2388   0.137E-03    0.880E-04
RMM:  14    -0.413171127641E+03   -0.98371E-07   -0.26253E-07  1983   0.901E-04
   20 T=    62. E= -.41286646E+03 F= -.41317113E+03 E0= -.41314909E+03  EK= 0.30467E+00 SP= 0.00E+00 SK= 0.00E+00
       N       E                     dE             d eps       ncg     rms          rms(c)
RMM:   1    -0.413169909095E+03    0.12184E-02   -0.94232E+00  4296   0.710E-01    0.890E-01
RMM:   2    -0.413176002017E+03   -0.60929E-02   -0.11642E-01  4274   0.912E-02    0.654E-01
RMM:   3    -0.413172697479E+03    0.33045E-02   -0.14793E-02  4865   0.485E-02    0.110E-01
RMM:   4    -0.413201148774E+03   -0.28451E-01   -0.30069E-02  5125   0.144E-01    0.704E-01
RMM:   5    -0.413172082285E+03    0.29066E-01   -0.14124E-02  4791   0.117E-01    0.479E-02
RMM:   6    -0.413172254541E+03   -0.17226E-03   -0.24966E-03  5795   0.479E-02    0.308E-02
RMM:   7    -0.413172258943E+03   -0.44015E-05   -0.37544E-04  5669   0.184E-02    0.195E-02
RMM:   8    -0.413172250282E+03    0.86605E-05   -0.70679E-05  5025   0.891E-03    0.103E-02
RMM:   9    -0.413172246014E+03    0.42679E-05   -0.13673E-05  4091   0.425E-03    0.767E-03
RMM:  10    -0.413172245009E+03    0.10055E-05   -0.18447E-06  2556   0.221E-03    0.475E-03
RMM:  11    -0.413172244350E+03    0.65863E-06   -0.14227E-06  2523   0.190E-03
   21 T=    62. E= -.41286661E+03 F= -.41317224E+03 E0= -.41315026E+03  EK= 0.30564E+00 SP= 0.00E+00 SK= 0.00E+00
       N       E                     dE             d eps       ncg     rms          rms(c)
RMM:   1    -0.413175758723E+03   -0.35137E-02   -0.95089E+00  4299   0.752E-01    0.907E-01
RMM:   2    -0.413177011800E+03   -0.12531E-02   -0.12086E-01  4282   0.955E-02    0.655E-01
RMM:   3    -0.413173595793E+03    0.34160E-02   -0.14006E-02  4761   0.450E-02    0.105E-01
RMM:   4    -0.413194468675E+03   -0.20873E-01   -0.21536E-02  5139   0.122E-01    0.605E-01
RMM:   5    -0.413173228585E+03    0.21240E-01   -0.10518E-02  4813   0.100E-01    0.450E-02
RMM:   6    -0.413173344169E+03   -0.11558E-03   -0.18426E-03  5825   0.406E-02    0.268E-02
RMM:   7    -0.413173344503E+03   -0.33353E-06   -0.20553E-04  5602   0.142E-02    0.128E-02
RMM:   8    -0.413173336604E+03    0.78985E-05   -0.34856E-05  4805   0.608E-03    0.869E-03
RMM:   9    -0.413173335509E+03    0.10958E-05   -0.95364E-06  3687   0.343E-03    0.707E-03
RMM:  10    -0.413173332033E+03    0.34758E-05   -0.14889E-06  2545   0.210E-03    0.441E-03
RMM:  11    -0.413173328742E+03    0.32911E-05   -0.15200E-06  2532   0.193E-03    0.236E-03
RMM:  12    -0.413173324191E+03    0.45505E-05   -0.13048E-06  2503   0.181E-03    0.896E-04
RMM:  13    -0.413173322995E+03    0.11965E-05   -0.39369E-07  2247   0.113E-03    0.553E-04
RMM:  14    -0.413173322540E+03    0.45499E-06   -0.18645E-07  1687   0.778E-04
   22 T=    62. E= -.41286663E+03 F= -.41317332E+03 E0= -.41315138E+03  EK= 0.30669E+00 SP= 0.00E+00 SK= 0.00E+00
       N       E                     dE             d eps       ncg     rms          rms(c)
RMM:   1    -0.413172127463E+03    0.11955E-02   -0.94392E+00  4295   0.715E-01    0.909E-01
RMM:   2    -0.413177735628E+03   -0.56082E-02   -0.11553E-01  4284   0.928E-02    0.649E-01
RMM:   3    -0.413174485916E+03    0.32497E-02   -0.14180E-02  4859   0.486E-02    0.121E-01
RMM:   4    -0.413204024997E+03   -0.29539E-01   -0.31190E-02  5128   0.147E-01    0.717E-01
RMM:   5    -0.413173876084E+03    0.30149E-01   -0.14733E-02  4795   0.120E-01    0.496E-02
RMM:   6    -0.413174050664E+03   -0.17458E-03   -0.25945E-03  5777   0.493E-02    0.335E-02
RMM:   7    -0.413174044451E+03    0.62133E-05   -0.41475E-04  5649   0.194E-02    0.209E-02
RMM:   8    -0.413174030977E+03    0.13474E-04   -0.72123E-05  5120   0.920E-03    0.108E-02
RMM:   9    -0.413174023501E+03    0.74766E-05   -0.13439E-05  4019   0.423E-03    0.780E-03
RMM:  10    -0.413174018232E+03    0.52690E-05   -0.19629E-06  2570   0.227E-03    0.480E-03
RMM:  11    -0.413174013874E+03    0.43573E-05   -0.12573E-06  2510   0.182E-03    0.263E-03
RMM:  12    -0.413174006976E+03    0.68980E-05   -0.16944E-06  2548   0.201E-03    0.107E-03
RMM:  13    -0.413174003828E+03    0.31487E-05   -0.54571E-07  2364   0.132E-03    0.746E-04
RMM:  14    -0.413174003885E+03   -0.57178E-07   -0.24855E-07  1922   0.869E-04
   23 T=    63. E= -.41286635E+03 F= -.41317400E+03 E0= -.41315211E+03  EK= 0.30765E+00 SP= 0.00E+00 SK= 0.00E+00
       N       E                     dE             d eps       ncg     rms          rms(c)
RMM:   1    -0.413173499614E+03    0.50421E-03   -0.94539E+00  4297   0.731E-01    0.892E-01
RMM:   2    -0.413179732331E+03   -0.62327E-02   -0.11703E-01  4288   0.957E-02    0.654E-01
RMM:   3    -0.413175869518E+03    0.38628E-02   -0.14595E-02  4770   0.485E-02    0.101E-01
RMM:   4    -0.413199337843E+03   -0.23468E-01   -0.24312E-02  5127   0.130E-01    0.641E-01
RMM:   5    -0.413175413139E+03    0.23925E-01   -0.11756E-02  4800   0.107E-01    0.459E-02
RMM:   6    -0.413175550078E+03   -0.13694E-03   -0.20871E-03  5809   0.434E-02    0.289E-02
RMM:   7    -0.413175553395E+03   -0.33171E-05   -0.28289E-04  5668   0.166E-02    0.164E-02
RMM:   8    -0.413175547485E+03    0.59104E-05   -0.59629E-05  4991   0.806E-03    0.101E-02
RMM:   9    -0.413175542388E+03    0.50970E-05   -0.11664E-05  3931   0.400E-03    0.753E-03
RMM:  10    -0.413175540469E+03    0.19186E-05   -0.17601E-06  2557   0.220E-03    0.463E-03
RMM:  11    -0.413175538469E+03    0.20005E-05   -0.15023E-06  2516   0.197E-03    0.236E-03
RMM:  12    -0.413175535808E+03    0.26604E-05   -0.13677E-06  2503   0.183E-03    0.878E-04
RMM:  13    -0.413175534876E+03    0.93261E-06   -0.45249E-07  2261   0.118E-03
   24 T=    63. E= -.41286667E+03 F= -.41317553E+03 E0= -.41315369E+03  EK= 0.30887E+00 SP= 0.00E+00 SK= 0.00E+00
       N       E                     dE             d eps       ncg     rms          rms(c)
RMM:   1    -0.413174715993E+03    0.81982E-03   -0.95252E+00  4295   0.738E-01    0.906E-01
RMM:   2    -0.413180558343E+03   -0.58423E-02   -0.11772E-01  4282   0.977E-02    0.660E-01
RMM:   3    -0.413176706130E+03    0.38522E-02   -0.14722E-02  4688   0.485E-02    0.938E-02
RMM:   4    -0.413195016613E+03   -0.18310E-01   -0.18748E-02  5137   0.114E-01    0.568E-01
RMM:   5    -0.413176389067E+03    0.18628E-01   -0.92077E-03  4811   0.942E-02    0.439E-02
RMM:   6    -0.413176483788E+03   -0.94721E-04   -0.16276E-03  5816   0.380E-02    0.261E-02
RMM:   7    -0.413176481921E+03    0.18675E-05   -0.18462E-04  5551   0.138E-02    0.122E-02
RMM:   8    -0.413176475303E+03    0.66174E-05   -0.28242E-05  4601   0.553E-03    0.817E-03
RMM:   9    -0.413176473673E+03    0.16303E-05   -0.60190E-06  3103   0.291E-03    0.587E-03
RMM:  10    -0.413176471441E+03    0.22320E-05   -0.11645E-06  2517   0.184E-03    0.406E-03
RMM:  11    -0.413176467200E+03    0.42416E-05   -0.20557E-06  2574   0.229E-03    0.207E-03
RMM:  12    -0.413176464514E+03    0.26857E-05   -0.98160E-07  2463   0.165E-03    0.117E-03
RMM:  13    -0.413176463977E+03    0.53651E-06   -0.30926E-07  2190   0.100E-03
   25 T=    63. E= -.41286654E+03 F= -.41317646E+03 E0= -.41315467E+03  EK= 0.30992E+00 SP= 0.00E+00 SK= 0.00E+00
       N       E                     dE             d eps       ncg     rms          rms(c)
RMM:   1    -0.413176117800E+03    0.34671E-03   -0.95211E+00  4292   0.736E-01    0.918E-01
RMM:   2    -0.413181427819E+03   -0.53100E-02   -0.11685E-01  4281   0.972E-02    0.654E-01
RMM:   3    -0.413178023828E+03    0.34040E-02   -0.14310E-02  4582   0.467E-02    0.964E-02
RMM:   4    -0.413190802960E+03   -0.12779E-01   -0.13062E-02  5142   0.953E-02    0.476E-01
RMM:   5    -0.413177837977E+03    0.12965E-01   -0.65518E-03  4824   0.787E-02    0.429E-02
RMM:   6    -0.413177883669E+03   -0.45691E-04   -0.11724E-03  5825   0.320E-02    0.245E-02
RMM:   7    -0.413177881112E+03    0.25563E-05   -0.17379E-04  5522   0.137E-02    0.143E-02
RMM:   8    -0.413177867625E+03    0.13487E-04   -0.30541E-05  4689   0.612E-03    0.794E-03
RMM:   9    -0.413177864415E+03    0.32107E-05   -0.61017E-06  3159   0.305E-03    0.614E-03
RMM:  10    -0.413177859015E+03    0.53993E-05   -0.13000E-06  2503   0.202E-03    0.343E-03
RMM:  11    -0.413177852495E+03    0.65205E-05   -0.11864E-06  2501   0.179E-03    0.177E-03
RMM:  12    -0.413177846311E+03    0.61843E-05   -0.67631E-07  2393   0.136E-03    0.721E-04
RMM:  13    -0.413177844567E+03    0.17437E-05   -0.29372E-07  2026   0.934E-04    0.432E-04
RMM:  14    -0.413177842838E+03    0.17286E-05   -0.15084E-07  1493   0.730E-04    0.308E-04
RMM:  15    -0.413177837729E+03    0.51090E-05   -0.16388E-07  1761   0.760E-04    0.243E-04
RMM:  16    -0.413177835754E+03    0.19757E-05   -0.59897E-08   985   0.604E-04    0.177E-04
RMM:  17    -0.413177832322E+03    0.34313E-05   -0.59129E-08  1016   0.604E-04    0.125E-04
RMM:  18    -0.413177829306E+03    0.30168E-05   -0.50803E-08   975   0.590E-04    0.290E-05
RMM:  19    -0.413177828069E+03    0.12369E-05   -0.27185E-08   848   0.562E-04    0.352E-05
RMM:  20    -0.413177827749E+03    0.31996E-06   -0.11403E-08   697   0.537E-04
   26 T=    63. E= -.41286663E+03 F= -.41317783E+03 E0= -.41315608E+03  EK= 0.31120E+00 SP= 0.00E+00 SK= 0.00E+00
       N       E                     dE             d eps       ncg     rms          rms(c)
RMM:   1    -0.413178224364E+03   -0.39630E-03   -0.95051E+00  4291   0.768E-01    0.897E-01
RMM:   2    -0.413183309653E+03   -0.50853E-02   -0.11906E-01  4274   0.103E-01    0.655E-01
RMM:   3    -0.413179890743E+03    0.34189E-02   -0.14595E-02  4694   0.509E-02    0.988E-02
RMM:   4    -0.413200314403E+03   -0.20424E-01   -0.20944E-02  5142   0.121E-01    0.599E-01
RMM:   5    -0.413179552053E+03    0.20762E-01   -0.10332E-02  4810   0.991E-02    0.449E-02
RMM:   6    -0.413179659282E+03   -0.10723E-03   -0.17814E-03  5826   0.397E-02    0.279E-02
RMM:   7    -0.413179659466E+03   -0.18405E-06   -0.22841E-04  5601   0.154E-02    0.142E-02
RMM:   8    -0.413179655291E+03    0.41757E-05   -0.44355E-05  4929   0.700E-03    0.938E-03
RMM:   9    -0.413179650955E+03    0.43359E-05   -0.95574E-06  3697   0.357E-03    0.704E-03
RMM:  10    -0.413179648973E+03    0.19820E-05   -0.15495E-06  2530   0.215E-03    0.424E-03
RMM:  11    -0.413179646625E+03    0.23481E-05   -0.15222E-06  2529   0.196E-03    0.211E-03
RMM:  12    -0.413179643683E+03    0.29416E-05   -0.11513E-06  2480   0.172E-03    0.863E-04
RMM:  13    -0.413179642804E+03    0.87886E-06   -0.39410E-07  2218   0.111E-03
   27 T=    64. E= -.41286690E+03 F= -.41317964E+03 E0= -.41315794E+03  EK= 0.31274E+00 SP= 0.00E+00 SK= 0.00E+00
       N       E                     dE             d eps       ncg     rms          rms(c)
RMM:   1    -0.413178945707E+03    0.69798E-03   -0.96043E+00  4293   0.759E-01    0.907E-01
RMM:   2    -0.413184582303E+03   -0.56366E-02   -0.11955E-01  4277   0.102E-01    0.665E-01
RMM:   3    -0.413180822319E+03    0.37600E-02   -0.15247E-02  4412   0.497E-02    0.741E-02
RMM:   4    -0.413186673062E+03   -0.58507E-02   -0.60352E-03  5140   0.651E-02    0.324E-01
RMM:   5    -0.413180759776E+03    0.59133E-02   -0.30462E-03  4834   0.535E-02    0.394E-02
RMM:   6    -0.413180786862E+03   -0.27086E-04   -0.69572E-04  5740   0.244E-02    0.251E-02
RMM:   7    -0.413180778163E+03    0.86987E-05   -0.21980E-04  5290   0.151E-02    0.167E-02
RMM:   8    -0.413180765166E+03    0.12997E-04   -0.16093E-05  3984   0.542E-03    0.680E-03
RMM:   9    -0.413180763557E+03    0.16088E-05   -0.33809E-06  2741   0.240E-03    0.444E-03
RMM:  10    -0.413180761532E+03    0.20255E-05   -0.14406E-06  2494   0.194E-03    0.239E-03
RMM:  11    -0.413180759458E+03    0.20741E-05   -0.76792E-07  2433   0.148E-03    0.113E-03
RMM:  12    -0.413180757574E+03    0.18835E-05   -0.42527E-07  2155   0.108E-03    0.472E-04
RMM:  13    -0.413180756102E+03    0.14718E-05   -0.24889E-07  1758   0.848E-04    0.279E-04
RMM:  14    -0.413180754083E+03    0.20196E-05   -0.14890E-07  1377   0.729E-04    0.182E-04
RMM:  15    -0.413180751230E+03    0.28531E-05   -0.11946E-07  1255   0.682E-04    0.870E-05
RMM:  16    -0.413180749729E+03    0.15011E-05   -0.60651E-08   995   0.610E-04    0.634E-05
RMM:  17    -0.413180746811E+03    0.29173E-05   -0.73871E-08  1148   0.621E-04    0.499E-05
RMM:  18    -0.413180745962E+03    0.84959E-06   -0.29633E-08   834   0.553E-04
   28 T=    64. E= -.41286656E+03 F= -.41318075E+03 E0= -.41315910E+03  EK= 0.31419E+00 SP= 0.00E+00 SK= 0.00E+00
       N       E                     dE             d eps       ncg     rms          rms(c)
RMM:   1    -0.413181263376E+03   -0.51657E-03   -0.96231E+00  4288   0.758E-01    0.926E-01
RMM:   2    -0.413186477013E+03   -0.52136E-02   -0.11894E-01  4273   0.103E-01    0.660E-01
RMM:   3    -0.413182931137E+03    0.35459E-02   -0.14744E-02  4607   0.494E-02    0.989E-02
RMM:   4    -0.413197314051E+03   -0.14383E-01   -0.14656E-02  5146   0.101E-01    0.504E-01
RMM:   5    -0.413182744864E+03    0.14569E-01   -0.73688E-03  4826   0.831E-02    0.438E-02
RMM:   6    -0.413182802394E+03   -0.57530E-04   -0.13108E-03  5832   0.336E-02    0.266E-02
RMM:   7    -0.413182803340E+03   -0.94675E-06   -0.21556E-04  5503   0.151E-02    0.158E-02
RMM:   8    -0.413182788108E+03    0.15233E-04   -0.34894E-05  4771   0.666E-03    0.833E-03
RMM:   9    -0.413182785279E+03    0.28283E-05   -0.72599E-06  3302   0.327E-03    0.639E-03
RMM:  10    -0.413182780105E+03    0.51740E-05   -0.14498E-06  2509   0.211E-03    0.355E-03
RMM:  11    -0.413182775095E+03    0.50107E-05   -0.10502E-06  2492   0.171E-03    0.186E-03
RMM:  12    -0.413182769491E+03    0.56037E-05   -0.86078E-07  2462   0.148E-03    0.924E-04
RMM:  13    -0.413182767479E+03    0.20123E-05   -0.33222E-07  2143   0.101E-03    0.449E-04
RMM:  14    -0.413182766061E+03    0.14178E-05   -0.16287E-07  1552   0.744E-04    0.318E-04
RMM:  15    -0.413182762594E+03    0.34669E-05   -0.12705E-07  1525   0.712E-04    0.152E-04
RMM:  16    -0.413182759834E+03    0.27596E-05   -0.72380E-08  1144   0.631E-04    0.153E-04
RMM:  17    -0.413182757772E+03    0.20624E-05   -0.43356E-08   907   0.580E-04    0.104E-04
RMM:  18    -0.413182753933E+03    0.38385E-05   -0.56763E-08  1050   0.603E-04    0.390E-05
RMM:  19    -0.413182753082E+03    0.85107E-06   -0.21254E-08   762   0.549E-04
   29 T=    64. E= -.41286667E+03 F= -.41318275E+03 E0= -.41316116E+03  EK= 0.31609E+00 SP= 0.00E+00 SK= 0.00E+00
       N       E                     dE             d eps       ncg     rms          rms(c)
RMM:   1    -0.413185891409E+03   -0.31375E-02   -0.96213E+00  4288   0.807E-01    0.907E-01
RMM:   2    -0.413188725839E+03   -0.28344E-02   -0.12316E-01  4273   0.114E-01    0.658E-01
RMM:   3    -0.413184786751E+03    0.39391E-02   -0.14571E-02  4558   0.537E-02    0.955E-02
RMM:   4    -0.413197889861E+03   -0.13103E-01   -0.13355E-02  5146   0.968E-02    0.482E-01
RMM:   5    -0.413184619689E+03    0.13270E-01   -0.67366E-03  4827   0.794E-02    0.426E-02
RMM:   6    -0.413184668712E+03   -0.49024E-04   -0.12035E-03  5836   0.321E-02    0.259E-02
RMM:   7    -0.413184673302E+03   -0.45897E-05   -0.22170E-04  5476   0.151E-02    0.163E-02
RMM:   8    -0.413184657548E+03    0.15754E-04   -0.34135E-05  4730   0.671E-03    0.806E-03
RMM:   9    -0.413184655583E+03    0.19648E-05   -0.67195E-06  3220   0.319E-03    0.604E-03
RMM:  10    -0.413184652049E+03    0.35341E-05   -0.14497E-06  2499   0.208E-03    0.336E-03
RMM:  11    -0.413184648683E+03    0.33663E-05   -0.99710E-07  2493   0.165E-03    0.175E-03
RMM:  12    -0.413184644973E+03    0.37094E-05   -0.77522E-07  2449   0.141E-03    0.914E-04
RMM:  13    -0.413184643474E+03    0.14992E-05   -0.30452E-07  2087   0.974E-04    0.409E-04
RMM:  14    -0.413184642246E+03    0.12284E-05   -0.15220E-07  1482   0.730E-04    0.274E-04
RMM:  15    -0.413184639671E+03    0.25742E-05   -0.11254E-07  1384   0.690E-04    0.117E-04
RMM:  16    -0.413184637494E+03    0.21773E-05   -0.68145E-08  1076   0.631E-04    0.111E-04
RMM:  17    -0.413184635793E+03    0.17008E-05   -0.42941E-08   909   0.590E-04    0.777E-05
RMM:  18    -0.413184632650E+03    0.31427E-05   -0.54371E-08  1021   0.605E-04    0.306E-05
RMM:  19    -0.413184631886E+03    0.76455E-06   -0.21139E-08   764   0.553E-04
   30 T=    65. E= -.41286653E+03 F= -.41318463E+03 E0= -.41316308E+03  EK= 0.31810E+00 SP= 0.00E+00 SK= 0.00E+00
       N       E                     dE             d eps       ncg     rms          rms(c)
RMM:   1    -0.413188207870E+03   -0.35752E-02   -0.97500E+00  4294   0.810E-01    0.910E-01
RMM:   2    -0.413190949873E+03   -0.27420E-02   -0.12221E-01  4274   0.113E-01    0.670E-01
RMM:   3    -0.413186629749E+03    0.43201E-02   -0.15949E-02  4597   0.619E-02    0.922E-02
RMM:   4    -0.413205822994E+03   -0.19193E-01   -0.19466E-02  5136   0.117E-01    0.581E-01
RMM:   5    -0.413186314688E+03    0.19508E-01   -0.97906E-03  4815   0.958E-02    0.446E-02
RMM:   6    -0.413186399745E+03   -0.85056E-04   -0.16650E-03  5851   0.380E-02    0.272E-02
RMM:   7    -0.413186402773E+03   -0.30279E-05   -0.20314E-04  5518   0.146E-02    0.130E-02
RMM:   8    -0.413186396367E+03    0.64060E-05   -0.28196E-05  4558   0.568E-03    0.776E-03
RMM:   9    -0.413186395849E+03    0.51768E-06   -0.69929E-06  3259   0.304E-03
   31 T=    65. E= -.41286630E+03 F= -.41318640E+03 E0= -.41316490E+03  EK= 0.32009E+00 SP= 0.00E+00 SK= 0.00E+00
       N       E                     dE             d eps       ncg     rms          rms(c)
RMM:   1    -0.413189193581E+03   -0.27972E-02   -0.97700E+00  4296   0.826E-01    0.932E-01
RMM:   2    -0.413193160802E+03   -0.39672E-02   -0.12264E-01  4319   0.120E-01    0.668E-01
RMM:   3    -0.413195199681E+03   -0.20389E-02   -0.19742E-02  5075   0.960E-02    0.344E-01
RMM:   4    -0.413215625425E+03   -0.20426E-01   -0.41967E-02  5059   0.175E-01    0.672E-01
RMM:   5    -0.413188951005E+03    0.26674E-01   -0.10110E-02  4685   0.109E-01    0.571E-02
RMM:   6    -0.413189002524E+03   -0.51519E-04   -0.21225E-03  5650   0.439E-02    0.336E-02
RMM:   7    -0.413189002670E+03   -0.14550E-06   -0.36035E-04  5785   0.177E-02    0.208E-02
RMM:   8    -0.413188994367E+03    0.83029E-05   -0.70670E-05  5077   0.955E-03    0.878E-03
RMM:   9    -0.413188985368E+03    0.89993E-05   -0.10158E-05  3723   0.407E-03    0.438E-03
RMM:  10    -0.413188980911E+03    0.44569E-05   -0.19676E-06  2573   0.219E-03    0.284E-03
RMM:  11    -0.413188974478E+03    0.64323E-05   -0.11402E-06  2495   0.175E-03    0.151E-03
RMM:  12    -0.413188968028E+03    0.64504E-05   -0.69251E-07  2445   0.137E-03    0.533E-04
RMM:  13    -0.413188964686E+03    0.33423E-05   -0.35792E-07  2142   0.100E-03    0.327E-04
RMM:  14    -0.413188962040E+03    0.26456E-05   -0.19564E-07  1625   0.781E-04    0.232E-04
RMM:  15    -0.413188954965E+03    0.70750E-05   -0.17774E-07  1490   0.754E-04    0.211E-04
RMM:  16    -0.413188952357E+03    0.26085E-05   -0.87722E-08  1074   0.634E-04    0.148E-04
RMM:  17    -0.413188947982E+03    0.43747E-05   -0.89120E-08  1233   0.656E-04    0.789E-05
RMM:  18    -0.413188946056E+03    0.19258E-05   -0.54287E-08  1041   0.596E-04    0.555E-05
RMM:  19    -0.413188943843E+03    0.22129E-05   -0.39495E-08   945   0.575E-04    0.400E-05
RMM:  20    -0.413188943556E+03    0.28703E-06   -0.18939E-08   748   0.541E-04
   32 T=    66. E= -.41286664E+03 F= -.41318894E+03 E0= -.41316750E+03  EK= 0.32231E+00 SP= 0.00E+00 SK= 0.00E+00
       N       E                     dE             d eps       ncg     rms          rms(c)
RMM:   1    -0.413195597355E+03   -0.66535E-02   -0.97886E+00  4298   0.856E-01    0.921E-01
RMM:   2    -0.413194858864E+03    0.73849E-03   -0.12312E-01  4281   0.121E-01    0.664E-01
RMM:   3    -0.413190904209E+03    0.39547E-02   -0.15222E-02  4382   0.617E-02    0.855E-02
RMM:   4    -0.413195265398E+03   -0.43612E-02   -0.46934E-03  5161   0.576E-02    0.280E-01
RMM:   5    -0.413190881781E+03    0.43836E-02   -0.22700E-03  4825   0.464E-02    0.409E-02
RMM:   6    -0.413190913291E+03   -0.31510E-04   -0.64821E-04  5677   0.243E-02    0.296E-02
RMM:   7    -0.413190885209E+03    0.28082E-04   -0.24958E-04  5174   0.161E-02    0.171E-02
RMM:   8    -0.413190874961E+03    0.10248E-04   -0.21154E-05  4350   0.560E-03    0.687E-03
RMM:   9    -0.413190872624E+03    0.23360E-05   -0.26749E-06  2629   0.224E-03    0.440E-03
RMM:  10    -0.413190867772E+03    0.48528E-05   -0.11047E-06  2482   0.173E-03    0.233E-03
RMM:  11    -0.413190863646E+03    0.41253E-05   -0.71039E-07  2404   0.133E-03    0.106E-03
RMM:  12    -0.413190859591E+03    0.40550E-05   -0.40048E-07  2164   0.104E-03    0.436E-04
RMM:  13    -0.413190856896E+03    0.26956E-05   -0.21539E-07  1713   0.806E-04    0.249E-04
RMM:  14    -0.413190853959E+03    0.29366E-05   -0.11075E-07  1169   0.673E-04    0.174E-04
RMM:  15    -0.413190849742E+03    0.42167E-05   -0.87716E-08  1128   0.649E-04    0.771E-05
RMM:  16    -0.413190847653E+03    0.20897E-05   -0.50203E-08   947   0.605E-04    0.654E-05
RMM:  17    -0.413190843984E+03    0.36688E-05   -0.61081E-08  1146   0.617E-04    0.423E-05
RMM:  18    -0.413190842287E+03    0.16966E-05   -0.31690E-08   889   0.560E-04    0.295E-05
RMM:  19    -0.413190841741E+03    0.54596E-06   -0.15229E-08   676   0.527E-04
   33 T=    66. E= -.41286657E+03 F= -.41319084E+03 E0= -.41316944E+03  EK= 0.32427E+00 SP= 0.00E+00 SK= 0.00E+00
       N       E                     dE             d eps       ncg     rms          rms(c)
RMM:   1    -0.413193583791E+03   -0.27415E-02   -0.98455E+00  4298   0.848E-01    0.915E-01
RMM:   2    -0.413197415753E+03   -0.38320E-02   -0.12709E-01  4277   0.126E-01    0.675E-01
RMM:   3    -0.413193219367E+03    0.41964E-02   -0.15993E-02  4282   0.661E-02    0.712E-02
RMM:   4    -0.413194522122E+03   -0.13028E-02   -0.17015E-03  5166   0.341E-02    0.155E-01
RMM:   5    -0.413193236852E+03    0.12853E-02   -0.70973E-04  4819   0.263E-02    0.398E-02
RMM:   6    -0.413193260461E+03   -0.23609E-04   -0.42563E-04  5470   0.199E-02    0.289E-02
RMM:   7    -0.413193229775E+03    0.30686E-04   -0.20748E-04  4945   0.147E-02    0.188E-02
RMM:   8    -0.413193223011E+03    0.67636E-05   -0.25414E-05  4281   0.520E-03    0.608E-03
RMM:   9    -0.413193222415E+03    0.59648E-06   -0.27136E-06  2535   0.215E-03
   34 T=    66. E= -.41286673E+03 F= -.41319322E+03 E0= -.41317187E+03  EK= 0.32649E+00 SP= 0.00E+00 SK= 0.00E+00
       N       E                     dE             d eps       ncg     rms          rms(c)
RMM:   1    -0.413211289449E+03   -0.18066E-01   -0.10055E+01  4303   0.957E-01    0.936E-01
RMM:   2    -0.413199762952E+03    0.11526E-01   -0.14433E-01  4272   0.133E-01    0.679E-01
RMM:   3    -0.413195834824E+03    0.39281E-02   -0.14361E-02  4298   0.623E-02    0.107E-01
RMM:   4    -0.413196475285E+03   -0.64046E-03   -0.14468E-03  5127   0.300E-02    0.107E-01
RMM:   5    -0.413195923346E+03    0.55194E-03   -0.37933E-04  4807   0.198E-02    0.434E-02
RMM:   6    -0.413195920990E+03    0.23556E-05   -0.35114E-04  5334   0.191E-02    0.322E-02
RMM:   7    -0.413195887086E+03    0.33904E-04   -0.22213E-04  4775   0.146E-02    0.177E-02
RMM:   8    -0.413195881155E+03    0.59310E-05   -0.22991E-05  4378   0.512E-03    0.632E-03
RMM:   9    -0.413195879640E+03    0.15151E-05   -0.39695E-06  2430   0.216E-03    0.229E-03
RMM:  10    -0.413195871564E+03    0.80764E-05   -0.10340E-06  2356   0.159E-03    0.925E-04
RMM:  11    -0.413195867010E+03    0.45539E-05   -0.33328E-07  1960   0.959E-04    0.432E-04
RMM:  12    -0.413195861637E+03    0.53731E-05   -0.22379E-07  1618   0.817E-04    0.262E-04
RMM:  13    -0.413195856768E+03    0.48688E-05   -0.13432E-07  1231   0.692E-04    0.198E-04
RMM:  14    -0.413195850416E+03    0.63523E-05   -0.12535E-07  1177   0.665E-04    0.113E-04
RMM:  15    -0.413195843858E+03    0.65579E-05   -0.97857E-08  1083   0.637E-04    0.761E-05
RMM:  16    -0.413195841655E+03    0.22031E-05   -0.39546E-08   745   0.558E-04    0.604E-05
RMM:  17    -0.413195840017E+03    0.16383E-05   -0.26587E-08   705   0.540E-04    0.348E-05
RMM:  18    -0.413195839235E+03    0.78131E-06   -0.14144E-08   564   0.515E-04
   35 T=    67. E= -.41286691E+03 F= -.41319584E+03 E0= -.41317453E+03  EK= 0.32893E+00 SP= 0.00E+00 SK= 0.00E+00
       N       E                     dE             d eps       ncg     rms          rms(c)
RMM:   1    -0.413197461593E+03   -0.16216E-02   -0.98892E+00  4299   0.869E-01    0.936E-01
RMM:   2    -0.413201656334E+03   -0.41947E-02   -0.12815E-01  4258   0.131E-01    0.672E-01
RMM:   3    -0.413198120063E+03    0.35363E-02   -0.15430E-02  4499   0.662E-02    0.101E-01
RMM:   4    -0.413210246352E+03   -0.12126E-01   -0.12274E-02  5165   0.933E-02    0.465E-01
RMM:   5    -0.413198032365E+03    0.12214E-01   -0.62075E-03  4819   0.770E-02    0.445E-02
RMM:   6    -0.413198047519E+03   -0.15154E-04   -0.12372E-03  5793   0.338E-02    0.306E-02
RMM:   7    -0.413198046162E+03    0.13573E-05   -0.32229E-04  5386   0.178E-02    0.195E-02
RMM:   8    -0.413198027728E+03    0.18434E-04   -0.36963E-05  4877   0.728E-03    0.895E-03
RMM:   9    -0.413198024783E+03    0.29451E-05   -0.63655E-06  3091   0.314E-03    0.580E-03
RMM:  10    -0.413198019241E+03    0.55417E-05   -0.16327E-06  2521   0.220E-03    0.306E-03
RMM:  11    -0.413198013774E+03    0.54671E-05   -0.11244E-06  2491   0.175E-03    0.156E-03
RMM:  12    -0.413198008120E+03    0.56541E-05   -0.71250E-07  2434   0.141E-03    0.801E-04
RMM:  13    -0.413198005317E+03    0.28031E-05   -0.32939E-07  2079   0.988E-04    0.394E-04
RMM:  14    -0.413198003043E+03    0.22735E-05   -0.16617E-07  1536   0.748E-04    0.246E-04
RMM:  15    -0.413197998990E+03    0.40535E-05   -0.10256E-07  1259   0.675E-04    0.114E-04
RMM:  16    -0.413197995622E+03    0.33681E-05   -0.66052E-08  1061   0.633E-04    0.835E-05
RMM:  17    -0.413197993293E+03    0.23290E-05   -0.42661E-08   923   0.595E-04    0.547E-05
RMM:  18    -0.413197988774E+03    0.45190E-05   -0.56036E-08  1199   0.626E-04    0.312E-05
RMM:  19    -0.413197987582E+03    0.11922E-05   -0.23598E-08   835   0.551E-04    0.227E-05
RMM:  20    -0.413197987037E+03    0.54488E-06   -0.13285E-08   687   0.529E-04
   36 T=    67. E= -.41286670E+03 F= -.41319799E+03 E0= -.41317673E+03  EK= 0.33128E+00 SP= 0.00E+00 SK= 0.00E+00
       N       E                     dE             d eps       ncg     rms          rms(c)
RMM:   1    -0.413207755353E+03   -0.97678E-02   -0.10033E+01  4302   0.940E-01    0.922E-01
RMM:   2    -0.413205377589E+03    0.23778E-02   -0.13781E-01  4258   0.134E-01    0.680E-01
RMM:   3    -0.413201104556E+03    0.42730E-02   -0.15412E-02  4565   0.633E-02    0.102E-01
RMM:   4    -0.413217315647E+03   -0.16211E-01   -0.16447E-02  5158   0.108E-01    0.536E-01
RMM:   5    -0.413200955937E+03    0.16360E-01   -0.83204E-03  4816   0.888E-02    0.455E-02
RMM:   6    -0.413200970845E+03   -0.14908E-04   -0.15048E-03  5825   0.369E-02    0.302E-02
RMM:   7    -0.413200982699E+03   -0.11854E-04   -0.33250E-04  5456   0.178E-02    0.196E-02
RMM:   8    -0.413200965157E+03    0.17541E-04   -0.47166E-05  4947   0.792E-03    0.894E-03
RMM:   9    -0.413200963964E+03    0.11936E-05   -0.87490E-06  3421   0.362E-03    0.597E-03
RMM:  10    -0.413200961149E+03    0.28148E-05   -0.16745E-06  2534   0.224E-03    0.327E-03
RMM:  11    -0.413200958460E+03    0.26886E-05   -0.10798E-06  2498   0.170E-03    0.172E-03
RMM:  12    -0.413200954813E+03    0.36469E-05   -0.93937E-07  2473   0.153E-03    0.890E-04
RMM:  13    -0.413200953005E+03    0.18086E-05   -0.37271E-07  2153   0.104E-03    0.455E-04
RMM:  14    -0.413200951984E+03    0.10204E-05   -0.18143E-07  1573   0.761E-04    0.309E-04
RMM:  15    -0.413200949192E+03    0.27926E-05   -0.12074E-07  1319   0.696E-04    0.120E-04
RMM:  16    -0.413200947179E+03    0.20128E-05   -0.74814E-08  1076   0.635E-04    0.879E-05
RMM:  17    -0.413200945083E+03    0.20956E-05   -0.50932E-08   956   0.610E-04    0.736E-05
RMM:  18    -0.413200942124E+03    0.29590E-05   -0.50632E-08  1032   0.608E-04    0.364E-05
RMM:  19    -0.413200941054E+03    0.10699E-05   -0.24750E-08   805   0.564E-04    0.229E-05
RMM:  20    -0.413200940387E+03    0.66761E-06   -0.16031E-08   734   0.551E-04
   37 T=    68. E= -.41286690E+03 F= -.41320094E+03 E0= -.41317972E+03  EK= 0.33404E+00 SP= 0.00E+00 SK= 0.00E+00
       N       E                     dE             d eps       ncg     rms          rms(c)
RMM:   1    -0.413211596247E+03   -0.10655E-01   -0.10143E+01  4306   0.987E-01    0.940E-01
RMM:   2    -0.413208169316E+03    0.34269E-02   -0.14600E-01  4258   0.132E-01    0.688E-01
RMM:   3    -0.413203910529E+03    0.42588E-02   -0.15028E-02  4768   0.601E-02    0.135E-01
RMM:   4    -0.413237493708E+03   -0.33583E-01   -0.34694E-02  5135   0.156E-01    0.763E-01
RMM:   5    -0.413203410898E+03    0.34083E-01   -0.17117E-02  4801   0.127E-01    0.516E-02
RMM:   6    -0.413203483645E+03   -0.72747E-04   -0.28064E-03  5849   0.498E-02    0.330E-02
RMM:   7    -0.413203491533E+03   -0.78883E-05   -0.34544E-04  5623   0.180E-02    0.169E-02
RMM:   8    -0.413203484431E+03    0.71026E-05   -0.49472E-05  4843   0.736E-03    0.943E-03
RMM:   9    -0.413203484473E+03   -0.41960E-07   -0.19468E-05  4463   0.461E-03    0.794E-03
RMM:  10    -0.413203478812E+03    0.56610E-05   -0.31757E-06  2743   0.272E-03    0.441E-03
RMM:  11    -0.413203476091E+03    0.27205E-05   -0.15290E-06  2517   0.197E-03    0.275E-03
RMM:  12    -0.413203469341E+03    0.67505E-05   -0.21152E-06  2579   0.230E-03    0.134E-03
RMM:  13    -0.413203466528E+03    0.28123E-05   -0.65902E-07  2411   0.147E-03    0.832E-04
RMM:  14    -0.413203466333E+03    0.19508E-06   -0.26019E-07  2053   0.921E-04
   38 T=    69. E= -.41286671E+03 F= -.41320347E+03 E0= -.41318229E+03  EK= 0.33675E+00 SP= 0.00E+00 SK= 0.00E+00
       N       E                     dE             d eps       ncg     rms          rms(c)
RMM:   1    -0.413207067116E+03   -0.36006E-02   -0.10091E+01  4302   0.966E-01    0.953E-01
RMM:   2    -0.413210638322E+03   -0.35712E-02   -0.13353E-01  4258   0.124E-01    0.682E-01
RMM:   3    -0.413206568040E+03    0.40703E-02   -0.15739E-02  4853   0.569E-02    0.136E-01
RMM:   4    -0.413241079810E+03   -0.34512E-01   -0.36072E-02  5138   0.159E-01    0.774E-01
RMM:   5    -0.413205997702E+03    0.35082E-01   -0.17556E-02  4805   0.129E-01    0.531E-02
RMM:   6    -0.413206073583E+03   -0.75882E-04   -0.28908E-03  5833   0.506E-02    0.340E-02
RMM:   7    -0.413206085529E+03   -0.11946E-04   -0.40283E-04  5686   0.191E-02    0.194E-02
RMM:   8    -0.413206072078E+03    0.13451E-04   -0.73869E-05  5097   0.901E-03    0.111E-02
RMM:   9    -0.413206067981E+03    0.40977E-05   -0.19846E-05  4519   0.506E-03    0.757E-03
RMM:  10    -0.413206060426E+03    0.75551E-05   -0.27137E-06  2670   0.259E-03    0.436E-03
RMM:  11    -0.413206056026E+03    0.43993E-05   -0.12066E-06  2489   0.181E-03    0.271E-03
RMM:  12    -0.413206045260E+03    0.10766E-04   -0.17644E-06  2532   0.213E-03    0.136E-03
RMM:  13    -0.413206039967E+03    0.52933E-05   -0.67995E-07  2402   0.145E-03    0.887E-04
RMM:  14    -0.413206039397E+03    0.57008E-06   -0.27226E-07  2071   0.934E-04
   39 T=    69. E= -.41286653E+03 F= -.41320604E+03 E0= -.41318490E+03  EK= 0.33951E+00 SP= 0.00E+00 SK= 0.00E+00
       N       E                     dE             d eps       ncg     rms          rms(c)
RMM:   1    -0.413222794742E+03   -0.16755E-01   -0.10243E+01  4309   0.109E+00    0.931E-01
RMM:   2    -0.413214094920E+03    0.86998E-02   -0.15545E-01  4258   0.131E-01    0.688E-01
RMM:   3    -0.413209926807E+03    0.41681E-02   -0.14593E-02  4931   0.603E-02    0.172E-01
RMM:   4    -0.413257837990E+03   -0.47911E-01   -0.51772E-02  5131   0.189E-01    0.907E-01
RMM:   5    -0.413208898930E+03    0.48939E-01   -0.24197E-02  4792   0.152E-01    0.579E-02
RMM:   6    -0.413209046521E+03   -0.14759E-03   -0.39827E-03  5832   0.589E-02    0.361E-02
RMM:   7    -0.413209056059E+03   -0.95380E-05   -0.46467E-04  5737   0.201E-02    0.196E-02
RMM:   8    -0.413209055478E+03    0.58112E-06   -0.86630E-05  5156   0.923E-03    0.121E-02
RMM:   9    -0.413209046793E+03    0.86853E-05   -0.25978E-05  4658   0.548E-03    0.780E-03
RMM:  10    -0.413209042434E+03    0.43588E-05   -0.41540E-06  2808   0.296E-03    0.467E-03
RMM:  11    -0.413209039013E+03    0.34213E-05   -0.16907E-06  2509   0.212E-03    0.287E-03
RMM:  12    -0.413209031127E+03    0.78858E-05   -0.19348E-06  2539   0.224E-03    0.111E-03
RMM:  13    -0.413209026783E+03    0.43434E-05   -0.77237E-07  2442   0.153E-03    0.903E-04
RMM:  14    -0.413209026647E+03    0.13600E-06   -0.30854E-07  2144   0.989E-04
   40 T=    70. E= -.41286665E+03 F= -.41320903E+03 E0= -.41318793E+03  EK= 0.34237E+00 SP= 0.00E+00 SK= 0.00E+00
       N       E                     dE             d eps       ncg     rms          rms(c)
RMM:   1    -0.413222328091E+03   -0.13301E-01   -0.10343E+01  4309   0.111E+00    0.947E-01
RMM:   2    -0.413216249348E+03    0.60787E-02   -0.14348E-01  4262   0.139E-01    0.696E-01
RMM:   3    -0.413212533621E+03    0.37157E-02   -0.17021E-02  4980   0.664E-02    0.184E-01
RMM:   4    -0.413261587069E+03   -0.49053E-01   -0.55807E-02  5131   0.197E-01    0.921E-01
RMM:   5    -0.413210949555E+03    0.50638E-01   -0.24346E-02  4788   0.154E-01    0.591E-02
RMM:   6    -0.413211105855E+03   -0.15630E-03   -0.41046E-03  5824   0.598E-02    0.362E-02
RMM:   7    -0.413211118094E+03   -0.12239E-04   -0.49541E-04  5771   0.205E-02    0.206E-02
RMM:   8    -0.413211119433E+03   -0.13390E-05   -0.10379E-04  5212   0.101E-02    0.134E-02
RMM:   9    -0.413211108463E+03    0.10970E-04   -0.26383E-05  4709   0.575E-03    0.759E-03
RMM:  10    -0.413211104501E+03    0.39625E-05   -0.43557E-06  2827   0.297E-03    0.457E-03
RMM:  11    -0.413211101512E+03    0.29891E-05   -0.15557E-06  2504   0.208E-03    0.279E-03
RMM:  12    -0.413211094616E+03    0.68956E-05   -0.16973E-06  2527   0.213E-03    0.109E-03
RMM:  13    -0.413211090246E+03    0.43705E-05   -0.74883E-07  2439   0.149E-03    0.785E-04
RMM:  14    -0.413211089814E+03    0.43170E-06   -0.30893E-07  2136   0.981E-04
   41 T=    70. E= -.41286627E+03 F= -.41321109E+03 E0= -.41319002E+03  EK= 0.34482E+00 SP= 0.00E+00 SK= 0.00E+00
       N       E                     dE             d eps       ncg     rms          rms(c)
RMM:   1    -0.413222971169E+03   -0.11881E-01   -0.10336E+01  4311   0.116E+00    0.966E-01
RMM:   2    -0.413218254248E+03    0.47169E-02   -0.14412E-01  4294   0.135E-01    0.693E-01
RMM:   3    -0.413216547739E+03    0.17065E-02   -0.17811E-02  5061   0.747E-02    0.253E-01
RMM:   4    -0.413258913681E+03   -0.42366E-01   -0.55763E-02  5100   0.198E-01    0.874E-01
RMM:   5    -0.413213548725E+03    0.45365E-01   -0.20591E-02  4763   0.145E-01    0.613E-02
RMM:   6    -0.413213657246E+03   -0.10852E-03   -0.36297E-03  5792   0.567E-02    0.372E-02
RMM:   7    -0.413213663744E+03   -0.64974E-05   -0.49779E-04  5746   0.207E-02    0.228E-02
RMM:   8    -0.413213661880E+03    0.18636E-05   -0.13085E-04  5223   0.116E-02    0.139E-02
RMM:   9    -0.413213646734E+03    0.15146E-04   -0.22763E-05  4528   0.590E-03    0.630E-03
RMM:  10    -0.413213640669E+03    0.60646E-05   -0.50366E-06  2967   0.292E-03    0.389E-03
RMM:  11    -0.413213635583E+03    0.50860E-05   -0.13021E-06  2500   0.196E-03    0.223E-03
RMM:  12    -0.413213626065E+03    0.95185E-05   -0.10976E-06  2477   0.179E-03    0.864E-04
RMM:  13    -0.413213620177E+03    0.58883E-05   -0.52331E-07  2366   0.126E-03    0.510E-04
RMM:  14    -0.413213618909E+03    0.12678E-05   -0.25793E-07  1973   0.891E-04    0.355E-04
RMM:  15    -0.413213615962E+03    0.29471E-05   -0.13758E-07  1457   0.715E-04    0.194E-04
RMM:  16    -0.413213608908E+03    0.70542E-05   -0.11800E-07  1436   0.711E-04    0.228E-04
RMM:  17    -0.413213606625E+03    0.22829E-05   -0.56096E-08   982   0.604E-04    0.138E-04
RMM:  18    -0.413213601462E+03    0.51630E-05   -0.66626E-08  1312   0.643E-04    0.117E-04
RMM:  19    -0.413213599273E+03    0.21891E-05   -0.37539E-08  1015   0.570E-04    0.565E-05
RMM:  20    -0.413213598046E+03    0.12262E-05   -0.25027E-08   889   0.545E-04    0.304E-05
RMM:  21    -0.413213597795E+03    0.25090E-06   -0.12962E-08   711   0.521E-04
   42 T=    71. E= -.41286641E+03 F= -.41321360E+03 E0= -.41319256E+03  EK= 0.34719E+00 SP= 0.00E+00 SK= 0.00E+00
       N       E                     dE             d eps       ncg     rms          rms(c)
RMM:   1    -0.413251157337E+03   -0.37559E-01   -0.10560E+01  4312   0.134E+00    0.943E-01
RMM:   2    -0.413220373861E+03    0.30783E-01   -0.18110E-01  4304   0.151E-01    0.696E-01
RMM:   3    -0.413220022455E+03    0.35141E-03   -0.16033E-02  5071   0.812E-02    0.325E-01
RMM:   4    -0.413260498869E+03   -0.40476E-01   -0.59296E-02  5097   0.205E-01    0.872E-01
RMM:   5    -0.413215574276E+03    0.44925E-01   -0.19983E-02  4740   0.146E-01    0.651E-02
RMM:   6    -0.413215648608E+03   -0.74332E-04   -0.35397E-03  5736   0.564E-02    0.371E-02
RMM:   7    -0.413215653616E+03   -0.50075E-05   -0.52509E-04  5810   0.207E-02    0.248E-02
RMM:   8    -0.413215651004E+03    0.26113E-05   -0.13468E-04  5187   0.121E-02    0.130E-02
RMM:   9    -0.413215639419E+03    0.11586E-04   -0.22991E-05  4543   0.603E-03    0.507E-03
RMM:  10    -0.413215636252E+03    0.31663E-05   -0.49162E-06  2929   0.277E-03    0.322E-03
RMM:  11    -0.413215632478E+03    0.37742E-05   -0.13738E-06  2501   0.192E-03    0.177E-03
RMM:  12    -0.413215627289E+03    0.51892E-05   -0.80718E-07  2463   0.152E-03    0.665E-04
RMM:  13    -0.413215624063E+03    0.32253E-05   -0.40386E-07  2161   0.108E-03    0.321E-04
RMM:  14    -0.413215621979E+03    0.20840E-05   -0.21845E-07  1721   0.827E-04    0.215E-04
RMM:  15    -0.413215618449E+03    0.35300E-05   -0.14345E-07  1389   0.724E-04    0.112E-04
RMM:  16    -0.413215615656E+03    0.27937E-05   -0.92225E-08  1175   0.669E-04    0.860E-05
RMM:  17    -0.413215613256E+03    0.23999E-05   -0.68442E-08  1152   0.642E-04    0.542E-05
RMM:  18    -0.413215610508E+03    0.27478E-05   -0.52546E-08  1096   0.618E-04    0.356E-05
RMM:  19    -0.413215608647E+03    0.18609E-05   -0.35885E-08   994   0.585E-04    0.247E-05
RMM:  20    -0.413215608043E+03    0.60372E-06   -0.19949E-08   794   0.552E-04
   43 T=    71. E= -.41286650E+03 F= -.41321561E+03 E0= -.41319460E+03  EK= 0.34911E+00 SP= 0.00E+00 SK= 0.00E+00
       N       E                     dE             d eps       ncg     rms          rms(c)
RMM:   1    -0.413225755709E+03   -0.10147E-01   -0.10392E+01  4312   0.126E+00    0.949E-01
RMM:   2    -0.413221851780E+03    0.39039E-02   -0.15141E-01  4314   0.154E-01    0.704E-01
RMM:   3    -0.413222854634E+03   -0.10029E-02   -0.20870E-02  5067   0.942E-02    0.340E-01
RMM:   4    -0.413255141778E+03   -0.32287E-01   -0.54878E-02  5070   0.200E-01    0.802E-01
RMM:   5    -0.413216932110E+03    0.38210E-01   -0.15757E-02  4715   0.132E-01    0.608E-02
RMM:   6    -0.413216972981E+03   -0.40872E-04   -0.29392E-03  5717   0.515E-02    0.353E-02
RMM:   7    -0.413216969954E+03    0.30277E-05   -0.44273E-04  5731   0.199E-02    0.231E-02
RMM:   8    -0.413216966450E+03    0.35034E-05   -0.11847E-04  5160   0.115E-02    0.119E-02
RMM:   9    -0.413216956512E+03    0.99381E-05   -0.18012E-05  4348   0.553E-03    0.488E-03
RMM:  10    -0.413216954060E+03    0.24521E-05   -0.38541E-06  2792   0.257E-03    0.304E-03
RMM:  11    -0.413216951255E+03    0.28050E-05   -0.12416E-06  2495   0.184E-03    0.163E-03
RMM:  12    -0.413216947035E+03    0.42201E-05   -0.82646E-07  2454   0.150E-03    0.646E-04
RMM:  13    -0.413216944485E+03    0.25496E-05   -0.40107E-07  2129   0.106E-03    0.306E-04
RMM:  14    -0.413216942818E+03    0.16679E-05   -0.21647E-07  1655   0.812E-04    0.202E-04
RMM:  15    -0.413216939216E+03    0.36013E-05   -0.15456E-07  1379   0.732E-04    0.129E-04
RMM:  16    -0.413216937410E+03    0.18061E-05   -0.90260E-08  1128   0.656E-04    0.870E-05
RMM:  17    -0.413216935194E+03    0.22161E-05   -0.68640E-08  1101   0.638E-04    0.502E-05
RMM:  18    -0.413216932785E+03    0.24089E-05   -0.57343E-08  1108   0.620E-04    0.338E-05
RMM:  19    -0.413216931007E+03    0.17785E-05   -0.36791E-08   976   0.587E-04    0.228E-05
RMM:  20    -0.413216930394E+03    0.61265E-06   -0.21051E-08   801   0.554E-04
   44 T=    71. E= -.41286644E+03 F= -.41321693E+03 E0= -.41319595E+03  EK= 0.35049E+00 SP= 0.00E+00 SK= 0.00E+00
       N       E                     dE             d eps       ncg     rms          rms(c)
RMM:   1    -0.413258145898E+03   -0.41215E-01   -0.10672E+01  4311   0.149E+00    0.971E-01
RMM:   2    -0.413222855846E+03    0.35290E-01   -0.17072E-01  4326   0.167E-01    0.702E-01
RMM:   3    -0.413226967107E+03   -0.41113E-02   -0.21263E-02  5104   0.104E-01    0.420E-01
RMM:   4    -0.413246885662E+03   -0.19919E-01   -0.48800E-02  5058   0.190E-01    0.700E-01
RMM:   5    -0.413218407518E+03    0.28478E-01   -0.11103E-02  4673   0.117E-01    0.610E-02
RMM:   6    -0.413218394100E+03    0.13419E-04   -0.22123E-03  5628   0.454E-02    0.356E-02
RMM:   7    -0.413218391366E+03    0.27334E-05   -0.38217E-04  5651   0.189E-02    0.235E-02
RMM:   8    -0.413218381390E+03    0.99766E-05   -0.12093E-04  5083   0.118E-02    0.111E-02
RMM:   9    -0.413218368363E+03    0.13026E-04   -0.16735E-05  4355   0.560E-03    0.449E-03
RMM:  10    -0.413218364536E+03    0.38271E-05   -0.32967E-06  2762   0.239E-03    0.266E-03
RMM:  11    -0.413218358900E+03    0.56359E-05   -0.12030E-06  2486   0.181E-03    0.145E-03
RMM:  12    -0.413218352864E+03    0.60362E-05   -0.64951E-07  2434   0.138E-03    0.657E-04
RMM:  13    -0.413218349196E+03    0.36685E-05   -0.31812E-07  1969   0.966E-04    0.305E-04
RMM:  14    -0.413218345900E+03    0.32952E-05   -0.18016E-07  1519   0.760E-04    0.176E-04
RMM:  15    -0.413218340941E+03    0.49595E-05   -0.13236E-07  1337   0.710E-04    0.125E-04
RMM:  16    -0.413218337943E+03    0.29978E-05   -0.84727E-08  1166   0.653E-04    0.931E-05
RMM:  17    -0.413218333316E+03    0.46272E-05   -0.80618E-08  1333   0.657E-04    0.616E-05
RMM:  18    -0.413218331287E+03    0.20285E-05   -0.44514E-08  1005   0.575E-04    0.462E-05
RMM:  19    -0.413218329243E+03    0.20441E-05   -0.33948E-08   953   0.561E-04    0.241E-05
RMM:  20    -0.413218328980E+03    0.26320E-06   -0.16385E-08   717   0.525E-04
   45 T=    72. E= -.41286691E+03 F= -.41321833E+03 E0= -.41319737E+03  EK= 0.35142E+00 SP= 0.00E+00 SK= 0.00E+00
       N       E                     dE             d eps       ncg     rms          rms(c)
RMM:   1    -0.413251103803E+03   -0.32775E-01   -0.10491E+01  4310   0.153E+00    0.954E-01
RMM:   2    -0.413222709764E+03    0.28394E-01   -0.16868E-01  4342   0.178E-01    0.696E-01
RMM:   3    -0.413229330073E+03   -0.66203E-02   -0.23142E-02  5107   0.115E-01    0.472E-01
RMM:   4    -0.413241208333E+03   -0.11878E-01   -0.45868E-02  5037   0.186E-01    0.632E-01
RMM:   5    -0.413218174443E+03    0.23034E-01   -0.83782E-03  4624   0.107E-01    0.593E-02
RMM:   6    -0.413218140355E+03    0.34088E-04   -0.17721E-03  5516   0.409E-02    0.339E-02
RMM:   7    -0.413218136266E+03    0.40893E-05   -0.32756E-04  5596   0.177E-02    0.227E-02
RMM:   8    -0.413218124764E+03    0.11502E-04   -0.12647E-04  5070   0.119E-02    0.106E-02
RMM:   9    -0.413218112094E+03    0.12670E-04   -0.15635E-05  4295   0.554E-03    0.431E-03
RMM:  10    -0.413218108731E+03    0.33626E-05   -0.28958E-06  2710   0.228E-03    0.249E-03
RMM:  11    -0.413218103324E+03    0.54068E-05   -0.11875E-06  2481   0.178E-03    0.133E-03
RMM:  12    -0.413218098154E+03    0.51703E-05   -0.61235E-07  2410   0.134E-03    0.668E-04
RMM:  13    -0.413218094682E+03    0.34718E-05   -0.29567E-07  1889   0.934E-04    0.315E-04
RMM:  14    -0.413218091335E+03    0.33477E-05   -0.16636E-07  1418   0.739E-04    0.172E-04
RMM:  15    -0.413218086977E+03    0.43576E-05   -0.12125E-07  1260   0.692E-04    0.118E-04
RMM:  16    -0.413218084161E+03    0.28160E-05   -0.80348E-08  1160   0.645E-04    0.945E-05
RMM:  17    -0.413218079476E+03    0.46850E-05   -0.79875E-08  1323   0.654E-04    0.670E-05
RMM:  18    -0.413218077621E+03    0.18550E-05   -0.42439E-08   993   0.569E-04    0.452E-05
RMM:  19    -0.413218076067E+03    0.15544E-05   -0.29149E-08   878   0.541E-04    0.257E-05
RMM:  20    -0.413218075478E+03    0.58802E-06   -0.16978E-08   732   0.520E-04
   46 T=    71. E= -.41286691E+03 F= -.41321808E+03 E0= -.41319714E+03  EK= 0.35116E+00 SP= 0.00E+00 SK= 0.00E+00
       N       E                     dE             d eps       ncg     rms          rms(c)
RMM:   1    -0.413234122714E+03   -0.16047E-01   -0.10333E+01  4311   0.152E+00    0.943E-01
RMM:   2    -0.413221954921E+03    0.12168E-01   -0.16302E-01  4365   0.184E-01    0.706E-01
RMM:   3    -0.413230735692E+03   -0.87808E-02   -0.26383E-02  5097   0.127E-01    0.511E-01
RMM:   4    -0.413238720129E+03   -0.79844E-02   -0.47362E-02  5031   0.191E-01    0.610E-01
RMM:   5    -0.413217014756E+03    0.21705E-01   -0.74132E-03  4609   0.104E-01    0.584E-02
RMM:   6    -0.413216959777E+03    0.54979E-04   -0.15723E-03  5449   0.389E-02    0.320E-02
RMM:   7    -0.413216953887E+03    0.58901E-05   -0.28943E-04  5588   0.168E-02    0.216E-02
RMM:   8    -0.413216943004E+03    0.10883E-04   -0.12842E-04  5079   0.120E-02    0.103E-02
RMM:   9    -0.413216931496E+03    0.11508E-04   -0.15081E-05  4216   0.549E-03    0.420E-03
RMM:  10    -0.413216929266E+03    0.22300E-05   -0.29632E-06  2713   0.228E-03    0.242E-03
RMM:  11    -0.413216925435E+03    0.38311E-05   -0.12551E-06  2496   0.180E-03    0.125E-03
RMM:  12    -0.413216922081E+03    0.33544E-05   -0.60988E-07  2392   0.132E-03    0.673E-04
RMM:  13    -0.413216919395E+03    0.26855E-05   -0.30386E-07  1844   0.932E-04    0.315E-04
RMM:  14    -0.413216916784E+03    0.26115E-05   -0.17360E-07  1389   0.740E-04    0.165E-04
RMM:  15    -0.413216913703E+03    0.30805E-05   -0.13121E-07  1282   0.699E-04    0.111E-04
RMM:  16    -0.413216911643E+03    0.20603E-05   -0.85256E-08  1167   0.646E-04    0.887E-05
RMM:  17    -0.413216908009E+03    0.36334E-05   -0.82567E-08  1246   0.648E-04    0.561E-05
RMM:  18    -0.413216906475E+03    0.15348E-05   -0.43663E-08   959   0.572E-04    0.424E-05
RMM:  19    -0.413216905352E+03    0.11226E-05   -0.26101E-08   807   0.544E-04    0.242E-05
RMM:  20    -0.413216904505E+03    0.84696E-06   -0.19482E-08   760   0.536E-04
   47 T=    71. E= -.41286711E+03 F= -.41321690E+03 E0= -.41319598E+03  EK= 0.34980E+00 SP= 0.00E+00 SK= 0.00E+00
       N       E                     dE             d eps       ncg     rms          rms(c)
RMM:   1    -0.413241106131E+03   -0.24201E-01   -0.10308E+01  4306   0.167E+00    0.960E-01
RMM:   2    -0.413219268739E+03    0.21837E-01   -0.16736E-01  4412   0.198E-01    0.702E-01
RMM:   3    -0.413234969158E+03   -0.15700E-01   -0.31328E-02  5133   0.145E-01    0.621E-01
RMM:   4    -0.413228332240E+03    0.66369E-02   -0.43438E-02  4986   0.186E-01    0.494E-01
RMM:   5    -0.413214585431E+03    0.13747E-01   -0.46756E-03  4545   0.905E-02    0.581E-02
RMM:   6    -0.413214477234E+03    0.10820E-03   -0.79824E-04  4963   0.311E-02    0.308E-02
RMM:   7    -0.413214460882E+03    0.16352E-04   -0.17723E-04  5661   0.133E-02    0.138E-02
RMM:   8    -0.413214462555E+03   -0.16738E-05   -0.94280E-05  5257   0.998E-03    0.116E-02
RMM:   9    -0.413214447828E+03    0.14728E-04   -0.21901E-05  4564   0.577E-03    0.453E-03
RMM:  10    -0.413214445330E+03    0.24975E-05   -0.30083E-06  2692   0.247E-03    0.243E-03
RMM:  11    -0.413214439475E+03    0.58549E-05   -0.16139E-06  2464   0.204E-03    0.137E-03
RMM:  12    -0.413214435511E+03    0.39645E-05   -0.67380E-07  2379   0.144E-03    0.822E-04
RMM:  13    -0.413214431420E+03    0.40912E-05   -0.31479E-07  1918   0.997E-04    0.441E-04
RMM:  14    -0.413214427040E+03    0.43793E-05   -0.16766E-07  1580   0.753E-04    0.262E-04
RMM:  15    -0.413214422958E+03    0.40826E-05   -0.96182E-08  1067   0.626E-04    0.138E-04
RMM:  16    -0.413214420317E+03    0.26406E-05   -0.69070E-08  1039   0.598E-04    0.110E-04
RMM:  17    -0.413214416367E+03    0.39501E-05   -0.66093E-08  1120   0.610E-04    0.841E-05
RMM:  18    -0.413214414146E+03    0.22205E-05   -0.35901E-08   884   0.561E-04    0.625E-05
RMM:  19    -0.413214412972E+03    0.11741E-05   -0.19792E-08   700   0.523E-04    0.399E-05
RMM:  20    -0.413214411737E+03    0.12355E-05   -0.20257E-08   747   0.528E-04    0.211E-05
RMM:  21    -0.413214411269E+03    0.46753E-06   -0.13116E-08   637   0.506E-04
   48 T=    71. E= -.41286740E+03 F= -.41321441E+03 E0= -.41319350E+03  EK= 0.34701E+00 SP= 0.00E+00 SK= 0.00E+00
       N       E                     dE             d eps       ncg     rms          rms(c)
RMM:   1    -0.413239949497E+03   -0.25538E-01   -0.10113E+01  4305   0.179E+00    0.949E-01
RMM:   2    -0.413214073442E+03    0.25876E-01   -0.16513E-01  4476   0.207E-01    0.691E-01
RMM:   3    -0.413237524086E+03   -0.23451E-01   -0.37206E-02  5143   0.163E-01    0.719E-01
RMM:   4    -0.413218700412E+03    0.18824E-01   -0.42069E-02  4957   0.186E-01    0.408E-01
RMM:   5    -0.413209746759E+03    0.89537E-02   -0.38685E-03  4588   0.865E-02    0.620E-02
RMM:   6    -0.413209578494E+03    0.16826E-03   -0.44312E-04  4683   0.284E-02    0.326E-02
RMM:   7    -0.413209585336E+03   -0.68412E-05   -0.30857E-04  5759   0.184E-02    0.240E-02
RMM:   8    -0.413209550770E+03    0.34566E-04   -0.10131E-04  4998   0.116E-02    0.946E-03
RMM:   9    -0.413209545190E+03    0.55799E-05   -0.19841E-05  4922   0.573E-03    0.478E-03
RMM:  10    -0.413209541263E+03    0.39272E-05   -0.23737E-06  2636   0.242E-03    0.259E-03
RMM:  11    -0.413209535326E+03    0.59367E-05   -0.14264E-06  2498   0.196E-03    0.185E-03
RMM:  12    -0.413209531595E+03    0.37313E-05   -0.43415E-07  2393   0.124E-03    0.956E-04
RMM:  13    -0.413209527172E+03    0.44225E-05   -0.26909E-07  2016   0.891E-04    0.452E-04
[...]
       N       E                     dE             d eps       ncg     rms          rms(c)
RMM:   1    -0.413167636843E+03   -0.73211E-02   -0.63896E+00  4264   0.657E-01    0.881E-01
RMM:   2    -0.413166148145E+03    0.14887E-02   -0.81328E-02  4311   0.812E-02    0.644E-01
RMM:   3    -0.413164724319E+03    0.14238E-02   -0.42968E-02  5046   0.860E-02    0.321E-01
RMM:   4    -0.413181314622E+03   -0.16590E-01   -0.31054E-02  5066   0.151E-01    0.614E-01
RMM:   5    -0.413160133848E+03    0.21181E-01   -0.10022E-02  4706   0.105E-01    0.516E-02
RMM:   6    -0.413160126199E+03    0.76485E-05   -0.16698E-03  5462   0.403E-02    0.290E-02
RMM:   7    -0.413160153623E+03   -0.27424E-04   -0.30030E-04  5831   0.158E-02    0.187E-02
RMM:   8    -0.413160157097E+03   -0.34740E-05   -0.54875E-05  5181   0.851E-03    0.826E-03
RMM:   9    -0.413160160232E+03   -0.31342E-05   -0.73252E-06  3109   0.344E-03    0.385E-03
RMM:  10    -0.413160165283E+03   -0.50511E-05   -0.16640E-06  2551   0.198E-03    0.238E-03
RMM:  11    -0.413160171921E+03   -0.66379E-05   -0.12339E-06  2503   0.163E-03    0.121E-03
RMM:  12    -0.413160176329E+03   -0.44084E-05   -0.68752E-07  2367   0.125E-03    0.479E-04
RMM:  13    -0.413160178703E+03   -0.23739E-05   -0.34716E-07  1877   0.926E-04    0.307E-04
RMM:  14    -0.413160180817E+03   -0.21137E-05   -0.23822E-07  1494   0.781E-04    0.193E-04
RMM:  15    -0.413160183437E+03   -0.26204E-05   -0.27457E-07  1472   0.775E-04    0.156E-04
RMM:  16    -0.413160184825E+03   -0.13875E-05   -0.18462E-07  1345   0.703E-04    0.106E-04
RMM:  17    -0.413160185567E+03   -0.74274E-06   -0.12439E-07  1170   0.632E-04
  137 T=    60. E= -.41286662E+03 F= -.41316019E+03 E0= -.41313945E+03  EK= 0.29357E+00 SP= 0.00E+00 SK= 0.00E+00
       N       E                     dE             d eps       ncg     rms          rms(c)
RMM:   1    -0.413168650236E+03   -0.84654E-02   -0.62510E+00  4264   0.652E-01    0.894E-01
RMM:   2    -0.413166239607E+03    0.24106E-02   -0.80555E-02  4310   0.808E-02    0.642E-01
RMM:   3    -0.413164073220E+03    0.21664E-02   -0.40757E-02  5046   0.800E-02    0.281E-01
RMM:   4    -0.413182924420E+03   -0.18851E-01   -0.31055E-02  5082   0.150E-01    0.628E-01
RMM:   5    -0.413160437566E+03    0.22487E-01   -0.10483E-02  4717   0.107E-01    0.522E-02
RMM:   6    -0.413160430679E+03    0.68872E-05   -0.18120E-03  5508   0.418E-02    0.301E-02
RMM:   7    -0.413160458092E+03   -0.27414E-04   -0.31467E-04  5833   0.161E-02    0.196E-02
RMM:   8    -0.413160456248E+03    0.18439E-05   -0.56812E-05  5221   0.836E-03    0.877E-03
RMM:   9    -0.413160455515E+03    0.73306E-06   -0.77448E-06  3146   0.347E-03
  138 T=    60. E= -.41286687E+03 F= -.41316046E+03 E0= -.41313974E+03  EK= 0.29358E+00 SP= 0.00E+00 SK= 0.00E+00
       N       E                     dE             d eps       ncg     rms          rms(c)
RMM:   1    -0.413168584120E+03   -0.81279E-02   -0.61408E+00  4270   0.652E-01    0.878E-01
RMM:   2    -0.413166478102E+03    0.21060E-02   -0.78984E-02  4324   0.806E-02    0.637E-01
RMM:   3    -0.413168080136E+03   -0.16020E-02   -0.45211E-02  5122   0.987E-02    0.389E-01
RMM:   4    -0.413175886079E+03   -0.78059E-02   -0.29157E-02  5049   0.148E-01    0.529E-01
RMM:   5    -0.413160621935E+03    0.15264E-01   -0.72914E-03  4642   0.914E-02    0.523E-02
RMM:   6    -0.413160575678E+03    0.46258E-04   -0.11856E-03  5244   0.347E-02    0.281E-02
RMM:   7    -0.413160616118E+03   -0.40440E-04   -0.24876E-04  5872   0.149E-02    0.184E-02
RMM:   8    -0.413160617320E+03   -0.12026E-05   -0.50618E-05  5196   0.834E-03    0.799E-03
RMM:   9    -0.413160619497E+03   -0.21772E-05   -0.73554E-06  3195   0.361E-03    0.360E-03
RMM:  10    -0.413160622433E+03   -0.29351E-05   -0.12767E-06  2516   0.194E-03    0.225E-03
RMM:  11    -0.413160628340E+03   -0.59071E-05   -0.13710E-06  2510   0.168E-03    0.129E-03
RMM:  12    -0.413160630475E+03   -0.21349E-05   -0.54552E-07  2327   0.116E-03    0.578E-04
RMM:  13    -0.413160633326E+03   -0.28512E-05   -0.45141E-07  2004   0.952E-04    0.322E-04
RMM:  14    -0.413160635369E+03   -0.20431E-05   -0.31736E-07  1507   0.790E-04    0.209E-04
RMM:  15    -0.413160637348E+03   -0.19789E-05   -0.39067E-07  1591   0.809E-04    0.177E-04
RMM:  16    -0.413160638186E+03   -0.83875E-06   -0.22362E-07  1371   0.693E-04
  139 T=    60. E= -.41286696E+03 F= -.41316064E+03 E0= -.41313993E+03  EK= 0.29368E+00 SP= 0.00E+00 SK= 0.00E+00
       N       E                     dE             d eps       ncg     rms          rms(c)
RMM:   1    -0.413169181613E+03   -0.85443E-02   -0.61517E+00  4264   0.654E-01    0.881E-01
RMM:   2    -0.413167011031E+03    0.21706E-02   -0.78455E-02  4318   0.796E-02    0.644E-01
RMM:   3    -0.413163757119E+03    0.32539E-02   -0.46013E-02  4990   0.781E-02    0.291E-01
RMM:   4    -0.413182727041E+03   -0.18970E-01   -0.28081E-02  5086   0.143E-01    0.625E-01
RMM:   5    -0.413160705040E+03    0.22022E-01   -0.11024E-02  4746   0.106E-01    0.493E-02
RMM:   6    -0.413160722504E+03   -0.17464E-04   -0.17742E-03  5562   0.414E-02    0.286E-02
RMM:   7    -0.413160752370E+03   -0.29867E-04   -0.29887E-04  5795   0.156E-02    0.181E-02
RMM:   8    -0.413160758429E+03   -0.60589E-05   -0.50849E-05  5181   0.801E-03    0.792E-03
RMM:   9    -0.413160761619E+03   -0.31901E-05   -0.74195E-06  3136   0.332E-03    0.389E-03
RMM:  10    -0.413160767715E+03   -0.60958E-05   -0.19094E-06  2565   0.201E-03    0.241E-03
RMM:  11    -0.413160773744E+03   -0.60284E-05   -0.10814E-06  2481   0.154E-03    0.114E-03
RMM:  12    -0.413160779049E+03   -0.53055E-05   -0.73157E-07  2357   0.124E-03    0.504E-04
RMM:  13    -0.413160781271E+03   -0.22223E-05   -0.32926E-07  1848   0.909E-04    0.327E-04
RMM:  14    -0.413160783350E+03   -0.20784E-05   -0.23694E-07  1486   0.782E-04    0.183E-04
RMM:  15    -0.413160785977E+03   -0.26271E-05   -0.29308E-07  1559   0.789E-04    0.183E-04
RMM:  16    -0.413160787329E+03   -0.13517E-05   -0.20699E-07  1376   0.711E-04    0.122E-04
RMM:  17    -0.413160787790E+03   -0.46150E-06   -0.11468E-07  1127   0.617E-04
  140 T=    60. E= -.41286686E+03 F= -.41316079E+03 E0= -.41314009E+03  EK= 0.29393E+00 SP= 0.00E+00 SK= 0.00E+00
       N       E                     dE             d eps       ncg     rms          rms(c)
RMM:   1    -0.413170291093E+03   -0.95038E-02   -0.60583E+00  4264   0.650E-01    0.895E-01
RMM:   2    -0.413167344382E+03    0.29467E-02   -0.78003E-02  4315   0.799E-02    0.643E-01
RMM:   3    -0.413163524422E+03    0.38200E-02   -0.43232E-02  4978   0.711E-02    0.246E-01
RMM:   4    -0.413183721957E+03   -0.20198E-01   -0.27042E-02  5096   0.140E-01    0.627E-01
RMM:   5    -0.413161257543E+03    0.22464E-01   -0.11057E-02  4762   0.106E-01    0.493E-02
RMM:   6    -0.413161272340E+03   -0.14796E-04   -0.18286E-03  5592   0.420E-02    0.298E-02
RMM:   7    -0.413161290530E+03   -0.18190E-04   -0.30637E-04  5773   0.158E-02    0.189E-02
RMM:   8    -0.413161291630E+03   -0.11002E-05   -0.49886E-05  5192   0.787E-03    0.819E-03
RMM:   9    -0.413161291613E+03    0.17204E-07   -0.77795E-06  3161   0.334E-03
  141 T=    60. E= -.41286716E+03 F= -.41316129E+03 E0= -.41314060E+03  EK= 0.29414E+00 SP= 0.00E+00 SK= 0.00E+00
       N       E                     dE             d eps       ncg     rms          rms(c)
RMM:   1    -0.413169859536E+03   -0.85679E-02   -0.59855E+00  4267   0.652E-01    0.884E-01
RMM:   2    -0.413167040723E+03    0.28188E-02   -0.77223E-02  4321   0.798E-02    0.638E-01
RMM:   3    -0.413165943234E+03    0.10975E-02   -0.45184E-02  5077   0.869E-02    0.325E-01
RMM:   4    -0.413180092101E+03   -0.14149E-01   -0.28933E-02  5061   0.146E-01    0.583E-01
RMM:   5    -0.413161143607E+03    0.18948E-01   -0.92398E-03  4725   0.100E-01    0.527E-02
RMM:   6    -0.413161104851E+03    0.38756E-04   -0.14639E-03  5372   0.384E-02    0.281E-02
RMM:   7    -0.413161136907E+03   -0.32056E-04   -0.28088E-04  5933   0.154E-02    0.187E-02
RMM:   8    -0.413161137705E+03   -0.79844E-06   -0.54191E-05  5205   0.863E-03    0.825E-03
RMM:   9    -0.413161138576E+03   -0.87025E-06   -0.81253E-06  3145   0.362E-03
  142 T=    60. E= -.41286699E+03 F= -.41316114E+03 E0= -.41314046E+03  EK= 0.29414E+00 SP= 0.00E+00 SK= 0.00E+00
       N       E                     dE             d eps       ncg     rms          rms(c)
RMM:   1    -0.413170190572E+03   -0.90529E-02   -0.60355E+00  4269   0.657E-01    0.879E-01
RMM:   2    -0.413167784882E+03    0.24057E-02   -0.77107E-02  4319   0.809E-02    0.642E-01
RMM:   3    -0.413165394332E+03    0.23905E-02   -0.47873E-02  5014   0.846E-02    0.316E-01
RMM:   4    -0.413182057728E+03   -0.16663E-01   -0.27951E-02  5070   0.143E-01    0.607E-01
RMM:   5    -0.413161542643E+03    0.20515E-01   -0.10488E-02  4741   0.104E-01    0.511E-02
RMM:   6    -0.413161527647E+03    0.14996E-04   -0.16361E-03  5509   0.401E-02    0.274E-02
RMM:   7    -0.413161566185E+03   -0.38538E-04   -0.28044E-04  5911   0.147E-02    0.170E-02
RMM:   8    -0.413161574394E+03   -0.82086E-05   -0.47125E-05  5219   0.764E-03    0.748E-03
RMM:   9    -0.413161578791E+03   -0.43973E-05   -0.71731E-06  3109   0.326E-03    0.369E-03
RMM:  10    -0.413161584710E+03   -0.59188E-05   -0.18272E-06  2549   0.200E-03    0.233E-03
RMM:  11    -0.413161592127E+03   -0.74174E-05   -0.13652E-06  2505   0.163E-03    0.117E-03
RMM:  12    -0.413161597515E+03   -0.53882E-05   -0.78917E-07  2393   0.126E-03    0.510E-04
RMM:  13    -0.413161600157E+03   -0.26418E-05   -0.38535E-07  1826   0.905E-04    0.347E-04
RMM:  14    -0.413161603140E+03   -0.29825E-05   -0.38342E-07  1552   0.839E-04    0.215E-04
RMM:  15    -0.413161605543E+03   -0.24031E-05   -0.41858E-07  1756   0.846E-04    0.198E-04
RMM:  16    -0.413161606863E+03   -0.13201E-05   -0.40294E-07  1605   0.790E-04    0.134E-04
RMM:  17    -0.413161607133E+03   -0.26960E-06   -0.18801E-07  1208   0.636E-04
  143 T=    60. E= -.41286709E+03 F= -.41316161E+03 E0= -.41314093E+03  EK= 0.29452E+00 SP= 0.00E+00 SK= 0.00E+00
       N       E                     dE             d eps       ncg     rms          rms(c)
RMM:   1    -0.413171209985E+03   -0.96031E-02   -0.60074E+00  4264   0.656E-01    0.893E-01
RMM:   2    -0.413168263057E+03    0.29469E-02   -0.77013E-02  4306   0.813E-02    0.644E-01
RMM:   3    -0.413163438216E+03    0.48248E-02   -0.44306E-02  4835   0.646E-02    0.223E-01
RMM:   4    -0.413175366841E+03   -0.11929E-01   -0.15228E-02  5112   0.106E-01    0.484E-01
RMM:   5    -0.413162038470E+03    0.13328E-01   -0.67373E-03  4805   0.821E-02    0.429E-02
RMM:   6    -0.413162052044E+03   -0.13573E-04   -0.11940E-03  5591   0.345E-02    0.294E-02
RMM:   7    -0.413162052037E+03    0.63956E-08   -0.23659E-04  5537   0.145E-02    0.170E-02
RMM:   8    -0.413162053850E+03   -0.18126E-05   -0.36664E-05  4876   0.681E-03    0.703E-03
RMM:   9    -0.413162054974E+03   -0.11244E-05   -0.58847E-06  2958   0.285E-03    0.376E-03
RMM:  10    -0.413162058083E+03   -0.31090E-05   -0.15839E-06  2518   0.191E-03    0.217E-03
RMM:  11    -0.413162060430E+03   -0.23464E-05   -0.89516E-07  2461   0.141E-03    0.949E-04
RMM:  12    -0.413162062277E+03   -0.18475E-05   -0.57681E-07  2231   0.112E-03    0.495E-04
RMM:  13    -0.413162063431E+03   -0.11544E-05   -0.33213E-07  1820   0.884E-04    0.291E-04
RMM:  14    -0.413162064052E+03   -0.62090E-06   -0.20526E-07  1371   0.750E-04
  144 T=    60. E= -.41286723E+03 F= -.41316206E+03 E0= -.41314140E+03  EK= 0.29483E+00 SP= 0.00E+00 SK= 0.00E+00
       N       E                     dE             d eps       ncg     rms          rms(c)
RMM:   1    -0.413170970495E+03   -0.89071E-02   -0.59806E+00  4264   0.660E-01    0.889E-01
RMM:   2    -0.413167926798E+03    0.30437E-02   -0.76876E-02  4310   0.807E-02    0.639E-01
RMM:   3    -0.413162975962E+03    0.49508E-02   -0.42810E-02  4773   0.609E-02    0.202E-01
RMM:   4    -0.413170045378E+03   -0.70694E-02   -0.96412E-03  5122   0.847E-02    0.381E-01
RMM:   5    -0.413161874226E+03    0.81712E-02   -0.41343E-03  4824   0.645E-02    0.410E-02
RMM:   6    -0.413161880456E+03   -0.62299E-05   -0.83315E-04  5550   0.295E-02    0.294E-02
RMM:   7    -0.413161875520E+03    0.49358E-05   -0.20088E-04  5356   0.136E-02    0.169E-02
RMM:   8    -0.413161873916E+03    0.16041E-05   -0.32864E-05  4815   0.628E-03    0.685E-03
RMM:   9    -0.413161874530E+03   -0.61369E-06   -0.51378E-06  2805   0.259E-03
  145 T=    60. E= -.41286702E+03 F= -.41316187E+03 E0= -.41314121E+03  EK= 0.29485E+00 SP= 0.00E+00 SK= 0.00E+00
       N       E                     dE             d eps       ncg     rms          rms(c)
RMM:   1    -0.413171005454E+03   -0.91315E-02   -0.60503E+00  4266   0.667E-01    0.877E-01
RMM:   2    -0.413168590918E+03    0.24145E-02   -0.76963E-02  4315   0.807E-02    0.640E-01
RMM:   3    -0.413163768180E+03    0.48227E-02   -0.45569E-02  4750   0.638E-02    0.234E-01
RMM:   4    -0.413168708497E+03   -0.49403E-02   -0.82455E-03  5113   0.772E-02    0.332E-01
RMM:   5    -0.413162514369E+03    0.61941E-02   -0.31485E-03  4822   0.568E-02    0.410E-02
RMM:   6    -0.413162515090E+03   -0.72085E-06   -0.68582E-04  5485   0.271E-02    0.278E-02
RMM:   7    -0.413162533960E+03   -0.18869E-04   -0.17092E-04  5351   0.126E-02    0.157E-02
RMM:   8    -0.413162535321E+03   -0.13613E-05   -0.29791E-05  4773   0.634E-03    0.665E-03
RMM:   9    -0.413162538625E+03   -0.33037E-05   -0.49872E-06  2762   0.249E-03    0.317E-03
RMM:  10    -0.413162545124E+03   -0.64988E-05   -0.15081E-06  2521   0.179E-03    0.178E-03
RMM:  11    -0.413162549698E+03   -0.45744E-05   -0.85700E-07  2400   0.133E-03    0.743E-04
RMM:  12    -0.413162553405E+03   -0.37076E-05   -0.54004E-07  2058   0.103E-03    0.408E-04
RMM:  13    -0.413162556425E+03   -0.30195E-05   -0.43372E-07  1723   0.884E-04    0.246E-04
RMM:  14    -0.413162558281E+03   -0.18565E-05   -0.33607E-07  1608   0.805E-04    0.194E-04
RMM:  15    -0.413162559460E+03   -0.11791E-05   -0.38880E-07  1645   0.794E-04    0.149E-04
RMM:  16    -0.413162559798E+03   -0.33774E-06   -0.32721E-07  1453   0.735E-04
  146 T=    60. E= -.41286730E+03 F= -.41316256E+03 E0= -.41314190E+03  EK= 0.29526E+00 SP= 0.00E+00 SK= 0.00E+00
       N       E                     dE             d eps       ncg     rms          rms(c)
RMM:   1    -0.413171430017E+03   -0.88706E-02   -0.61027E+00  4264   0.669E-01    0.887E-01
RMM:   2    -0.413168768141E+03    0.26619E-02   -0.77550E-02  4308   0.818E-02    0.644E-01
RMM:   3    -0.413163735736E+03    0.50324E-02   -0.43917E-02  4578   0.610E-02    0.212E-01
RMM:   4    -0.413162917831E+03    0.81791E-03   -0.22254E-03  4901   0.332E-02    0.692E-02
RMM:   5    -0.413162768118E+03    0.14971E-03   -0.26503E-04  4916   0.159E-02    0.450E-02
RMM:   6    -0.413162748331E+03    0.19787E-04   -0.27281E-04  5125   0.166E-02    0.280E-02
RMM:   7    -0.413162751078E+03   -0.27472E-05   -0.12771E-04  4583   0.110E-02    0.168E-02
RMM:   8    -0.413162749151E+03    0.19271E-05   -0.15913E-05  3884   0.444E-03    0.569E-03
RMM:   9    -0.413162753657E+03   -0.45060E-05   -0.82869E-06  2561   0.246E-03    0.328E-03
RMM:  10    -0.413162757969E+03   -0.43117E-05   -0.13491E-06  2459   0.151E-03    0.159E-03
RMM:  11    -0.413162760810E+03   -0.28412E-05   -0.79324E-07  2024   0.106E-03    0.498E-04
RMM:  12    -0.413162762540E+03   -0.17302E-05   -0.26593E-07  1512   0.774E-04    0.321E-04
RMM:  13    -0.413162764340E+03   -0.17996E-05   -0.33400E-07  1548   0.778E-04    0.214E-04
RMM:  14    -0.413162764832E+03   -0.49241E-06   -0.17216E-07  1259   0.649E-04
  147 T=    60. E= -.41286721E+03 F= -.41316276E+03 E0= -.41314211E+03  EK= 0.29555E+00 SP= 0.00E+00 SK= 0.00E+00
       N       E                     dE             d eps       ncg     rms          rms(c)
RMM:   1    -0.413171531483E+03   -0.87671E-02   -0.61232E+00  4264   0.673E-01    0.891E-01
RMM:   2    -0.413168824279E+03    0.27072E-02   -0.78183E-02  4311   0.823E-02    0.640E-01
RMM:   3    -0.413163672920E+03    0.51514E-02   -0.40668E-02  4576   0.606E-02    0.180E-01
RMM:   4    -0.413164587992E+03   -0.91507E-03   -0.32127E-03  5106   0.488E-02    0.182E-01
RMM:   5    -0.413162814690E+03    0.17733E-02   -0.95235E-04  4821   0.319E-02    0.394E-02
RMM:   6    -0.413162822880E+03   -0.81898E-05   -0.40896E-04  5347   0.208E-02    0.295E-02
RMM:   7    -0.413162815511E+03    0.73688E-05   -0.14606E-04  4891   0.119E-02    0.168E-02
RMM:   8    -0.413162813376E+03    0.21355E-05   -0.21459E-05  4468   0.507E-03    0.606E-03
RMM:   9    -0.413162815134E+03   -0.17586E-05   -0.62056E-06  2647   0.253E-03    0.262E-03
RMM:  10    -0.413162815761E+03   -0.62655E-06   -0.13434E-06  2493   0.167E-03
  148 T=    60. E= -.41286715E+03 F= -.41316282E+03 E0= -.41314217E+03  EK= 0.29567E+00 SP= 0.00E+00 SK= 0.00E+00
       N       E                     dE             d eps       ncg     rms          rms(c)
RMM:   1    -0.413171410102E+03   -0.85950E-02   -0.62006E+00  4264   0.682E-01    0.873E-01
RMM:   2    -0.413169630879E+03    0.17792E-02   -0.78141E-02  4314   0.827E-02    0.638E-01
RMM:   3    -0.413164492032E+03    0.51388E-02   -0.42026E-02  4565   0.631E-02    0.207E-01
RMM:   4    -0.413164926318E+03   -0.43429E-03   -0.32756E-03  5071   0.475E-02    0.165E-01
RMM:   5    -0.413163497604E+03    0.14287E-02   -0.79032E-04  4815   0.291E-02    0.388E-02
RMM:   6    -0.413163513998E+03   -0.16394E-04   -0.37612E-04  5320   0.199E-02    0.285E-02
RMM:   7    -0.413163509876E+03    0.41225E-05   -0.14190E-04  4839   0.117E-02    0.163E-02
RMM:   8    -0.413163509417E+03    0.45888E-06   -0.20349E-05  4358   0.489E-03    0.548E-03
RMM:   9    -0.413163512972E+03   -0.35554E-05   -0.55692E-06  2629   0.245E-03    0.270E-03
RMM:  10    -0.413163517423E+03   -0.44510E-05   -0.13576E-06  2493   0.164E-03    0.123E-03
RMM:  11    -0.413163521141E+03   -0.37181E-05   -0.83996E-07  2317   0.122E-03    0.625E-04
RMM:  12    -0.413163523257E+03   -0.21155E-05   -0.41148E-07  1903   0.925E-04    0.318E-04
RMM:  13    -0.413163524860E+03   -0.16028E-05   -0.35583E-07  1613   0.813E-04    0.226E-04
RMM:  14    -0.413163525677E+03   -0.81701E-06   -0.32988E-07  1637   0.792E-04
  149 T=    60. E= -.41286744E+03 F= -.41316353E+03 E0= -.41314288E+03  EK= 0.29609E+00 SP= 0.00E+00 SK= 0.00E+00
       N       E                     dE             d eps       ncg     rms          rms(c)
RMM:   1    -0.413171359854E+03   -0.78350E-02   -0.63363E+00  4264   0.691E-01    0.881E-01
RMM:   2    -0.413169575711E+03    0.17841E-02   -0.79485E-02  4309   0.838E-02    0.643E-01
RMM:   3    -0.413164890181E+03    0.46855E-02   -0.41716E-02  4821   0.668E-02    0.219E-01
RMM:   4    -0.413177495429E+03   -0.12605E-01   -0.15971E-02  5119   0.108E-01    0.495E-01
RMM:   5    -0.413163535179E+03    0.13960E-01   -0.68549E-03  4823   0.829E-02    0.459E-02
RMM:   6    -0.413163561549E+03   -0.26370E-04   -0.12778E-03  5615   0.348E-02    0.296E-02
RMM:   7    -0.413163579808E+03   -0.18259E-04   -0.25075E-04  5606   0.144E-02    0.167E-02
RMM:   8    -0.413163582672E+03   -0.28646E-05   -0.36576E-05  5009   0.653E-03    0.651E-03
RMM:   9    -0.413163584968E+03   -0.22955E-05   -0.58929E-06  3025   0.290E-03    0.367E-03
RMM:  10    -0.413163589514E+03   -0.45465E-05   -0.16462E-06  2523   0.193E-03    0.207E-03
RMM:  11    -0.413163592842E+03   -0.33281E-05   -0.89063E-07  2479   0.142E-03    0.110E-03
RMM:  12    -0.413163595856E+03   -0.30142E-05   -0.64705E-07  2321   0.118E-03    0.562E-04
RMM:  13    -0.413163597097E+03   -0.12409E-05   -0.32089E-07  1854   0.889E-04    0.313E-04
RMM:  14    -0.413163597835E+03   -0.73812E-06   -0.21136E-07  1433   0.763E-04
  150 T=    60. E= -.41286717E+03 F= -.41316360E+03 E0= -.41314296E+03  EK= 0.29643E+00 SP= 0.00E+00 SK= 0.00E+00
