       N       E                     dE             d eps       ncg     rms          rms(c)
RMM:   1     0.220105141193E+04    0.22011E+04   -0.52445E+04  2132   0.654E+02
RMM:   2     0.705708916980E+03   -0.14953E+04   -0.16260E+04  2132   0.177E+02
RMM:   3     0.137941411984E+03   -0.56777E+03   -0.65667E+03  2132   0.117E+02
RMM:   4    -0.159412122623E+03   -0.29735E+03   -0.27874E+03  2132   0.937E+01
RMM:   5    -0.287452089272E+03   -0.12804E+03   -0.11436E+03  2132   0.595E+01
RMM:   6    -0.349976733818E+03   -0.62525E+02   -0.55141E+02  2132   0.423E+01
RMM:   7    -0.382813800600E+03   -0.32837E+02   -0.30383E+02  2132   0.293E+01
RMM:   8    -0.404288692196E+03   -0.21475E+02   -0.18422E+02  2132   0.233E+01
RMM:   9    -0.436029657246E+03   -0.31741E+02   -0.30609E+02  6103   0.173E+01
RMM:  10    -0.441302839507E+03   -0.52732E+01   -0.62945E+01  6395   0.538E+00
RMM:  11    -0.442504272202E+03   -0.12014E+01   -0.11070E+01  6203   0.172E+00
RMM:  12    -0.442877036071E+03   -0.37276E+00   -0.26232E+00  6365   0.598E-01    0.134E+02
RMM:  13    -0.425562124955E+03    0.17315E+02   -0.80908E+01  4670   0.119E+01    0.712E+01
RMM:  14    -0.498275512390E+03   -0.72713E+02   -0.53483E+02  5411   0.231E+01    0.305E+01
RMM:  15    -0.414331876966E+03    0.83944E+02   -0.19435E+02  5068   0.162E+01    0.608E+00
RMM:  16    -0.414084090917E+03    0.24779E+00   -0.39062E+01  6074   0.600E+00    0.430E+00
RMM:  17    -0.413223600849E+03    0.86049E+00   -0.22529E+00  5331   0.180E+00    0.246E+00
RMM:  18    -0.413161761876E+03    0.61839E-01   -0.92257E-01  5948   0.992E-01    0.157E+00
RMM:  19    -0.413167230488E+03   -0.54686E-02   -0.28603E-01  5747   0.560E-01    0.851E-01
RMM:  20    -0.413181249203E+03   -0.14019E-01   -0.19092E-01  5320   0.482E-01    0.520E-01
RMM:  21    -0.413166617392E+03    0.14632E-01   -0.32667E-02  5017   0.219E-01    0.243E-01
RMM:  22    -0.413165249562E+03    0.13678E-02   -0.13504E-02  6090   0.962E-02    0.144E-01
RMM:  23    -0.413163793677E+03    0.14559E-02   -0.51925E-03  5847   0.666E-02    0.785E-02
RMM:  24    -0.413162590822E+03    0.12029E-02   -0.16575E-03  5544   0.397E-02    0.330E-02
RMM:  25    -0.413162455223E+03    0.13560E-03   -0.75537E-04  5855   0.229E-02    0.270E-02
RMM:  26    -0.413162728613E+03   -0.27339E-03   -0.52647E-04  5790   0.243E-02    0.303E-02
RMM:  27    -0.413163147825E+03   -0.41921E-03   -0.17017E-04  4568   0.187E-02    0.152E-02
RMM:  28    -0.413163666559E+03   -0.51873E-03   -0.19698E-04  5178   0.203E-02    0.869E-03
RMM:  29    -0.413163992352E+03   -0.32579E-03   -0.90095E-05  4360   0.132E-02    0.433E-03
RMM:  30    -0.413164210458E+03   -0.21811E-03   -0.70305E-05  3917   0.974E-03    0.254E-03
RMM:  31    -0.413164298702E+03   -0.88243E-04   -0.41163E-05  3097   0.531E-03    0.220E-03
RMM:  32    -0.413164323872E+03   -0.25171E-04   -0.16779E-05  2912   0.290E-03    0.101E-03
RMM:  33    -0.413164330680E+03   -0.68073E-05   -0.76730E-06  2744   0.188E-03    0.521E-04
RMM:  34    -0.413164332983E+03   -0.23037E-05   -0.37104E-06  2621   0.153E-03    0.910E-04
RMM:  35    -0.413164332448E+03    0.53524E-06   -0.19844E-06  1947   0.101E-03
    1 T=    61. E= -.41286654E+03 F= -.41316433E+03 E0= -.41314184E+03  EK= 0.29780E+00 SP= 0.00E+00 SK= 0.00E+00
       N       E                     dE             d eps       ncg     rms          rms(c)
RMM:   1    -0.413156457349E+03    0.78756E-02   -0.10707E+01  3991   0.690E-01    0.886E-01
RMM:   2    -0.413166151715E+03   -0.96944E-02   -0.13147E-01  3978   0.974E-02    0.643E-01
RMM:   3    -0.413164163943E+03    0.19878E-02   -0.77748E-03  4705   0.378E-02    0.137E-01
RMM:   4    -0.413181989401E+03   -0.17825E-01   -0.18688E-02  5218   0.113E-01    0.559E-01
RMM:   5    -0.413163865345E+03    0.18124E-01   -0.90281E-03  4856   0.937E-02    0.344E-02
RMM:   6    -0.413163987102E+03   -0.12176E-03   -0.14823E-03  5815   0.372E-02    0.220E-02
RMM:   7    -0.413163999226E+03   -0.12125E-04   -0.22654E-04  5778   0.134E-02    0.141E-02
RMM:   8    -0.413164004096E+03   -0.48700E-05   -0.34855E-05  4686   0.606E-03    0.637E-03
RMM:   9    -0.413164008241E+03   -0.41445E-05   -0.73239E-06  3195   0.306E-03    0.492E-03
RMM:  10    -0.413164013311E+03   -0.50698E-05   -0.13873E-06  2549   0.177E-03    0.324E-03
RMM:  11    -0.413164020607E+03   -0.72964E-05   -0.13946E-06  2542   0.167E-03    0.146E-03
RMM:  12    -0.413164026791E+03   -0.61841E-05   -0.10311E-06  2437   0.139E-03    0.590E-04
RMM:  13    -0.413164027289E+03   -0.49826E-06   -0.38490E-07  1887   0.890E-04
    2 T=    61. E= -.41286627E+03 F= -.41316403E+03 E0= -.41314153E+03  EK= 0.29775E+00 SP= 0.00E+00 SK= 0.00E+00
       N       E                     dE             d eps       ncg     rms          rms(c)
RMM:   1    -0.413157393306E+03    0.66335E-02   -0.10735E+01  4191   0.686E-01    0.909E-01
RMM:   2    -0.413166249209E+03   -0.88559E-02   -0.12920E-01  3998   0.954E-02    0.636E-01
RMM:   3    -0.413164754822E+03    0.14944E-02   -0.80212E-03  4824   0.377E-02    0.151E-01
RMM:   4    -0.413189380178E+03   -0.24625E-01   -0.25138E-02  5188   0.132E-01    0.655E-01
RMM:   5    -0.413164420650E+03    0.24960E-01   -0.12163E-02  4834   0.110E-01    0.393E-02
RMM:   6    -0.413164584157E+03   -0.16351E-03   -0.20211E-03  5805   0.436E-02    0.244E-02
RMM:   7    -0.413164591293E+03   -0.71357E-05   -0.28415E-04  5853   0.150E-02    0.158E-02
RMM:   8    -0.413164590033E+03    0.12597E-05   -0.44614E-05  4907   0.677E-03    0.759E-03
RMM:   9    -0.413164589359E+03    0.67377E-06   -0.92020E-06  3491   0.344E-03
    3 T=    61. E= -.41286657E+03 F= -.41316459E+03 E0= -.41314209E+03  EK= 0.29801E+00 SP= 0.00E+00 SK= 0.00E+00
       N       E                     dE             d eps       ncg     rms          rms(c)
RMM:   1    -0.413156828693E+03    0.77613E-02   -0.10650E+01  4225   0.687E-01    0.893E-01
RMM:   2    -0.413166159701E+03   -0.93310E-02   -0.12834E-01  4301   0.976E-02    0.630E-01
RMM:   3    -0.413171850837E+03   -0.56911E-02   -0.13801E-02  5191   0.861E-02    0.391E-01
RMM:   4    -0.413182665368E+03   -0.10815E-01   -0.34543E-02  5099   0.160E-01    0.566E-01
RMM:   5    -0.413164405973E+03    0.18259E-01   -0.66503E-03  4658   0.948E-02    0.548E-02
RMM:   6    -0.413164348900E+03    0.57073E-04   -0.12313E-03  5352   0.357E-02    0.235E-02
RMM:   7    -0.413164365266E+03   -0.16366E-04   -0.24365E-04  5988   0.152E-02    0.150E-02
RMM:   8    -0.413164365855E+03   -0.58886E-06   -0.44028E-05  5226   0.735E-03    0.660E-03
RMM:   9    -0.413164365868E+03   -0.12478E-07   -0.98471E-06  3720   0.391E-03
    4 T=    61. E= -.41286632E+03 F= -.41316437E+03 E0= -.41314188E+03  EK= 0.29805E+00 SP= 0.00E+00 SK= 0.00E+00
       N       E                     dE             d eps       ncg     rms          rms(c)
RMM:   1    -0.413156890109E+03    0.74757E-02   -0.10700E+01  4233   0.702E-01    0.883E-01
RMM:   2    -0.413166570184E+03   -0.96801E-02   -0.13172E-01  4100   0.950E-02    0.641E-01
RMM:   3    -0.413164959039E+03    0.16111E-02   -0.79397E-03  4975   0.417E-02    0.157E-01
RMM:   4    -0.413201409131E+03   -0.36450E-01   -0.37973E-02  5154   0.162E-01    0.794E-01
RMM:   5    -0.413164261574E+03    0.37148E-01   -0.17801E-02  4813   0.133E-01    0.434E-02
RMM:   6    -0.413164491103E+03   -0.22953E-03   -0.30020E-03  5850   0.527E-02    0.243E-02
RMM:   7    -0.413164511189E+03   -0.20086E-04   -0.37131E-04  5965   0.166E-02    0.170E-02
RMM:   8    -0.413164516629E+03   -0.54404E-05   -0.61309E-05  5040   0.750E-03    0.928E-03
RMM:   9    -0.413164519703E+03   -0.30742E-05   -0.13176E-05  3880   0.400E-03    0.640E-03
RMM:  10    -0.413164524876E+03   -0.51724E-05   -0.23172E-06  2610   0.217E-03    0.408E-03
RMM:  11    -0.413164531809E+03   -0.69337E-05   -0.22171E-06  2618   0.216E-03    0.192E-03
RMM:  12    -0.413164537089E+03   -0.52794E-05   -0.12921E-06  2519   0.173E-03    0.653E-04
RMM:  13    -0.413164537811E+03   -0.72271E-06   -0.41103E-07  2177   0.107E-03
    5 T=    61. E= -.41286636E+03 F= -.41316454E+03 E0= -.41314206E+03  EK= 0.29818E+00 SP= 0.00E+00 SK= 0.00E+00
       N       E                     dE             d eps       ncg     rms          rms(c)
RMM:   1    -0.413157632229E+03    0.69049E-02   -0.10737E+01  4250   0.699E-01    0.905E-01
RMM:   2    -0.413166769726E+03   -0.91375E-02   -0.12943E-01  4088   0.966E-02    0.638E-01
RMM:   3    -0.413165269519E+03    0.15002E-02   -0.79508E-03  4805   0.395E-02    0.151E-01
RMM:   4    -0.413190906667E+03   -0.25637E-01   -0.26108E-02  5157   0.135E-01    0.669E-01
RMM:   5    -0.413164830439E+03    0.26076E-01   -0.12702E-02  4826   0.111E-01    0.393E-02
RMM:   6    -0.413164995800E+03   -0.16536E-03   -0.20919E-03  5789   0.440E-02    0.241E-02
RMM:   7    -0.413165002552E+03   -0.67513E-05   -0.28473E-04  5834   0.149E-02    0.159E-02
RMM:   8    -0.413165000872E+03    0.16799E-05   -0.46287E-05  4895   0.685E-03    0.784E-03
RMM:   9    -0.413164999782E+03    0.10894E-05   -0.95476E-06  3524   0.353E-03    0.576E-03
RMM:  10    -0.413165000493E+03   -0.71060E-06   -0.15099E-06  2551   0.192E-03
    6 T=    61. E= -.41286660E+03 F= -.41316500E+03 E0= -.41314254E+03  EK= 0.29840E+00 SP= 0.00E+00 SK= 0.00E+00
       N       E                     dE             d eps       ncg     rms          rms(c)
RMM:   1    -0.413157497514E+03    0.75023E-02   -0.10680E+01  4257   0.707E-01    0.900E-01
RMM:   2    -0.413166348119E+03   -0.88506E-02   -0.12852E-01  4180   0.962E-02    0.631E-01
RMM:   3    -0.413166825440E+03   -0.47732E-03   -0.94123E-03  5102   0.571E-02    0.238E-01
RMM:   4    -0.413202563253E+03   -0.35738E-01   -0.45425E-02  5133   0.178E-01    0.804E-01
RMM:   5    -0.413164592106E+03    0.37971E-01   -0.16985E-02  4774   0.134E-01    0.536E-02
RMM:   6    -0.413164733304E+03   -0.14120E-03   -0.28048E-03  5652   0.524E-02    0.239E-02
RMM:   7    -0.413164754216E+03   -0.20912E-04   -0.38183E-04  6029   0.162E-02    0.161E-02
RMM:   8    -0.413164754545E+03   -0.32874E-06   -0.57973E-05  5229   0.761E-03    0.764E-03
RMM:   9    -0.413164751530E+03    0.30152E-05   -0.10579E-05  3447   0.358E-03    0.370E-03
RMM:  10    -0.413164751604E+03   -0.74258E-07   -0.24569E-06  2601   0.214E-03
    7 T=    61. E= -.41286631E+03 F= -.41316475E+03 E0= -.41314230E+03  EK= 0.29844E+00 SP= 0.00E+00 SK= 0.00E+00
       N       E                     dE             d eps       ncg     rms          rms(c)
RMM:   1    -0.413157598193E+03    0.71533E-02   -0.10680E+01  4263   0.708E-01    0.882E-01
RMM:   2    -0.413167350113E+03   -0.97519E-02   -0.13104E-01  4185   0.950E-02    0.639E-01
RMM:   3    -0.413166921000E+03    0.42911E-03   -0.88428E-03  5090   0.538E-02    0.215E-01
RMM:   4    -0.413209396314E+03   -0.42475E-01   -0.50380E-02  5141   0.187E-01    0.865E-01
RMM:   5    -0.413165104702E+03    0.44292E-01   -0.20368E-02  4796   0.144E-01    0.522E-02
RMM:   6    -0.413165296311E+03   -0.19161E-03   -0.32704E-03  5721   0.565E-02    0.234E-02
RMM:   7    -0.413165323625E+03   -0.27314E-04   -0.42860E-04  6022   0.172E-02    0.170E-02
RMM:   8    -0.413165328570E+03   -0.49443E-05   -0.66020E-05  5242   0.785E-03    0.863E-03
RMM:   9    -0.413165329768E+03   -0.11980E-05   -0.12527E-05  3644   0.384E-03    0.441E-03
RMM:  10    -0.413165333442E+03   -0.36743E-05   -0.27586E-06  2615   0.218E-03    0.295E-03
RMM:  11    -0.413165337117E+03   -0.36755E-05   -0.11869E-06  2526   0.164E-03    0.148E-03
RMM:  12    -0.413165340442E+03   -0.33241E-05   -0.90880E-07  2466   0.138E-03    0.353E-04
RMM:  13    -0.413165341720E+03   -0.12785E-05   -0.40952E-07  2026   0.998E-04    0.275E-04
RMM:  14    -0.413165342212E+03   -0.49239E-06   -0.21836E-07  1518   0.784E-04
    8 T=    61. E= -.41286656E+03 F= -.41316534E+03 E0= -.41314291E+03  EK= 0.29878E+00 SP= 0.00E+00 SK= 0.00E+00
       N       E                     dE             d eps       ncg     rms          rms(c)
RMM:   1    -0.413158019397E+03    0.73223E-02   -0.10738E+01  4281   0.713E-01    0.899E-01
RMM:   2    -0.413167388816E+03   -0.93694E-02   -0.13034E-01  4186   0.985E-02    0.641E-01
RMM:   3    -0.413165870148E+03    0.15187E-02   -0.80195E-03  4878   0.411E-02    0.154E-01
RMM:   4    -0.413197337364E+03   -0.31467E-01   -0.32487E-02  5150   0.150E-01    0.739E-01
RMM:   5    -0.413165285213E+03    0.32052E-01   -0.15635E-02  4811   0.124E-01    0.424E-02
RMM:   6    -0.413165478834E+03   -0.19362E-03   -0.25474E-03  5771   0.488E-02    0.248E-02
RMM:   7    -0.413165489868E+03   -0.11034E-04   -0.34099E-04  5881   0.159E-02    0.166E-02
RMM:   8    -0.413165489558E+03    0.30980E-06   -0.50604E-05  5000   0.705E-03    0.819E-03
RMM:   9    -0.413165488510E+03    0.10483E-05   -0.11021E-05  3638   0.366E-03    0.573E-03
RMM:  10    -0.413165489427E+03   -0.91729E-06   -0.17423E-06  2563   0.197E-03
    9 T=    61. E= -.41286647E+03 F= -.41316549E+03 E0= -.41314308E+03  EK= 0.29902E+00 SP= 0.00E+00 SK= 0.00E+00
       N       E                     dE             d eps       ncg     rms          rms(c)
RMM:   1    -0.413158363026E+03    0.71255E-02   -0.10719E+01  4293   0.718E-01    0.907E-01
RMM:   2    -0.413167101064E+03   -0.87380E-02   -0.12876E-01  4267   0.969E-02    0.633E-01
RMM:   3    -0.413168148640E+03   -0.10476E-02   -0.99912E-03  5089   0.620E-02    0.259E-01
RMM:   4    -0.413199844337E+03   -0.31696E-01   -0.43474E-02  5121   0.175E-01    0.768E-01
RMM:   5    -0.413165429218E+03    0.34415E-01   -0.15090E-02  4752   0.128E-01    0.534E-02
RMM:   6    -0.413165548235E+03   -0.11902E-03   -0.25335E-03  5629   0.499E-02    0.240E-02
RMM:   7    -0.413165565343E+03   -0.17109E-04   -0.34989E-04  6009   0.159E-02    0.159E-02
RMM:   8    -0.413165563808E+03    0.15351E-05   -0.56119E-05  5232   0.764E-03    0.748E-03
RMM:   9    -0.413165559252E+03    0.45560E-05   -0.97845E-06  3385   0.355E-03    0.348E-03
RMM:  10    -0.413165558191E+03    0.10612E-05   -0.22309E-06  2576   0.210E-03    0.241E-03
RMM:  11    -0.413165556500E+03    0.16909E-05   -0.11147E-06  2516   0.163E-03    0.126E-03
RMM:  12    -0.413165554797E+03    0.17033E-05   -0.65158E-07  2404   0.126E-03    0.390E-04
RMM:  13    -0.413165554002E+03    0.79447E-06   -0.31933E-07  1912   0.910E-04
   10 T=    61. E= -.41286631E+03 F= -.41316555E+03 E0= -.41314317E+03  EK= 0.29925E+00 SP= 0.00E+00 SK= 0.00E+00
       N       E                     dE             d eps       ncg     rms          rms(c)
RMM:   1    -0.413159178380E+03    0.63764E-02   -0.10675E+01  4287   0.735E-01    0.883E-01
RMM:   2    -0.413168239003E+03   -0.90606E-02   -0.13032E-01  4225   0.963E-02    0.636E-01
RMM:   3    -0.413166718539E+03    0.15205E-02   -0.77843E-03  4883   0.420E-02    0.154E-01
RMM:   4    -0.413198861107E+03   -0.32143E-01   -0.33279E-02  5150   0.151E-01    0.747E-01
RMM:   5    -0.413166089599E+03    0.32772E-01   -0.16009E-02  4806   0.125E-01    0.423E-02
RMM:   6    -0.413166289670E+03   -0.20007E-03   -0.26223E-03  5765   0.492E-02    0.246E-02
RMM:   7    -0.413166301361E+03   -0.11691E-04   -0.34614E-04  5866   0.159E-02    0.167E-02
RMM:   8    -0.413166301627E+03   -0.26591E-06   -0.53248E-05  5013   0.720E-03    0.843E-03
RMM:   9    -0.413166300921E+03    0.70626E-06   -0.11592E-05  3687   0.377E-03    0.582E-03
RMM:  10    -0.413166302388E+03   -0.14673E-05   -0.18909E-06  2574   0.201E-03    0.378E-03
RMM:  11    -0.413166304492E+03   -0.21038E-05   -0.17254E-06  2559   0.197E-03    0.165E-03
RMM:  12    -0.413166305905E+03   -0.14130E-05   -0.10494E-06  2495   0.157E-03    0.618E-04
RMM:  13    -0.413166306031E+03   -0.12649E-06   -0.33532E-07  2093   0.989E-04
   11 T=    61. E= -.41286658E+03 F= -.41316631E+03 E0= -.41314395E+03  EK= 0.29972E+00 SP= 0.00E+00 SK= 0.00E+00
       N       E                     dE             d eps       ncg     rms          rms(c)
RMM:   1    -0.413158646204E+03    0.76597E-02   -0.10748E+01  4295   0.726E-01    0.895E-01
RMM:   2    -0.413168217076E+03   -0.95709E-02   -0.13158E-01  4238   0.977E-02    0.644E-01
RMM:   3    -0.413166538874E+03    0.16782E-02   -0.79512E-03  4840   0.409E-02    0.150E-01
RMM:   4    -0.413195726717E+03   -0.29188E-01   -0.30036E-02  5149   0.144E-01    0.712E-01
RMM:   5    -0.413166035031E+03    0.29692E-01   -0.14548E-02  4805   0.119E-01    0.404E-02
RMM:   6    -0.413166222934E+03   -0.18790E-03   -0.23840E-03  5797   0.467E-02    0.240E-02
RMM:   7    -0.413166234828E+03   -0.11894E-04   -0.30986E-04  5842   0.154E-02    0.161E-02
RMM:   8    -0.413166235050E+03   -0.22226E-06   -0.51269E-05  4971   0.712E-03    0.833E-03
RMM:   9    -0.413166233982E+03    0.10689E-05   -0.10982E-05  3670   0.374E-03    0.589E-03
RMM:  10    -0.413166235139E+03   -0.11576E-05   -0.17179E-06  2557   0.198E-03    0.384E-03
RMM:  11    -0.413166236952E+03   -0.18132E-05   -0.18394E-06  2579   0.204E-03    0.167E-03
RMM:  12    -0.413166238033E+03   -0.10804E-05   -0.10195E-06  2492   0.157E-03    0.658E-04
RMM:  13    -0.413166238076E+03   -0.42743E-07   -0.32091E-07  2064   0.967E-04
   12 T=    61. E= -.41286629E+03 F= -.41316624E+03 E0= -.41314391E+03  EK= 0.29995E+00 SP= 0.00E+00 SK= 0.00E+00
       N       E                     dE             d eps       ncg     rms          rms(c)
RMM:   1    -0.413159725863E+03    0.65122E-02   -0.10754E+01  4296   0.731E-01    0.912E-01
RMM:   2    -0.413168341775E+03   -0.86159E-02   -0.12898E-01  4240   0.939E-02    0.635E-01
RMM:   3    -0.413167149435E+03    0.11923E-02   -0.81419E-03  4904   0.372E-02    0.157E-01
RMM:   4    -0.413195744434E+03   -0.28595E-01   -0.29425E-02  5144   0.142E-01    0.705E-01
RMM:   5    -0.413166660295E+03    0.29084E-01   -0.14283E-02  4807   0.117E-01    0.416E-02
RMM:   6    -0.413166836900E+03   -0.17661E-03   -0.23190E-03  5789   0.464E-02    0.254E-02
RMM:   7    -0.413166839531E+03   -0.26311E-05   -0.30934E-04  5814   0.156E-02    0.166E-02
RMM:   8    -0.413166833896E+03    0.56347E-05   -0.51789E-05  4959   0.722E-03    0.844E-03
RMM:   9    -0.413166828964E+03    0.49318E-05   -0.10941E-05  3668   0.374E-03    0.607E-03
RMM:  10    -0.413166826285E+03    0.26794E-05   -0.16404E-06  2554   0.198E-03    0.392E-03
RMM:  11    -0.413166822569E+03    0.37157E-05   -0.16671E-06  2553   0.199E-03    0.174E-03
RMM:  12    -0.413166819147E+03    0.34219E-05   -0.10502E-06  2485   0.160E-03    0.677E-04
RMM:  13    -0.413166818822E+03    0.32519E-06   -0.32963E-07  2102   0.991E-04
   13 T=    61. E= -.41286642E+03 F= -.41316682E+03 E0= -.41314452E+03  EK= 0.30040E+00 SP= 0.00E+00 SK= 0.00E+00
       N       E                     dE             d eps       ncg     rms          rms(c)
RMM:   1    -0.413159951159E+03    0.68680E-02   -0.10673E+01  4296   0.733E-01    0.887E-01
RMM:   2    -0.413169304414E+03   -0.93533E-02   -0.13006E-01  4251   0.952E-02    0.635E-01
RMM:   3    -0.413167765162E+03    0.15393E-02   -0.77841E-03  4848   0.389E-02    0.150E-01
RMM:   4    -0.413195052402E+03   -0.27287E-01   -0.28034E-02  5141   0.139E-01    0.689E-01
RMM:   5    -0.413167306785E+03    0.27746E-01   -0.13637E-02  4807   0.115E-01    0.395E-02
RMM:   6    -0.413167476967E+03   -0.17018E-03   -0.21995E-03  5802   0.450E-02    0.239E-02
RMM:   7    -0.413167484394E+03   -0.74270E-05   -0.28821E-04  5829   0.151E-02    0.158E-02
RMM:   8    -0.413167481686E+03    0.27084E-05   -0.50498E-05  4950   0.710E-03    0.820E-03
RMM:   9    -0.413167478839E+03    0.28467E-05   -0.10497E-05  3641   0.371E-03    0.587E-03
RMM:  10    -0.413167478516E+03    0.32323E-06   -0.15812E-06  2547   0.195E-03
   14 T=    61. E= -.41286655E+03 F= -.41316748E+03 E0= -.41314521E+03  EK= 0.30093E+00 SP= 0.00E+00 SK= 0.00E+00
       N       E                     dE             d eps       ncg     rms          rms(c)
RMM:   1    -0.413160619841E+03    0.68590E-02   -0.10766E+01  4302   0.755E-01    0.891E-01
RMM:   2    -0.413169779418E+03   -0.91596E-02   -0.13235E-01  4292   0.991E-02    0.646E-01
RMM:   3    -0.413169836876E+03   -0.57459E-04   -0.95950E-03  5082   0.589E-02    0.243E-01
RMM:   4    -0.413208924187E+03   -0.39087E-01   -0.50186E-02  5123   0.187E-01    0.838E-01
RMM:   5    -0.413167337625E+03    0.41587E-01   -0.18697E-02  4771   0.139E-01    0.535E-02
RMM:   6    -0.413167494721E+03   -0.15710E-03   -0.30070E-03  5665   0.543E-02    0.230E-02
RMM:   7    -0.413167518426E+03   -0.23705E-04   -0.40084E-04  5993   0.166E-02    0.163E-02
RMM:   8    -0.413167521463E+03   -0.30364E-05   -0.61454E-05  5226   0.776E-03    0.795E-03
RMM:   9    -0.413167520293E+03    0.11699E-05   -0.11859E-05  3548   0.374E-03    0.373E-03
RMM:  10    -0.413167521687E+03   -0.13937E-05   -0.26665E-06  2611   0.216E-03    0.257E-03
RMM:  11    -0.413167522889E+03   -0.12025E-05   -0.10950E-06  2506   0.161E-03    0.131E-03
RMM:  12    -0.413167523660E+03   -0.77076E-06   -0.72660E-07  2415   0.128E-03
   15 T=    61. E= -.41286623E+03 F= -.41316752E+03 E0= -.41314529E+03  EK= 0.30129E+00 SP= 0.00E+00 SK= 0.00E+00
       N       E                     dE             d eps       ncg     rms          rms(c)
RMM:   1    -0.413161482933E+03    0.60400E-02   -0.10785E+01  4297   0.741E-01    0.914E-01
RMM:   2    -0.413170232816E+03   -0.87499E-02   -0.12972E-01  4264   0.985E-02    0.638E-01
RMM:   3    -0.413169012575E+03    0.12202E-02   -0.83541E-03  4929   0.425E-02    0.165E-01
RMM:   4    -0.413204451783E+03   -0.35439E-01   -0.37032E-02  5142   0.159E-01    0.783E-01
RMM:   5    -0.413168326184E+03    0.36126E-01   -0.17650E-02  4801   0.131E-01    0.450E-02
RMM:   6    -0.413168532412E+03   -0.20623E-03   -0.28476E-03  5778   0.517E-02    0.266E-02
RMM:   7    -0.413168538260E+03   -0.58481E-05   -0.37579E-04  5851   0.169E-02    0.178E-02
RMM:   8    -0.413168532382E+03    0.58776E-05   -0.60481E-05  5063   0.772E-03    0.930E-03
RMM:   9    -0.413168526034E+03    0.63477E-05   -0.12674E-05  3818   0.397E-03    0.630E-03
RMM:  10    -0.413168522459E+03    0.35758E-05   -0.20648E-06  2580   0.209E-03    0.404E-03
RMM:  11    -0.413168518094E+03    0.43642E-05   -0.16513E-06  2543   0.199E-03    0.180E-03
RMM:  12    -0.413168513845E+03    0.42493E-05   -0.11308E-06  2496   0.167E-03    0.654E-04
RMM:  13    -0.413168513199E+03    0.64579E-06   -0.36714E-07  2181   0.106E-03
   16 T=    61. E= -.41286653E+03 F= -.41316851E+03 E0= -.41314632E+03  EK= 0.30199E+00 SP= 0.00E+00 SK= 0.00E+00
       N       E                     dE             d eps       ncg     rms          rms(c)
RMM:   1    -0.413161480641E+03    0.70332E-02   -0.10702E+01  4298   0.744E-01    0.894E-01
RMM:   2    -0.413170866239E+03   -0.93856E-02   -0.13026E-01  4274   0.977E-02    0.634E-01
RMM:   3    -0.413169279729E+03    0.15865E-02   -0.78960E-03  4881   0.410E-02    0.157E-01
RMM:   4    -0.413200644603E+03   -0.31365E-01   -0.32417E-02  5143   0.149E-01    0.737E-01
RMM:   5    -0.413168768899E+03    0.31876E-01   -0.15688E-02  4801   0.123E-01    0.419E-02
RMM:   6    -0.413168956128E+03   -0.18723E-03   -0.25278E-03  5791   0.486E-02    0.251E-02
RMM:   7    -0.413168962842E+03   -0.67142E-05   -0.32836E-04  5836   0.160E-02    0.166E-02
RMM:   8    -0.413168958705E+03    0.41375E-05   -0.56075E-05  5011   0.742E-03    0.880E-03
RMM:   9    -0.413168953812E+03    0.48927E-05   -0.12106E-05  3793   0.390E-03    0.617E-03
RMM:  10    -0.413168951571E+03    0.22409E-05   -0.18027E-06  2555   0.204E-03    0.399E-03
RMM:  11    -0.413168948540E+03    0.30315E-05   -0.17993E-06  2558   0.205E-03    0.177E-03
RMM:  12    -0.413168945700E+03    0.28400E-05   -0.10350E-06  2486   0.163E-03    0.654E-04
RMM:  13    -0.413168945323E+03    0.37699E-06   -0.33776E-07  2126   0.101E-03
   17 T=    62. E= -.41286642E+03 F= -.41316895E+03 E0= -.41314679E+03  EK= 0.30253E+00 SP= 0.00E+00 SK= 0.00E+00
       N       E                     dE             d eps       ncg     rms          rms(c)
RMM:   1    -0.413161819954E+03    0.71257E-02   -0.10774E+01  4298   0.757E-01    0.889E-01
RMM:   2    -0.413171719952E+03   -0.99000E-02   -0.13285E-01  4279   0.100E-01    0.646E-01
RMM:   3    -0.413169875334E+03    0.18446E-02   -0.80157E-03  4879   0.415E-02    0.151E-01
RMM:   4    -0.413201759668E+03   -0.31884E-01   -0.33120E-02  5143   0.151E-01    0.744E-01
RMM:   5    -0.413169264558E+03    0.32495E-01   -0.15976E-02  4799   0.124E-01    0.416E-02
RMM:   6    -0.413169451009E+03   -0.18645E-03   -0.25541E-03  5787   0.490E-02    0.244E-02
RMM:   7    -0.413169462055E+03   -0.11045E-04   -0.32937E-04  5841   0.159E-02    0.164E-02
RMM:   8    -0.413169460863E+03    0.11919E-05   -0.56547E-05  5030   0.742E-03    0.872E-03
RMM:   9    -0.413169458160E+03    0.27027E-05   -0.12170E-05  3798   0.391E-03    0.599E-03
RMM:  10    -0.413169458403E+03   -0.24345E-06   -0.19028E-06  2567   0.203E-03
   18 T=    62. E= -.41286636E+03 F= -.41316946E+03 E0= -.41314734E+03  EK= 0.30309E+00 SP= 0.00E+00 SK= 0.00E+00
       N       E                     dE             d eps       ncg     rms          rms(c)
RMM:   1    -0.413163475903E+03    0.59823E-02   -0.10815E+01  4305   0.753E-01    0.913E-01
RMM:   2    -0.413172406813E+03   -0.89309E-02   -0.13115E-01  4309   0.977E-02    0.642E-01
RMM:   3    -0.413173655642E+03   -0.12488E-02   -0.10385E-02  5098   0.643E-02    0.271E-01
RMM:   4    -0.413205231587E+03   -0.31576E-01   -0.44922E-02  5097   0.178E-01    0.769E-01
RMM:   5    -0.413170540965E+03    0.34691E-01   -0.15114E-02  4738   0.128E-01    0.531E-02
RMM:   6    -0.413170650170E+03   -0.10920E-03   -0.25279E-03  5620   0.500E-02    0.243E-02
RMM:   7    -0.413170665130E+03   -0.14960E-04   -0.34760E-04  5993   0.159E-02    0.162E-02
RMM:   8    -0.413170661520E+03    0.36096E-05   -0.57250E-05  5217   0.774E-03    0.764E-03
RMM:   9    -0.413170654806E+03    0.67144E-05   -0.10304E-05  3434   0.364E-03    0.350E-03
RMM:  10    -0.413170652235E+03    0.25706E-05   -0.22519E-06  2577   0.210E-03    0.240E-03
RMM:  11    -0.413170648447E+03    0.37878E-05   -0.10510E-06  2509   0.161E-03    0.126E-03
RMM:  12    -0.413170644936E+03    0.35113E-05   -0.57958E-07  2378   0.124E-03    0.393E-04
RMM:  13    -0.413170643240E+03    0.16956E-05   -0.28676E-07  1889   0.895E-04    0.231E-04
RMM:  14    -0.413170641723E+03    0.15173E-05   -0.17170E-07  1408   0.746E-04    0.154E-04
RMM:  15    -0.413170638850E+03    0.28736E-05   -0.16639E-07  1403   0.733E-04    0.843E-05
RMM:  16    -0.413170637166E+03    0.16835E-05   -0.10695E-07  1271   0.664E-04    0.769E-05
RMM:  17    -0.413170634487E+03    0.26793E-05   -0.11178E-07  1384   0.663E-04    0.494E-05
RMM:  18    -0.413170632929E+03    0.15575E-05   -0.63562E-08  1058   0.576E-04    0.266E-05
RMM:  19    -0.413170632649E+03    0.28027E-06   -0.29190E-08   809   0.529E-04
   19 T=    62. E= -.41286672E+03 F= -.41317063E+03 E0= -.41314856E+03  EK= 0.30391E+00 SP= 0.00E+00 SK= 0.00E+00
       N       E                     dE             d eps       ncg     rms          rms(c)
RMM:   1    -0.413163741830E+03    0.68911E-02   -0.10752E+01  4299   0.753E-01    0.902E-01
RMM:   2    -0.413172812517E+03   -0.90707E-02   -0.13032E-01  4277   0.991E-02    0.635E-01
RMM:   3    -0.413171630772E+03    0.11817E-02   -0.82196E-03  4948   0.437E-02    0.171E-01
RMM:   4    -0.413210165786E+03   -0.38535E-01   -0.40856E-02  5144   0.167E-01    0.816E-01
RMM:   5    -0.413170828022E+03    0.39338E-01   -0.19180E-02  4794   0.137E-01    0.470E-02
RMM:   6    -0.413171037901E+03   -0.20988E-03   -0.31547E-03  5754   0.544E-02    0.269E-02
RMM:   7    -0.413171045318E+03   -0.74173E-05   -0.41399E-04  5859   0.174E-02    0.183E-02
RMM:   8    -0.413171039200E+03    0.61186E-05   -0.63903E-05  5119   0.787E-03    0.948E-03
RMM:   9    -0.413171032460E+03    0.67400E-05   -0.13877E-05  3918   0.408E-03    0.626E-03
RMM:  10    -0.413171028796E+03    0.36638E-05   -0.22116E-06  2585   0.214E-03    0.404E-03
RMM:  11    -0.413171024860E+03    0.39358E-05   -0.14803E-06  2520   0.191E-03    0.191E-03
RMM:  12    -0.413171020759E+03    0.41015E-05   -0.10807E-06  2490   0.167E-03    0.590E-04
RMM:  13    -0.413171019925E+03    0.83402E-06   -0.38343E-07  2213   0.109E-03
   20 T=    62. E= -.41286646E+03 F= -.41317102E+03 E0= -.41314899E+03  EK= 0.30456E+00 SP= 0.00E+00 SK= 0.00E+00
       N       E                     dE             d eps       ncg     rms          rms(c)
RMM:   1    -0.413167415856E+03    0.36049E-02   -0.10821E+01  4301   0.799E-01    0.888E-01
RMM:   2    -0.413174422579E+03   -0.70067E-02   -0.13984E-01  4282   0.103E-01    0.647E-01
RMM:   3    -0.413172445996E+03    0.19766E-02   -0.78740E-03  4870   0.412E-02    0.157E-01
RMM:   4    -0.413203638624E+03   -0.31193E-01   -0.32310E-02  5137   0.149E-01    0.735E-01
RMM:   5    -0.413171913201E+03    0.31725E-01   -0.15691E-02  4802   0.123E-01    0.414E-02
RMM:   6    -0.413172093894E+03   -0.18069E-03   -0.25415E-03  5803   0.485E-02    0.244E-02
RMM:   7    -0.413172104479E+03   -0.10585E-04   -0.32108E-04  5845   0.157E-02    0.161E-02
RMM:   8    -0.413172102733E+03    0.17456E-05   -0.59309E-05  5019   0.756E-03    0.896E-03
RMM:   9    -0.413172098623E+03    0.41099E-05   -0.12960E-05  3930   0.406E-03    0.622E-03
RMM:  10    -0.413172097878E+03    0.74587E-06   -0.19224E-06  2569   0.207E-03
   21 T=    62. E= -.41286660E+03 F= -.41317210E+03 E0= -.41315011E+03  EK= 0.30550E+00 SP= 0.00E+00 SK= 0.00E+00
       N       E                     dE             d eps       ncg     rms          rms(c)
RMM:   1    -0.413165988657E+03    0.61100E-02   -0.10855E+01  4303   0.765E-01    0.910E-01
RMM:   2    -0.413175215977E+03   -0.92273E-02   -0.13250E-01  4312   0.990E-02    0.646E-01
RMM:   3    -0.413176259160E+03   -0.10432E-02   -0.10476E-02  5092   0.646E-02    0.272E-01
RMM:   4    -0.413209039913E+03   -0.32781E-01   -0.46579E-02  5106   0.181E-01    0.782E-01
RMM:   5    -0.413173079266E+03    0.35961E-01   -0.15717E-02  4737   0.130E-01    0.532E-02
RMM:   6    -0.413173192540E+03   -0.11327E-03   -0.26332E-03  5638   0.510E-02    0.243E-02
RMM:   7    -0.413173206004E+03   -0.13464E-04   -0.36079E-04  5994   0.162E-02    0.165E-02
RMM:   8    -0.413173201910E+03    0.40943E-05   -0.58942E-05  5200   0.783E-03    0.779E-03
RMM:   9    -0.413173195090E+03    0.68203E-05   -0.10981E-05  3502   0.372E-03    0.358E-03
RMM:  10    -0.413173192471E+03    0.26185E-05   -0.23309E-06  2591   0.212E-03    0.247E-03
RMM:  11    -0.413173188721E+03    0.37496E-05   -0.10271E-06  2495   0.161E-03    0.127E-03
RMM:  12    -0.413173185177E+03    0.35448E-05   -0.57573E-07  2380   0.124E-03    0.375E-04
RMM:  13    -0.413173183435E+03    0.17417E-05   -0.28314E-07  1896   0.895E-04    0.224E-04
RMM:  14    -0.413173181749E+03    0.16858E-05   -0.16994E-07  1406   0.744E-04    0.142E-04
RMM:  15    -0.413173178960E+03    0.27890E-05   -0.15109E-07  1374   0.723E-04    0.837E-05
RMM:  16    -0.413173177284E+03    0.16765E-05   -0.99603E-08  1249   0.659E-04    0.741E-05
RMM:  17    -0.413173174594E+03    0.26896E-05   -0.10189E-07  1337   0.658E-04    0.482E-05
RMM:  18    -0.413173173012E+03    0.15817E-05   -0.58367E-08  1057   0.583E-04    0.261E-05
RMM:  19    -0.413173172659E+03    0.35322E-06   -0.26294E-08   795   0.533E-04
   22 T=    62. E= -.41286669E+03 F= -.41317317E+03 E0= -.41315123E+03  EK= 0.30649E+00 SP= 0.00E+00 SK= 0.00E+00
       N       E                     dE             d eps       ncg     rms          rms(c)
RMM:   1    -0.413166847873E+03    0.63251E-02   -0.10833E+01  4295   0.774E-01    0.912E-01
RMM:   2    -0.413175795971E+03   -0.89481E-02   -0.13155E-01  4282   0.104E-01    0.639E-01
RMM:   3    -0.413174384606E+03    0.14114E-02   -0.84007E-03  4863   0.457E-02    0.166E-01
RMM:   4    -0.413209810554E+03   -0.35426E-01   -0.36967E-02  5142   0.160E-01    0.783E-01
RMM:   5    -0.413173710321E+03    0.36100E-01   -0.17751E-02  4792   0.131E-01    0.453E-02
RMM:   6    -0.413173910117E+03   -0.19980E-03   -0.29338E-03  5789   0.520E-02    0.273E-02
RMM:   7    -0.413173916209E+03   -0.60918E-05   -0.37393E-04  5801   0.171E-02    0.179E-02
RMM:   8    -0.413173909143E+03    0.70661E-05   -0.64923E-05  5103   0.796E-03    0.976E-03
RMM:   9    -0.413173901049E+03    0.80942E-05   -0.13734E-05  3986   0.416E-03    0.664E-03
RMM:  10    -0.413173896208E+03    0.48413E-05   -0.21252E-06  2587   0.213E-03    0.429E-03
RMM:  11    -0.413173890371E+03    0.58361E-05   -0.17235E-06  2536   0.206E-03    0.193E-03
RMM:  12    -0.413173884837E+03    0.55340E-05   -0.10654E-06  2475   0.171E-03    0.640E-04
RMM:  13    -0.413173883911E+03    0.92656E-06   -0.38415E-07  2206   0.109E-03
   23 T=    63. E= -.41286642E+03 F= -.41317388E+03 E0= -.41315199E+03  EK= 0.30746E+00 SP= 0.00E+00 SK= 0.00E+00
       N       E                     dE             d eps       ncg     rms          rms(c)
RMM:   1    -0.413167873125E+03    0.60117E-02   -0.10831E+01  4296   0.779E-01    0.892E-01
RMM:   2    -0.413177829402E+03   -0.99563E-02   -0.13414E-01  4283   0.104E-01    0.646E-01
RMM:   3    -0.413175677016E+03    0.21524E-02   -0.80482E-03  4769   0.433E-02    0.149E-01
RMM:   4    -0.413202277353E+03   -0.26600E-01   -0.27249E-02  5141   0.137E-01    0.680E-01
RMM:   5    -0.413175290874E+03    0.26986E-01   -0.13410E-02  4803   0.113E-01    0.393E-02
RMM:   6    -0.413175438309E+03   -0.14744E-03   -0.21628E-03  5799   0.442E-02    0.234E-02
RMM:   7    -0.413175445469E+03   -0.71608E-05   -0.24833E-04  5790   0.145E-02    0.135E-02
RMM:   8    -0.413175443798E+03    0.16719E-05   -0.53785E-05  5005   0.715E-03    0.885E-03
RMM:   9    -0.413175438249E+03    0.55483E-05   -0.12369E-05  3990   0.399E-03    0.623E-03
RMM:  10    -0.413175436492E+03    0.17573E-05   -0.16918E-06  2549   0.208E-03    0.410E-03
RMM:  11    -0.413175433651E+03    0.28411E-05   -0.20926E-06  2586   0.221E-03    0.187E-03
RMM:  12    -0.413175430867E+03    0.27843E-05   -0.94695E-07  2476   0.163E-03    0.665E-04
RMM:  13    -0.413175430487E+03    0.37915E-06   -0.32125E-07  2110   0.991E-04
   24 T=    63. E= -.41286668E+03 F= -.41317543E+03 E0= -.41315358E+03  EK= 0.30875E+00 SP= 0.00E+00 SK= 0.00E+00
       N       E                     dE             d eps       ncg     rms          rms(c)
RMM:   1    -0.413169044754E+03    0.63861E-02   -0.10919E+01  4298   0.790E-01    0.907E-01
RMM:   2    -0.413178723088E+03   -0.96783E-02   -0.13429E-01  4281   0.106E-01    0.652E-01
RMM:   3    -0.413176639547E+03    0.20835E-02   -0.82135E-03  4680   0.441E-02    0.146E-01
RMM:   4    -0.413197796513E+03   -0.21157E-01   -0.21608E-02  5144   0.123E-01    0.609E-01
RMM:   5    -0.413176298608E+03    0.21498E-01   -0.10659E-02  4814   0.101E-01    0.373E-02
RMM:   6    -0.413176409205E+03   -0.11060E-03   -0.17467E-03  5819   0.391E-02    0.223E-02
RMM:   7    -0.413176411220E+03   -0.20152E-05   -0.18671E-04  5646   0.129E-02    0.109E-02
RMM:   8    -0.413176407490E+03    0.37302E-05   -0.34779E-05  4785   0.587E-03    0.741E-03
RMM:   9    -0.413176403629E+03    0.38604E-05   -0.84317E-06  3480   0.324E-03    0.576E-03
RMM:  10    -0.413176401799E+03    0.18300E-05   -0.15016E-06  2551   0.198E-03    0.390E-03
RMM:  11    -0.413176397425E+03    0.43738E-05   -0.19917E-06  2581   0.217E-03    0.177E-03
RMM:  12    -0.413176393548E+03    0.38777E-05   -0.89962E-07  2463   0.160E-03    0.855E-04
RMM:  13    -0.413176393184E+03    0.36345E-06   -0.26479E-07  2082   0.941E-04
   25 T=    63. E= -.41286654E+03 F= -.41317639E+03 E0= -.41315460E+03  EK= 0.30985E+00 SP= 0.00E+00 SK= 0.00E+00
       N       E                     dE             d eps       ncg     rms          rms(c)
RMM:   1    -0.413173376561E+03    0.30170E-02   -0.10961E+01  4294   0.817E-01    0.921E-01
RMM:   2    -0.413179504059E+03   -0.61275E-02   -0.13839E-01  4278   0.109E-01    0.645E-01
RMM:   3    -0.413177802347E+03    0.17017E-02   -0.82357E-03  4551   0.431E-02    0.155E-01
RMM:   4    -0.413191912745E+03   -0.14110E-01   -0.14467E-02  5155   0.101E-01    0.498E-01
RMM:   5    -0.413177657704E+03    0.14255E-01   -0.71598E-03  4825   0.822E-02    0.353E-02
RMM:   6    -0.413177708138E+03   -0.50434E-04   -0.11339E-03  5835   0.315E-02    0.206E-02
RMM:   7    -0.413177702914E+03    0.52235E-05   -0.12661E-04  5539   0.112E-02    0.926E-03
RMM:   8    -0.413177694835E+03    0.80795E-05   -0.23767E-05  4529   0.507E-03    0.630E-03
RMM:   9    -0.413177691934E+03    0.29008E-05   -0.57195E-06  3101   0.290E-03    0.523E-03
RMM:  10    -0.413177687474E+03    0.44597E-05   -0.92592E-07  2503   0.177E-03    0.330E-03
RMM:  11    -0.413177679352E+03    0.81222E-05   -0.12785E-06  2509   0.184E-03    0.159E-03
RMM:  12    -0.413177673028E+03    0.63240E-05   -0.62665E-07  2363   0.133E-03    0.625E-04
RMM:  13    -0.413177671962E+03    0.10663E-05   -0.20393E-07  1784   0.820E-04    0.377E-04
RMM:  14    -0.413177670444E+03    0.15180E-05   -0.10103E-07  1284   0.667E-04    0.273E-04
RMM:  15    -0.413177665452E+03    0.49913E-05   -0.14481E-07  1800   0.747E-04    0.318E-04
RMM:  16    -0.413177664675E+03    0.77771E-06   -0.38592E-08   888   0.548E-04
   26 T=    63. E= -.41286648E+03 F= -.41317766E+03 E0= -.41315592E+03  EK= 0.31118E+00 SP= 0.00E+00 SK= 0.00E+00
       N       E                     dE             d eps       ncg     rms          rms(c)
RMM:   1    -0.413171905315E+03    0.57601E-02   -0.10894E+01  4292   0.793E-01    0.898E-01
RMM:   2    -0.413181545142E+03   -0.96398E-02   -0.13460E-01  4276   0.105E-01    0.647E-01
RMM:   3    -0.413179735110E+03    0.18100E-02   -0.81896E-03  4687   0.437E-02    0.148E-01
RMM:   4    -0.413201269360E+03   -0.21534E-01   -0.21995E-02  5149   0.124E-01    0.614E-01
RMM:   5    -0.413179397380E+03    0.21872E-01   -0.10929E-02  4813   0.102E-01    0.378E-02
RMM:   6    -0.413179508929E+03   -0.11155E-03   -0.17722E-03  5829   0.393E-02    0.229E-02
RMM:   7    -0.413179511177E+03   -0.22474E-05   -0.19869E-04  5674   0.132E-02    0.117E-02
RMM:   8    -0.413179508382E+03    0.27947E-05   -0.39625E-05  4860   0.627E-03    0.787E-03
RMM:   9    -0.413179503845E+03    0.45367E-05   -0.99469E-06  3722   0.355E-03    0.594E-03
RMM:  10    -0.413179501706E+03    0.21392E-05   -0.14605E-06  2543   0.201E-03    0.391E-03
RMM:  11    -0.413179497866E+03    0.38399E-05   -0.18407E-06  2555   0.211E-03    0.179E-03
RMM:  12    -0.413179494002E+03    0.38641E-05   -0.89841E-07  2465   0.159E-03    0.735E-04
RMM:  13    -0.413179493586E+03    0.41653E-06   -0.28541E-07  2080   0.956E-04
   27 T=    64. E= -.41286668E+03 F= -.41317949E+03 E0= -.41315780E+03  EK= 0.31282E+00 SP= 0.00E+00 SK= 0.00E+00
       N       E                     dE             d eps       ncg     rms          rms(c)
RMM:   1    -0.413184339875E+03   -0.48459E-02   -0.11121E+01  4294   0.876E-01    0.906E-01
RMM:   2    -0.413182899968E+03    0.14399E-02   -0.14763E-01  4275   0.112E-01    0.659E-01
RMM:   3    -0.413180752201E+03    0.21478E-02   -0.80794E-03  4455   0.422E-02    0.152E-01
RMM:   4    -0.413188598430E+03   -0.78462E-02   -0.85263E-03  5142   0.787E-02    0.374E-01
RMM:   5    -0.413180633137E+03    0.79653E-02   -0.39869E-03  4828   0.613E-02    0.312E-02
RMM:   6    -0.413180653510E+03   -0.20372E-04   -0.65830E-04  5841   0.239E-02    0.189E-02
RMM:   7    -0.413180656726E+03   -0.32163E-05   -0.14626E-04  5437   0.119E-02    0.126E-02
RMM:   8    -0.413180644042E+03    0.12684E-04   -0.20701E-05  4357   0.545E-03    0.511E-03
RMM:   9    -0.413180642438E+03    0.16041E-05   -0.41501E-06  2908   0.263E-03    0.399E-03
RMM:  10    -0.413180640277E+03    0.21609E-05   -0.10513E-06  2487   0.177E-03    0.237E-03
RMM:  11    -0.413180637317E+03    0.29599E-05   -0.71794E-07  2458   0.143E-03    0.113E-03
RMM:  12    -0.413180634586E+03    0.27311E-05   -0.40543E-07  2192   0.105E-03    0.459E-04
RMM:  13    -0.413180633519E+03    0.10665E-05   -0.17171E-07  1527   0.749E-04    0.226E-04
RMM:  14    -0.413180632159E+03    0.13602E-05   -0.10480E-07  1179   0.666E-04    0.150E-04
RMM:  15    -0.413180629161E+03    0.29984E-05   -0.11215E-07  1272   0.682E-04    0.104E-04
RMM:  16    -0.413180628660E+03    0.50073E-06   -0.43890E-08   880   0.588E-04
   28 T=    64. E= -.41286636E+03 F= -.41318063E+03 E0= -.41315898E+03  EK= 0.31427E+00 SP= 0.00E+00 SK= 0.00E+00
       N       E                     dE             d eps       ncg     rms          rms(c)
RMM:   1    -0.413176268091E+03    0.43611E-02   -0.11059E+01  4290   0.824E-01    0.929E-01
RMM:   2    -0.413184510944E+03   -0.82429E-02   -0.13625E-01  4275   0.108E-01    0.651E-01
RMM:   3    -0.413182749012E+03    0.17619E-02   -0.87219E-03  4533   0.450E-02    0.151E-01
RMM:   4    -0.413195962792E+03   -0.13214E-01   -0.13505E-02  5150   0.973E-02    0.482E-01
RMM:   5    -0.413182645545E+03    0.13317E-01   -0.67446E-03  4822   0.793E-02    0.354E-02
RMM:   6    -0.413182687755E+03   -0.42210E-04   -0.10810E-03  5860   0.307E-02    0.218E-02
RMM:   7    -0.413182687404E+03    0.35147E-06   -0.17273E-04  5585   0.128E-02    0.130E-02
RMM:   8    -0.413182673657E+03    0.13746E-04   -0.31378E-05  4709   0.615E-03    0.636E-03
RMM:   9    -0.413182670153E+03    0.35042E-05   -0.62880E-06  3175   0.311E-03    0.504E-03
RMM:  10    -0.413182665091E+03    0.50626E-05   -0.98844E-07  2500   0.181E-03    0.305E-03
RMM:  11    -0.413182658951E+03    0.61396E-05   -0.81793E-07  2481   0.151E-03    0.152E-03
RMM:  12    -0.413182652506E+03    0.64446E-05   -0.59561E-07  2376   0.127E-03    0.650E-04
RMM:  13    -0.413182650606E+03    0.19005E-05   -0.22545E-07  1880   0.852E-04    0.328E-04
RMM:  14    -0.413182649218E+03    0.13879E-05   -0.10509E-07  1248   0.663E-04    0.217E-04
RMM:  15    -0.413182644406E+03    0.48123E-05   -0.10581E-07  1373   0.691E-04    0.143E-04
RMM:  16    -0.413182643307E+03    0.10990E-05   -0.42500E-08   902   0.589E-04    0.101E-04
RMM:  17    -0.413182640204E+03    0.31024E-05   -0.56144E-08  1139   0.616E-04    0.112E-04
RMM:  18    -0.413182638174E+03    0.20298E-05   -0.37292E-08   973   0.568E-04    0.606E-05
RMM:  19    -0.413182637101E+03    0.10737E-05   -0.23239E-08   803   0.533E-04    0.253E-05
RMM:  20    -0.413182636858E+03    0.24290E-06   -0.94426E-09   658   0.513E-04
   29 T=    64. E= -.41286657E+03 F= -.41318264E+03 E0= -.41316104E+03  EK= 0.31607E+00 SP= 0.00E+00 SK= 0.00E+00
       N       E                     dE             d eps       ncg     rms          rms(c)
RMM:   1    -0.413178591953E+03    0.40451E-02   -0.11016E+01  4290   0.835E-01    0.908E-01
RMM:   2    -0.413186759114E+03   -0.81672E-02   -0.13681E-01  4273   0.111E-01    0.650E-01
RMM:   3    -0.413184640343E+03    0.21188E-02   -0.84437E-03  4414   0.464E-02    0.143E-01
RMM:   4    -0.413190838208E+03   -0.61979E-02   -0.68063E-03  5156   0.699E-02    0.333E-01
RMM:   5    -0.413184572145E+03    0.62661E-02   -0.31859E-03  4826   0.547E-02    0.318E-02
RMM:   6    -0.413184581850E+03   -0.97055E-05   -0.55419E-04  5794   0.225E-02    0.215E-02
RMM:   7    -0.413184576305E+03    0.55452E-05   -0.16073E-04  5350   0.124E-02    0.121E-02
RMM:   8    -0.413184565493E+03    0.10812E-04   -0.14726E-05  4043   0.493E-03    0.516E-03
RMM:   9    -0.413184563217E+03    0.22759E-05   -0.25582E-06  2715   0.224E-03    0.359E-03
RMM:  10    -0.413184559391E+03    0.38259E-05   -0.10306E-06  2480   0.166E-03    0.195E-03
RMM:  11    -0.413184555279E+03    0.41122E-05   -0.64042E-07  2412   0.133E-03    0.891E-04
RMM:  12    -0.413184552100E+03    0.31782E-05   -0.32989E-07  2068   0.982E-04    0.389E-04
RMM:  13    -0.413184550579E+03    0.15212E-05   -0.15524E-07  1380   0.730E-04    0.190E-04
RMM:  14    -0.413184548276E+03    0.23027E-05   -0.10261E-07  1162   0.671E-04    0.112E-04
RMM:  15    -0.413184545503E+03    0.27739E-05   -0.85411E-08  1174   0.656E-04    0.665E-05
RMM:  16    -0.413184544343E+03    0.11594E-05   -0.48063E-08   965   0.598E-04    0.533E-05
RMM:  17    -0.413184541456E+03    0.28871E-05   -0.63398E-08  1179   0.615E-04    0.332E-05
RMM:  18    -0.413184540492E+03    0.96373E-06   -0.28773E-08   829   0.543E-04
   30 T=    65. E= -.41286657E+03 F= -.41318454E+03 E0= -.41316299E+03  EK= 0.31797E+00 SP= 0.00E+00 SK= 0.00E+00
       N       E                     dE             d eps       ncg     rms          rms(c)
RMM:   1    -0.413189464445E+03   -0.49230E-02   -0.11232E+01  4290   0.928E-01    0.908E-01
RMM:   2    -0.413189150498E+03    0.31395E-03   -0.15253E-01  4276   0.125E-01    0.665E-01
RMM:   3    -0.413186217992E+03    0.29325E-02   -0.82883E-03  4321   0.467E-02    0.152E-01
RMM:   4    -0.413189709589E+03   -0.34916E-02   -0.43736E-03  5129   0.561E-02    0.249E-01
RMM:   5    -0.413186234266E+03    0.34753E-02   -0.17282E-03  4820   0.410E-02    0.301E-02
RMM:   6    -0.413186237234E+03   -0.29683E-05   -0.34595E-04  5740   0.184E-02    0.209E-02
RMM:   7    -0.413186230706E+03    0.65281E-05   -0.14042E-04  5174   0.116E-02    0.109E-02
RMM:   8    -0.413186223536E+03    0.71704E-05   -0.10048E-05  3678   0.427E-03    0.484E-03
RMM:   9    -0.413186222394E+03    0.11419E-05   -0.16114E-06  2555   0.192E-03    0.305E-03
RMM:  10    -0.413186219631E+03    0.27626E-05   -0.10035E-06  2470   0.155E-03    0.150E-03
RMM:  11    -0.413186217592E+03    0.20393E-05   -0.47081E-07  2244   0.112E-03    0.700E-04
RMM:  12    -0.413186215606E+03    0.19856E-05   -0.26471E-07  1833   0.866E-04    0.283E-04
RMM:  13    -0.413186214246E+03    0.13607E-05   -0.13218E-07  1223   0.688E-04    0.177E-04
RMM:  14    -0.413186212670E+03    0.15754E-05   -0.95032E-08  1107   0.648E-04    0.120E-04
RMM:  15    -0.413186210403E+03    0.22671E-05   -0.88298E-08  1158   0.643E-04    0.600E-05
RMM:  16    -0.413186209656E+03    0.74712E-06   -0.42883E-08   868   0.574E-04
   31 T=    65. E= -.41286631E+03 F= -.41318621E+03 E0= -.41316471E+03  EK= 0.31990E+00 SP= 0.00E+00 SK= 0.00E+00
       N       E                     dE             d eps       ncg     rms          rms(c)
RMM:   1    -0.413181944891E+03    0.42655E-02   -0.11195E+01  4291   0.846E-01    0.935E-01
RMM:   2    -0.413191021266E+03   -0.90764E-02   -0.13990E-01  4286   0.123E-01    0.659E-01
RMM:   3    -0.413188889349E+03    0.21319E-02   -0.89672E-03  4301   0.522E-02    0.147E-01
RMM:   4    -0.413191522428E+03   -0.26331E-02   -0.34230E-03  5123   0.504E-02    0.217E-01
RMM:   5    -0.413188899993E+03    0.26224E-02   -0.13173E-03  4820   0.360E-02    0.322E-02
RMM:   6    -0.413188899941E+03    0.52605E-07   -0.32020E-04  5643   0.180E-02    0.234E-02
RMM:   7    -0.413188880627E+03    0.19313E-04   -0.14504E-04  5063   0.119E-02    0.110E-02
RMM:   8    -0.413188874498E+03    0.61290E-05   -0.10247E-05  3602   0.417E-03    0.486E-03
RMM:   9    -0.413188872194E+03    0.23043E-05   -0.14807E-06  2506   0.190E-03    0.292E-03
RMM:  10    -0.413188864708E+03    0.74858E-05   -0.88238E-07  2462   0.153E-03    0.137E-03
RMM:  11    -0.413188860783E+03    0.39250E-05   -0.39367E-07  2181   0.104E-03    0.676E-04
RMM:  12    -0.413188855926E+03    0.48568E-05   -0.24357E-07  1808   0.862E-04    0.250E-04
RMM:  13    -0.413188852993E+03    0.29331E-05   -0.12309E-07  1248   0.692E-04    0.154E-04
RMM:  14    -0.413188848979E+03    0.40146E-05   -0.89441E-08  1152   0.656E-04    0.113E-04
RMM:  15    -0.413188844657E+03    0.43219E-05   -0.82518E-08  1252   0.646E-04    0.754E-05
RMM:  16    -0.413188842554E+03    0.21028E-05   -0.50703E-08  1007   0.578E-04    0.599E-05
RMM:  17    -0.413188839640E+03    0.29141E-05   -0.45316E-08  1001   0.574E-04    0.275E-05
RMM:  18    -0.413188838754E+03    0.88623E-06   -0.21865E-08   732   0.524E-04
   32 T=    66. E= -.41286667E+03 F= -.41318884E+03 E0= -.41316739E+03  EK= 0.32217E+00 SP= 0.00E+00 SK= 0.00E+00
       N       E                     dE             d eps       ncg     rms          rms(c)
RMM:   1    -0.413183629727E+03    0.52099E-02   -0.11159E+01  4288   0.860E-01    0.922E-01
RMM:   2    -0.413193168370E+03   -0.95386E-02   -0.14123E-01  4281   0.128E-01    0.655E-01
RMM:   3    -0.413190721175E+03    0.24472E-02   -0.86607E-03  4217   0.452E-02    0.148E-01
RMM:   4    -0.413191105575E+03   -0.38440E-03   -0.13546E-03  4980   0.293E-02    0.804E-02
RMM:   5    -0.413190791944E+03    0.31363E-03   -0.20414E-04  4719   0.147E-02    0.325E-02
RMM:   6    -0.413190782880E+03    0.90638E-05   -0.15685E-04  5317   0.129E-02    0.232E-02
RMM:   7    -0.413190762945E+03    0.19934E-04   -0.12505E-04  4748   0.103E-02    0.118E-02
RMM:   8    -0.413190759371E+03    0.35740E-05   -0.83072E-06  3259   0.371E-03    0.453E-03
RMM:   9    -0.413190757947E+03    0.14243E-05   -0.18314E-06  2332   0.179E-03    0.202E-03
RMM:  10    -0.413190749988E+03    0.79596E-05   -0.73420E-07  2206   0.131E-03    0.718E-04
RMM:  11    -0.413190746477E+03    0.35103E-05   -0.24519E-07  1699   0.831E-04    0.305E-04
RMM:  12    -0.413190742691E+03    0.37865E-05   -0.13645E-07  1322   0.710E-04    0.179E-04
RMM:  13    -0.413190739403E+03    0.32876E-05   -0.72476E-08   960   0.628E-04    0.958E-05
RMM:  14    -0.413190734921E+03    0.44820E-05   -0.64153E-08   999   0.623E-04    0.957E-05
RMM:  15    -0.413190730818E+03    0.41031E-05   -0.53252E-08   972   0.592E-04    0.581E-05
RMM:  16    -0.413190728875E+03    0.19432E-05   -0.29571E-08   756   0.533E-04    0.346E-05
RMM:  17    -0.413190727670E+03    0.12051E-05   -0.15202E-08   562   0.500E-04    0.202E-05
RMM:  18    -0.413190727152E+03    0.51755E-06   -0.88203E-09   486   0.491E-04
   33 T=    66. E= -.41286638E+03 F= -.41319073E+03 E0= -.41316933E+03  EK= 0.32434E+00 SP= 0.00E+00 SK= 0.00E+00
       N       E                     dE             d eps       ncg     rms          rms(c)
RMM:   1    -0.413205233949E+03   -0.14506E-01   -0.11456E+01  4297   0.989E-01    0.912E-01
RMM:   2    -0.413195743365E+03    0.94906E-02   -0.16876E-01  4280   0.137E-01    0.671E-01
RMM:   3    -0.413193268228E+03    0.24751E-02   -0.80816E-03  4359   0.502E-02    0.176E-01
RMM:   4    -0.413197744569E+03   -0.44763E-02   -0.55415E-03  5122   0.655E-02    0.283E-01
RMM:   5    -0.413193268136E+03    0.44764E-02   -0.21831E-03  4797   0.467E-02    0.321E-02
RMM:   6    -0.413193258822E+03    0.93143E-05   -0.41519E-04  5730   0.209E-02    0.226E-02
RMM:   7    -0.413193254573E+03    0.42486E-05   -0.15577E-04  5188   0.121E-02    0.114E-02
RMM:   8    -0.413193246236E+03    0.83371E-05   -0.13901E-05  4049   0.479E-03    0.503E-03
RMM:   9    -0.413193245027E+03    0.12088E-05   -0.21421E-06  2636   0.212E-03    0.301E-03
RMM:  10    -0.413193242164E+03    0.28636E-05   -0.90512E-07  2462   0.155E-03    0.157E-03
RMM:  11    -0.413193239175E+03    0.29892E-05   -0.54083E-07  2299   0.118E-03    0.737E-04
RMM:  12    -0.413193236701E+03    0.24735E-05   -0.29412E-07  1855   0.891E-04    0.332E-04
RMM:  13    -0.413193235055E+03    0.16458E-05   -0.14899E-07  1255   0.701E-04    0.173E-04
RMM:  14    -0.413193233399E+03    0.16564E-05   -0.97053E-08  1048   0.648E-04    0.120E-04
RMM:  15    -0.413193230671E+03    0.27275E-05   -0.90750E-08  1095   0.647E-04    0.593E-05
RMM:  16    -0.413193229787E+03    0.88419E-06   -0.46840E-08   868   0.591E-04
   34 T=    67. E= -.41286638E+03 F= -.41319323E+03 E0= -.41317188E+03  EK= 0.32685E+00 SP= 0.00E+00 SK= 0.00E+00
       N       E                     dE             d eps       ncg     rms          rms(c)
RMM:   1    -0.413189330241E+03    0.39004E-02   -0.11363E+01  4301   0.904E-01    0.939E-01
RMM:   2    -0.413198320152E+03   -0.89899E-02   -0.14591E-01  4267   0.132E-01    0.669E-01
RMM:   3    -0.413196050952E+03    0.22692E-02   -0.89802E-03  4335   0.516E-02    0.150E-01
RMM:   4    -0.413198948608E+03   -0.28977E-02   -0.37284E-03  5148   0.516E-02    0.230E-01
RMM:   5    -0.413196039642E+03    0.29090E-02   -0.14719E-03  4813   0.382E-02    0.333E-02
RMM:   6    -0.413196030186E+03    0.94562E-05   -0.33900E-04  5671   0.186E-02    0.244E-02
RMM:   7    -0.413196016581E+03    0.13605E-04   -0.15996E-04  5102   0.118E-02    0.122E-02
RMM:   8    -0.413196009536E+03    0.70452E-05   -0.12725E-05  3862   0.444E-03    0.524E-03
RMM:   9    -0.413196007436E+03    0.20996E-05   -0.19263E-06  2534   0.195E-03    0.281E-03
RMM:  10    -0.413196000887E+03    0.65489E-05   -0.86288E-07  2467   0.151E-03    0.138E-03
RMM:  11    -0.413195996530E+03    0.43575E-05   -0.40329E-07  2195   0.104E-03    0.781E-04
RMM:  12    -0.413195991721E+03    0.48083E-05   -0.25070E-07  1798   0.860E-04    0.271E-04
RMM:  13    -0.413195988704E+03    0.30172E-05   -0.12634E-07  1218   0.688E-04    0.161E-04
RMM:  14    -0.413195984862E+03    0.38417E-05   -0.89299E-08  1073   0.645E-04    0.133E-04
RMM:  15    -0.413195979845E+03    0.50173E-05   -0.85203E-08  1204   0.649E-04    0.662E-05
RMM:  16    -0.413195978039E+03    0.18066E-05   -0.48309E-08   969   0.581E-04    0.541E-05
RMM:  17    -0.413195974977E+03    0.30615E-05   -0.44820E-08  1009   0.579E-04    0.280E-05
RMM:  18    -0.413195973970E+03    0.10068E-05   -0.24338E-08   766   0.531E-04    0.164E-05
RMM:  19    -0.413195973661E+03    0.30937E-06   -0.13378E-08   637   0.510E-04
   35 T=    67. E= -.41286656E+03 F= -.41319597E+03 E0= -.41317467E+03  EK= 0.32941E+00 SP= 0.00E+00 SK= 0.00E+00
       N       E                     dE             d eps       ncg     rms          rms(c)
RMM:   1    -0.413195593294E+03    0.38068E-03   -0.11398E+01  4299   0.972E-01    0.939E-01
RMM:   2    -0.413200172295E+03   -0.45790E-02   -0.14883E-01  4263   0.131E-01    0.663E-01
RMM:   3    -0.413198263763E+03    0.19085E-02   -0.91196E-03  4692   0.524E-02    0.170E-01
RMM:   4    -0.413224991412E+03   -0.26728E-01   -0.27017E-02  5164   0.138E-01    0.683E-01
RMM:   5    -0.413197985377E+03    0.27006E-01   -0.13711E-02  4808   0.114E-01    0.430E-02
RMM:   6    -0.413198014760E+03   -0.29383E-04   -0.21495E-03  5852   0.441E-02    0.265E-02
RMM:   7    -0.413198021569E+03   -0.68095E-05   -0.27932E-04  5725   0.154E-02    0.149E-02
RMM:   8    -0.413198011567E+03    0.10002E-04   -0.54183E-05  4984   0.754E-03    0.894E-03
RMM:   9    -0.413198007691E+03    0.38762E-05   -0.14966E-05  4246   0.446E-03    0.617E-03
RMM:  10    -0.413198001292E+03    0.63994E-05   -0.19790E-06  2585   0.228E-03    0.366E-03
RMM:  11    -0.413197996565E+03    0.47273E-05   -0.11330E-06  2502   0.171E-03    0.217E-03
RMM:  12    -0.413197986648E+03    0.99161E-05   -0.12322E-06  2489   0.185E-03    0.981E-04
RMM:  13    -0.413197982956E+03    0.36923E-05   -0.44333E-07  2281   0.120E-03    0.593E-04
RMM:  14    -0.413197982456E+03    0.49965E-06   -0.18818E-07  1723   0.793E-04
   36 T=    68. E= -.41286622E+03 F= -.41319798E+03 E0= -.41317672E+03  EK= 0.33176E+00 SP= 0.00E+00 SK= 0.00E+00
       N       E                     dE             d eps       ncg     rms          rms(c)
RMM:   1    -0.413200072860E+03   -0.20899E-02   -0.11473E+01  4306   0.102E+00    0.922E-01
RMM:   2    -0.413203968039E+03   -0.38952E-02   -0.15734E-01  4261   0.137E-01    0.675E-01
RMM:   3    -0.413201325364E+03    0.26427E-02   -0.88308E-03  4645   0.545E-02    0.167E-01
RMM:   4    -0.413224413305E+03   -0.23088E-01   -0.23402E-02  5159   0.129E-01    0.636E-01
RMM:   5    -0.413201095414E+03    0.23318E-01   -0.11776E-02  4804   0.106E-01    0.416E-02
RMM:   6    -0.413201114863E+03   -0.19449E-04   -0.19160E-03  5849   0.413E-02    0.261E-02
RMM:   7    -0.413201125357E+03   -0.10494E-04   -0.27701E-04  5702   0.151E-02    0.152E-02
RMM:   8    -0.413201114558E+03    0.10799E-04   -0.55140E-05  5012   0.776E-03    0.830E-03
RMM:   9    -0.413201111821E+03    0.27363E-05   -0.12034E-05  3928   0.416E-03    0.523E-03
RMM:  10    -0.413201107658E+03    0.41631E-05   -0.17243E-06  2564   0.210E-03    0.324E-03
RMM:  11    -0.413201103619E+03    0.40387E-05   -0.10758E-06  2500   0.165E-03    0.171E-03
RMM:  12    -0.413201097324E+03    0.62950E-05   -0.95803E-07  2459   0.157E-03    0.727E-04
RMM:  13    -0.413201095074E+03    0.22501E-05   -0.36147E-07  2147   0.104E-03    0.458E-04
RMM:  14    -0.413201094457E+03    0.61721E-06   -0.16949E-07  1493   0.745E-04
   37 T=    68. E= -.41286655E+03 F= -.41320109E+03 E0= -.41317988E+03  EK= 0.33455E+00 SP= 0.00E+00 SK= 0.00E+00
       N       E                     dE             d eps       ncg     rms          rms(c)
RMM:   1    -0.413201430963E+03   -0.33589E-03   -0.11577E+01  4307   0.102E+00    0.943E-01
RMM:   2    -0.413206584747E+03   -0.51538E-02   -0.15397E-01  4263   0.129E-01    0.679E-01
RMM:   3    -0.413203762548E+03    0.28222E-02   -0.93183E-03  4733   0.533E-02    0.171E-01
RMM:   4    -0.413234672758E+03   -0.30910E-01   -0.31405E-02  5150   0.148E-01    0.733E-01
RMM:   5    -0.413203393402E+03    0.31279E-01   -0.15906E-02  4802   0.122E-01    0.450E-02
RMM:   6    -0.413203437799E+03   -0.44397E-04   -0.24590E-03  5832   0.471E-02    0.277E-02
RMM:   7    -0.413203449267E+03   -0.11468E-04   -0.32747E-04  5768   0.164E-02    0.162E-02
RMM:   8    -0.413203438647E+03    0.10620E-04   -0.62984E-05  5059   0.814E-03    0.938E-03
RMM:   9    -0.413203434750E+03    0.38973E-05   -0.16101E-05  4283   0.464E-03    0.584E-03
RMM:  10    -0.413203429291E+03    0.54585E-05   -0.23325E-06  2618   0.231E-03    0.358E-03
RMM:  11    -0.413203424902E+03    0.43890E-05   -0.11809E-06  2500   0.174E-03    0.203E-03
RMM:  12    -0.413203416466E+03    0.84362E-05   -0.11585E-06  2488   0.178E-03    0.884E-04
RMM:  13    -0.413203413028E+03    0.34384E-05   -0.43169E-07  2274   0.117E-03    0.586E-04
RMM:  14    -0.413203412719E+03    0.30858E-06   -0.19224E-07  1705   0.788E-04
   38 T=    69. E= -.41286635E+03 F= -.41320341E+03 E0= -.41318224E+03  EK= 0.33706E+00 SP= 0.00E+00 SK= 0.00E+00
       N       E                     dE             d eps       ncg     rms          rms(c)
RMM:   1    -0.413212662672E+03   -0.92496E-02   -0.11687E+01  4305   0.111E+00    0.956E-01
RMM:   2    -0.413208649000E+03    0.40137E-02   -0.15997E-01  4267   0.127E-01    0.674E-01
RMM:   3    -0.413206668854E+03    0.19801E-02   -0.96187E-03  4941   0.533E-02    0.204E-01
RMM:   4    -0.413254475575E+03   -0.47807E-01   -0.50674E-02  5140   0.187E-01    0.907E-01
RMM:   5    -0.413205785000E+03    0.48691E-01   -0.24298E-02  4790   0.153E-01    0.537E-02
RMM:   6    -0.413205918369E+03   -0.13337E-03   -0.39000E-03  5829   0.585E-02    0.310E-02
RMM:   7    -0.413205931114E+03   -0.12745E-04   -0.42627E-04  5738   0.183E-02    0.171E-02
RMM:   8    -0.413205924480E+03    0.66347E-05   -0.59228E-05  4928   0.731E-03    0.930E-03
RMM:   9    -0.413205916689E+03    0.77909E-05   -0.19709E-05  4374   0.457E-03    0.664E-03
RMM:  10    -0.413205911791E+03    0.48981E-05   -0.48668E-06  2958   0.287E-03    0.399E-03
RMM:  11    -0.413205905366E+03    0.64247E-05   -0.16781E-06  2509   0.211E-03    0.235E-03
RMM:  12    -0.413205893539E+03    0.11827E-04   -0.13359E-06  2491   0.197E-03    0.791E-04
RMM:  13    -0.413205889670E+03    0.38685E-05   -0.47749E-07  2365   0.127E-03    0.639E-04
RMM:  14    -0.413205889365E+03    0.30553E-06   -0.21153E-07  1903   0.842E-04
   39 T=    69. E= -.41286631E+03 F= -.41320589E+03 E0= -.41318475E+03  EK= 0.33958E+00 SP= 0.00E+00 SK= 0.00E+00
       N       E                     dE             d eps       ncg     rms          rms(c)
RMM:   1    -0.413210079938E+03   -0.41903E-02   -0.11636E+01  4312   0.112E+00    0.934E-01
RMM:   2    -0.413212069548E+03   -0.19896E-02   -0.15917E-01  4267   0.132E-01    0.679E-01
RMM:   3    -0.413209834573E+03    0.22350E-02   -0.96428E-03  4972   0.562E-02    0.209E-01
RMM:   4    -0.413261782171E+03   -0.51948E-01   -0.56438E-02  5133   0.198E-01    0.945E-01
RMM:   5    -0.413208659685E+03    0.53122E-01   -0.26239E-02  4789   0.159E-01    0.551E-02
RMM:   6    -0.413208811017E+03   -0.15133E-03   -0.41797E-03  5819   0.607E-02    0.307E-02
RMM:   7    -0.413208826844E+03   -0.15827E-04   -0.46332E-04  5809   0.189E-02    0.179E-02
RMM:   8    -0.413208826288E+03    0.55605E-06   -0.84189E-05  5204   0.863E-03    0.114E-02
RMM:   9    -0.413208816715E+03    0.95723E-05   -0.26620E-05  4649   0.548E-03    0.672E-03
RMM:  10    -0.413208812101E+03    0.46139E-05   -0.45274E-06  2815   0.294E-03    0.396E-03
RMM:  11    -0.413208807937E+03    0.41642E-05   -0.17430E-06  2516   0.213E-03    0.234E-03
RMM:  12    -0.413208800335E+03    0.76019E-05   -0.12627E-06  2495   0.190E-03    0.738E-04
RMM:  13    -0.413208797096E+03    0.32396E-05   -0.51870E-07  2359   0.128E-03    0.550E-04
RMM:  14    -0.413208795966E+03    0.11295E-05   -0.22833E-07  1929   0.865E-04    0.352E-04
RMM:  15    -0.413208792491E+03    0.34756E-05   -0.12703E-07  1389   0.713E-04    0.145E-04
RMM:  16    -0.413208789781E+03    0.27095E-05   -0.79607E-08  1138   0.643E-04    0.117E-04
RMM:  17    -0.413208787386E+03    0.23948E-05   -0.56986E-08  1051   0.614E-04    0.868E-05
RMM:  18    -0.413208783831E+03    0.35557E-05   -0.54398E-08  1151   0.626E-04    0.751E-05
RMM:  19    -0.413208782246E+03    0.15847E-05   -0.33691E-08   982   0.578E-04    0.548E-05
RMM:  20    -0.413208781522E+03    0.72359E-06   -0.20034E-08   821   0.547E-04
   40 T=    70. E= -.41286655E+03 F= -.41320878E+03 E0= -.41318768E+03  EK= 0.34223E+00 SP= 0.00E+00 SK= 0.00E+00
       N       E                     dE             d eps       ncg     rms          rms(c)
RMM:   1    -0.413233593443E+03   -0.24811E-01   -0.11977E+01  4310   0.126E+00    0.945E-01
RMM:   2    -0.413214059056E+03    0.19534E-01   -0.18439E-01  4274   0.146E-01    0.692E-01
RMM:   3    -0.413212723449E+03    0.13356E-02   -0.99864E-03  5046   0.617E-02    0.268E-01
RMM:   4    -0.413269341355E+03   -0.56618E-01   -0.66045E-02  5127   0.214E-01    0.993E-01
RMM:   5    -0.413210591100E+03    0.58750E-01   -0.28414E-02  4775   0.168E-01    0.608E-02
RMM:   6    -0.413210758058E+03   -0.16696E-03   -0.45934E-03  5802   0.639E-02    0.318E-02
RMM:   7    -0.413210776421E+03   -0.18363E-04   -0.54768E-04  5884   0.203E-02    0.216E-02
RMM:   8    -0.413210776260E+03    0.16068E-06   -0.11673E-04  5279   0.105E-02    0.131E-02
RMM:   9    -0.413210764184E+03    0.12076E-04   -0.24758E-05  4570   0.578E-03    0.555E-03
RMM:  10    -0.413210760501E+03    0.36834E-05   -0.55086E-06  2921   0.292E-03    0.345E-03
RMM:  11    -0.413210757247E+03    0.32537E-05   -0.14791E-06  2505   0.198E-03    0.198E-03
RMM:  12    -0.413210752126E+03    0.51213E-05   -0.90066E-07  2475   0.162E-03    0.668E-04
RMM:  13    -0.413210749299E+03    0.28266E-05   -0.44027E-07  2276   0.114E-03    0.339E-04
RMM:  14    -0.413210747629E+03    0.16699E-05   -0.22795E-07  1804   0.840E-04    0.239E-04
RMM:  15    -0.413210744607E+03    0.30225E-05   -0.13762E-07  1328   0.709E-04    0.111E-04
RMM:  16    -0.413210742813E+03    0.17934E-05   -0.86436E-08  1110   0.651E-04    0.746E-05
RMM:  17    -0.413210740871E+03    0.19423E-05   -0.65871E-08  1089   0.633E-04    0.604E-05
RMM:  18    -0.413210738750E+03    0.21204E-05   -0.52993E-08  1053   0.621E-04    0.308E-05
RMM:  19    -0.413210737125E+03    0.16259E-05   -0.37020E-08   974   0.600E-04    0.272E-05
RMM:  20    -0.413210736586E+03    0.53900E-06   -0.22762E-08   827   0.571E-04
   41 T=    70. E= -.41286627E+03 F= -.41321074E+03 E0= -.41318967E+03  EK= 0.34446E+00 SP= 0.00E+00 SK= 0.00E+00
       N       E                     dE             d eps       ncg     rms          rms(c)
RMM:   1    -0.413215180571E+03   -0.44434E-02   -0.11798E+01  4311   0.122E+00    0.969E-01
RMM:   2    -0.413215894110E+03   -0.71354E-03   -0.16103E-01  4285   0.140E-01    0.683E-01
RMM:   3    -0.413216866681E+03   -0.97257E-03   -0.12443E-02  5085   0.737E-02    0.306E-01
RMM:   4    -0.413254105642E+03   -0.37239E-01   -0.52909E-02  5094   0.193E-01    0.836E-01
RMM:   5    -0.413213217778E+03    0.40888E-01   -0.18393E-02  4739   0.140E-01    0.575E-02
RMM:   6    -0.413213281214E+03   -0.63436E-04   -0.31531E-03  5762   0.532E-02    0.312E-02
RMM:   7    -0.413213287945E+03   -0.67311E-05   -0.41795E-04  5813   0.183E-02    0.209E-02
RMM:   8    -0.413213284074E+03    0.38707E-05   -0.10660E-04  5185   0.103E-02    0.117E-02
RMM:   9    -0.413213270323E+03    0.13751E-04   -0.19718E-05  4406   0.542E-03    0.463E-03
RMM:  10    -0.413213265153E+03    0.51707E-05   -0.40725E-06  2787   0.258E-03    0.290E-03
RMM:  11    -0.413213259360E+03    0.57926E-05   -0.12445E-06  2499   0.183E-03    0.157E-03
RMM:  12    -0.413213251655E+03    0.77051E-05   -0.68570E-07  2433   0.144E-03    0.579E-04
RMM:  13    -0.413213247610E+03    0.40454E-05   -0.33698E-07  2068   0.101E-03    0.283E-04
RMM:  14    -0.413213244717E+03    0.28924E-05   -0.18302E-07  1550   0.776E-04    0.175E-04
RMM:  15    -0.413213238743E+03    0.59740E-05   -0.13282E-07  1337   0.720E-04    0.129E-04
RMM:  16    -0.413213236715E+03    0.20287E-05   -0.84412E-08  1187   0.656E-04    0.836E-05
RMM:  17    -0.413213233007E+03    0.37081E-05   -0.74522E-08  1272   0.651E-04    0.626E-05
RMM:  18    -0.413213230375E+03    0.26316E-05   -0.52324E-08  1107   0.602E-04    0.338E-05
RMM:  19    -0.413213228674E+03    0.17007E-05   -0.37179E-08   993   0.571E-04    0.323E-05
RMM:  20    -0.413213228475E+03    0.19925E-06   -0.17858E-08   733   0.532E-04
   42 T=    71. E= -.41286645E+03 F= -.41321323E+03 E0= -.41319220E+03  EK= 0.34678E+00 SP= 0.00E+00 SK= 0.00E+00
       N       E                     dE             d eps       ncg     rms          rms(c)
RMM:   1    -0.413220121763E+03   -0.68931E-02   -0.11771E+01  4312   0.129E+00    0.945E-01
RMM:   2    -0.413217933988E+03    0.21878E-02   -0.16560E-01  4287   0.149E-01    0.683E-01
RMM:   3    -0.413219991869E+03   -0.20579E-02   -0.13079E-02  5084   0.812E-02    0.338E-01
RMM:   4    -0.413253155156E+03   -0.33163E-01   -0.52074E-02  5082   0.193E-01    0.805E-01
RMM:   5    -0.413215276486E+03    0.37879E-01   -0.16562E-02  4716   0.135E-01    0.571E-02
RMM:   6    -0.413215317420E+03   -0.40934E-04   -0.28802E-03  5754   0.510E-02    0.305E-02
RMM:   7    -0.413215321372E+03   -0.39519E-05   -0.38814E-04  5810   0.178E-02    0.208E-02
RMM:   8    -0.413215317023E+03    0.43484E-05   -0.10135E-04  5166   0.101E-02    0.110E-02
RMM:   9    -0.413215305097E+03    0.11927E-04   -0.19444E-05  4384   0.540E-03    0.424E-03
RMM:  10    -0.413215301497E+03    0.35998E-05   -0.37238E-06  2754   0.249E-03    0.262E-03
RMM:  11    -0.413215296873E+03    0.46233E-05   -0.12806E-06  2503   0.182E-03    0.142E-03
RMM:  12    -0.413215291636E+03    0.52372E-05   -0.64148E-07  2425   0.138E-03    0.578E-04
RMM:  13    -0.413215288626E+03    0.30106E-05   -0.31746E-07  1936   0.959E-04    0.260E-04
RMM:  14    -0.413215285980E+03    0.26453E-05   -0.18188E-07  1465   0.763E-04    0.150E-04
RMM:  15    -0.413215281520E+03    0.44601E-05   -0.13691E-07  1287   0.713E-04    0.106E-04
RMM:  16    -0.413215279818E+03    0.17026E-05   -0.86478E-08  1137   0.653E-04    0.765E-05
RMM:  17    -0.413215276319E+03    0.34987E-05   -0.80070E-08  1269   0.658E-04    0.594E-05
RMM:  18    -0.413215274326E+03    0.19927E-05   -0.52932E-08  1072   0.603E-04    0.415E-05
RMM:  19    -0.413215273385E+03    0.94152E-06   -0.32826E-08   879   0.561E-04
   43 T=    71. E= -.41286649E+03 F= -.41321527E+03 E0= -.41319427E+03  EK= 0.34878E+00 SP= 0.00E+00 SK= 0.00E+00
       N       E                     dE             d eps       ncg     rms          rms(c)
RMM:   1    -0.413242558082E+03   -0.27284E-01   -0.12087E+01  4312   0.144E+00    0.946E-01
RMM:   2    -0.413219464167E+03    0.23094E-01   -0.19525E-01  4291   0.170E-01    0.700E-01
RMM:   3    -0.413222390212E+03   -0.29260E-02   -0.13530E-02  5082   0.888E-02    0.387E-01
RMM:   4    -0.413254299442E+03   -0.31909E-01   -0.54403E-02  5065   0.198E-01    0.809E-01
RMM:   5    -0.413216482589E+03    0.37817E-01   -0.16562E-02  4712   0.136E-01    0.602E-02
RMM:   6    -0.413216500606E+03   -0.18017E-04   -0.27973E-03  5713   0.508E-02    0.308E-02
RMM:   7    -0.413216503447E+03   -0.28409E-05   -0.38025E-04  5861   0.178E-02    0.215E-02
RMM:   8    -0.413216498175E+03    0.52722E-05   -0.98134E-05  5174   0.100E-02    0.109E-02
RMM:   9    -0.413216487102E+03    0.11073E-04   -0.21356E-05  4431   0.562E-03    0.415E-03
RMM:  10    -0.413216484557E+03    0.25448E-05   -0.38820E-06  2765   0.247E-03    0.245E-03
RMM:  11    -0.413216480832E+03    0.37249E-05   -0.15954E-06  2534   0.192E-03    0.143E-03
RMM:  12    -0.413216477518E+03    0.33140E-05   -0.62086E-07  2449   0.138E-03    0.636E-04
RMM:  13    -0.413216475177E+03    0.23412E-05   -0.31448E-07  1795   0.926E-04    0.279E-04
RMM:  14    -0.413216472805E+03    0.23721E-05   -0.19621E-07  1432   0.770E-04    0.149E-04
RMM:  15    -0.413216469902E+03    0.29025E-05   -0.14562E-07  1305   0.712E-04    0.910E-05
RMM:  16    -0.413216468014E+03    0.18887E-05   -0.97220E-08  1175   0.660E-04    0.662E-05
RMM:  17    -0.413216465805E+03    0.22088E-05   -0.78276E-08  1186   0.640E-04    0.513E-05
RMM:  18    -0.413216463769E+03    0.20364E-05   -0.58045E-08  1079   0.600E-04    0.374E-05
RMM:  19    -0.413216462902E+03    0.86683E-06   -0.33372E-08   842   0.557E-04
   44 T=    71. E= -.41286625E+03 F= -.41321646E+03 E0= -.41319549E+03  EK= 0.35021E+00 SP= 0.00E+00 SK= 0.00E+00
       N       E                     dE             d eps       ncg     rms          rms(c)
RMM:   1    -0.413228263316E+03   -0.11800E-01   -0.11926E+01  4311   0.146E+00    0.975E-01
RMM:   2    -0.413220304231E+03    0.79591E-02   -0.16976E-01  4324   0.172E-01    0.692E-01
RMM:   3    -0.413229031483E+03   -0.87273E-02   -0.19288E-02  5128   0.111E-01    0.480E-01
RMM:   4    -0.413238357585E+03   -0.93261E-02   -0.41859E-02  5030   0.177E-01    0.602E-01
RMM:   5    -0.413218054179E+03    0.20303E-01   -0.76207E-03  4611   0.102E-01    0.532E-02
RMM:   6    -0.413218016590E+03    0.37589E-04   -0.15093E-03  5514   0.378E-02    0.290E-02
RMM:   7    -0.413218011769E+03    0.48207E-05   -0.23901E-04  5638   0.150E-02    0.198E-02
RMM:   8    -0.413218001877E+03    0.98927E-05   -0.97902E-05  5066   0.102E-02    0.929E-03
RMM:   9    -0.413217988264E+03    0.13613E-04   -0.14604E-05  4194   0.515E-03    0.377E-03
RMM:  10    -0.413217984546E+03    0.37178E-05   -0.23521E-06  2662   0.214E-03    0.218E-03
RMM:  11    -0.413217977645E+03    0.69013E-05   -0.11050E-06  2478   0.171E-03    0.123E-03
RMM:  12    -0.413217971927E+03    0.57179E-05   -0.50729E-07  2405   0.125E-03    0.596E-04
RMM:  13    -0.413217968244E+03    0.36827E-05   -0.23501E-07  1730   0.844E-04    0.288E-04
RMM:  14    -0.413217964600E+03    0.36446E-05   -0.13232E-07  1273   0.689E-04    0.148E-04
RMM:  15    -0.413217959422E+03    0.51780E-05   -0.10855E-07  1255   0.677E-04    0.119E-04
RMM:  16    -0.413217956814E+03    0.26076E-05   -0.70363E-08  1118   0.621E-04    0.108E-04
RMM:  17    -0.413217953251E+03    0.35635E-05   -0.58049E-08  1136   0.610E-04    0.565E-05
RMM:  18    -0.413217949737E+03    0.35133E-05   -0.50255E-08  1135   0.592E-04    0.530E-05
RMM:  19    -0.413217949136E+03    0.60150E-06   -0.22432E-08   770   0.518E-04
   45 T=    72. E= -.41286661E+03 F= -.41321795E+03 E0= -.41319700E+03  EK= 0.35134E+00 SP= 0.00E+00 SK= 0.00E+00
       N       E                     dE             d eps       ncg     rms          rms(c)
RMM:   1    -0.413255058859E+03   -0.37109E-01   -0.12073E+01  4311   0.164E+00    0.957E-01
RMM:   2    -0.413220351885E+03    0.34707E-01   -0.17755E-01  4344   0.186E-01    0.688E-01
RMM:   3    -0.413231872847E+03   -0.11521E-01   -0.21470E-02  5125   0.121E-01    0.535E-01
RMM:   4    -0.413234763924E+03   -0.28911E-02   -0.40635E-02  5015   0.176E-01    0.553E-01
RMM:   5    -0.413218048342E+03    0.16716E-01   -0.61987E-03  4577   0.963E-02    0.529E-02
RMM:   6    -0.413217990573E+03    0.57769E-04   -0.11737E-03  5328   0.342E-02    0.281E-02
RMM:   7    -0.413217985469E+03    0.51046E-05   -0.19258E-04  5587   0.137E-02    0.187E-02
RMM:   8    -0.413217977198E+03    0.82704E-05   -0.10839E-04  5105   0.106E-02    0.985E-03
RMM:   9    -0.413217962891E+03    0.14308E-04   -0.16157E-05  4310   0.546E-03    0.387E-03
RMM:  10    -0.413217959996E+03    0.28942E-05   -0.26101E-06  2689   0.218E-03    0.222E-03
RMM:  11    -0.413217953875E+03    0.61216E-05   -0.12643E-06  2487   0.180E-03    0.125E-03
RMM:  12    -0.413217949523E+03    0.43520E-05   -0.52802E-07  2403   0.129E-03    0.677E-04
RMM:  13    -0.413217945920E+03    0.36027E-05   -0.24539E-07  1739   0.871E-04    0.329E-04
RMM:  14    -0.413217942500E+03    0.34195E-05   -0.12824E-07  1277   0.686E-04    0.166E-04
RMM:  15    -0.413217938429E+03    0.40715E-05   -0.94657E-08  1145   0.652E-04    0.107E-04
RMM:  16    -0.413217935965E+03    0.24642E-05   -0.60984E-08  1004   0.607E-04    0.992E-05
RMM:  17    -0.413217932812E+03    0.31528E-05   -0.53100E-08  1065   0.606E-04    0.595E-05
RMM:  18    -0.413217929640E+03    0.31723E-05   -0.48483E-08  1094   0.594E-04    0.496E-05
RMM:  19    -0.413217929076E+03    0.56394E-06   -0.17527E-08   680   0.513E-04
   46 T=    72. E= -.41286644E+03 F= -.41321793E+03 E0= -.41319700E+03  EK= 0.35149E+00 SP= 0.00E+00 SK= 0.00E+00
       N       E                     dE             d eps       ncg     rms          rms(c)
RMM:   1    -0.413238326578E+03   -0.20397E-01   -0.11917E+01  4311   0.166E+00    0.945E-01
RMM:   2    -0.413220081000E+03    0.18246E-01   -0.18824E-01  4354   0.199E-01    0.702E-01
RMM:   3    -0.413232333607E+03   -0.12253E-01   -0.22184E-02  5129   0.128E-01    0.561E-01
RMM:   4    -0.413234970279E+03   -0.26367E-02   -0.43416E-02  5005   0.183E-01    0.569E-01
RMM:   5    -0.413217156544E+03    0.17814E-01   -0.67488E-03  4579   0.101E-01    0.555E-02
RMM:   6    -0.413217086421E+03    0.70124E-04   -0.12200E-03  5299   0.353E-02    0.285E-02
RMM:   7    -0.413217080461E+03    0.59595E-05   -0.20004E-04  5643   0.139E-02    0.196E-02
RMM:   8    -0.413217072142E+03    0.83194E-05   -0.11225E-04  5150   0.108E-02    0.102E-02
RMM:   9    -0.413217058557E+03    0.13585E-04   -0.18121E-05  4385   0.575E-03    0.400E-03
RMM:  10    -0.413217056546E+03    0.20106E-05   -0.29420E-06  2716   0.225E-03    0.230E-03
RMM:  11    -0.413217052417E+03    0.41295E-05   -0.14209E-06  2506   0.187E-03    0.133E-03
RMM:  12    -0.413217049474E+03    0.29429E-05   -0.56341E-07  2418   0.133E-03    0.716E-04
RMM:  13    -0.413217046702E+03    0.27715E-05   -0.27586E-07  1786   0.915E-04    0.339E-04
RMM:  14    -0.413217044208E+03    0.24947E-05   -0.15324E-07  1377   0.726E-04    0.178E-04
RMM:  15    -0.413217041407E+03    0.28006E-05   -0.10650E-07  1172   0.667E-04    0.103E-04
RMM:  16    -0.413217039423E+03    0.19836E-05   -0.70362E-08  1016   0.615E-04    0.908E-05
RMM:  17    -0.413217037187E+03    0.22365E-05   -0.57337E-08  1011   0.600E-04    0.525E-05
RMM:  18    -0.413217035007E+03    0.21798E-05   -0.47517E-08   998   0.585E-04    0.410E-05
RMM:  19    -0.413217034439E+03    0.56818E-06   -0.21643E-08   701   0.527E-04
   47 T=    71. E= -.41286634E+03 F= -.41321703E+03 E0= -.41319612E+03  EK= 0.35069E+00 SP= 0.00E+00 SK= 0.00E+00
       N       E                     dE             d eps       ncg     rms          rms(c)
RMM:   1    -0.413257957034E+03   -0.40922E-01   -0.12044E+01  4306   0.183E+00    0.968E-01
RMM:   2    -0.413217858986E+03    0.40098E-01   -0.19573E-01  4418   0.207E-01    0.697E-01
RMM:   3    -0.413238001462E+03   -0.20142E-01   -0.29063E-02  5146   0.149E-01    0.675E-01
RMM:   4    -0.413225908148E+03    0.12093E-01   -0.40014E-02  4967   0.179E-01    0.460E-01
RMM:   5    -0.413215372163E+03    0.10536E-01   -0.48087E-03  4525   0.911E-02    0.583E-02
RMM:   6    -0.413215233544E+03    0.13862E-03   -0.56503E-04  4810   0.293E-02    0.293E-02
RMM:   7    -0.413215226498E+03    0.70462E-05   -0.20012E-04  5930   0.144E-02    0.169E-02
RMM:   8    -0.413215214529E+03    0.11969E-04   -0.99976E-05  5182   0.109E-02    0.116E-02
RMM:   9    -0.413215203125E+03    0.11405E-04   -0.17846E-05  4391   0.548E-03    0.475E-03
RMM:  10    -0.413215199284E+03    0.38402E-05   -0.28858E-06  2653   0.263E-03    0.236E-03
RMM:  11    -0.413215193950E+03    0.53340E-05   -0.20885E-06  2560   0.223E-03    0.165E-03
RMM:  12    -0.413215189835E+03    0.41156E-05   -0.69667E-07  2409   0.152E-03    0.942E-04
RMM:  13    -0.413215186041E+03    0.37936E-05   -0.31596E-07  2065   0.992E-04    0.534E-04
RMM:  14    -0.413215180472E+03    0.55690E-05   -0.21656E-07  1841   0.828E-04    0.373E-04
RMM:  15    -0.413215176639E+03    0.38335E-05   -0.10396E-07  1119   0.622E-04    0.163E-04
RMM:  16    -0.413215174286E+03    0.23524E-05   -0.68016E-08  1007   0.583E-04    0.897E-05
RMM:  17    -0.413215170973E+03    0.33130E-05   -0.63075E-08  1067   0.593E-04    0.657E-05
RMM:  18    -0.413215169150E+03    0.18236E-05   -0.39033E-08   923   0.560E-04    0.540E-05
RMM:  19    -0.413215168133E+03    0.10164E-05   -0.20240E-08   741   0.529E-04    0.356E-05
RMM:  20    -0.413215166737E+03    0.13960E-05   -0.23160E-08   838   0.537E-04    0.238E-05
RMM:  21    -0.413215166470E+03    0.26766E-06   -0.98153E-09   613   0.493E-04
   48 T=    71. E= -.41286658E+03 F= -.41321517E+03 E0= -.41319427E+03  EK= 0.34859E+00 SP= 0.00E+00 SK= 0.00E+00
       N       E                     dE             d eps       ncg     rms          rms(c)
RMM:   1    -0.413256701324E+03   -0.41535E-01   -0.11838E+01  4306   0.194E+00    0.957E-01
RMM:   2    -0.413213368682E+03    0.43333E-01   -0.19079E-01  4468   0.217E-01    0.686E-01
RMM:   3    -0.413241051625E+03   -0.27683E-01   -0.35729E-02  5152   0.167E-01    0.765E-01
RMM:   4    -0.413217931764E+03    0.23120E-01   -0.39665E-02  4942   0.181E-01    0.391E-01
RMM:   5    -0.413210997012E+03    0.69348E-02   -0.47966E-03  4707   0.917E-02    0.685E-02
RMM:   6    -0.413210765410E+03    0.23160E-03   -0.48532E-04  4647   0.310E-02    0.329E-02
RMM:   7    -0.413210765155E+03    0.25453E-06   -0.22306E-04  5753   0.160E-02    0.233E-02
RMM:   8    -0.413210736284E+03    0.28872E-04   -0.76615E-05  4974   0.986E-03    0.933E-03
RMM:   9    -0.413210727325E+03    0.89582E-05   -0.15712E-05  4162   0.500E-03    0.425E-03
RMM:  10    -0.413210722491E+03    0.48346E-05   -0.23578E-06  2628   0.232E-03    0.254E-03
RMM:  11    -0.413210715842E+03    0.66489E-05   -0.90925E-07  2487   0.161E-03    0.151E-03
RMM:  12    -0.413210712147E+03    0.36948E-05   -0.35635E-07  2298   0.106E-03    0.751E-04
RMM:  13    -0.413210706468E+03    0.56790E-05   -0.32978E-07  2026   0.933E-04    0.420E-04
RMM:  14    -0.413210702482E+03    0.39859E-05   -0.16917E-07  1340   0.726E-04    0.279E-04
RMM:  15    -0.413210697970E+03    0.45123E-05   -0.12935E-07  1175   0.681E-04    0.125E-04
RMM:  16    -0.413210695267E+03    0.27033E-05   -0.90843E-08  1234   0.645E-04    0.941E-05
RMM:  17    -0.413210691749E+03    0.35181E-05   -0.77119E-08  1257   0.624E-04    0.827E-05
RMM:  18    -0.413210690575E+03    0.11736E-05   -0.40691E-08   943   0.542E-04    0.632E-05
RMM:  19    -0.413210689264E+03    0.13113E-05   -0.33796E-08   940   0.532E-04    0.272E-05
RMM:  20    -0.413210688408E+03    0.85569E-06   -0.23895E-08   824   0.512E-04
   49 T=    70. E= -.41286622E+03 F= -.41321069E+03 E0= -.41318980E+03  EK= 0.34447E+00 SP= 0.00E+00 SK= 0.00E+00
       N       E                     dE             d eps       ncg     rms          rms(c)
RMM:   1    -0.413230687479E+03   -0.19998E-01   -0.11428E+01  4306   0.195E+00    0.927E-01
RMM:   2    -0.413208399064E+03    0.22288E-01   -0.18938E-01  4484   0.227E-01    0.691E-01
RMM:   3    -0.413236638934E+03   -0.28240E-01   -0.36182E-02  5157   0.170E-01    0.780E-01
RMM:   4    -0.413212587908E+03    0.24051E-01   -0.40999E-02  4937   0.186E-01    0.391E-01
[...]
RMM:  16    -0.413693549694E+03   -0.13025E-04   -0.27835E-06  2741   0.192E-03    0.415E-04
RMM:  17    -0.413693556002E+03   -0.63074E-05   -0.13692E-06  2078   0.121E-03    0.302E-04
RMM:  18    -0.413693562023E+03   -0.60213E-05   -0.10238E-06  2182   0.114E-03    0.216E-04
RMM:  19    -0.413693565361E+03   -0.33377E-05   -0.45880E-07  1659   0.812E-04    0.132E-04
RMM:  20    -0.413693568267E+03   -0.29065E-05   -0.23038E-07  1306   0.673E-04    0.842E-05
RMM:  21    -0.413693570634E+03   -0.23663E-05   -0.15118E-07  1238   0.635E-04    0.656E-05
RMM:  22    -0.413693571412E+03   -0.77797E-06   -0.67898E-08   996   0.565E-04
  139 T=   168. E= -.41286870E+03 F= -.41369357E+03 E0= -.41367292E+03  EK= 0.82487E+00 SP= 0.00E+00 SK= 0.00E+00
       N       E                     dE             d eps       ncg     rms          rms(c)
RMM:   1    -0.414038079925E+03   -0.34451E+00   -0.20367E+01  4293   0.831E+00    0.925E-01
RMM:   2    -0.413944641438E+03    0.93438E-01   -0.45745E-01  5231   0.846E-01    0.763E-01
RMM:   3    -0.413982249629E+03   -0.37608E-01   -0.94854E-02  5518   0.336E-01    0.103E+00
RMM:   4    -0.413942080428E+03    0.40169E-01   -0.41404E-02  5162   0.234E-01    0.487E-01
RMM:   5    -0.413939985244E+03    0.20952E-02   -0.17470E-02  4744   0.183E-01    0.177E-01
RMM:   6    -0.413939948318E+03    0.36927E-04   -0.70612E-03  5245   0.106E-01    0.107E-01
RMM:   7    -0.413939374897E+03    0.57342E-03   -0.17938E-03  5034   0.539E-02    0.542E-02
RMM:   8    -0.413939307687E+03    0.67210E-04   -0.62331E-04  5654   0.301E-02    0.339E-02
RMM:   9    -0.413939272100E+03    0.35587E-04   -0.20742E-04  5042   0.177E-02    0.210E-02
RMM:  10    -0.413939260810E+03    0.11290E-04   -0.85493E-05  5573   0.113E-02    0.106E-02
RMM:  11    -0.413939264879E+03   -0.40686E-05   -0.25339E-05  4837   0.578E-03    0.771E-03
RMM:  12    -0.413939273161E+03   -0.82819E-05   -0.87083E-06  3730   0.459E-03    0.313E-03
RMM:  13    -0.413939282838E+03   -0.96779E-05   -0.35902E-06  2843   0.286E-03    0.217E-03
RMM:  14    -0.413939296277E+03   -0.13439E-04   -0.21065E-06  2650   0.236E-03    0.107E-03
RMM:  15    -0.413939307943E+03   -0.11666E-04   -0.19069E-06  2642   0.195E-03    0.807E-04
RMM:  16    -0.413939321598E+03   -0.13655E-04   -0.29712E-06  2729   0.210E-03    0.471E-04
RMM:  17    -0.413939328421E+03   -0.68228E-05   -0.16795E-06  2299   0.134E-03    0.340E-04
RMM:  18    -0.413939334448E+03   -0.60275E-05   -0.12869E-06  2324   0.125E-03    0.259E-04
RMM:  19    -0.413939337872E+03   -0.34236E-05   -0.66704E-07  1743   0.897E-04    0.161E-04
RMM:  20    -0.413939340720E+03   -0.28483E-05   -0.30810E-07  1453   0.727E-04    0.909E-05
RMM:  21    -0.413939343367E+03   -0.26463E-05   -0.19837E-07  1352   0.665E-04    0.839E-05
RMM:  22    -0.413939344654E+03   -0.12875E-05   -0.97751E-08  1084   0.578E-04    0.522E-05
RMM:  23    -0.413939345569E+03   -0.91514E-06   -0.56178E-08  1001   0.550E-04
  140 T=   216. E= -.41287812E+03 F= -.41393935E+03 E0= -.41391836E+03  EK= 0.10612E+01 SP= 0.00E+00 SK= 0.00E+00
       N       E                     dE             d eps       ncg     rms          rms(c)
RMM:   1    -0.414286954941E+03   -0.34761E+00   -0.26639E+01  4293   0.916E+00    0.118E+00
RMM:   2    -0.414093660467E+03    0.19329E+00   -0.68137E-01  5264   0.102E+00    0.971E-01
RMM:   3    -0.414153230510E+03   -0.59570E-01   -0.14045E-01  5486   0.421E-01    0.127E+00
RMM:   4    -0.414093404728E+03    0.59826E-01   -0.63576E-02  5144   0.286E-01    0.647E-01
RMM:   5    -0.414088330986E+03    0.50737E-02   -0.28550E-02  4685   0.235E-01    0.199E-01
RMM:   6    -0.414087936947E+03    0.39404E-03   -0.69718E-03  5220   0.110E-01    0.105E-01
RMM:   7    -0.414087567229E+03    0.36972E-03   -0.20789E-03  5220   0.562E-02    0.625E-02
RMM:   8    -0.414087437386E+03    0.12984E-03   -0.68399E-04  5438   0.333E-02    0.385E-02
RMM:   9    -0.414087401155E+03    0.36231E-04   -0.27650E-04  4969   0.210E-02    0.254E-02
RMM:  10    -0.414087385592E+03    0.15564E-04   -0.10614E-04  5463   0.130E-02    0.118E-02
RMM:  11    -0.414087387985E+03   -0.23931E-05   -0.41090E-05  5415   0.713E-03    0.879E-03
RMM:  12    -0.414087390700E+03   -0.27155E-05   -0.90625E-06  3804   0.450E-03    0.388E-03
RMM:  13    -0.414087397182E+03   -0.64818E-05   -0.50021E-06  3069   0.322E-03    0.239E-03
RMM:  14    -0.414087405528E+03   -0.83456E-05   -0.19778E-06  2619   0.234E-03    0.108E-03
RMM:  15    -0.414087412128E+03   -0.66004E-05   -0.14514E-06  2589   0.175E-03    0.774E-04
RMM:  16    -0.414087419440E+03   -0.73122E-05   -0.17706E-06  2614   0.172E-03    0.477E-04
RMM:  17    -0.414087423635E+03   -0.41950E-05   -0.11090E-06  2223   0.121E-03    0.350E-04
RMM:  18    -0.414087427037E+03   -0.34013E-05   -0.91835E-07  2158   0.112E-03    0.224E-04
RMM:  19    -0.414087429233E+03   -0.21963E-05   -0.59235E-07  1769   0.890E-04    0.139E-04
RMM:  20    -0.414087430557E+03   -0.13244E-05   -0.25117E-07  1327   0.671E-04    0.826E-05
RMM:  21    -0.414087431928E+03   -0.13705E-05   -0.16353E-07  1225   0.620E-04    0.657E-05
RMM:  22    -0.414087432939E+03   -0.10114E-05   -0.96842E-08  1085   0.567E-04    0.449E-05
RMM:  23    -0.414087433648E+03   -0.70873E-06   -0.53635E-08   964   0.533E-04
  141 T=   243. E= -.41289452E+03 F= -.41408743E+03 E0= -.41406626E+03  EK= 0.11929E+01 SP= 0.00E+00 SK= 0.00E+00
       N       E                     dE             d eps       ncg     rms          rms(c)
RMM:   1    -0.414156417090E+03   -0.68984E-01   -0.28439E+01  4283   0.921E+00    0.194E+00
RMM:   2    -0.413927641736E+03    0.22878E+00   -0.98137E-01  5305   0.111E+00    0.159E+00
RMM:   3    -0.413997893935E+03   -0.70252E-01   -0.21210E-01  5379   0.538E-01    0.144E+00
RMM:   4    -0.414009907167E+03   -0.12013E-01   -0.20230E-01  5206   0.451E-01    0.130E+00
RMM:   5    -0.413927381530E+03    0.82526E-01   -0.11010E-01  4991   0.416E-01    0.299E-01
RMM:   6    -0.413924844708E+03    0.25368E-02   -0.15882E-02  5352   0.167E-01    0.138E-01
RMM:   7    -0.413924342113E+03    0.50259E-03   -0.33569E-03  5243   0.693E-02    0.755E-02
RMM:   8    -0.413924237492E+03    0.10462E-03   -0.12892E-03  5574   0.420E-02    0.438E-02
RMM:   9    -0.413924202754E+03    0.34738E-04   -0.46667E-04  5591   0.261E-02    0.332E-02
RMM:  10    -0.413924183242E+03    0.19512E-04   -0.14006E-04  5292   0.153E-02    0.140E-02
RMM:  11    -0.413924183579E+03   -0.33734E-06   -0.56819E-05  5663   0.832E-03    0.982E-03
RMM:  12    -0.413924183978E+03   -0.39948E-06   -0.10323E-05  4094   0.458E-03    0.516E-03
RMM:  13    -0.413924187474E+03   -0.34959E-05   -0.64590E-06  3406   0.364E-03    0.284E-03
RMM:  14    -0.413924190778E+03   -0.33038E-05   -0.20356E-06  2637   0.239E-03    0.101E-03
RMM:  15    -0.413924192888E+03   -0.21101E-05   -0.10222E-06  2533   0.153E-03    0.688E-04
RMM:  16    -0.413924194944E+03   -0.20557E-05   -0.99676E-07  2406   0.138E-03    0.442E-04
RMM:  17    -0.413924195841E+03   -0.89705E-06   -0.60098E-07  2004   0.102E-03
  142 T=   207. E= -.41290851E+03 F= -.41392420E+03 E0= -.41390307E+03  EK= 0.10157E+01 SP= 0.00E+00 SK= 0.00E+00
       N       E                     dE             d eps       ncg     rms          rms(c)
RMM:   1    -0.413469406742E+03    0.45479E+00   -0.18673E+01  4272   0.760E+00    0.188E+00
RMM:   2    -0.413411275180E+03    0.58132E-01   -0.74488E-01  5266   0.906E-01    0.157E+00
RMM:   3    -0.413444556839E+03   -0.33282E-01   -0.14677E-01  5312   0.447E-01    0.109E+00
RMM:   4    -0.413608716823E+03   -0.16416E+00   -0.27712E-01  5186   0.499E-01    0.184E+00
RMM:   5    -0.413413041305E+03    0.19568E+00   -0.14271E-01  4974   0.446E-01    0.308E-01
RMM:   6    -0.413410546973E+03    0.24943E-02   -0.19244E-02  5423   0.170E-01    0.122E-01
RMM:   7    -0.413410416070E+03    0.13090E-03   -0.49850E-03  5604   0.744E-02    0.744E-02
RMM:   8    -0.413410302520E+03    0.11355E-03   -0.14082E-03  5539   0.443E-02    0.411E-02
RMM:   9    -0.413410283410E+03    0.19110E-04   -0.28498E-04  5559   0.204E-02    0.270E-02
RMM:  10    -0.413410273035E+03    0.10375E-04   -0.11779E-04  5515   0.128E-02    0.107E-02
RMM:  11    -0.413410275129E+03   -0.20945E-05   -0.35470E-05  5245   0.633E-03    0.780E-03
RMM:  12    -0.413410274671E+03    0.45843E-06   -0.65685E-06  3297   0.370E-03
  143 T=   113. E= -.41285734E+03 F= -.41341027E+03 E0= -.41338931E+03  EK= 0.55294E+00 SP= 0.00E+00 SK= 0.00E+00
       N       E                     dE             d eps       ncg     rms          rms(c)
RMM:   1    -0.413316686617E+03    0.93589E-01   -0.66951E+00  4275   0.486E+00    0.575E-01
RMM:   2    -0.413306247519E+03    0.10439E-01   -0.13346E-01  5155   0.445E-01    0.446E-01
RMM:   3    -0.413326123578E+03   -0.19876E-01   -0.34481E-02  5567   0.193E-01    0.671E-01
RMM:   4    -0.413306793712E+03    0.19330E-01   -0.15895E-02  5015   0.147E-01    0.215E-01
RMM:   5    -0.413306542178E+03    0.25153E-03   -0.69317E-03  5138   0.111E-01    0.839E-02
RMM:   6    -0.413306354223E+03    0.18795E-03   -0.14474E-03  5351   0.472E-02    0.410E-02
RMM:   7    -0.413306307927E+03    0.46296E-04   -0.36265E-04  5463   0.222E-02    0.223E-02
RMM:   8    -0.413306300626E+03    0.73009E-05   -0.85945E-05  5590   0.113E-02    0.144E-02
RMM:   9    -0.413306303240E+03   -0.26138E-05   -0.30333E-05  4860   0.737E-03    0.813E-03
RMM:  10    -0.413306302392E+03    0.84812E-06   -0.92631E-06  3786   0.398E-03
  144 T=    92. E= -.41285246E+03 F= -.41330630E+03 E0= -.41328515E+03  EK= 0.45384E+00 SP= 0.00E+00 SK= 0.00E+00
       N       E                     dE             d eps       ncg     rms          rms(c)
RMM:   1    -0.413763803636E+03   -0.45750E+00   -0.14318E+01  4284   0.663E+00    0.197E+00
RMM:   2    -0.413712567791E+03    0.51236E-01   -0.50865E-01  5359   0.871E-01    0.168E+00
RMM:   3    -0.413849267832E+03   -0.13670E+00   -0.25951E-01  5415   0.522E-01    0.204E+00
RMM:   4    -0.413706039291E+03    0.14323E+00   -0.18275E-01  5130   0.479E-01    0.794E-01
RMM:   5    -0.413690573118E+03    0.15466E-01   -0.65121E-02  4892   0.340E-01    0.231E-01
RMM:   6    -0.413688973348E+03    0.15998E-02   -0.13595E-02  5402   0.144E-01    0.137E-01
RMM:   7    -0.413688225791E+03    0.74756E-03   -0.23919E-03  4897   0.646E-02    0.679E-02
RMM:   8    -0.413688122561E+03    0.10323E-03   -0.77851E-04  5352   0.365E-02    0.394E-02
RMM:   9    -0.413688132344E+03   -0.97827E-05   -0.35411E-04  5754   0.224E-02    0.269E-02
RMM:  10    -0.413688118855E+03    0.13489E-04   -0.69995E-05  5432   0.106E-02    0.128E-02
RMM:  11    -0.413688119153E+03   -0.29768E-06   -0.49880E-05  5537   0.792E-03    0.675E-03
RMM:  12    -0.413688119011E+03    0.14172E-06   -0.62868E-06  3134   0.355E-03
  145 T=   162. E= -.41289456E+03 F= -.41368812E+03 E0= -.41366659E+03  EK= 0.79356E+00 SP= 0.00E+00 SK= 0.00E+00
       N       E                     dE             d eps       ncg     rms          rms(c)
RMM:   1    -0.414158604908E+03   -0.47049E+00   -0.23294E+01  4297   0.844E+00    0.209E+00
RMM:   2    -0.413959904195E+03    0.19870E+00   -0.66446E-01  5377   0.994E-01    0.175E+00
RMM:   3    -0.414118456004E+03   -0.15855E+00   -0.30812E-01  5458   0.576E-01    0.218E+00
RMM:   4    -0.413948834194E+03    0.16962E+00   -0.20239E-01  5120   0.511E-01    0.774E-01
RMM:   5    -0.413935058954E+03    0.13775E-01   -0.87842E-02  4961   0.381E-01    0.260E-01
RMM:   6    -0.413932743376E+03    0.23156E-02   -0.21222E-02  5337   0.178E-01    0.165E-01
RMM:   7    -0.413931309738E+03    0.14336E-02   -0.31656E-03  4690   0.779E-02    0.676E-02
RMM:   8    -0.413931286926E+03    0.22813E-04   -0.12461E-03  5711   0.414E-02    0.449E-02
RMM:   9    -0.413931300649E+03   -0.13723E-04   -0.37118E-04  5469   0.235E-02    0.296E-02
RMM:  10    -0.413931287700E+03    0.12949E-04   -0.88164E-05  5411   0.120E-02    0.138E-02
RMM:  11    -0.413931292424E+03   -0.47242E-05   -0.58253E-05  5604   0.848E-03    0.773E-03
RMM:  12    -0.413931297960E+03   -0.55351E-05   -0.80918E-06  3381   0.400E-03    0.389E-03
RMM:  13    -0.413931301927E+03   -0.39675E-05   -0.29008E-06  2750   0.262E-03    0.173E-03
RMM:  14    -0.413931306332E+03   -0.44047E-05   -0.13331E-06  2569   0.187E-03    0.787E-04
RMM:  15    -0.413931309312E+03   -0.29797E-05   -0.79535E-07  2342   0.133E-03    0.473E-04
RMM:  16    -0.413931312191E+03   -0.28795E-05   -0.62732E-07  2205   0.113E-03    0.290E-04
RMM:  17    -0.413931314701E+03   -0.25098E-05   -0.53060E-07  2061   0.100E-03    0.203E-04
RMM:  18    -0.413931316457E+03   -0.17558E-05   -0.34230E-07  1621   0.820E-04    0.122E-04
RMM:  19    -0.413931317790E+03   -0.13337E-05   -0.25312E-07  1538   0.749E-04    0.778E-05
RMM:  20    -0.413931318413E+03   -0.62295E-06   -0.13150E-07  1189   0.622E-04
  146 T=   213. E= -.41288691E+03 F= -.41393132E+03 E0= -.41390981E+03  EK= 0.10444E+01 SP= 0.00E+00 SK= 0.00E+00
       N       E                     dE             d eps       ncg     rms          rms(c)
RMM:   1    -0.414240803972E+03   -0.30949E+00   -0.25995E+01  4299   0.934E+00    0.152E+00
RMM:   2    -0.414029802621E+03    0.21100E+00   -0.62196E-01  5353   0.964E-01    0.132E+00
RMM:   3    -0.414071173302E+03   -0.41371E-01   -0.17763E-01  5569   0.457E-01    0.148E+00
RMM:   4    -0.414004518377E+03    0.66655E-01   -0.87303E-02  5135   0.348E-01    0.598E-01
RMM:   5    -0.414003838368E+03    0.68001E-03   -0.75588E-02  5027   0.334E-01    0.352E-01
RMM:   6    -0.413998596266E+03    0.52421E-02   -0.23270E-02  5023   0.192E-01    0.168E-01
RMM:   7    -0.413997506793E+03    0.10895E-02   -0.27635E-03  4865   0.784E-02    0.767E-02
RMM:   8    -0.413997494423E+03    0.12369E-04   -0.14624E-03  5712   0.435E-02    0.481E-02
RMM:   9    -0.413997482809E+03    0.11614E-04   -0.31352E-04  4778   0.232E-02    0.216E-02
RMM:  10    -0.413997491610E+03   -0.88010E-05   -0.11154E-04  5685   0.124E-02    0.119E-02
RMM:  11    -0.413997502985E+03   -0.11375E-04   -0.28224E-05  4922   0.665E-03    0.754E-03
RMM:  12    -0.413997517476E+03   -0.14491E-04   -0.10769E-05  3769   0.476E-03    0.399E-03
RMM:  13    -0.413997524540E+03   -0.70633E-05   -0.36397E-06  2825   0.269E-03    0.176E-03
RMM:  14    -0.413997532285E+03   -0.77456E-05   -0.26324E-06  2704   0.226E-03    0.950E-04
RMM:  15    -0.413997537596E+03   -0.53104E-05   -0.18209E-06  2573   0.174E-03    0.648E-04
RMM:  16    -0.413997540461E+03   -0.28651E-05   -0.10854E-06  2210   0.123E-03    0.407E-04
RMM:  17    -0.413997541967E+03   -0.15064E-05   -0.68497E-07  1971   0.104E-03    0.217E-04
RMM:  18    -0.413997543194E+03   -0.12267E-05   -0.91319E-07  2243   0.116E-03    0.157E-04
RMM:  19    -0.413997543207E+03   -0.13650E-07   -0.24549E-07  1221   0.684E-04
  147 T=   226. E= -.41288831E+03 F= -.41399754E+03 E0= -.41397635E+03  EK= 0.11092E+01 SP= 0.00E+00 SK= 0.00E+00
       N       E                     dE             d eps       ncg     rms          rms(c)
RMM:   1    -0.414022985683E+03   -0.25442E-01   -0.23608E+01  4297   0.925E+00    0.121E+00
RMM:   2    -0.413896452028E+03    0.12653E+00   -0.61926E-01  5352   0.921E-01    0.112E+00
RMM:   3    -0.413905655546E+03   -0.92035E-02   -0.12351E-01  5569   0.384E-01    0.116E+00
RMM:   4    -0.413870736969E+03    0.34919E-01   -0.42357E-02  5110   0.246E-01    0.583E-01
RMM:   5    -0.413874535229E+03   -0.37983E-02   -0.64528E-02  5073   0.298E-01    0.413E-01
RMM:   6    -0.413867836601E+03    0.66986E-02   -0.26289E-02  5001   0.201E-01    0.181E-01
RMM:   7    -0.413867089469E+03    0.74713E-03   -0.39591E-03  5517   0.834E-02    0.106E-01
RMM:   8    -0.413866909239E+03    0.18023E-03   -0.14313E-03  5396   0.450E-02    0.454E-02
RMM:   9    -0.413866947108E+03   -0.37870E-04   -0.54856E-04  5200   0.269E-02    0.214E-02
RMM:  10    -0.413866961327E+03   -0.14219E-04   -0.78555E-05  5415   0.110E-02    0.129E-02
RMM:  11    -0.413866983490E+03   -0.22163E-04   -0.33244E-05  4588   0.774E-03    0.650E-03
RMM:  12    -0.413866999776E+03   -0.16286E-04   -0.11981E-05  3558   0.460E-03    0.375E-03
RMM:  13    -0.413867010876E+03   -0.11099E-04   -0.52035E-06  2972   0.305E-03    0.186E-03
RMM:  14    -0.413867019552E+03   -0.86767E-05   -0.42873E-06  2895   0.263E-03    0.113E-03
RMM:  15    -0.413867025669E+03   -0.61163E-05   -0.39978E-06  2827   0.239E-03    0.719E-04
RMM:  16    -0.413867027245E+03   -0.15760E-05   -0.20456E-06  2384   0.155E-03    0.545E-04
RMM:  17    -0.413867026886E+03    0.35901E-06   -0.20519E-06  2627   0.167E-03
  148 T=   201. E= -.41287913E+03 F= -.41386703E+03 E0= -.41384623E+03  EK= 0.98789E+00 SP= 0.00E+00 SK= 0.00E+00
       N       E                     dE             d eps       ncg     rms          rms(c)
RMM:   1    -0.413710055153E+03    0.15697E+00   -0.18164E+01  4293   0.823E+00    0.944E-01
RMM:   2    -0.413660431891E+03    0.49623E-01   -0.53699E-01  5359   0.795E-01    0.866E-01
RMM:   3    -0.413670824014E+03   -0.10392E-01   -0.86152E-02  5505   0.314E-01    0.938E-01
RMM:   4    -0.413646286992E+03    0.24537E-01   -0.24339E-02  5008   0.191E-01    0.500E-01
RMM:   5    -0.413649468460E+03   -0.31815E-02   -0.43030E-02  5153   0.240E-01    0.342E-01
RMM:   6    -0.413644669564E+03    0.47989E-02   -0.20672E-02  5054   0.172E-01    0.154E-01
RMM:   7    -0.413644203880E+03    0.46568E-03   -0.31309E-03  5578   0.722E-02    0.975E-02
RMM:   8    -0.413644039266E+03    0.16461E-03   -0.11446E-03  5048   0.402E-02    0.386E-02
RMM:   9    -0.413644107245E+03   -0.67978E-04   -0.53321E-04  5379   0.251E-02    0.216E-02
RMM:  10    -0.413644119371E+03   -0.12126E-04   -0.58712E-05  5018   0.970E-03    0.127E-02
RMM:  11    -0.413644142085E+03   -0.22714E-04   -0.37495E-05  4570   0.781E-03    0.579E-03
RMM:  12    -0.413644155574E+03   -0.13490E-04   -0.10863E-05  3418   0.417E-03    0.340E-03
RMM:  13    -0.413644165854E+03   -0.10280E-04   -0.53088E-06  2994   0.302E-03    0.180E-03
RMM:  14    -0.413644172840E+03   -0.69863E-05   -0.48025E-06  2950   0.265E-03    0.119E-03
RMM:  15    -0.413644177309E+03   -0.44683E-05   -0.49290E-06  2891   0.259E-03    0.794E-04
RMM:  16    -0.413644177007E+03    0.30129E-06   -0.26542E-06  2477   0.173E-03
  149 T=   158. E= -.41287014E+03 F= -.41364418E+03 E0= -.41362376E+03  EK= 0.77404E+00 SP= 0.00E+00 SK= 0.00E+00
       N       E                     dE             d eps       ncg     rms          rms(c)
RMM:   1    -0.413475910855E+03    0.16827E+00   -0.12791E+01  4278   0.681E+00    0.750E-01
RMM:   2    -0.413462393840E+03    0.13517E-01   -0.44405E-01  5369   0.663E-01    0.657E-01
RMM:   3    -0.413475125107E+03   -0.12731E-01   -0.59553E-02  5505   0.259E-01    0.768E-01
RMM:   4    -0.413456845584E+03    0.18280E-01   -0.20210E-02  4987   0.175E-01    0.388E-01
RMM:   5    -0.413457451300E+03   -0.60572E-03   -0.20230E-02  5123   0.173E-01    0.211E-01
RMM:   6    -0.413456114247E+03    0.13371E-02   -0.10242E-02  5140   0.120E-01    0.110E-01
RMM:   7    -0.413455593071E+03    0.52118E-03   -0.16276E-03  5160   0.555E-02    0.597E-02
RMM:   8    -0.413455579814E+03    0.13256E-04   -0.60873E-04  5423   0.298E-02    0.306E-02
RMM:   9    -0.413455601519E+03   -0.21705E-04   -0.20227E-04  5213   0.165E-02    0.169E-02
RMM:  10    -0.413455605933E+03   -0.44137E-05   -0.46091E-05  5318   0.811E-03    0.920E-03
RMM:  11    -0.413455619060E+03   -0.13127E-04   -0.19419E-05  4260   0.544E-03    0.487E-03
RMM:  12    -0.413455628385E+03   -0.93259E-05   -0.79795E-06  3280   0.371E-03    0.269E-03
RMM:  13    -0.413455633455E+03   -0.50695E-05   -0.34018E-06  2819   0.248E-03    0.136E-03
RMM:  14    -0.413455637338E+03   -0.38835E-05   -0.30254E-06  2768   0.220E-03    0.104E-03
RMM:  15    -0.413455638320E+03   -0.98129E-06   -0.29541E-06  2673   0.201E-03
  150 T=   120. E= -.41286658E+03 F= -.41345564E+03 E0= -.41343552E+03  EK= 0.58906E+00 SP= 0.00E+00 SK= 0.00E+00
