       N       E                     dE             d eps       ncg     rms          rms(c)
RMM:   1     0.220149138910E+04    0.22015E+04   -0.52440E+04  2132   0.654E+02
RMM:   2     0.705396278625E+03   -0.14961E+04   -0.16263E+04  2132   0.177E+02
RMM:   3     0.137749050637E+03   -0.56765E+03   -0.65707E+03  2132   0.117E+02
RMM:   4    -0.159281924996E+03   -0.29703E+03   -0.27865E+03  2132   0.936E+01
RMM:   5    -0.287479366722E+03   -0.12820E+03   -0.11446E+03  2132   0.595E+01
RMM:   6    -0.349772945891E+03   -0.62294E+02   -0.55150E+02  2132   0.423E+01
RMM:   7    -0.382686767899E+03   -0.32914E+02   -0.30449E+02  2132   0.293E+01
RMM:   8    -0.404167210261E+03   -0.21480E+02   -0.18464E+02  2132   0.233E+01
RMM:   9    -0.436032716081E+03   -0.31866E+02   -0.30826E+02  6103   0.173E+01
RMM:  10    -0.441262671016E+03   -0.52300E+01   -0.62967E+01  6393   0.539E+00
RMM:  11    -0.442507343339E+03   -0.12447E+01   -0.11112E+01  6228   0.173E+00
RMM:  12    -0.442888143845E+03   -0.38080E+00   -0.28163E+00  6369   0.609E-01    0.134E+02
RMM:  13    -0.425630011296E+03    0.17258E+02   -0.81089E+01  4670   0.120E+01    0.712E+01
RMM:  14    -0.499246678817E+03   -0.73617E+02   -0.53971E+02  5420   0.232E+01    0.307E+01
RMM:  15    -0.416035273636E+03    0.83211E+02   -0.19985E+02  5084   0.163E+01    0.704E+00
RMM:  16    -0.414031613101E+03    0.20037E+01   -0.39495E+01  6086   0.611E+00    0.430E+00
RMM:  17    -0.413209611960E+03    0.82200E+00   -0.25472E+00  5399   0.189E+00    0.243E+00
RMM:  18    -0.413177285119E+03    0.32327E-01   -0.76438E-01  5993   0.898E-01    0.168E+00
RMM:  19    -0.413168683086E+03    0.86020E-02   -0.29052E-01  5692   0.577E-01    0.871E-01
RMM:  20    -0.413186522408E+03   -0.17839E-01   -0.25364E-01  5575   0.523E-01    0.589E-01
RMM:  21    -0.413167283382E+03    0.19239E-01   -0.35718E-02  4993   0.238E-01    0.261E-01
RMM:  22    -0.413165250799E+03    0.20326E-02   -0.17542E-02  5997   0.117E-01    0.135E-01
RMM:  23    -0.413164189216E+03    0.10616E-02   -0.53075E-03  5983   0.641E-02    0.830E-02
RMM:  24    -0.413163047953E+03    0.11413E-02   -0.15697E-03  5245   0.379E-02    0.464E-02
RMM:  25    -0.413162633075E+03    0.41488E-03   -0.91321E-04  5504   0.272E-02    0.335E-02
RMM:  26    -0.413162818303E+03   -0.18523E-03   -0.91567E-04  5855   0.300E-02    0.353E-02
RMM:  27    -0.413163206108E+03   -0.38780E-03   -0.19542E-04  4581   0.192E-02    0.202E-02
RMM:  28    -0.413163667033E+03   -0.46093E-03   -0.20552E-04  5287   0.194E-02    0.836E-03
RMM:  29    -0.413164056733E+03   -0.38970E-03   -0.10582E-04  4390   0.150E-02    0.440E-03
RMM:  30    -0.413164280091E+03   -0.22336E-03   -0.76892E-05  4206   0.992E-03    0.386E-03
RMM:  31    -0.413164411405E+03   -0.13131E-03   -0.54669E-05  3178   0.692E-03    0.322E-03
RMM:  32    -0.413164438848E+03   -0.27443E-04   -0.22231E-05  2968   0.307E-03    0.179E-03
RMM:  33    -0.413164452498E+03   -0.13650E-04   -0.93251E-06  2808   0.234E-03    0.551E-04
RMM:  34    -0.413164455919E+03   -0.34208E-05   -0.50093E-06  2641   0.165E-03    0.741E-04
RMM:  35    -0.413164456341E+03   -0.42220E-06   -0.24221E-06  2317   0.122E-03
    1 T=    61. E= -.41286667E+03 F= -.41316446E+03 E0= -.41314196E+03  EK= 0.29779E+00 SP= 0.00E+00 SK= 0.00E+00
       N       E                     dE             d eps       ncg     rms          rms(c)
RMM:   1    -0.413156265880E+03    0.81900E-02   -0.10765E+01  4006   0.692E-01    0.886E-01
RMM:   2    -0.413166320160E+03   -0.10054E-01   -0.13223E-01  3885   0.977E-02    0.642E-01
RMM:   3    -0.413164258366E+03    0.20618E-02   -0.76089E-03  4714   0.398E-02    0.139E-01
RMM:   4    -0.413183256378E+03   -0.18998E-01   -0.19911E-02  5211   0.117E-01    0.576E-01
RMM:   5    -0.413163945024E+03    0.19311E-01   -0.96305E-03  4858   0.966E-02    0.347E-02
RMM:   6    -0.413164068554E+03   -0.12353E-03   -0.15667E-03  5825   0.381E-02    0.219E-02
RMM:   7    -0.413164081969E+03   -0.13415E-04   -0.23350E-04  5812   0.133E-02    0.140E-02
RMM:   8    -0.413164087733E+03   -0.57631E-05   -0.33321E-05  4603   0.582E-03    0.621E-03
RMM:   9    -0.413164092297E+03   -0.45646E-05   -0.73519E-06  3152   0.298E-03    0.469E-03
RMM:  10    -0.413164097417E+03   -0.51193E-05   -0.14675E-06  2556   0.175E-03    0.309E-03
RMM:  11    -0.413164104796E+03   -0.73799E-05   -0.13704E-06  2533   0.166E-03    0.134E-03
RMM:  12    -0.413164110650E+03   -0.58531E-05   -0.10056E-06  2422   0.136E-03    0.575E-04
RMM:  13    -0.413164111172E+03   -0.52196E-06   -0.39451E-07  1859   0.885E-04
    2 T=    61. E= -.41286638E+03 F= -.41316411E+03 E0= -.41314161E+03  EK= 0.29773E+00 SP= 0.00E+00 SK= 0.00E+00
       N       E                     dE             d eps       ncg     rms          rms(c)
RMM:   1    -0.413157218864E+03    0.68918E-02   -0.10793E+01  4196   0.689E-01    0.909E-01
RMM:   2    -0.413166248474E+03   -0.90296E-02   -0.12984E-01  3931   0.966E-02    0.636E-01
RMM:   3    -0.413164833070E+03    0.14154E-02   -0.79150E-03  4831   0.389E-02    0.152E-01
RMM:   4    -0.413188912599E+03   -0.24080E-01   -0.24482E-02  5192   0.131E-01    0.647E-01
RMM:   5    -0.413164543862E+03    0.24369E-01   -0.11911E-02  4836   0.108E-01    0.386E-02
RMM:   6    -0.413164696579E+03   -0.15272E-03   -0.20135E-03  5819   0.428E-02    0.239E-02
RMM:   7    -0.413164703705E+03   -0.71265E-05   -0.27506E-04  5846   0.146E-02    0.156E-02
RMM:   8    -0.413164702360E+03    0.13447E-05   -0.43508E-05  4892   0.664E-03    0.766E-03
RMM:   9    -0.413164701363E+03    0.99780E-06   -0.90521E-06  3455   0.341E-03
    3 T=    61. E= -.41286670E+03 F= -.41316470E+03 E0= -.41314221E+03  EK= 0.29800E+00 SP= 0.00E+00 SK= 0.00E+00
       N       E                     dE             d eps       ncg     rms          rms(c)
RMM:   1    -0.413156727828E+03    0.79745E-02   -0.10707E+01  4227   0.690E-01    0.893E-01
RMM:   2    -0.413166077998E+03   -0.93502E-02   -0.12895E-01  4342   0.948E-02    0.630E-01
RMM:   3    -0.413171798539E+03   -0.57205E-02   -0.13614E-02  5194   0.859E-02    0.390E-01
RMM:   4    -0.413182762559E+03   -0.10964E-01   -0.34483E-02  5101   0.160E-01    0.567E-01
RMM:   5    -0.413164491984E+03    0.18271E-01   -0.66704E-03  4660   0.948E-02    0.544E-02
RMM:   6    -0.413164433111E+03    0.58874E-04   -0.12518E-03  5360   0.356E-02    0.229E-02
RMM:   7    -0.413164449715E+03   -0.16605E-04   -0.23841E-04  5984   0.149E-02    0.147E-02
RMM:   8    -0.413164450408E+03   -0.69265E-06   -0.43013E-05  5209   0.716E-03    0.660E-03
RMM:   9    -0.413164450322E+03    0.86147E-07   -0.97871E-06  3702   0.392E-03
    4 T=    61. E= -.41286638E+03 F= -.41316445E+03 E0= -.41314196E+03  EK= 0.29807E+00 SP= 0.00E+00 SK= 0.00E+00
       N       E                     dE             d eps       ncg     rms          rms(c)
RMM:   1    -0.413156819118E+03    0.76313E-02   -0.10758E+01  4237   0.707E-01    0.883E-01
RMM:   2    -0.413166568470E+03   -0.97494E-02   -0.13262E-01  4034   0.939E-02    0.642E-01
RMM:   3    -0.413164952995E+03    0.16155E-02   -0.76980E-03  4974   0.398E-02    0.154E-01
RMM:   4    -0.413198596645E+03   -0.33644E-01   -0.34749E-02  5168   0.155E-01    0.763E-01
RMM:   5    -0.413164385065E+03    0.34212E-01   -0.16575E-02  4822   0.128E-01    0.409E-02
RMM:   6    -0.413164581530E+03   -0.19647E-03   -0.26588E-03  5866   0.499E-02    0.232E-02
RMM:   7    -0.413164600153E+03   -0.18623E-04   -0.32749E-04  5943   0.157E-02    0.159E-02
RMM:   8    -0.413164605708E+03   -0.55547E-05   -0.56670E-05  5001   0.721E-03    0.892E-03
RMM:   9    -0.413164608491E+03   -0.27831E-05   -0.12359E-05  3835   0.392E-03    0.611E-03
RMM:  10    -0.413164613537E+03   -0.50468E-05   -0.21280E-06  2592   0.211E-03    0.387E-03
RMM:  11    -0.413164620318E+03   -0.67806E-05   -0.22050E-06  2614   0.215E-03    0.184E-03
RMM:  12    -0.413164625089E+03   -0.47709E-05   -0.12310E-06  2521   0.168E-03    0.642E-04
RMM:  13    -0.413164625762E+03   -0.67314E-06   -0.38986E-07  2130   0.103E-03
    5 T=    61. E= -.41286636E+03 F= -.41316463E+03 E0= -.41314215E+03  EK= 0.29826E+00 SP= 0.00E+00 SK= 0.00E+00
       N       E                     dE             d eps       ncg     rms          rms(c)
RMM:   1    -0.413157962753E+03    0.66623E-02   -0.10803E+01  4251   0.711E-01    0.905E-01
RMM:   2    -0.413166795325E+03   -0.88326E-02   -0.13012E-01  4035   0.980E-02    0.638E-01
RMM:   3    -0.413165364712E+03    0.14306E-02   -0.78077E-03  4765   0.418E-02    0.151E-01
RMM:   4    -0.413190422207E+03   -0.25057E-01   -0.25296E-02  5160   0.133E-01    0.661E-01
RMM:   5    -0.413164971682E+03    0.25451E-01   -0.12516E-02  4833   0.110E-01    0.381E-02
RMM:   6    -0.413165117137E+03   -0.14546E-03   -0.19495E-03  5824   0.429E-02    0.236E-02
RMM:   7    -0.413165122662E+03   -0.55249E-05   -0.27003E-04  5833   0.145E-02    0.153E-02
RMM:   8    -0.413165121028E+03    0.16340E-05   -0.43263E-05  4870   0.663E-03    0.754E-03
RMM:   9    -0.413165119761E+03    0.12669E-05   -0.92751E-06  3473   0.347E-03    0.543E-03
RMM:  10    -0.413165120309E+03   -0.54723E-06   -0.14870E-06  2552   0.188E-03
    6 T=    61. E= -.41286662E+03 F= -.41316512E+03 E0= -.41314266E+03  EK= 0.29850E+00 SP= 0.00E+00 SK= 0.00E+00
       N       E                     dE             d eps       ncg     rms          rms(c)
RMM:   1    -0.413157269233E+03    0.78505E-02   -0.10738E+01  4257   0.705E-01    0.900E-01
RMM:   2    -0.413166425844E+03   -0.91566E-02   -0.12923E-01  4193   0.982E-02    0.631E-01
RMM:   3    -0.413166709776E+03   -0.28393E-03   -0.91183E-03  5106   0.555E-02    0.232E-01
RMM:   4    -0.413203695059E+03   -0.36985E-01   -0.45814E-02  5140   0.179E-01    0.815E-01
RMM:   5    -0.413164676249E+03    0.39019E-01   -0.17560E-02  4782   0.136E-01    0.533E-02
RMM:   6    -0.413164814723E+03   -0.13847E-03   -0.28830E-03  5676   0.527E-02    0.234E-02
RMM:   7    -0.413164835768E+03   -0.21046E-04   -0.38572E-04  6027   0.162E-02    0.160E-02
RMM:   8    -0.413164835350E+03    0.41845E-06   -0.57035E-05  5217   0.752E-03    0.770E-03
RMM:   9    -0.413164832133E+03    0.32175E-05   -0.10504E-05  3429   0.357E-03    0.370E-03
RMM:  10    -0.413164832007E+03    0.12527E-06   -0.24815E-06  2598   0.214E-03
    7 T=    61. E= -.41286632E+03 F= -.41316483E+03 E0= -.41314238E+03  EK= 0.29852E+00 SP= 0.00E+00 SK= 0.00E+00
       N       E                     dE             d eps       ncg     rms          rms(c)
RMM:   1    -0.413157459363E+03    0.73728E-02   -0.10737E+01  4263   0.710E-01    0.882E-01
RMM:   2    -0.413167350641E+03   -0.98913E-02   -0.13177E-01  4147   0.955E-02    0.639E-01
RMM:   3    -0.413167121452E+03    0.22919E-03   -0.88090E-03  5104   0.544E-02    0.222E-01
RMM:   4    -0.413208895367E+03   -0.41774E-01   -0.50166E-02  5144   0.187E-01    0.859E-01
RMM:   5    -0.413165216552E+03    0.43679E-01   -0.19914E-02  4793   0.143E-01    0.520E-02
RMM:   6    -0.413165391756E+03   -0.17520E-03   -0.32132E-03  5714   0.555E-02    0.225E-02
RMM:   7    -0.413165419748E+03   -0.27993E-04   -0.41939E-04  6022   0.170E-02    0.166E-02
RMM:   8    -0.413165424679E+03   -0.49302E-05   -0.63769E-05  5227   0.771E-03    0.854E-03
RMM:   9    -0.413165426018E+03   -0.13394E-05   -0.11878E-05  3556   0.377E-03    0.422E-03
RMM:  10    -0.413165429509E+03   -0.34915E-05   -0.27300E-06  2608   0.218E-03    0.279E-03
RMM:  11    -0.413165433050E+03   -0.35403E-05   -0.12102E-06  2524   0.165E-03    0.140E-03
RMM:  12    -0.413165436040E+03   -0.29899E-05   -0.88159E-07  2455   0.136E-03    0.343E-04
RMM:  13    -0.413165437194E+03   -0.11543E-05   -0.41183E-07  1991   0.987E-04    0.255E-04
RMM:  14    -0.413165437767E+03   -0.57342E-06   -0.23698E-07  1512   0.798E-04
    8 T=    61. E= -.41286659E+03 F= -.41316544E+03 E0= -.41314301E+03  EK= 0.29884E+00 SP= 0.00E+00 SK= 0.00E+00
       N       E                     dE             d eps       ncg     rms          rms(c)
RMM:   1    -0.413157912098E+03    0.75251E-02   -0.10795E+01  4280   0.716E-01    0.899E-01
RMM:   2    -0.413167385578E+03   -0.94735E-02   -0.13107E-01  4149   0.984E-02    0.641E-01
RMM:   3    -0.413165950593E+03    0.14350E-02   -0.79061E-03  4888   0.421E-02    0.156E-01
RMM:   4    -0.413198070613E+03   -0.32120E-01   -0.33098E-02  5154   0.151E-01    0.746E-01
RMM:   5    -0.413165383495E+03    0.32687E-01   -0.15915E-02  4811   0.125E-01    0.422E-02
RMM:   6    -0.413165568003E+03   -0.18451E-03   -0.25743E-03  5778   0.488E-02    0.244E-02
RMM:   7    -0.413165579758E+03   -0.11755E-04   -0.33737E-04  5876   0.157E-02    0.164E-02
RMM:   8    -0.413165579606E+03    0.15143E-06   -0.49111E-05  4975   0.692E-03    0.818E-03
RMM:   9    -0.413165578515E+03    0.10918E-05   -0.11023E-05  3616   0.364E-03    0.562E-03
RMM:  10    -0.413165579363E+03   -0.84868E-06   -0.17828E-06  2561   0.198E-03
    9 T=    61. E= -.41286649E+03 F= -.41316558E+03 E0= -.41314317E+03  EK= 0.29909E+00 SP= 0.00E+00 SK= 0.00E+00
       N       E                     dE             d eps       ncg     rms          rms(c)
RMM:   1    -0.413158337356E+03    0.72412E-02   -0.10776E+01  4290   0.726E-01    0.908E-01
RMM:   2    -0.413167150733E+03   -0.88134E-02   -0.12945E-01  4261   0.985E-02    0.632E-01
RMM:   3    -0.413168407215E+03   -0.12565E-02   -0.99725E-03  5105   0.622E-02    0.264E-01
RMM:   4    -0.413199274498E+03   -0.30867E-01   -0.42909E-02  5119   0.174E-01    0.760E-01
RMM:   5    -0.413165562566E+03    0.33712E-01   -0.14642E-02  4750   0.126E-01    0.530E-02
RMM:   6    -0.413165662547E+03   -0.99980E-04   -0.24628E-03  5635   0.487E-02    0.234E-02
RMM:   7    -0.413165681409E+03   -0.18863E-04   -0.33939E-04  6016   0.155E-02    0.156E-02
RMM:   8    -0.413165680188E+03    0.12217E-05   -0.53518E-05  5219   0.744E-03    0.737E-03
RMM:   9    -0.413165675622E+03    0.45659E-05   -0.93403E-06  3329   0.346E-03    0.335E-03
RMM:  10    -0.413165674397E+03    0.12242E-05   -0.21651E-06  2573   0.207E-03    0.229E-03
RMM:  11    -0.413165672554E+03    0.18439E-05   -0.11425E-06  2522   0.163E-03    0.122E-03
RMM:  12    -0.413165670802E+03    0.17511E-05   -0.64949E-07  2390   0.125E-03    0.401E-04
RMM:  13    -0.413165669893E+03    0.90931E-06   -0.31546E-07  1896   0.902E-04
   10 T=    61. E= -.41286631E+03 F= -.41316567E+03 E0= -.41314328E+03  EK= 0.29936E+00 SP= 0.00E+00 SK= 0.00E+00
       N       E                     dE             d eps       ncg     rms          rms(c)
RMM:   1    -0.413158428720E+03    0.72421E-02   -0.10726E+01  4284   0.722E-01    0.883E-01
RMM:   2    -0.413168383063E+03   -0.99543E-02   -0.13100E-01  4207   0.961E-02    0.636E-01
RMM:   3    -0.413166789604E+03    0.15935E-02   -0.76112E-03  4902   0.405E-02    0.154E-01
RMM:   4    -0.413198127018E+03   -0.31337E-01   -0.32391E-02  5150   0.149E-01    0.738E-01
RMM:   5    -0.413166229591E+03    0.31897E-01   -0.15674E-02  4814   0.123E-01    0.410E-02
RMM:   6    -0.413166407962E+03   -0.17837E-03   -0.24339E-03  5797   0.478E-02    0.239E-02
RMM:   7    -0.413166418993E+03   -0.11031E-04   -0.32331E-04  5856   0.154E-02    0.160E-02
RMM:   8    -0.413166419420E+03   -0.42700E-06   -0.49412E-05  4968   0.695E-03    0.812E-03
RMM:   9    -0.413166418601E+03    0.81824E-06   -0.11065E-05  3623   0.368E-03    0.557E-03
RMM:  10    -0.413166420017E+03   -0.14159E-05   -0.17977E-06  2562   0.197E-03    0.359E-03
RMM:  11    -0.413166422109E+03   -0.20917E-05   -0.17579E-06  2572   0.197E-03    0.154E-03
RMM:  12    -0.413166423268E+03   -0.11592E-05   -0.99489E-07  2483   0.153E-03    0.601E-04
RMM:  13    -0.413166423391E+03   -0.12241E-06   -0.31544E-07  2030   0.953E-04
   11 T=    61. E= -.41286656E+03 F= -.41316642E+03 E0= -.41314406E+03  EK= 0.29986E+00 SP= 0.00E+00 SK= 0.00E+00
       N       E                     dE             d eps       ncg     rms          rms(c)
RMM:   1    -0.413158508161E+03    0.79151E-02   -0.10806E+01  4295   0.728E-01    0.895E-01
RMM:   2    -0.413168208787E+03   -0.97006E-02   -0.13230E-01  4209   0.956E-02    0.644E-01
RMM:   3    -0.413166597911E+03    0.16109E-02   -0.77821E-03  4876   0.390E-02    0.150E-01
RMM:   4    -0.413194600598E+03   -0.28003E-01   -0.28770E-02  5142   0.141E-01    0.698E-01
RMM:   5    -0.413166146097E+03    0.28455E-01   -0.14003E-02  4818   0.116E-01    0.391E-02
RMM:   6    -0.413166317894E+03   -0.17180E-03   -0.22019E-03  5811   0.451E-02    0.233E-02
RMM:   7    -0.413166328491E+03   -0.10597E-04   -0.29309E-04  5845   0.149E-02    0.156E-02
RMM:   8    -0.413166328394E+03    0.97229E-07   -0.47737E-05  4919   0.688E-03    0.802E-03
RMM:   9    -0.413166327286E+03    0.11078E-05   -0.10219E-05  3559   0.362E-03    0.562E-03
RMM:  10    -0.413166328447E+03   -0.11616E-05   -0.16569E-06  2557   0.195E-03    0.363E-03
RMM:  11    -0.413166330138E+03   -0.16901E-05   -0.18198E-06  2578   0.202E-03    0.156E-03
RMM:  12    -0.413166330908E+03   -0.77009E-06   -0.95761E-07  2477   0.151E-03
   12 T=    61. E= -.41286622E+03 F= -.41316633E+03 E0= -.41314400E+03  EK= 0.30011E+00 SP= 0.00E+00 SK= 0.00E+00
       N       E                     dE             d eps       ncg     rms          rms(c)
RMM:   1    -0.413159748418E+03    0.65817E-02   -0.10815E+01  4292   0.738E-01    0.913E-01
RMM:   2    -0.413168323516E+03   -0.85751E-02   -0.12992E-01  4221   0.931E-02    0.635E-01
RMM:   3    -0.413167138668E+03    0.11848E-02   -0.80092E-03  4910   0.373E-02    0.157E-01
RMM:   4    -0.413194727063E+03   -0.27588E-01   -0.28236E-02  5143   0.140E-01    0.692E-01
RMM:   5    -0.413166753273E+03    0.27974E-01   -0.13800E-02  4812   0.115E-01    0.400E-02
RMM:   6    -0.413166909455E+03   -0.15618E-03   -0.21508E-03  5825   0.447E-02    0.242E-02
RMM:   7    -0.413166913833E+03   -0.43779E-05   -0.28151E-04  5855   0.150E-02    0.157E-02
RMM:   8    -0.413166908491E+03    0.53417E-05   -0.50957E-05  4951   0.710E-03    0.839E-03
RMM:   9    -0.413166903254E+03    0.52368E-05   -0.10515E-05  3664   0.373E-03    0.595E-03
RMM:  10    -0.413166900533E+03    0.27218E-05   -0.16280E-06  2559   0.198E-03    0.380E-03
RMM:  11    -0.413166896487E+03    0.40451E-05   -0.18265E-06  2576   0.207E-03    0.168E-03
RMM:  12    -0.413166893021E+03    0.34665E-05   -0.96171E-07  2471   0.156E-03    0.663E-04
RMM:  13    -0.413166892671E+03    0.35009E-06   -0.31133E-07  2043   0.955E-04
   13 T=    61. E= -.41286633E+03 F= -.41316689E+03 E0= -.41314459E+03  EK= 0.30057E+00 SP= 0.00E+00 SK= 0.00E+00
       N       E                     dE             d eps       ncg     rms          rms(c)
RMM:   1    -0.413159697326E+03    0.71957E-02   -0.10729E+01  4297   0.731E-01    0.887E-01
RMM:   2    -0.413169321966E+03   -0.96246E-02   -0.13093E-01  4231   0.941E-02    0.635E-01
RMM:   3    -0.413167835613E+03    0.14864E-02   -0.76418E-03  4873   0.383E-02    0.152E-01
RMM:   4    -0.413195102582E+03   -0.27267E-01   -0.28041E-02  5141   0.139E-01    0.689E-01
RMM:   5    -0.413167386960E+03    0.27716E-01   -0.13668E-02  4811   0.114E-01    0.389E-02
RMM:   6    -0.413167546378E+03   -0.15942E-03   -0.21460E-03  5807   0.444E-02    0.234E-02
RMM:   7    -0.413167553345E+03   -0.69667E-05   -0.28140E-04  5827   0.148E-02    0.154E-02
RMM:   8    -0.413167550899E+03    0.24457E-05   -0.48757E-05  4926   0.693E-03    0.803E-03
RMM:   9    -0.413167547926E+03    0.29728E-05   -0.10434E-05  3620   0.369E-03    0.566E-03
RMM:  10    -0.413167547520E+03    0.40600E-06   -0.16234E-06  2557   0.194E-03
   14 T=    61. E= -.41286647E+03 F= -.41316755E+03 E0= -.41314528E+03  EK= 0.30108E+00 SP= 0.00E+00 SK= 0.00E+00
       N       E                     dE             d eps       ncg     rms          rms(c)
RMM:   1    -0.413160181573E+03    0.73664E-02   -0.10821E+01  4302   0.756E-01    0.891E-01
RMM:   2    -0.413169901922E+03   -0.97203E-02   -0.13345E-01  4283   0.991E-02    0.646E-01
RMM:   3    -0.413169821314E+03    0.80608E-04   -0.93139E-03  5090   0.581E-02    0.238E-01
RMM:   4    -0.413209935859E+03   -0.40115E-01   -0.50585E-02  5128   0.187E-01    0.847E-01
RMM:   5    -0.413167458826E+03    0.42477E-01   -0.19179E-02  4771   0.141E-01    0.533E-02
RMM:   6    -0.413167615299E+03   -0.15647E-03   -0.30872E-03  5691   0.544E-02    0.226E-02
RMM:   7    -0.413167640747E+03   -0.25448E-04   -0.40865E-04  6002   0.167E-02    0.162E-02
RMM:   8    -0.413167643297E+03   -0.25504E-05   -0.60799E-05  5232   0.767E-03    0.798E-03
RMM:   9    -0.413167642016E+03    0.12811E-05   -0.11765E-05  3513   0.373E-03    0.373E-03
RMM:  10    -0.413167643265E+03   -0.12485E-05   -0.27338E-06  2615   0.217E-03    0.253E-03
RMM:  11    -0.413167644346E+03   -0.10809E-05   -0.11425E-06  2511   0.162E-03    0.129E-03
RMM:  12    -0.413167644947E+03   -0.60177E-06   -0.75898E-07  2416   0.129E-03
   15 T=    61. E= -.41286618E+03 F= -.41316764E+03 E0= -.41314541E+03  EK= 0.30146E+00 SP= 0.00E+00 SK= 0.00E+00
       N       E                     dE             d eps       ncg     rms          rms(c)
RMM:   1    -0.413161366978E+03    0.62774E-02   -0.10846E+01  4300   0.744E-01    0.914E-01
RMM:   2    -0.413170346776E+03   -0.89798E-02   -0.13040E-01  4252   0.997E-02    0.638E-01
RMM:   3    -0.413169069148E+03    0.12776E-02   -0.82202E-03  4910   0.437E-02    0.164E-01
RMM:   4    -0.413203444572E+03   -0.34375E-01   -0.35716E-02  5144   0.157E-01    0.772E-01
RMM:   5    -0.413168436293E+03    0.35008E-01   -0.17108E-02  4800   0.129E-01    0.442E-02
RMM:   6    -0.413168641423E+03   -0.20513E-03   -0.28187E-03  5803   0.505E-02    0.261E-02
RMM:   7    -0.413168648466E+03   -0.70434E-05   -0.36060E-04  5850   0.165E-02    0.175E-02
RMM:   8    -0.413168642694E+03    0.57728E-05   -0.57486E-05  5021   0.751E-03    0.927E-03
RMM:   9    -0.413168636247E+03    0.64464E-05   -0.12335E-05  3786   0.393E-03    0.630E-03
RMM:  10    -0.413168632561E+03    0.36867E-05   -0.20183E-06  2575   0.211E-03    0.400E-03
RMM:  11    -0.413168627956E+03    0.46044E-05   -0.18598E-06  2567   0.209E-03    0.176E-03
RMM:  12    -0.413168623694E+03    0.42620E-05   -0.10965E-06  2492   0.167E-03    0.647E-04
RMM:  13    -0.413168623105E+03    0.58925E-06   -0.36310E-07  2161   0.105E-03
   16 T=    62. E= -.41286648E+03 F= -.41316862E+03 E0= -.41314643E+03  EK= 0.30215E+00 SP= 0.00E+00 SK= 0.00E+00
       N       E                     dE             d eps       ncg     rms          rms(c)
RMM:   1    -0.413161506271E+03    0.71174E-02   -0.10759E+01  4296   0.750E-01    0.894E-01
RMM:   2    -0.413170923975E+03   -0.94177E-02   -0.13095E-01  4266   0.993E-02    0.634E-01
RMM:   3    -0.413169323228E+03    0.16007E-02   -0.78083E-03  4861   0.436E-02    0.158E-01
RMM:   4    -0.413200787460E+03   -0.31464E-01   -0.32321E-02  5142   0.149E-01    0.738E-01
RMM:   5    -0.413168841825E+03    0.31946E-01   -0.15654E-02  4803   0.123E-01    0.417E-02
RMM:   6    -0.413169036154E+03   -0.19433E-03   -0.25881E-03  5805   0.480E-02    0.248E-02
RMM:   7    -0.413169043302E+03   -0.71480E-05   -0.32355E-04  5841   0.157E-02    0.166E-02
RMM:   8    -0.413169038869E+03    0.44326E-05   -0.54367E-05  4997   0.728E-03    0.889E-03
RMM:   9    -0.413169033805E+03    0.50639E-05   -0.11653E-05  3745   0.385E-03    0.615E-03
RMM:  10    -0.413169031456E+03    0.23495E-05   -0.18486E-06  2558   0.206E-03    0.396E-03
RMM:  11    -0.413169028102E+03    0.33535E-05   -0.20453E-06  2586   0.217E-03    0.171E-03
RMM:  12    -0.413169025310E+03    0.27919E-05   -0.99357E-07  2485   0.162E-03    0.654E-04
RMM:  13    -0.413169024997E+03    0.31339E-06   -0.32564E-07  2097   0.988E-04
   17 T=    62. E= -.41286635E+03 F= -.41316902E+03 E0= -.41314687E+03  EK= 0.30267E+00 SP= 0.00E+00 SK= 0.00E+00
       N       E                     dE             d eps       ncg     rms          rms(c)
RMM:   1    -0.413162038260E+03    0.69871E-02   -0.10834E+01  4296   0.768E-01    0.889E-01
RMM:   2    -0.413171799290E+03   -0.97610E-02   -0.13358E-01  4268   0.996E-02    0.646E-01
RMM:   3    -0.413169929848E+03    0.18694E-02   -0.78764E-03  4880   0.420E-02    0.153E-01
RMM:   4    -0.413202712814E+03   -0.32783E-01   -0.34083E-02  5143   0.153E-01    0.754E-01
RMM:   5    -0.413169302269E+03    0.33411E-01   -0.16357E-02  4800   0.126E-01    0.420E-02
RMM:   6    -0.413169502538E+03   -0.20027E-03   -0.26911E-03  5807   0.489E-02    0.243E-02
RMM:   7    -0.413169514121E+03   -0.11583E-04   -0.33587E-04  5843   0.159E-02    0.165E-02
RMM:   8    -0.413169513145E+03    0.97615E-06   -0.55050E-05  5002   0.731E-03    0.877E-03
RMM:   9    -0.413169510700E+03    0.24456E-05   -0.12178E-05  3781   0.390E-03    0.597E-03
RMM:  10    -0.413169510910E+03   -0.21072E-06   -0.19701E-06  2568   0.207E-03
   18 T=    62. E= -.41286622E+03 F= -.41316951E+03 E0= -.41314739E+03  EK= 0.30329E+00 SP= 0.00E+00 SK= 0.00E+00
       N       E                     dE             d eps       ncg     rms          rms(c)
RMM:   1    -0.413167998912E+03    0.15118E-02   -0.10922E+01  4305   0.779E-01    0.913E-01
RMM:   2    -0.413172344645E+03   -0.43457E-02   -0.13163E-01  4315   0.951E-02    0.642E-01
RMM:   3    -0.413173951113E+03   -0.16065E-02   -0.10508E-02  5114   0.647E-02    0.278E-01
RMM:   4    -0.413203959847E+03   -0.30009E-01   -0.44132E-02  5102   0.176E-01    0.755E-01
RMM:   5    -0.413170616440E+03    0.33343E-01   -0.14336E-02  4736   0.125E-01    0.526E-02
RMM:   6    -0.413170719790E+03   -0.10335E-03   -0.23942E-03  5631   0.479E-02    0.237E-02
RMM:   7    -0.413170732945E+03   -0.13155E-04   -0.33026E-04  6000   0.156E-02    0.159E-02
RMM:   8    -0.413170728686E+03    0.42587E-05   -0.54642E-05  5188   0.759E-03    0.747E-03
RMM:   9    -0.413170721721E+03    0.69651E-05   -0.97951E-06  3364   0.360E-03    0.334E-03
RMM:  10    -0.413170719054E+03    0.26668E-05   -0.21606E-06  2566   0.207E-03    0.226E-03
RMM:  11    -0.413170714991E+03    0.40629E-05   -0.11048E-06  2512   0.164E-03    0.121E-03
RMM:  12    -0.413170711510E+03    0.34811E-05   -0.59798E-07  2371   0.124E-03    0.400E-04
RMM:  13    -0.413170709729E+03    0.17810E-05   -0.29186E-07  1865   0.893E-04    0.230E-04
RMM:  14    -0.413170708062E+03    0.16674E-05   -0.18305E-07  1431   0.752E-04    0.151E-04
RMM:  15    -0.413170705002E+03    0.30603E-05   -0.19400E-07  1472   0.753E-04    0.955E-05
RMM:  16    -0.413170703495E+03    0.15068E-05   -0.11242E-07  1282   0.658E-04    0.804E-05
RMM:  17    -0.413170700683E+03    0.28118E-05   -0.12513E-07  1452   0.668E-04    0.479E-05
RMM:  18    -0.413170699345E+03    0.13385E-05   -0.62887E-08  1003   0.559E-04    0.308E-05
RMM:  19    -0.413170699072E+03    0.27309E-06   -0.29851E-08   797   0.519E-04
   19 T=    62. E= -.41286650E+03 F= -.41317070E+03 E0= -.41314862E+03  EK= 0.30420E+00 SP= 0.00E+00 SK= 0.00E+00
       N       E                     dE             d eps       ncg     rms          rms(c)
RMM:   1    -0.413163578529E+03    0.71208E-02   -0.10815E+01  4298   0.756E-01    0.903E-01
RMM:   2    -0.413172815037E+03   -0.92365E-02   -0.13114E-01  4271   0.985E-02    0.636E-01
RMM:   3    -0.413171728273E+03    0.10868E-02   -0.80919E-03  4952   0.441E-02    0.172E-01
RMM:   4    -0.413210417288E+03   -0.38689E-01   -0.40958E-02  5145   0.168E-01    0.817E-01
RMM:   5    -0.413170943078E+03    0.39474E-01   -0.19313E-02  4796   0.137E-01    0.464E-02
RMM:   6    -0.413171147561E+03   -0.20448E-03   -0.30611E-03  5787   0.532E-02    0.267E-02
RMM:   7    -0.413171152745E+03   -0.51833E-05   -0.39289E-04  5832   0.171E-02    0.179E-02
RMM:   8    -0.413171146551E+03    0.61936E-05   -0.61301E-05  5117   0.768E-03    0.924E-03
RMM:   9    -0.413171139696E+03    0.68550E-05   -0.13705E-05  3902   0.405E-03    0.597E-03
RMM:  10    -0.413171135866E+03    0.38305E-05   -0.22602E-06  2588   0.214E-03    0.381E-03
RMM:  11    -0.413171131804E+03    0.40619E-05   -0.14648E-06  2525   0.189E-03    0.177E-03
RMM:  12    -0.413171127603E+03    0.42003E-05   -0.10367E-06  2494   0.163E-03    0.544E-04
RMM:  13    -0.413171126688E+03    0.91591E-06   -0.37205E-07  2192   0.106E-03
   20 T=    62. E= -.41286625E+03 F= -.41317113E+03 E0= -.41314909E+03  EK= 0.30487E+00 SP= 0.00E+00 SK= 0.00E+00
       N       E                     dE             d eps       ncg     rms          rms(c)
RMM:   1    -0.413166211678E+03    0.49159E-02   -0.10872E+01  4300   0.794E-01    0.889E-01
RMM:   2    -0.413174479075E+03   -0.82674E-02   -0.13650E-01  4272   0.102E-01    0.647E-01
RMM:   3    -0.413172583120E+03    0.18960E-02   -0.78863E-03  4929   0.417E-02    0.157E-01
RMM:   4    -0.413206381688E+03   -0.33799E-01   -0.35209E-02  5145   0.156E-01    0.765E-01
RMM:   5    -0.413171967725E+03    0.34414E-01   -0.16954E-02  4799   0.128E-01    0.424E-02
RMM:   6    -0.413172165945E+03   -0.19822E-03   -0.27452E-03  5810   0.496E-02    0.247E-02
RMM:   7    -0.413172177857E+03   -0.11912E-04   -0.33739E-04  5855   0.161E-02    0.164E-02
RMM:   8    -0.413172176288E+03    0.15682E-05   -0.59470E-05  5050   0.751E-03    0.916E-03
RMM:   9    -0.413172172143E+03    0.41457E-05   -0.13197E-05  3931   0.405E-03    0.617E-03
RMM:  10    -0.413172171263E+03    0.88028E-06   -0.21048E-06  2582   0.211E-03
   21 T=    62. E= -.41286641E+03 F= -.41317217E+03 E0= -.41315018E+03  EK= 0.30576E+00 SP= 0.00E+00 SK= 0.00E+00
       N       E                     dE             d eps       ncg     rms          rms(c)
RMM:   1    -0.413165866671E+03    0.63055E-02   -0.10917E+01  4301   0.768E-01    0.910E-01
RMM:   2    -0.413175176830E+03   -0.93102E-02   -0.13331E-01  4326   0.997E-02    0.647E-01
RMM:   3    -0.413176513437E+03   -0.13366E-02   -0.10579E-02  5099   0.663E-02    0.281E-01
RMM:   4    -0.413207722192E+03   -0.31209E-01   -0.45725E-02  5105   0.179E-01    0.768E-01
RMM:   5    -0.413173129311E+03    0.34593E-01   -0.14908E-02  4733   0.127E-01    0.529E-02
RMM:   6    -0.413173237713E+03   -0.10840E-03   -0.24972E-03  5648   0.487E-02    0.237E-02
RMM:   7    -0.413173250665E+03   -0.12952E-04   -0.33972E-04  6004   0.159E-02    0.161E-02
RMM:   8    -0.413173246348E+03    0.43171E-05   -0.56486E-05  5185   0.769E-03    0.763E-03
RMM:   9    -0.413173239123E+03    0.72247E-05   -0.10331E-05  3418   0.368E-03    0.340E-03
RMM:  10    -0.413173236456E+03    0.26672E-05   -0.22389E-06  2574   0.210E-03    0.230E-03
RMM:  11    -0.413173232433E+03    0.40221E-05   -0.11012E-06  2511   0.164E-03    0.122E-03
RMM:  12    -0.413173228867E+03    0.35662E-05   -0.60026E-07  2372   0.125E-03    0.380E-04
RMM:  13    -0.413173227014E+03    0.18533E-05   -0.29035E-07  1856   0.894E-04    0.219E-04
RMM:  14    -0.413173224715E+03    0.22987E-05   -0.19802E-07  1460   0.770E-04    0.124E-04
RMM:  15    -0.413173222098E+03    0.26169E-05   -0.16059E-07  1407   0.725E-04    0.891E-05
RMM:  16    -0.413173220544E+03    0.15544E-05   -0.10526E-07  1240   0.654E-04    0.749E-05
RMM:  17    -0.413173217704E+03    0.28402E-05   -0.11084E-07  1369   0.658E-04    0.472E-05
RMM:  18    -0.413173216473E+03    0.12307E-05   -0.57362E-08  1000   0.568E-04    0.283E-05
RMM:  19    -0.413173216059E+03    0.41432E-06   -0.29104E-08   820   0.533E-04
   22 T=    62. E= -.41286648E+03 F= -.41317322E+03 E0= -.41315127E+03  EK= 0.30673E+00 SP= 0.00E+00 SK= 0.00E+00
       N       E                     dE             d eps       ncg     rms          rms(c)
RMM:   1    -0.413167254032E+03    0.59624E-02   -0.10900E+01  4295   0.784E-01    0.912E-01
RMM:   2    -0.413175700848E+03   -0.84468E-02   -0.13382E-01  4277   0.106E-01    0.639E-01
RMM:   3    -0.413174370973E+03    0.13299E-02   -0.82748E-03  4878   0.466E-02    0.170E-01
RMM:   4    -0.413210773778E+03   -0.36403E-01   -0.38014E-02  5145   0.162E-01    0.793E-01
RMM:   5    -0.413173713349E+03    0.37060E-01   -0.18163E-02  4791   0.132E-01    0.456E-02
RMM:   6    -0.413173924453E+03   -0.21110E-03   -0.30299E-03  5791   0.518E-02    0.272E-02
RMM:   7    -0.413173929420E+03   -0.49669E-05   -0.37594E-04  5782   0.170E-02    0.180E-02
RMM:   8    -0.413173922092E+03    0.73276E-05   -0.62762E-05  5085   0.784E-03    0.969E-03
RMM:   9    -0.413173913849E+03    0.82437E-05   -0.13744E-05  3967   0.414E-03    0.651E-03
RMM:  10    -0.413173908840E+03    0.50090E-05   -0.21940E-06  2587   0.216E-03    0.417E-03
RMM:  11    -0.413173902930E+03    0.59099E-05   -0.17079E-06  2537   0.205E-03    0.192E-03
RMM:  12    -0.413173897187E+03    0.57425E-05   -0.10903E-06  2485   0.171E-03    0.616E-04
RMM:  13    -0.413173896167E+03    0.10200E-05   -0.38240E-07  2218   0.109E-03    0.440E-04
RMM:  14    -0.413173895660E+03    0.50728E-06   -0.18050E-07  1686   0.778E-04
   23 T=    63. E= -.41286622E+03 F= -.41317390E+03 E0= -.41315200E+03  EK= 0.30767E+00 SP= 0.00E+00 SK= 0.00E+00
       N       E                     dE             d eps       ncg     rms          rms(c)
RMM:   1    -0.413169186885E+03    0.47093E-02   -0.10906E+01  4293   0.800E-01    0.893E-01
RMM:   2    -0.413177861826E+03   -0.86749E-02   -0.13492E-01  4278   0.105E-01    0.646E-01
RMM:   3    -0.413175748084E+03    0.21137E-02   -0.79523E-03  4776   0.449E-02    0.152E-01
RMM:   4    -0.413204042000E+03   -0.28294E-01   -0.29018E-02  5145   0.142E-01    0.701E-01
RMM:   5    -0.413175312358E+03    0.28730E-01   -0.14258E-02  4804   0.116E-01    0.401E-02
RMM:   6    -0.413175469934E+03   -0.15758E-03   -0.22924E-03  5823   0.452E-02    0.245E-02
RMM:   7    -0.413175475807E+03   -0.58731E-05   -0.29313E-04  5787   0.153E-02    0.158E-02
RMM:   8    -0.413175472204E+03    0.36031E-05   -0.52364E-05  4981   0.727E-03    0.846E-03
RMM:   9    -0.413175467440E+03    0.47648E-05   -0.11366E-05  3764   0.385E-03    0.587E-03
RMM:  10    -0.413175465561E+03    0.18783E-05   -0.16943E-06  2554   0.199E-03    0.384E-03
RMM:  11    -0.413175462606E+03    0.29547E-05   -0.18433E-06  2560   0.211E-03    0.162E-03
RMM:  12    -0.413175460254E+03    0.23522E-05   -0.89199E-07  2462   0.155E-03    0.648E-04
RMM:  13    -0.413175459980E+03    0.27428E-06   -0.29932E-07  2053   0.951E-04
   24 T=    63. E= -.41286649E+03 F= -.41317546E+03 E0= -.41315361E+03  EK= 0.30897E+00 SP= 0.00E+00 SK= 0.00E+00
       N       E                     dE             d eps       ncg     rms          rms(c)
RMM:   1    -0.413169078707E+03    0.63815E-02   -0.10985E+01  4298   0.798E-01    0.908E-01
RMM:   2    -0.413178779710E+03   -0.97010E-02   -0.13519E-01  4281   0.105E-01    0.652E-01
RMM:   3    -0.413176749818E+03    0.20299E-02   -0.80762E-03  4755   0.430E-02    0.150E-01
RMM:   4    -0.413200732705E+03   -0.23983E-01   -0.24506E-02  5148   0.130E-01    0.647E-01
RMM:   5    -0.413176353071E+03    0.24380E-01   -0.12060E-02  4809   0.107E-01    0.382E-02
RMM:   6    -0.413176485768E+03   -0.13270E-03   -0.19514E-03  5832   0.412E-02    0.229E-02
RMM:   7    -0.413176488652E+03   -0.28839E-05   -0.21186E-04  5747   0.135E-02    0.122E-02
RMM:   8    -0.413176485593E+03    0.30589E-05   -0.44003E-05  4916   0.651E-03    0.821E-03
RMM:   9    -0.413176480358E+03    0.52351E-05   -0.11169E-05  3860   0.374E-03    0.604E-03
RMM:  10    -0.413176477913E+03    0.24449E-05   -0.15774E-06  2546   0.206E-03    0.394E-03
RMM:  11    -0.413176473964E+03    0.39491E-05   -0.18771E-06  2560   0.211E-03    0.186E-03
RMM:  12    -0.413176469659E+03    0.43049E-05   -0.96214E-07  2466   0.163E-03    0.674E-04
RMM:  13    -0.413176469096E+03    0.56334E-06   -0.30954E-07  2091   0.984E-04
   25 T=    63. E= -.41286632E+03 F= -.41317647E+03 E0= -.41315467E+03  EK= 0.31015E+00 SP= 0.00E+00 SK= 0.00E+00
       N       E                     dE             d eps       ncg     rms          rms(c)
RMM:   1    -0.413177711154E+03   -0.12415E-02   -0.11070E+01  4297   0.844E-01    0.922E-01
RMM:   2    -0.413179409299E+03   -0.16981E-02   -0.13895E-01  4273   0.108E-01    0.645E-01
RMM:   3    -0.413177958386E+03    0.14509E-02   -0.81995E-03  4746   0.427E-02    0.161E-01
RMM:   4    -0.413200684973E+03   -0.22727E-01   -0.23145E-02  5159   0.128E-01    0.629E-01
RMM:   5    -0.413177668600E+03    0.23016E-01   -0.11435E-02  4812   0.104E-01    0.389E-02
RMM:   6    -0.413177785634E+03   -0.11703E-03   -0.18430E-03  5828   0.402E-02    0.235E-02
RMM:   7    -0.413177781481E+03    0.41528E-05   -0.20561E-04  5757   0.135E-02    0.125E-02
RMM:   8    -0.413177775245E+03    0.62358E-05   -0.45993E-05  4937   0.675E-03    0.835E-03
RMM:   9    -0.413177767773E+03    0.74723E-05   -0.10433E-05  3819   0.373E-03    0.607E-03
RMM:  10    -0.413177762825E+03    0.49482E-05   -0.14057E-06  2535   0.201E-03    0.392E-03
RMM:  11    -0.413177755107E+03    0.77172E-05   -0.16994E-06  2543   0.205E-03    0.185E-03
RMM:  12    -0.413177747150E+03    0.79569E-05   -0.90506E-07  2464   0.159E-03    0.619E-04
RMM:  13    -0.413177746096E+03    0.10546E-05   -0.30787E-07  2058   0.971E-04    0.442E-04
RMM:  14    -0.413177745125E+03    0.97081E-06   -0.14453E-07  1461   0.724E-04
   26 T=    63. E= -.41286624E+03 F= -.41317775E+03 E0= -.41315600E+03  EK= 0.31150E+00 SP= 0.00E+00 SK= 0.00E+00
       N       E                     dE             d eps       ncg     rms          rms(c)
RMM:   1    -0.413171767004E+03    0.59791E-02   -0.10958E+01  4293   0.794E-01    0.898E-01
RMM:   2    -0.413181520115E+03   -0.97531E-02   -0.13537E-01  4279   0.103E-01    0.647E-01
RMM:   3    -0.413179827028E+03    0.16931E-02   -0.80542E-03  4764   0.438E-02    0.152E-01
RMM:   4    -0.413204961817E+03   -0.25135E-01   -0.25660E-02  5152   0.134E-01    0.661E-01
RMM:   5    -0.413179454807E+03    0.25507E-01   -0.12719E-02  4814   0.110E-01    0.392E-02
RMM:   6    -0.413179589457E+03   -0.13465E-03   -0.20430E-03  5824   0.426E-02    0.243E-02
RMM:   7    -0.413179591282E+03   -0.18244E-05   -0.25913E-04  5781   0.147E-02    0.150E-02
RMM:   8    -0.413179586107E+03    0.51744E-05   -0.52244E-05  4953   0.728E-03    0.836E-03
RMM:   9    -0.413179580080E+03    0.60272E-05   -0.11129E-05  3807   0.388E-03    0.585E-03
RMM:  10    -0.413179576897E+03    0.31834E-05   -0.15224E-06  2541   0.198E-03    0.380E-03
RMM:  11    -0.413179572261E+03    0.46360E-05   -0.16544E-06  2539   0.203E-03    0.167E-03
RMM:  12    -0.413179568217E+03    0.40435E-05   -0.87577E-07  2450   0.154E-03    0.635E-04
RMM:  13    -0.413179567708E+03    0.50949E-06   -0.29595E-07  2038   0.949E-04
   27 T=    64. E= -.41286644E+03 F= -.41317957E+03 E0= -.41315787E+03  EK= 0.31313E+00 SP= 0.00E+00 SK= 0.00E+00
       N       E                     dE             d eps       ncg     rms          rms(c)
RMM:   1    -0.413176369438E+03    0.31988E-02   -0.11109E+01  4292   0.847E-01    0.907E-01
RMM:   2    -0.413182898884E+03   -0.65294E-02   -0.14146E-01  4272   0.110E-01    0.658E-01
RMM:   3    -0.413180877152E+03    0.20217E-02   -0.81930E-03  4644   0.436E-02    0.149E-01
RMM:   4    -0.413197941551E+03   -0.17064E-01   -0.17445E-02  5146   0.111E-01    0.547E-01
RMM:   5    -0.413180665620E+03    0.17276E-01   -0.86400E-03  4815   0.901E-02    0.349E-02
RMM:   6    -0.413180736063E+03   -0.70443E-04   -0.13818E-03  5839   0.344E-02    0.211E-02
RMM:   7    -0.413180737695E+03   -0.16318E-05   -0.15883E-04  5667   0.119E-02    0.106E-02
RMM:   8    -0.413180730455E+03    0.72400E-05   -0.32252E-05  4734   0.579E-03    0.676E-03
RMM:   9    -0.413180729108E+03    0.13475E-05   -0.89419E-06  3659   0.346E-03    0.553E-03
RMM:  10    -0.413180726110E+03    0.29973E-05   -0.11136E-06  2519   0.187E-03    0.348E-03
RMM:  11    -0.413180722389E+03    0.37209E-05   -0.12938E-06  2515   0.181E-03    0.171E-03
RMM:  12    -0.413180718561E+03    0.38286E-05   -0.75213E-07  2405   0.141E-03    0.496E-04
RMM:  13    -0.413180717662E+03    0.89886E-06   -0.24903E-07  1898   0.877E-04
   28 T=    64. E= -.41286612E+03 F= -.41318072E+03 E0= -.41315907E+03  EK= 0.31460E+00 SP= 0.00E+00 SK= 0.00E+00
       N       E                     dE             d eps       ncg     rms          rms(c)
RMM:   1    -0.413177795887E+03    0.29227E-02   -0.11146E+01  4295   0.841E-01    0.930E-01
RMM:   2    -0.413184536764E+03   -0.67409E-02   -0.14015E-01  4272   0.110E-01    0.651E-01
RMM:   3    -0.413182845443E+03    0.16913E-02   -0.85327E-03  4495   0.453E-02    0.155E-01
RMM:   4    -0.413193625998E+03   -0.10781E-01   -0.11130E-02  5160   0.889E-02    0.436E-01
RMM:   5    -0.413182793299E+03    0.10833E-01   -0.54423E-03  4825   0.714E-02    0.339E-02
RMM:   6    -0.413182824496E+03   -0.31197E-04   -0.91097E-04  5856   0.278E-02    0.207E-02
RMM:   7    -0.413182822620E+03    0.18756E-05   -0.15952E-04  5530   0.123E-02    0.130E-02
RMM:   8    -0.413182807706E+03    0.14914E-04   -0.26837E-05  4579   0.589E-03    0.572E-03
RMM:   9    -0.413182803527E+03    0.41794E-05   -0.52953E-06  3036   0.290E-03    0.458E-03
RMM:  10    -0.413182798024E+03    0.55032E-05   -0.97594E-07  2498   0.178E-03    0.272E-03
RMM:  11    -0.413182791157E+03    0.68666E-05   -0.73580E-07  2466   0.146E-03    0.135E-03
RMM:  12    -0.413182783594E+03    0.75631E-05   -0.49307E-07  2284   0.117E-03    0.446E-04
RMM:  13    -0.413182781698E+03    0.18963E-05   -0.19740E-07  1718   0.800E-04    0.242E-04
RMM:  14    -0.413182779845E+03    0.18525E-05   -0.10521E-07  1232   0.666E-04    0.178E-04
RMM:  15    -0.413182773517E+03    0.63279E-05   -0.12477E-07  1421   0.713E-04    0.153E-04
RMM:  16    -0.413182773169E+03    0.34797E-06   -0.44028E-08   880   0.583E-04
   29 T=    64. E= -.41286636E+03 F= -.41318277E+03 E0= -.41316118E+03  EK= 0.31641E+00 SP= 0.00E+00 SK= 0.00E+00
       N       E                     dE             d eps       ncg     rms          rms(c)
RMM:   1    -0.413176855058E+03    0.59185E-02   -0.11070E+01  4293   0.820E-01    0.908E-01
RMM:   2    -0.413186802258E+03   -0.99472E-02   -0.13792E-01  4269   0.111E-01    0.650E-01
RMM:   3    -0.413184718497E+03    0.20838E-02   -0.82817E-03  4505   0.459E-02    0.147E-01
RMM:   4    -0.413195678450E+03   -0.10960E-01   -0.11348E-02  5161   0.903E-02    0.440E-01
RMM:   5    -0.413184631977E+03    0.11046E-01   -0.55523E-03  4826   0.721E-02    0.333E-02
RMM:   6    -0.413184668586E+03   -0.36609E-04   -0.90318E-04  5841   0.280E-02    0.212E-02
RMM:   7    -0.413184669843E+03   -0.12567E-05   -0.17169E-04  5524   0.127E-02    0.132E-02
RMM:   8    -0.413184656293E+03    0.13549E-04   -0.25978E-05  4552   0.588E-03    0.561E-03
RMM:   9    -0.413184653652E+03    0.26417E-05   -0.50950E-06  3019   0.285E-03    0.440E-03
RMM:  10    -0.413184649948E+03    0.37042E-05   -0.97611E-07  2495   0.176E-03    0.265E-03
RMM:  11    -0.413184645483E+03    0.44650E-05   -0.70121E-07  2466   0.142E-03    0.131E-03
RMM:  12    -0.413184641078E+03    0.44049E-05   -0.47610E-07  2269   0.114E-03    0.531E-04
RMM:  13    -0.413184639508E+03    0.15696E-05   -0.18739E-07  1690   0.794E-04    0.251E-04
RMM:  14    -0.413184638094E+03    0.14142E-05   -0.96764E-08  1186   0.657E-04    0.159E-04
RMM:  15    -0.413184634195E+03    0.38984E-05   -0.99689E-08  1253   0.678E-04    0.122E-04
RMM:  16    -0.413184633758E+03    0.43702E-06   -0.38647E-08   856   0.587E-04
   30 T=    65. E= -.41286633E+03 F= -.41318463E+03 E0= -.41316309E+03  EK= 0.31831E+00 SP= 0.00E+00 SK= 0.00E+00
       N       E                     dE             d eps       ncg     rms          rms(c)
RMM:   1    -0.413193154063E+03   -0.85199E-02   -0.11343E+01  4291   0.933E-01    0.908E-01
RMM:   2    -0.413189202752E+03    0.39513E-02   -0.16245E-01  4280   0.128E-01    0.666E-01
RMM:   3    -0.413186257338E+03    0.29454E-02   -0.78519E-03  4198   0.446E-02    0.169E-01
RMM:   4    -0.413186833479E+03   -0.57614E-03   -0.18918E-03  5012   0.337E-02    0.102E-01
RMM:   5    -0.413186272471E+03    0.56101E-03   -0.30556E-04  4732   0.179E-02    0.294E-02
RMM:   6    -0.413186267754E+03    0.47173E-05   -0.13946E-04  5433   0.122E-02    0.211E-02
RMM:   7    -0.413186256151E+03    0.11603E-04   -0.10949E-04  4824   0.980E-03    0.968E-03
RMM:   8    -0.413186252769E+03    0.33822E-05   -0.67264E-06  3218   0.361E-03    0.407E-03
RMM:   9    -0.413186252082E+03    0.68665E-06   -0.12291E-06  2440   0.166E-03
   31 T=    65. E= -.41286598E+03 F= -.41318625E+03 E0= -.41316475E+03  EK= 0.32027E+00 SP= 0.00E+00 SK= 0.00E+00
       N       E                     dE             d eps       ncg     rms          rms(c)
RMM:   1    -0.413181805114E+03    0.44477E-02   -0.11272E+01  4293   0.852E-01    0.936E-01
RMM:   2    -0.413190964867E+03   -0.91598E-02   -0.14110E-01  4286   0.124E-01    0.659E-01
RMM:   3    -0.413188984378E+03    0.19805E-02   -0.89095E-03  4534   0.524E-02    0.154E-01
RMM:   4    -0.413201817188E+03   -0.12833E-01   -0.13062E-02  5168   0.978E-02    0.477E-01
RMM:   5    -0.413188947124E+03    0.12870E-01   -0.65516E-03  4814   0.792E-02    0.365E-02
RMM:   6    -0.413188926578E+03    0.20546E-04   -0.10548E-03  5794   0.324E-02    0.249E-02
RMM:   7    -0.413188922147E+03    0.44312E-05   -0.20738E-04  5539   0.139E-02    0.137E-02
RMM:   8    -0.413188909644E+03    0.12503E-04   -0.31526E-05  4788   0.631E-03    0.621E-03
RMM:   9    -0.413188905828E+03    0.38160E-05   -0.53804E-06  3066   0.297E-03    0.416E-03
RMM:  10    -0.413188899541E+03    0.62864E-05   -0.10469E-06  2508   0.178E-03    0.236E-03
RMM:  11    -0.413188892337E+03    0.72048E-05   -0.79595E-07  2488   0.144E-03    0.115E-03
RMM:  12    -0.413188885479E+03    0.68576E-05   -0.52213E-07  2291   0.117E-03    0.542E-04
RMM:  13    -0.413188882562E+03    0.29173E-05   -0.22127E-07  1730   0.829E-04    0.297E-04
RMM:  14    -0.413188880227E+03    0.23343E-05   -0.11713E-07  1209   0.678E-04    0.185E-04
RMM:  15    -0.413188875127E+03    0.50999E-05   -0.10474E-07  1263   0.686E-04    0.940E-05
RMM:  16    -0.413188872457E+03    0.26705E-05   -0.68098E-08  1108   0.626E-04    0.965E-05
RMM:  17    -0.413188869959E+03    0.24980E-05   -0.50756E-08  1055   0.596E-04    0.750E-05
RMM:  18    -0.413188866508E+03    0.34510E-05   -0.53438E-08  1148   0.597E-04    0.458E-05
RMM:  19    -0.413188865969E+03    0.53872E-06   -0.21157E-08   746   0.518E-04
   32 T=    66. E= -.41286628E+03 F= -.41318887E+03 E0= -.41316742E+03  EK= 0.32259E+00 SP= 0.00E+00 SK= 0.00E+00
       N       E                     dE             d eps       ncg     rms          rms(c)
RMM:   1    -0.413183519256E+03    0.53473E-02   -0.11238E+01  4285   0.865E-01    0.923E-01
RMM:   2    -0.413193076222E+03   -0.95570E-02   -0.14254E-01  4272   0.127E-01    0.656E-01
RMM:   3    -0.413190810874E+03    0.22653E-02   -0.85114E-03  4351   0.451E-02    0.151E-01
RMM:   4    -0.413193537094E+03   -0.27262E-02   -0.34704E-03  5137   0.510E-02    0.220E-01
RMM:   5    -0.413190864781E+03    0.26723E-02   -0.13383E-03  4807   0.366E-02    0.317E-02
RMM:   6    -0.413190854410E+03    0.10371E-04   -0.30551E-04  5655   0.181E-02    0.231E-02
RMM:   7    -0.413190839788E+03    0.14622E-04   -0.13862E-04  5065   0.113E-02    0.108E-02
RMM:   8    -0.413190833109E+03    0.66791E-05   -0.11923E-05  3910   0.442E-03    0.499E-03
RMM:   9    -0.413190831110E+03    0.19989E-05   -0.16368E-06  2521   0.190E-03    0.267E-03
RMM:  10    -0.413190824699E+03    0.64111E-05   -0.84120E-07  2463   0.148E-03    0.126E-03
RMM:  11    -0.413190820154E+03    0.45453E-05   -0.39818E-07  2186   0.104E-03    0.649E-04
RMM:  12    -0.413190815827E+03    0.43269E-05   -0.23214E-07  1750   0.844E-04    0.262E-04
RMM:  13    -0.413190813043E+03    0.27838E-05   -0.12043E-07  1191   0.684E-04    0.154E-04
RMM:  14    -0.413190809641E+03    0.34016E-05   -0.87617E-08  1112   0.647E-04    0.116E-04
RMM:  15    -0.413190805233E+03    0.44086E-05   -0.87482E-08  1241   0.650E-04    0.607E-05
RMM:  16    -0.413190803766E+03    0.14669E-05   -0.46986E-08   956   0.570E-04    0.518E-05
RMM:  17    -0.413190801196E+03    0.25697E-05   -0.43505E-08   972   0.565E-04    0.249E-05
RMM:  18    -0.413190800085E+03    0.11110E-05   -0.25124E-08   769   0.526E-04    0.149E-05
RMM:  19    -0.413190799813E+03    0.27253E-06   -0.12580E-08   624   0.504E-04
   33 T=    66. E= -.41286604E+03 F= -.41319080E+03 E0= -.41316940E+03  EK= 0.32476E+00 SP= 0.00E+00 SK= 0.00E+00
       N       E                     dE             d eps       ncg     rms          rms(c)
RMM:   1    -0.413200838121E+03   -0.10038E-01   -0.11493E+01  4296   0.976E-01    0.914E-01
RMM:   2    -0.413195611920E+03    0.52262E-02   -0.16423E-01  4272   0.138E-01    0.671E-01
RMM:   3    -0.413193363843E+03    0.22481E-02   -0.81302E-03  4359   0.531E-02    0.169E-01
RMM:   4    -0.413197228183E+03   -0.38643E-02   -0.48184E-03  5132   0.615E-02    0.262E-01
RMM:   5    -0.413193414558E+03    0.38136E-02   -0.18598E-03  4801   0.432E-02    0.315E-02
RMM:   6    -0.413193403525E+03    0.11033E-04   -0.36067E-04  5713   0.195E-02    0.224E-02
RMM:   7    -0.413193397943E+03    0.55826E-05   -0.14448E-04  5154   0.114E-02    0.106E-02
RMM:   8    -0.413193390550E+03    0.73926E-05   -0.12274E-05  3907   0.453E-03    0.475E-03
RMM:   9    -0.413193389340E+03    0.12105E-05   -0.18432E-06  2590   0.202E-03    0.272E-03
RMM:  10    -0.413193386183E+03    0.31569E-05   -0.89839E-07  2462   0.152E-03    0.137E-03
RMM:  11    -0.413193383041E+03    0.31416E-05   -0.50874E-07  2253   0.114E-03    0.621E-04
RMM:  12    -0.413193380729E+03    0.23120E-05   -0.25481E-07  1749   0.843E-04    0.285E-04
RMM:  13    -0.413193379222E+03    0.15068E-05   -0.13374E-07  1170   0.679E-04    0.157E-04
RMM:  14    -0.413193377416E+03    0.18058E-05   -0.10087E-07  1105   0.651E-04    0.110E-04
RMM:  15    -0.413193374698E+03    0.27184E-05   -0.97068E-08  1172   0.653E-04    0.618E-05
RMM:  16    -0.413193373911E+03    0.78746E-06   -0.46839E-08   899   0.580E-04
   34 T=    67. E= -.41286613E+03 F= -.41319337E+03 E0= -.41317202E+03  EK= 0.32725E+00 SP= 0.00E+00 SK= 0.00E+00
       N       E                     dE             d eps       ncg     rms          rms(c)
RMM:   1    -0.413191119830E+03    0.22549E-02   -0.11464E+01  4300   0.916E-01    0.940E-01
RMM:   2    -0.413198463535E+03   -0.73437E-02   -0.14696E-01  4268   0.132E-01    0.669E-01
RMM:   3    -0.413196154616E+03    0.23089E-02   -0.88029E-03  4349   0.494E-02    0.152E-01
RMM:   4    -0.413198191726E+03   -0.20371E-02   -0.29173E-03  5150   0.453E-02    0.192E-01
RMM:   5    -0.413196179481E+03    0.20122E-02   -0.10199E-03  4806   0.321E-02    0.325E-02
RMM:   6    -0.413196169099E+03    0.10382E-04   -0.26544E-04  5608   0.167E-02    0.240E-02
RMM:   7    -0.413196152590E+03    0.16509E-04   -0.14453E-04  4985   0.112E-02    0.117E-02
RMM:   8    -0.413196147312E+03    0.52782E-05   -0.97985E-06  3422   0.388E-03    0.470E-03
RMM:   9    -0.413196145187E+03    0.21249E-05   -0.16364E-06  2498   0.184E-03    0.252E-03
RMM:  10    -0.413196137518E+03    0.76686E-05   -0.86351E-07  2452   0.150E-03    0.120E-03
RMM:  11    -0.413196134233E+03    0.32850E-05   -0.32818E-07  2051   0.968E-04    0.709E-04
RMM:  12    -0.413196129048E+03    0.51851E-05   -0.23119E-07  1671   0.832E-04    0.229E-04
RMM:  13    -0.413196125446E+03    0.36024E-05   -0.11749E-07  1184   0.680E-04    0.134E-04
RMM:  14    -0.413196121262E+03    0.41841E-05   -0.93268E-08  1166   0.655E-04    0.110E-04
RMM:  15    -0.413196116226E+03    0.50358E-05   -0.87237E-08  1286   0.648E-04    0.688E-05
RMM:  16    -0.413196114081E+03    0.21448E-05   -0.45199E-08   943   0.564E-04    0.496E-05
RMM:  17    -0.413196112227E+03    0.18546E-05   -0.32300E-08   864   0.545E-04    0.247E-05
RMM:  18    -0.413196111451E+03    0.77533E-06   -0.19349E-08   699   0.517E-04
   35 T=    67. E= -.41286632E+03 F= -.41319611E+03 E0= -.41317480E+03  EK= 0.32979E+00 SP= 0.00E+00 SK= 0.00E+00
       N       E                     dE             d eps       ncg     rms          rms(c)
RMM:   1    -0.413198947624E+03   -0.28354E-02   -0.11518E+01  4297   0.989E-01    0.939E-01
RMM:   2    -0.413200288112E+03   -0.13405E-02   -0.15307E-01  4253   0.133E-01    0.664E-01
RMM:   3    -0.413198356783E+03    0.19313E-02   -0.88648E-03  4668   0.529E-02    0.174E-01
RMM:   4    -0.413222843665E+03   -0.24487E-01   -0.24682E-02  5171   0.132E-01    0.654E-01
RMM:   5    -0.413198171060E+03    0.24673E-01   -0.12486E-02  4808   0.109E-01    0.420E-02
RMM:   6    -0.413198195207E+03   -0.24147E-04   -0.20338E-03  5848   0.426E-02    0.261E-02
RMM:   7    -0.413198202653E+03   -0.74456E-05   -0.27022E-04  5711   0.152E-02    0.152E-02
RMM:   8    -0.413198190248E+03    0.12405E-04   -0.52460E-05  4974   0.753E-03    0.852E-03
RMM:   9    -0.413198186037E+03    0.42110E-05   -0.12921E-05  4089   0.425E-03    0.596E-03
RMM:  10    -0.413198179641E+03    0.63959E-05   -0.17563E-06  2563   0.216E-03    0.357E-03
RMM:  11    -0.413198174538E+03    0.51035E-05   -0.10464E-06  2491   0.166E-03    0.207E-03
RMM:  12    -0.413198164621E+03    0.99162E-05   -0.11755E-06  2494   0.177E-03    0.915E-04
RMM:  13    -0.413198160988E+03    0.36331E-05   -0.41234E-07  2242   0.115E-03    0.556E-04
RMM:  14    -0.413198160470E+03    0.51867E-06   -0.17871E-07  1643   0.778E-04
   36 T=    68. E= -.41286603E+03 F= -.41319816E+03 E0= -.41317690E+03  EK= 0.33213E+00 SP= 0.00E+00 SK= 0.00E+00
       N       E                     dE             d eps       ncg     rms          rms(c)
RMM:   1    -0.413198978237E+03   -0.81725E-03   -0.11551E+01  4305   0.101E+00    0.923E-01
RMM:   2    -0.413204141353E+03   -0.51631E-02   -0.15727E-01  4251   0.138E-01    0.675E-01
RMM:   3    -0.413201423263E+03    0.27181E-02   -0.86417E-03  4610   0.531E-02    0.165E-01
RMM:   4    -0.413220412967E+03   -0.18990E-01   -0.19328E-02  5162   0.117E-01    0.578E-01
RMM:   5    -0.413201277752E+03    0.19135E-01   -0.96922E-03  4807   0.960E-02    0.394E-02
RMM:   6    -0.413201279593E+03   -0.18416E-05   -0.15705E-03  5834   0.379E-02    0.256E-02
RMM:   7    -0.413201287764E+03   -0.81705E-05   -0.25395E-04  5647   0.146E-02    0.149E-02
RMM:   8    -0.413201276177E+03    0.11587E-04   -0.47275E-05  4990   0.739E-03    0.731E-03
RMM:   9    -0.413201273571E+03    0.26052E-05   -0.91186E-06  3543   0.371E-03    0.467E-03
RMM:  10    -0.413201269556E+03    0.40149E-05   -0.14109E-06  2539   0.195E-03    0.289E-03
RMM:  11    -0.413201264761E+03    0.47955E-05   -0.96934E-07  2495   0.159E-03    0.139E-03
RMM:  12    -0.413201259383E+03    0.53778E-05   -0.72737E-07  2410   0.135E-03    0.592E-04
RMM:  13    -0.413201257389E+03    0.19939E-05   -0.28681E-07  1940   0.923E-04    0.369E-04
RMM:  14    -0.413201256382E+03    0.10077E-05   -0.14056E-07  1345   0.704E-04    0.247E-04
RMM:  15    -0.413201252385E+03    0.39969E-05   -0.11982E-07  1257   0.698E-04    0.119E-04
RMM:  16    -0.413201251338E+03    0.10466E-05   -0.63941E-08   988   0.619E-04    0.653E-05
RMM:  17    -0.413201248597E+03    0.27408E-05   -0.63929E-08  1137   0.636E-04    0.100E-04
RMM:  18    -0.413201247265E+03    0.13319E-05   -0.39365E-08   951   0.580E-04    0.757E-05
RMM:  19    -0.413201245739E+03    0.15262E-05   -0.30460E-08   886   0.565E-04    0.344E-05
RMM:  20    -0.413201245457E+03    0.28257E-06   -0.15160E-08   703   0.536E-04
   37 T=    68. E= -.41286633E+03 F= -.41320125E+03 E0= -.41318003E+03  EK= 0.33492E+00 SP= 0.00E+00 SK= 0.00E+00
       N       E                     dE             d eps       ncg     rms          rms(c)
RMM:   1    -0.413200175929E+03    0.10698E-02   -0.11658E+01  4308   0.101E+00    0.944E-01
RMM:   2    -0.413206728414E+03   -0.65525E-02   -0.15472E-01  4250   0.128E-01    0.679E-01
RMM:   3    -0.413204122337E+03    0.26061E-02   -0.92611E-03  4833   0.539E-02    0.181E-01
RMM:   4    -0.413244034603E+03   -0.39912E-01   -0.41107E-02  5150   0.169E-01    0.830E-01
RMM:   5    -0.413203529339E+03    0.40505E-01   -0.20355E-02  4798   0.139E-01    0.485E-02
RMM:   6    -0.413203616954E+03   -0.87614E-04   -0.33097E-03  5842   0.536E-02    0.286E-02
RMM:   7    -0.413203628684E+03   -0.11730E-04   -0.35908E-04  5734   0.167E-02    0.154E-02
RMM:   8    -0.413203621462E+03    0.72225E-05   -0.45542E-05  4749   0.654E-03    0.826E-03
RMM:   9    -0.413203618960E+03    0.25020E-05   -0.15843E-05  4059   0.406E-03    0.636E-03
RMM:  10    -0.413203614225E+03    0.47348E-05   -0.30063E-06  2693   0.246E-03    0.390E-03
RMM:  11    -0.413203609260E+03    0.49645E-05   -0.17213E-06  2537   0.206E-03    0.215E-03
RMM:  12    -0.413203601569E+03    0.76910E-05   -0.13931E-06  2502   0.195E-03    0.944E-04
RMM:  13    -0.413203599884E+03    0.16852E-05   -0.41816E-07  2335   0.121E-03    0.589E-04
RMM:  14    -0.413203599646E+03    0.23814E-06   -0.18052E-07  1740   0.787E-04
   38 T=    69. E= -.41286616E+03 F= -.41320360E+03 E0= -.41318242E+03  EK= 0.33744E+00 SP= 0.00E+00 SK= 0.00E+00
       N       E                     dE             d eps       ncg     rms          rms(c)
RMM:   1    -0.413219266285E+03   -0.15666E-01   -0.11850E+01  4305   0.111E+00    0.957E-01
RMM:   2    -0.413208722717E+03    0.10544E-01   -0.17074E-01  4264   0.127E-01    0.675E-01
RMM:   3    -0.413207018095E+03    0.17046E-02   -0.93673E-03  5004   0.540E-02    0.223E-01
RMM:   4    -0.413259074309E+03   -0.52056E-01   -0.55973E-02  5137   0.197E-01    0.946E-01
RMM:   5    -0.413206001328E+03    0.53073E-01   -0.26380E-02  4787   0.160E-01    0.561E-02
RMM:   6    -0.413206134981E+03   -0.13365E-03   -0.42513E-03  5814   0.616E-02    0.314E-02
RMM:   7    -0.413206150212E+03   -0.15231E-04   -0.48613E-04  5842   0.193E-02    0.191E-02
RMM:   8    -0.413206148435E+03    0.17764E-05   -0.98862E-05  5245   0.948E-03    0.126E-02
RMM:   9    -0.413206134774E+03    0.13661E-04   -0.25898E-05  4646   0.565E-03    0.658E-03
RMM:  10    -0.413206127620E+03    0.71538E-05   -0.45747E-06  2811   0.292E-03    0.398E-03
RMM:  11    -0.413206121862E+03    0.57584E-05   -0.15975E-06  2505   0.207E-03    0.233E-03
RMM:  12    -0.413206111685E+03    0.10177E-04   -0.12131E-06  2491   0.190E-03    0.783E-04
RMM:  13    -0.413206106980E+03    0.47048E-05   -0.51987E-07  2365   0.128E-03    0.535E-04
RMM:  14    -0.413206105572E+03    0.14083E-05   -0.23624E-07  1937   0.873E-04    0.349E-04
RMM:  15    -0.413206101166E+03    0.44058E-05   -0.13149E-07  1432   0.721E-04    0.154E-04
RMM:  16    -0.413206097751E+03    0.34144E-05   -0.80568E-08  1141   0.650E-04    0.129E-04
RMM:  17    -0.413206094784E+03    0.29677E-05   -0.61883E-08  1114   0.624E-04    0.104E-04
RMM:  18    -0.413206091396E+03    0.33876E-05   -0.53054E-08  1157   0.618E-04    0.638E-05
RMM:  19    -0.413206088885E+03    0.25108E-05   -0.40976E-08  1118   0.591E-04    0.503E-05
RMM:  20    -0.413206088353E+03    0.53226E-06   -0.20190E-08   821   0.531E-04
   39 T=    69. E= -.41286611E+03 F= -.41320609E+03 E0= -.41318495E+03  EK= 0.33997E+00 SP= 0.00E+00 SK= 0.00E+00
       N       E                     dE             d eps       ncg     rms          rms(c)
RMM:   1    -0.413209042046E+03   -0.29532E-02   -0.11727E+01  4309   0.111E+00    0.935E-01
RMM:   2    -0.413212089680E+03   -0.30476E-02   -0.16028E-01  4262   0.129E-01    0.679E-01
RMM:   3    -0.413210401518E+03    0.16882E-02   -0.97352E-03  5033   0.585E-02    0.225E-01
RMM:   4    -0.413263498277E+03   -0.53097E-01   -0.59593E-02  5133   0.203E-01    0.958E-01
RMM:   5    -0.413208895910E+03    0.54602E-01   -0.26673E-02  4778   0.161E-01    0.565E-02
RMM:   6    -0.413209025892E+03   -0.12998E-03   -0.43091E-03  5809   0.619E-02    0.308E-02
RMM:   7    -0.413209044345E+03   -0.18454E-04   -0.49839E-04  5880   0.194E-02    0.196E-02
RMM:   8    -0.413209045390E+03   -0.10445E-05   -0.10448E-04  5250   0.970E-03    0.129E-02
RMM:   9    -0.413209033575E+03    0.11815E-04   -0.25170E-05  4620   0.567E-03    0.623E-03
RMM:  10    -0.413209029422E+03    0.41535E-05   -0.49659E-06  2864   0.291E-03    0.375E-03
RMM:  11    -0.413209026011E+03    0.34112E-05   -0.15710E-06  2504   0.205E-03    0.219E-03
RMM:  12    -0.413209020153E+03    0.58573E-05   -0.11008E-06  2489   0.178E-03    0.715E-04
RMM:  13    -0.413209017224E+03    0.29294E-05   -0.48700E-07  2346   0.123E-03    0.446E-04
RMM:  14    -0.413209016039E+03    0.11848E-05   -0.22862E-07  1865   0.855E-04    0.301E-04
RMM:  15    -0.413209012892E+03    0.31467E-05   -0.13796E-07  1407   0.722E-04    0.149E-04
RMM:  16    -0.413209011052E+03    0.18402E-05   -0.79689E-08  1080   0.640E-04    0.101E-04
RMM:  17    -0.413209009120E+03    0.19322E-05   -0.60653E-08  1054   0.621E-04    0.745E-05
RMM:  18    -0.413209006777E+03    0.23431E-05   -0.48951E-08  1014   0.612E-04    0.386E-05
RMM:  19    -0.413209004955E+03    0.18221E-05   -0.37492E-08   992   0.598E-04    0.310E-05
RMM:  20    -0.413209004303E+03    0.65217E-06   -0.21569E-08   818   0.565E-04
   40 T=    70. E= -.41286636E+03 F= -.41320900E+03 E0= -.41318790E+03  EK= 0.34265E+00 SP= 0.00E+00 SK= 0.00E+00
       N       E                     dE             d eps       ncg     rms          rms(c)
RMM:   1    -0.413233140056E+03   -0.24135E-01   -0.12079E+01  4307   0.127E+00    0.946E-01
RMM:   2    -0.413214205863E+03    0.18934E-01   -0.18319E-01  4271   0.142E-01    0.692E-01
RMM:   3    -0.413212968075E+03    0.12378E-02   -0.98869E-03  5046   0.626E-02    0.266E-01
RMM:   4    -0.413269296188E+03   -0.56328E-01   -0.65539E-02  5129   0.213E-01    0.990E-01
RMM:   5    -0.413210885788E+03    0.58410E-01   -0.28302E-02  4774   0.167E-01    0.600E-02
RMM:   6    -0.413211027007E+03   -0.14122E-03   -0.45237E-03  5805   0.639E-02    0.312E-02
RMM:   7    -0.413211047550E+03   -0.20543E-04   -0.54123E-04  5913   0.201E-02    0.212E-02
RMM:   8    -0.413211047497E+03    0.53631E-07   -0.11467E-04  5280   0.103E-02    0.131E-02
RMM:   9    -0.413211035155E+03    0.12342E-04   -0.24180E-05  4547   0.571E-03    0.553E-03
RMM:  10    -0.413211031146E+03    0.40086E-05   -0.54404E-06  2921   0.290E-03    0.342E-03
RMM:  11    -0.413211027755E+03    0.33913E-05   -0.14588E-06  2505   0.197E-03    0.192E-03
RMM:  12    -0.413211022633E+03    0.51225E-05   -0.87869E-07  2476   0.159E-03    0.641E-04
RMM:  13    -0.413211019817E+03    0.28159E-05   -0.42496E-07  2265   0.113E-03    0.335E-04
RMM:  14    -0.413211018119E+03    0.16982E-05   -0.22220E-07  1768   0.829E-04    0.231E-04
RMM:  15    -0.413211015007E+03    0.31119E-05   -0.14118E-07  1315   0.711E-04    0.113E-04
RMM:  16    -0.413211013398E+03    0.16088E-05   -0.87396E-08  1108   0.651E-04    0.734E-05
RMM:  17    -0.413211011451E+03    0.19470E-05   -0.69271E-08  1107   0.637E-04    0.591E-05
RMM:  18    -0.413211009465E+03    0.19859E-05   -0.53587E-08  1049   0.620E-04    0.291E-05
RMM:  19    -0.413211007897E+03    0.15676E-05   -0.39679E-08  1005   0.601E-04    0.282E-05
RMM:  20    -0.413211007383E+03    0.51473E-06   -0.22754E-08   822   0.567E-04
   41 T=    70. E= -.41286607E+03 F= -.41321101E+03 E0= -.41318994E+03  EK= 0.34494E+00 SP= 0.00E+00 SK= 0.00E+00
       N       E                     dE             d eps       ncg     rms          rms(c)
RMM:   1    -0.413217022859E+03   -0.60150E-02   -0.11932E+01  4310   0.123E+00    0.970E-01
RMM:   2    -0.413216234435E+03    0.78842E-03   -0.16435E-01  4295   0.139E-01    0.683E-01
RMM:   3    -0.413216984415E+03   -0.74998E-03   -0.12006E-02  5077   0.729E-02    0.302E-01
RMM:   4    -0.413255860562E+03   -0.38876E-01   -0.53761E-02  5099   0.195E-01    0.850E-01
RMM:   5    -0.413213560813E+03    0.42300E-01   -0.19204E-02  4741   0.142E-01    0.572E-02
RMM:   6    -0.413213623952E+03   -0.63139E-04   -0.32473E-03  5761   0.543E-02    0.308E-02
RMM:   7    -0.413213631820E+03   -0.78679E-05   -0.41926E-04  5823   0.183E-02    0.206E-02
RMM:   8    -0.413213627316E+03    0.45038E-05   -0.10544E-04  5204   0.102E-02    0.118E-02
RMM:   9    -0.413213613122E+03    0.14194E-04   -0.20056E-05  4412   0.543E-03    0.468E-03
RMM:  10    -0.413213607558E+03    0.55646E-05   -0.41866E-06  2800   0.261E-03    0.297E-03
RMM:  11    -0.413213601550E+03    0.60074E-05   -0.12403E-06  2503   0.184E-03    0.159E-03
RMM:  12    -0.413213593689E+03    0.78615E-05   -0.67589E-07  2432   0.144E-03    0.567E-04
RMM:  13    -0.413213589470E+03    0.42184E-05   -0.33137E-07  2077   0.100E-03    0.286E-04
RMM:  14    -0.413213586619E+03    0.28517E-05   -0.17875E-07  1540   0.772E-04    0.175E-04
RMM:  15    -0.413213580814E+03    0.58042E-05   -0.13055E-07  1336   0.716E-04    0.123E-04
RMM:  16    -0.413213578560E+03    0.22542E-05   -0.82715E-08  1160   0.655E-04    0.785E-05
RMM:  17    -0.413213574984E+03    0.35761E-05   -0.72003E-08  1255   0.651E-04    0.621E-05
RMM:  18    -0.413213572368E+03    0.26161E-05   -0.53668E-08  1147   0.609E-04    0.346E-05
RMM:  19    -0.413213570792E+03    0.15757E-05   -0.34414E-08   968   0.564E-04    0.301E-05
RMM:  20    -0.413213570535E+03    0.25777E-06   -0.17543E-08   737   0.531E-04
   42 T=    71. E= -.41286623E+03 F= -.41321357E+03 E0= -.41319253E+03  EK= 0.34734E+00 SP= 0.00E+00 SK= 0.00E+00
       N       E                     dE             d eps       ncg     rms          rms(c)
RMM:   1    -0.413220207098E+03   -0.66363E-02   -0.11897E+01  4311   0.129E+00    0.947E-01
RMM:   2    -0.413218411036E+03    0.17961E-02   -0.16739E-01  4297   0.149E-01    0.684E-01
RMM:   3    -0.413220072763E+03   -0.16617E-02   -0.12573E-02  5086   0.790E-02    0.331E-01
RMM:   4    -0.413255035040E+03   -0.34962E-01   -0.53019E-02  5089   0.194E-01    0.821E-01
RMM:   5    -0.413215681442E+03    0.39354E-01   -0.17435E-02  4727   0.137E-01    0.567E-02
RMM:   6    -0.413215730388E+03   -0.48946E-04   -0.29593E-03  5757   0.519E-02    0.300E-02
RMM:   7    -0.413215736971E+03   -0.65827E-05   -0.39102E-04  5816   0.178E-02    0.205E-02
RMM:   8    -0.413215732987E+03    0.39839E-05   -0.99612E-05  5176   0.100E-02    0.111E-02
RMM:   9    -0.413215720781E+03    0.12206E-04   -0.19162E-05  4343   0.534E-03    0.425E-03
RMM:  10    -0.413215716968E+03    0.38129E-05   -0.38392E-06  2764   0.251E-03    0.267E-03
RMM:  11    -0.413215712327E+03    0.46417E-05   -0.12277E-06  2502   0.180E-03    0.142E-03
RMM:  12    -0.413215706948E+03    0.53783E-05   -0.63469E-07  2425   0.137E-03    0.533E-04
RMM:  13    -0.413215703953E+03    0.29954E-05   -0.31040E-07  1921   0.951E-04    0.251E-04
RMM:  14    -0.413215701513E+03    0.24397E-05   -0.17722E-07  1453   0.762E-04    0.148E-04
RMM:  15    -0.413215696959E+03    0.45548E-05   -0.14038E-07  1300   0.718E-04    0.111E-04
RMM:  16    -0.413215695455E+03    0.15031E-05   -0.84277E-08  1125   0.653E-04    0.699E-05
RMM:  17    -0.413215692296E+03    0.31591E-05   -0.77507E-08  1235   0.655E-04    0.591E-05
RMM:  18    -0.413215690095E+03    0.22011E-05   -0.54447E-08  1107   0.609E-04    0.404E-05
RMM:  19    -0.413215689388E+03    0.70680E-06   -0.29441E-08   852   0.558E-04
   43 T=    71. E= -.41286627E+03 F= -.41321569E+03 E0= -.41319468E+03  EK= 0.34942E+00 SP= 0.00E+00 SK= 0.00E+00
       N       E                     dE             d eps       ncg     rms          rms(c)
RMM:   1    -0.413244956337E+03   -0.29266E-01   -0.12245E+01  4311   0.146E+00    0.948E-01
RMM:   2    -0.413220019892E+03    0.24936E-01   -0.19969E-01  4304   0.172E-01    0.701E-01
RMM:   3    -0.413222497009E+03   -0.24771E-02   -0.12965E-02  5079   0.872E-02    0.384E-01
RMM:   4    -0.413256215596E+03   -0.33719E-01   -0.55384E-02  5075   0.199E-01    0.825E-01
RMM:   5    -0.413216954753E+03    0.39261E-01   -0.17403E-02  4713   0.139E-01    0.602E-02
RMM:   6    -0.413216980238E+03   -0.25485E-04   -0.29187E-03  5719   0.518E-02    0.305E-02
RMM:   7    -0.413216984492E+03   -0.42538E-05   -0.38819E-04  5866   0.179E-02    0.214E-02
RMM:   8    -0.413216980110E+03    0.43821E-05   -0.97600E-05  5198   0.995E-03    0.111E-02
RMM:   9    -0.413216968979E+03    0.11131E-04   -0.21667E-05  4430   0.561E-03    0.419E-03
RMM:  10    -0.413216966352E+03    0.26268E-05   -0.40365E-06  2772   0.251E-03    0.246E-03
RMM:  11    -0.413216962660E+03    0.36919E-05   -0.15761E-06  2531   0.192E-03    0.140E-03
RMM:  12    -0.413216959257E+03    0.34024E-05   -0.63048E-07  2455   0.138E-03    0.610E-04
RMM:  13    -0.413216956886E+03    0.23713E-05   -0.32202E-07  1778   0.932E-04    0.271E-04
RMM:  14    -0.413216954659E+03    0.22270E-05   -0.20544E-07  1446   0.785E-04    0.149E-04
RMM:  15    -0.413216951765E+03    0.28945E-05   -0.16078E-07  1363   0.732E-04    0.891E-05
RMM:  16    -0.413216949972E+03    0.17926E-05   -0.10469E-07  1221   0.668E-04    0.643E-05
RMM:  17    -0.413216947910E+03    0.20617E-05   -0.82771E-08  1205   0.640E-04    0.470E-05
RMM:  18    -0.413216945816E+03    0.20939E-05   -0.62966E-08  1096   0.602E-04    0.383E-05
RMM:  19    -0.413216945320E+03    0.49620E-06   -0.32452E-08   820   0.551E-04
   44 T=    71. E= -.41286601E+03 F= -.41321695E+03 E0= -.41319597E+03  EK= 0.35093E+00 SP= 0.00E+00 SK= 0.00E+00
       N       E                     dE             d eps       ncg     rms          rms(c)
RMM:   1    -0.413230836615E+03   -0.13891E-01   -0.12100E+01  4310   0.149E+00    0.977E-01
RMM:   2    -0.413220941162E+03    0.98955E-02   -0.17133E-01  4354   0.175E-01    0.692E-01
RMM:   3    -0.413229248411E+03   -0.83072E-02   -0.18826E-02  5122   0.110E-01    0.474E-01
RMM:   4    -0.413239469826E+03   -0.10221E-01   -0.41951E-02  5034   0.177E-01    0.610E-01
RMM:   5    -0.413218707966E+03    0.20762E-01   -0.78816E-03  4609   0.104E-01    0.527E-02
RMM:   6    -0.413218673477E+03    0.34489E-04   -0.15515E-03  5536   0.381E-02    0.286E-02
RMM:   7    -0.413218668763E+03    0.47141E-05   -0.23903E-04  5637   0.149E-02    0.196E-02
RMM:   8    -0.413218659300E+03    0.94630E-05   -0.95529E-05  5089   0.999E-03    0.939E-03
RMM:   9    -0.413218645224E+03    0.14076E-04   -0.14974E-05  4194   0.516E-03    0.378E-03
RMM:  10    -0.413218641248E+03    0.39756E-05   -0.24935E-06  2665   0.216E-03    0.217E-03
RMM:  11    -0.413218634099E+03    0.71498E-05   -0.11298E-06  2483   0.173E-03    0.121E-03
RMM:  12    -0.413218628163E+03    0.59356E-05   -0.51568E-07  2401   0.127E-03    0.575E-04
RMM:  13    -0.413218624560E+03    0.36031E-05   -0.23976E-07  1735   0.850E-04    0.282E-04
RMM:  14    -0.413218620970E+03    0.35901E-05   -0.13751E-07  1280   0.695E-04    0.148E-04
RMM:  15    -0.413218615707E+03    0.52627E-05   -0.11544E-07  1262   0.683E-04    0.120E-04
RMM:  16    -0.413218613340E+03    0.23671E-05   -0.70088E-08  1070   0.620E-04    0.998E-05
RMM:  17    -0.413218609650E+03    0.36903E-05   -0.63540E-08  1183   0.622E-04    0.572E-05
RMM:  18    -0.413218606614E+03    0.30356E-05   -0.49483E-08  1100   0.589E-04    0.468E-05
RMM:  19    -0.413218606046E+03    0.56798E-06   -0.23277E-08   785   0.527E-04
   45 T=    72. E= -.41286634E+03 F= -.41321861E+03 E0= -.41319765E+03  EK= 0.35227E+00 SP= 0.00E+00 SK= 0.00E+00
       N       E                     dE             d eps       ncg     rms          rms(c)
RMM:   1    -0.413255600039E+03   -0.36993E-01   -0.12243E+01  4310   0.166E+00    0.959E-01
RMM:   2    -0.413221196415E+03    0.34404E-01   -0.18238E-01  4396   0.187E-01    0.689E-01
RMM:   3    -0.413231984711E+03   -0.10788E-01   -0.20514E-02  5120   0.118E-01    0.524E-01
RMM:   4    -0.413236613567E+03   -0.46289E-02   -0.40936E-02  5015   0.177E-01    0.569E-01
RMM:   5    -0.413219014141E+03    0.17599E-01   -0.66600E-03  4581   0.986E-02    0.526E-02
RMM:   6    -0.413218959097E+03    0.55044E-04   -0.12605E-03  5388   0.351E-02    0.279E-02
RMM:   7    -0.413218954067E+03    0.50303E-05   -0.19886E-04  5622   0.138E-02    0.190E-02
RMM:   8    -0.413218946893E+03    0.71736E-05   -0.10354E-04  5099   0.103E-02    0.976E-03
RMM:   9    -0.413218932346E+03    0.14547E-04   -0.15917E-05  4283   0.540E-03    0.385E-03
RMM:  10    -0.413218929204E+03    0.31415E-05   -0.26122E-06  2676   0.217E-03    0.219E-03
RMM:  11    -0.413218922838E+03    0.63666E-05   -0.12801E-06  2494   0.181E-03    0.125E-03
RMM:  12    -0.413218918285E+03    0.45530E-05   -0.52915E-07  2418   0.129E-03    0.649E-04
RMM:  13    -0.413218914850E+03    0.34353E-05   -0.24530E-07  1732   0.870E-04    0.318E-04
RMM:  14    -0.413218911568E+03    0.32820E-05   -0.13576E-07  1292   0.700E-04    0.165E-04
RMM:  15    -0.413218907422E+03    0.41461E-05   -0.10807E-07  1234   0.673E-04    0.117E-04
RMM:  16    -0.413218905329E+03    0.20929E-05   -0.65646E-08  1050   0.610E-04    0.103E-04
RMM:  17    -0.413218902450E+03    0.28786E-05   -0.56579E-08  1104   0.605E-04    0.575E-05
RMM:  18    -0.413218899527E+03    0.29229E-05   -0.50758E-08  1099   0.589E-04    0.476E-05
RMM:  19    -0.413218899068E+03    0.45887E-06   -0.18367E-08   701   0.514E-04
   46 T=    72. E= -.41286619E+03 F= -.41321890E+03 E0= -.41319796E+03  EK= 0.35271E+00 SP= 0.00E+00 SK= 0.00E+00
       N       E                     dE             d eps       ncg     rms          rms(c)
RMM:   1    -0.413241071111E+03   -0.22172E-01   -0.12127E+01  4310   0.168E+00    0.948E-01
RMM:   2    -0.413221363770E+03    0.19707E-01   -0.19331E-01  4381   0.207E-01    0.703E-01
RMM:   3    -0.413232340316E+03   -0.10977E-01   -0.20820E-02  5123   0.124E-01    0.542E-01
RMM:   4    -0.413238001318E+03   -0.56610E-02   -0.43895E-02  5022   0.183E-01    0.595E-01
RMM:   5    -0.413218633194E+03    0.19368E-01   -0.75022E-03  4584   0.104E-01    0.551E-02
RMM:   6    -0.413218574832E+03    0.58362E-04   -0.13858E-03  5406   0.368E-02    0.287E-02
RMM:   7    -0.413218569598E+03    0.52336E-05   -0.21385E-04  5667   0.142E-02    0.203E-02
RMM:   8    -0.413218560863E+03    0.87355E-05   -0.10407E-04  5137   0.103E-02    0.989E-03
RMM:   9    -0.413218547665E+03    0.13198E-04   -0.17846E-05  4325   0.561E-03    0.389E-03
RMM:  10    -0.413218545425E+03    0.22400E-05   -0.27695E-06  2689   0.223E-03    0.224E-03
RMM:  11    -0.413218541111E+03    0.43136E-05   -0.14593E-06  2518   0.187E-03    0.133E-03
RMM:  12    -0.413218538011E+03    0.31002E-05   -0.56948E-07  2425   0.134E-03    0.683E-04
RMM:  13    -0.413218535367E+03    0.26442E-05   -0.28287E-07  1770   0.913E-04    0.322E-04
RMM:  14    -0.413218532946E+03    0.24213E-05   -0.16727E-07  1391   0.743E-04    0.175E-04
RMM:  15    -0.413218530044E+03    0.29015E-05   -0.13358E-07  1321   0.699E-04    0.116E-04
RMM:  16    -0.413218528413E+03    0.16313E-05   -0.82775E-08  1140   0.625E-04    0.103E-04
RMM:  17    -0.413218526592E+03    0.18210E-05   -0.62984E-08  1097   0.600E-04    0.537E-05
RMM:  18    -0.413218524397E+03    0.21944E-05   -0.61170E-08  1112   0.597E-04    0.462E-05
RMM:  19    -0.413218524156E+03    0.24184E-06   -0.22275E-08   721   0.521E-04
   47 T=    72. E= -.41286611E+03 F= -.41321852E+03 E0= -.41319761E+03  EK= 0.35241E+00 SP= 0.00E+00 SK= 0.00E+00
       N       E                     dE             d eps       ncg     rms          rms(c)
RMM:   1    -0.413262687908E+03   -0.44164E-01   -0.12304E+01  4305   0.186E+00    0.973E-01
RMM:   2    -0.413220042778E+03    0.42645E-01   -0.20212E-01  4447   0.211E-01    0.699E-01
RMM:   3    -0.413237756509E+03   -0.17714E-01   -0.26679E-02  5144   0.143E-01    0.643E-01
RMM:   4    -0.413229636701E+03    0.81198E-02   -0.39917E-02  4984   0.178E-01    0.488E-01
RMM:   5    -0.413217702567E+03    0.11934E-01   -0.51502E-03  4522   0.923E-02    0.564E-02
RMM:   6    -0.413217590096E+03    0.11247E-03   -0.67499E-04  4895   0.298E-02    0.286E-02
RMM:   7    -0.413217576923E+03    0.13173E-04   -0.16236E-04  5945   0.125E-02    0.133E-02
RMM:   8    -0.413217568371E+03    0.85516E-05   -0.66678E-05  5197   0.947E-03    0.111E-02
RMM:   9    -0.413217560723E+03    0.76487E-05   -0.18821E-05  4421   0.519E-03    0.414E-03
RMM:  10    -0.413217557079E+03    0.36441E-05   -0.25876E-06  2597   0.257E-03    0.227E-03
RMM:  11    -0.413217551650E+03    0.54285E-05   -0.19241E-06  2506   0.222E-03    0.147E-03
RMM:  12    -0.413217546825E+03    0.48251E-05   -0.74034E-07  2411   0.157E-03    0.893E-04
RMM:  13    -0.413217543292E+03    0.35333E-05   -0.30696E-07  2161   0.998E-04    0.553E-04
RMM:  14    -0.413217538023E+03    0.52690E-05   -0.20490E-07  1750   0.816E-04    0.332E-04
RMM:  15    -0.413217533816E+03    0.42067E-05   -0.12613E-07  1298   0.664E-04    0.221E-04
RMM:  16    -0.413217532258E+03    0.15585E-05   -0.63977E-08   917   0.561E-04    0.116E-04
RMM:  17    -0.413217529225E+03    0.30328E-05   -0.66673E-08   993   0.590E-04    0.945E-05
RMM:  18    -0.413217527405E+03    0.18202E-05   -0.41382E-08   881   0.569E-04    0.941E-05
RMM:  19    -0.413217526901E+03    0.50347E-06   -0.22337E-08   720   0.531E-04
   48 T=    71. E= -.41286637E+03 F= -.41321753E+03 E0= -.41319662E+03  EK= 0.35115E+00 SP= 0.00E+00 SK= 0.00E+00
       N       E                     dE             d eps       ncg     rms          rms(c)
RMM:   1    -0.413261718087E+03   -0.44191E-01   -0.12137E+01  4305   0.198E+00    0.964E-01
RMM:   2    -0.413216804324E+03    0.44914E-01   -0.20047E-01  4491   0.224E-01    0.689E-01
RMM:   3    -0.413240241253E+03   -0.23437E-01   -0.31731E-02  5156   0.158E-01    0.717E-01
RMM:   4    -0.413222976013E+03    0.17265E-01   -0.38892E-02  4960   0.178E-01    0.426E-01
RMM:   5    -0.413214488192E+03    0.84878E-02   -0.47545E-03  4589   0.900E-02    0.630E-02
RMM:   6    -0.413214307424E+03    0.18077E-03   -0.47583E-04  4689   0.292E-02    0.315E-02
RMM:   7    -0.413214310253E+03   -0.28296E-05   -0.23879E-04  5796   0.160E-02    0.221E-02
RMM:   8    -0.413214281257E+03    0.28996E-04   -0.87563E-05  5048   0.105E-02    0.907E-03
RMM:   9    -0.413214271814E+03    0.94431E-05   -0.15592E-05  4262   0.509E-03    0.462E-03
RMM:  10    -0.413214267031E+03    0.47826E-05   -0.22523E-06  2593   0.234E-03    0.249E-03
RMM:  11    -0.413214260677E+03    0.63543E-05   -0.12609E-06  2491   0.182E-03    0.169E-03
RMM:  12    -0.413214256912E+03    0.37645E-05   -0.41924E-07  2389   0.120E-03    0.861E-04
RMM:  13    -0.413214251555E+03    0.53571E-05   -0.28584E-07  1866   0.896E-04    0.418E-04
RMM:  14    -0.413214246550E+03    0.50057E-05   -0.22293E-07  1769   0.796E-04    0.417E-04
RMM:  15    -0.413214242260E+03    0.42895E-05   -0.13463E-07  1191   0.654E-04    0.162E-04
RMM:  16    -0.413214239953E+03    0.23073E-05   -0.82943E-08  1108   0.607E-04    0.103E-04
RMM:  17    -0.413214237822E+03    0.21307E-05   -0.61221E-08  1071   0.586E-04    0.686E-05
RMM:  18    -0.413214236108E+03    0.17143E-05   -0.45851E-08   981   0.567E-04    0.647E-05
RMM:  19    -0.413214234930E+03    0.11779E-05   -0.32253E-08   900   0.547E-04    0.446E-05
RMM:  20    -0.413214234425E+03    0.50537E-06   -0.22155E-08   793   0.524E-04
   49 T=    71. E= -.41286601E+03 F= -.41321423E+03 E0= -.41319334E+03  EK= 0.34822E+00 SP= 0.00E+00 SK= 0.00E+00
       N       E                     dE             d eps       ncg     rms          rms(c)
RMM:   1    -0.413238919273E+03   -0.24684E-01   -0.11807E+01  4305   0.200E+00    0.937E-01
RMM:   2    -0.413213336582E+03    0.25583E-01   -0.19909E-01  4509   0.232E-01    0.695E-01
RMM:   3    -0.413236287637E+03   -0.22951E-01   -0.31362E-02  5165   0.160E-01    0.721E-01
RMM:   4    -0.413219612068E+03    0.16676E-01   -0.40239E-02  4958   0.182E-01    0.437E-01
RMM:   5    -0.413210472750E+03    0.91393E-02   -0.52140E-03  4612   0.940E-02    0.658E-02
RMM:   6    -0.413210264550E+03    0.20820E-03   -0.52330E-04  4697   0.309E-02    0.320E-02
RMM:   7    -0.413210266376E+03   -0.18258E-05   -0.24782E-04  5809   0.163E-02    0.223E-02
RMM:   8    -0.413210239406E+03    0.26970E-04   -0.86272E-05  5093   0.103E-02    0.970E-03
RMM:   9    -0.413210231571E+03    0.78356E-05   -0.17476E-05  4403   0.536E-03    0.475E-03
RMM:  10    -0.413210227681E+03    0.38892E-05   -0.26868E-06  2627   0.250E-03    0.260E-03
RMM:  11    -0.413210223289E+03    0.43928E-05   -0.13331E-06  2496   0.189E-03    0.180E-03
[...]
RMM:   3    -0.413781871782E+03   -0.24164E-01   -0.61250E-02  5562   0.281E-01    0.762E-01
RMM:   4    -0.413762317989E+03    0.19554E-01   -0.25904E-02  5237   0.177E-01    0.441E-01
RMM:   5    -0.413759773576E+03    0.25444E-02   -0.12704E-02  4920   0.154E-01    0.141E-01
RMM:   6    -0.413759486676E+03    0.28690E-03   -0.22811E-03  4723   0.706E-02    0.518E-02
RMM:   7    -0.413759387541E+03    0.99136E-04   -0.71088E-04  5293   0.325E-02    0.321E-02
RMM:   8    -0.413759358989E+03    0.28552E-04   -0.27321E-04  5528   0.193E-02    0.235E-02
RMM:   9    -0.413759330464E+03    0.28525E-04   -0.93475E-05  4877   0.124E-02    0.141E-02
RMM:  10    -0.413759326186E+03    0.42784E-05   -0.35924E-05  5331   0.724E-03    0.703E-03
RMM:  11    -0.413759327730E+03   -0.15439E-05   -0.13173E-05  4205   0.445E-03    0.500E-03
RMM:  12    -0.413759332442E+03   -0.47121E-05   -0.32344E-06  2801   0.308E-03    0.261E-03
RMM:  13    -0.413759338983E+03   -0.65410E-05   -0.22414E-06  2665   0.227E-03    0.143E-03
RMM:  14    -0.413759347604E+03   -0.86210E-05   -0.16804E-06  2628   0.190E-03    0.772E-04
RMM:  15    -0.413759354896E+03   -0.72924E-05   -0.13077E-06  2553   0.148E-03    0.593E-04
RMM:  16    -0.413759362403E+03   -0.75066E-05   -0.14607E-06  2505   0.142E-03    0.359E-04
RMM:  17    -0.413759368350E+03   -0.59470E-05   -0.12865E-06  2297   0.125E-03    0.275E-04
RMM:  18    -0.413759372934E+03   -0.45838E-05   -0.90542E-07  2075   0.107E-03    0.176E-04
RMM:  19    -0.413759375858E+03   -0.29243E-05   -0.45892E-07  1661   0.816E-04    0.116E-04
RMM:  20    -0.413759377851E+03   -0.19931E-05   -0.21027E-07  1248   0.654E-04    0.852E-05
RMM:  21    -0.413759379383E+03   -0.15320E-05   -0.12302E-07  1137   0.600E-04    0.498E-05
RMM:  22    -0.413759380217E+03   -0.83432E-06   -0.67176E-08  1021   0.560E-04
  139 T=   180. E= -.41287380E+03 F= -.41375938E+03 E0= -.41373744E+03  EK= 0.88558E+00 SP= 0.00E+00 SK= 0.00E+00
       N       E                     dE             d eps       ncg     rms          rms(c)
RMM:   1    -0.414012397153E+03   -0.25302E+00   -0.21097E+01  4264   0.855E+00    0.966E-01
RMM:   2    -0.413912350667E+03    0.10005E+00   -0.54062E-01  5226   0.908E-01    0.763E-01
RMM:   3    -0.413960699908E+03   -0.48349E-01   -0.10632E-01  5476   0.364E-01    0.108E+00
RMM:   4    -0.413913646426E+03    0.47053E-01   -0.46433E-02  5186   0.247E-01    0.508E-01
RMM:   5    -0.413911036719E+03    0.26097E-02   -0.14014E-02  4665   0.172E-01    0.159E-01
RMM:   6    -0.413910971551E+03    0.65168E-04   -0.32984E-03  5125   0.786E-02    0.581E-02
RMM:   7    -0.413910909252E+03    0.62299E-04   -0.86021E-04  5435   0.343E-02    0.352E-02
RMM:   8    -0.413910874628E+03    0.34624E-04   -0.35645E-04  5435   0.221E-02    0.256E-02
RMM:   9    -0.413910857860E+03    0.16768E-04   -0.14089E-04  5451   0.140E-02    0.177E-02
RMM:  10    -0.413910846660E+03    0.11200E-04   -0.44027E-05  5394   0.822E-03    0.865E-03
RMM:  11    -0.413910847854E+03   -0.11944E-05   -0.24937E-05  5063   0.575E-03    0.664E-03
RMM:  12    -0.413910849507E+03   -0.16527E-05   -0.43966E-06  2929   0.346E-03    0.306E-03
RMM:  13    -0.413910854225E+03   -0.47181E-05   -0.31133E-06  2776   0.262E-03    0.154E-03
RMM:  14    -0.413910861676E+03   -0.74513E-05   -0.19332E-06  2626   0.217E-03    0.773E-04
RMM:  15    -0.413910867809E+03   -0.61325E-05   -0.13688E-06  2581   0.163E-03    0.627E-04
RMM:  16    -0.413910874023E+03   -0.62137E-05   -0.13613E-06  2471   0.144E-03    0.460E-04
RMM:  17    -0.413910879645E+03   -0.56227E-05   -0.14896E-06  2516   0.140E-03    0.320E-04
RMM:  18    -0.413910882913E+03   -0.32676E-05   -0.83959E-07  1803   0.974E-04    0.191E-04
RMM:  19    -0.413910885659E+03   -0.27462E-05   -0.57720E-07  1953   0.929E-04    0.154E-04
RMM:  20    -0.413910887009E+03   -0.13504E-05   -0.20797E-07  1256   0.658E-04    0.105E-04
RMM:  21    -0.413910888348E+03   -0.13388E-05   -0.13167E-07  1135   0.607E-04    0.563E-05
RMM:  22    -0.413910889185E+03   -0.83686E-06   -0.81843E-08  1054   0.575E-04
  140 T=   211. E= -.41287636E+03 F= -.41391089E+03 E0= -.41388919E+03  EK= 0.10345E+01 SP= 0.00E+00 SK= 0.00E+00
       N       E                     dE             d eps       ncg     rms          rms(c)
RMM:   1    -0.414164058854E+03   -0.25317E+00   -0.24957E+01  4264   0.905E+00    0.127E+00
RMM:   2    -0.414016540683E+03    0.14752E+00   -0.78280E-01  5347   0.104E+00    0.105E+00
RMM:   3    -0.414089412197E+03   -0.72872E-01   -0.16213E-01  5423   0.446E-01    0.139E+00
RMM:   4    -0.414014934029E+03    0.74478E-01   -0.80681E-02  5173   0.326E-01    0.632E-01
RMM:   5    -0.414009406268E+03    0.55278E-02   -0.22697E-02  4550   0.222E-01    0.174E-01
RMM:   6    -0.414009305960E+03    0.10031E-03   -0.53606E-03  5332   0.946E-02    0.822E-02
RMM:   7    -0.414009246664E+03    0.59296E-04   -0.18243E-03  5501   0.490E-02    0.538E-02
RMM:   8    -0.414009131473E+03    0.11519E-03   -0.54707E-04  5326   0.279E-02    0.323E-02
RMM:   9    -0.414009112062E+03    0.19410E-04   -0.24653E-04  5343   0.199E-02    0.215E-02
RMM:  10    -0.414009099081E+03    0.12981E-04   -0.55464E-05  5262   0.950E-03    0.107E-02
RMM:  11    -0.414009097823E+03    0.12582E-05   -0.34402E-05  5315   0.671E-03    0.675E-03
RMM:  12    -0.414009096834E+03    0.98909E-06   -0.48010E-06  2961   0.331E-03
  141 T=   230. E= -.41288097E+03 F= -.41400910E+03 E0= -.41398766E+03  EK= 0.11281E+01 SP= 0.00E+00 SK= 0.00E+00
       N       E                     dE             d eps       ncg     rms          rms(c)
RMM:   1    -0.414182725777E+03   -0.17363E+00   -0.26867E+01  4264   0.906E+00    0.161E+00
RMM:   2    -0.414006422060E+03    0.17630E+00   -0.97791E-01  5385   0.109E+00    0.134E+00
RMM:   3    -0.414113922490E+03   -0.10750E+00   -0.21910E-01  5396   0.512E-01    0.170E+00
RMM:   4    -0.414008648869E+03    0.10527E+00   -0.12412E-01  5160   0.399E-01    0.774E-01
RMM:   5    -0.413997670719E+03    0.10978E-01   -0.42516E-02  4650   0.290E-01    0.193E-01
RMM:   6    -0.413997092326E+03    0.57839E-03   -0.64671E-03  5377   0.107E-01    0.963E-02
RMM:   7    -0.413996999354E+03    0.92972E-04   -0.18969E-03  5367   0.515E-02    0.597E-02
RMM:   8    -0.413996893479E+03    0.10588E-03   -0.75930E-04  5414   0.325E-02    0.358E-02
RMM:   9    -0.413996884761E+03    0.87174E-05   -0.29191E-04  5502   0.212E-02    0.253E-02
RMM:  10    -0.413996869615E+03    0.15146E-04   -0.70852E-05  5279   0.109E-02    0.115E-02
RMM:  11    -0.413996869770E+03   -0.15408E-06   -0.43788E-05  5475   0.728E-03    0.727E-03
RMM:  12    -0.413996868288E+03    0.14816E-05   -0.54330E-06  3017   0.347E-03    0.373E-03
RMM:  13    -0.413996868702E+03   -0.41384E-06   -0.32480E-06  2796   0.265E-03
  142 T=   227. E= -.41288138E+03 F= -.41399687E+03 E0= -.41397566E+03  EK= 0.11155E+01 SP= 0.00E+00 SK= 0.00E+00
       N       E                     dE             d eps       ncg     rms          rms(c)
RMM:   1    -0.414058557189E+03   -0.61689E-01   -0.25404E+01  4266   0.855E+00    0.159E+00
RMM:   2    -0.413898621812E+03    0.15994E+00   -0.93012E-01  5378   0.102E+00    0.135E+00
RMM:   3    -0.413999882591E+03   -0.10126E+00   -0.20839E-01  5454   0.487E-01    0.170E+00
RMM:   4    -0.413898856872E+03    0.10103E+00   -0.11696E-01  5104   0.394E-01    0.716E-01
RMM:   5    -0.413890394900E+03    0.84620E-02   -0.48687E-02  4726   0.299E-01    0.197E-01
RMM:   6    -0.413889354570E+03    0.10403E-02   -0.58862E-03  5240   0.104E-01    0.944E-02
RMM:   7    -0.413889273733E+03    0.80837E-04   -0.20514E-03  5445   0.526E-02    0.598E-02
RMM:   8    -0.413889153877E+03    0.11986E-03   -0.75524E-04  5359   0.329E-02    0.336E-02
RMM:   9    -0.413889153934E+03   -0.56694E-07   -0.21542E-04  5510   0.184E-02    0.233E-02
RMM:  10    -0.413889141352E+03    0.12582E-04   -0.63460E-05  5230   0.101E-02    0.971E-03
RMM:  11    -0.413889141052E+03    0.30007E-06   -0.33742E-05  5247   0.622E-03    0.643E-03
RMM:  12    -0.413889138130E+03    0.29216E-05   -0.39675E-06  2873   0.305E-03    0.296E-03
RMM:  13    -0.413889136950E+03    0.11808E-05   -0.22189E-06  2645   0.223E-03    0.132E-03
RMM:  14    -0.413889135701E+03    0.12483E-05   -0.85141E-07  2474   0.157E-03    0.559E-04
RMM:  15    -0.413889134706E+03    0.99551E-06   -0.47571E-07  2071   0.111E-03
  143 T=   208. E= -.41286936E+03 F= -.41388913E+03 E0= -.41386776E+03  EK= 0.10198E+01 SP= 0.00E+00 SK= 0.00E+00
       N       E                     dE             d eps       ncg     rms          rms(c)
RMM:   1    -0.413983685839E+03   -0.94550E-01   -0.22952E+01  4267   0.800E+00    0.138E+00
RMM:   2    -0.413867107867E+03    0.11658E+00   -0.79856E-01  5381   0.931E-01    0.122E+00
RMM:   3    -0.413900213485E+03   -0.33106E-01   -0.14894E-01  5456   0.416E-01    0.134E+00
RMM:   4    -0.413851324389E+03    0.48889E-01   -0.86442E-02  5084   0.360E-01    0.578E-01
RMM:   5    -0.413845949270E+03    0.53751E-02   -0.35060E-02  4609   0.257E-01    0.170E-01
RMM:   6    -0.413845924912E+03    0.24358E-04   -0.11499E-02  5376   0.127E-01    0.137E-01
RMM:   7    -0.413844875383E+03    0.10495E-02   -0.28770E-03  4923   0.681E-02    0.565E-02
RMM:   8    -0.413844873208E+03    0.21751E-05   -0.93168E-04  5724   0.363E-02    0.359E-02
RMM:   9    -0.413844869513E+03    0.36953E-05   -0.22696E-04  5526   0.186E-02    0.250E-02
RMM:  10    -0.413844851785E+03    0.17728E-04   -0.74368E-05  5440   0.109E-02    0.903E-03
RMM:  11    -0.413844852802E+03   -0.10169E-05   -0.36019E-05  5328   0.629E-03    0.731E-03
RMM:  12    -0.413844850011E+03    0.27909E-05   -0.50527E-06  3056   0.336E-03    0.255E-03
RMM:  13    -0.413844849299E+03    0.71136E-06   -0.22894E-06  2659   0.221E-03
  144 T=   199. E= -.41286789E+03 F= -.41384485E+03 E0= -.41382303E+03  EK= 0.97696E+00 SP= 0.00E+00 SK= 0.00E+00
       N       E                     dE             d eps       ncg     rms          rms(c)
RMM:   1    -0.414051450862E+03   -0.20660E+00   -0.24017E+01  4275   0.810E+00    0.185E+00
RMM:   2    -0.413931280368E+03    0.12017E+00   -0.86547E-01  5388   0.102E+00    0.171E+00
RMM:   3    -0.413961824775E+03   -0.30544E-01   -0.20969E-01  5408   0.497E-01    0.174E+00
RMM:   4    -0.413895058883E+03    0.66766E-01   -0.15049E-01  5184   0.465E-01    0.741E-01
RMM:   5    -0.413884531969E+03    0.10527E-01   -0.61788E-02  4644   0.337E-01    0.227E-01
RMM:   6    -0.413883306281E+03    0.12257E-02   -0.20761E-02  5269   0.174E-01    0.167E-01
RMM:   7    -0.413881725598E+03    0.15807E-02   -0.33443E-03  4760   0.795E-02    0.709E-02
RMM:   8    -0.413881693934E+03    0.31664E-04   -0.11392E-03  5581   0.413E-02    0.381E-02
RMM:   9    -0.413881697667E+03   -0.37327E-05   -0.33250E-04  5644   0.217E-02    0.279E-02
RMM:  10    -0.413881679177E+03    0.18490E-04   -0.83951E-05  5388   0.117E-02    0.114E-02
RMM:  11    -0.413881680784E+03   -0.16075E-05   -0.55461E-05  5624   0.809E-03    0.854E-03
RMM:  12    -0.413881678730E+03    0.20548E-05   -0.69433E-06  3448   0.386E-03    0.340E-03
RMM:  13    -0.413881678465E+03    0.26442E-06   -0.28393E-06  2724   0.245E-03
  145 T=   202. E= -.41288808E+03 F= -.41388168E+03 E0= -.41385940E+03  EK= 0.99360E+00 SP= 0.00E+00 SK= 0.00E+00
       N       E                     dE             d eps       ncg     rms          rms(c)
RMM:   1    -0.413979632419E+03   -0.97954E-01   -0.24199E+01  4278   0.813E+00    0.198E+00
RMM:   2    -0.413843003834E+03    0.13663E+00   -0.92007E-01  5411   0.107E+00    0.186E+00
RMM:   3    -0.413889846260E+03   -0.46842E-01   -0.21859E-01  5496   0.506E-01    0.190E+00
RMM:   4    -0.413813966603E+03    0.75880E-01   -0.14502E-01  5194   0.452E-01    0.891E-01
RMM:   5    -0.413803652051E+03    0.10315E-01   -0.68374E-02  4507   0.362E-01    0.258E-01
RMM:   6    -0.413801492567E+03    0.21595E-02   -0.18399E-02  5124   0.171E-01    0.161E-01
RMM:   7    -0.413800029821E+03    0.14627E-02   -0.32805E-03  4768   0.792E-02    0.731E-02
RMM:   8    -0.413799960882E+03    0.68939E-04   -0.98657E-04  5385   0.403E-02    0.407E-02
RMM:   9    -0.413799964536E+03   -0.36542E-05   -0.34782E-04  5335   0.229E-02    0.246E-02
RMM:  10    -0.413799955919E+03    0.86165E-05   -0.86051E-05  5529   0.116E-02    0.118E-02
RMM:  11    -0.413799958211E+03   -0.22913E-05   -0.45206E-05  5479   0.754E-03    0.841E-03
RMM:  12    -0.413799957967E+03    0.24331E-06   -0.65639E-06  3300   0.373E-03
  146 T=   187. E= -.41288136E+03 F= -.41379996E+03 E0= -.41377730E+03  EK= 0.91860E+00 SP= 0.00E+00 SK= 0.00E+00
       N       E                     dE             d eps       ncg     rms          rms(c)
RMM:   1    -0.413810288209E+03   -0.10330E-01   -0.20506E+01  4280   0.761E+00    0.151E+00
RMM:   2    -0.413705620750E+03    0.10467E+00   -0.76627E-01  5455   0.939E-01    0.142E+00
RMM:   3    -0.413741744998E+03   -0.36124E-01   -0.14756E-01  5647   0.414E-01    0.149E+00
RMM:   4    -0.413691763525E+03    0.49981E-01   -0.80067E-02  5162   0.335E-01    0.751E-01
RMM:   5    -0.413686510316E+03    0.52532E-02   -0.50458E-02  4416   0.310E-01    0.231E-01
RMM:   6    -0.413684445827E+03    0.20645E-02   -0.10567E-02  4962   0.137E-01    0.125E-01
RMM:   7    -0.413683645237E+03    0.80059E-03   -0.22279E-03  4809   0.642E-02    0.650E-02
RMM:   8    -0.413683568713E+03    0.76524E-04   -0.59825E-04  4941   0.325E-02    0.376E-02
RMM:   9    -0.413683574222E+03   -0.55092E-05   -0.26571E-04  4920   0.208E-02    0.186E-02
RMM:  10    -0.413683577289E+03   -0.30668E-05   -0.70767E-05  5693   0.992E-03    0.109E-02
RMM:  11    -0.413683580837E+03   -0.35475E-05   -0.25083E-05  4865   0.596E-03    0.650E-03
RMM:  12    -0.413683583398E+03   -0.25616E-05   -0.42985E-06  2943   0.305E-03    0.299E-03
RMM:  13    -0.413683585609E+03   -0.22105E-05   -0.21071E-06  2627   0.224E-03    0.137E-03
RMM:  14    -0.413683587908E+03   -0.22995E-05   -0.96121E-07  2475   0.164E-03    0.706E-04
RMM:  15    -0.413683589623E+03   -0.17149E-05   -0.50289E-07  2204   0.114E-03    0.428E-04
RMM:  16    -0.413683591050E+03   -0.14267E-05   -0.30955E-07  1714   0.883E-04    0.219E-04
RMM:  17    -0.413683592641E+03   -0.15917E-05   -0.24570E-07  1498   0.792E-04    0.988E-05
RMM:  18    -0.413683593924E+03   -0.12826E-05   -0.18253E-07  1368   0.728E-04    0.743E-05
RMM:  19    -0.413683594907E+03   -0.98303E-06   -0.13339E-07  1271   0.673E-04
  147 T=   164. E= -.41287567E+03 F= -.41368359E+03 E0= -.41366059E+03  EK= 0.80792E+00 SP= 0.00E+00 SK= 0.00E+00
       N       E                     dE             d eps       ncg     rms          rms(c)
RMM:   1    -0.413709232702E+03   -0.25639E-01   -0.18062E+01  4287   0.748E+00    0.160E+00
RMM:   2    -0.413632740617E+03    0.76492E-01   -0.57390E-01  5419   0.838E-01    0.139E+00
RMM:   3    -0.413701751363E+03   -0.69011E-01   -0.16347E-01  5554   0.428E-01    0.163E+00
RMM:   4    -0.413623411868E+03    0.78339E-01   -0.10762E-01  5094   0.388E-01    0.584E-01
RMM:   5    -0.413617257383E+03    0.61545E-02   -0.56419E-02  4886   0.304E-01    0.226E-01
RMM:   6    -0.413614812553E+03    0.24448E-02   -0.11994E-02  5141   0.141E-01    0.119E-01
RMM:   7    -0.413614164535E+03    0.64802E-03   -0.17442E-03  4698   0.587E-02    0.628E-02
RMM:   8    -0.413614129458E+03    0.35077E-04   -0.63796E-04  5389   0.318E-02    0.404E-02
RMM:   9    -0.413614138773E+03   -0.93153E-05   -0.24067E-04  5006   0.193E-02    0.204E-02
RMM:  10    -0.413614142198E+03   -0.34251E-05   -0.76879E-05  5674   0.104E-02    0.106E-02
RMM:  11    -0.413614147912E+03   -0.57135E-05   -0.29700E-05  5076   0.631E-03    0.686E-03
RMM:  12    -0.413614152611E+03   -0.46993E-05   -0.63108E-06  3195   0.361E-03    0.353E-03
RMM:  13    -0.413614155168E+03   -0.25570E-05   -0.22840E-06  2661   0.234E-03    0.168E-03
RMM:  14    -0.413614158735E+03   -0.35668E-05   -0.12644E-06  2535   0.181E-03    0.798E-04
RMM:  15    -0.413614161517E+03   -0.27822E-05   -0.78899E-07  2394   0.133E-03    0.492E-04
RMM:  16    -0.413614163321E+03   -0.18034E-05   -0.48167E-07  1956   0.101E-03    0.272E-04
RMM:  17    -0.413614164779E+03   -0.14582E-05   -0.38864E-07  1860   0.905E-04    0.186E-04
RMM:  18    -0.413614165877E+03   -0.10984E-05   -0.31154E-07  1684   0.807E-04    0.136E-04
RMM:  19    -0.413614166452E+03   -0.57479E-06   -0.18083E-07  1346   0.673E-04
  148 T=   149. E= -.41288041E+03 F= -.41361417E+03 E0= -.41359068E+03  EK= 0.73376E+00 SP= 0.00E+00 SK= 0.00E+00
       N       E                     dE             d eps       ncg     rms          rms(c)
RMM:   1    -0.413619170096E+03   -0.50042E-02   -0.15637E+01  4297   0.722E+00    0.124E+00
RMM:   2    -0.413560675580E+03    0.58495E-01   -0.41156E-01  5402   0.745E-01    0.116E+00
RMM:   3    -0.413569543433E+03   -0.88679E-02   -0.95750E-02  5603   0.338E-01    0.117E+00
RMM:   4    -0.413540931774E+03    0.28612E-01   -0.56336E-02  5210   0.281E-01    0.523E-01
RMM:   5    -0.413540805445E+03    0.12633E-03   -0.50513E-02  4991   0.277E-01    0.276E-01
RMM:   6    -0.413536813949E+03    0.39915E-02   -0.15642E-02  5001   0.158E-01    0.126E-01
RMM:   7    -0.413536198275E+03    0.61567E-03   -0.14920E-03  4705   0.602E-02    0.628E-02
RMM:   8    -0.413536185924E+03    0.12352E-04   -0.65225E-04  5580   0.307E-02    0.401E-02
RMM:   9    -0.413536199522E+03   -0.13598E-04   -0.23804E-04  4878   0.193E-02    0.175E-02
RMM:  10    -0.413536210717E+03   -0.11196E-04   -0.69902E-05  5588   0.101E-02    0.106E-02
RMM:  11    -0.413536219673E+03   -0.89557E-05   -0.23217E-05  4759   0.602E-03    0.675E-03
RMM:  12    -0.413536229701E+03   -0.10028E-04   -0.73751E-06  3365   0.393E-03    0.359E-03
RMM:  13    -0.413536233932E+03   -0.42302E-05   -0.26068E-06  2729   0.236E-03    0.155E-03
RMM:  14    -0.413536238264E+03   -0.43329E-05   -0.16496E-06  2598   0.187E-03    0.878E-04
RMM:  15    -0.413536241156E+03   -0.28915E-05   -0.12371E-06  2441   0.145E-03    0.576E-04
RMM:  16    -0.413536242326E+03   -0.11703E-05   -0.89299E-07  2140   0.115E-03    0.302E-04
RMM:  17    -0.413536242393E+03   -0.66790E-07   -0.94252E-07  2284   0.115E-03
  149 T=   134. E= -.41287681E+03 F= -.41353624E+03 E0= -.41351240E+03  EK= 0.65944E+00 SP= 0.00E+00 SK= 0.00E+00
       N       E                     dE             d eps       ncg     rms          rms(c)
RMM:   1    -0.413511989945E+03    0.24252E-01   -0.13383E+01  4300   0.682E+00    0.101E+00
RMM:   2    -0.413493679812E+03    0.18310E-01   -0.33703E-01  5405   0.677E-01    0.104E+00
RMM:   3    -0.413478476587E+03    0.15203E-01   -0.72669E-02  5534   0.301E-01    0.895E-01
RMM:   4    -0.413465176211E+03    0.13300E-01   -0.34467E-02  5277   0.219E-01    0.472E-01
RMM:   5    -0.413466469714E+03   -0.12935E-02   -0.41609E-02  5045   0.244E-01    0.291E-01
RMM:   6    -0.413462577405E+03    0.38923E-02   -0.14280E-02  5000   0.151E-01    0.126E-01
RMM:   7    -0.413462128108E+03    0.44930E-03   -0.14955E-03  5127   0.570E-02    0.671E-02
RMM:   8    -0.413462095556E+03    0.32552E-04   -0.64623E-04  5652   0.301E-02    0.377E-02
RMM:   9    -0.413462113397E+03   -0.17841E-04   -0.24568E-04  5037   0.190E-02    0.162E-02
RMM:  10    -0.413462131150E+03   -0.17753E-04   -0.68849E-05  5615   0.103E-02    0.102E-02
RMM:  11    -0.413462140778E+03   -0.96284E-05   -0.17125E-05  4384   0.528E-03    0.645E-03
RMM:  12    -0.413462154110E+03   -0.13332E-04   -0.90387E-06  3579   0.428E-03    0.343E-03
RMM:  13    -0.413462159484E+03   -0.53739E-05   -0.27872E-06  2731   0.243E-03    0.151E-03
RMM:  14    -0.413462164605E+03   -0.51214E-05   -0.24501E-06  2708   0.204E-03    0.986E-04
RMM:  15    -0.413462167351E+03   -0.27459E-05   -0.21191E-06  2554   0.174E-03    0.597E-04
RMM:  16    -0.413462167626E+03   -0.27444E-06   -0.17600E-06  2438   0.144E-03
  150 T=   119. E= -.41287870E+03 F= -.41346217E+03 E0= -.41343841E+03  EK= 0.58347E+00 SP= 0.00E+00 SK= 0.00E+00
