       N       E                     dE             d eps       ncg     rms          rms(c)
RMM:   1     0.220170204386E+04    0.22017E+04   -0.52440E+04  2132   0.654E+02
RMM:   2     0.705491313584E+03   -0.14962E+04   -0.16264E+04  2132   0.177E+02
RMM:   3     0.137773530087E+03   -0.56772E+03   -0.65706E+03  2132   0.117E+02
RMM:   4    -0.159296575825E+03   -0.29707E+03   -0.27852E+03  2132   0.936E+01
RMM:   5    -0.287662928776E+03   -0.12837E+03   -0.11437E+03  2132   0.595E+01
RMM:   6    -0.349871562492E+03   -0.62209E+02   -0.55064E+02  2132   0.423E+01
RMM:   7    -0.382784381276E+03   -0.32913E+02   -0.30412E+02  2132   0.293E+01
RMM:   8    -0.404228163212E+03   -0.21444E+02   -0.18424E+02  2132   0.233E+01
RMM:   9    -0.435984180324E+03   -0.31756E+02   -0.30722E+02  6098   0.173E+01
RMM:  10    -0.441256071483E+03   -0.52719E+01   -0.62769E+01  6394   0.539E+00
RMM:  11    -0.442508680458E+03   -0.12526E+01   -0.11346E+01  6221   0.173E+00
RMM:  12    -0.442891197367E+03   -0.38252E+00   -0.27362E+00  6374   0.604E-01    0.134E+02
RMM:  13    -0.425618812996E+03    0.17272E+02   -0.80819E+01  4674   0.119E+01    0.712E+01
RMM:  14    -0.499141907612E+03   -0.73523E+02   -0.53870E+02  5411   0.232E+01    0.306E+01
RMM:  15    -0.414684929383E+03    0.84457E+02   -0.19586E+02  5056   0.163E+01    0.631E+00
RMM:  16    -0.414057236302E+03    0.62769E+00   -0.39309E+01  6078   0.605E+00    0.429E+00
RMM:  17    -0.413222883142E+03    0.83435E+00   -0.23256E+00  5359   0.182E+00    0.246E+00
RMM:  18    -0.413167096812E+03    0.55786E-01   -0.85401E-01  5960   0.958E-01    0.160E+00
RMM:  19    -0.413166885954E+03    0.21086E-03   -0.28878E-01  5748   0.569E-01    0.847E-01
RMM:  20    -0.413180812788E+03   -0.13927E-01   -0.19420E-01  5398   0.483E-01    0.517E-01
RMM:  21    -0.413166448618E+03    0.14364E-01   -0.31913E-02  5021   0.220E-01    0.242E-01
RMM:  22    -0.413165076236E+03    0.13724E-02   -0.13314E-02  6078   0.967E-02    0.143E-01
RMM:  23    -0.413163720790E+03    0.13554E-02   -0.50965E-03  5840   0.654E-02    0.797E-02
RMM:  24    -0.413162520117E+03    0.12007E-02   -0.16617E-03  5547   0.399E-02    0.348E-02
RMM:  25    -0.413162375046E+03    0.14507E-03   -0.78231E-04  5712   0.233E-02    0.298E-02
RMM:  26    -0.413162619804E+03   -0.24476E-03   -0.62504E-04  5788   0.260E-02    0.311E-02
RMM:  27    -0.413163045497E+03   -0.42569E-03   -0.19110E-04  4569   0.193E-02    0.156E-02
RMM:  28    -0.413163554014E+03   -0.50852E-03   -0.19992E-04  5216   0.203E-02    0.879E-03
RMM:  29    -0.413163889853E+03   -0.33584E-03   -0.93337E-05  4360   0.134E-02    0.412E-03
RMM:  30    -0.413164121176E+03   -0.23132E-03   -0.76889E-05  3965   0.100E-02    0.271E-03
RMM:  31    -0.413164212772E+03   -0.91596E-04   -0.43147E-05  3116   0.528E-03    0.237E-03
RMM:  32    -0.413164238781E+03   -0.26009E-04   -0.17042E-05  2914   0.276E-03    0.115E-03
RMM:  33    -0.413164248793E+03   -0.10012E-04   -0.81637E-06  2747   0.198E-03    0.552E-04
RMM:  34    -0.413164252689E+03   -0.38952E-05   -0.38970E-06  2626   0.158E-03    0.879E-04
RMM:  35    -0.413164252769E+03   -0.80152E-07   -0.20854E-06  2058   0.105E-03
    1 T=    61. E= -.41286648E+03 F= -.41316425E+03 E0= -.41314175E+03  EK= 0.29778E+00 SP= 0.00E+00 SK= 0.00E+00
       N       E                     dE             d eps       ncg     rms          rms(c)
RMM:   1    -0.413154612652E+03    0.96400E-02   -0.11171E+01  4007   0.707E-01    0.886E-01
RMM:   2    -0.413165322080E+03   -0.10709E-01   -0.13791E-01  3938   0.101E-01    0.640E-01
RMM:   3    -0.413163881806E+03    0.14403E-02   -0.62827E-03  4698   0.360E-02    0.156E-01
RMM:   4    -0.413181546032E+03   -0.17664E-01   -0.18410E-02  5216   0.113E-01    0.556E-01
RMM:   5    -0.413163570344E+03    0.17976E-01   -0.89219E-03  4858   0.930E-02    0.278E-02
RMM:   6    -0.413163687268E+03   -0.11692E-03   -0.14250E-03  5842   0.364E-02    0.152E-02
RMM:   7    -0.413163701233E+03   -0.13966E-04   -0.17801E-04  5729   0.112E-02    0.115E-02
RMM:   8    -0.413163707343E+03   -0.61097E-05   -0.22653E-05  3975   0.445E-03    0.684E-03
RMM:   9    -0.413163713861E+03   -0.65181E-05   -0.42590E-06  2782   0.252E-03    0.444E-03
RMM:  10    -0.413163721620E+03   -0.77588E-05   -0.17862E-06  2549   0.188E-03    0.234E-03
RMM:  11    -0.413163728841E+03   -0.72216E-05   -0.13331E-06  2533   0.160E-03    0.109E-03
RMM:  12    -0.413163732684E+03   -0.38428E-05   -0.69166E-07  2369   0.117E-03    0.401E-04
RMM:  13    -0.413163734429E+03   -0.17451E-05   -0.37501E-07  1753   0.847E-04    0.225E-04
RMM:  14    -0.413163736693E+03   -0.22636E-05   -0.30223E-07  1468   0.757E-04    0.145E-04
RMM:  15    -0.413163738461E+03   -0.17677E-05   -0.22758E-07  1307   0.698E-04    0.873E-05
RMM:  16    -0.413163739123E+03   -0.66263E-06   -0.16332E-07  1113   0.634E-04
    2 T=    61. E= -.41286610E+03 F= -.41316374E+03 E0= -.41314124E+03  EK= 0.29764E+00 SP= 0.00E+00 SK= 0.00E+00
       N       E                     dE             d eps       ncg     rms          rms(c)
RMM:   1    -0.413155545789E+03    0.81927E-02   -0.11204E+01  4188   0.703E-01    0.911E-01
RMM:   2    -0.413165467803E+03   -0.99220E-02   -0.13507E-01  3998   0.971E-02    0.633E-01
RMM:   3    -0.413164706811E+03    0.76099E-03   -0.67721E-03  4857   0.387E-02    0.170E-01
RMM:   4    -0.413193476749E+03   -0.28770E-01   -0.29153E-02  5190   0.143E-01    0.706E-01
RMM:   5    -0.413164304847E+03    0.29172E-01   -0.14145E-02  4829   0.118E-01    0.366E-02
RMM:   6    -0.413164485895E+03   -0.18105E-03   -0.23116E-03  5813   0.464E-02    0.186E-02
RMM:   7    -0.413164498763E+03   -0.12868E-04   -0.27402E-04  5886   0.137E-02    0.137E-02
RMM:   8    -0.413164499579E+03   -0.81635E-06   -0.35209E-05  4401   0.522E-03    0.851E-03
RMM:   9    -0.413164498832E+03    0.74758E-06   -0.57034E-06  2964   0.272E-03
    3 T=    61. E= -.41286659E+03 F= -.41316450E+03 E0= -.41314200E+03  EK= 0.29791E+00 SP= 0.00E+00 SK= 0.00E+00
       N       E                     dE             d eps       ncg     rms          rms(c)
RMM:   1    -0.413154983198E+03    0.95164E-02   -0.11118E+01  4227   0.705E-01    0.894E-01
RMM:   2    -0.413165575192E+03   -0.10592E-01   -0.13399E-01  4194   0.984E-02    0.627E-01
RMM:   3    -0.413167859845E+03   -0.22847E-02   -0.92146E-03  5175   0.663E-02    0.299E-01
RMM:   4    -0.413193345265E+03   -0.25485E-01   -0.40207E-02  5136   0.169E-01    0.711E-01
RMM:   5    -0.413164116962E+03    0.29228E-01   -0.12226E-02  4733   0.119E-01    0.535E-02
RMM:   6    -0.413164165416E+03   -0.48454E-04   -0.20770E-03  5570   0.455E-02    0.164E-02
RMM:   7    -0.413164189111E+03   -0.23695E-04   -0.29838E-04  6044   0.149E-02    0.119E-02
RMM:   8    -0.413164191891E+03   -0.27797E-05   -0.37539E-05  4709   0.554E-03    0.733E-03
RMM:   9    -0.413164193553E+03   -0.16622E-05   -0.70885E-06  3132   0.363E-03    0.361E-03
RMM:  10    -0.413164195228E+03   -0.16750E-05   -0.18657E-06  2554   0.216E-03    0.219E-03
RMM:  11    -0.413164197060E+03   -0.18321E-05   -0.10245E-06  2541   0.157E-03    0.104E-03
RMM:  12    -0.413164198018E+03   -0.95722E-06   -0.46926E-07  2193   0.107E-03
    4 T=    61. E= -.41286625E+03 F= -.41316420E+03 E0= -.41314171E+03  EK= 0.29795E+00 SP= 0.00E+00 SK= 0.00E+00
       N       E                     dE             d eps       ncg     rms          rms(c)
RMM:   1    -0.413154767780E+03    0.94293E-02   -0.11160E+01  4236   0.710E-01    0.884E-01
RMM:   2    -0.413165698154E+03   -0.10930E-01   -0.13814E-01  3965   0.957E-02    0.639E-01
RMM:   3    -0.413164540941E+03    0.11572E-02   -0.62932E-03  4888   0.358E-02    0.162E-01
RMM:   4    -0.413191250117E+03   -0.26709E-01   -0.27103E-02  5166   0.138E-01    0.682E-01
RMM:   5    -0.413164085327E+03    0.27165E-01   -0.13183E-02  4818   0.114E-01    0.333E-02
RMM:   6    -0.413164257147E+03   -0.17182E-03   -0.21170E-03  5808   0.445E-02    0.164E-02
RMM:   7    -0.413164274098E+03   -0.16952E-04   -0.24732E-04  5838   0.130E-02    0.126E-02
RMM:   8    -0.413164279129E+03   -0.50311E-05   -0.32787E-05  4360   0.508E-03    0.808E-03
RMM:   9    -0.413164283227E+03   -0.40980E-05   -0.52609E-06  2915   0.270E-03    0.547E-03
RMM:  10    -0.413164289620E+03   -0.63930E-05   -0.20026E-06  2559   0.206E-03    0.278E-03
RMM:  11    -0.413164295362E+03   -0.57417E-05   -0.14703E-06  2552   0.176E-03    0.140E-03
RMM:  12    -0.413164298761E+03   -0.33995E-05   -0.72556E-07  2419   0.132E-03    0.503E-04
RMM:  13    -0.413164300008E+03   -0.12467E-05   -0.31867E-07  1967   0.913E-04    0.298E-04
RMM:  14    -0.413164301441E+03   -0.14331E-05   -0.21650E-07  1496   0.769E-04    0.171E-04
RMM:  15    -0.413164303192E+03   -0.17503E-05   -0.22525E-07  1553   0.756E-04    0.147E-04
RMM:  16    -0.413164303461E+03   -0.26980E-06   -0.93339E-08  1086   0.624E-04
    5 T=    61. E= -.41286616E+03 F= -.41316430E+03 E0= -.41314183E+03  EK= 0.29814E+00 SP= 0.00E+00 SK= 0.00E+00
       N       E                     dE             d eps       ncg     rms          rms(c)
RMM:   1    -0.413155735382E+03    0.85678E-02   -0.11216E+01  4248   0.716E-01    0.907E-01
RMM:   2    -0.413166075718E+03   -0.10340E-01   -0.13518E-01  4001   0.966E-02    0.635E-01
RMM:   3    -0.413165126799E+03    0.94892E-03   -0.65677E-03  4833   0.374E-02    0.168E-01
RMM:   4    -0.413192652952E+03   -0.27526E-01   -0.27747E-02  5167   0.139E-01    0.692E-01
RMM:   5    -0.413164726014E+03    0.27927E-01   -0.13609E-02  4820   0.115E-01    0.352E-02
RMM:   6    -0.413164894472E+03   -0.16846E-03   -0.21558E-03  5781   0.450E-02    0.180E-02
RMM:   7    -0.413164906099E+03   -0.11627E-04   -0.25598E-04  5855   0.133E-02    0.133E-02
RMM:   8    -0.413164907131E+03   -0.10322E-05   -0.32504E-05  4336   0.509E-03    0.824E-03
RMM:   9    -0.413164906634E+03    0.49688E-06   -0.53691E-06  2919   0.269E-03
    6 T=    61. E= -.41286643E+03 F= -.41316491E+03 E0= -.41314244E+03  EK= 0.29848E+00 SP= 0.00E+00 SK= 0.00E+00
       N       E                     dE             d eps       ncg     rms          rms(c)
RMM:   1    -0.413155493039E+03    0.94141E-02   -0.11158E+01  4266   0.725E-01    0.902E-01
RMM:   2    -0.413165371111E+03   -0.98781E-02   -0.13456E-01  4237   0.998E-02    0.628E-01
RMM:   3    -0.413167662404E+03   -0.22913E-02   -0.90672E-03  5146   0.636E-02    0.287E-01
RMM:   4    -0.413195256562E+03   -0.27594E-01   -0.40916E-02  5126   0.170E-01    0.730E-01
RMM:   5    -0.413164357730E+03    0.30899E-01   -0.13113E-02  4742   0.121E-01    0.532E-02
RMM:   6    -0.413164422957E+03   -0.65228E-04   -0.22211E-03  5603   0.468E-02    0.164E-02
RMM:   7    -0.413164447338E+03   -0.24381E-04   -0.30662E-04  6036   0.150E-02    0.120E-02
RMM:   8    -0.413164448969E+03   -0.16316E-05   -0.38939E-05  4691   0.557E-03    0.742E-03
RMM:   9    -0.413164447484E+03    0.14853E-05   -0.66310E-06  2993   0.348E-03    0.352E-03
RMM:  10    -0.413164447428E+03    0.56149E-07   -0.19561E-06  2552   0.215E-03
    7 T=    61. E= -.41286601E+03 F= -.41316445E+03 E0= -.41314200E+03  EK= 0.29844E+00 SP= 0.00E+00 SK= 0.00E+00
       N       E                     dE             d eps       ncg     rms          rms(c)
RMM:   1    -0.413155560477E+03    0.88870E-02   -0.11151E+01  4274   0.726E-01    0.883E-01
RMM:   2    -0.413166589844E+03   -0.11029E-01   -0.13731E-01  4070   0.955E-02    0.636E-01
RMM:   3    -0.413165785816E+03    0.80403E-03   -0.65511E-03  5022   0.413E-02    0.182E-01
RMM:   4    -0.413207570810E+03   -0.41785E-01   -0.43834E-02  5151   0.174E-01    0.849E-01
RMM:   5    -0.413164975023E+03    0.42596E-01   -0.20449E-02  4808   0.142E-01    0.443E-02
RMM:   6    -0.413165194204E+03   -0.21918E-03   -0.32618E-03  5766   0.554E-02    0.168E-02
RMM:   7    -0.413165222833E+03   -0.28629E-04   -0.39105E-04  5963   0.158E-02    0.138E-02
RMM:   8    -0.413165227469E+03   -0.46364E-05   -0.45197E-05  4477   0.566E-03    0.857E-03
RMM:   9    -0.413165230705E+03   -0.32359E-05   -0.70449E-06  2996   0.283E-03    0.571E-03
RMM:  10    -0.413165235807E+03   -0.51017E-05   -0.26340E-06  2582   0.227E-03    0.276E-03
RMM:  11    -0.413165239770E+03   -0.39636E-05   -0.14602E-06  2541   0.177E-03    0.131E-03
RMM:  12    -0.413165242176E+03   -0.24055E-05   -0.83372E-07  2455   0.136E-03    0.425E-04
RMM:  13    -0.413165243520E+03   -0.13444E-05   -0.39336E-07  2033   0.973E-04    0.285E-04
RMM:  14    -0.413165244748E+03   -0.12283E-05   -0.29429E-07  1630   0.821E-04    0.194E-04
RMM:  15    -0.413165245446E+03   -0.69714E-06   -0.19453E-07  1348   0.725E-04
    8 T=    61. E= -.41286657E+03 F= -.41316525E+03 E0= -.41314282E+03  EK= 0.29868E+00 SP= 0.00E+00 SK= 0.00E+00
       N       E                     dE             d eps       ncg     rms          rms(c)
RMM:   1    -0.413156040495E+03    0.92043E-02   -0.11215E+01  4285   0.729E-01    0.901E-01
RMM:   2    -0.413166475752E+03   -0.10435E-01   -0.13648E-01  4148   0.102E-01    0.638E-01
RMM:   3    -0.413165562196E+03    0.91356E-03   -0.65286E-03  4840   0.384E-02    0.167E-01
RMM:   4    -0.413194409646E+03   -0.28847E-01   -0.29269E-02  5153   0.142E-01    0.709E-01
RMM:   5    -0.413165044199E+03    0.29365E-01   -0.14359E-02  4811   0.118E-01    0.351E-02
RMM:   6    -0.413165224595E+03   -0.18040E-03   -0.22665E-03  5795   0.461E-02    0.176E-02
RMM:   7    -0.413165237124E+03   -0.12529E-04   -0.26940E-04  5849   0.135E-02    0.132E-02
RMM:   8    -0.413165238230E+03   -0.11057E-05   -0.33903E-05  4355   0.518E-03    0.839E-03
RMM:   9    -0.413165237956E+03    0.27411E-06   -0.55838E-06  2912   0.276E-03
    9 T=    61. E= -.41286640E+03 F= -.41316524E+03 E0= -.41314283E+03  EK= 0.29884E+00 SP= 0.00E+00 SK= 0.00E+00
       N       E                     dE             d eps       ncg     rms          rms(c)
RMM:   1    -0.413156541030E+03    0.86972E-02   -0.11200E+01  4292   0.734E-01    0.909E-01
RMM:   2    -0.413166220003E+03   -0.96790E-02   -0.13452E-01  4252   0.990E-02    0.629E-01
RMM:   3    -0.413169089950E+03   -0.28699E-02   -0.96229E-03  5140   0.673E-02    0.303E-01
RMM:   4    -0.413193381207E+03   -0.24291E-01   -0.39036E-02  5109   0.167E-01    0.698E-01
RMM:   5    -0.413165389179E+03    0.27992E-01   -0.11786E-02  4728   0.116E-01    0.524E-02
RMM:   6    -0.413165435099E+03   -0.45920E-04   -0.19812E-03  5573   0.441E-02    0.170E-02
RMM:   7    -0.413165453858E+03   -0.18760E-04   -0.27891E-04  6041   0.145E-02    0.121E-02
RMM:   8    -0.413165454078E+03   -0.21965E-06   -0.35343E-05  4666   0.544E-03    0.736E-03
RMM:   9    -0.413165450159E+03    0.39188E-05   -0.69040E-06  3041   0.360E-03    0.357E-03
RMM:  10    -0.413165448899E+03    0.12607E-05   -0.18369E-06  2555   0.213E-03    0.210E-03
RMM:  11    -0.413165447438E+03    0.14610E-05   -0.99309E-07  2529   0.155E-03    0.101E-03
RMM:  12    -0.413165446420E+03    0.10175E-05   -0.46690E-07  2167   0.106E-03    0.469E-04
RMM:  13    -0.413165445164E+03    0.12563E-05   -0.36022E-07  1785   0.888E-04    0.225E-04
RMM:  14    -0.413165444411E+03    0.75316E-06   -0.19655E-07  1382   0.726E-04
   10 T=    61. E= -.41286630E+03 F= -.41316544E+03 E0= -.41314306E+03  EK= 0.29915E+00 SP= 0.00E+00 SK= 0.00E+00
       N       E                     dE             d eps       ncg     rms          rms(c)
RMM:   1    -0.413156601349E+03    0.88438E-02   -0.11154E+01  4290   0.736E-01    0.884E-01
RMM:   2    -0.413167646452E+03   -0.11045E-01   -0.13633E-01  4196   0.979E-02    0.633E-01
RMM:   3    -0.413166591550E+03    0.10549E-02   -0.62900E-03  4904   0.405E-02    0.172E-01
RMM:   4    -0.413200936466E+03   -0.34345E-01   -0.35232E-02  5146   0.156E-01    0.772E-01
RMM:   5    -0.413165921999E+03    0.35014E-01   -0.17125E-02  4807   0.129E-01    0.382E-02
RMM:   6    -0.413166122670E+03   -0.20067E-03   -0.26669E-03  5763   0.501E-02    0.177E-02
RMM:   7    -0.413166139838E+03   -0.17168E-04   -0.31901E-04  5888   0.146E-02    0.137E-02
RMM:   8    -0.413166141912E+03   -0.20732E-05   -0.39066E-05  4441   0.544E-03    0.872E-03
RMM:   9    -0.413166142508E+03   -0.59665E-06   -0.63758E-06  2979   0.282E-03
   11 T=    61. E= -.41286649E+03 F= -.41316614E+03 E0= -.41314378E+03  EK= 0.29966E+00 SP= 0.00E+00 SK= 0.00E+00
       N       E                     dE             d eps       ncg     rms          rms(c)
RMM:   1    -0.413156599568E+03    0.95423E-02   -0.11236E+01  4294   0.743E-01    0.896E-01
RMM:   2    -0.413167243526E+03   -0.10644E-01   -0.13812E-01  4255   0.994E-02    0.641E-01
RMM:   3    -0.413169708242E+03   -0.24647E-02   -0.93087E-03  5139   0.668E-02    0.302E-01
RMM:   4    -0.413198180501E+03   -0.28472E-01   -0.44074E-02  5106   0.176E-01    0.745E-01
RMM:   5    -0.413165851497E+03    0.32329E-01   -0.13694E-02  4724   0.124E-01    0.537E-02
RMM:   6    -0.413165920058E+03   -0.68561E-04   -0.23074E-03  5596   0.473E-02    0.151E-02
RMM:   7    -0.413165946510E+03   -0.26452E-04   -0.31401E-04  6032   0.152E-02    0.116E-02
RMM:   8    -0.413165949887E+03   -0.33766E-05   -0.39238E-05  4703   0.557E-03    0.721E-03
RMM:   9    -0.413165952033E+03   -0.21459E-05   -0.71217E-06  3074   0.360E-03    0.370E-03
RMM:  10    -0.413165953775E+03   -0.17418E-05   -0.21161E-06  2565   0.220E-03    0.222E-03
RMM:  11    -0.413165955298E+03   -0.15237E-05   -0.11636E-06  2545   0.161E-03    0.105E-03
RMM:  12    -0.413165955965E+03   -0.66682E-06   -0.51143E-07  2212   0.108E-03
   12 T=    61. E= -.41286599E+03 F= -.41316596E+03 E0= -.41314362E+03  EK= 0.29996E+00 SP= 0.00E+00 SK= 0.00E+00
       N       E                     dE             d eps       ncg     rms          rms(c)
RMM:   1    -0.413157650088E+03    0.83052E-02   -0.11263E+01  4297   0.747E-01    0.914E-01
RMM:   2    -0.413167571584E+03   -0.99215E-02   -0.13491E-01  4205   0.936E-02    0.631E-01
RMM:   3    -0.413166996415E+03    0.57517E-03   -0.68076E-03  4935   0.380E-02    0.176E-01
RMM:   4    -0.413199819531E+03   -0.32823E-01   -0.33473E-02  5147   0.152E-01    0.754E-01
RMM:   5    -0.413166486176E+03    0.33333E-01   -0.16299E-02  4805   0.126E-01    0.387E-02
RMM:   6    -0.413166681370E+03   -0.19519E-03   -0.25984E-03  5796   0.489E-02    0.195E-02
RMM:   7    -0.413166692498E+03   -0.11127E-04   -0.30351E-04  5886   0.144E-02    0.144E-02
RMM:   8    -0.413166690399E+03    0.20988E-05   -0.39262E-05  4504   0.551E-03    0.933E-03
RMM:   9    -0.413166685903E+03    0.44959E-05   -0.63944E-06  3002   0.285E-03    0.631E-03
RMM:  10    -0.413166681669E+03    0.42339E-05   -0.22046E-06  2564   0.218E-03    0.314E-03
RMM:  11    -0.413166678353E+03    0.33159E-05   -0.16064E-06  2536   0.189E-03    0.153E-03
RMM:  12    -0.413166675734E+03    0.26194E-05   -0.78648E-07  2448   0.142E-03    0.510E-04
RMM:  13    -0.413166674868E+03    0.86565E-06   -0.33988E-07  2107   0.965E-04
   13 T=    61. E= -.41286615E+03 F= -.41316667E+03 E0= -.41314437E+03  EK= 0.30053E+00 SP= 0.00E+00 SK= 0.00E+00
       N       E                     dE             d eps       ncg     rms          rms(c)
RMM:   1    -0.413157678220E+03    0.89975E-02   -0.11179E+01  4296   0.748E-01    0.888E-01
RMM:   2    -0.413168345319E+03   -0.10667E-01   -0.13689E-01  4215   0.960E-02    0.632E-01
RMM:   3    -0.413167485184E+03    0.86013E-03   -0.63170E-03  4875   0.368E-02    0.168E-01
RMM:   4    -0.413195849135E+03   -0.28364E-01   -0.28926E-02  5145   0.142E-01    0.703E-01
RMM:   5    -0.413166959681E+03    0.28889E-01   -0.14191E-02  4809   0.117E-01    0.345E-02
RMM:   6    -0.413167135634E+03   -0.17595E-03   -0.22407E-03  5796   0.456E-02    0.173E-02
RMM:   7    -0.413167147243E+03   -0.11610E-04   -0.25985E-04  5829   0.134E-02    0.131E-02
RMM:   8    -0.413167147098E+03    0.14514E-06   -0.33784E-05  4379   0.518E-03    0.846E-03
RMM:   9    -0.413167145296E+03    0.18022E-05   -0.54631E-06  2912   0.274E-03    0.580E-03
RMM:  10    -0.413167144479E+03    0.81677E-06   -0.20646E-06  2563   0.212E-03
   14 T=    61. E= -.41286618E+03 F= -.41316714E+03 E0= -.41314488E+03  EK= 0.30096E+00 SP= 0.00E+00 SK= 0.00E+00
       N       E                     dE             d eps       ncg     rms          rms(c)
RMM:   1    -0.413157705539E+03    0.94398E-02   -0.11267E+01  4307   0.756E-01    0.892E-01
RMM:   2    -0.413169094027E+03   -0.11388E-01   -0.13923E-01  4278   0.996E-02    0.643E-01
RMM:   3    -0.413170728012E+03   -0.16340E-02   -0.88830E-03  5122   0.645E-02    0.289E-01
RMM:   4    -0.413202957534E+03   -0.32230E-01   -0.46602E-02  5111   0.181E-01    0.781E-01
RMM:   5    -0.413167285725E+03    0.35672E-01   -0.15419E-02  4743   0.129E-01    0.510E-02
RMM:   6    -0.413167389694E+03   -0.10397E-03   -0.25039E-03  5634   0.493E-02    0.143E-02
RMM:   7    -0.413167416642E+03   -0.26948E-04   -0.32326E-04  6019   0.151E-02    0.116E-02
RMM:   8    -0.413167420001E+03   -0.33595E-05   -0.39736E-05  4636   0.554E-03    0.702E-03
RMM:   9    -0.413167421454E+03   -0.14522E-05   -0.61812E-06  2879   0.321E-03    0.343E-03
RMM:  10    -0.413167422986E+03   -0.15324E-05   -0.23301E-06  2572   0.214E-03    0.199E-03
RMM:  11    -0.413167424034E+03   -0.10480E-05   -0.10463E-06  2531   0.149E-03    0.881E-04
RMM:  12    -0.413167424622E+03   -0.58776E-06   -0.51667E-07  1967   0.104E-03
   15 T=    61. E= -.41286620E+03 F= -.41316742E+03 E0= -.41314519E+03  EK= 0.30123E+00 SP= 0.00E+00 SK= 0.00E+00
       N       E                     dE             d eps       ncg     rms          rms(c)
RMM:   1    -0.413159495548E+03    0.79285E-02   -0.11308E+01  4303   0.767E-01    0.916E-01
RMM:   2    -0.413169360027E+03   -0.98645E-02   -0.13623E-01  4241   0.101E-01    0.635E-01
RMM:   3    -0.413168698572E+03    0.66146E-03   -0.68053E-03  4916   0.397E-02    0.176E-01
RMM:   4    -0.413201832440E+03   -0.33134E-01   -0.33947E-02  5145   0.153E-01    0.758E-01
RMM:   5    -0.413168093975E+03    0.33738E-01   -0.16483E-02  4806   0.127E-01    0.386E-02
RMM:   6    -0.413168290613E+03   -0.19664E-03   -0.26616E-03  5790   0.495E-02    0.194E-02
RMM:   7    -0.413168300085E+03   -0.94723E-05   -0.30513E-04  5891   0.146E-02    0.144E-02
RMM:   8    -0.413168296932E+03    0.31535E-05   -0.39490E-05  4537   0.556E-03    0.948E-03
RMM:   9    -0.413168291460E+03    0.54716E-05   -0.63411E-06  2989   0.287E-03    0.648E-03
RMM:  10    -0.413168286193E+03    0.52667E-05   -0.22135E-06  2558   0.223E-03    0.325E-03
RMM:  11    -0.413168282015E+03    0.41784E-05   -0.17011E-06  2544   0.194E-03    0.156E-03
RMM:  12    -0.413168278985E+03    0.30295E-05   -0.78329E-07  2453   0.143E-03    0.524E-04
RMM:  13    -0.413168277952E+03    0.10330E-05   -0.33876E-07  2118   0.974E-04    0.332E-04
RMM:  14    -0.413168276601E+03    0.13515E-05   -0.19599E-07  1607   0.776E-04    0.188E-04
RMM:  15    -0.413168273991E+03    0.26093E-05   -0.20639E-07  1601   0.764E-04    0.161E-04
RMM:  16    -0.413168273380E+03    0.61139E-06   -0.76653E-08  1047   0.613E-04
   16 T=    61. E= -.41286649E+03 F= -.41316827E+03 E0= -.41314608E+03  EK= 0.30178E+00 SP= 0.00E+00 SK= 0.00E+00
       N       E                     dE             d eps       ncg     rms          rms(c)
RMM:   1    -0.413159424315E+03    0.88497E-02   -0.11220E+01  4298   0.760E-01    0.895E-01
RMM:   2    -0.413170000352E+03   -0.10576E-01   -0.13690E-01  4240   0.999E-02    0.631E-01
RMM:   3    -0.413169050498E+03    0.94985E-03   -0.64563E-03  4888   0.418E-02    0.176E-01
RMM:   4    -0.413203658294E+03   -0.34608E-01   -0.35474E-02  5143   0.156E-01    0.773E-01
RMM:   5    -0.413168514141E+03    0.35144E-01   -0.17219E-02  4796   0.129E-01    0.387E-02
RMM:   6    -0.413168721424E+03   -0.20728E-03   -0.27846E-03  5794   0.502E-02    0.188E-02
RMM:   7    -0.413168733816E+03   -0.12392E-04   -0.31765E-04  5876   0.147E-02    0.142E-02
RMM:   8    -0.413168732065E+03    0.17513E-05   -0.39822E-05  4503   0.551E-03    0.921E-03
RMM:   9    -0.413168728150E+03    0.39146E-05   -0.65612E-06  3001   0.284E-03    0.634E-03
RMM:  10    -0.413168724666E+03    0.34843E-05   -0.22236E-06  2558   0.221E-03    0.316E-03
RMM:  11    -0.413168722160E+03    0.25059E-05   -0.15989E-06  2535   0.190E-03    0.156E-03
RMM:  12    -0.413168720298E+03    0.18622E-05   -0.77049E-07  2448   0.142E-03    0.531E-04
RMM:  13    -0.413168719642E+03    0.65543E-06   -0.33586E-07  2117   0.971E-04
   17 T=    62. E= -.41286636E+03 F= -.41316872E+03 E0= -.41314656E+03  EK= 0.30236E+00 SP= 0.00E+00 SK= 0.00E+00
       N       E                     dE             d eps       ncg     rms          rms(c)
RMM:   1    -0.413159557932E+03    0.91624E-02   -0.11303E+01  4299   0.770E-01    0.890E-01
RMM:   2    -0.413171001352E+03   -0.11443E-01   -0.13961E-01  4252   0.101E-01    0.643E-01
RMM:   3    -0.413169670163E+03    0.13312E-02   -0.63084E-03  4906   0.395E-02    0.172E-01
RMM:   4    -0.413203673711E+03   -0.34004E-01   -0.35033E-02  5146   0.155E-01    0.767E-01
RMM:   5    -0.413169034118E+03    0.34640E-01   -0.16971E-02  4799   0.128E-01    0.377E-02
RMM:   6    -0.413169238905E+03   -0.20479E-03   -0.27482E-03  5783   0.500E-02    0.177E-02
RMM:   7    -0.413169254547E+03   -0.15642E-04   -0.31108E-04  5872   0.146E-02    0.137E-02
RMM:   8    -0.413169255293E+03   -0.74544E-06   -0.39769E-05  4511   0.551E-03    0.897E-03
RMM:   9    -0.413169254020E+03    0.12726E-05   -0.64949E-06  2994   0.287E-03    0.616E-03
RMM:  10    -0.413169254141E+03   -0.12061E-06   -0.23503E-06  2571   0.224E-03
   18 T=    62. E= -.41286614E+03 F= -.41316925E+03 E0= -.41314714E+03  EK= 0.30311E+00 SP= 0.00E+00 SK= 0.00E+00
       N       E                     dE             d eps       ncg     rms          rms(c)
RMM:   1    -0.413161279284E+03    0.79747E-02   -0.11367E+01  4306   0.772E-01    0.915E-01
RMM:   2    -0.413171391397E+03   -0.10112E-01   -0.13823E-01  4300   0.100E-01    0.639E-01
RMM:   3    -0.413174433514E+03   -0.30421E-02   -0.98514E-03  5124   0.693E-02    0.316E-01
RMM:   4    -0.413198632889E+03   -0.24199E-01   -0.40709E-02  5091   0.170E-01    0.701E-01
RMM:   5    -0.413170227185E+03    0.28406E-01   -0.11812E-02  4703   0.116E-01    0.496E-02
RMM:   6    -0.413170286956E+03   -0.59772E-04   -0.19965E-03  5581   0.437E-02    0.162E-02
RMM:   7    -0.413170300705E+03   -0.13749E-04   -0.26072E-04  5996   0.140E-02    0.116E-02
RMM:   8    -0.413170298624E+03    0.20810E-05   -0.32740E-05  4507   0.525E-03    0.695E-03
RMM:   9    -0.413170291020E+03    0.76038E-05   -0.57879E-06  2839   0.333E-03    0.331E-03
RMM:  10    -0.413170287401E+03    0.36190E-05   -0.18237E-06  2538   0.204E-03    0.188E-03
RMM:  11    -0.413170283640E+03    0.37614E-05   -0.88932E-07  2515   0.146E-03    0.892E-04
RMM:  12    -0.413170281412E+03    0.22276E-05   -0.44195E-07  1983   0.103E-03    0.463E-04
RMM:  13    -0.413170278612E+03    0.28000E-05   -0.34274E-07  1887   0.911E-04    0.241E-04
RMM:  14    -0.413170277239E+03    0.13733E-05   -0.17992E-07  1390   0.717E-04    0.147E-04
RMM:  15    -0.413170274367E+03    0.28719E-05   -0.20222E-07  1563   0.745E-04    0.988E-05
RMM:  16    -0.413170272672E+03    0.16955E-05   -0.11896E-07  1228   0.643E-04    0.861E-05
RMM:  17    -0.413170270581E+03    0.20911E-05   -0.10445E-07  1249   0.631E-04    0.472E-05
RMM:  18    -0.413170268735E+03    0.18460E-05   -0.70809E-08  1034   0.576E-04    0.274E-05
RMM:  19    -0.413170268398E+03    0.33635E-06   -0.32248E-08   799   0.527E-04
   19 T=    62. E= -.41286618E+03 F= -.41317027E+03 E0= -.41314819E+03  EK= 0.30409E+00 SP= 0.00E+00 SK= 0.00E+00
       N       E                     dE             d eps       ncg     rms          rms(c)
RMM:   1    -0.413161546583E+03    0.87222E-02   -0.11321E+01  4298   0.783E-01    0.905E-01
RMM:   2    -0.413172017566E+03   -0.10471E-01   -0.13730E-01  4243   0.100E-01    0.632E-01
RMM:   3    -0.413171394002E+03    0.62356E-03   -0.66446E-03  4964   0.415E-02    0.187E-01
RMM:   4    -0.413211100250E+03   -0.39706E-01   -0.41638E-02  5141   0.169E-01    0.827E-01
RMM:   5    -0.413170649396E+03    0.40451E-01   -0.19752E-02  4790   0.139E-01    0.427E-02
RMM:   6    -0.413170870907E+03   -0.22151E-03   -0.31904E-03  5766   0.539E-02    0.195E-02
RMM:   7    -0.413170884556E+03   -0.13649E-04   -0.36907E-04  5868   0.157E-02    0.149E-02
RMM:   8    -0.413170881722E+03    0.28339E-05   -0.46000E-05  4650   0.586E-03    0.967E-03
RMM:   9    -0.413170875995E+03    0.57273E-05   -0.73082E-06  3051   0.293E-03    0.655E-03
RMM:  10    -0.413170870182E+03    0.58129E-05   -0.24126E-06  2559   0.229E-03    0.319E-03
RMM:  11    -0.413170866059E+03    0.41222E-05   -0.15778E-06  2524   0.192E-03    0.157E-03
RMM:  12    -0.413170863086E+03    0.29731E-05   -0.78368E-07  2455   0.145E-03    0.520E-04
RMM:  13    -0.413170862069E+03    0.10170E-05   -0.34635E-07  2135   0.997E-04    0.331E-04
RMM:  14    -0.413170860937E+03    0.11324E-05   -0.18849E-07  1640   0.778E-04    0.192E-04
RMM:  15    -0.413170858450E+03    0.24873E-05   -0.17930E-07  1578   0.754E-04    0.145E-04
RMM:  16    -0.413170857938E+03    0.51166E-06   -0.71745E-08  1050   0.614E-04
   20 T=    62. E= -.41286598E+03 F= -.41317086E+03 E0= -.41314882E+03  EK= 0.30488E+00 SP= 0.00E+00 SK= 0.00E+00
       N       E                     dE             d eps       ncg     rms          rms(c)
RMM:   1    -0.413162152321E+03    0.87061E-02   -0.11364E+01  4299   0.785E-01    0.891E-01
RMM:   2    -0.413173274207E+03   -0.11122E-01   -0.14145E-01  4248   0.102E-01    0.644E-01
RMM:   3    -0.413172171741E+03    0.11025E-02   -0.64010E-03  4928   0.402E-02    0.177E-01
RMM:   4    -0.413209333309E+03   -0.37162E-01   -0.38586E-02  5141   0.163E-01    0.801E-01
RMM:   5    -0.413171444751E+03    0.37889E-01   -0.18592E-02  4797   0.134E-01    0.394E-02
RMM:   6    -0.413171665131E+03   -0.22038E-03   -0.30220E-03  5793   0.523E-02    0.182E-02
RMM:   7    -0.413171681759E+03   -0.16627E-04   -0.34104E-04  5882   0.152E-02    0.141E-02
RMM:   8    -0.413171681647E+03    0.11150E-06   -0.43418E-05  4590   0.571E-03    0.937E-03
RMM:   9    -0.413171678996E+03    0.26515E-05   -0.69188E-06  3020   0.291E-03    0.650E-03
RMM:  10    -0.413171677402E+03    0.15936E-05   -0.24323E-06  2566   0.231E-03    0.324E-03
RMM:  11    -0.413171676543E+03    0.85932E-06   -0.17777E-06  2552   0.198E-03
   21 T=    62. E= -.41286600E+03 F= -.41317168E+03 E0= -.41314969E+03  EK= 0.30568E+00 SP= 0.00E+00 SK= 0.00E+00
       N       E                     dE             d eps       ncg     rms          rms(c)
RMM:   1    -0.413163320259E+03    0.83571E-02   -0.11438E+01  4300   0.785E-01    0.912E-01
RMM:   2    -0.413174152816E+03   -0.10833E-01   -0.14019E-01  4275   0.996E-02    0.643E-01
RMM:   3    -0.413174114840E+03    0.37976E-04   -0.72259E-03  5047   0.485E-02    0.215E-01
RMM:   4    -0.413219530096E+03   -0.45415E-01   -0.51149E-02  5136   0.187E-01    0.888E-01
RMM:   5    -0.413172726196E+03    0.46804E-01   -0.22229E-02  4783   0.149E-01    0.475E-02
RMM:   6    -0.413172947557E+03   -0.22136E-03   -0.35867E-03  5760   0.576E-02    0.187E-02
RMM:   7    -0.413172967934E+03   -0.20377E-04   -0.42177E-04  5952   0.168E-02    0.151E-02
RMM:   8    -0.413172965865E+03    0.20687E-05   -0.51718E-05  4783   0.614E-03    0.970E-03
RMM:   9    -0.413172959993E+03    0.58722E-05   -0.77313E-06  3068   0.301E-03    0.608E-03
RMM:  10    -0.413172954381E+03    0.56118E-05   -0.27167E-06  2580   0.239E-03    0.287E-03
RMM:  11    -0.413172950223E+03    0.41582E-05   -0.14293E-06  2520   0.184E-03    0.137E-03
RMM:  12    -0.413172947011E+03    0.32124E-05   -0.75407E-07  2452   0.139E-03    0.449E-04
RMM:  13    -0.413172945300E+03    0.17105E-05   -0.34211E-07  2102   0.978E-04    0.297E-04
RMM:  14    -0.413172943016E+03    0.22837E-05   -0.21880E-07  1642   0.797E-04    0.190E-04
RMM:  15    -0.413172940806E+03    0.22101E-05   -0.15083E-07  1437   0.715E-04    0.105E-04
RMM:  16    -0.413172939941E+03    0.86474E-06   -0.80953E-08  1125   0.626E-04
   22 T=    62. E= -.41286646E+03 F= -.41317294E+03 E0= -.41315100E+03  EK= 0.30648E+00 SP= 0.00E+00 SK= 0.00E+00
       N       E                     dE             d eps       ncg     rms          rms(c)
RMM:   1    -0.413164391295E+03    0.85495E-02   -0.11425E+01  4298   0.792E-01    0.915E-01
RMM:   2    -0.413174681445E+03   -0.10290E-01   -0.13863E-01  4271   0.108E-01    0.635E-01
RMM:   3    -0.413174028949E+03    0.65250E-03   -0.67650E-03  4893   0.432E-02    0.183E-01
RMM:   4    -0.413210908602E+03   -0.36880E-01   -0.38066E-02  5145   0.162E-01    0.797E-01
RMM:   5    -0.413173391157E+03    0.37517E-01   -0.18372E-02  4797   0.134E-01    0.403E-02
RMM:   6    -0.413173590264E+03   -0.19911E-03   -0.29780E-03  5794   0.519E-02    0.201E-02
RMM:   7    -0.413173599274E+03   -0.90099E-05   -0.32632E-04  5873   0.152E-02    0.148E-02
RMM:   8    -0.413173595046E+03    0.42277E-05   -0.43373E-05  4648   0.581E-03    0.986E-03
RMM:   9    -0.413173587335E+03    0.77116E-05   -0.71220E-06  3061   0.301E-03    0.669E-03
RMM:  10    -0.413173579426E+03    0.79092E-05   -0.22792E-06  2555   0.232E-03    0.334E-03
RMM:  11    -0.413173572967E+03    0.64584E-05   -0.16704E-06  2530   0.199E-03    0.166E-03
RMM:  12    -0.413173568380E+03    0.45871E-05   -0.79216E-07  2455   0.148E-03    0.557E-04
RMM:  13    -0.413173566781E+03    0.15997E-05   -0.35023E-07  2150   0.100E-03    0.347E-04
RMM:  14    -0.413173564980E+03    0.18007E-05   -0.18905E-07  1643   0.780E-04    0.198E-04
RMM:  15    -0.413173561041E+03    0.39393E-05   -0.18302E-07  1683   0.767E-04    0.182E-04
RMM:  16    -0.413173560350E+03    0.69108E-06   -0.71135E-08  1042   0.605E-04
   23 T=    63. E= -.41286632E+03 F= -.41317356E+03 E0= -.41315167E+03  EK= 0.30724E+00 SP= 0.00E+00 SK= 0.00E+00
       N       E                     dE             d eps       ncg     rms          rms(c)
RMM:   1    -0.413165284640E+03    0.82764E-02   -0.11418E+01  4294   0.794E-01    0.893E-01
RMM:   2    -0.413176739753E+03   -0.11455E-01   -0.14196E-01  4270   0.104E-01    0.643E-01
RMM:   3    -0.413175415098E+03    0.13247E-02   -0.62533E-03  4802   0.406E-02    0.172E-01
RMM:   4    -0.413204228237E+03   -0.28813E-01   -0.29377E-02  5150   0.142E-01    0.707E-01
RMM:   5    -0.413174976744E+03    0.29251E-01   -0.14464E-02  4802   0.117E-01    0.340E-02
RMM:   6    -0.413175135379E+03   -0.15864E-03   -0.23134E-03  5809   0.453E-02    0.174E-02
RMM:   7    -0.413175145275E+03   -0.98962E-05   -0.24213E-04  5782   0.132E-02    0.125E-02
RMM:   8    -0.413175144169E+03    0.11066E-05   -0.34763E-05  4487   0.524E-03    0.881E-03
RMM:   9    -0.413175139613E+03    0.45558E-05   -0.60479E-06  3022   0.289E-03    0.599E-03
RMM:  10    -0.413175136482E+03    0.31304E-05   -0.19575E-06  2550   0.214E-03    0.310E-03
RMM:  11    -0.413175134092E+03    0.23903E-05   -0.15533E-06  2535   0.189E-03    0.158E-03
RMM:  12    -0.413175132237E+03    0.18550E-05   -0.70769E-07  2431   0.138E-03    0.562E-04
RMM:  13    -0.413175131614E+03    0.62352E-06   -0.30061E-07  2053   0.933E-04
   24 T=    63. E= -.41286663E+03 F= -.41317513E+03 E0= -.41315328E+03  EK= 0.30850E+00 SP= 0.00E+00 SK= 0.00E+00
       N       E                     dE             d eps       ncg     rms          rms(c)
RMM:   1    -0.413166474567E+03    0.86577E-02   -0.11534E+01  4297   0.803E-01    0.909E-01
RMM:   2    -0.413177789824E+03   -0.11315E-01   -0.14190E-01  4270   0.107E-01    0.648E-01
RMM:   3    -0.413176454810E+03    0.13350E-02   -0.64081E-03  4839   0.418E-02    0.175E-01
RMM:   4    -0.413207055157E+03   -0.30600E-01   -0.31088E-02  5149   0.147E-01    0.727E-01
RMM:   5    -0.413175992437E+03    0.31063E-01   -0.15314E-02  4801   0.121E-01    0.353E-02
RMM:   6    -0.413176156861E+03   -0.16442E-03   -0.24631E-03  5806   0.470E-02    0.181E-02
RMM:   7    -0.413176165974E+03   -0.91135E-05   -0.25975E-04  5811   0.136E-02    0.130E-02
RMM:   8    -0.413176163523E+03    0.24512E-05   -0.36896E-05  4552   0.540E-03    0.921E-03
RMM:   9    -0.413176157522E+03    0.60009E-05   -0.64087E-06  3051   0.296E-03    0.623E-03
RMM:  10    -0.413176152520E+03    0.50019E-05   -0.20613E-06  2555   0.223E-03    0.320E-03
RMM:  11    -0.413176148454E+03    0.40661E-05   -0.16305E-06  2536   0.194E-03    0.161E-03
RMM:  12    -0.413176145573E+03    0.28813E-05   -0.71523E-07  2436   0.140E-03    0.557E-04
RMM:  13    -0.413176144555E+03    0.10179E-05   -0.30764E-07  2080   0.941E-04    0.336E-04
RMM:  14    -0.413176143186E+03    0.13694E-05   -0.16837E-07  1551   0.748E-04    0.185E-04
RMM:  15    -0.413176140593E+03    0.25924E-05   -0.15441E-07  1565   0.735E-04    0.180E-04
RMM:  16    -0.413176140019E+03    0.57438E-06   -0.60198E-08   982   0.596E-04
   25 T=    63. E= -.41286644E+03 F= -.41317614E+03 E0= -.41315434E+03  EK= 0.30970E+00 SP= 0.00E+00 SK= 0.00E+00
       N       E                     dE             d eps       ncg     rms          rms(c)
RMM:   1    -0.413167900680E+03    0.82399E-02   -0.11567E+01  4293   0.812E-01    0.924E-01
RMM:   2    -0.413178185437E+03   -0.10285E-01   -0.14103E-01  4271   0.109E-01    0.640E-01
RMM:   3    -0.413177447332E+03    0.73810E-03   -0.66983E-03  4775   0.413E-02    0.177E-01
RMM:   4    -0.413204362325E+03   -0.26915E-01   -0.27215E-02  5152   0.137E-01    0.684E-01
RMM:   5    -0.413177071783E+03    0.27291E-01   -0.13614E-02  4804   0.114E-01    0.344E-02
RMM:   6    -0.413177210532E+03   -0.13875E-03   -0.21495E-03  5808   0.440E-02    0.185E-02
RMM:   7    -0.413177215447E+03   -0.49148E-05   -0.22101E-04  5728   0.127E-02    0.124E-02
RMM:   8    -0.413177210867E+03    0.45793E-05   -0.32415E-05  4414   0.510E-03    0.891E-03
RMM:   9    -0.413177202829E+03    0.80389E-05   -0.62765E-06  3066   0.294E-03    0.605E-03
RMM:  10    -0.413177194812E+03    0.80168E-05   -0.18075E-06  2540   0.215E-03    0.317E-03
RMM:  11    -0.413177187109E+03    0.77030E-05   -0.15175E-06  2522   0.192E-03    0.160E-03
RMM:  12    -0.413177181658E+03    0.54507E-05   -0.67927E-07  2426   0.139E-03    0.541E-04
RMM:  13    -0.413177179944E+03    0.17140E-05   -0.28536E-07  2045   0.930E-04    0.337E-04
RMM:  14    -0.413177177879E+03    0.20650E-05   -0.14717E-07  1507   0.733E-04    0.187E-04
RMM:  15    -0.413177173271E+03    0.46083E-05   -0.15272E-07  1706   0.749E-04    0.229E-04
RMM:  16    -0.413177172387E+03    0.88392E-06   -0.52515E-08   944   0.579E-04
   26 T=    63. E= -.41286612E+03 F= -.41317717E+03 E0= -.41315542E+03  EK= 0.31105E+00 SP= 0.00E+00 SK= 0.00E+00
       N       E                     dE             d eps       ncg     rms          rms(c)
RMM:   1    -0.413169171896E+03    0.80014E-02   -0.11539E+01  4294   0.814E-01    0.900E-01
RMM:   2    -0.413180387847E+03   -0.11216E-01   -0.14278E-01  4268   0.103E-01    0.643E-01
RMM:   3    -0.413179417206E+03    0.97064E-03   -0.63009E-03  4747   0.417E-02    0.175E-01
RMM:   4    -0.413205765512E+03   -0.26348E-01   -0.26585E-02  5153   0.136E-01    0.676E-01
RMM:   5    -0.413179075305E+03    0.26690E-01   -0.13358E-02  4809   0.112E-01    0.323E-02
RMM:   6    -0.413179208516E+03   -0.13321E-03   -0.20395E-03  5810   0.434E-02    0.171E-02
RMM:   7    -0.413179215475E+03   -0.69589E-05   -0.21380E-04  5729   0.125E-02    0.118E-02
RMM:   8    -0.413179213142E+03    0.23330E-05   -0.31323E-05  4394   0.504E-03    0.851E-03
RMM:   9    -0.413179207325E+03    0.58162E-05   -0.59153E-06  3024   0.292E-03    0.574E-03
RMM:  10    -0.413179202523E+03    0.48020E-05   -0.18255E-06  2542   0.215E-03    0.298E-03
RMM:  11    -0.413179198360E+03    0.41633E-05   -0.14741E-06  2519   0.188E-03    0.151E-03
RMM:  12    -0.413179195373E+03    0.29873E-05   -0.65491E-07  2425   0.136E-03    0.527E-04
RMM:  13    -0.413179194415E+03    0.95761E-06   -0.26967E-07  1980   0.903E-04
   27 T=    64. E= -.41286642E+03 F= -.41317919E+03 E0= -.41315750E+03  EK= 0.31277E+00 SP= 0.00E+00 SK= 0.00E+00
       N       E                     dE             d eps       ncg     rms          rms(c)
RMM:   1    -0.413171160271E+03    0.80351E-02   -0.11684E+01  4296   0.837E-01    0.909E-01
RMM:   2    -0.413181474246E+03   -0.10314E-01   -0.14651E-01  4265   0.108E-01    0.654E-01
RMM:   3    -0.413180347516E+03    0.11267E-02   -0.64068E-03  4642   0.418E-02    0.171E-01
RMM:   4    -0.413199767736E+03   -0.19420E-01   -0.19782E-02  5158   0.118E-01    0.585E-01
RMM:   5    -0.413179946357E+03    0.19821E-01   -0.98640E-03  4814   0.967E-02    0.282E-02
RMM:   6    -0.413180042638E+03   -0.96281E-04   -0.15524E-03  5839   0.370E-02    0.154E-02
RMM:   7    -0.413180047924E+03   -0.52855E-05   -0.14697E-04  5454   0.104E-02    0.970E-03
RMM:   8    -0.413180043753E+03    0.41705E-05   -0.17673E-05  3608   0.391E-03    0.654E-03
RMM:   9    -0.413180038264E+03    0.54894E-05   -0.35654E-06  2677   0.248E-03    0.369E-03
RMM:  10    -0.413180036583E+03    0.16804E-05   -0.13780E-06  2525   0.178E-03    0.256E-03
RMM:  11    -0.413180031967E+03    0.46165E-05   -0.10561E-06  2502   0.168E-03    0.124E-03
RMM:  12    -0.413180029610E+03    0.23572E-05   -0.47834E-07  2320   0.117E-03    0.487E-04
RMM:  13    -0.413180028599E+03    0.10104E-05   -0.21145E-07  1690   0.817E-04    0.268E-04
RMM:  14    -0.413180025983E+03    0.26166E-05   -0.17768E-07  1625   0.770E-04    0.198E-04
RMM:  15    -0.413180024320E+03    0.16632E-05   -0.91377E-08  1151   0.644E-04    0.101E-04
RMM:  16    -0.413180022696E+03    0.16234E-05   -0.65125E-08  1058   0.618E-04    0.806E-05
RMM:  17    -0.413180020560E+03    0.21358E-05   -0.65283E-08  1127   0.615E-04    0.401E-05
RMM:  18    -0.413180019529E+03    0.10312E-05   -0.28143E-08   817   0.560E-04    0.280E-05
RMM:  19    -0.413180019196E+03    0.33344E-06   -0.13647E-08   707   0.543E-04
   28 T=    64. E= -.41286580E+03 F= -.41318002E+03 E0= -.41315837E+03  EK= 0.31422E+00 SP= 0.00E+00 SK= 0.00E+00
       N       E                     dE             d eps       ncg     rms          rms(c)
RMM:   1    -0.413172904736E+03    0.71148E-02   -0.11754E+01  4291   0.840E-01    0.933E-01
RMM:   2    -0.413183373863E+03   -0.10469E-01   -0.14417E-01  4270   0.110E-01    0.646E-01
RMM:   3    -0.413182460229E+03    0.91363E-03   -0.67941E-03  4560   0.416E-02    0.175E-01
RMM:   4    -0.413198046964E+03   -0.15587E-01   -0.15641E-02  5163   0.105E-01    0.522E-01
RMM:   5    -0.413182361172E+03    0.15686E-01   -0.78368E-03  4819   0.859E-02    0.278E-02
RMM:   6    -0.413182427531E+03   -0.66359E-04   -0.12389E-03  5850   0.328E-02    0.161E-02
RMM:   7    -0.413182429819E+03   -0.22883E-05   -0.12742E-04  5497   0.993E-03    0.106E-02
RMM:   8    -0.413182422117E+03    0.77026E-05   -0.18975E-05  4002   0.431E-03    0.681E-03
RMM:   9    -0.413182415938E+03    0.61789E-05   -0.42925E-06  2839   0.275E-03    0.451E-03
RMM:  10    -0.413182408893E+03    0.70449E-05   -0.11708E-06  2508   0.184E-03    0.246E-03
RMM:  11    -0.413182401975E+03    0.69177E-05   -0.98132E-07  2498   0.156E-03    0.124E-03
RMM:  12    -0.413182396513E+03    0.54617E-05   -0.48288E-07  2335   0.118E-03    0.443E-04
RMM:  13    -0.413182395119E+03    0.13949E-05   -0.19800E-07  1718   0.802E-04    0.270E-04
RMM:  14    -0.413182393109E+03    0.20094E-05   -0.10633E-07  1273   0.676E-04    0.151E-04
RMM:  15    -0.413182388778E+03    0.43308E-05   -0.10340E-07  1412   0.687E-04    0.141E-04
RMM:  16    -0.413182387935E+03    0.84298E-06   -0.40179E-08   876   0.576E-04
   29 T=    64. E= -.41286637E+03 F= -.41318239E+03 E0= -.41316079E+03  EK= 0.31601E+00 SP= 0.00E+00 SK= 0.00E+00
       N       E                     dE             d eps       ncg     rms          rms(c)
RMM:   1    -0.413174234430E+03    0.81543E-02   -0.11708E+01  4291   0.845E-01    0.910E-01
RMM:   2    -0.413185374496E+03   -0.11140E-01   -0.14653E-01  4264   0.109E-01    0.646E-01
RMM:   3    -0.413184154774E+03    0.12197E-02   -0.64217E-03  4413   0.430E-02    0.172E-01
RMM:   4    -0.413190783697E+03   -0.66289E-02   -0.71959E-03  5140   0.748E-02    0.344E-01
RMM:   5    -0.413184038784E+03    0.67449E-02   -0.33271E-03  4823   0.563E-02    0.207E-02
RMM:   6    -0.413184051129E+03   -0.12345E-04   -0.51064E-04  5814   0.218E-02    0.141E-02
RMM:   7    -0.413184047385E+03    0.37440E-05   -0.67540E-05  5222   0.804E-03    0.845E-03
RMM:   8    -0.413184039821E+03    0.75640E-05   -0.80475E-06  3118   0.350E-03    0.403E-03
RMM:   9    -0.413184035074E+03    0.47474E-05   -0.18317E-06  2579   0.207E-03    0.248E-03
RMM:  10    -0.413184030039E+03    0.50348E-05   -0.74788E-07  2457   0.140E-03    0.140E-03
RMM:  11    -0.413184025383E+03    0.46566E-05   -0.48346E-07  2274   0.112E-03    0.555E-04
RMM:  12    -0.413184022074E+03    0.33087E-05   -0.25813E-07  1775   0.866E-04    0.201E-04
RMM:  13    -0.413184019972E+03    0.21021E-05   -0.13852E-07  1301   0.709E-04    0.126E-04
RMM:  14    -0.413184017095E+03    0.28769E-05   -0.10811E-07  1289   0.683E-04    0.803E-05
RMM:  15    -0.413184014494E+03    0.26008E-05   -0.86181E-08  1264   0.647E-04    0.738E-05
RMM:  16    -0.413184012854E+03    0.16397E-05   -0.55536E-08  1055   0.590E-04    0.471E-05
RMM:  17    -0.413184010515E+03    0.23396E-05   -0.50327E-08  1045   0.579E-04    0.226E-05
RMM:  18    -0.413184010123E+03    0.39175E-06   -0.22039E-08   752   0.523E-04
   30 T=    65. E= -.41286647E+03 F= -.41318401E+03 E0= -.41316246E+03  EK= 0.31754E+00 SP= 0.00E+00 SK= 0.00E+00
       N       E                     dE             d eps       ncg     rms          rms(c)
RMM:   1    -0.413176319330E+03    0.76912E-02   -0.11837E+01  4291   0.883E-01    0.910E-01
RMM:   2    -0.413187934834E+03   -0.11616E-01   -0.15148E-01  4272   0.124E-01    0.659E-01
RMM:   3    -0.413185844909E+03    0.20899E-02   -0.62541E-03  4340   0.415E-02    0.169E-01
RMM:   4    -0.413189258383E+03   -0.34135E-02   -0.41691E-03  5140   0.553E-02    0.247E-01
RMM:   5    -0.413185815309E+03    0.34431E-02   -0.16841E-03  4817   0.403E-02    0.178E-02
RMM:   6    -0.413185817520E+03   -0.22116E-05   -0.28137E-04  5745   0.165E-02    0.129E-02
RMM:   7    -0.413185814329E+03    0.31915E-05   -0.43255E-05  4866   0.675E-03    0.648E-03
RMM:   8    -0.413185809047E+03    0.52820E-05   -0.59976E-06  2978   0.313E-03    0.305E-03
RMM:   9    -0.413185806973E+03    0.20742E-05   -0.10972E-06  2521   0.174E-03    0.187E-03
RMM:  10    -0.413185803989E+03    0.29836E-05   -0.58098E-07  2296   0.119E-03    0.106E-03
RMM:  11    -0.413185801374E+03    0.26151E-05   -0.37943E-07  2009   0.963E-04    0.413E-04
RMM:  12    -0.413185799314E+03    0.20601E-05   -0.21618E-07  1535   0.785E-04    0.178E-04
RMM:  13    -0.413185797769E+03    0.15450E-05   -0.12845E-07  1224   0.685E-04    0.100E-04
RMM:  14    -0.413185796149E+03    0.16202E-05   -0.95933E-08  1168   0.652E-04    0.559E-05
RMM:  15    -0.413185794252E+03    0.18969E-05   -0.85071E-08  1215   0.635E-04    0.565E-05
RMM:  16    -0.413185793324E+03    0.92744E-06   -0.40807E-08   847   0.564E-04
   31 T=    65. E= -.41286657E+03 F= -.41318579E+03 E0= -.41316430E+03  EK= 0.31922E+00 SP= 0.00E+00 SK= 0.00E+00
       N       E                     dE             d eps       ncg     rms          rms(c)
RMM:   1    -0.413182425664E+03    0.33686E-02   -0.11978E+01  4289   0.920E-01    0.938E-01
RMM:   2    -0.413189651595E+03   -0.72259E-02   -0.15141E-01  4263   0.120E-01    0.654E-01
RMM:   3    -0.413188467761E+03    0.11838E-02   -0.67884E-03  4209   0.484E-02    0.176E-01
RMM:   4    -0.413189231138E+03   -0.76338E-03   -0.16149E-03  5026   0.369E-02    0.111E-01
RMM:   5    -0.413188542994E+03    0.68814E-03   -0.32810E-04  4724   0.188E-02    0.197E-02
RMM:   6    -0.413188532366E+03    0.10628E-04   -0.94121E-05  5430   0.103E-02    0.143E-02
RMM:   7    -0.413188517734E+03    0.14632E-04   -0.23720E-05  4130   0.576E-03    0.421E-03
RMM:   8    -0.413188509969E+03    0.77656E-05   -0.34625E-06  2725   0.276E-03    0.248E-03
RMM:   9    -0.413188506608E+03    0.33604E-05   -0.62208E-07  2427   0.151E-03    0.145E-03
RMM:  10    -0.413188499799E+03    0.68097E-05   -0.40369E-07  2093   0.103E-03    0.638E-04
RMM:  11    -0.413188494068E+03    0.57306E-05   -0.22134E-07  1583   0.786E-04    0.248E-04
RMM:  12    -0.413188490536E+03    0.35319E-05   -0.11994E-07  1382   0.682E-04    0.152E-04
RMM:  13    -0.413188485521E+03    0.50151E-05   -0.96354E-08  1284   0.652E-04    0.828E-05
RMM:  14    -0.413188482239E+03    0.32819E-05   -0.58585E-08  1022   0.584E-04    0.666E-05
RMM:  15    -0.413188479537E+03    0.27026E-05   -0.44527E-08   966   0.563E-04    0.485E-05
RMM:  16    -0.413188476176E+03    0.33610E-05   -0.46370E-08  1032   0.575E-04    0.389E-05
RMM:  17    -0.413188475792E+03    0.38320E-06   -0.15450E-08   635   0.498E-04
   32 T=    65. E= -.41286701E+03 F= -.41318848E+03 E0= -.41316703E+03  EK= 0.32147E+00 SP= 0.00E+00 SK= 0.00E+00
       N       E                     dE             d eps       ncg     rms          rms(c)
RMM:   1    -0.413188901789E+03   -0.42561E-03   -0.12002E+01  4290   0.940E-01    0.924E-01
RMM:   2    -0.413191895080E+03   -0.29933E-02   -0.15601E-01  4271   0.131E-01    0.650E-01
RMM:   3    -0.413190424313E+03    0.14708E-02   -0.63333E-03  4162   0.405E-02    0.181E-01
RMM:   4    -0.413190403743E+03    0.20570E-04   -0.10863E-03  4603   0.247E-02    0.213E-02
RMM:   5    -0.413190419379E+03   -0.15637E-04   -0.63364E-05  4873   0.811E-03    0.286E-02
RMM:   6    -0.413190385816E+03    0.33563E-04   -0.38462E-05  4986   0.642E-03    0.137E-02
RMM:   7    -0.413190370697E+03    0.15120E-04   -0.19760E-05  4022   0.526E-03    0.398E-03
RMM:   8    -0.413190363442E+03    0.72543E-05   -0.29359E-06  2591   0.260E-03    0.231E-03
RMM:   9    -0.413190360354E+03    0.30886E-05   -0.49085E-07  2226   0.136E-03    0.127E-03
RMM:  10    -0.413190355407E+03    0.49464E-05   -0.21861E-07  1538   0.803E-04    0.595E-04
RMM:  11    -0.413190348799E+03    0.66086E-05   -0.17789E-07  1313   0.715E-04    0.253E-04
RMM:  12    -0.413190346232E+03    0.25671E-05   -0.51431E-08   904   0.563E-04    0.151E-04
RMM:  13    -0.413190340346E+03    0.58861E-05   -0.82169E-08  1158   0.626E-04    0.959E-05
RMM:  14    -0.413190336347E+03    0.39985E-05   -0.43556E-08   862   0.551E-04    0.640E-05
RMM:  15    -0.413190335462E+03    0.88515E-06   -0.11950E-08   535   0.475E-04
   33 T=    66. E= -.41286670E+03 F= -.41319034E+03 E0= -.41316894E+03  EK= 0.32364E+00 SP= 0.00E+00 SK= 0.00E+00
       N       E                     dE             d eps       ncg     rms          rms(c)
RMM:   1    -0.413184788739E+03    0.55476E-02   -0.12067E+01  4290   0.925E-01    0.915E-01
RMM:   2    -0.413194480622E+03   -0.96919E-02   -0.15711E-01  4259   0.128E-01    0.664E-01
RMM:   3    -0.413193007218E+03    0.14734E-02   -0.62881E-03  4453   0.453E-02    0.179E-01
RMM:   4    -0.413201823957E+03   -0.88167E-02   -0.92327E-03  5152   0.840E-02    0.395E-01
RMM:   5    -0.413192975504E+03    0.88485E-02   -0.43348E-03  4811   0.647E-02    0.228E-02
RMM:   6    -0.413192964991E+03    0.10513E-04   -0.68400E-04  5805   0.258E-02    0.140E-02
RMM:   7    -0.413192966560E+03   -0.15688E-05   -0.86695E-05  5323   0.889E-03    0.902E-03
RMM:   8    -0.413192960985E+03    0.55750E-05   -0.11681E-05  3522   0.388E-03    0.467E-03
RMM:   9    -0.413192957409E+03    0.35756E-05   -0.23759E-06  2625   0.232E-03    0.265E-03
RMM:  10    -0.413192953612E+03    0.37978E-05   -0.85323E-07  2491   0.149E-03    0.146E-03
RMM:  11    -0.413192949885E+03    0.37263E-05   -0.56397E-07  2363   0.118E-03    0.688E-04
RMM:  12    -0.413192946755E+03    0.31306E-05   -0.33504E-07  1976   0.931E-04    0.245E-04
RMM:  13    -0.413192945429E+03    0.13258E-05   -0.15013E-07  1273   0.711E-04    0.152E-04
RMM:  14    -0.413192943544E+03    0.18852E-05   -0.10793E-07  1119   0.668E-04    0.901E-05
RMM:  15    -0.413192941684E+03    0.18592E-05   -0.83987E-08  1128   0.647E-04    0.509E-05
RMM:  16    -0.413192940961E+03    0.72334E-06   -0.46988E-08   899   0.598E-04
   34 T=    66. E= -.41286676E+03 F= -.41319294E+03 E0= -.41317159E+03  EK= 0.32618E+00 SP= 0.00E+00 SK= 0.00E+00
       N       E                     dE             d eps       ncg     rms          rms(c)
RMM:   1    -0.413186209348E+03    0.67323E-02   -0.12186E+01  4299   0.941E-01    0.942E-01
RMM:   2    -0.413196921135E+03   -0.10712E-01   -0.15855E-01  4257   0.135E-01    0.664E-01
RMM:   3    -0.413195704814E+03    0.12163E-02   -0.65429E-03  4469   0.436E-02    0.184E-01
RMM:   4    -0.413202597128E+03   -0.68923E-02   -0.75594E-03  5158   0.747E-02    0.355E-01
RMM:   5    -0.413195514495E+03    0.70826E-02   -0.35641E-03  4812   0.584E-02    0.233E-02
RMM:   6    -0.413195503842E+03    0.10653E-04   -0.58994E-04  5768   0.235E-02    0.148E-02
RMM:   7    -0.413195500393E+03    0.34484E-05   -0.79480E-05  5208   0.833E-03    0.846E-03
RMM:   8    -0.413195492090E+03    0.83034E-05   -0.10407E-05  3361   0.369E-03    0.421E-03
RMM:   9    -0.413195486259E+03    0.58314E-05   -0.19237E-06  2570   0.214E-03    0.237E-03
RMM:  10    -0.413195479779E+03    0.64795E-05   -0.75788E-07  2471   0.140E-03    0.132E-03
RMM:  11    -0.413195473234E+03    0.65453E-05   -0.48428E-07  2309   0.112E-03    0.569E-04
RMM:  12    -0.413195467941E+03    0.52933E-05   -0.27239E-07  1865   0.885E-04    0.197E-04
RMM:  13    -0.413195465287E+03    0.26537E-05   -0.13803E-07  1286   0.709E-04    0.137E-04
RMM:  14    -0.413195461533E+03    0.37535E-05   -0.10087E-07  1185   0.675E-04    0.833E-05
RMM:  15    -0.413195457144E+03    0.43896E-05   -0.89653E-08  1294   0.669E-04    0.692E-05
RMM:  16    -0.413195455836E+03    0.13073E-05   -0.49869E-08  1000   0.595E-04    0.546E-05
RMM:  17    -0.413195452072E+03    0.37643E-05   -0.56019E-08  1195   0.613E-04    0.322E-05
RMM:  18    -0.413195451396E+03    0.67577E-06   -0.23444E-08   756   0.532E-04
   35 T=    67. E= -.41286663E+03 F= -.41319545E+03 E0= -.41317415E+03  EK= 0.32882E+00 SP= 0.00E+00 SK= 0.00E+00
       N       E                     dE             d eps       ncg     rms          rms(c)
RMM:   1    -0.413188970389E+03    0.64817E-02   -0.12230E+01  4298   0.965E-01    0.942E-01
RMM:   2    -0.413198942633E+03   -0.99722E-02   -0.15717E-01  4249   0.120E-01    0.657E-01
RMM:   3    -0.413198005788E+03    0.93685E-03   -0.68187E-03  4811   0.440E-02    0.196E-01
RMM:   4    -0.413228229671E+03   -0.30224E-01   -0.30459E-02  5160   0.146E-01    0.725E-01
RMM:   5    -0.413197675968E+03    0.30554E-01   -0.15404E-02  4799   0.121E-01    0.369E-02
RMM:   6    -0.413197721246E+03   -0.45279E-04   -0.24362E-03  5857   0.462E-02    0.187E-02
RMM:   7    -0.413197732955E+03   -0.11708E-04   -0.25146E-04  5766   0.134E-02    0.130E-02
RMM:   8    -0.413197726132E+03    0.68224E-05   -0.32810E-05  4437   0.526E-03    0.883E-03
RMM:   9    -0.413197720078E+03    0.60540E-05   -0.82676E-06  3335   0.340E-03    0.580E-03
RMM:  10    -0.413197710356E+03    0.97225E-05   -0.21806E-06  2551   0.248E-03    0.272E-03
RMM:  11    -0.413197702813E+03    0.75424E-05   -0.14435E-06  2516   0.189E-03    0.149E-03
RMM:  12    -0.413197695475E+03    0.73381E-05   -0.67250E-07  2443   0.145E-03    0.553E-04
RMM:  13    -0.413197693048E+03    0.24273E-05   -0.28426E-07  2115   0.957E-04    0.378E-04
RMM:  14    -0.413197690896E+03    0.21517E-05   -0.13119E-07  1461   0.719E-04    0.220E-04
RMM:  15    -0.413197684700E+03    0.61962E-05   -0.12298E-07  1641   0.728E-04    0.220E-04
RMM:  16    -0.413197683823E+03    0.87734E-06   -0.42683E-08   907   0.573E-04
   36 T=    67. E= -.41286644E+03 F= -.41319768E+03 E0= -.41317642E+03  EK= 0.33124E+00 SP= 0.00E+00 SK= 0.00E+00
       N       E                     dE             d eps       ncg     rms          rms(c)
RMM:   1    -0.413190695060E+03    0.69896E-02   -0.12292E+01  4300   0.992E-01    0.924E-01
RMM:   2    -0.413202397186E+03   -0.11702E-01   -0.16384E-01  4252   0.136E-01    0.669E-01
RMM:   3    -0.413201126834E+03    0.12704E-02   -0.66019E-03  4803   0.516E-02    0.204E-01
RMM:   4    -0.413242120162E+03   -0.40993E-01   -0.41781E-02  5153   0.171E-01    0.841E-01
RMM:   5    -0.413200472898E+03    0.41647E-01   -0.21009E-02  4795   0.141E-01    0.404E-02
RMM:   6    -0.413200566619E+03   -0.93721E-04   -0.32305E-03  5851   0.534E-02    0.193E-02
RMM:   7    -0.413200583804E+03   -0.17185E-04   -0.31975E-04  5736   0.150E-02    0.131E-02
RMM:   8    -0.413200579602E+03    0.42020E-05   -0.35219E-05  3993   0.497E-03    0.863E-03
RMM:   9    -0.413200573410E+03    0.61920E-05   -0.84063E-06  3209   0.339E-03    0.464E-03
RMM:  10    -0.413200569072E+03    0.43384E-05   -0.24778E-06  2587   0.233E-03    0.274E-03
RMM:  11    -0.413200563006E+03    0.60658E-05   -0.13878E-06  2498   0.192E-03    0.138E-03
RMM:  12    -0.413200558989E+03    0.40167E-05   -0.63904E-07  2438   0.136E-03    0.537E-04
RMM:  13    -0.413200557522E+03    0.14676E-05   -0.28023E-07  2028   0.927E-04    0.336E-04
RMM:  14    -0.413200555503E+03    0.20190E-05   -0.14958E-07  1501   0.741E-04    0.186E-04
RMM:  15    -0.413200551741E+03    0.37618E-05   -0.12678E-07  1494   0.715E-04    0.165E-04
RMM:  16    -0.413200550753E+03    0.98826E-06   -0.54339E-08   988   0.598E-04
   37 T=    68. E= -.41286660E+03 F= -.41320055E+03 E0= -.41317933E+03  EK= 0.33395E+00 SP= 0.00E+00 SK= 0.00E+00
       N       E                     dE             d eps       ncg     rms          rms(c)
RMM:   1    -0.413195066347E+03    0.54854E-02   -0.12472E+01  4308   0.104E+00    0.945E-01
RMM:   2    -0.413205342175E+03   -0.10276E-01   -0.16352E-01  4248   0.130E-01    0.673E-01
RMM:   3    -0.413203774611E+03    0.15676E-02   -0.68075E-03  4755   0.501E-02    0.201E-01
RMM:   4    -0.413237073899E+03   -0.33299E-01   -0.33523E-02  5149   0.153E-01    0.760E-01
RMM:   5    -0.413203327232E+03    0.33747E-01   -0.17135E-02  4802   0.127E-01    0.369E-02
RMM:   6    -0.413203386377E+03   -0.59146E-04   -0.25710E-03  5842   0.480E-02    0.185E-02
RMM:   7    -0.413203400331E+03   -0.13953E-04   -0.26850E-04  5776   0.139E-02    0.130E-02
RMM:   8    -0.413203394508E+03    0.58225E-05   -0.34918E-05  4480   0.532E-03    0.885E-03
RMM:   9    -0.413203389947E+03    0.45617E-05   -0.88646E-06  3401   0.338E-03    0.584E-03
RMM:  10    -0.413203381802E+03    0.81444E-05   -0.22824E-06  2549   0.243E-03    0.271E-03
RMM:  11    -0.413203375631E+03    0.61710E-05   -0.14519E-06  2507   0.189E-03    0.147E-03
RMM:  12    -0.413203369918E+03    0.57135E-05   -0.67338E-07  2443   0.143E-03    0.560E-04
RMM:  13    -0.413203367862E+03    0.20558E-05   -0.29109E-07  2117   0.959E-04    0.375E-04
RMM:  14    -0.413203365847E+03    0.20151E-05   -0.13891E-07  1482   0.730E-04    0.205E-04
RMM:  15    -0.413203360551E+03    0.52954E-05   -0.12967E-07  1609   0.731E-04    0.207E-04
RMM:  16    -0.413203359608E+03    0.94318E-06   -0.47490E-08   929   0.584E-04
   38 T=    68. E= -.41286697E+03 F= -.41320336E+03 E0= -.41318218E+03  EK= 0.33639E+00 SP= 0.00E+00 SK= 0.00E+00
       N       E                     dE             d eps       ncg     rms          rms(c)
RMM:   1    -0.413200622188E+03    0.27384E-02   -0.12556E+01  4306   0.108E+00    0.959E-01
RMM:   2    -0.413206884740E+03   -0.62626E-02   -0.16671E-01  4257   0.127E-01    0.667E-01
RMM:   3    -0.413206236701E+03    0.64804E-03   -0.73936E-03  4987   0.539E-02    0.230E-01
RMM:   4    -0.413257184416E+03   -0.50948E-01   -0.54239E-02  5139   0.193E-01    0.937E-01
RMM:   5    -0.413205144174E+03    0.52040E-01   -0.25821E-02  4786   0.158E-01    0.480E-02
RMM:   6    -0.413205295145E+03   -0.15097E-03   -0.41025E-03  5839   0.599E-02    0.219E-02
RMM:   7    -0.413205315796E+03   -0.20651E-04   -0.41451E-04  5816   0.171E-02    0.151E-02
RMM:   8    -0.413205313445E+03    0.23509E-05   -0.56640E-05  4779   0.628E-03    0.112E-02
RMM:   9    -0.413205303663E+03    0.97814E-05   -0.12177E-05  3737   0.379E-03    0.704E-03
RMM:  10    -0.413205292995E+03    0.10668E-04   -0.36168E-06  2657   0.292E-03    0.321E-03
RMM:  11    -0.413205285445E+03    0.75503E-05   -0.17134E-06  2512   0.211E-03    0.187E-03
RMM:  12    -0.413205276921E+03    0.85237E-05   -0.89318E-07  2467   0.165E-03    0.656E-04
RMM:  13    -0.413205272914E+03    0.40073E-05   -0.37382E-07  2286   0.110E-03    0.435E-04
RMM:  14    -0.413205269851E+03    0.30627E-05   -0.18219E-07  1754   0.795E-04    0.286E-04
RMM:  15    -0.413205261559E+03    0.82926E-05   -0.15729E-07  1790   0.770E-04    0.271E-04
RMM:  16    -0.413205260968E+03    0.59071E-06   -0.57679E-08  1018   0.583E-04
   39 T=    69. E= -.41286660E+03 F= -.41320526E+03 E0= -.41318412E+03  EK= 0.33866E+00 SP= 0.00E+00 SK= 0.00E+00
       N       E                     dE             d eps       ncg     rms          rms(c)
RMM:   1    -0.413202559674E+03    0.27019E-02   -0.12567E+01  4308   0.113E+00    0.935E-01
RMM:   2    -0.413210542653E+03   -0.79830E-02   -0.16833E-01  4256   0.134E-01    0.672E-01
RMM:   3    -0.413209725973E+03    0.81668E-03   -0.70892E-03  5004   0.538E-02    0.237E-01
RMM:   4    -0.413264019289E+03   -0.54293E-01   -0.58768E-02  5132   0.201E-01    0.966E-01
RMM:   5    -0.413208455736E+03    0.55564E-01   -0.27496E-02  4785   0.163E-01    0.491E-02
RMM:   6    -0.413208616990E+03   -0.16125E-03   -0.42984E-03  5824   0.615E-02    0.213E-02
RMM:   7    -0.413208640803E+03   -0.23813E-04   -0.44245E-04  5881   0.176E-02    0.152E-02
RMM:   8    -0.413208640553E+03    0.25005E-06   -0.61924E-05  4884   0.656E-03    0.114E-02
RMM:   9    -0.413208632244E+03    0.83093E-05   -0.11957E-05  3665   0.377E-03    0.687E-03
RMM:  10    -0.413208624581E+03    0.76628E-05   -0.37692E-06  2666   0.289E-03    0.313E-03
RMM:  11    -0.413208619308E+03    0.52735E-05   -0.17130E-06  2512   0.209E-03    0.177E-03
RMM:  12    -0.413208613696E+03    0.56119E-05   -0.87934E-07  2467   0.161E-03    0.643E-04
RMM:  13    -0.413208611085E+03    0.26104E-05   -0.37460E-07  2267   0.108E-03    0.426E-04
RMM:  14    -0.413208608699E+03    0.23867E-05   -0.19173E-07  1744   0.799E-04    0.269E-04
RMM:  15    -0.413208603337E+03    0.53615E-05   -0.15292E-07  1607   0.748E-04    0.208E-04
RMM:  16    -0.413208602792E+03    0.54510E-06   -0.63079E-08  1035   0.599E-04
   40 T=    69. E= -.41286725E+03 F= -.41320860E+03 E0= -.41318750E+03  EK= 0.34135E+00 SP= 0.00E+00 SK= 0.00E+00
       N       E                     dE             d eps       ncg     rms          rms(c)
RMM:   1    -0.413206107955E+03    0.24954E-02   -0.12751E+01  4306   0.119E+00    0.947E-01
RMM:   2    -0.413211855469E+03   -0.57475E-02   -0.17511E-01  4260   0.139E-01    0.683E-01
RMM:   3    -0.413211439952E+03    0.41552E-03   -0.74604E-03  5042   0.558E-02    0.255E-01
RMM:   4    -0.413268024783E+03   -0.56585E-01   -0.63077E-02  5131   0.208E-01    0.988E-01
RMM:   5    -0.413209808868E+03    0.58216E-01   -0.28419E-02  4774   0.167E-01    0.519E-02
RMM:   6    -0.413209989396E+03   -0.18053E-03   -0.45773E-03  5815   0.630E-02    0.213E-02
RMM:   7    -0.413210015715E+03   -0.26319E-04   -0.47812E-04  5922   0.183E-02    0.159E-02
RMM:   8    -0.413210015933E+03   -0.21776E-06   -0.68682E-05  5020   0.694E-03    0.117E-02
RMM:   9    -0.413210007275E+03    0.86578E-05   -0.11392E-05  3557   0.381E-03    0.670E-03
RMM:  10    -0.413209999635E+03    0.76399E-05   -0.40481E-06  2691   0.296E-03    0.303E-03
RMM:  11    -0.413209994399E+03    0.52360E-05   -0.17283E-06  2517   0.210E-03    0.163E-03
RMM:  12    -0.413209989161E+03    0.52379E-05   -0.86120E-07  2464   0.158E-03    0.628E-04
RMM:  13    -0.413209986635E+03    0.25268E-05   -0.37040E-07  2235   0.107E-03    0.413E-04
RMM:  14    -0.413209983695E+03    0.29398E-05   -0.20350E-07  1762   0.813E-04    0.271E-04
RMM:  15    -0.413209979223E+03    0.44719E-05   -0.14161E-07  1459   0.723E-04    0.163E-04
RMM:  16    -0.413209978243E+03    0.98029E-06   -0.68002E-08  1041   0.612E-04
   41 T=    70. E= -.41286667E+03 F= -.41320998E+03 E0= -.41318891E+03  EK= 0.34331E+00 SP= 0.00E+00 SK= 0.00E+00
       N       E                     dE             d eps       ncg     rms          rms(c)
RMM:   1    -0.413215016143E+03   -0.50369E-02   -0.12887E+01  4310   0.127E+00    0.972E-01
RMM:   2    -0.413213815406E+03    0.12007E-02   -0.17845E-01  4283   0.146E-01    0.676E-01
RMM:   3    -0.413216201510E+03   -0.23861E-02   -0.97465E-03  5114   0.715E-02    0.328E-01
RMM:   4    -0.413251807766E+03   -0.35606E-01   -0.50881E-02  5090   0.189E-01    0.825E-01
RMM:   5    -0.413212591985E+03    0.39216E-01   -0.17775E-02  4735   0.138E-01    0.501E-02
RMM:   6    -0.413212646717E+03   -0.54733E-04   -0.29092E-03  5760   0.510E-02    0.192E-02
RMM:   7    -0.413212660802E+03   -0.14085E-04   -0.34298E-04  5897   0.158E-02    0.148E-02
RMM:   8    -0.413212657877E+03    0.29255E-05   -0.52793E-05  4899   0.636E-03    0.970E-03
RMM:   9    -0.413212645661E+03    0.12216E-04   -0.87069E-06  3252   0.386E-03    0.450E-03
RMM:  10    -0.413212636269E+03    0.93922E-05   -0.28244E-06  2578   0.250E-03    0.228E-03
RMM:  11    -0.413212628401E+03    0.78672E-05   -0.10582E-06  2515   0.165E-03    0.101E-03
RMM:  12    -0.413212622573E+03    0.58288E-05   -0.43024E-07  2326   0.113E-03    0.506E-04
RMM:  13    -0.413212617241E+03    0.53317E-05   -0.24727E-07  1672   0.848E-04    0.251E-04
RMM:  14    -0.413212613023E+03    0.42181E-05   -0.15448E-07  1342   0.733E-04    0.150E-04
RMM:  15    -0.413212607348E+03    0.56743E-05   -0.12736E-07  1379   0.711E-04    0.909E-05
RMM:  16    -0.413212602764E+03    0.45840E-05   -0.97030E-08  1360   0.665E-04    0.555E-05
RMM:  17    -0.413212598590E+03    0.41742E-05   -0.74490E-08  1281   0.627E-04    0.459E-05
RMM:  18    -0.413212597036E+03    0.15540E-05   -0.44533E-08   961   0.557E-04    0.297E-05
RMM:  19    -0.413212596288E+03    0.74835E-06   -0.29849E-08   834   0.537E-04
   42 T=    70. E= -.41286714E+03 F= -.41321260E+03 E0= -.41319157E+03  EK= 0.34545E+00 SP= 0.00E+00 SK= 0.00E+00
       N       E                     dE             d eps       ncg     rms          rms(c)
RMM:   1    -0.413214778416E+03   -0.21814E-02   -0.12839E+01  4311   0.134E+00    0.947E-01
RMM:   2    -0.413215717085E+03   -0.93867E-03   -0.17658E-01  4288   0.155E-01    0.676E-01
RMM:   3    -0.413219201758E+03   -0.34847E-02   -0.10443E-02  5103   0.795E-02    0.359E-01
RMM:   4    -0.413249603195E+03   -0.30401E-01   -0.48830E-02  5068   0.186E-01    0.783E-01
RMM:   5    -0.413214559046E+03    0.35044E-01   -0.15501E-02  4711   0.131E-01    0.487E-02
RMM:   6    -0.413214589064E+03   -0.30018E-04   -0.25446E-03  5737   0.481E-02    0.181E-02
RMM:   7    -0.413214599367E+03   -0.10304E-04   -0.29640E-04  5904   0.151E-02    0.142E-02
RMM:   8    -0.413214596860E+03    0.25077E-05   -0.47216E-05  4842   0.612E-03    0.902E-03
RMM:   9    -0.413214586598E+03    0.10261E-04   -0.84602E-06  3252   0.394E-03    0.423E-03
RMM:  10    -0.413214579768E+03    0.68300E-05   -0.26024E-06  2572   0.245E-03    0.229E-03
RMM:  11    -0.413214574304E+03    0.54639E-05   -0.10446E-06  2508   0.161E-03    0.102E-03
RMM:  12    -0.413214570383E+03    0.39212E-05   -0.43516E-07  2287   0.111E-03    0.508E-04
RMM:  13    -0.413214566073E+03    0.43104E-05   -0.28897E-07  1713   0.876E-04    0.261E-04
RMM:  14    -0.413214563643E+03    0.24302E-05   -0.17062E-07  1334   0.733E-04    0.147E-04
RMM:  15    -0.413214559881E+03    0.37613E-05   -0.13285E-07  1253   0.698E-04    0.765E-05
RMM:  16    -0.413214556355E+03    0.35266E-05   -0.10592E-07  1266   0.671E-04    0.492E-05
RMM:  17    -0.413214553516E+03    0.28390E-05   -0.78400E-08  1219   0.637E-04    0.384E-05
RMM:  18    -0.413214551645E+03    0.18707E-05   -0.54536E-08  1058   0.586E-04    0.317E-05
RMM:  19    -0.413214550896E+03    0.74838E-06   -0.33769E-08   848   0.542E-04
   43 T=    71. E= -.41286718E+03 F= -.41321455E+03 E0= -.41319355E+03  EK= 0.34737E+00 SP= 0.00E+00 SK= 0.00E+00
       N       E                     dE             d eps       ncg     rms          rms(c)
RMM:   1    -0.413242535683E+03   -0.27984E-01   -0.13240E+01  4312   0.153E+00    0.949E-01
RMM:   2    -0.413216868888E+03    0.25667E-01   -0.20152E-01  4285   0.176E-01    0.693E-01
RMM:   3    -0.413221766674E+03   -0.48978E-02   -0.11626E-02  5095   0.891E-02    0.409E-01
RMM:   4    -0.413248761259E+03   -0.26995E-01   -0.49714E-02  5055   0.189E-01    0.767E-01
RMM:   5    -0.413215575702E+03    0.33186E-01   -0.14504E-02  4697   0.131E-01    0.514E-02
RMM:   6    -0.413215581011E+03   -0.53087E-05   -0.24152E-03  5700   0.470E-02    0.186E-02
RMM:   7    -0.413215591379E+03   -0.10368E-04   -0.29008E-04  5914   0.152E-02    0.146E-02
RMM:   8    -0.413215588680E+03    0.26986E-05   -0.44881E-05  4829   0.610E-03    0.908E-03
RMM:   9    -0.413215579439E+03    0.92414E-05   -0.97052E-06  3408   0.435E-03    0.445E-03
RMM:  10    -0.413215573839E+03    0.55997E-05   -0.28062E-06  2598   0.257E-03    0.262E-03
RMM:  11    -0.413215569639E+03    0.42001E-05   -0.12829E-06  2528   0.176E-03    0.113E-03
RMM:  12    -0.413215566864E+03    0.27749E-05   -0.53500E-07  2432   0.122E-03    0.602E-04
RMM:  13    -0.413215563213E+03    0.36512E-05   -0.38649E-07  1838   0.974E-04    0.353E-04
RMM:  14    -0.413215561460E+03    0.17523E-05   -0.20472E-07  1392   0.785E-04    0.188E-04
RMM:  15    -0.413215559048E+03    0.24127E-05   -0.15377E-07  1298   0.729E-04    0.104E-04
RMM:  16    -0.413215556124E+03    0.29237E-05   -0.12683E-07  1316   0.699E-04    0.570E-05
RMM:  17    -0.413215554732E+03    0.13921E-05   -0.78271E-08  1075   0.628E-04    0.411E-05
RMM:  18    -0.413215552617E+03    0.21152E-05   -0.68580E-08  1117   0.611E-04    0.344E-05
RMM:  19    -0.413215551605E+03    0.10118E-05   -0.42147E-08   892   0.564E-04    0.248E-05
RMM:  20    -0.413215551155E+03    0.44997E-06   -0.27793E-08   777   0.540E-04
   44 T=    71. E= -.41286680E+03 F= -.41321555E+03 E0= -.41319458E+03  EK= 0.34875E+00 SP= 0.00E+00 SK= 0.00E+00
       N       E                     dE             d eps       ncg     rms          rms(c)
RMM:   1    -0.413238179432E+03   -0.22628E-01   -0.13258E+01  4307   0.158E+00    0.979E-01
RMM:   2    -0.413217704672E+03    0.20475E-01   -0.18936E-01  4342   0.182E-01    0.684E-01
RMM:   3    -0.413229633159E+03   -0.11928E-01   -0.17872E-02  5138   0.115E-01    0.522E-01
RMM:   4    -0.413233720502E+03   -0.40873E-02   -0.37955E-02  5018   0.169E-01    0.558E-01
RMM:   5    -0.413217454157E+03    0.16266E-01   -0.63246E-03  4575   0.970E-02    0.434E-02
RMM:   6    -0.413217413225E+03    0.40932E-04   -0.11521E-03  5400   0.328E-02    0.172E-02
RMM:   7    -0.413217412502E+03    0.72348E-06   -0.13164E-04  5671   0.110E-02    0.132E-02
RMM:   8    -0.413217406958E+03    0.55433E-05   -0.29422E-05  4764   0.539E-03    0.801E-03
RMM:   9    -0.413217391408E+03    0.15550E-04   -0.78660E-06  3192   0.418E-03    0.385E-03
RMM:  10    -0.413217385330E+03    0.60778E-05   -0.15760E-06  2542   0.210E-03    0.179E-03
RMM:  11    -0.413217379253E+03    0.60779E-05   -0.85483E-07  2488   0.147E-03    0.897E-04
RMM:  12    -0.413217373736E+03    0.55166E-05   -0.43000E-07  2348   0.110E-03    0.462E-04
RMM:  13    -0.413217368611E+03    0.51253E-05   -0.25085E-07  1618   0.827E-04    0.244E-04
RMM:  14    -0.413217365891E+03    0.27196E-05   -0.14182E-07  1207   0.697E-04    0.155E-04
RMM:  15    -0.413217360233E+03    0.56576E-05   -0.12530E-07  1273   0.697E-04    0.813E-05
RMM:  16    -0.413217356830E+03    0.34031E-05   -0.84455E-08  1145   0.642E-04    0.744E-05
RMM:  17    -0.413217354409E+03    0.24212E-05   -0.57234E-08  1025   0.599E-04    0.549E-05
RMM:  18    -0.413217351187E+03    0.32224E-05   -0.57556E-08  1148   0.599E-04    0.359E-05
RMM:  19    -0.413217350801E+03    0.38543E-06   -0.25134E-08   734   0.523E-04
   45 T=    71. E= -.41286716E+03 F= -.41321735E+03 E0= -.41319640E+03  EK= 0.35019E+00 SP= 0.00E+00 SK= 0.00E+00
       N       E                     dE             d eps       ncg     rms          rms(c)
RMM:   1    -0.413243391237E+03   -0.26040E-01   -0.13231E+01  4307   0.168E+00    0.961E-01
RMM:   2    -0.413217872410E+03    0.25519E-01   -0.18641E-01  4347   0.192E-01    0.680E-01
RMM:   3    -0.413232404935E+03   -0.14533E-01   -0.20043E-02  5129   0.125E-01    0.563E-01
RMM:   4    -0.413231419411E+03    0.98552E-03   -0.37122E-02  4995   0.169E-01    0.518E-01
RMM:   5    -0.413217647987E+03    0.13771E-01   -0.53566E-03  4541   0.928E-02    0.430E-02
RMM:   6    -0.413217587813E+03    0.60174E-04   -0.88134E-04  5185   0.298E-02    0.166E-02
RMM:   7    -0.413217587243E+03    0.56941E-06   -0.10598E-04  5635   0.974E-03    0.117E-02
RMM:   8    -0.413217583900E+03    0.33435E-05   -0.32087E-05  4950   0.564E-03    0.804E-03
RMM:   9    -0.413217569079E+03    0.14821E-04   -0.11425E-05  3834   0.463E-03    0.418E-03
RMM:  10    -0.413217564100E+03    0.49786E-05   -0.16876E-06  2526   0.212E-03    0.194E-03
RMM:  11    -0.413217558579E+03    0.55211E-05   -0.11800E-06  2487   0.169E-03    0.106E-03
RMM:  12    -0.413217553948E+03    0.46313E-05   -0.42505E-07  2362   0.119E-03    0.572E-04
RMM:  13    -0.413217549918E+03    0.40291E-05   -0.20841E-07  1484   0.796E-04    0.270E-04
RMM:  14    -0.413217546558E+03    0.33609E-05   -0.11931E-07  1119   0.683E-04    0.152E-04
RMM:  15    -0.413217540955E+03    0.56029E-05   -0.12506E-07  1365   0.702E-04    0.108E-04
RMM:  16    -0.413217538696E+03    0.22585E-05   -0.61956E-08   970   0.589E-04    0.962E-05
RMM:  17    -0.413217535283E+03    0.34130E-05   -0.54260E-08   978   0.577E-04    0.453E-05
RMM:  18    -0.413217533089E+03    0.21939E-05   -0.39366E-08   876   0.551E-04    0.359E-05
RMM:  19    -0.413217532129E+03    0.96024E-06   -0.22435E-08   709   0.522E-04
   46 T=    71. E= -.41286686E+03 F= -.41321753E+03 E0= -.41319661E+03  EK= 0.35067E+00 SP= 0.00E+00 SK= 0.00E+00
       N       E                     dE             d eps       ncg     rms          rms(c)
RMM:   1    -0.413263922658E+03   -0.46390E-01   -0.13500E+01  4310   0.184E+00    0.947E-01
RMM:   2    -0.413218084305E+03    0.45838E-01   -0.22544E-01  4377   0.216E-01    0.698E-01
RMM:   3    -0.413231637538E+03   -0.13553E-01   -0.19234E-02  5136   0.124E-01    0.581E-01
RMM:   4    -0.413233227734E+03   -0.15902E-02   -0.39683E-02  5011   0.174E-01    0.568E-01
RMM:   5    -0.413217249583E+03    0.15978E-01   -0.69673E-03  4553   0.103E-01    0.489E-02
RMM:   6    -0.413217176809E+03    0.72774E-04   -0.10915E-03  5245   0.335E-02    0.188E-02
RMM:   7    -0.413217176643E+03    0.16533E-06   -0.14255E-04  5810   0.114E-02    0.141E-02
RMM:   8    -0.413217172163E+03    0.44801E-05   -0.33079E-05  4954   0.562E-03    0.899E-03
RMM:   9    -0.413217159273E+03    0.12890E-04   -0.11001E-05  3645   0.468E-03    0.469E-03
RMM:  10    -0.413217154828E+03    0.44454E-05   -0.20099E-06  2548   0.228E-03    0.228E-03
RMM:  11    -0.413217151074E+03    0.37537E-05   -0.15102E-06  2538   0.188E-03    0.123E-03
RMM:  12    -0.413217148215E+03    0.28588E-05   -0.52740E-07  2436   0.131E-03    0.688E-04
RMM:  13    -0.413217145199E+03    0.30161E-05   -0.29686E-07  1861   0.901E-04    0.351E-04
RMM:  14    -0.413217143073E+03    0.21263E-05   -0.16417E-07  1276   0.726E-04    0.198E-04
RMM:  15    -0.413217140329E+03    0.27442E-05   -0.13586E-07  1266   0.697E-04    0.861E-05
RMM:  16    -0.413217138223E+03    0.21054E-05   -0.95844E-08  1197   0.644E-04    0.874E-05
RMM:  17    -0.413217136683E+03    0.15405E-05   -0.58589E-08   932   0.579E-04    0.556E-05
RMM:  18    -0.413217135233E+03    0.14492E-05   -0.47149E-08   901   0.565E-04    0.276E-05
RMM:  19    -0.413217134626E+03    0.60727E-06   -0.27795E-08   742   0.536E-04
   47 T=    71. E= -.41286686E+03 F= -.41321713E+03 E0= -.41319623E+03  EK= 0.35028E+00 SP= 0.00E+00 SK= 0.00E+00
       N       E                     dE             d eps       ncg     rms          rms(c)
RMM:   1    -0.413267366167E+03   -0.50231E-01   -0.13541E+01  4306   0.197E+00    0.975E-01
RMM:   2    -0.413216228200E+03    0.51138E-01   -0.21300E-01  4472   0.214E-01    0.691E-01
RMM:   3    -0.413239256977E+03   -0.23029E-01   -0.27947E-02  5151   0.150E-01    0.695E-01
RMM:   4    -0.413224972318E+03    0.14285E-01   -0.37447E-02  4962   0.173E-01    0.448E-01
RMM:   5    -0.413215970960E+03    0.90014E-02   -0.46924E-03  4545   0.913E-02    0.532E-02
RMM:   6    -0.413215815382E+03    0.15558E-03   -0.47536E-04  4743   0.278E-02    0.206E-02
RMM:   7    -0.413215817670E+03   -0.22881E-05   -0.12523E-04  5920   0.109E-02    0.142E-02
RMM:   8    -0.413215807974E+03    0.96958E-05   -0.29586E-05  4868   0.584E-03    0.100E-02
RMM:   9    -0.413215792782E+03    0.15192E-04   -0.98200E-06  3599   0.439E-03    0.551E-03
RMM:  10    -0.413215785461E+03    0.73209E-05   -0.26542E-06  2609   0.269E-03    0.249E-03
RMM:  11    -0.413215780092E+03    0.53698E-05   -0.21239E-06  2557   0.222E-03    0.148E-03
RMM:  12    -0.413215774822E+03    0.52696E-05   -0.79775E-07  2441   0.157E-03    0.791E-04
RMM:  13    -0.413215770294E+03    0.45275E-05   -0.38717E-07  2281   0.105E-03    0.444E-04
RMM:  14    -0.413215766161E+03    0.41336E-05   -0.19944E-07  1474   0.752E-04    0.243E-04
RMM:  15    -0.413215761610E+03    0.45507E-05   -0.13951E-07  1317   0.693E-04    0.115E-04
RMM:  16    -0.413215757986E+03    0.36246E-05   -0.10031E-07  1265   0.652E-04    0.120E-04
RMM:  17    -0.413215755788E+03    0.21974E-05   -0.60684E-08  1026   0.584E-04    0.872E-05
RMM:  18    -0.413215753749E+03    0.20390E-05   -0.45531E-08   952   0.565E-04    0.519E-05
RMM:  19    -0.413215752912E+03    0.83703E-06   -0.27227E-08   778   0.533E-04
   48 T=    71. E= -.41286694E+03 F= -.41321575E+03 E0= -.41319486E+03  EK= 0.34881E+00 SP= 0.00E+00 SK= 0.00E+00
       N       E                     dE             d eps       ncg     rms          rms(c)
RMM:   1    -0.413267584571E+03   -0.51831E-01   -0.13413E+01  4306   0.210E+00    0.966E-01
RMM:   2    -0.413212598924E+03    0.54986E-01   -0.21032E-01  4481   0.228E-01    0.681E-01
RMM:   3    -0.413240947613E+03   -0.28349E-01   -0.32863E-02  5166   0.164E-01    0.761E-01
RMM:   4    -0.413218733079E+03    0.22215E-01   -0.37040E-02  4935   0.175E-01    0.400E-01
RMM:   5    -0.413212492872E+03    0.62402E-02   -0.47777E-03  4721   0.920E-02    0.645E-02
RMM:   6    -0.413212241421E+03    0.25145E-03   -0.47876E-04  4660   0.303E-02    0.249E-02
RMM:   7    -0.413212238569E+03    0.28519E-05   -0.12145E-04  5747   0.115E-02    0.158E-02
RMM:   8    -0.413212227281E+03    0.11288E-04   -0.21461E-05  4394   0.511E-03    0.104E-02
RMM:   9    -0.413212211038E+03    0.16242E-04   -0.10159E-05  3416   0.429E-03    0.474E-03
RMM:  10    -0.413212203077E+03    0.79611E-05   -0.33293E-06  2721   0.284E-03    0.240E-03
RMM:  11    -0.413212195907E+03    0.71707E-05   -0.20521E-06  2570   0.226E-03    0.153E-03
RMM:  12    -0.413212191016E+03    0.48907E-05   -0.69774E-07  2445   0.151E-03    0.753E-04
RMM:  13    -0.413212186893E+03    0.41229E-05   -0.34772E-07  2187   0.994E-04    0.447E-04
RMM:  14    -0.413212182051E+03    0.48420E-05   -0.22030E-07  1678   0.790E-04    0.240E-04
RMM:  15    -0.413212177227E+03    0.48245E-05   -0.15524E-07  1383   0.707E-04    0.130E-04
RMM:  16    -0.413212175149E+03    0.20776E-05   -0.83846E-08  1125   0.624E-04    0.851E-05
RMM:  17    -0.413212172249E+03    0.29004E-05   -0.78737E-08  1270   0.631E-04    0.427E-05
RMM:  18    -0.413212170825E+03    0.14232E-05   -0.42627E-08   983   0.571E-04    0.288E-05
RMM:  19    -0.413212170205E+03    0.62025E-06   -0.25007E-08   821   0.543E-04
   49 T=    70. E= -.41286687E+03 F= -.41321217E+03 E0= -.41319129E+03  EK= 0.34530E+00 SP= 0.00E+00 SK= 0.00E+00
[...]
RMM:   8    -0.413439740794E+03    0.73274E-05   -0.16420E-04  5705   0.144E-02    0.217E-02
RMM:   9    -0.413439740580E+03    0.21386E-06   -0.77705E-05  5158   0.106E-02    0.139E-02
RMM:  10    -0.413439734746E+03    0.58340E-05   -0.22579E-05  4918   0.615E-03    0.729E-03
RMM:  11    -0.413439733911E+03    0.83477E-06   -0.98355E-06  3905   0.389E-03
  139 T=   117. E= -.41286567E+03 F= -.41343973E+03 E0= -.41341550E+03  EK= 0.57406E+00 SP= 0.00E+00 SK= 0.00E+00
       N       E                     dE             d eps       ncg     rms          rms(c)
RMM:   1    -0.413564714513E+03   -0.12498E+00   -0.10598E+01  4265   0.604E+00    0.630E-01
RMM:   2    -0.413540203668E+03    0.24511E-01   -0.28136E-01  5312   0.595E-01    0.519E-01
RMM:   3    -0.413558702346E+03   -0.18499E-01   -0.44787E-02  5621   0.231E-01    0.683E-01
RMM:   4    -0.413543146288E+03    0.15556E-01   -0.20071E-02  5272   0.157E-01    0.340E-01
RMM:   5    -0.413541205630E+03    0.19407E-02   -0.10077E-02  4876   0.134E-01    0.135E-01
RMM:   6    -0.413540966223E+03    0.23941E-03   -0.17832E-03  4862   0.605E-02    0.493E-02
RMM:   7    -0.413540927360E+03    0.38862E-04   -0.56585E-04  5414   0.294E-02    0.328E-02
RMM:   8    -0.413540912127E+03    0.15233E-04   -0.20349E-04  5587   0.164E-02    0.231E-02
RMM:   9    -0.413540901996E+03    0.10131E-04   -0.79229E-05  5114   0.115E-02    0.144E-02
RMM:  10    -0.413540900201E+03    0.17947E-05   -0.22108E-05  4775   0.615E-03    0.720E-03
RMM:  11    -0.413540900960E+03   -0.75879E-06   -0.11199E-05  4015   0.414E-03    0.363E-03
RMM:  12    -0.413540902692E+03   -0.17323E-05   -0.18646E-06  2604   0.235E-03    0.211E-03
RMM:  13    -0.413540904940E+03   -0.22476E-05   -0.10833E-06  2529   0.172E-03    0.106E-03
RMM:  14    -0.413540907330E+03   -0.23908E-05   -0.62830E-07  2409   0.124E-03    0.597E-04
RMM:  15    -0.413540910131E+03   -0.28007E-05   -0.60035E-07  2190   0.108E-03    0.369E-04
RMM:  16    -0.413540912762E+03   -0.26313E-05   -0.54866E-07  2016   0.988E-04    0.268E-04
RMM:  17    -0.413540915457E+03   -0.26949E-05   -0.59827E-07  2038   0.967E-04    0.181E-04
RMM:  18    -0.413540917199E+03   -0.17420E-05   -0.33082E-07  1498   0.755E-04    0.127E-04
RMM:  19    -0.413540918881E+03   -0.16817E-05   -0.26788E-07  1519   0.733E-04    0.783E-05
RMM:  20    -0.413540919710E+03   -0.82913E-06   -0.13049E-07  1153   0.605E-04
  140 T=   137. E= -.41286905E+03 F= -.41354092E+03 E0= -.41351709E+03  EK= 0.67187E+00 SP= 0.00E+00 SK= 0.00E+00
       N       E                     dE             d eps       ncg     rms          rms(c)
RMM:   1    -0.413730793511E+03   -0.18987E+00   -0.14057E+01  4265   0.698E+00    0.769E-01
RMM:   2    -0.413691813628E+03    0.38980E-01   -0.40065E-01  5286   0.720E-01    0.635E-01
RMM:   3    -0.413705900009E+03   -0.14086E-01   -0.52164E-02  5550   0.268E-01    0.637E-01
RMM:   4    -0.413702769637E+03    0.31304E-02   -0.29831E-02  5346   0.181E-01    0.517E-01
RMM:   5    -0.413693700365E+03    0.90693E-02   -0.19163E-02  4983   0.178E-01    0.168E-01
RMM:   6    -0.413693129929E+03    0.57044E-03   -0.36727E-03  5083   0.826E-02    0.709E-02
RMM:   7    -0.413692978593E+03    0.15134E-03   -0.11927E-03  5220   0.423E-02    0.420E-02
RMM:   8    -0.413692922576E+03    0.56017E-04   -0.33591E-04  5397   0.227E-02    0.265E-02
RMM:   9    -0.413692908303E+03    0.14272E-04   -0.10714E-04  5287   0.132E-02    0.159E-02
RMM:  10    -0.413692904440E+03    0.38639E-05   -0.32590E-05  5009   0.726E-03    0.820E-03
RMM:  11    -0.413692905832E+03   -0.13922E-05   -0.14841E-05  4309   0.470E-03    0.442E-03
RMM:  12    -0.413692908857E+03   -0.30252E-05   -0.25259E-06  2699   0.261E-03    0.266E-03
RMM:  13    -0.413692913565E+03   -0.47085E-05   -0.18181E-06  2609   0.216E-03    0.147E-03
RMM:  14    -0.413692918469E+03   -0.49030E-05   -0.10628E-06  2547   0.160E-03    0.746E-04
RMM:  15    -0.413692923161E+03   -0.46920E-05   -0.85760E-07  2468   0.129E-03    0.543E-04
RMM:  16    -0.413692927937E+03   -0.47763E-05   -0.86442E-07  2225   0.116E-03    0.360E-04
RMM:  17    -0.413692932119E+03   -0.41819E-05   -0.76438E-07  2139   0.106E-03    0.234E-04
RMM:  18    -0.413692935204E+03   -0.30852E-05   -0.54518E-07  1799   0.890E-04    0.157E-04
RMM:  19    -0.413692938128E+03   -0.29244E-05   -0.47123E-07  1718   0.830E-04    0.997E-05
RMM:  20    -0.413692939416E+03   -0.12875E-05   -0.17545E-07  1158   0.630E-04    0.760E-05
RMM:  21    -0.413692940865E+03   -0.14495E-05   -0.12139E-07  1093   0.598E-04    0.529E-05
RMM:  22    -0.413692941489E+03   -0.62364E-06   -0.65951E-08   987   0.561E-04
  141 T=   166. E= -.41287583E+03 F= -.41369294E+03 E0= -.41366958E+03  EK= 0.81711E+00 SP= 0.00E+00 SK= 0.00E+00
       N       E                     dE             d eps       ncg     rms          rms(c)
RMM:   1    -0.413868849287E+03   -0.17591E+00   -0.18051E+01  4265   0.778E+00    0.101E+00
RMM:   2    -0.413799643140E+03    0.69206E-01   -0.57308E-01  5282   0.846E-01    0.826E-01
RMM:   3    -0.413802847121E+03   -0.32040E-02   -0.63130E-02  5359   0.316E-01    0.505E-01
RMM:   4    -0.413802538178E+03    0.30894E-03   -0.30046E-02  4892   0.229E-01    0.207E-01
RMM:   5    -0.413806121649E+03   -0.35835E-02   -0.11639E-02  5280   0.125E-01    0.292E-01
RMM:   6    -0.413801758786E+03    0.43629E-02   -0.43387E-03  5403   0.716E-02    0.117E-01
RMM:   7    -0.413801149320E+03    0.60947E-03   -0.21932E-03  5474   0.542E-02    0.502E-02
RMM:   8    -0.413801077305E+03    0.72014E-04   -0.43328E-04  5457   0.277E-02    0.323E-02
RMM:   9    -0.413801052809E+03    0.24496E-04   -0.12486E-04  4826   0.152E-02    0.155E-02
RMM:  10    -0.413801048133E+03    0.46760E-05   -0.45700E-05  5587   0.828E-03    0.933E-03
RMM:  11    -0.413801047207E+03    0.92625E-06   -0.15512E-05  4465   0.501E-03    0.540E-03
RMM:  12    -0.413801048792E+03   -0.15852E-05   -0.33669E-06  2779   0.297E-03    0.299E-03
RMM:  13    -0.413801052043E+03   -0.32508E-05   -0.20936E-06  2632   0.229E-03    0.151E-03
RMM:  14    -0.413801056161E+03   -0.41175E-05   -0.12824E-06  2572   0.180E-03    0.807E-04
RMM:  15    -0.413801060120E+03   -0.39594E-05   -0.98551E-07  2532   0.142E-03    0.614E-04
RMM:  16    -0.413801063862E+03   -0.37419E-05   -0.84745E-07  2256   0.119E-03    0.366E-04
RMM:  17    -0.413801067345E+03   -0.34832E-05   -0.86515E-07  2277   0.113E-03    0.233E-04
RMM:  18    -0.413801069426E+03   -0.20813E-05   -0.47300E-07  1664   0.846E-04    0.168E-04
RMM:  19    -0.413801071835E+03   -0.24083E-05   -0.50821E-07  1827   0.863E-04    0.110E-04
RMM:  20    -0.413801073103E+03   -0.12680E-05   -0.19239E-07  1220   0.645E-04    0.762E-05
RMM:  21    -0.413801074302E+03   -0.11990E-05   -0.12603E-07  1101   0.598E-04    0.458E-05
RMM:  22    -0.413801075293E+03   -0.99138E-06   -0.83868E-08  1028   0.572E-04
  142 T=   187. E= -.41288322E+03 F= -.41380108E+03 E0= -.41377816E+03  EK= 0.91785E+00 SP= 0.00E+00 SK= 0.00E+00
       N       E                     dE             d eps       ncg     rms          rms(c)
RMM:   1    -0.413847828522E+03   -0.46754E-01   -0.19702E+01  4264   0.790E+00    0.138E+00
RMM:   2    -0.413770696730E+03    0.77132E-01   -0.71926E-01  5293   0.892E-01    0.109E+00
RMM:   3    -0.413813371689E+03   -0.42675E-01   -0.12298E-01  5426   0.417E-01    0.960E-01
RMM:   4    -0.413825221491E+03   -0.11850E-01   -0.11627E-01  5153   0.344E-01    0.101E+00
RMM:   5    -0.413775356625E+03    0.49865E-01   -0.68607E-02  5153   0.316E-01    0.262E-01
RMM:   6    -0.413772907318E+03    0.24493E-02   -0.10994E-02  5187   0.139E-01    0.122E-01
RMM:   7    -0.413772380164E+03    0.52715E-03   -0.22640E-03  5120   0.609E-02    0.600E-02
RMM:   8    -0.413772327775E+03    0.52388E-04   -0.89267E-04  5667   0.358E-02    0.384E-02
RMM:   9    -0.413772315712E+03    0.12063E-04   -0.24637E-04  5701   0.188E-02    0.287E-02
RMM:  10    -0.413772295133E+03    0.20579E-04   -0.87628E-05  5240   0.120E-02    0.108E-02
RMM:  11    -0.413772295597E+03   -0.46346E-06   -0.47124E-05  5554   0.728E-03    0.893E-03
RMM:  12    -0.413772293413E+03    0.21833E-05   -0.65403E-06  3382   0.376E-03    0.434E-03
RMM:  13    -0.413772294298E+03   -0.88478E-06   -0.32942E-06  2794   0.275E-03
  143 T=   181. E= -.41288302E+03 F= -.41377229E+03 E0= -.41374970E+03  EK= 0.88927E+00 SP= 0.00E+00 SK= 0.00E+00
       N       E                     dE             d eps       ncg     rms          rms(c)
RMM:   1    -0.413693016167E+03    0.79277E-01   -0.17330E+01  4266   0.720E+00    0.144E+00
RMM:   2    -0.413642732778E+03    0.50283E-01   -0.66499E-01  5324   0.812E-01    0.112E+00
RMM:   3    -0.413695019329E+03   -0.52287E-01   -0.13334E-01  5371   0.430E-01    0.998E-01
RMM:   4    -0.413699772280E+03   -0.47530E-02   -0.12866E-01  5127   0.361E-01    0.101E+00
RMM:   5    -0.413646791957E+03    0.52980E-01   -0.69105E-02  5149   0.318E-01    0.240E-01
RMM:   6    -0.413644918204E+03    0.18738E-02   -0.10088E-02  5338   0.132E-01    0.123E-01
RMM:   7    -0.413644394127E+03    0.52408E-03   -0.20085E-03  5002   0.573E-02    0.605E-02
RMM:   8    -0.413644366749E+03    0.27378E-04   -0.10319E-03  5646   0.379E-02    0.394E-02
RMM:   9    -0.413644359105E+03    0.76445E-05   -0.25470E-04  5755   0.189E-02    0.319E-02
RMM:  10    -0.413644334592E+03    0.24513E-04   -0.13407E-04  5368   0.144E-02    0.945E-03
RMM:  11    -0.413644335991E+03   -0.13993E-05   -0.44226E-05  5553   0.691E-03    0.944E-03
RMM:  12    -0.413644332681E+03    0.33102E-05   -0.69774E-06  3518   0.376E-03    0.423E-03
RMM:  13    -0.413644332633E+03    0.48436E-07   -0.26836E-06  2700   0.251E-03
  144 T=   158. E= -.41286827E+03 F= -.41364433E+03 E0= -.41362194E+03  EK= 0.77606E+00 SP= 0.00E+00 SK= 0.00E+00
       N       E                     dE             d eps       ncg     rms          rms(c)
RMM:   1    -0.413714657348E+03   -0.70325E-01   -0.15239E+01  4267   0.651E+00    0.107E+00
RMM:   2    -0.413632626863E+03    0.82030E-01   -0.50323E-01  5384   0.743E-01    0.880E-01
RMM:   3    -0.413649684790E+03   -0.17058E-01   -0.75417E-02  5447   0.323E-01    0.726E-01
RMM:   4    -0.413670030784E+03   -0.20346E-01   -0.70716E-02  5289   0.264E-01    0.822E-01
RMM:   5    -0.413634312639E+03    0.35718E-01   -0.40802E-02  4971   0.251E-01    0.198E-01
RMM:   6    -0.413633332933E+03    0.97971E-03   -0.73118E-03  5392   0.109E-01    0.923E-02
RMM:   7    -0.413633084291E+03    0.24864E-03   -0.17160E-03  5237   0.490E-02    0.487E-02
RMM:   8    -0.413633060805E+03    0.23486E-04   -0.61703E-04  5647   0.286E-02    0.324E-02
RMM:   9    -0.413633053629E+03    0.71757E-05   -0.19206E-04  5539   0.168E-02    0.225E-02
RMM:  10    -0.413633046757E+03    0.68724E-05   -0.60942E-05  5429   0.964E-03    0.110E-02
RMM:  11    -0.413633045066E+03    0.16905E-05   -0.29241E-05  5200   0.610E-03    0.553E-03
RMM:  12    -0.413633044556E+03    0.51031E-06   -0.42417E-06  2919   0.314E-03
  145 T=   155. E= -.41287036E+03 F= -.41363304E+03 E0= -.41361089E+03  EK= 0.76268E+00 SP= 0.00E+00 SK= 0.00E+00
       N       E                     dE             d eps       ncg     rms          rms(c)
RMM:   1    -0.413857085474E+03   -0.22404E+00   -0.18200E+01  4265   0.699E+00    0.174E+00
RMM:   2    -0.413729847257E+03    0.12724E+00   -0.63375E-01  5380   0.885E-01    0.150E+00
RMM:   3    -0.413796576729E+03   -0.66729E-01   -0.16072E-01  5431   0.444E-01    0.137E+00
RMM:   4    -0.413787603740E+03    0.89730E-02   -0.16902E-01  5171   0.412E-01    0.108E+00
RMM:   5    -0.413729238080E+03    0.58366E-01   -0.75556E-02  4869   0.355E-01    0.293E-01
RMM:   6    -0.413726137334E+03    0.31007E-02   -0.97119E-03  5057   0.137E-01    0.107E-01
RMM:   7    -0.413725877064E+03    0.26027E-03   -0.21773E-03  5420   0.562E-02    0.537E-02
RMM:   8    -0.413725902248E+03   -0.25184E-04   -0.92979E-04  5699   0.349E-02    0.392E-02
RMM:   9    -0.413725894796E+03    0.74519E-05   -0.25334E-04  5674   0.187E-02    0.231E-02
RMM:  10    -0.413725887124E+03    0.76727E-05   -0.10144E-04  5572   0.119E-02    0.997E-03
RMM:  11    -0.413725889149E+03   -0.20255E-05   -0.29262E-05  5193   0.576E-03    0.717E-03
RMM:  12    -0.413725888119E+03    0.10306E-05   -0.81843E-06  3967   0.403E-03    0.423E-03
RMM:  13    -0.413725889495E+03   -0.13767E-05   -0.32988E-06  2806   0.280E-03    0.287E-03
RMM:  14    -0.413725890419E+03   -0.92407E-06   -0.93226E-07  2489   0.187E-03
  146 T=   169. E= -.41289562E+03 F= -.41372589E+03 E0= -.41370424E+03  EK= 0.83027E+00 SP= 0.00E+00 SK= 0.00E+00
       N       E                     dE             d eps       ncg     rms          rms(c)
RMM:   1    -0.413772170432E+03   -0.46281E-01   -0.19070E+01  4271   0.741E+00    0.204E+00
RMM:   2    -0.413675081600E+03    0.97089E-01   -0.69384E-01  5372   0.928E-01    0.174E+00
RMM:   3    -0.413724443029E+03   -0.49361E-01   -0.16743E-01  5355   0.474E-01    0.128E+00
RMM:   4    -0.413840294407E+03   -0.11585E+00   -0.29759E-01  5193   0.518E-01    0.164E+00
RMM:   5    -0.413672446219E+03    0.16785E+00   -0.12384E-01  4860   0.430E-01    0.302E-01
RMM:   6    -0.413669828786E+03    0.26174E-02   -0.21327E-02  5519   0.172E-01    0.119E-01
RMM:   7    -0.413669703992E+03    0.12479E-03   -0.42568E-03  5768   0.696E-02    0.684E-02
RMM:   8    -0.413669706561E+03   -0.25693E-05   -0.13754E-03  5607   0.405E-02    0.524E-02
RMM:   9    -0.413669671976E+03    0.34585E-04   -0.40127E-04  5235   0.246E-02    0.266E-02
RMM:  10    -0.413669671890E+03    0.86467E-07   -0.14164E-04  5663   0.141E-02    0.151E-02
RMM:  11    -0.413669672361E+03   -0.47070E-06   -0.47066E-05  5518   0.783E-03    0.751E-03
RMM:  12    -0.413669674404E+03   -0.20431E-05   -0.99217E-06  3963   0.412E-03    0.413E-03
RMM:  13    -0.413669677461E+03   -0.30574E-05   -0.28091E-06  2687   0.279E-03    0.287E-03
RMM:  14    -0.413669679410E+03   -0.19486E-05   -0.94293E-07  2520   0.178E-03    0.927E-04
RMM:  15    -0.413669680792E+03   -0.13823E-05   -0.47007E-07  2353   0.114E-03    0.503E-04
RMM:  16    -0.413669682554E+03   -0.17622E-05   -0.31345E-07  1644   0.882E-04    0.268E-04
RMM:  17    -0.413669683764E+03   -0.12097E-05   -0.21105E-07  1444   0.770E-04    0.145E-04
RMM:  18    -0.413669684833E+03   -0.10691E-05   -0.16512E-07  1374   0.715E-04    0.863E-05
RMM:  19    -0.413669685847E+03   -0.10139E-05   -0.13622E-07  1342   0.671E-04    0.619E-05
RMM:  20    -0.413669686330E+03   -0.48326E-06   -0.85408E-08  1113   0.605E-04
  147 T=   161. E= -.41287702E+03 F= -.41366969E+03 E0= -.41364888E+03  EK= 0.79266E+00 SP= 0.00E+00 SK= 0.00E+00
       N       E                     dE             d eps       ncg     rms          rms(c)
RMM:   1    -0.413769520436E+03   -0.99835E-01   -0.16247E+01  4290   0.727E+00    0.129E+00
RMM:   2    -0.413694306081E+03    0.75214E-01   -0.44964E-01  5379   0.751E-01    0.109E+00
RMM:   3    -0.413749289295E+03   -0.54983E-01   -0.12744E-01  5580   0.378E-01    0.134E+00
RMM:   4    -0.413688481584E+03    0.60808E-01   -0.74602E-02  5072   0.318E-01    0.507E-01
RMM:   5    -0.413685219666E+03    0.32619E-02   -0.44609E-02  4928   0.268E-01    0.213E-01
RMM:   6    -0.413682994092E+03    0.22256E-02   -0.11273E-02  5100   0.134E-01    0.112E-01
RMM:   7    -0.413682391758E+03    0.60233E-03   -0.13770E-03  4656   0.546E-02    0.503E-02
RMM:   8    -0.413682388594E+03    0.31643E-05   -0.65530E-04  5636   0.297E-02    0.350E-02
RMM:   9    -0.413682396097E+03   -0.75033E-05   -0.17615E-04  5121   0.170E-02    0.196E-02
RMM:  10    -0.413682394621E+03    0.14760E-05   -0.58159E-05  5517   0.911E-03    0.965E-03
RMM:  11    -0.413682400185E+03   -0.55635E-05   -0.27216E-05  5050   0.595E-03    0.697E-03
RMM:  12    -0.413682404233E+03   -0.40480E-05   -0.53578E-06  3113   0.345E-03    0.330E-03
RMM:  13    -0.413682406281E+03   -0.20483E-05   -0.19924E-06  2637   0.216E-03    0.153E-03
RMM:  14    -0.413682408484E+03   -0.22031E-05   -0.91950E-07  2463   0.157E-03    0.693E-04
RMM:  15    -0.413682410467E+03   -0.19830E-05   -0.53619E-07  2231   0.116E-03    0.424E-04
RMM:  16    -0.413682411952E+03   -0.14849E-05   -0.34177E-07  1853   0.900E-04    0.224E-04
RMM:  17    -0.413682413041E+03   -0.10885E-05   -0.25130E-07  1569   0.794E-04    0.120E-04
RMM:  18    -0.413682413844E+03   -0.80365E-06   -0.21644E-07  1633   0.747E-04
  148 T=   165. E= -.41287151E+03 F= -.41368241E+03 E0= -.41366239E+03  EK= 0.81090E+00 SP= 0.00E+00 SK= 0.00E+00
       N       E                     dE             d eps       ncg     rms          rms(c)
RMM:   1    -0.413912104661E+03   -0.22969E+00   -0.18628E+01  4298   0.795E+00    0.157E+00
RMM:   2    -0.413858873033E+03    0.53232E-01   -0.48901E-01  5357   0.833E-01    0.147E+00
RMM:   3    -0.413848577070E+03    0.10296E-01   -0.14744E-01  5397   0.429E-01    0.137E+00
RMM:   4    -0.413814280266E+03    0.34297E-01   -0.10360E-01  5275   0.375E-01    0.586E-01
RMM:   5    -0.413808052096E+03    0.62282E-02   -0.76261E-02  5023   0.337E-01    0.279E-01
RMM:   6    -0.413804180318E+03    0.38718E-02   -0.17880E-02  5173   0.173E-01    0.153E-01
RMM:   7    -0.413803374091E+03    0.80623E-03   -0.16408E-03  4516   0.636E-02    0.620E-02
RMM:   8    -0.413803365033E+03    0.90584E-05   -0.92580E-04  5537   0.363E-02    0.364E-02
RMM:   9    -0.413803383226E+03   -0.18193E-04   -0.24541E-04  5544   0.190E-02    0.230E-02
RMM:  10    -0.413803383774E+03   -0.54764E-06   -0.65091E-05  5378   0.102E-02    0.992E-03
RMM:  11    -0.413803395860E+03   -0.12086E-04   -0.34247E-05  5379   0.669E-03    0.745E-03
RMM:  12    -0.413803404346E+03   -0.84861E-05   -0.71743E-06  3408   0.387E-03    0.363E-03
RMM:  13    -0.413803407861E+03   -0.35153E-05   -0.25761E-06  2699   0.246E-03    0.159E-03
RMM:  14    -0.413803411279E+03   -0.34182E-05   -0.14090E-06  2573   0.183E-03    0.783E-04
RMM:  15    -0.413803413875E+03   -0.25959E-05   -0.10766E-06  2446   0.149E-03    0.561E-04
RMM:  16    -0.413803415268E+03   -0.13923E-05   -0.85445E-07  2295   0.121E-03    0.339E-04
RMM:  17    -0.413803415466E+03   -0.19853E-06   -0.72708E-07  2138   0.106E-03
  149 T=   185. E= -.41289581E+03 F= -.41380342E+03 E0= -.41378398E+03  EK= 0.90761E+00 SP= 0.00E+00 SK= 0.00E+00
       N       E                     dE             d eps       ncg     rms          rms(c)
RMM:   1    -0.413815625846E+03   -0.12211E-01   -0.18687E+01  4301   0.799E+00    0.150E+00
RMM:   2    -0.413777231497E+03    0.38394E-01   -0.50819E-01  5375   0.869E-01    0.153E+00
RMM:   3    -0.413740608691E+03    0.36623E-01   -0.13275E-01  5418   0.414E-01    0.131E+00
RMM:   4    -0.413716182201E+03    0.24426E-01   -0.76777E-02  5302   0.326E-01    0.637E-01
RMM:   5    -0.413716502120E+03   -0.31992E-03   -0.72842E-02  5046   0.327E-01    0.357E-01
RMM:   6    -0.413710511015E+03    0.59911E-02   -0.24721E-02  5036   0.197E-01    0.161E-01
RMM:   7    -0.413709567447E+03    0.94357E-03   -0.22522E-03  4742   0.744E-02    0.689E-02
RMM:   8    -0.413709554076E+03    0.13372E-04   -0.84592E-04  5696   0.345E-02    0.440E-02
RMM:   9    -0.413709569189E+03   -0.15113E-04   -0.27220E-04  4775   0.210E-02    0.185E-02
RMM:  10    -0.413709587882E+03   -0.18693E-04   -0.75602E-05  5517   0.105E-02    0.104E-02
RMM:  11    -0.413709602071E+03   -0.14189E-04   -0.23205E-05  4855   0.609E-03    0.712E-03
RMM:  12    -0.413709615534E+03   -0.13463E-04   -0.90262E-06  3521   0.429E-03    0.395E-03
RMM:  13    -0.413709621667E+03   -0.61327E-05   -0.33128E-06  2796   0.263E-03    0.193E-03
RMM:  14    -0.413709625844E+03   -0.41771E-05   -0.20518E-06  2668   0.199E-03    0.107E-03
RMM:  15    -0.413709629481E+03   -0.36373E-05   -0.21236E-06  2663   0.190E-03    0.755E-04
RMM:  16    -0.413709630265E+03   -0.78366E-06   -0.18285E-06  2492   0.154E-03
  150 T=   168. E= -.41288525E+03 F= -.41370963E+03 E0= -.41369058E+03  EK= 0.82438E+00 SP= 0.00E+00 SK= 0.00E+00
