       N       E                     dE             d eps       ncg     rms          rms(c)
RMM:   1     0.220138621986E+04    0.22014E+04   -0.52437E+04  2132   0.654E+02
RMM:   2     0.705235329597E+03   -0.14962E+04   -0.16260E+04  2132   0.177E+02
RMM:   3     0.137565974096E+03   -0.56767E+03   -0.65723E+03  2132   0.117E+02
RMM:   4    -0.159077855358E+03   -0.29664E+03   -0.27863E+03  2132   0.937E+01
RMM:   5    -0.287407201433E+03   -0.12833E+03   -0.11443E+03  2132   0.595E+01
RMM:   6    -0.349767782542E+03   -0.62361E+02   -0.55140E+02  2132   0.423E+01
RMM:   7    -0.382764306389E+03   -0.32997E+02   -0.30490E+02  2132   0.293E+01
RMM:   8    -0.404262501076E+03   -0.21498E+02   -0.18439E+02  2132   0.233E+01
RMM:   9    -0.435964992185E+03   -0.31702E+02   -0.30644E+02  6104   0.173E+01
RMM:  10    -0.441339019348E+03   -0.53740E+01   -0.63747E+01  6397   0.539E+00
RMM:  11    -0.442506876080E+03   -0.11679E+01   -0.10942E+01  6210   0.172E+00
RMM:  12    -0.442876117517E+03   -0.36924E+00   -0.25287E+00  6358   0.594E-01    0.134E+02
RMM:  13    -0.425588505982E+03    0.17288E+02   -0.80790E+01  4673   0.119E+01    0.712E+01
RMM:  14    -0.499528913302E+03   -0.73940E+02   -0.53911E+02  5413   0.232E+01    0.307E+01
RMM:  15    -0.415850326915E+03    0.83679E+02   -0.19920E+02  5078   0.163E+01    0.697E+00
RMM:  16    -0.414034981385E+03    0.18153E+01   -0.39743E+01  6080   0.611E+00    0.429E+00
RMM:  17    -0.413213167422E+03    0.82181E+00   -0.25527E+00  5387   0.188E+00    0.244E+00
RMM:  18    -0.413174429211E+03    0.38738E-01   -0.79582E-01  5981   0.909E-01    0.166E+00
RMM:  19    -0.413170043760E+03    0.43855E-02   -0.27405E-01  5688   0.564E-01    0.877E-01
RMM:  20    -0.413188680742E+03   -0.18637E-01   -0.27164E-01  5547   0.548E-01    0.620E-01
RMM:  21    -0.413167775438E+03    0.20905E-01   -0.33858E-02  4967   0.241E-01    0.284E-01
RMM:  22    -0.413165104602E+03    0.26708E-02   -0.18980E-02  5953   0.128E-01    0.140E-01
RMM:  23    -0.413164087240E+03    0.10174E-02   -0.66205E-03  6048   0.749E-02    0.893E-02
RMM:  24    -0.413163009090E+03    0.10782E-02   -0.16384E-03  5259   0.429E-02    0.477E-02
RMM:  25    -0.413162610871E+03    0.39822E-03   -0.80314E-04  5224   0.273E-02    0.390E-02
RMM:  26    -0.413162753550E+03   -0.14268E-03   -0.88445E-04  5722   0.312E-02    0.310E-02
RMM:  27    -0.413163190980E+03   -0.43743E-03   -0.18292E-04  4562   0.194E-02    0.189E-02
RMM:  28    -0.413163656613E+03   -0.46563E-03   -0.15009E-04  5024   0.179E-02    0.105E-02
RMM:  29    -0.413164057876E+03   -0.40126E-03   -0.11615E-04  4585   0.160E-02    0.427E-03
RMM:  30    -0.413164282661E+03   -0.22478E-03   -0.76534E-05  4322   0.101E-02    0.362E-03
RMM:  31    -0.413164415192E+03   -0.13253E-03   -0.52570E-05  3256   0.698E-03    0.344E-03
RMM:  32    -0.413164440652E+03   -0.25460E-04   -0.19861E-05  2977   0.300E-03    0.188E-03
RMM:  33    -0.413164454142E+03   -0.13490E-04   -0.82150E-06  2790   0.225E-03    0.667E-04
RMM:  34    -0.413164457224E+03   -0.30818E-05   -0.47248E-06  2647   0.159E-03    0.638E-04
RMM:  35    -0.413164457938E+03   -0.71458E-06   -0.20812E-06  2346   0.124E-03
    1 T=    61. E= -.41286666E+03 F= -.41316446E+03 E0= -.41314196E+03  EK= 0.29780E+00 SP= 0.00E+00 SK= 0.00E+00
       N       E                     dE             d eps       ncg     rms          rms(c)
RMM:   1    -0.413155444611E+03    0.90126E-02   -0.10973E+01  3998   0.697E-01    0.886E-01
RMM:   2    -0.413165826498E+03   -0.10382E-01   -0.13509E-01  3880   0.999E-02    0.641E-01
RMM:   3    -0.413164143445E+03    0.16831E-02   -0.68652E-03  4670   0.356E-02    0.146E-01
RMM:   4    -0.413179218701E+03   -0.15075E-01   -0.15801E-02  5224   0.105E-01    0.514E-01
RMM:   5    -0.413163927007E+03    0.15292E-01   -0.76282E-03  4864   0.859E-02    0.298E-02
RMM:   6    -0.413164022331E+03   -0.95324E-04   -0.12367E-03  5831   0.339E-02    0.184E-02
RMM:   7    -0.413164034090E+03   -0.11759E-04   -0.17262E-04  5733   0.114E-02    0.119E-02
RMM:   8    -0.413164041076E+03   -0.69859E-05   -0.22916E-05  4110   0.479E-03    0.535E-03
RMM:   9    -0.413164046793E+03   -0.57169E-05   -0.50019E-06  2871   0.256E-03    0.388E-03
RMM:  10    -0.413164052264E+03   -0.54705E-05   -0.12990E-06  2534   0.162E-03    0.252E-03
RMM:  11    -0.413164060079E+03   -0.78152E-05   -0.12331E-06  2522   0.153E-03    0.101E-03
RMM:  12    -0.413164064897E+03   -0.48180E-05   -0.74895E-07  2309   0.117E-03    0.404E-04
RMM:  13    -0.413164065616E+03   -0.71940E-06   -0.34285E-07  1634   0.813E-04
    2 T=    61. E= -.41286636E+03 F= -.41316407E+03 E0= -.41314157E+03  EK= 0.29770E+00 SP= 0.00E+00 SK= 0.00E+00
       N       E                     dE             d eps       ncg     rms          rms(c)
RMM:   1    -0.413156431713E+03    0.76332E-02   -0.11003E+01  4185   0.696E-01    0.910E-01
RMM:   2    -0.413165905931E+03   -0.94742E-02   -0.13242E-01  3855   0.954E-02    0.634E-01
RMM:   3    -0.413164858209E+03    0.10477E-02   -0.72904E-03  4820   0.380E-02    0.160E-01
RMM:   4    -0.413190157157E+03   -0.25299E-01   -0.25739E-02  5192   0.134E-01    0.663E-01
RMM:   5    -0.413164512675E+03    0.25644E-01   -0.12495E-02  4832   0.111E-01    0.372E-02
RMM:   6    -0.413164682003E+03   -0.16933E-03   -0.20958E-03  5816   0.440E-02    0.215E-02
RMM:   7    -0.413164691776E+03   -0.97727E-05   -0.26718E-04  5909   0.139E-02    0.147E-02
RMM:   8    -0.413164691761E+03    0.15476E-07   -0.38805E-05  4725   0.597E-03    0.773E-03
RMM:   9    -0.413164691111E+03    0.64911E-06   -0.79510E-06  3270   0.317E-03
    3 T=    61. E= -.41286676E+03 F= -.41316469E+03 E0= -.41314220E+03  EK= 0.29793E+00 SP= 0.00E+00 SK= 0.00E+00
       N       E                     dE             d eps       ncg     rms          rms(c)
RMM:   1    -0.413155968539E+03    0.87232E-02   -0.10916E+01  4227   0.697E-01    0.893E-01
RMM:   2    -0.413165933789E+03   -0.99653E-02   -0.13130E-01  4259   0.987E-02    0.628E-01
RMM:   3    -0.413170498054E+03   -0.45643E-02   -0.11853E-02  5198   0.791E-02    0.361E-01
RMM:   4    -0.413185485728E+03   -0.14988E-01   -0.35681E-02  5113   0.162E-01    0.607E-01
RMM:   5    -0.413164461724E+03    0.21024E-01   -0.80749E-03  4693   0.101E-01    0.535E-02
RMM:   6    -0.413164436055E+03    0.25669E-04   -0.14333E-03  5437   0.382E-02    0.204E-02
RMM:   7    -0.413164453104E+03   -0.17048E-04   -0.24386E-04  6011   0.146E-02    0.135E-02
RMM:   8    -0.413164455003E+03   -0.18993E-05   -0.38299E-05  5084   0.643E-03    0.679E-03
RMM:   9    -0.413164456103E+03   -0.10997E-05   -0.92297E-06  3521   0.385E-03    0.365E-03
RMM:  10    -0.413164457454E+03   -0.13518E-05   -0.13218E-06  2528   0.196E-03    0.220E-03
RMM:  11    -0.413164459798E+03   -0.23436E-05   -0.12564E-06  2544   0.173E-03    0.129E-03
RMM:  12    -0.413164461046E+03   -0.12480E-05   -0.54984E-07  2345   0.119E-03    0.448E-04
RMM:  13    -0.413164462141E+03   -0.10954E-05   -0.34945E-07  1624   0.843E-04    0.251E-04
RMM:  14    -0.413164462683E+03   -0.54192E-06   -0.20955E-07  1415   0.730E-04
    4 T=    61. E= -.41286654E+03 F= -.41316446E+03 E0= -.41314198E+03  EK= 0.29792E+00 SP= 0.00E+00 SK= 0.00E+00
       N       E                     dE             d eps       ncg     rms          rms(c)
RMM:   1    -0.413155808936E+03    0.86532E-02   -0.10958E+01  4238   0.705E-01    0.884E-01
RMM:   2    -0.413166327555E+03   -0.10519E-01   -0.13509E-01  3962   0.952E-02    0.640E-01
RMM:   3    -0.413164883248E+03    0.14443E-02   -0.69386E-03  4898   0.376E-02    0.156E-01
RMM:   4    -0.413194259959E+03   -0.29377E-01   -0.30034E-02  5171   0.145E-01    0.715E-01
RMM:   5    -0.413164382722E+03    0.29877E-01   -0.14480E-02  4817   0.119E-01    0.377E-02
RMM:   6    -0.413164571322E+03   -0.18860E-03   -0.23563E-03  5787   0.469E-02    0.202E-02
RMM:   7    -0.413164587871E+03   -0.16549E-04   -0.29183E-04  5906   0.143E-02    0.144E-02
RMM:   8    -0.413164593104E+03   -0.52328E-05   -0.41137E-05  4766   0.605E-03    0.783E-03
RMM:   9    -0.413164596988E+03   -0.38848E-05   -0.84897E-06  3317   0.324E-03    0.529E-03
RMM:  10    -0.413164602113E+03   -0.51241E-05   -0.17738E-06  2552   0.195E-03    0.324E-03
RMM:  11    -0.413164608391E+03   -0.62789E-05   -0.15501E-06  2556   0.183E-03    0.152E-03
RMM:  12    -0.413164612759E+03   -0.43678E-05   -0.91098E-07  2464   0.144E-03    0.494E-04
RMM:  13    -0.413164613402E+03   -0.64253E-06   -0.31409E-07  1994   0.933E-04
    5 T=    61. E= -.41286658E+03 F= -.41316461E+03 E0= -.41314214E+03  EK= 0.29803E+00 SP= 0.00E+00 SK= 0.00E+00
       N       E                     dE             d eps       ncg     rms          rms(c)
RMM:   1    -0.413161081877E+03    0.35309E-02   -0.11046E+01  4252   0.736E-01    0.906E-01
RMM:   2    -0.413166480626E+03   -0.53987E-02   -0.13139E-01  4007   0.965E-02    0.636E-01
RMM:   3    -0.413165359210E+03    0.11214E-02   -0.71703E-03  4826   0.377E-02    0.157E-01
RMM:   4    -0.413191478553E+03   -0.26119E-01   -0.26495E-02  5164   0.136E-01    0.675E-01
RMM:   5    -0.413164956274E+03    0.26522E-01   -0.12954E-02  4822   0.112E-01    0.370E-02
RMM:   6    -0.413165122938E+03   -0.16666E-03   -0.21015E-03  5803   0.442E-02    0.212E-02
RMM:   7    -0.413165131887E+03   -0.89491E-05   -0.26365E-04  5868   0.139E-02    0.146E-02
RMM:   8    -0.413165132185E+03   -0.29785E-06   -0.38899E-05  4731   0.602E-03    0.781E-03
RMM:   9    -0.413165131501E+03    0.68334E-06   -0.80664E-06  3290   0.322E-03
    6 T=    61. E= -.41286683E+03 F= -.41316513E+03 E0= -.41314267E+03  EK= 0.29830E+00 SP= 0.00E+00 SK= 0.00E+00
       N       E                     dE             d eps       ncg     rms          rms(c)
RMM:   1    -0.413156503041E+03    0.86291E-02   -0.10946E+01  4272   0.715E-01    0.901E-01
RMM:   2    -0.413165890694E+03   -0.93877E-02   -0.13175E-01  4296   0.979E-02    0.629E-01
RMM:   3    -0.413170572644E+03   -0.46820E-02   -0.11851E-02  5167   0.780E-02    0.356E-01
RMM:   4    -0.413185995364E+03   -0.15423E-01   -0.35455E-02  5091   0.161E-01    0.610E-01
RMM:   5    -0.413164787336E+03    0.21208E-01   -0.81675E-03  4684   0.101E-01    0.531E-02
RMM:   6    -0.413164770276E+03    0.17060E-04   -0.14631E-03  5445   0.382E-02    0.205E-02
RMM:   7    -0.413164786219E+03   -0.15942E-04   -0.24068E-04  6002   0.145E-02    0.135E-02
RMM:   8    -0.413164786606E+03   -0.38699E-06   -0.38217E-05  5084   0.644E-03    0.675E-03
RMM:   9    -0.413164784926E+03    0.16798E-05   -0.86819E-06  3415   0.377E-03    0.358E-03
RMM:  10    -0.413164785122E+03   -0.19579E-06   -0.13067E-06  2530   0.195E-03
    7 T=    61. E= -.41286644E+03 F= -.41316479E+03 E0= -.41314234E+03  EK= 0.29835E+00 SP= 0.00E+00 SK= 0.00E+00
       N       E                     dE             d eps       ncg     rms          rms(c)
RMM:   1    -0.413156582823E+03    0.82021E-02   -0.10945E+01  4272   0.718E-01    0.883E-01
RMM:   2    -0.413167024204E+03   -0.10441E-01   -0.13440E-01  4069   0.954E-02    0.637E-01
RMM:   3    -0.413165725041E+03    0.12992E-02   -0.69427E-03  4902   0.380E-02    0.159E-01
RMM:   4    -0.413196491167E+03   -0.30766E-01   -0.31489E-02  5153   0.147E-01    0.730E-01
RMM:   5    -0.413165242781E+03    0.31248E-01   -0.15226E-02  4812   0.122E-01    0.394E-02
RMM:   6    -0.413165433061E+03   -0.19028E-03   -0.24443E-03  5776   0.479E-02    0.203E-02
RMM:   7    -0.413165451488E+03   -0.18427E-04   -0.30951E-04  5903   0.146E-02    0.143E-02
RMM:   8    -0.413165456035E+03   -0.45465E-05   -0.39507E-05  4647   0.590E-03    0.736E-03
RMM:   9    -0.413165459149E+03   -0.31147E-05   -0.85775E-06  3268   0.317E-03    0.500E-03
RMM:  10    -0.413165462861E+03   -0.37112E-05   -0.17906E-06  2550   0.194E-03    0.308E-03
RMM:  11    -0.413165467478E+03   -0.46174E-05   -0.14853E-06  2553   0.178E-03    0.138E-03
RMM:  12    -0.413165470376E+03   -0.28980E-05   -0.88830E-07  2451   0.139E-03    0.443E-04
RMM:  13    -0.413165470783E+03   -0.40673E-06   -0.30800E-07  1960   0.915E-04
    8 T=    61. E= -.41286676E+03 F= -.41316547E+03 E0= -.41314304E+03  EK= 0.29871E+00 SP= 0.00E+00 SK= 0.00E+00
       N       E                     dE             d eps       ncg     rms          rms(c)
RMM:   1    -0.413157058577E+03    0.84118E-02   -0.11007E+01  4283   0.722E-01    0.900E-01
RMM:   2    -0.413166995908E+03   -0.99373E-02   -0.13353E-01  4168   0.998E-02    0.639E-01
RMM:   3    -0.413165820125E+03    0.11758E-02   -0.71193E-03  4799   0.391E-02    0.158E-01
RMM:   4    -0.413192105468E+03   -0.26285E-01   -0.26727E-02  5155   0.136E-01    0.677E-01
RMM:   5    -0.413165367957E+03    0.26738E-01   -0.13099E-02  4818   0.113E-01    0.364E-02
RMM:   6    -0.413165536338E+03   -0.16838E-03   -0.20993E-03  5796   0.441E-02    0.206E-02
RMM:   7    -0.413165546785E+03   -0.10447E-04   -0.26365E-04  5877   0.139E-02    0.144E-02
RMM:   8    -0.413165547140E+03   -0.35537E-06   -0.38848E-05  4742   0.606E-03    0.786E-03
RMM:   9    -0.413165546451E+03    0.68950E-06   -0.80451E-06  3282   0.326E-03
    9 T=    61. E= -.41286660E+03 F= -.41316555E+03 E0= -.41314314E+03  EK= 0.29894E+00 SP= 0.00E+00 SK= 0.00E+00
       N       E                     dE             d eps       ncg     rms          rms(c)
RMM:   1    -0.413157497195E+03    0.80499E-02   -0.10990E+01  4292   0.731E-01    0.908E-01
RMM:   2    -0.413166748980E+03   -0.92518E-02   -0.13177E-01  4314   0.967E-02    0.631E-01
RMM:   3    -0.413171625086E+03   -0.48761E-02   -0.12184E-02  5162   0.796E-02    0.363E-01
RMM:   4    -0.413185999323E+03   -0.14374E-01   -0.34947E-02  5083   0.160E-01    0.599E-01
RMM:   5    -0.413165685048E+03    0.20314E-01   -0.78006E-03  4675   0.996E-02    0.524E-02
RMM:   6    -0.413165667410E+03    0.17638E-04   -0.14105E-03  5441   0.373E-02    0.209E-02
RMM:   7    -0.413165681250E+03   -0.13840E-04   -0.23003E-04  5997   0.143E-02    0.136E-02
RMM:   8    -0.413165680219E+03    0.10312E-05   -0.37490E-05  5076   0.644E-03    0.670E-03
RMM:   9    -0.413165676318E+03    0.39012E-05   -0.83521E-06  3364   0.373E-03    0.353E-03
RMM:  10    -0.413165675695E+03    0.62298E-06   -0.12680E-06  2522   0.193E-03
   10 T=    61. E= -.41286652E+03 F= -.41316568E+03 E0= -.41314329E+03  EK= 0.29915E+00 SP= 0.00E+00 SK= 0.00E+00
       N       E                     dE             d eps       ncg     rms          rms(c)
RMM:   1    -0.413157683000E+03    0.79933E-02   -0.10939E+01  4300   0.727E-01    0.884E-01
RMM:   2    -0.413168043608E+03   -0.10361E-01   -0.13340E-01  4176   0.960E-02    0.635E-01
RMM:   3    -0.413166824656E+03    0.12190E-02   -0.69067E-03  4916   0.407E-02    0.163E-01
RMM:   4    -0.413199668068E+03   -0.32843E-01   -0.33735E-02  5147   0.153E-01    0.755E-01
RMM:   5    -0.413166208148E+03    0.33460E-01   -0.16353E-02  4810   0.126E-01    0.402E-02
RMM:   6    -0.413166399760E+03   -0.19161E-03   -0.25447E-03  5764   0.495E-02    0.210E-02
RMM:   7    -0.413166415086E+03   -0.15326E-04   -0.32817E-04  5922   0.151E-02    0.149E-02
RMM:   8    -0.413166417154E+03   -0.20681E-05   -0.42195E-05  4731   0.616E-03    0.773E-03
RMM:   9    -0.413166417774E+03   -0.62004E-06   -0.93120E-06  3338   0.331E-03
   11 T=    61. E= -.41286681E+03 F= -.41316642E+03 E0= -.41314406E+03  EK= 0.29961E+00 SP= 0.00E+00 SK= 0.00E+00
       N       E                     dE             d eps       ncg     rms          rms(c)
RMM:   1    -0.413157805014E+03    0.86121E-02   -0.11019E+01  4299   0.739E-01    0.895E-01
RMM:   2    -0.413167872386E+03   -0.10067E-01   -0.13498E-01  4294   0.983E-02    0.642E-01
RMM:   3    -0.413171603870E+03   -0.37315E-02   -0.11259E-02  5153   0.761E-02    0.342E-01
RMM:   4    -0.413192433853E+03   -0.20830E-01   -0.40587E-02  5092   0.171E-01    0.673E-01
RMM:   5    -0.413166246736E+03    0.26187E-01   -0.10386E-02  4697   0.111E-01    0.542E-02
RMM:   6    -0.413166265729E+03   -0.18993E-04   -0.18414E-03  5511   0.424E-02    0.193E-02
RMM:   7    -0.413166286440E+03   -0.20712E-04   -0.27503E-04  6011   0.150E-02    0.133E-02
RMM:   8    -0.413166289529E+03   -0.30889E-05   -0.43418E-05  5139   0.659E-03    0.697E-03
RMM:   9    -0.413166290623E+03   -0.10932E-05   -0.89544E-06  3330   0.373E-03    0.365E-03
RMM:  10    -0.413166291948E+03   -0.13251E-05   -0.15834E-06  2543   0.199E-03    0.217E-03
RMM:  11    -0.413166293881E+03   -0.19338E-05   -0.13589E-06  2545   0.176E-03    0.138E-03
RMM:  12    -0.413166294580E+03   -0.69844E-06   -0.58454E-07  2388   0.123E-03
   12 T=    61. E= -.41286641E+03 F= -.41316629E+03 E0= -.41314396E+03  EK= 0.29989E+00 SP= 0.00E+00 SK= 0.00E+00
       N       E                     dE             d eps       ncg     rms          rms(c)
RMM:   1    -0.413158845283E+03    0.74486E-02   -0.11037E+01  4298   0.746E-01    0.913E-01
RMM:   2    -0.413167986642E+03   -0.91414E-02   -0.13203E-01  4207   0.952E-02    0.633E-01
RMM:   3    -0.413167473435E+03    0.51321E-03   -0.75611E-03  4996   0.411E-02    0.178E-01
RMM:   4    -0.413205788617E+03   -0.38315E-01   -0.40119E-02  5146   0.166E-01    0.814E-01
RMM:   5    -0.413166722676E+03    0.39066E-01   -0.18819E-02  4793   0.136E-01    0.451E-02
RMM:   6    -0.413166942105E+03   -0.21943E-03   -0.30968E-03  5753   0.538E-02    0.233E-02
RMM:   7    -0.413166953701E+03   -0.11596E-04   -0.38360E-04  5927   0.162E-02    0.167E-02
RMM:   8    -0.413166950175E+03    0.35267E-05   -0.52733E-05  5023   0.682E-03    0.925E-03
RMM:   9    -0.413166944668E+03    0.55064E-05   -0.10522E-05  3477   0.351E-03    0.591E-03
RMM:  10    -0.413166941327E+03    0.33409E-05   -0.21604E-06  2557   0.210E-03    0.353E-03
RMM:  11    -0.413166937926E+03    0.34018E-05   -0.16203E-06  2548   0.192E-03    0.162E-03
RMM:  12    -0.413166934849E+03    0.30764E-05   -0.93491E-07  2482   0.153E-03    0.484E-04
RMM:  13    -0.413166934199E+03    0.65050E-06   -0.35477E-07  2116   0.101E-03
   13 T=    61. E= -.41286656E+03 F= -.41316693E+03 E0= -.41314463E+03  EK= 0.30037E+00 SP= 0.00E+00 SK= 0.00E+00
       N       E                     dE             d eps       ncg     rms          rms(c)
RMM:   1    -0.413158837440E+03    0.80974E-02   -0.10953E+01  4294   0.741E-01    0.888E-01
RMM:   2    -0.413168910225E+03   -0.10073E-01   -0.13355E-01  4225   0.947E-02    0.633E-01
RMM:   3    -0.413167836655E+03    0.10736E-02   -0.69839E-03  4869   0.393E-02    0.163E-01
RMM:   4    -0.413199066888E+03   -0.31230E-01   -0.32041E-02  5148   0.149E-01    0.736E-01
RMM:   5    -0.413167299181E+03    0.31768E-01   -0.15494E-02  4804   0.123E-01    0.390E-02
RMM:   6    -0.413167492771E+03   -0.19359E-03   -0.25252E-03  5791   0.482E-02    0.214E-02
RMM:   7    -0.413167503702E+03   -0.10931E-04   -0.30426E-04  5888   0.148E-02    0.151E-02
RMM:   8    -0.413167502927E+03    0.77427E-06   -0.45668E-05  4871   0.644E-03    0.857E-03
RMM:   9    -0.413167500337E+03    0.25907E-05   -0.93790E-06  3407   0.343E-03    0.575E-03
RMM:  10    -0.413167499912E+03    0.42440E-06   -0.18545E-06  2550   0.202E-03
   14 T=    61. E= -.41286661E+03 F= -.41316750E+03 E0= -.41314523E+03  EK= 0.30089E+00 SP= 0.00E+00 SK= 0.00E+00
       N       E                     dE             d eps       ncg     rms          rms(c)
RMM:   1    -0.413158918544E+03    0.85818E-02   -0.11043E+01  4305   0.750E-01    0.892E-01
RMM:   2    -0.413169539135E+03   -0.10621E-01   -0.13598E-01  4279   0.995E-02    0.644E-01
RMM:   3    -0.413170881613E+03   -0.13425E-02   -0.94740E-03  5123   0.643E-02    0.281E-01
RMM:   4    -0.413203650134E+03   -0.32769E-01   -0.46997E-02  5108   0.182E-01    0.784E-01
RMM:   5    -0.413167529231E+03    0.36121E-01   -0.15567E-02  4735   0.130E-01    0.518E-02
RMM:   6    -0.413167641992E+03   -0.11276E-03   -0.25484E-03  5642   0.501E-02    0.186E-02
RMM:   7    -0.413167666593E+03   -0.24602E-04   -0.33604E-04  6003   0.154E-02    0.137E-02
RMM:   8    -0.413167669705E+03   -0.31118E-05   -0.48128E-05  5098   0.672E-03    0.718E-03
RMM:   9    -0.413167669880E+03   -0.17517E-06   -0.88005E-06  3158   0.338E-03
   15 T=    61. E= -.41286632E+03 F= -.41316767E+03 E0= -.41314544E+03  EK= 0.30135E+00 SP= 0.00E+00 SK= 0.00E+00
       N       E                     dE             d eps       ncg     rms          rms(c)
RMM:   1    -0.413160536178E+03    0.71335E-02   -0.11081E+01  4297   0.754E-01    0.915E-01
RMM:   2    -0.413169798167E+03   -0.92620E-02   -0.13321E-01  4253   0.994E-02    0.636E-01
RMM:   3    -0.413168958451E+03    0.83972E-03   -0.74361E-03  4922   0.393E-02    0.169E-01
RMM:   4    -0.413201614109E+03   -0.32656E-01   -0.33543E-02  5147   0.152E-01    0.752E-01
RMM:   5    -0.413168410375E+03    0.33204E-01   -0.16232E-02  4809   0.126E-01    0.412E-02
RMM:   6    -0.413168599641E+03   -0.18927E-03   -0.26161E-03  5813   0.494E-02    0.228E-02
RMM:   7    -0.413168606740E+03   -0.70990E-05   -0.33080E-04  5934   0.154E-02    0.159E-02
RMM:   8    -0.413168602449E+03    0.42909E-05   -0.45499E-05  4848   0.644E-03    0.845E-03
RMM:   9    -0.413168597115E+03    0.53331E-05   -0.97838E-06  3431   0.343E-03    0.576E-03
RMM:  10    -0.413168593620E+03    0.34954E-05   -0.18477E-06  2548   0.201E-03    0.350E-03
RMM:  11    -0.413168589330E+03    0.42897E-05   -0.16647E-06  2553   0.195E-03    0.159E-03
RMM:  12    -0.413168585460E+03    0.38701E-05   -0.94867E-07  2483   0.152E-03    0.540E-04
RMM:  13    -0.413168584837E+03    0.62314E-06   -0.31935E-07  2087   0.963E-04
   16 T=    61. E= -.41286655E+03 F= -.41316858E+03 E0= -.41314639E+03  EK= 0.30203E+00 SP= 0.00E+00 SK= 0.00E+00
       N       E                     dE             d eps       ncg     rms          rms(c)
RMM:   1    -0.413160413601E+03    0.81719E-02   -0.10996E+01  4298   0.752E-01    0.895E-01
RMM:   2    -0.413170496032E+03   -0.10082E-01   -0.13399E-01  4248   0.972E-02    0.633E-01
RMM:   3    -0.413169323562E+03    0.11725E-02   -0.70612E-03  4892   0.409E-02    0.167E-01
RMM:   4    -0.413202163709E+03   -0.32840E-01   -0.33753E-02  5143   0.152E-01    0.754E-01
RMM:   5    -0.413168798785E+03    0.33365E-01   -0.16321E-02  4802   0.126E-01    0.402E-02
RMM:   6    -0.413168991540E+03   -0.19275E-03   -0.26434E-03  5786   0.495E-02    0.221E-02
RMM:   7    -0.413169000937E+03   -0.93971E-05   -0.31930E-04  5892   0.151E-02    0.155E-02
RMM:   8    -0.413168998413E+03    0.25243E-05   -0.47843E-05  4904   0.654E-03    0.886E-03
RMM:   9    -0.413168993838E+03    0.45745E-05   -0.10094E-05  3479   0.351E-03    0.593E-03
RMM:  10    -0.413168991362E+03    0.24764E-05   -0.19290E-06  2550   0.205E-03    0.360E-03
RMM:  11    -0.413168988348E+03    0.30136E-05   -0.18454E-06  2561   0.204E-03    0.165E-03
RMM:  12    -0.413168985771E+03    0.25768E-05   -0.90415E-07  2477   0.154E-03    0.552E-04
RMM:  13    -0.413168985351E+03    0.42041E-06   -0.32136E-07  2073   0.970E-04
   17 T=    62. E= -.41286643E+03 F= -.41316899E+03 E0= -.41314683E+03  EK= 0.30255E+00 SP= 0.00E+00 SK= 0.00E+00
       N       E                     dE             d eps       ncg     rms          rms(c)
RMM:   1    -0.413160833442E+03    0.81523E-02   -0.11073E+01  4298   0.766E-01    0.890E-01
RMM:   2    -0.413171451106E+03   -0.10618E-01   -0.13660E-01  4260   0.101E-01    0.645E-01
RMM:   3    -0.413169939464E+03    0.15116E-02   -0.70628E-03  4906   0.405E-02    0.163E-01
RMM:   4    -0.413204021646E+03   -0.34082E-01   -0.35284E-02  5150   0.156E-01    0.768E-01
RMM:   5    -0.413169303636E+03    0.34718E-01   -0.16989E-02  4800   0.128E-01    0.403E-02
RMM:   6    -0.413169505563E+03   -0.20193E-03   -0.27595E-03  5794   0.505E-02    0.216E-02
RMM:   7    -0.413169518754E+03   -0.13192E-04   -0.32416E-04  5910   0.153E-02    0.153E-02
RMM:   8    -0.413169519323E+03   -0.56883E-06   -0.49492E-05  4920   0.661E-03    0.887E-03
RMM:   9    -0.413169517308E+03    0.20155E-05   -0.10444E-05  3500   0.357E-03    0.587E-03
RMM:  10    -0.413169517659E+03   -0.35125E-06   -0.20710E-06  2561   0.210E-03
   18 T=    62. E= -.41286634E+03 F= -.41316952E+03 E0= -.41314740E+03  EK= 0.30318E+00 SP= 0.00E+00 SK= 0.00E+00
       N       E                     dE             d eps       ncg     rms          rms(c)
RMM:   1    -0.413162410941E+03    0.71064E-02   -0.11124E+01  4305   0.763E-01    0.914E-01
RMM:   2    -0.413171996422E+03   -0.95855E-02   -0.13489E-01  4303   0.993E-02    0.640E-01
RMM:   3    -0.413174503002E+03   -0.25066E-02   -0.10236E-02  5123   0.684E-02    0.302E-01
RMM:   4    -0.413200684529E+03   -0.26182E-01   -0.41890E-02  5095   0.172E-01    0.720E-01
RMM:   5    -0.413170599182E+03    0.30085E-01   -0.12609E-02  4715   0.119E-01    0.509E-02
RMM:   6    -0.413170676619E+03   -0.77437E-04   -0.21313E-03  5592   0.455E-02    0.203E-02
RMM:   7    -0.413170689895E+03   -0.13276E-04   -0.28623E-04  5984   0.146E-02    0.139E-02
RMM:   8    -0.413170686711E+03    0.31840E-05   -0.44286E-05  5088   0.663E-03    0.703E-03
RMM:   9    -0.413170679623E+03    0.70878E-05   -0.79603E-06  3076   0.334E-03    0.309E-03
RMM:  10    -0.413170677054E+03    0.25694E-05   -0.18513E-06  2546   0.195E-03    0.192E-03
RMM:  11    -0.413170673051E+03    0.40031E-05   -0.10505E-06  2514   0.157E-03    0.113E-03
RMM:  12    -0.413170670246E+03    0.28047E-05   -0.51153E-07  2209   0.115E-03    0.492E-04
RMM:  13    -0.413170668059E+03    0.21870E-05   -0.29228E-07  1859   0.894E-04    0.229E-04
RMM:  14    -0.413170666293E+03    0.17656E-05   -0.18455E-07  1481   0.743E-04    0.144E-04
RMM:  15    -0.413170663042E+03    0.32512E-05   -0.21339E-07  1648   0.760E-04    0.146E-04
RMM:  16    -0.413170661565E+03    0.14768E-05   -0.10964E-07  1194   0.621E-04    0.107E-04
RMM:  17    -0.413170659383E+03    0.21821E-05   -0.10108E-07  1249   0.620E-04    0.511E-05
RMM:  18    -0.413170657896E+03    0.14875E-05   -0.64593E-08  1027   0.566E-04    0.402E-05
RMM:  19    -0.413170657319E+03    0.57675E-06   -0.32827E-08   836   0.530E-04
   19 T=    62. E= -.41286662E+03 F= -.41317066E+03 E0= -.41314858E+03  EK= 0.30404E+00 SP= 0.00E+00 SK= 0.00E+00
       N       E                     dE             d eps       ncg     rms          rms(c)
RMM:   1    -0.413162742722E+03    0.79152E-02   -0.11067E+01  4295   0.769E-01    0.903E-01
RMM:   2    -0.413172489344E+03   -0.97466E-02   -0.13408E-01  4254   0.100E-01    0.634E-01
RMM:   3    -0.413171729446E+03    0.75990E-03   -0.73058E-03  4959   0.420E-02    0.179E-01
RMM:   4    -0.413210914497E+03   -0.39185E-01   -0.41330E-02  5149   0.168E-01    0.822E-01
RMM:   5    -0.413170957879E+03    0.39957E-01   -0.19467E-02  4792   0.138E-01    0.449E-02
RMM:   6    -0.413171173894E+03   -0.21601E-03   -0.31996E-03  5764   0.544E-02    0.234E-02
RMM:   7    -0.413171184907E+03   -0.11014E-04   -0.38640E-04  5877   0.164E-02    0.167E-02
RMM:   8    -0.413171180760E+03    0.41469E-05   -0.55026E-05  5058   0.697E-03    0.945E-03
RMM:   9    -0.413171174257E+03    0.65034E-05   -0.11445E-05  3602   0.367E-03    0.610E-03
RMM:  10    -0.413171170149E+03    0.41080E-05   -0.22341E-06  2560   0.215E-03    0.365E-03
RMM:  11    -0.413171165940E+03    0.42092E-05   -0.16558E-06  2534   0.198E-03    0.170E-03
RMM:  12    -0.413171162466E+03    0.34740E-05   -0.89180E-07  2476   0.155E-03    0.494E-04
RMM:  13    -0.413171161770E+03    0.69579E-06   -0.34969E-07  2144   0.103E-03
   20 T=    62. E= -.41286644E+03 F= -.41317116E+03 E0= -.41314913E+03  EK= 0.30472E+00 SP= 0.00E+00 SK= 0.00E+00
       N       E                     dE             d eps       ncg     rms          rms(c)
RMM:   1    -0.413163445514E+03    0.77170E-02   -0.11108E+01  4300   0.775E-01    0.890E-01
RMM:   2    -0.413173951197E+03   -0.10506E-01   -0.13777E-01  4267   0.101E-01    0.645E-01
RMM:   3    -0.413172542042E+03    0.14092E-02   -0.71131E-03  4916   0.415E-02    0.167E-01
RMM:   4    -0.413208768895E+03   -0.36227E-01   -0.37711E-02  5143   0.161E-01    0.791E-01
RMM:   5    -0.413171860079E+03    0.36909E-01   -0.18092E-02  4798   0.133E-01    0.415E-02
RMM:   6    -0.413172070625E+03   -0.21055E-03   -0.29712E-03  5789   0.523E-02    0.220E-02
RMM:   7    -0.413172085097E+03   -0.14472E-04   -0.34734E-04  5896   0.158E-02    0.157E-02
RMM:   8    -0.413172084573E+03    0.52351E-06   -0.52981E-05  4991   0.684E-03    0.928E-03
RMM:   9    -0.413172081135E+03    0.34379E-05   -0.11258E-05  3586   0.370E-03    0.613E-03
RMM:  10    -0.413172080204E+03    0.93175E-06   -0.22243E-06  2568   0.217E-03
   21 T=    62. E= -.41286649E+03 F= -.41317208E+03 E0= -.41315009E+03  EK= 0.30559E+00 SP= 0.00E+00 SK= 0.00E+00
       N       E                     dE             d eps       ncg     rms          rms(c)
RMM:   1    -0.413164622568E+03    0.74586E-02   -0.11178E+01  4301   0.776E-01    0.911E-01
RMM:   2    -0.413174696025E+03   -0.10073E-01   -0.13657E-01  4311   0.998E-02    0.645E-01
RMM:   3    -0.413177271659E+03   -0.25756E-02   -0.10432E-02  5113   0.702E-02    0.310E-01
RMM:   4    -0.413203582875E+03   -0.26311E-01   -0.43003E-02  5096   0.174E-01    0.724E-01
RMM:   5    -0.413173134831E+03    0.30448E-01   -0.12722E-02  4711   0.120E-01    0.508E-02
RMM:   6    -0.413173209432E+03   -0.74601E-04   -0.21974E-03  5585   0.462E-02    0.201E-02
RMM:   7    -0.413173223644E+03   -0.14212E-04   -0.29149E-04  5990   0.148E-02    0.139E-02
RMM:   8    -0.413173220495E+03    0.31491E-05   -0.44636E-05  5082   0.667E-03    0.701E-03
RMM:   9    -0.413173213335E+03    0.71590E-05   -0.82486E-06  3119   0.336E-03    0.311E-03
RMM:  10    -0.413173210729E+03    0.26061E-05   -0.18353E-06  2548   0.195E-03    0.196E-03
RMM:  11    -0.413173206691E+03    0.40379E-05   -0.10314E-06  2509   0.156E-03    0.114E-03
RMM:  12    -0.413173203850E+03    0.28414E-05   -0.50338E-07  2219   0.115E-03    0.482E-04
RMM:  13    -0.413173201571E+03    0.22788E-05   -0.28128E-07  1825   0.878E-04    0.217E-04
RMM:  14    -0.413173199093E+03    0.24786E-05   -0.20294E-07  1553   0.768E-04    0.130E-04
RMM:  15    -0.413173195960E+03    0.31328E-05   -0.18827E-07  1558   0.731E-04    0.124E-04
RMM:  16    -0.413173194706E+03    0.12533E-05   -0.96545E-08  1164   0.611E-04    0.984E-05
RMM:  17    -0.413173192633E+03    0.20732E-05   -0.83757E-08  1174   0.606E-04    0.418E-05
RMM:  18    -0.413173191111E+03    0.15228E-05   -0.56525E-08  1000   0.567E-04    0.397E-05
RMM:  19    -0.413173190472E+03    0.63883E-06   -0.30452E-08   850   0.534E-04
   22 T=    62. E= -.41286663E+03 F= -.41317319E+03 E0= -.41315125E+03  EK= 0.30657E+00 SP= 0.00E+00 SK= 0.00E+00
       N       E                     dE             d eps       ncg     rms          rms(c)
RMM:   1    -0.413165973141E+03    0.72180E-02   -0.11168E+01  4297   0.797E-01    0.913E-01
RMM:   2    -0.413175205249E+03   -0.92321E-02   -0.13511E-01  4271   0.107E-01    0.637E-01
RMM:   3    -0.413174378341E+03    0.82691E-03   -0.75103E-03  4895   0.451E-02    0.177E-01
RMM:   4    -0.413211547328E+03   -0.37169E-01   -0.38713E-02  5146   0.163E-01    0.801E-01
RMM:   5    -0.413173664585E+03    0.37883E-01   -0.18597E-02  4795   0.135E-01    0.436E-02
RMM:   6    -0.413173872201E+03   -0.20762E-03   -0.30626E-03  5784   0.532E-02    0.240E-02
RMM:   7    -0.413173880310E+03   -0.81090E-05   -0.36566E-04  5861   0.164E-02    0.167E-02
RMM:   8    -0.413173874427E+03    0.58836E-05   -0.55516E-05  5041   0.710E-03    0.969E-03
RMM:   9    -0.413173866206E+03    0.82202E-05   -0.11509E-05  3637   0.375E-03    0.637E-03
RMM:  10    -0.413173860522E+03    0.56842E-05   -0.21756E-06  2570   0.217E-03    0.387E-03
RMM:  11    -0.413173854126E+03    0.63964E-05   -0.18011E-06  2546   0.207E-03    0.177E-03
RMM:  12    -0.413173849037E+03    0.50886E-05   -0.91353E-07  2475   0.159E-03    0.535E-04
RMM:  13    -0.413173848137E+03    0.89953E-06   -0.35076E-07  2163   0.103E-03
   23 T=    63. E= -.41286635E+03 F= -.41317385E+03 E0= -.41315195E+03  EK= 0.30750E+00 SP= 0.00E+00 SK= 0.00E+00
       N       E                     dE             d eps       ncg     rms          rms(c)
RMM:   1    -0.413167593643E+03    0.62554E-02   -0.11171E+01  4295   0.794E-01    0.893E-01
RMM:   2    -0.413177378174E+03   -0.97845E-02   -0.13863E-01  4277   0.104E-01    0.645E-01
RMM:   3    -0.413175718914E+03    0.16593E-02   -0.70359E-03  4822   0.424E-02    0.163E-01
RMM:   4    -0.413205409477E+03   -0.29691E-01   -0.30321E-02  5152   0.145E-01    0.717E-01
RMM:   5    -0.413175256339E+03    0.30153E-01   -0.14910E-02  4804   0.120E-01    0.378E-02
RMM:   6    -0.413175425460E+03   -0.16912E-03   -0.24315E-03  5800   0.471E-02    0.212E-02
RMM:   7    -0.413175435795E+03   -0.10334E-04   -0.26958E-04  5847   0.144E-02    0.139E-02
RMM:   8    -0.413175434552E+03    0.12428E-05   -0.47976E-05  4935   0.656E-03    0.904E-03
RMM:   9    -0.413175429017E+03    0.55349E-05   -0.10760E-05  3693   0.372E-03    0.603E-03
RMM:  10    -0.413175426793E+03    0.22242E-05   -0.18791E-06  2543   0.212E-03    0.377E-03
RMM:  11    -0.413175423747E+03    0.30454E-05   -0.20735E-06  2581   0.217E-03    0.173E-03
RMM:  12    -0.413175421250E+03    0.24975E-05   -0.85469E-07  2472   0.155E-03    0.567E-04
RMM:  13    -0.413175420834E+03    0.41570E-06   -0.31002E-07  2082   0.967E-04
   24 T=    63. E= -.41286665E+03 F= -.41317542E+03 E0= -.41315357E+03  EK= 0.30877E+00 SP= 0.00E+00 SK= 0.00E+00
       N       E                     dE             d eps       ncg     rms          rms(c)
RMM:   1    -0.413167847129E+03    0.75741E-02   -0.11263E+01  4295   0.796E-01    0.909E-01
RMM:   2    -0.413178336892E+03   -0.10490E-01   -0.13829E-01  4279   0.106E-01    0.650E-01
RMM:   3    -0.413176747345E+03    0.15895E-02   -0.71939E-03  4798   0.428E-02    0.163E-01
RMM:   4    -0.413204757637E+03   -0.28010E-01   -0.28501E-02  5149   0.141E-01    0.697E-01
RMM:   5    -0.413176296823E+03    0.28461E-01   -0.14086E-02  4807   0.117E-01    0.371E-02
RMM:   6    -0.413176449379E+03   -0.15256E-03   -0.22273E-03  5814   0.455E-02    0.213E-02
RMM:   7    -0.413176456959E+03   -0.75798E-05   -0.24691E-04  5816   0.140E-02    0.133E-02
RMM:   8    -0.413176454767E+03    0.21919E-05   -0.45950E-05  4914   0.647E-03    0.880E-03
RMM:   9    -0.413176448373E+03    0.63944E-05   -0.10769E-05  3740   0.373E-03    0.589E-03
RMM:  10    -0.413176445207E+03    0.31654E-05   -0.17791E-06  2545   0.210E-03    0.371E-03
RMM:  11    -0.413176440687E+03    0.45197E-05   -0.19385E-06  2559   0.214E-03    0.168E-03
RMM:  12    -0.413176437066E+03    0.36216E-05   -0.81026E-07  2467   0.153E-03    0.559E-04
RMM:  13    -0.413176436511E+03    0.55496E-06   -0.29604E-07  2055   0.948E-04
   25 T=    63. E= -.41286651E+03 F= -.41317644E+03 E0= -.41315464E+03  EK= 0.30992E+00 SP= 0.00E+00 SK= 0.00E+00
       N       E                     dE             d eps       ncg     rms          rms(c)
RMM:   1    -0.413170002608E+03    0.64345E-02   -0.11293E+01  4294   0.815E-01    0.923E-01
RMM:   2    -0.413178819140E+03   -0.88165E-02   -0.13763E-01  4273   0.108E-01    0.642E-01
RMM:   3    -0.413177749519E+03    0.10696E-02   -0.74408E-03  4719   0.433E-02    0.166E-01
RMM:   4    -0.413202099251E+03   -0.24350E-01   -0.24557E-02  5152   0.131E-01    0.651E-01
RMM:   5    -0.413177459943E+03    0.24639E-01   -0.12263E-02  4813   0.108E-01    0.364E-02
RMM:   6    -0.413177584854E+03   -0.12491E-03   -0.19194E-03  5810   0.419E-02    0.213E-02
RMM:   7    -0.413177585879E+03   -0.10250E-05   -0.19914E-04  5679   0.129E-02    0.117E-02
RMM:   8    -0.413177579564E+03    0.63149E-05   -0.34777E-05  4695   0.567E-03    0.783E-03
RMM:   9    -0.413177572554E+03    0.70097E-05   -0.94379E-06  3579   0.341E-03    0.572E-03
RMM:  10    -0.413177567758E+03    0.47968E-05   -0.16343E-06  2546   0.207E-03    0.368E-03
RMM:  11    -0.413177558945E+03    0.88122E-05   -0.19622E-06  2572   0.215E-03    0.166E-03
RMM:  12    -0.413177551843E+03    0.71024E-05   -0.80064E-07  2467   0.155E-03    0.666E-04
RMM:  13    -0.413177551174E+03    0.66903E-06   -0.26275E-07  2045   0.928E-04
   26 T=    63. E= -.41286638E+03 F= -.41317755E+03 E0= -.41315580E+03  EK= 0.31117E+00 SP= 0.00E+00 SK= 0.00E+00
       N       E                     dE             d eps       ncg     rms          rms(c)
RMM:   1    -0.413170500329E+03    0.70515E-02   -0.11247E+01  4298   0.803E-01    0.899E-01
RMM:   2    -0.413180946795E+03   -0.10446E-01   -0.13886E-01  4273   0.104E-01    0.645E-01
RMM:   3    -0.413179592298E+03    0.13545E-02   -0.70803E-03  4640   0.413E-02    0.159E-01
RMM:   4    -0.413197875696E+03   -0.18283E-01   -0.18533E-02  5148   0.114E-01    0.566E-01
RMM:   5    -0.413179365410E+03    0.18510E-01   -0.92727E-03  4816   0.937E-02    0.320E-02
RMM:   6    -0.413179451912E+03   -0.86502E-04   -0.14391E-03  5836   0.358E-02    0.189E-02
RMM:   7    -0.413179452832E+03   -0.91951E-06   -0.14772E-04  5568   0.112E-02    0.967E-03
RMM:   8    -0.413179448014E+03    0.48172E-05   -0.24266E-05  4315   0.487E-03    0.624E-03
RMM:   9    -0.413179443650E+03    0.43643E-05   -0.53524E-06  2983   0.274E-03    0.463E-03
RMM:  10    -0.413179441896E+03    0.17538E-05   -0.12095E-06  2531   0.177E-03    0.323E-03
RMM:  11    -0.413179435948E+03    0.59485E-05   -0.15779E-06  2532   0.200E-03    0.147E-03
RMM:  12    -0.413179432862E+03    0.30854E-05   -0.66131E-07  2386   0.137E-03    0.766E-04
RMM:  13    -0.413179432186E+03    0.67604E-06   -0.21225E-07  1874   0.849E-04
   27 T=    64. E= -.41286675E+03 F= -.41317943E+03 E0= -.41315773E+03  EK= 0.31268E+00 SP= 0.00E+00 SK= 0.00E+00
       N       E                     dE             d eps       ncg     rms          rms(c)
RMM:   1    -0.413172346042E+03    0.70868E-02   -0.11377E+01  4291   0.839E-01    0.908E-01
RMM:   2    -0.413182301182E+03   -0.99551E-02   -0.14177E-01  4274   0.108E-01    0.656E-01
RMM:   3    -0.413180631244E+03    0.16699E-02   -0.72338E-03  4514   0.415E-02    0.154E-01
RMM:   4    -0.413190970785E+03   -0.10340E-01   -0.10753E-02  5148   0.891E-02    0.428E-01
RMM:   5    -0.413180486672E+03    0.10484E-01   -0.51884E-03  4822   0.701E-02    0.276E-02
RMM:   6    -0.413180518885E+03   -0.32213E-04   -0.80655E-04  5852   0.268E-02    0.174E-02
RMM:   7    -0.413180520897E+03   -0.20116E-05   -0.11603E-04  5530   0.104E-02    0.106E-02
RMM:   8    -0.413180511831E+03    0.90660E-05   -0.21836E-05  4409   0.512E-03    0.514E-03
RMM:   9    -0.413180509679E+03    0.21513E-05   -0.41755E-06  2872   0.270E-03    0.395E-03
RMM:  10    -0.413180507097E+03    0.25822E-05   -0.78028E-07  2484   0.158E-03    0.250E-03
RMM:  11    -0.413180503317E+03    0.37805E-05   -0.73029E-07  2478   0.139E-03    0.117E-03
RMM:  12    -0.413180499865E+03    0.34512E-05   -0.45037E-07  2171   0.106E-03    0.392E-04
RMM:  13    -0.413180498993E+03    0.87222E-06   -0.16133E-07  1430   0.727E-04
   28 T=    64. E= -.41286638E+03 F= -.41318050E+03 E0= -.41315885E+03  EK= 0.31412E+00 SP= 0.00E+00 SK= 0.00E+00
       N       E                     dE             d eps       ncg     rms          rms(c)
RMM:   1    -0.413177107595E+03    0.33923E-02   -0.11463E+01  4293   0.858E-01    0.931E-01
RMM:   2    -0.413183961084E+03   -0.68535E-02   -0.14126E-01  4273   0.109E-01    0.648E-01
RMM:   3    -0.413182682746E+03    0.12783E-02   -0.76047E-03  4407   0.420E-02    0.162E-01
RMM:   4    -0.413188226000E+03   -0.55433E-02   -0.60236E-03  5170   0.655E-02    0.313E-01
RMM:   5    -0.413182705792E+03    0.55202E-02   -0.27372E-03  4833   0.512E-02    0.276E-02
RMM:   6    -0.413182715224E+03   -0.94319E-05   -0.48708E-04  5810   0.210E-02    0.191E-02
RMM:   7    -0.413182705251E+03    0.99733E-05   -0.11020E-04  5300   0.104E-02    0.972E-03
RMM:   8    -0.413182694739E+03    0.10512E-04   -0.10658E-05  3591   0.409E-03    0.429E-03
RMM:   9    -0.413182690618E+03    0.41203E-05   -0.18139E-06  2605   0.205E-03    0.310E-03
RMM:  10    -0.413182684319E+03    0.62991E-05   -0.84118E-07  2476   0.153E-03    0.173E-03
RMM:  11    -0.413182677451E+03    0.68683E-05   -0.55401E-07  2356   0.124E-03    0.724E-04
RMM:  12    -0.413182672489E+03    0.49624E-05   -0.28654E-07  1969   0.920E-04    0.288E-04
RMM:  13    -0.413182670111E+03    0.23775E-05   -0.14043E-07  1307   0.702E-04    0.165E-04
RMM:  14    -0.413182666098E+03    0.40131E-05   -0.11000E-07  1278   0.683E-04    0.989E-05
RMM:  15    -0.413182661940E+03    0.41580E-05   -0.96143E-08  1337   0.672E-04    0.971E-05
RMM:  16    -0.413182659700E+03    0.22403E-05   -0.61002E-08  1125   0.597E-04    0.606E-05
RMM:  17    -0.413182656100E+03    0.35994E-05   -0.70311E-08  1262   0.607E-04    0.410E-05
RMM:  18    -0.413182655582E+03    0.51803E-06   -0.25384E-08   779   0.507E-04
   29 T=    64. E= -.41286668E+03 F= -.41318266E+03 E0= -.41316106E+03  EK= 0.31597E+00 SP= 0.00E+00 SK= 0.00E+00
       N       E                     dE             d eps       ncg     rms          rms(c)
RMM:   1    -0.413175571266E+03    0.70848E-02   -0.11387E+01  4289   0.831E-01    0.909E-01
RMM:   2    -0.413186049837E+03   -0.10479E-01   -0.14174E-01  4270   0.110E-01    0.648E-01
RMM:   3    -0.413184535150E+03    0.15147E-02   -0.72746E-03  4470   0.443E-02    0.160E-01
RMM:   4    -0.413193906428E+03   -0.93713E-02   -0.98117E-03  5157   0.847E-02    0.408E-01
RMM:   5    -0.413184430291E+03    0.94761E-02   -0.47505E-03  4825   0.669E-02    0.283E-02
RMM:   6    -0.413184454521E+03   -0.24230E-04   -0.74843E-04  5843   0.257E-02    0.186E-02
RMM:   7    -0.413184453844E+03    0.67720E-06   -0.12582E-04  5488   0.109E-02    0.111E-02
RMM:   8    -0.413184443153E+03    0.10691E-04   -0.18920E-05  4201   0.500E-03    0.478E-03
RMM:   9    -0.413184440162E+03    0.29907E-05   -0.35774E-06  2817   0.253E-03    0.369E-03
RMM:  10    -0.413184436576E+03    0.35861E-05   -0.79335E-07  2483   0.156E-03    0.230E-03
RMM:  11    -0.413184431671E+03    0.49050E-05   -0.65302E-07  2457   0.134E-03    0.108E-03
RMM:  12    -0.413184427810E+03    0.38609E-05   -0.37363E-07  2128   0.101E-03    0.417E-04
RMM:  13    -0.413184426327E+03    0.14826E-05   -0.15535E-07  1426   0.726E-04    0.206E-04
RMM:  14    -0.413184424493E+03    0.18341E-05   -0.96347E-08  1129   0.655E-04    0.113E-04
RMM:  15    -0.413184421178E+03    0.33150E-05   -0.92478E-08  1216   0.667E-04    0.112E-04
RMM:  16    -0.413184420579E+03    0.59954E-06   -0.42460E-08   882   0.589E-04
   30 T=    65. E= -.41286664E+03 F= -.41318442E+03 E0= -.41316287E+03  EK= 0.31778E+00 SP= 0.00E+00 SK= 0.00E+00
       N       E                     dE             d eps       ncg     rms          rms(c)
RMM:   1    -0.413178123909E+03    0.62973E-02   -0.11526E+01  4291   0.875E-01    0.910E-01
RMM:   2    -0.413188487466E+03   -0.10364E-01   -0.14767E-01  4271   0.121E-01    0.662E-01
RMM:   3    -0.413186053497E+03    0.24340E-02   -0.72039E-03  4363   0.416E-02    0.156E-01
RMM:   4    -0.413189490169E+03   -0.34367E-02   -0.41926E-03  5141   0.547E-02    0.247E-01
RMM:   5    -0.413186056904E+03    0.34333E-02   -0.17100E-03  4821   0.406E-02    0.248E-02
RMM:   6    -0.413186057558E+03   -0.65413E-06   -0.30571E-04  5738   0.173E-02    0.182E-02
RMM:   7    -0.413186053079E+03    0.44790E-05   -0.87720E-05  5159   0.921E-03    0.771E-03
RMM:   8    -0.413186047868E+03    0.52112E-05   -0.83381E-06  3347   0.366E-03    0.388E-03
RMM:   9    -0.413186046637E+03    0.12307E-05   -0.11064E-06  2523   0.178E-03    0.260E-03
RMM:  10    -0.413186043498E+03    0.31393E-05   -0.78896E-07  2452   0.137E-03    0.128E-03
RMM:  11    -0.413186041029E+03    0.24690E-05   -0.41590E-07  2111   0.102E-03    0.537E-04
RMM:  12    -0.413186038851E+03    0.21774E-05   -0.23100E-07  1633   0.813E-04    0.221E-04
RMM:  13    -0.413186037465E+03    0.13861E-05   -0.12352E-07  1163   0.679E-04    0.141E-04
RMM:  14    -0.413186035542E+03    0.19228E-05   -0.98147E-08  1157   0.659E-04    0.879E-05
RMM:  15    -0.413186033210E+03    0.23322E-05   -0.91978E-08  1266   0.649E-04    0.639E-05
RMM:  16    -0.413186032148E+03    0.10622E-05   -0.48372E-08   945   0.567E-04    0.452E-05
RMM:  17    -0.413186030662E+03    0.14857E-05   -0.39350E-08   899   0.556E-04    0.204E-05
RMM:  18    -0.413186030133E+03    0.52874E-06   -0.21049E-08   744   0.526E-04
   31 T=    65. E= -.41286637E+03 F= -.41318603E+03 E0= -.41316453E+03  EK= 0.31966E+00 SP= 0.00E+00 SK= 0.00E+00
       N       E                     dE             d eps       ncg     rms          rms(c)
RMM:   1    -0.413187593663E+03   -0.15630E-02   -0.11682E+01  4291   0.919E-01    0.937E-01
RMM:   2    -0.413190230659E+03   -0.26370E-02   -0.14812E-01  4266   0.122E-01    0.657E-01
RMM:   3    -0.413188738540E+03    0.14921E-02   -0.76870E-03  4277   0.485E-02    0.165E-01
RMM:   4    -0.413190862239E+03   -0.21237E-02   -0.29433E-03  5099   0.476E-02    0.194E-01
RMM:   5    -0.413188768827E+03    0.20934E-02   -0.10335E-03  4808   0.321E-02    0.268E-02
RMM:   6    -0.413188763225E+03    0.56023E-05   -0.22613E-04  5640   0.153E-02    0.198E-02
RMM:   7    -0.413188746661E+03    0.16564E-04   -0.86692E-05  4996   0.933E-03    0.734E-03
RMM:   8    -0.413188741134E+03    0.55276E-05   -0.62740E-06  3148   0.336E-03    0.380E-03
RMM:   9    -0.413188738703E+03    0.24305E-05   -0.90473E-07  2485   0.169E-03    0.240E-03
RMM:  10    -0.413188730210E+03    0.84929E-05   -0.78060E-07  2437   0.138E-03    0.109E-03
RMM:  11    -0.413188726679E+03    0.35313E-05   -0.28555E-07  1908   0.904E-04    0.481E-04
RMM:  12    -0.413188721936E+03    0.47434E-05   -0.19032E-07  1566   0.789E-04    0.214E-04
RMM:  13    -0.413188718473E+03    0.34631E-05   -0.10744E-07  1231   0.676E-04    0.115E-04
RMM:  14    -0.413188714389E+03    0.40834E-05   -0.89018E-08  1249   0.656E-04    0.969E-05
RMM:  15    -0.413188710425E+03    0.39638E-05   -0.73201E-08  1192   0.620E-04    0.653E-05
RMM:  16    -0.413188707759E+03    0.26661E-05   -0.50602E-08  1038   0.574E-04    0.518E-05
RMM:  17    -0.413188706416E+03    0.13434E-05   -0.29541E-08   817   0.529E-04    0.294E-05
RMM:  18    -0.413188705205E+03    0.12108E-05   -0.23597E-08   800   0.523E-04    0.149E-05
RMM:  19    -0.413188705012E+03    0.19256E-06   -0.96061E-09   613   0.494E-04
   32 T=    66. E= -.41286671E+03 F= -.41318871E+03 E0= -.41316726E+03  EK= 0.32199E+00 SP= 0.00E+00 SK= 0.00E+00
       N       E                     dE             d eps       ncg     rms          rms(c)
RMM:   1    -0.413195200460E+03   -0.64953E-02   -0.11716E+01  4289   0.949E-01    0.923E-01
RMM:   2    -0.413192512215E+03    0.26882E-02   -0.14990E-01  4276   0.130E-01    0.653E-01
RMM:   3    -0.413190651607E+03    0.18606E-02   -0.73656E-03  4176   0.425E-02    0.166E-01
RMM:   4    -0.413191121125E+03   -0.46952E-03   -0.14686E-03  5023   0.314E-02    0.926E-02
RMM:   5    -0.413190672354E+03    0.44877E-03   -0.24536E-04  4718   0.162E-02    0.262E-02
RMM:   6    -0.413190661451E+03    0.10903E-04   -0.11231E-04  5362   0.111E-02    0.194E-02
RMM:   7    -0.413190644441E+03    0.17011E-04   -0.73377E-05  4656   0.814E-03    0.761E-03
RMM:   8    -0.413190641201E+03    0.32395E-05   -0.45289E-06  2928   0.308E-03    0.368E-03
RMM:   9    -0.413190639547E+03    0.16543E-05   -0.91079E-07  2345   0.157E-03    0.197E-03
RMM:  10    -0.413190631820E+03    0.77266E-05   -0.55361E-07  2093   0.114E-03    0.752E-04
RMM:  11    -0.413190627859E+03    0.39608E-05   -0.20374E-07  1589   0.772E-04    0.326E-04
RMM:  12    -0.413190623711E+03    0.41486E-05   -0.11816E-07  1248   0.683E-04    0.176E-04
RMM:  13    -0.413190620013E+03    0.36983E-05   -0.73264E-08  1007   0.625E-04    0.895E-05
RMM:  14    -0.413190616143E+03    0.38696E-05   -0.56327E-08   965   0.601E-04    0.836E-05
RMM:  15    -0.413190612291E+03    0.38523E-05   -0.48208E-08   971   0.579E-04    0.583E-05
RMM:  16    -0.413190609862E+03    0.24288E-05   -0.30667E-08   809   0.537E-04    0.409E-05
RMM:  17    -0.413190609083E+03    0.77872E-06   -0.11669E-08   550   0.487E-04
   33 T=    66. E= -.41286649E+03 F= -.41319061E+03 E0= -.41316921E+03  EK= 0.32412E+00 SP= 0.00E+00 SK= 0.00E+00
       N       E                     dE             d eps       ncg     rms          rms(c)
RMM:   1    -0.413189368770E+03    0.12411E-02   -0.11748E+01  4289   0.949E-01    0.915E-01
RMM:   2    -0.413195164170E+03   -0.57954E-02   -0.15251E-01  4271   0.130E-01    0.666E-01
RMM:   3    -0.413193102131E+03    0.20620E-02   -0.73342E-03  4405   0.479E-02    0.162E-01
RMM:   4    -0.413198834387E+03   -0.57323E-02   -0.63080E-03  5150   0.701E-02    0.319E-01
RMM:   5    -0.413193124459E+03    0.57099E-02   -0.27892E-03  4801   0.524E-02    0.274E-02
RMM:   6    -0.413193114043E+03    0.10416E-04   -0.47064E-04  5744   0.220E-02    0.194E-02
RMM:   7    -0.413193112041E+03    0.20018E-05   -0.10721E-04  5282   0.102E-02    0.912E-03
RMM:   8    -0.413193105484E+03    0.65568E-05   -0.13905E-05  3948   0.444E-03    0.427E-03
RMM:   9    -0.413193104022E+03    0.14625E-05   -0.20034E-06  2643   0.212E-03    0.279E-03
RMM:  10    -0.413193101090E+03    0.29320E-05   -0.71229E-07  2440   0.140E-03    0.156E-03
RMM:  11    -0.413193097442E+03    0.36474E-05   -0.53163E-07  2311   0.115E-03    0.686E-04
RMM:  12    -0.413193094678E+03    0.27642E-05   -0.28525E-07  1815   0.875E-04    0.286E-04
RMM:  13    -0.413193093172E+03    0.15064E-05   -0.13727E-07  1199   0.690E-04    0.150E-04
RMM:  14    -0.413193091618E+03    0.15535E-05   -0.93051E-08  1050   0.646E-04    0.908E-05
RMM:  15    -0.413193088872E+03    0.27464E-05   -0.93300E-08  1202   0.662E-04    0.701E-05
RMM:  16    -0.413193088112E+03    0.76005E-06   -0.47021E-08   922   0.589E-04
   34 T=    66. E= -.41286666E+03 F= -.41319309E+03 E0= -.41317173E+03  EK= 0.32643E+00 SP= 0.00E+00 SK= 0.00E+00
       N       E                     dE             d eps       ncg     rms          rms(c)
RMM:   1    -0.413187177913E+03    0.59110E-02   -0.11807E+01  4298   0.916E-01    0.941E-01
RMM:   2    -0.413197577178E+03   -0.10399E-01   -0.15204E-01  4261   0.132E-01    0.666E-01
RMM:   3    -0.413195877902E+03    0.16993E-02   -0.75681E-03  4447   0.466E-02    0.169E-01
RMM:   4    -0.413202318405E+03   -0.64405E-02   -0.71025E-03  5167   0.715E-02    0.342E-01
RMM:   5    -0.413195777648E+03    0.65408E-02   -0.33279E-03  4815   0.565E-02    0.295E-02
RMM:   6    -0.413195766888E+03    0.10759E-04   -0.56723E-04  5754   0.235E-02    0.208E-02
RMM:   7    -0.413195760261E+03    0.66271E-05   -0.12188E-04  5341   0.106E-02    0.953E-03
RMM:   8    -0.413195751481E+03    0.87801E-05   -0.16376E-05  4059   0.462E-03    0.446E-03
RMM:   9    -0.413195748366E+03    0.31153E-05   -0.24070E-06  2702   0.219E-03    0.290E-03
RMM:  10    -0.413195742692E+03    0.56741E-05   -0.70420E-07  2463   0.142E-03    0.164E-03
RMM:  11    -0.413195735844E+03    0.68479E-05   -0.51890E-07  2362   0.117E-03    0.734E-04
RMM:  12    -0.413195730569E+03    0.52753E-05   -0.27992E-07  1877   0.892E-04    0.299E-04
RMM:  13    -0.413195728193E+03    0.23757E-05   -0.13528E-07  1254   0.702E-04    0.163E-04
RMM:  14    -0.413195725363E+03    0.28294E-05   -0.88896E-08  1081   0.652E-04    0.102E-04
RMM:  15    -0.413195719905E+03    0.54586E-05   -0.94188E-08  1331   0.677E-04    0.954E-05
RMM:  16    -0.413195718495E+03    0.14101E-05   -0.46851E-08   980   0.585E-04    0.769E-05
RMM:  17    -0.413195715030E+03    0.34649E-05   -0.50989E-08  1138   0.596E-04    0.452E-05
RMM:  18    -0.413195713828E+03    0.12015E-05   -0.25686E-08   827   0.535E-04    0.262E-05
RMM:  19    -0.413195713527E+03    0.30179E-06   -0.13359E-08   687   0.513E-04
   35 T=    67. E= -.41286687E+03 F= -.41319571E+03 E0= -.41317441E+03  EK= 0.32884E+00 SP= 0.00E+00 SK= 0.00E+00
       N       E                     dE             d eps       ncg     rms          rms(c)
RMM:   1    -0.413196703949E+03   -0.99012E-03   -0.11891E+01  4297   0.987E-01    0.940E-01
RMM:   2    -0.413199388314E+03   -0.26844E-02   -0.15568E-01  4256   0.125E-01    0.660E-01
RMM:   3    -0.413198081700E+03    0.13066E-02   -0.78174E-03  4799   0.479E-02    0.190E-01
RMM:   4    -0.413231383914E+03   -0.33302E-01   -0.33816E-02  5157   0.154E-01    0.760E-01
RMM:   5    -0.413197686093E+03    0.33698E-01   -0.16999E-02  4804   0.127E-01    0.422E-02
RMM:   6    -0.413197751931E+03   -0.65838E-04   -0.26698E-03  5866   0.484E-02    0.240E-02
RMM:   7    -0.413197761434E+03   -0.95034E-05   -0.28029E-04  5751   0.149E-02    0.141E-02
RMM:   8    -0.413197753380E+03    0.80540E-05   -0.43942E-05  4883   0.648E-03    0.880E-03
RMM:   9    -0.413197749355E+03    0.40251E-05   -0.16774E-05  4267   0.439E-03    0.634E-03
RMM:  10    -0.413197741808E+03    0.75475E-05   -0.24957E-06  2594   0.251E-03    0.354E-03
RMM:  11    -0.413197736202E+03    0.56060E-05   -0.15693E-06  2516   0.197E-03    0.205E-03
RMM:  12    -0.413197726118E+03    0.10084E-04   -0.12235E-06  2488   0.190E-03    0.821E-04
RMM:  13    -0.413197723022E+03    0.30961E-05   -0.42514E-07  2314   0.120E-03    0.571E-04
RMM:  14    -0.413197722489E+03    0.53291E-06   -0.17634E-07  1689   0.788E-04
   36 T=    67. E= -.41286662E+03 F= -.41319772E+03 E0= -.41317646E+03  EK= 0.33110E+00 SP= 0.00E+00 SK= 0.00E+00
       N       E                     dE             d eps       ncg     rms          rms(c)
RMM:   1    -0.413195438687E+03    0.22843E-02   -0.11918E+01  4304   0.994E-01    0.923E-01
RMM:   2    -0.413203052898E+03   -0.76142E-02   -0.15910E-01  4257   0.135E-01    0.671E-01
RMM:   3    -0.413201068182E+03    0.19847E-02   -0.74946E-03  4728   0.518E-02    0.183E-01
RMM:   4    -0.413230921515E+03   -0.29853E-01   -0.30191E-02  5162   0.146E-01    0.721E-01
RMM:   5    -0.413200702490E+03    0.30219E-01   -0.15283E-02  4804   0.120E-01    0.399E-02
RMM:   6    -0.413200753354E+03   -0.50864E-04   -0.23761E-03  5865   0.457E-02    0.227E-02
RMM:   7    -0.413200764191E+03   -0.10837E-04   -0.26377E-04  5799   0.143E-02    0.139E-02
RMM:   8    -0.413200757235E+03    0.69565E-05   -0.46496E-05  4939   0.672E-03    0.876E-03
RMM:   9    -0.413200754032E+03    0.32025E-05   -0.14830E-05  4136   0.431E-03    0.550E-03
RMM:  10    -0.413200748835E+03    0.51969E-05   -0.22474E-06  2587   0.231E-03    0.320E-03
RMM:  11    -0.413200744683E+03    0.41523E-05   -0.13460E-06  2503   0.183E-03    0.178E-03
RMM:  12    -0.413200738129E+03    0.65547E-05   -0.98702E-07  2473   0.166E-03    0.675E-04
RMM:  13    -0.413200735983E+03    0.21456E-05   -0.36217E-07  2215   0.108E-03    0.464E-04
RMM:  14    -0.413200735387E+03    0.59561E-06   -0.15621E-07  1510   0.742E-04
   37 T=    68. E= -.41286688E+03 F= -.41320074E+03 E0= -.41317951E+03  EK= 0.33386E+00 SP= 0.00E+00 SK= 0.00E+00
       N       E                     dE             d eps       ncg     rms          rms(c)
RMM:   1    -0.413195429838E+03    0.53061E-02   -0.12033E+01  4306   0.101E+00    0.944E-01
RMM:   2    -0.413205777753E+03   -0.10348E-01   -0.15796E-01  4257   0.130E-01    0.675E-01
RMM:   3    -0.413203567198E+03    0.22106E-02   -0.77997E-03  4728   0.510E-02    0.185E-01
RMM:   4    -0.413232343383E+03   -0.28776E-01   -0.29066E-02  5154   0.143E-01    0.708E-01
RMM:   5    -0.413203248941E+03    0.29094E-01   -0.14829E-02  4813   0.118E-01    0.399E-02
RMM:   6    -0.413203289426E+03   -0.40485E-04   -0.22263E-03  5846   0.448E-02    0.233E-02
RMM:   7    -0.413203300211E+03   -0.10785E-04   -0.27541E-04  5808   0.147E-02    0.148E-02
RMM:   8    -0.413203290687E+03    0.95233E-05   -0.48550E-05  5007   0.700E-03    0.845E-03
RMM:   9    -0.413203286145E+03    0.45420E-05   -0.12302E-05  3925   0.404E-03    0.507E-03
RMM:  10    -0.413203280237E+03    0.59086E-05   -0.20075E-06  2568   0.215E-03    0.304E-03
RMM:  11    -0.413203274720E+03    0.55163E-05   -0.11845E-06  2504   0.172E-03    0.160E-03
RMM:  12    -0.413203266819E+03    0.79009E-05   -0.83844E-07  2454   0.153E-03    0.614E-04
RMM:  13    -0.413203264279E+03    0.25407E-05   -0.32585E-07  2148   0.102E-03    0.433E-04
RMM:  14    -0.413203263351E+03    0.92782E-06   -0.14922E-07  1450   0.729E-04
   38 T=    68. E= -.41286688E+03 F= -.41320326E+03 E0= -.41318208E+03  EK= 0.33639E+00 SP= 0.00E+00 SK= 0.00E+00
       N       E                     dE             d eps       ncg     rms          rms(c)
RMM:   1    -0.413204214346E+03   -0.95007E-03   -0.12138E+01  4305   0.108E+00    0.956E-01
RMM:   2    -0.413207514843E+03   -0.33005E-02   -0.16192E-01  4263   0.126E-01    0.669E-01
RMM:   3    -0.413206273230E+03    0.12416E-02   -0.82674E-03  4961   0.533E-02    0.214E-01
RMM:   4    -0.413254971707E+03   -0.48698E-01   -0.51469E-02  5140   0.188E-01    0.915E-01
RMM:   5    -0.413205344163E+03    0.49628E-01   -0.24788E-02  4793   0.154E-01    0.502E-02
RMM:   6    -0.413205490801E+03   -0.14664E-03   -0.38889E-03  5834   0.581E-02    0.267E-02
RMM:   7    -0.413205507012E+03   -0.16211E-04   -0.40536E-04  5786   0.172E-02    0.160E-02
RMM:   8    -0.413205498632E+03    0.83806E-05   -0.49562E-05  4641   0.632E-03    0.864E-03
RMM:   9    -0.413205488514E+03    0.10118E-04   -0.12303E-05  3578   0.375E-03    0.484E-03
RMM:  10    -0.413205485021E+03    0.34924E-05   -0.32846E-06  2681   0.244E-03    0.335E-03
RMM:  11    -0.413205476913E+03    0.81082E-05   -0.13289E-06  2497   0.195E-03    0.187E-03
RMM:  12    -0.413205466742E+03    0.10171E-04   -0.87955E-07  2471   0.161E-03    0.540E-04
RMM:  13    -0.413205463873E+03    0.28694E-05   -0.36048E-07  2269   0.107E-03    0.444E-04
RMM:  14    -0.413205462527E+03    0.13456E-05   -0.16442E-07  1609   0.763E-04    0.300E-04
RMM:  15    -0.413205455060E+03    0.74675E-05   -0.14804E-07  1725   0.762E-04    0.283E-04
RMM:  16    -0.413205453956E+03    0.11039E-05   -0.59309E-08  1028   0.594E-04    0.160E-04
RMM:  17    -0.413205449490E+03    0.44658E-05   -0.54213E-08  1096   0.614E-04    0.138E-04
RMM:  18    -0.413205446828E+03    0.26622E-05   -0.42031E-08  1056   0.595E-04    0.592E-05
RMM:  19    -0.413205445395E+03    0.14335E-05   -0.27378E-08   927   0.570E-04    0.274E-05
RMM:  20    -0.413205444552E+03    0.84237E-06   -0.18525E-08   840   0.550E-04
   39 T=    69. E= -.41286670E+03 F= -.41320544E+03 E0= -.41318430E+03  EK= 0.33874E+00 SP= 0.00E+00 SK= 0.00E+00
       N       E                     dE             d eps       ncg     rms          rms(c)
RMM:   1    -0.413202239054E+03    0.32063E-02   -0.12104E+01  4307   0.110E+00    0.934E-01
RMM:   2    -0.413210837882E+03   -0.85988E-02   -0.16260E-01  4263   0.132E-01    0.675E-01
RMM:   3    -0.413209486906E+03    0.13510E-02   -0.82692E-03  4996   0.557E-02    0.228E-01
RMM:   4    -0.413262963354E+03   -0.53476E-01   -0.58773E-02  5132   0.201E-01    0.959E-01
RMM:   5    -0.413208132351E+03    0.54831E-01   -0.27017E-02  4784   0.161E-01    0.525E-02
RMM:   6    -0.413208303516E+03   -0.17117E-03   -0.42363E-03  5824   0.608E-02    0.268E-02
RMM:   7    -0.413208323469E+03   -0.19952E-04   -0.45438E-04  5870   0.183E-02    0.176E-02
RMM:   8    -0.413208324132E+03   -0.66373E-06   -0.81571E-05  5202   0.826E-03    0.119E-02
RMM:   9    -0.413208314113E+03    0.10019E-04   -0.21210E-05  4464   0.506E-03    0.623E-03
RMM:  10    -0.413208309176E+03    0.49370E-05   -0.42858E-06  2725   0.284E-03    0.346E-03
RMM:  11    -0.413208305313E+03    0.38630E-05   -0.16623E-06  2506   0.207E-03    0.199E-03
RMM:  12    -0.413208299581E+03    0.57320E-05   -0.97122E-07  2476   0.169E-03    0.664E-04
RMM:  13    -0.413208296831E+03    0.27498E-05   -0.43037E-07  2297   0.116E-03    0.398E-04
RMM:  14    -0.413208295132E+03    0.16995E-05   -0.20825E-07  1828   0.824E-04    0.261E-04
RMM:  15    -0.413208290745E+03    0.43864E-05   -0.14226E-07  1470   0.735E-04    0.199E-04
RMM:  16    -0.413208289895E+03    0.85041E-06   -0.71492E-08  1039   0.612E-04
   40 T=    69. E= -.41286706E+03 F= -.41320829E+03 E0= -.41318718E+03  EK= 0.34123E+00 SP= 0.00E+00 SK= 0.00E+00
       N       E                     dE             d eps       ncg     rms          rms(c)
RMM:   1    -0.413218156382E+03   -0.98656E-02   -0.12387E+01  4308   0.124E+00    0.946E-01
RMM:   2    -0.413212258609E+03    0.58978E-02   -0.17281E-01  4269   0.142E-01    0.686E-01
RMM:   3    -0.413211666421E+03    0.59219E-03   -0.89633E-03  5057   0.607E-02    0.261E-01
RMM:   4    -0.413265652806E+03   -0.53986E-01   -0.62965E-02  5119   0.209E-01    0.970E-01
RMM:   5    -0.413209652646E+03    0.56000E-01   -0.27017E-02  4779   0.163E-01    0.555E-02
RMM:   6    -0.413209811539E+03   -0.15889E-03   -0.42270E-03  5812   0.612E-02    0.266E-02
RMM:   7    -0.413209831599E+03   -0.20059E-04   -0.47177E-04  5910   0.188E-02    0.186E-02
RMM:   8    -0.413209831724E+03   -0.12487E-06   -0.90564E-05  5267   0.881E-03    0.120E-02
RMM:   9    -0.413209820656E+03    0.11068E-04   -0.19256E-05  4313   0.503E-03    0.538E-03
RMM:  10    -0.413209815539E+03    0.51171E-05   -0.45204E-06  2751   0.278E-03    0.309E-03
RMM:  11    -0.413209811507E+03    0.40324E-05   -0.14262E-06  2504   0.193E-03    0.171E-03
RMM:  12    -0.413209805968E+03    0.55384E-05   -0.78413E-07  2458   0.152E-03    0.629E-04
RMM:  13    -0.413209802896E+03    0.30722E-05   -0.37538E-07  2210   0.107E-03    0.315E-04
RMM:  14    -0.413209800303E+03    0.25928E-05   -0.19823E-07  1638   0.800E-04    0.201E-04
RMM:  15    -0.413209796273E+03    0.40304E-05   -0.13438E-07  1348   0.715E-04    0.117E-04
RMM:  16    -0.413209794698E+03    0.15744E-05   -0.81862E-08  1124   0.642E-04    0.661E-05
RMM:  17    -0.413209792416E+03    0.22820E-05   -0.67551E-08  1149   0.632E-04    0.554E-05
RMM:  18    -0.413209789493E+03    0.29231E-05   -0.57658E-08  1136   0.622E-04    0.332E-05
RMM:  19    -0.413209788505E+03    0.98797E-06   -0.33349E-08   921   0.573E-04
   41 T=    70. E= -.41286658E+03 F= -.41320979E+03 E0= -.41318871E+03  EK= 0.34321E+00 SP= 0.00E+00 SK= 0.00E+00
       N       E                     dE             d eps       ncg     rms          rms(c)
RMM:   1    -0.413237488934E+03   -0.27699E-01   -0.12610E+01  4308   0.132E+00    0.970E-01
RMM:   2    -0.413213898390E+03    0.23591E-01   -0.17967E-01  4290   0.146E-01    0.679E-01
RMM:   3    -0.413216058245E+03   -0.21599E-02   -0.11115E-02  5129   0.743E-02    0.334E-01
RMM:   4    -0.413250468645E+03   -0.34410E-01   -0.51110E-02  5092   0.190E-01    0.815E-01
RMM:   5    -0.413212088235E+03    0.38380E-01   -0.17249E-02  4726   0.136E-01    0.543E-02
RMM:   6    -0.413212141453E+03   -0.53218E-04   -0.28685E-03  5753   0.508E-02    0.259E-02
RMM:   7    -0.413212150851E+03   -0.93979E-05   -0.35973E-04  5853   0.168E-02    0.186E-02
RMM:   8    -0.413212146997E+03    0.38545E-05   -0.78790E-05  5169   0.857E-03    0.105E-02
RMM:   9    -0.413212133739E+03    0.13257E-04   -0.16212E-05  4102   0.489E-03    0.405E-03
RMM:  10    -0.413212127914E+03    0.58258E-05   -0.33408E-06  2689   0.241E-03    0.239E-03
RMM:  11    -0.413212121061E+03    0.68526E-05   -0.11606E-06  2500   0.173E-03    0.124E-03
RMM:  12    -0.413212114430E+03    0.66313E-05   -0.53462E-07  2388   0.128E-03    0.539E-04
RMM:  13    -0.413212110214E+03    0.42159E-05   -0.27643E-07  1807   0.902E-04    0.243E-04
RMM:  14    -0.413212106354E+03    0.38602E-05   -0.16676E-07  1378   0.750E-04    0.138E-04
RMM:  15    -0.413212099928E+03    0.64259E-05   -0.14191E-07  1441   0.732E-04    0.110E-04
RMM:  16    -0.413212098255E+03    0.16727E-05   -0.85458E-08  1172   0.641E-04    0.821E-05
RMM:  17    -0.413212094233E+03    0.40223E-05   -0.78640E-08  1297   0.641E-04    0.565E-05
RMM:  18    -0.413212091507E+03    0.27256E-05   -0.55460E-08  1137   0.593E-04    0.446E-05
RMM:  19    -0.413212090909E+03    0.59826E-06   -0.30402E-08   829   0.535E-04
   42 T=    70. E= -.41286675E+03 F= -.41321209E+03 E0= -.41319105E+03  EK= 0.34534E+00 SP= 0.00E+00 SK= 0.00E+00
       N       E                     dE             d eps       ncg     rms          rms(c)
RMM:   1    -0.413213464149E+03   -0.13726E-02   -0.12309E+01  4310   0.130E+00    0.945E-01
RMM:   2    -0.413215690423E+03   -0.22263E-02   -0.16917E-01  4300   0.150E-01    0.679E-01
RMM:   3    -0.413219027941E+03   -0.33375E-02   -0.11967E-02  5113   0.821E-02    0.360E-01
RMM:   4    -0.413247829836E+03   -0.28802E-01   -0.48857E-02  5065   0.187E-01    0.768E-01
RMM:   5    -0.413213872742E+03    0.33957E-01   -0.14692E-02  4707   0.128E-01    0.523E-02
RMM:   6    -0.413213903368E+03   -0.30626E-04   -0.25050E-03  5727   0.474E-02    0.249E-02
RMM:   7    -0.413213909811E+03   -0.64431E-05   -0.31049E-04  5836   0.159E-02    0.180E-02
RMM:   8    -0.413213906305E+03    0.35064E-05   -0.71508E-05  5146   0.830E-03    0.980E-03
RMM:   9    -0.413213895231E+03    0.11074E-04   -0.15251E-05  4019   0.482E-03    0.382E-03
RMM:  10    -0.413213891101E+03    0.41296E-05   -0.29778E-06  2667   0.233E-03    0.222E-03
RMM:  11    -0.413213885824E+03    0.52775E-05   -0.12242E-06  2502   0.173E-03    0.120E-03
RMM:  12    -0.413213881197E+03    0.46264E-05   -0.53559E-07  2373   0.126E-03    0.537E-04
RMM:  13    -0.413213878116E+03    0.30811E-05   -0.27800E-07  1728   0.883E-04    0.244E-04
RMM:  14    -0.413213875121E+03    0.29950E-05   -0.17341E-07  1350   0.745E-04    0.130E-04
RMM:  15    -0.413213870374E+03    0.47468E-05   -0.14540E-07  1365   0.720E-04    0.983E-05
RMM:  16    -0.413213868802E+03    0.15720E-05   -0.87450E-08  1099   0.641E-04    0.751E-05
RMM:  17    -0.413213865604E+03    0.31983E-05   -0.78923E-08  1237   0.644E-04    0.551E-05
RMM:  18    -0.413213863235E+03    0.23688E-05   -0.57872E-08  1109   0.599E-04    0.465E-05
RMM:  19    -0.413213862655E+03    0.58070E-06   -0.31297E-08   818   0.542E-04
   43 T=    71. E= -.41286675E+03 F= -.41321386E+03 E0= -.41319285E+03  EK= 0.34711E+00 SP= 0.00E+00 SK= 0.00E+00
       N       E                     dE             d eps       ncg     rms          rms(c)
RMM:   1    -0.413254771711E+03   -0.40908E-01   -0.12830E+01  4310   0.154E+00    0.946E-01
RMM:   2    -0.413216747669E+03    0.38024E-01   -0.20577E-01  4308   0.171E-01    0.696E-01
RMM:   3    -0.413221157115E+03   -0.44094E-02   -0.12733E-02  5108   0.908E-02    0.416E-01
RMM:   4    -0.413247770061E+03   -0.26613E-01   -0.50541E-02  5061   0.191E-01    0.766E-01
RMM:   5    -0.413214590372E+03    0.33180E-01   -0.14481E-02  4689   0.130E-01    0.560E-02
RMM:   6    -0.413214597937E+03   -0.75655E-05   -0.24642E-03  5675   0.474E-02    0.256E-02
RMM:   7    -0.413214604328E+03   -0.63913E-05   -0.31660E-04  5876   0.162E-02    0.189E-02
RMM:   8    -0.413214600369E+03    0.39595E-05   -0.68809E-05  5147   0.820E-03    0.101E-02
RMM:   9    -0.413214590473E+03    0.98959E-05   -0.17380E-05  4125   0.514E-03    0.411E-03
RMM:  10    -0.413214587274E+03    0.31989E-05   -0.31748E-06  2691   0.236E-03    0.235E-03
RMM:  11    -0.413214583142E+03    0.41320E-05   -0.16352E-06  2551   0.190E-03    0.135E-03
RMM:  12    -0.413214580119E+03    0.30229E-05   -0.56140E-07  2446   0.133E-03    0.629E-04
RMM:  13    -0.413214577451E+03    0.26678E-05   -0.30817E-07  1666   0.900E-04    0.302E-04
RMM:  14    -0.413214574988E+03    0.24634E-05   -0.19944E-07  1371   0.774E-04    0.153E-04
RMM:  15    -0.413214572176E+03    0.28120E-05   -0.15073E-07  1353   0.725E-04    0.855E-05
RMM:  16    -0.413214570008E+03    0.21677E-05   -0.10638E-07  1224   0.667E-04    0.608E-05
RMM:  17    -0.413214568224E+03    0.17843E-05   -0.77891E-08  1167   0.625E-04    0.503E-05
RMM:  18    -0.413214565883E+03    0.23408E-05   -0.62649E-08  1080   0.599E-04    0.345E-05
RMM:  19    -0.413214565150E+03    0.73284E-06   -0.37507E-08   889   0.555E-04
   44 T=    71. E= -.41286641E+03 F= -.41321457E+03 E0= -.41319357E+03  EK= 0.34816E+00 SP= 0.00E+00 SK= 0.00E+00
       N       E                     dE             d eps       ncg     rms          rms(c)
RMM:   1    -0.413236573600E+03   -0.22008E-01   -0.12662E+01  4309   0.153E+00    0.975E-01
RMM:   2    -0.413217101874E+03    0.19472E-01   -0.17448E-01  4350   0.175E-01    0.685E-01
RMM:   3    -0.413228311165E+03   -0.11209E-01   -0.19230E-02  5139   0.116E-01    0.514E-01
RMM:   4    -0.413232462564E+03   -0.41514E-02   -0.38938E-02  5016   0.172E-01    0.555E-01
RMM:   5    -0.413215821090E+03    0.16641E-01   -0.61945E-03  4577   0.956E-02    0.473E-02
RMM:   6    -0.413215779265E+03    0.41825E-04   -0.11757E-03  5402   0.333E-02    0.232E-02
RMM:   7    -0.413215777140E+03    0.21248E-05   -0.15415E-04  5630   0.121E-02    0.162E-02
RMM:   8    -0.413215771116E+03    0.60246E-05   -0.69715E-05  5094   0.845E-03    0.865E-03
RMM:   9    -0.413215756672E+03    0.14444E-04   -0.13453E-05  4024   0.485E-03    0.350E-03
RMM:  10    -0.413215752809E+03    0.38623E-05   -0.20127E-06  2606   0.206E-03    0.194E-03
RMM:  11    -0.413215745355E+03    0.74539E-05   -0.11030E-06  2490   0.167E-03    0.113E-03
RMM:  12    -0.413215739801E+03    0.55540E-05   -0.45872E-07  2368   0.120E-03    0.558E-04
RMM:  13    -0.413215735802E+03    0.39995E-05   -0.21833E-07  1621   0.810E-04    0.269E-04
RMM:  14    -0.413215731961E+03    0.38410E-05   -0.12670E-07  1209   0.678E-04    0.141E-04
RMM:  15    -0.413215725963E+03    0.59976E-05   -0.11415E-07  1257   0.679E-04    0.122E-04
RMM:  16    -0.413215723628E+03    0.23357E-05   -0.67959E-08  1048   0.604E-04    0.108E-04
RMM:  17    -0.413215720618E+03    0.30098E-05   -0.54867E-08  1059   0.590E-04    0.574E-05
RMM:  18    -0.413215716895E+03    0.37223E-05   -0.53683E-08  1120   0.591E-04    0.514E-05
RMM:  19    -0.413215716542E+03    0.35335E-06   -0.21109E-08   718   0.508E-04
   45 T=    71. E= -.41286679E+03 F= -.41321572E+03 E0= -.41319474E+03  EK= 0.34893E+00 SP= 0.00E+00 SK= 0.00E+00
       N       E                     dE             d eps       ncg     rms          rms(c)
RMM:   1    -0.413228461753E+03   -0.12745E-01   -0.12471E+01  4308   0.159E+00    0.955E-01
RMM:   2    -0.413216754387E+03    0.11707E-01   -0.18069E-01  4364   0.187E-01    0.682E-01
RMM:   3    -0.413229971202E+03   -0.13217E-01   -0.20665E-02  5135   0.123E-01    0.555E-01
RMM:   4    -0.413230133323E+03   -0.16212E-03   -0.38596E-02  5004   0.172E-01    0.528E-01
RMM:   5    -0.413215439537E+03    0.14694E-01   -0.56535E-03  4558   0.938E-02    0.478E-02
RMM:   6    -0.413215377611E+03    0.61925E-04   -0.95161E-04  5224   0.312E-02    0.230E-02
RMM:   7    -0.413215373947E+03    0.36648E-05   -0.12692E-04  5684   0.110E-02    0.147E-02
RMM:   8    -0.413215372243E+03    0.17038E-05   -0.76876E-05  5194   0.875E-03    0.986E-03
RMM:   9    -0.413215357030E+03    0.15213E-04   -0.18583E-05  4367   0.546E-03    0.381E-03
RMM:  10    -0.413215354029E+03    0.30016E-05   -0.24373E-06  2654   0.222E-03    0.210E-03
RMM:  11    -0.413215348100E+03    0.59285E-05   -0.13488E-06  2492   0.184E-03    0.123E-03
RMM:  12    -0.413215343479E+03    0.46214E-05   -0.52543E-07  2394   0.131E-03    0.670E-04
RMM:  13    -0.413215339695E+03    0.37841E-05   -0.23520E-07  1659   0.871E-04    0.329E-04
RMM:  14    -0.413215335974E+03    0.37205E-05   -0.12901E-07  1307   0.706E-04    0.161E-04
RMM:  15    -0.413215331140E+03    0.48337E-05   -0.10238E-07  1198   0.660E-04    0.134E-04
RMM:  16    -0.413215329122E+03    0.20184E-05   -0.55475E-08   915   0.574E-04    0.110E-04
RMM:  17    -0.413215325742E+03    0.33798E-05   -0.54628E-08   993   0.582E-04    0.691E-05
RMM:  18    -0.413215323009E+03    0.27332E-05   -0.41971E-08   935   0.566E-04    0.506E-05
RMM:  19    -0.413215322404E+03    0.60469E-06   -0.17661E-08   658   0.513E-04
   46 T=    71. E= -.41286676E+03 F= -.41321532E+03 E0= -.41319437E+03  EK= 0.34856E+00 SP= 0.00E+00 SK= 0.00E+00
       N       E                     dE             d eps       ncg     rms          rms(c)
RMM:   1    -0.413244144973E+03   -0.28822E-01   -0.12651E+01  4310   0.173E+00    0.942E-01
RMM:   2    -0.413216034848E+03    0.28110E-01   -0.20226E-01  4370   0.206E-01    0.697E-01
RMM:   3    -0.413229291071E+03   -0.13256E-01   -0.20731E-02  5133   0.128E-01    0.577E-01
RMM:   4    -0.413230131923E+03   -0.84085E-03   -0.41103E-02  5004   0.178E-01    0.555E-01
RMM:   5    -0.413214040132E+03    0.16092E-01   -0.65261E-03  4562   0.997E-02    0.511E-02
RMM:   6    -0.413213966262E+03    0.73870E-04   -0.10627E-03  5249   0.332E-02    0.242E-02
RMM:   7    -0.413213962836E+03    0.34265E-05   -0.14739E-04  5741   0.117E-02    0.166E-02
RMM:   8    -0.413213959788E+03    0.30476E-05   -0.77396E-05  5194   0.878E-03    0.997E-03
RMM:   9    -0.413213945713E+03    0.14075E-04   -0.18834E-05  4364   0.559E-03    0.402E-03
RMM:  10    -0.413213943373E+03    0.23406E-05   -0.26735E-06  2680   0.225E-03    0.221E-03
RMM:  11    -0.413213939309E+03    0.40632E-05   -0.14864E-06  2509   0.191E-03    0.136E-03
RMM:  12    -0.413213936245E+03    0.30639E-05   -0.53397E-07  2413   0.134E-03    0.709E-04
RMM:  13    -0.413213933337E+03    0.29083E-05   -0.25805E-07  1739   0.894E-04    0.321E-04
RMM:  14    -0.413213930753E+03    0.25839E-05   -0.15157E-07  1378   0.721E-04    0.166E-04
RMM:  15    -0.413213927428E+03    0.33254E-05   -0.12201E-07  1230   0.671E-04    0.113E-04
RMM:  16    -0.413213925614E+03    0.18136E-05   -0.68506E-08   979   0.595E-04    0.873E-05
RMM:  17    -0.413213923580E+03    0.20341E-05   -0.55235E-08   950   0.577E-04    0.533E-05
RMM:  18    -0.413213921782E+03    0.17979E-05   -0.44371E-08   906   0.564E-04    0.379E-05
RMM:  19    -0.413213921290E+03    0.49224E-06   -0.20443E-08   671   0.521E-04
   47 T=    71. E= -.41286690E+03 F= -.41321392E+03 E0= -.41319298E+03  EK= 0.34702E+00 SP= 0.00E+00 SK= 0.00E+00
       N       E                     dE             d eps       ncg     rms          rms(c)
RMM:   1    -0.413271109451E+03   -0.57188E-01   -0.12868E+01  4306   0.193E+00    0.967E-01
RMM:   2    -0.413212915732E+03    0.58194E-01   -0.20217E-01  4460   0.207E-01    0.690E-01
RMM:   3    -0.413235536615E+03   -0.22621E-01   -0.29311E-02  5145   0.152E-01    0.698E-01
RMM:   4    -0.413220413366E+03    0.15123E-01   -0.38234E-02  4961   0.176E-01    0.437E-01
RMM:   5    -0.413211578118E+03    0.88352E-02   -0.45468E-03  4551   0.891E-02    0.557E-02
RMM:   6    -0.413211422748E+03    0.15537E-03   -0.46318E-04  4736   0.280E-02    0.263E-02
RMM:   7    -0.413211423801E+03   -0.10533E-05   -0.16818E-04  5894   0.132E-02    0.186E-02
RMM:   8    -0.413211405707E+03    0.18095E-04   -0.59192E-05  5045   0.847E-03    0.947E-03
RMM:   9    -0.413211394336E+03    0.11371E-04   -0.13046E-05  3843   0.461E-03    0.460E-03
RMM:  10    -0.413211389683E+03    0.46531E-05   -0.20291E-06  2564   0.229E-03    0.236E-03
RMM:  11    -0.413211383809E+03    0.58740E-05   -0.14250E-06  2481   0.190E-03    0.166E-03
RMM:  12    -0.413211379696E+03    0.41127E-05   -0.48192E-07  2390   0.129E-03    0.811E-04
RMM:  13    -0.413211375050E+03    0.46462E-05   -0.24858E-07  1698   0.852E-04    0.391E-04
RMM:  14    -0.413211370165E+03    0.48845E-05   -0.18492E-07  1712   0.761E-04    0.288E-04
RMM:  15    -0.413211365415E+03    0.47504E-05   -0.12187E-07  1147   0.618E-04    0.135E-04
RMM:  16    -0.413211362666E+03    0.27486E-05   -0.78096E-08  1061   0.581E-04    0.866E-05
RMM:  17    -0.413211360112E+03    0.25545E-05   -0.59672E-08  1015   0.570E-04    0.489E-05
RMM:  18    -0.413211357668E+03    0.24437E-05   -0.48120E-08   980   0.564E-04    0.433E-05
RMM:  19    -0.413211357008E+03    0.65992E-06   -0.22987E-08   736   0.521E-04
   48 T=    70. E= -.41286737E+03 F= -.41321136E+03 E0= -.41319042E+03  EK= 0.34399E+00 SP= 0.00E+00 SK= 0.00E+00
       N       E                     dE             d eps       ncg     rms          rms(c)
RMM:   1    -0.413267570213E+03   -0.56213E-01   -0.12639E+01  4305   0.205E+00    0.954E-01
RMM:   2    -0.413207249301E+03    0.60321E-01   -0.20376E-01  4495   0.222E-01    0.679E-01
RMM:   3    -0.413235815323E+03   -0.28566E-01   -0.34475E-02  5155   0.166E-01    0.771E-01
RMM:   4    -0.413212234446E+03    0.23581E-01   -0.37906E-02  4933   0.177E-01    0.389E-01
RMM:   5    -0.413206073165E+03    0.61613E-02   -0.49257E-03  4754   0.916E-02    0.670E-02
RMM:   6    -0.413205819536E+03    0.25363E-03   -0.50646E-04  4673   0.312E-02    0.299E-02
RMM:   7    -0.413205814095E+03    0.54411E-05   -0.15343E-04  5729   0.133E-02    0.204E-02
RMM:   8    -0.413205794918E+03    0.19177E-04   -0.42996E-05  4924   0.724E-03    0.955E-03
RMM:   9    -0.413205782337E+03    0.12580E-04   -0.13155E-05  3422   0.426E-03    0.419E-03
RMM:  10    -0.413205776877E+03    0.54602E-05   -0.20246E-06  2572   0.231E-03    0.237E-03
RMM:  11    -0.413205769712E+03    0.71652E-05   -0.10195E-06  2488   0.164E-03    0.142E-03
RMM:  12    -0.413205765104E+03    0.46077E-05   -0.43007E-07  2392   0.114E-03    0.652E-04
RMM:  13    -0.413205759812E+03    0.52925E-05   -0.29053E-07  1703   0.866E-04    0.345E-04
RMM:  14    -0.413205755363E+03    0.44487E-05   -0.19677E-07  1459   0.765E-04    0.249E-04
RMM:  15    -0.413205750045E+03    0.53179E-05   -0.17179E-07  1385   0.724E-04    0.132E-04
RMM:  16    -0.413205748037E+03    0.20082E-05   -0.97314E-08  1172   0.630E-04    0.938E-05
RMM:  17    -0.413205744682E+03    0.33548E-05   -0.89813E-08  1245   0.632E-04    0.534E-05
RMM:  18    -0.413205743632E+03    0.10500E-05   -0.49535E-08   966   0.558E-04    0.375E-05
RMM:  19    -0.413205742611E+03    0.10207E-05   -0.35365E-08   890   0.541E-04    0.198E-05
RMM:  20    -0.413205741995E+03    0.61611E-06   -0.26225E-08   808   0.527E-04
   49 T=    69. E= -.41286709E+03 F= -.41320574E+03 E0= -.41318481E+03  EK= 0.33865E+00 SP= 0.00E+00 SK= 0.00E+00
       N       E                     dE             d eps       ncg     rms          rms(c)
RMM:   1    -0.413227489400E+03   -0.21747E-01   -0.12074E+01  4305   0.201E+00    0.921E-01
RMM:   2    -0.413200682694E+03    0.26807E-01   -0.20240E-01  4501   0.229E-01    0.684E-01
RMM:   3    -0.413228077874E+03   -0.27395E-01   -0.33219E-02  5156   0.165E-01    0.768E-01
RMM:   4    -0.413205782739E+03    0.22295E-01   -0.38559E-02  4941   0.179E-01    0.401E-01
RMM:   5    -0.413198965092E+03    0.68176E-02   -0.53834E-03  4753   0.948E-02    0.695E-02
RMM:   6    -0.413198692560E+03    0.27253E-03   -0.52916E-04  4661   0.322E-02    0.305E-02
RMM:   7    -0.413198687829E+03    0.47304E-05   -0.15861E-04  5751   0.135E-02    0.207E-02
RMM:   8    -0.413198668924E+03    0.18906E-04   -0.44454E-05  4971   0.724E-03    0.993E-03
RMM:   9    -0.413198658247E+03    0.10677E-04   -0.14614E-05  3504   0.448E-03    0.424E-03
RMM:  10    -0.413198653813E+03    0.44334E-05   -0.24677E-06  2632   0.244E-03    0.246E-03
RMM:  11    -0.413198648766E+03    0.50474E-05   -0.10679E-06  2495   0.170E-03    0.146E-03
RMM:  12    -0.413198645516E+03    0.32497E-05   -0.44739E-07  2411   0.116E-03    0.688E-04
RMM:  13    -0.413198641612E+03    0.39039E-05   -0.31866E-07  1771   0.899E-04    0.371E-04
RMM:  14    -0.413198638504E+03    0.31086E-05   -0.21362E-07  1492   0.775E-04    0.269E-04
RMM:  15    -0.413198635084E+03    0.34199E-05   -0.18744E-07  1346   0.725E-04    0.127E-04
RMM:  16    -0.413198633697E+03    0.13868E-05   -0.10433E-07  1223   0.645E-04    0.906E-05
RMM:  17    -0.413198631748E+03    0.19489E-05   -0.97492E-08  1252   0.636E-04    0.546E-05
RMM:  18    -0.413198631194E+03    0.55459E-06   -0.48944E-08   938   0.557E-04
   50 T=    67. E= -.41286736E+03 F= -.41319863E+03 E0= -.41317770E+03  EK= 0.33127E+00 SP= 0.00E+00 SK= 0.00E+00
       N       E                     dE             d eps       ncg     rms          rms(c)
RMM:   1    -0.413220604027E+03   -0.21972E-01   -0.11817E+01  4301   0.214E+00    0.929E-01
RMM:   2    -0.413190131269E+03    0.30473E-01   -0.19724E-01  4537   0.241E-01    0.676E-01
RMM:   3    -0.413227356897E+03   -0.37226E-01   -0.42521E-02  5165   0.188E-01    0.870E-01
[...]
RMM:  10    -0.413161740314E+03   -0.72385E-05   -0.31474E-06  2670   0.236E-03    0.286E-03
RMM:  11    -0.413161746671E+03   -0.63576E-05   -0.15072E-06  2526   0.182E-03    0.145E-03
RMM:  12    -0.413161752168E+03   -0.54968E-05   -0.12048E-06  2494   0.151E-03    0.541E-04
RMM:  13    -0.413161754146E+03   -0.19783E-05   -0.50906E-07  2120   0.106E-03    0.363E-04
RMM:  14    -0.413161755229E+03   -0.10831E-05   -0.26815E-07  1629   0.832E-04    0.214E-04
RMM:  15    -0.413161756625E+03   -0.13953E-05   -0.27601E-07  1624   0.805E-04    0.132E-04
RMM:  16    -0.413161757558E+03   -0.93337E-06   -0.20545E-07  1564   0.736E-04
  137 T=    60. E= -.41286659E+03 F= -.41316176E+03 E0= -.41314103E+03  EK= 0.29517E+00 SP= 0.00E+00 SK= 0.00E+00
       N       E                     dE             d eps       ncg     rms          rms(c)
RMM:   1    -0.413157712493E+03    0.40441E-02   -0.86834E+00  4267   0.779E-01    0.832E-01
RMM:   2    -0.413163621231E+03   -0.59087E-02   -0.10294E-01  4308   0.900E-02    0.594E-01
RMM:   3    -0.413161470427E+03    0.21508E-02   -0.10913E-02  4984   0.454E-02    0.129E-01
RMM:   4    -0.413191283449E+03   -0.29813E-01   -0.32395E-02  5142   0.150E-01    0.721E-01
RMM:   5    -0.413160927351E+03    0.30356E-01   -0.14869E-02  4805   0.120E-01    0.527E-02
RMM:   6    -0.413160959544E+03   -0.32193E-04   -0.24752E-03  5698   0.475E-02    0.300E-02
RMM:   7    -0.413160989579E+03   -0.30035E-04   -0.37111E-04  5928   0.164E-02    0.171E-02
RMM:   8    -0.413160998328E+03   -0.87495E-05   -0.64201E-05  5254   0.837E-03    0.868E-03
RMM:   9    -0.413161000621E+03   -0.22923E-05   -0.94075E-06  3407   0.364E-03    0.435E-03
RMM:  10    -0.413161006822E+03   -0.62017E-05   -0.29406E-06  2655   0.233E-03    0.286E-03
RMM:  11    -0.413161011486E+03   -0.46632E-05   -0.13854E-06  2513   0.176E-03    0.143E-03
RMM:  12    -0.413161015400E+03   -0.39143E-05   -0.11881E-06  2493   0.150E-03    0.599E-04
RMM:  13    -0.413161016774E+03   -0.13738E-05   -0.51264E-07  2113   0.106E-03    0.378E-04
RMM:  14    -0.413161017372E+03   -0.59824E-06   -0.26374E-07  1630   0.827E-04
  138 T=    60. E= -.41286636E+03 F= -.41316102E+03 E0= -.41314031E+03  EK= 0.29465E+00 SP= 0.00E+00 SK= 0.00E+00
       N       E                     dE             d eps       ncg     rms          rms(c)
RMM:   1    -0.413158606450E+03    0.24103E-02   -0.85527E+00  4268   0.775E-01    0.818E-01
RMM:   2    -0.413164750577E+03   -0.61441E-02   -0.10241E-01  4302   0.919E-02    0.599E-01
RMM:   3    -0.413161931100E+03    0.28195E-02   -0.11846E-02  4905   0.455E-02    0.967E-02
RMM:   4    -0.413183375364E+03   -0.21444E-01   -0.22557E-02  5135   0.125E-01    0.613E-01
RMM:   5    -0.413161635873E+03    0.21739E-01   -0.10777E-02  4814   0.102E-01    0.472E-02
RMM:   6    -0.413161655792E+03   -0.19920E-04   -0.18158E-03  5700   0.410E-02    0.289E-02
RMM:   7    -0.413161683769E+03   -0.27977E-04   -0.30218E-04  5811   0.150E-02    0.154E-02
RMM:   8    -0.413161695029E+03   -0.11261E-04   -0.51156E-05  5144   0.759E-03    0.791E-03
RMM:   9    -0.413161699384E+03   -0.43546E-05   -0.67622E-06  3154   0.318E-03    0.415E-03
RMM:  10    -0.413161709134E+03   -0.97498E-05   -0.23880E-06  2592   0.219E-03    0.259E-03
RMM:  11    -0.413161716775E+03   -0.76411E-05   -0.12931E-06  2511   0.167E-03    0.122E-03
RMM:  12    -0.413161723165E+03   -0.63897E-05   -0.10519E-06  2457   0.140E-03    0.584E-04
RMM:  13    -0.413161726054E+03   -0.28898E-05   -0.51889E-07  2029   0.102E-03    0.352E-04
RMM:  14    -0.413161727285E+03   -0.12303E-05   -0.25720E-07  1523   0.804E-04    0.205E-04
RMM:  15    -0.413161729033E+03   -0.17483E-05   -0.32234E-07  1680   0.821E-04    0.160E-04
RMM:  16    -0.413161729977E+03   -0.94374E-06   -0.21627E-07  1480   0.722E-04
  139 T=    60. E= -.41286647E+03 F= -.41316173E+03 E0= -.41314103E+03  EK= 0.29526E+00 SP= 0.00E+00 SK= 0.00E+00
       N       E                     dE             d eps       ncg     rms          rms(c)
RMM:   1    -0.413159452244E+03    0.22768E-02   -0.84713E+00  4265   0.770E-01    0.830E-01
RMM:   2    -0.413164858119E+03   -0.54059E-02   -0.10079E-01  4300   0.896E-02    0.602E-01
RMM:   3    -0.413162130872E+03    0.27272E-02   -0.12448E-02  4904   0.427E-02    0.897E-02
RMM:   4    -0.413179779965E+03   -0.17649E-01   -0.18455E-02  5142   0.114E-01    0.558E-01
RMM:   5    -0.413161915016E+03    0.17865E-01   -0.89301E-03  4820   0.926E-02    0.462E-02
RMM:   6    -0.413161933347E+03   -0.18331E-04   -0.15618E-03  5688   0.382E-02    0.297E-02
RMM:   7    -0.413161956718E+03   -0.23371E-04   -0.28442E-04  5711   0.147E-02    0.153E-02
RMM:   8    -0.413161964568E+03   -0.78494E-05   -0.44868E-05  5085   0.725E-03    0.782E-03
RMM:   9    -0.413161967363E+03   -0.27952E-05   -0.56755E-06  3033   0.294E-03    0.425E-03
RMM:  10    -0.413161974957E+03   -0.75939E-05   -0.21955E-06  2565   0.216E-03    0.254E-03
RMM:  11    -0.413161980584E+03   -0.56267E-05   -0.12107E-06  2509   0.163E-03    0.119E-03
RMM:  12    -0.413161984878E+03   -0.42940E-05   -0.93602E-07  2410   0.134E-03    0.591E-04
RMM:  13    -0.413161986969E+03   -0.20915E-05   -0.52059E-07  2066   0.103E-03    0.339E-04
RMM:  14    -0.413161987701E+03   -0.73212E-06   -0.24703E-07  1521   0.792E-04
  140 T=    60. E= -.41286658E+03 F= -.41316199E+03 E0= -.41314130E+03  EK= 0.29541E+00 SP= 0.00E+00 SK= 0.00E+00
       N       E                     dE             d eps       ncg     rms          rms(c)
RMM:   1    -0.413160068801E+03    0.19182E-02   -0.83674E+00  4264   0.784E-01    0.837E-01
RMM:   2    -0.413164415823E+03   -0.43470E-02   -0.98663E-02  4300   0.901E-02    0.596E-01
RMM:   3    -0.413161496581E+03    0.29192E-02   -0.12534E-02  4739   0.424E-02    0.796E-02
RMM:   4    -0.413169474468E+03   -0.79779E-02   -0.83758E-03  5156   0.772E-02    0.377E-01
RMM:   5    -0.413161450971E+03    0.80235E-02   -0.41231E-03  4838   0.631E-02    0.428E-02
RMM:   6    -0.413161460216E+03   -0.92448E-05   -0.84409E-04  5586   0.291E-02    0.305E-02
RMM:   7    -0.413161467841E+03   -0.76252E-05   -0.22466E-04  5460   0.133E-02    0.146E-02
RMM:   8    -0.413161468333E+03   -0.49247E-06   -0.33093E-05  4949   0.650E-03    0.743E-03
RMM:   9    -0.413161469325E+03   -0.99180E-06   -0.38566E-06  2783   0.240E-03
  141 T=    60. E= -.41286649E+03 F= -.41316147E+03 E0= -.41314079E+03  EK= 0.29498E+00 SP= 0.00E+00 SK= 0.00E+00
       N       E                     dE             d eps       ncg     rms          rms(c)
RMM:   1    -0.413160244748E+03    0.12236E-02   -0.82819E+00  4270   0.768E-01    0.819E-01
RMM:   2    -0.413165651117E+03   -0.54064E-02   -0.98136E-02  4305   0.916E-02    0.597E-01
RMM:   3    -0.413162587957E+03    0.30632E-02   -0.13301E-02  4882   0.472E-02    0.920E-02
RMM:   4    -0.413182183421E+03   -0.19595E-01   -0.20696E-02  5139   0.120E-01    0.587E-01
RMM:   5    -0.413162308555E+03    0.19875E-01   -0.98837E-03  4822   0.975E-02    0.493E-02
RMM:   6    -0.413162308449E+03    0.10543E-06   -0.17171E-03  5660   0.403E-02    0.299E-02
RMM:   7    -0.413162338497E+03   -0.30047E-04   -0.30175E-04  5829   0.150E-02    0.156E-02
RMM:   8    -0.413162348257E+03   -0.97598E-05   -0.52287E-05  5156   0.776E-03    0.819E-03
RMM:   9    -0.413162351806E+03   -0.35498E-05   -0.61126E-06  3061   0.307E-03    0.414E-03
RMM:  10    -0.413162360475E+03   -0.86683E-05   -0.25980E-06  2602   0.231E-03    0.257E-03
RMM:  11    -0.413162366972E+03   -0.64976E-05   -0.14177E-06  2522   0.174E-03    0.125E-03
RMM:  12    -0.413162372017E+03   -0.50443E-05   -0.11070E-06  2463   0.142E-03    0.614E-04
RMM:  13    -0.413162374550E+03   -0.25339E-05   -0.66731E-07  2088   0.107E-03    0.373E-04
RMM:  14    -0.413162375579E+03   -0.10287E-05   -0.37946E-07  1731   0.870E-04    0.243E-04
RMM:  15    -0.413162376094E+03   -0.51499E-06   -0.38711E-07  1739   0.844E-04
  142 T=    60. E= -.41286680E+03 F= -.41316238E+03 E0= -.41314171E+03  EK= 0.29557E+00 SP= 0.00E+00 SK= 0.00E+00
       N       E                     dE             d eps       ncg     rms          rms(c)
RMM:   1    -0.413160518031E+03    0.18575E-02   -0.83115E+00  4264   0.771E-01    0.826E-01
RMM:   2    -0.413165651796E+03   -0.51338E-02   -0.98089E-02  4298   0.909E-02    0.603E-01
RMM:   3    -0.413162320911E+03    0.33309E-02   -0.13634E-02  4596   0.427E-02    0.572E-02
RMM:   4    -0.413164309297E+03   -0.19884E-02   -0.23358E-03  5172   0.420E-02    0.191E-01
RMM:   5    -0.413162324732E+03    0.19846E-02   -0.10931E-03  4848   0.330E-02    0.398E-02
RMM:   6    -0.413162329955E+03   -0.52230E-05   -0.37748E-04  5386   0.201E-02    0.286E-02
RMM:   7    -0.413162348332E+03   -0.18377E-04   -0.17688E-04  5101   0.111E-02    0.155E-02
RMM:   8    -0.413162346619E+03    0.17129E-05   -0.18800E-05  4420   0.515E-03    0.735E-03
RMM:   9    -0.413162349408E+03   -0.27897E-05   -0.48111E-06  2632   0.220E-03    0.286E-03
RMM:  10    -0.413162359230E+03   -0.98213E-05   -0.17200E-06  2510   0.181E-03    0.143E-03
RMM:  11    -0.413162365839E+03   -0.66094E-05   -0.11025E-06  2468   0.142E-03    0.671E-04
RMM:  12    -0.413162369723E+03   -0.38835E-05   -0.68120E-07  2096   0.110E-03    0.401E-04
RMM:  13    -0.413162372198E+03   -0.24755E-05   -0.54161E-07  1960   0.932E-04    0.299E-04
RMM:  14    -0.413162373308E+03   -0.11100E-05   -0.38023E-07  1560   0.797E-04    0.165E-04
RMM:  15    -0.413162373589E+03   -0.28054E-06   -0.32147E-07  1596   0.775E-04
  143 T=    60. E= -.41286648E+03 F= -.41316237E+03 E0= -.41314172E+03  EK= 0.29590E+00 SP= 0.00E+00 SK= 0.00E+00
       N       E                     dE             d eps       ncg     rms          rms(c)
RMM:   1    -0.413160376535E+03    0.19968E-02   -0.83039E+00  4264   0.775E-01    0.840E-01
RMM:   2    -0.413164988052E+03   -0.46115E-02   -0.96981E-02  4305   0.891E-02    0.597E-01
RMM:   3    -0.413161896089E+03    0.30920E-02   -0.13066E-02  4574   0.404E-02    0.665E-02
RMM:   4    -0.413161982188E+03   -0.86099E-04   -0.57128E-04  5154   0.196E-02    0.486E-02
RMM:   5    -0.413162051649E+03   -0.69461E-04   -0.24400E-04  5012   0.155E-02    0.590E-02
RMM:   6    -0.413161948296E+03    0.10335E-03   -0.25810E-04  5225   0.161E-02    0.314E-02
RMM:   7    -0.413161934317E+03    0.13978E-04   -0.17104E-04  4881   0.116E-02    0.142E-02
RMM:   8    -0.413161931780E+03    0.25374E-05   -0.13917E-05  4072   0.465E-03    0.662E-03
RMM:   9    -0.413161933750E+03   -0.19700E-05   -0.51975E-06  2563   0.236E-03    0.195E-03
RMM:  10    -0.413161938681E+03   -0.49309E-05   -0.21163E-06  2500   0.192E-03    0.808E-04
RMM:  11    -0.413161940342E+03   -0.16614E-05   -0.10559E-06  2447   0.139E-03    0.512E-04
RMM:  12    -0.413161940458E+03   -0.11628E-06   -0.36385E-07  1974   0.924E-04
  144 T=    60. E= -.41286659E+03 F= -.41316194E+03 E0= -.41314129E+03  EK= 0.29535E+00 SP= 0.00E+00 SK= 0.00E+00
       N       E                     dE             d eps       ncg     rms          rms(c)
RMM:   1    -0.413160044319E+03    0.18960E-02   -0.82797E+00  4264   0.776E-01    0.821E-01
RMM:   2    -0.413165238082E+03   -0.51938E-02   -0.96855E-02  4309   0.887E-02    0.593E-01
RMM:   3    -0.413162166452E+03    0.30716E-02   -0.12905E-02  4767   0.405E-02    0.666E-02
RMM:   4    -0.413166580159E+03   -0.44137E-02   -0.48170E-03  5174   0.594E-02    0.282E-01
RMM:   5    -0.413162157311E+03    0.44228E-02   -0.23214E-03  4846   0.476E-02    0.423E-02
RMM:   6    -0.413162148734E+03    0.85768E-05   -0.56758E-04  5496   0.242E-02    0.295E-02
RMM:   7    -0.413162165780E+03   -0.17046E-04   -0.20204E-04  5403   0.118E-02    0.156E-02
RMM:   8    -0.413162165065E+03    0.71531E-06   -0.26120E-05  4777   0.579E-03    0.730E-03
RMM:   9    -0.413162167229E+03   -0.21649E-05   -0.47542E-06  2685   0.239E-03    0.311E-03
RMM:  10    -0.413162173835E+03   -0.66057E-05   -0.16408E-06  2527   0.185E-03    0.168E-03
RMM:  11    -0.413162179462E+03   -0.56266E-05   -0.12843E-06  2493   0.154E-03    0.861E-04
RMM:  12    -0.413162182049E+03   -0.25875E-05   -0.67992E-07  2192   0.114E-03    0.404E-04
RMM:  13    -0.413162183748E+03   -0.16988E-05   -0.57554E-07  2057   0.985E-04    0.344E-04
RMM:  14    -0.413162184322E+03   -0.57363E-06   -0.49642E-07  1795   0.882E-04
  145 T=    60. E= -.41286667E+03 F= -.41316218E+03 E0= -.41314154E+03  EK= 0.29552E+00 SP= 0.00E+00 SK= 0.00E+00
       N       E                     dE             d eps       ncg     rms          rms(c)
RMM:   1    -0.413160362567E+03    0.18212E-02   -0.84192E+00  4264   0.783E-01    0.823E-01
RMM:   2    -0.413165760446E+03   -0.53979E-02   -0.98446E-02  4303   0.898E-02    0.601E-01
RMM:   3    -0.413162716982E+03    0.30435E-02   -0.13307E-02  4851   0.429E-02    0.727E-02
RMM:   4    -0.413173712660E+03   -0.10996E-01   -0.11430E-02  5145   0.901E-02    0.442E-01
RMM:   5    -0.413162594969E+03    0.11118E-01   -0.56209E-03  4834   0.731E-02    0.442E-02
RMM:   6    -0.413162599986E+03   -0.50169E-05   -0.10327E-03  5646   0.313E-02    0.291E-02
RMM:   7    -0.413162627129E+03   -0.27143E-04   -0.23236E-04  5640   0.129E-02    0.143E-02
RMM:   8    -0.413162633130E+03   -0.60009E-05   -0.32916E-05  4971   0.628E-03    0.692E-03
RMM:   9    -0.413162636678E+03   -0.35478E-05   -0.42160E-06  2833   0.261E-03    0.365E-03
RMM:  10    -0.413162646159E+03   -0.94816E-05   -0.19271E-06  2550   0.202E-03    0.206E-03
RMM:  11    -0.413162653854E+03   -0.76952E-05   -0.12636E-06  2513   0.157E-03    0.103E-03
RMM:  12    -0.413162658627E+03   -0.47730E-05   -0.82651E-07  2352   0.123E-03    0.547E-04
RMM:  13    -0.413162661428E+03   -0.28006E-05   -0.54778E-07  2024   0.981E-04    0.325E-04
RMM:  14    -0.413162662889E+03   -0.14608E-05   -0.36878E-07  1691   0.836E-04    0.267E-04
RMM:  15    -0.413162663857E+03   -0.96834E-06   -0.46160E-07  1743   0.860E-04
  146 T=    60. E= -.41286642E+03 F= -.41316266E+03 E0= -.41314203E+03  EK= 0.29624E+00 SP= 0.00E+00 SK= 0.00E+00
       N       E                     dE             d eps       ncg     rms          rms(c)
RMM:   1    -0.413160532088E+03    0.21308E-02   -0.85219E+00  4264   0.792E-01    0.840E-01
RMM:   2    -0.413165507561E+03   -0.49755E-02   -0.98043E-02  4300   0.899E-02    0.596E-01
RMM:   3    -0.413162985675E+03    0.25219E-02   -0.12344E-02  4949   0.430E-02    0.996E-02
RMM:   4    -0.413183064564E+03   -0.20079E-01   -0.21150E-02  5144   0.121E-01    0.593E-01
RMM:   5    -0.413162710252E+03    0.20354E-01   -0.10140E-02  4825   0.982E-02    0.508E-02
RMM:   6    -0.413162732398E+03   -0.22146E-04   -0.17578E-03  5672   0.401E-02    0.307E-02
RMM:   7    -0.413162754883E+03   -0.22485E-04   -0.30386E-04  5842   0.147E-02    0.153E-02
RMM:   8    -0.413162758852E+03   -0.39687E-05   -0.42284E-05  5175   0.698E-03    0.738E-03
RMM:   9    -0.413162759982E+03   -0.11308E-05   -0.63698E-06  3124   0.304E-03    0.406E-03
RMM:  10    -0.413162764173E+03   -0.41905E-05   -0.22673E-06  2561   0.218E-03    0.248E-03
RMM:  11    -0.413162766968E+03   -0.27955E-05   -0.12289E-06  2505   0.165E-03    0.125E-03
RMM:  12    -0.413162768685E+03   -0.17167E-05   -0.94843E-07  2458   0.135E-03    0.638E-04
RMM:  13    -0.413162769078E+03   -0.39293E-06   -0.47716E-07  2055   0.100E-03
  147 T=    60. E= -.41286678E+03 F= -.41316277E+03 E0= -.41314214E+03  EK= 0.29599E+00 SP= 0.00E+00 SK= 0.00E+00
       N       E                     dE             d eps       ncg     rms          rms(c)
RMM:   1    -0.413159370276E+03    0.33984E-02   -0.85830E+00  4265   0.799E-01    0.828E-01
RMM:   2    -0.413164798276E+03   -0.54280E-02   -0.98548E-02  4298   0.907E-02    0.590E-01
RMM:   3    -0.413162434592E+03    0.23637E-02   -0.11530E-02  4879   0.424E-02    0.949E-02
RMM:   4    -0.413179063008E+03   -0.16628E-01   -0.17358E-02  5148   0.110E-01    0.541E-01
RMM:   5    -0.413162239568E+03    0.16823E-01   -0.84304E-03  4831   0.895E-02    0.481E-02
RMM:   6    -0.413162258897E+03   -0.19329E-04   -0.15045E-03  5674   0.369E-02    0.301E-02
RMM:   7    -0.413162279401E+03   -0.20503E-04   -0.27549E-04  5757   0.141E-02    0.145E-02
RMM:   8    -0.413162284146E+03   -0.47450E-05   -0.36144E-05  5021   0.650E-03    0.699E-03
RMM:   9    -0.413162285981E+03   -0.18349E-05   -0.53846E-06  3007   0.284E-03    0.399E-03
RMM:  10    -0.413162291209E+03   -0.52284E-05   -0.20283E-06  2549   0.211E-03    0.236E-03
RMM:  11    -0.413162294817E+03   -0.36082E-05   -0.12610E-06  2510   0.163E-03    0.117E-03
RMM:  12    -0.413162297002E+03   -0.21847E-05   -0.93507E-07  2458   0.133E-03    0.608E-04
RMM:  13    -0.413162297679E+03   -0.67676E-06   -0.48773E-07  2016   0.990E-04
  148 T=    60. E= -.41286650E+03 F= -.41316230E+03 E0= -.41314167E+03  EK= 0.29579E+00 SP= 0.00E+00 SK= 0.00E+00
       N       E                     dE             d eps       ncg     rms          rms(c)
RMM:   1    -0.413159552256E+03    0.27447E-02   -0.87689E+00  4264   0.806E-01    0.821E-01
RMM:   2    -0.413165866564E+03   -0.63143E-02   -0.10131E-01  4293   0.929E-02    0.597E-01
RMM:   3    -0.413163436903E+03    0.24297E-02   -0.11446E-02  4909   0.453E-02    0.100E-01
RMM:   4    -0.413185648173E+03   -0.22211E-01   -0.23423E-02  5138   0.128E-01    0.623E-01
RMM:   5    -0.413163097034E+03    0.22551E-01   -0.11165E-02  4826   0.103E-01    0.501E-02
RMM:   6    -0.413163125976E+03   -0.28942E-04   -0.18763E-03  5690   0.413E-02    0.286E-02
RMM:   7    -0.413163159844E+03   -0.33868E-04   -0.30135E-04  5855   0.144E-02    0.143E-02
RMM:   8    -0.413163171745E+03   -0.11902E-04   -0.40710E-05  5108   0.671E-03    0.684E-03
RMM:   9    -0.413163176393E+03   -0.46481E-05   -0.67552E-06  3151   0.305E-03    0.384E-03
RMM:  10    -0.413163185573E+03   -0.91794E-05   -0.22336E-06  2559   0.215E-03    0.242E-03
RMM:  11    -0.413163192875E+03   -0.73018E-05   -0.12881E-06  2515   0.164E-03    0.124E-03
RMM:  12    -0.413163198796E+03   -0.59217E-05   -0.10744E-06  2496   0.139E-03    0.635E-04
RMM:  13    -0.413163200997E+03   -0.22004E-05   -0.48374E-07  2014   0.989E-04    0.371E-04
RMM:  14    -0.413163202370E+03   -0.13729E-05   -0.32026E-07  1678   0.845E-04    0.247E-04
RMM:  15    -0.413163203611E+03   -0.12410E-05   -0.38508E-07  1752   0.847E-04    0.175E-04
RMM:  16    -0.413163204085E+03   -0.47485E-06   -0.27573E-07  1535   0.748E-04
  149 T=    60. E= -.41286661E+03 F= -.41316320E+03 E0= -.41314258E+03  EK= 0.29659E+00 SP= 0.00E+00 SK= 0.00E+00
       N       E                     dE             d eps       ncg     rms          rms(c)
RMM:   1    -0.413159531561E+03    0.36720E-02   -0.89452E+00  4264   0.814E-01    0.837E-01
RMM:   2    -0.413165700247E+03   -0.61687E-02   -0.10167E-01  4299   0.920E-02    0.594E-01
RMM:   3    -0.413164123822E+03    0.15764E-02   -0.10896E-02  5047   0.485E-02    0.143E-01
RMM:   4    -0.413195994486E+03   -0.31871E-01   -0.35655E-02  5124   0.157E-01    0.745E-01
RMM:   5    -0.413163321067E+03    0.32673E-01   -0.15831E-02  4810   0.124E-01    0.585E-02
RMM:   6    -0.413163361359E+03   -0.40292E-04   -0.26270E-03  5652   0.493E-02    0.287E-02
RMM:   7    -0.413163400700E+03   -0.39341E-04   -0.39067E-04  6023   0.161E-02    0.159E-02
RMM:   8    -0.413163409007E+03   -0.83067E-05   -0.57359E-05  5376   0.794E-03    0.767E-03
RMM:   9    -0.413163411078E+03   -0.20715E-05   -0.96383E-06  3432   0.353E-03    0.385E-03
RMM:  10    -0.413163415851E+03   -0.47726E-05   -0.27763E-06  2608   0.233E-03    0.264E-03
RMM:  11    -0.413163419984E+03   -0.41330E-05   -0.14275E-06  2515   0.180E-03    0.148E-03
RMM:  12    -0.413163422829E+03   -0.28452E-05   -0.98833E-07  2501   0.143E-03    0.636E-04
RMM:  13    -0.413163423705E+03   -0.87658E-06   -0.43462E-07  2047   0.997E-04
  150 T=    60. E= -.41286680E+03 F= -.41316342E+03 E0= -.41314281E+03  EK= 0.29663E+00 SP= 0.00E+00 SK= 0.00E+00
