       N       E                     dE             d eps       ncg     rms          rms(c)
RMM:   1     0.220137600015E+04    0.22014E+04   -0.52442E+04  2132   0.654E+02
RMM:   2     0.705846140561E+03   -0.14955E+04   -0.16263E+04  2132   0.177E+02
RMM:   3     0.137885188499E+03   -0.56796E+03   -0.65719E+03  2132   0.117E+02
RMM:   4    -0.159052199908E+03   -0.29694E+03   -0.27830E+03  2132   0.936E+01
RMM:   5    -0.287426495265E+03   -0.12837E+03   -0.11437E+03  2132   0.595E+01
RMM:   6    -0.349869954095E+03   -0.62443E+02   -0.55187E+02  2132   0.423E+01
RMM:   7    -0.382757506339E+03   -0.32888E+02   -0.30423E+02  2132   0.293E+01
RMM:   8    -0.404208881868E+03   -0.21451E+02   -0.18402E+02  2132   0.233E+01
RMM:   9    -0.435984758678E+03   -0.31776E+02   -0.30688E+02  6098   0.173E+01
RMM:  10    -0.441287175151E+03   -0.53024E+01   -0.63039E+01  6390   0.540E+00
RMM:  11    -0.442506412393E+03   -0.12192E+01   -0.11282E+01  6219   0.174E+00
RMM:  12    -0.442882281581E+03   -0.37587E+00   -0.27162E+00  6370   0.605E-01    0.134E+02
RMM:  13    -0.425602345472E+03    0.17280E+02   -0.81063E+01  4671   0.119E+01    0.712E+01
RMM:  14    -0.499255860017E+03   -0.73654E+02   -0.54061E+02  5424   0.232E+01    0.306E+01
RMM:  15    -0.414325692899E+03    0.84930E+02   -0.19583E+02  5062   0.163E+01    0.612E+00
RMM:  16    -0.414060307645E+03    0.26539E+00   -0.39262E+01  6080   0.604E+00    0.429E+00
RMM:  17    -0.413224588594E+03    0.83572E+00   -0.22824E+00  5359   0.181E+00    0.246E+00
RMM:  18    -0.413165610275E+03    0.58978E-01   -0.88942E-01  5958   0.974E-01    0.158E+00
RMM:  19    -0.413167092805E+03   -0.14825E-02   -0.29615E-01  5752   0.573E-01    0.850E-01
RMM:  20    -0.413179532647E+03   -0.12440E-01   -0.17691E-01  5321   0.469E-01    0.492E-01
RMM:  21    -0.413166867521E+03    0.12665E-01   -0.31108E-02  5021   0.211E-01    0.240E-01
RMM:  22    -0.413165529333E+03    0.13382E-02   -0.12970E-02  6138   0.934E-02    0.146E-01
RMM:  23    -0.413164100852E+03    0.14285E-02   -0.49196E-03  5790   0.637E-02    0.819E-02
RMM:  24    -0.413162734479E+03    0.13664E-02   -0.19703E-03  5685   0.433E-02    0.361E-02
RMM:  25    -0.413162581916E+03    0.15256E-03   -0.81328E-04  5657   0.242E-02    0.294E-02
RMM:  26    -0.413162804977E+03   -0.22306E-03   -0.58534E-04  5840   0.252E-02    0.308E-02
RMM:  27    -0.413163225673E+03   -0.42070E-03   -0.19282E-04  4564   0.196E-02    0.149E-02
RMM:  28    -0.413163717094E+03   -0.49142E-03   -0.18496E-04  5277   0.195E-02    0.918E-03
RMM:  29    -0.413164068533E+03   -0.35144E-03   -0.93490E-05  4330   0.140E-02    0.414E-03
RMM:  30    -0.413164278017E+03   -0.20948E-03   -0.71302E-05  4059   0.952E-03    0.247E-03
RMM:  31    -0.413164388465E+03   -0.11045E-03   -0.46988E-05  3179   0.615E-03    0.242E-03
RMM:  32    -0.413164415893E+03   -0.27428E-04   -0.20389E-05  2927   0.298E-03    0.116E-03
RMM:  33    -0.413164425071E+03   -0.91780E-05   -0.80611E-06  2746   0.196E-03    0.470E-04
RMM:  34    -0.413164428117E+03   -0.30459E-05   -0.42907E-06  2639   0.155E-03    0.887E-04
RMM:  35    -0.413164428044E+03    0.72832E-07   -0.19495E-06  2135   0.107E-03
    1 T=    61. E= -.41286663E+03 F= -.41316443E+03 E0= -.41314193E+03  EK= 0.29779E+00 SP= 0.00E+00 SK= 0.00E+00
       N       E                     dE             d eps       ncg     rms          rms(c)
RMM:   1    -0.413157690522E+03    0.67376E-02   -0.10781E+01  4002   0.704E-01    0.886E-01
RMM:   2    -0.413166260538E+03   -0.85700E-02   -0.13218E-01  3943   0.985E-02    0.642E-01
RMM:   3    -0.413164303979E+03    0.19566E-02   -0.76156E-03  4755   0.400E-02    0.142E-01
RMM:   4    -0.413186136365E+03   -0.21832E-01   -0.22841E-02  5211   0.125E-01    0.617E-01
RMM:   5    -0.413163930015E+03    0.22206E-01   -0.11011E-02  4853   0.104E-01    0.361E-02
RMM:   6    -0.413164064737E+03   -0.13472E-03   -0.17820E-03  5815   0.408E-02    0.222E-02
RMM:   7    -0.413164078421E+03   -0.13684E-04   -0.25811E-04  5851   0.139E-02    0.146E-02
RMM:   8    -0.413164083928E+03   -0.55073E-05   -0.37508E-05  4734   0.612E-03    0.669E-03
RMM:   9    -0.413164088360E+03   -0.44324E-05   -0.84506E-06  3285   0.315E-03    0.492E-03
RMM:  10    -0.413164093428E+03   -0.50672E-05   -0.16334E-06  2571   0.180E-03    0.325E-03
RMM:  11    -0.413164100968E+03   -0.75409E-05   -0.14811E-06  2538   0.172E-03    0.141E-03
RMM:  12    -0.413164106645E+03   -0.56769E-05   -0.10479E-06  2434   0.139E-03    0.589E-04
RMM:  13    -0.413164107207E+03   -0.56175E-06   -0.40966E-07  1924   0.905E-04
    2 T=    61. E= -.41286639E+03 F= -.41316411E+03 E0= -.41314161E+03  EK= 0.29772E+00 SP= 0.00E+00 SK= 0.00E+00
       N       E                     dE             d eps       ncg     rms          rms(c)
RMM:   1    -0.413157144953E+03    0.69617E-02   -0.10794E+01  4198   0.689E-01    0.909E-01
RMM:   2    -0.413166241927E+03   -0.90970E-02   -0.12997E-01  4018   0.969E-02    0.635E-01
RMM:   3    -0.413164807785E+03    0.14341E-02   -0.78555E-03  4840   0.384E-02    0.153E-01
RMM:   4    -0.413189284351E+03   -0.24477E-01   -0.24812E-02  5186   0.132E-01    0.653E-01
RMM:   5    -0.413164499519E+03    0.24785E-01   -0.12095E-02  4836   0.109E-01    0.385E-02
RMM:   6    -0.413164652344E+03   -0.15283E-03   -0.19647E-03  5822   0.430E-02    0.237E-02
RMM:   7    -0.413164659914E+03   -0.75699E-05   -0.27363E-04  5844   0.147E-02    0.155E-02
RMM:   8    -0.413164659211E+03    0.70281E-06   -0.43561E-05  4893   0.664E-03    0.758E-03
RMM:   9    -0.413164658557E+03    0.65431E-06   -0.90710E-06  3461   0.341E-03
    3 T=    61. E= -.41286667E+03 F= -.41316466E+03 E0= -.41314216E+03  EK= 0.29799E+00 SP= 0.00E+00 SK= 0.00E+00
       N       E                     dE             d eps       ncg     rms          rms(c)
RMM:   1    -0.413156683842E+03    0.79754E-02   -0.10712E+01  4227   0.690E-01    0.893E-01
RMM:   2    -0.413166065161E+03   -0.93813E-02   -0.12903E-01  4311   0.955E-02    0.630E-01
RMM:   3    -0.413171285146E+03   -0.52200E-02   -0.13112E-02  5203   0.834E-02    0.378E-01
RMM:   4    -0.413183843935E+03   -0.12559E-01   -0.34888E-02  5103   0.161E-01    0.583E-01
RMM:   5    -0.413164463944E+03    0.19380E-01   -0.71790E-03  4678   0.972E-02    0.548E-02
RMM:   6    -0.413164413786E+03    0.50159E-04   -0.13051E-03  5386   0.366E-02    0.229E-02
RMM:   7    -0.413164431430E+03   -0.17645E-04   -0.24731E-04  6011   0.151E-02    0.148E-02
RMM:   8    -0.413164432435E+03   -0.10050E-05   -0.44133E-05  5234   0.722E-03    0.670E-03
RMM:   9    -0.413164432635E+03   -0.19939E-06   -0.99332E-06  3711   0.392E-03
    4 T=    61. E= -.41286633E+03 F= -.41316443E+03 E0= -.41314195E+03  EK= 0.29810E+00 SP= 0.00E+00 SK= 0.00E+00
       N       E                     dE             d eps       ncg     rms          rms(c)
RMM:   1    -0.413156566572E+03    0.78659E-02   -0.10762E+01  4234   0.701E-01    0.883E-01
RMM:   2    -0.413166504728E+03   -0.99382E-02   -0.13262E-01  4092   0.932E-02    0.641E-01
RMM:   3    -0.413164866418E+03    0.16383E-02   -0.76410E-03  4952   0.399E-02    0.152E-01
RMM:   4    -0.413196549257E+03   -0.31683E-01   -0.32471E-02  5166   0.150E-01    0.741E-01
RMM:   5    -0.413164341307E+03    0.32208E-01   -0.15577E-02  4822   0.124E-01    0.397E-02
RMM:   6    -0.413164533479E+03   -0.19217E-03   -0.24947E-03  5862   0.485E-02    0.226E-02
RMM:   7    -0.413164552121E+03   -0.18642E-04   -0.30566E-04  5949   0.153E-02    0.154E-02
RMM:   8    -0.413164557486E+03   -0.53645E-05   -0.55261E-05  4991   0.713E-03    0.876E-03
RMM:   9    -0.413164560278E+03   -0.27919E-05   -0.11928E-05  3813   0.387E-03    0.610E-03
RMM:  10    -0.413164565100E+03   -0.48221E-05   -0.19915E-06  2589   0.209E-03    0.388E-03
RMM:  11    -0.413164572105E+03   -0.70057E-05   -0.23383E-06  2634   0.220E-03    0.183E-03
RMM:  12    -0.413164576701E+03   -0.45956E-05   -0.11519E-06  2513   0.164E-03    0.652E-04
RMM:  13    -0.413164577289E+03   -0.58816E-06   -0.36331E-07  2080   0.994E-04
    5 T=    61. E= -.41286628E+03 F= -.41316458E+03 E0= -.41314210E+03  EK= 0.29830E+00 SP= 0.00E+00 SK= 0.00E+00
       N       E                     dE             d eps       ncg     rms          rms(c)
RMM:   1    -0.413157435115E+03    0.71416E-02   -0.10806E+01  4250   0.703E-01    0.905E-01
RMM:   2    -0.413166744846E+03   -0.93097E-02   -0.13028E-01  4099   0.983E-02    0.638E-01
RMM:   3    -0.413165351182E+03    0.13937E-02   -0.77612E-03  4794   0.410E-02    0.153E-01
RMM:   4    -0.413191000788E+03   -0.25650E-01   -0.25894E-02  5159   0.134E-01    0.669E-01
RMM:   5    -0.413164923593E+03    0.26077E-01   -0.12747E-02  4828   0.111E-01    0.385E-02
RMM:   6    -0.413165077499E+03   -0.15391E-03   -0.20626E-03  5817   0.437E-02    0.237E-02
RMM:   7    -0.413165084534E+03   -0.70348E-05   -0.27713E-04  5853   0.146E-02    0.156E-02
RMM:   8    -0.413165083364E+03    0.11702E-05   -0.43922E-05  4882   0.666E-03    0.769E-03
RMM:   9    -0.413165082296E+03    0.10679E-05   -0.93289E-06  3478   0.349E-03    0.552E-03
RMM:  10    -0.413165082975E+03   -0.67869E-06   -0.15278E-06  2554   0.191E-03
    6 T=    61. E= -.41286656E+03 F= -.41316508E+03 E0= -.41314262E+03  EK= 0.29852E+00 SP= 0.00E+00 SK= 0.00E+00
       N       E                     dE             d eps       ncg     rms          rms(c)
RMM:   1    -0.413157227905E+03    0.78544E-02   -0.10749E+01  4257   0.705E-01    0.900E-01
RMM:   2    -0.413166380877E+03   -0.91530E-02   -0.12938E-01  4219   0.974E-02    0.630E-01
RMM:   3    -0.413166829028E+03   -0.44815E-03   -0.91615E-03  5100   0.567E-02    0.237E-01
RMM:   4    -0.413203018013E+03   -0.36189E-01   -0.45423E-02  5136   0.179E-01    0.808E-01
RMM:   5    -0.413164662619E+03    0.38355E-01   -0.17134E-02  4777   0.134E-01    0.531E-02
RMM:   6    -0.413164796862E+03   -0.13424E-03   -0.28128E-03  5673   0.522E-02    0.232E-02
RMM:   7    -0.413164817481E+03   -0.20619E-04   -0.37496E-04  6021   0.160E-02    0.158E-02
RMM:   8    -0.413164817562E+03   -0.80137E-07   -0.56430E-05  5217   0.747E-03    0.763E-03
RMM:   9    -0.413164814478E+03    0.30834E-05   -0.10309E-05  3418   0.355E-03    0.363E-03
RMM:  10    -0.413164814408E+03    0.70249E-07   -0.24021E-06  2592   0.212E-03
    7 T=    61. E= -.41286630E+03 F= -.41316481E+03 E0= -.41314237E+03  EK= 0.29851E+00 SP= 0.00E+00 SK= 0.00E+00
       N       E                     dE             d eps       ncg     rms          rms(c)
RMM:   1    -0.413157379376E+03    0.74351E-02   -0.10746E+01  4261   0.711E-01    0.882E-01
RMM:   2    -0.413167342006E+03   -0.99626E-02   -0.13192E-01  4215   0.964E-02    0.639E-01
RMM:   3    -0.413167014799E+03    0.32721E-03   -0.86506E-03  5101   0.534E-02    0.218E-01
RMM:   4    -0.413209412584E+03   -0.42398E-01   -0.50184E-02  5146   0.187E-01    0.864E-01
RMM:   5    -0.413165190628E+03    0.44222E-01   -0.20213E-02  4796   0.144E-01    0.518E-02
RMM:   6    -0.413165376009E+03   -0.18538E-03   -0.32564E-03  5725   0.559E-02    0.226E-02
RMM:   7    -0.413165404081E+03   -0.28072E-04   -0.42081E-04  6021   0.170E-02    0.166E-02
RMM:   8    -0.413165409023E+03   -0.49415E-05   -0.63491E-05  5225   0.767E-03    0.860E-03
RMM:   9    -0.413165410390E+03   -0.13670E-05   -0.11977E-05  3574   0.378E-03    0.431E-03
RMM:  10    -0.413165414009E+03   -0.36196E-05   -0.27302E-06  2611   0.218E-03    0.283E-03
RMM:  11    -0.413165417674E+03   -0.36653E-05   -0.12174E-06  2524   0.165E-03    0.142E-03
RMM:  12    -0.413165420760E+03   -0.30853E-05   -0.89806E-07  2446   0.137E-03    0.339E-04
RMM:  13    -0.413165421940E+03   -0.11800E-05   -0.41321E-07  2007   0.992E-04    0.259E-04
RMM:  14    -0.413165422484E+03   -0.54461E-06   -0.22881E-07  1489   0.793E-04
    8 T=    61. E= -.41286660E+03 F= -.41316542E+03 E0= -.41314299E+03  EK= 0.29882E+00 SP= 0.00E+00 SK= 0.00E+00
       N       E                     dE             d eps       ncg     rms          rms(c)
RMM:   1    -0.413157843374E+03    0.75786E-02   -0.10807E+01  4279   0.716E-01    0.899E-01
RMM:   2    -0.413167356615E+03   -0.95132E-02   -0.13122E-01  4187   0.986E-02    0.640E-01
RMM:   3    -0.413165925755E+03    0.14309E-02   -0.78195E-03  4899   0.410E-02    0.156E-01
RMM:   4    -0.413197413221E+03   -0.31487E-01   -0.32348E-02  5158   0.150E-01    0.739E-01
RMM:   5    -0.413165358664E+03    0.32055E-01   -0.15600E-02  4813   0.123E-01    0.415E-02
RMM:   6    -0.413165539515E+03   -0.18085E-03   -0.24709E-03  5774   0.483E-02    0.240E-02
RMM:   7    -0.413165550784E+03   -0.11269E-04   -0.32695E-04  5882   0.156E-02    0.162E-02
RMM:   8    -0.413165551122E+03   -0.33767E-06   -0.48433E-05  4991   0.690E-03    0.808E-03
RMM:   9    -0.413165550178E+03    0.94438E-06   -0.10475E-05  3574   0.360E-03    0.549E-03
RMM:  10    -0.413165551197E+03   -0.10192E-05   -0.17766E-06  2562   0.196E-03    0.352E-03
RMM:  11    -0.413165552651E+03   -0.14537E-05   -0.15988E-06  2559   0.190E-03    0.151E-03
RMM:  12    -0.413165553507E+03   -0.85643E-06   -0.95875E-07  2479   0.150E-03
    9 T=    61. E= -.41286652E+03 F= -.41316555E+03 E0= -.41314314E+03  EK= 0.29903E+00 SP= 0.00E+00 SK= 0.00E+00
       N       E                     dE             d eps       ncg     rms          rms(c)
RMM:   1    -0.413158205516E+03    0.73471E-02   -0.10789E+01  4284   0.724E-01    0.908E-01
RMM:   2    -0.413167111035E+03   -0.89055E-02   -0.12960E-01  4227   0.974E-02    0.632E-01
RMM:   3    -0.413165870709E+03    0.12403E-02   -0.78659E-03  4819   0.394E-02    0.156E-01
RMM:   4    -0.413191854158E+03   -0.25983E-01   -0.26347E-02  5156   0.135E-01    0.673E-01
RMM:   5    -0.413165490730E+03    0.26363E-01   -0.12963E-02  4815   0.112E-01    0.390E-02
RMM:   6    -0.413165645915E+03   -0.15519E-03   -0.20764E-03  5819   0.437E-02    0.237E-02
RMM:   7    -0.413165651300E+03   -0.53844E-05   -0.27220E-04  5853   0.147E-02    0.154E-02
RMM:   8    -0.413165647511E+03    0.37885E-05   -0.47908E-05  4921   0.689E-03    0.819E-03
RMM:   9    -0.413165643460E+03    0.40516E-05   -0.98825E-06  3570   0.361E-03    0.588E-03
RMM:  10    -0.413165641772E+03    0.16875E-05   -0.15487E-06  2557   0.195E-03    0.378E-03
RMM:  11    -0.413165639304E+03    0.24683E-05   -0.17764E-06  2577   0.203E-03    0.169E-03
RMM:  12    -0.413165637079E+03    0.22253E-05   -0.98246E-07  2480   0.155E-03    0.636E-04
RMM:  13    -0.413165636889E+03    0.18952E-06   -0.31258E-07  2039   0.952E-04
   10 T=    61. E= -.41286633E+03 F= -.41316564E+03 E0= -.41314325E+03  EK= 0.29931E+00 SP= 0.00E+00 SK= 0.00E+00
       N       E                     dE             d eps       ncg     rms          rms(c)
RMM:   1    -0.413158350814E+03    0.72863E-02   -0.10743E+01  4284   0.721E-01    0.883E-01
RMM:   2    -0.413168293149E+03   -0.99423E-02   -0.13111E-01  4220   0.964E-02    0.636E-01
RMM:   3    -0.413166669391E+03    0.16238E-02   -0.74696E-03  4798   0.394E-02    0.149E-01
RMM:   4    -0.413192062277E+03   -0.25393E-01   -0.25938E-02  5155   0.134E-01    0.666E-01
RMM:   5    -0.413166229491E+03    0.25833E-01   -0.12724E-02  4814   0.111E-01    0.375E-02
RMM:   6    -0.413166380512E+03   -0.15102E-03   -0.19952E-03  5811   0.430E-02    0.226E-02
RMM:   7    -0.413166389121E+03   -0.86091E-05   -0.26224E-04  5840   0.143E-02    0.149E-02
RMM:   8    -0.413166389358E+03   -0.23692E-06   -0.45309E-05  4890   0.670E-03    0.769E-03
RMM:   9    -0.413166388537E+03    0.82136E-06   -0.95955E-06  3497   0.355E-03
   11 T=    61. E= -.41286651E+03 F= -.41316639E+03 E0= -.41314403E+03  EK= 0.29988E+00 SP= 0.00E+00 SK= 0.00E+00
       N       E                     dE             d eps       ncg     rms          rms(c)
RMM:   1    -0.413158438844E+03    0.79505E-02   -0.10826E+01  4295   0.731E-01    0.895E-01
RMM:   2    -0.413168178009E+03   -0.97392E-02   -0.13254E-01  4327   0.962E-02    0.644E-01
RMM:   3    -0.413173670871E+03   -0.54929E-02   -0.13633E-02  5157   0.855E-02    0.390E-01
RMM:   4    -0.413187304171E+03   -0.13633E-01   -0.38035E-02  5075   0.167E-01    0.604E-01
RMM:   5    -0.413166300906E+03    0.21003E-01   -0.77514E-03  4651   0.999E-02    0.543E-02
RMM:   6    -0.413166271276E+03    0.29630E-04   -0.14472E-03  5384   0.374E-02    0.221E-02
RMM:   7    -0.413166290860E+03   -0.19584E-04   -0.25000E-04  6010   0.150E-02    0.146E-02
RMM:   8    -0.413166292873E+03   -0.20131E-05   -0.44585E-05  5209   0.719E-03    0.679E-03
RMM:   9    -0.413166293350E+03   -0.47671E-06   -0.96354E-06  3578   0.392E-03
   12 T=    61. E= -.41286614E+03 F= -.41316629E+03 E0= -.41314396E+03  EK= 0.30016E+00 SP= 0.00E+00 SK= 0.00E+00
       N       E                     dE             d eps       ncg     rms          rms(c)
RMM:   1    -0.413161477690E+03    0.48152E-02   -0.10858E+01  4299   0.749E-01    0.912E-01
RMM:   2    -0.413168313955E+03   -0.68363E-02   -0.13452E-01  4239   0.974E-02    0.635E-01
RMM:   3    -0.413167213108E+03    0.11008E-02   -0.78493E-03  4952   0.382E-02    0.166E-01
RMM:   4    -0.413198330233E+03   -0.31117E-01   -0.31882E-02  5150   0.148E-01    0.735E-01
RMM:   5    -0.413166730781E+03    0.31599E-01   -0.15501E-02  4810   0.122E-01    0.410E-02
RMM:   6    -0.413166909742E+03   -0.17896E-03   -0.24240E-03  5861   0.476E-02    0.240E-02
RMM:   7    -0.413166917535E+03   -0.77938E-05   -0.29525E-04  5915   0.153E-02    0.156E-02
RMM:   8    -0.413166913929E+03    0.36067E-05   -0.56410E-05  4995   0.728E-03    0.905E-03
RMM:   9    -0.413166908411E+03    0.55180E-05   -0.12047E-05  3882   0.394E-03    0.632E-03
RMM:  10    -0.413166905875E+03    0.25353E-05   -0.18507E-06  2565   0.210E-03    0.398E-03
RMM:  11    -0.413166902280E+03    0.35958E-05   -0.23436E-06  2629   0.226E-03    0.180E-03
RMM:  12    -0.413166898932E+03    0.33471E-05   -0.10379E-06  2497   0.163E-03    0.632E-04
RMM:  13    -0.413166898452E+03    0.48066E-06   -0.34016E-07  2066   0.985E-04
   13 T=    61. E= -.41286629E+03 F= -.41316690E+03 E0= -.41314460E+03  EK= 0.30060E+00 SP= 0.00E+00 SK= 0.00E+00
       N       E                     dE             d eps       ncg     rms          rms(c)
RMM:   1    -0.413159623470E+03    0.72755E-02   -0.10758E+01  4295   0.732E-01    0.887E-01
RMM:   2    -0.413169239118E+03   -0.96156E-02   -0.13123E-01  4235   0.944E-02    0.634E-01
RMM:   3    -0.413167808993E+03    0.14301E-02   -0.75457E-03  4892   0.380E-02    0.153E-01
RMM:   4    -0.413195360148E+03   -0.27551E-01   -0.28246E-02  5144   0.140E-01    0.693E-01
RMM:   5    -0.413167350383E+03    0.28010E-01   -0.13780E-02  4809   0.115E-01    0.388E-02
RMM:   6    -0.413167511038E+03   -0.16066E-03   -0.21367E-03  5809   0.447E-02    0.232E-02
RMM:   7    -0.413167517163E+03   -0.61257E-05   -0.27879E-04  5840   0.148E-02    0.153E-02
RMM:   8    -0.413167515175E+03    0.19888E-05   -0.48096E-05  4933   0.688E-03    0.800E-03
RMM:   9    -0.413167512303E+03    0.28720E-05   -0.10220E-05  3579   0.364E-03    0.558E-03
RMM:  10    -0.413167511882E+03    0.42094E-06   -0.16078E-06  2557   0.193E-03
   14 T=    61. E= -.41286643E+03 F= -.41316751E+03 E0= -.41314524E+03  EK= 0.30108E+00 SP= 0.00E+00 SK= 0.00E+00
       N       E                     dE             d eps       ncg     rms          rms(c)
RMM:   1    -0.413160288071E+03    0.72242E-02   -0.10852E+01  4300   0.755E-01    0.891E-01
RMM:   2    -0.413169850369E+03   -0.95623E-02   -0.13613E-01  4277   0.100E-01    0.646E-01
RMM:   3    -0.413169644505E+03    0.20586E-03   -0.90084E-03  5091   0.566E-02    0.235E-01
RMM:   4    -0.413211228835E+03   -0.41584E-01   -0.51366E-02  5130   0.189E-01    0.860E-01
RMM:   5    -0.413167433888E+03    0.43795E-01   -0.19897E-02  4775   0.143E-01    0.532E-02
RMM:   6    -0.413167599258E+03   -0.16537E-03   -0.31651E-03  5697   0.552E-02    0.223E-02
RMM:   7    -0.413167625272E+03   -0.26014E-04   -0.41304E-04  5994   0.167E-02    0.161E-02
RMM:   8    -0.413167627930E+03   -0.26574E-05   -0.61306E-05  5236   0.764E-03    0.806E-03
RMM:   9    -0.413167626682E+03    0.12480E-05   -0.12009E-05  3542   0.374E-03    0.381E-03
RMM:  10    -0.413167628006E+03   -0.13239E-05   -0.27538E-06  2610   0.217E-03    0.256E-03
RMM:  11    -0.413167629128E+03   -0.11225E-05   -0.11476E-06  2510   0.161E-03    0.131E-03
RMM:  12    -0.413167629786E+03   -0.65767E-06   -0.75869E-07  2412   0.129E-03
   15 T=    61. E= -.41286619E+03 F= -.41316763E+03 E0= -.41314540E+03  EK= 0.30144E+00 SP= 0.00E+00 SK= 0.00E+00
       N       E                     dE             d eps       ncg     rms          rms(c)
RMM:   1    -0.413161235294E+03    0.63938E-02   -0.10877E+01  4301   0.744E-01    0.914E-01
RMM:   2    -0.413170307247E+03   -0.90720E-02   -0.13082E-01  4254   0.994E-02    0.638E-01
RMM:   3    -0.413169125913E+03    0.11813E-02   -0.81066E-03  4933   0.437E-02    0.167E-01
RMM:   4    -0.413204829090E+03   -0.35703E-01   -0.37180E-02  5145   0.160E-01    0.786E-01
RMM:   5    -0.413168438982E+03    0.36390E-01   -0.17725E-02  4802   0.131E-01    0.445E-02
RMM:   6    -0.413168639705E+03   -0.20072E-03   -0.28852E-03  5791   0.514E-02    0.258E-02
RMM:   7    -0.413168645334E+03   -0.56298E-05   -0.36448E-04  5865   0.166E-02    0.175E-02
RMM:   8    -0.413168639950E+03    0.53848E-05   -0.57693E-05  5042   0.748E-03    0.934E-03
RMM:   9    -0.413168633632E+03    0.63177E-05   -0.12362E-05  3767   0.390E-03    0.626E-03
RMM:  10    -0.413168629995E+03    0.36371E-05   -0.21190E-06  2585   0.211E-03    0.396E-03
RMM:  11    -0.413168625495E+03    0.44997E-05   -0.18124E-06  2565   0.205E-03    0.172E-03
RMM:  12    -0.413168621452E+03    0.40430E-05   -0.10788E-06  2496   0.165E-03    0.627E-04
RMM:  13    -0.413168620849E+03    0.60321E-06   -0.36125E-07  2162   0.104E-03
   16 T=    62. E= -.41286649E+03 F= -.41316862E+03 E0= -.41314642E+03  EK= 0.30213E+00 SP= 0.00E+00 SK= 0.00E+00
       N       E                     dE             d eps       ncg     rms          rms(c)
RMM:   1    -0.413161183881E+03    0.74376E-02   -0.10795E+01  4299   0.745E-01    0.894E-01
RMM:   2    -0.413170867767E+03   -0.96839E-02   -0.13144E-01  4271   0.100E-01    0.634E-01
RMM:   3    -0.413169363782E+03    0.15040E-02   -0.76924E-03  4895   0.434E-02    0.162E-01
RMM:   4    -0.413202524584E+03   -0.33161E-01   -0.34206E-02  5142   0.153E-01    0.757E-01
RMM:   5    -0.413168825254E+03    0.33699E-01   -0.16491E-02  4803   0.126E-01    0.423E-02
RMM:   6    -0.413169023770E+03   -0.19852E-03   -0.26989E-03  5805   0.493E-02    0.247E-02
RMM:   7    -0.413169032249E+03   -0.84784E-05   -0.33276E-04  5854   0.159E-02    0.167E-02
RMM:   8    -0.413169028570E+03    0.36784E-05   -0.55041E-05  5012   0.728E-03    0.900E-03
RMM:   9    -0.413169023532E+03    0.50387E-05   -0.11874E-05  3754   0.386E-03    0.612E-03
RMM:  10    -0.413169021185E+03    0.23462E-05   -0.19619E-06  2577   0.207E-03    0.390E-03
RMM:  11    -0.413169018001E+03    0.31843E-05   -0.19317E-06  2568   0.211E-03    0.169E-03
RMM:  12    -0.413169015267E+03    0.27344E-05   -0.10191E-06  2488   0.162E-03    0.626E-04
RMM:  13    -0.413169014907E+03    0.35986E-06   -0.34083E-07  2126   0.101E-03
   17 T=    62. E= -.41286632E+03 F= -.41316901E+03 E0= -.41314686E+03  EK= 0.30269E+00 SP= 0.00E+00 SK= 0.00E+00
       N       E                     dE             d eps       ncg     rms          rms(c)
RMM:   1    -0.413162111703E+03    0.69036E-02   -0.10876E+01  4299   0.776E-01    0.889E-01
RMM:   2    -0.413171721567E+03   -0.96099E-02   -0.13436E-01  4274   0.100E-01    0.646E-01
RMM:   3    -0.413169964704E+03    0.17569E-02   -0.77278E-03  4919   0.418E-02    0.157E-01
RMM:   4    -0.413203805818E+03   -0.33841E-01   -0.35172E-02  5143   0.155E-01    0.766E-01
RMM:   5    -0.413169321478E+03    0.34484E-01   -0.16943E-02  4801   0.128E-01    0.418E-02
RMM:   6    -0.413169517128E+03   -0.19565E-03   -0.26837E-03  5808   0.496E-02    0.240E-02
RMM:   7    -0.413169528863E+03   -0.11735E-04   -0.33326E-04  5855   0.159E-02    0.163E-02
RMM:   8    -0.413169528286E+03    0.57705E-06   -0.55170E-05  5015   0.724E-03    0.883E-03
RMM:   9    -0.413169525856E+03    0.24294E-05   -0.12165E-05  3774   0.388E-03    0.589E-03
RMM:  10    -0.413169526128E+03   -0.27185E-06   -0.20511E-06  2575   0.207E-03
   18 T=    62. E= -.41286618E+03 F= -.41316953E+03 E0= -.41314741E+03  EK= 0.30335E+00 SP= 0.00E+00 SK= 0.00E+00
       N       E                     dE             d eps       ncg     rms          rms(c)
RMM:   1    -0.413163135469E+03    0.63904E-02   -0.10920E+01  4306   0.759E-01    0.913E-01
RMM:   2    -0.413172277584E+03   -0.91421E-02   -0.13256E-01  4310   0.958E-02    0.642E-01
RMM:   3    -0.413173888716E+03   -0.16111E-02   -0.10294E-02  5115   0.648E-02    0.280E-01
RMM:   4    -0.413204102248E+03   -0.30214E-01   -0.44219E-02  5103   0.176E-01    0.757E-01
RMM:   5    -0.413170552149E+03    0.33550E-01   -0.14428E-02  4732   0.125E-01    0.526E-02
RMM:   6    -0.413170656192E+03   -0.10404E-03   -0.24090E-03  5633   0.481E-02    0.232E-02
RMM:   7    -0.413170671970E+03   -0.15779E-04   -0.33010E-04  6001   0.155E-02    0.156E-02
RMM:   8    -0.413170668724E+03    0.32460E-05   -0.54163E-05  5208   0.748E-03    0.749E-03
RMM:   9    -0.413170661907E+03    0.68169E-05   -0.96996E-06  3333   0.356E-03    0.331E-03
RMM:  10    -0.413170659325E+03    0.25826E-05   -0.21765E-06  2572   0.206E-03    0.223E-03
RMM:  11    -0.413170655405E+03    0.39203E-05   -0.11160E-06  2512   0.163E-03    0.119E-03
RMM:  12    -0.413170652106E+03    0.32988E-05   -0.59411E-07  2349   0.123E-03    0.415E-04
RMM:  13    -0.413170650376E+03    0.17300E-05   -0.29384E-07  1868   0.895E-04    0.233E-04
RMM:  14    -0.413170648803E+03    0.15723E-05   -0.18245E-07  1414   0.750E-04    0.151E-04
RMM:  15    -0.413170645686E+03    0.31175E-05   -0.20768E-07  1539   0.765E-04    0.108E-04
RMM:  16    -0.413170644347E+03    0.13390E-05   -0.10746E-07  1219   0.647E-04    0.835E-05
RMM:  17    -0.413170641492E+03    0.28546E-05   -0.12873E-07  1439   0.669E-04    0.535E-05
RMM:  18    -0.413170640238E+03    0.12540E-05   -0.61712E-08   972   0.559E-04    0.345E-05
RMM:  19    -0.413170639901E+03    0.33765E-06   -0.33150E-08   835   0.527E-04
   19 T=    62. E= -.41286645E+03 F= -.41317064E+03 E0= -.41314856E+03  EK= 0.30419E+00 SP= 0.00E+00 SK= 0.00E+00
       N       E                     dE             d eps       ncg     rms          rms(c)
RMM:   1    -0.413163345513E+03    0.72947E-02   -0.10863E+01  4298   0.758E-01    0.903E-01
RMM:   2    -0.413172740830E+03   -0.93953E-02   -0.13169E-01  4268   0.989E-02    0.635E-01
RMM:   3    -0.413171717269E+03    0.10236E-02   -0.79335E-03  4949   0.439E-02    0.174E-01
RMM:   4    -0.413210475243E+03   -0.38758E-01   -0.40926E-02  5145   0.168E-01    0.818E-01
RMM:   5    -0.413170921507E+03    0.39554E-01   -0.19358E-02  4795   0.137E-01    0.459E-02
RMM:   6    -0.413171124179E+03   -0.20267E-03   -0.30349E-03  5795   0.532E-02    0.262E-02
RMM:   7    -0.413171130677E+03   -0.64983E-05   -0.38405E-04  5857   0.169E-02    0.177E-02
RMM:   8    -0.413171125410E+03    0.52675E-05   -0.60443E-05  5114   0.758E-03    0.924E-03
RMM:   9    -0.413171118567E+03    0.68432E-05   -0.13390E-05  3871   0.401E-03    0.592E-03
RMM:  10    -0.413171114822E+03    0.37447E-05   -0.22642E-06  2585   0.213E-03    0.375E-03
RMM:  11    -0.413171110726E+03    0.40957E-05   -0.14666E-06  2524   0.189E-03    0.175E-03
RMM:  12    -0.413171106673E+03    0.40533E-05   -0.10057E-06  2489   0.160E-03    0.530E-04
RMM:  13    -0.413171105774E+03    0.89880E-06   -0.36772E-07  2183   0.105E-03
   20 T=    62. E= -.41286629E+03 F= -.41317111E+03 E0= -.41314907E+03  EK= 0.30482E+00 SP= 0.00E+00 SK= 0.00E+00
       N       E                     dE             d eps       ncg     rms          rms(c)
RMM:   1    -0.413164910194E+03    0.61965E-02   -0.10910E+01  4299   0.783E-01    0.889E-01
RMM:   2    -0.413174397354E+03   -0.94872E-02   -0.13576E-01  4274   0.101E-01    0.646E-01
RMM:   3    -0.413172573786E+03    0.18236E-02   -0.77236E-03  4929   0.413E-02    0.157E-01
RMM:   4    -0.413205678681E+03   -0.33105E-01   -0.34350E-02  5145   0.154E-01    0.757E-01
RMM:   5    -0.413171999767E+03    0.33679E-01   -0.16638E-02  4804   0.126E-01    0.412E-02
RMM:   6    -0.413172184319E+03   -0.18455E-03   -0.26118E-03  5805   0.489E-02    0.238E-02
RMM:   7    -0.413172194507E+03   -0.10188E-04   -0.32063E-04  5868   0.157E-02    0.159E-02
RMM:   8    -0.413172193355E+03    0.11522E-05   -0.57224E-05  5016   0.734E-03    0.904E-03
RMM:   9    -0.413172189099E+03    0.42555E-05   -0.12483E-05  3860   0.397E-03    0.602E-03
RMM:  10    -0.413172188272E+03    0.82691E-06   -0.20390E-06  2575   0.209E-03
   21 T=    62. E= -.41286647E+03 F= -.41317219E+03 E0= -.41315020E+03  EK= 0.30572E+00 SP= 0.00E+00 SK= 0.00E+00
       N       E                     dE             d eps       ncg     rms          rms(c)
RMM:   1    -0.413165704729E+03    0.64844E-02   -0.10972E+01  4301   0.773E-01    0.910E-01
RMM:   2    -0.413175121774E+03   -0.94170E-02   -0.13398E-01  4312   0.101E-01    0.646E-01
RMM:   3    -0.413176177991E+03   -0.10562E-02   -0.10049E-02  5092   0.638E-02    0.270E-01
RMM:   4    -0.413209741192E+03   -0.33563E-01   -0.46826E-02  5108   0.181E-01    0.789E-01
RMM:   5    -0.413173126370E+03    0.36615E-01   -0.16052E-02  4742   0.131E-01    0.524E-02
RMM:   6    -0.413173246461E+03   -0.12009E-03   -0.26602E-03  5668   0.503E-02    0.232E-02
RMM:   7    -0.413173260597E+03   -0.14136E-04   -0.35140E-04  6004   0.159E-02    0.160E-02
RMM:   8    -0.413173256744E+03    0.38528E-05   -0.56081E-05  5182   0.752E-03    0.771E-03
RMM:   9    -0.413173249748E+03    0.69961E-05   -0.10696E-05  3442   0.366E-03    0.347E-03
RMM:  10    -0.413173247056E+03    0.26920E-05   -0.23198E-06  2581   0.210E-03    0.234E-03
RMM:  11    -0.413173243257E+03    0.37993E-05   -0.10346E-06  2503   0.159E-03    0.121E-03
RMM:  12    -0.413173239657E+03    0.36000E-05   -0.59237E-07  2359   0.123E-03    0.364E-04
RMM:  13    -0.413173237842E+03    0.18146E-05   -0.29101E-07  1859   0.889E-04    0.214E-04
RMM:  14    -0.413173235786E+03    0.20556E-05   -0.18840E-07  1431   0.757E-04    0.122E-04
RMM:  15    -0.413173233075E+03    0.27116E-05   -0.16562E-07  1430   0.732E-04    0.900E-05
RMM:  16    -0.413173231620E+03    0.14544E-05   -0.10176E-07  1241   0.652E-04    0.757E-05
RMM:  17    -0.413173228934E+03    0.26862E-05   -0.10492E-07  1320   0.651E-04    0.426E-05
RMM:  18    -0.413173227704E+03    0.12305E-05   -0.56700E-08  1006   0.570E-04    0.270E-05
RMM:  19    -0.413173227217E+03    0.48707E-06   -0.27946E-08   802   0.533E-04
   22 T=    62. E= -.41286656E+03 F= -.41317323E+03 E0= -.41315128E+03  EK= 0.30667E+00 SP= 0.00E+00 SK= 0.00E+00
       N       E                     dE             d eps       ncg     rms          rms(c)
RMM:   1    -0.413168427804E+03    0.47999E-02   -0.10975E+01  4296   0.795E-01    0.913E-01
RMM:   2    -0.413175659282E+03   -0.72315E-02   -0.13732E-01  4276   0.108E-01    0.639E-01
RMM:   3    -0.413174350127E+03    0.13092E-02   -0.79715E-03  4869   0.452E-02    0.172E-01
RMM:   4    -0.413209608012E+03   -0.35258E-01   -0.36541E-02  5150   0.159E-01    0.780E-01
RMM:   5    -0.413173739078E+03    0.35869E-01   -0.17650E-02  4793   0.130E-01    0.440E-02
RMM:   6    -0.413173936482E+03   -0.19740E-03   -0.28461E-03  5801   0.509E-02    0.262E-02
RMM:   7    -0.413173941905E+03   -0.54234E-05   -0.34730E-04  5815   0.165E-02    0.172E-02
RMM:   8    -0.413173935474E+03    0.64309E-05   -0.60446E-05  5068   0.764E-03    0.951E-03
RMM:   9    -0.413173927274E+03    0.82002E-05   -0.13008E-05  3897   0.406E-03    0.630E-03
RMM:  10    -0.413173922328E+03    0.49463E-05   -0.21224E-06  2587   0.214E-03    0.401E-03
RMM:  11    -0.413173916055E+03    0.62725E-05   -0.18150E-06  2551   0.210E-03    0.177E-03
RMM:  12    -0.413173910632E+03    0.54234E-05   -0.10050E-06  2477   0.166E-03    0.615E-04
RMM:  13    -0.413173909794E+03    0.83776E-06   -0.35867E-07  2169   0.105E-03
   23 T=    63. E= -.41286631E+03 F= -.41317391E+03 E0= -.41315201E+03  EK= 0.30760E+00 SP= 0.00E+00 SK= 0.00E+00
       N       E                     dE             d eps       ncg     rms          rms(c)
RMM:   1    -0.413167470004E+03    0.64406E-02   -0.10952E+01  4298   0.787E-01    0.892E-01
RMM:   2    -0.413177738046E+03   -0.10268E-01   -0.13571E-01  4278   0.105E-01    0.646E-01
RMM:   3    -0.413175779564E+03    0.19585E-02   -0.77285E-03  4818   0.436E-02    0.157E-01
RMM:   4    -0.413206383649E+03   -0.30604E-01   -0.31511E-02  5151   0.147E-01    0.728E-01
RMM:   5    -0.413175295634E+03    0.31088E-01   -0.15416E-02  4800   0.121E-01    0.402E-02
RMM:   6    -0.413175465270E+03   -0.16964E-03   -0.24685E-03  5813   0.470E-02    0.237E-02
RMM:   7    -0.413175473527E+03   -0.82565E-05   -0.28711E-04  5844   0.151E-02    0.150E-02
RMM:   8    -0.413175471177E+03    0.23499E-05   -0.56594E-05  5005   0.728E-03    0.910E-03
RMM:   9    -0.413175465393E+03    0.57839E-05   -0.12668E-05  3950   0.403E-03    0.616E-03
RMM:  10    -0.413175463276E+03    0.21170E-05   -0.19098E-06  2563   0.212E-03    0.398E-03
RMM:  11    -0.413175460201E+03    0.30743E-05   -0.20909E-06  2587   0.220E-03    0.178E-03
RMM:  12    -0.413175457494E+03    0.27072E-05   -0.94851E-07  2478   0.162E-03    0.613E-04
RMM:  13    -0.413175457075E+03    0.41889E-06   -0.32861E-07  2109   0.999E-04
   24 T=    63. E= -.41286652E+03 F= -.41317546E+03 E0= -.41315361E+03  EK= 0.30894E+00 SP= 0.00E+00 SK= 0.00E+00
       N       E                     dE             d eps       ncg     rms          rms(c)
RMM:   1    -0.413168851866E+03    0.66056E-02   -0.11056E+01  4299   0.801E-01    0.908E-01
RMM:   2    -0.413178673628E+03   -0.98218E-02   -0.13604E-01  4278   0.106E-01    0.651E-01
RMM:   3    -0.413176817446E+03    0.18562E-02   -0.78810E-03  4812   0.434E-02    0.156E-01
RMM:   4    -0.413205115593E+03   -0.28298E-01   -0.28999E-02  5149   0.142E-01    0.701E-01
RMM:   5    -0.413176320137E+03    0.28795E-01   -0.14223E-02  4802   0.117E-01    0.396E-02
RMM:   6    -0.413176474599E+03   -0.15446E-03   -0.22904E-03  5825   0.453E-02    0.235E-02
RMM:   7    -0.413176480270E+03   -0.56712E-05   -0.26115E-04  5830   0.146E-02    0.143E-02
RMM:   8    -0.413176477143E+03    0.31274E-05   -0.54479E-05  4996   0.714E-03    0.897E-03
RMM:   9    -0.413176470803E+03    0.63401E-05   -0.12355E-05  3954   0.400E-03    0.617E-03
RMM:  10    -0.413176467891E+03    0.29114E-05   -0.17785E-06  2554   0.210E-03    0.400E-03
RMM:  11    -0.413176463682E+03    0.42095E-05   -0.19753E-06  2575   0.215E-03    0.184E-03
RMM:  12    -0.413176459750E+03    0.39317E-05   -0.95334E-07  2477   0.163E-03    0.610E-04
RMM:  13    -0.413176459133E+03    0.61705E-06   -0.33212E-07  2125   0.100E-03
   25 T=    63. E= -.41286630E+03 F= -.41317646E+03 E0= -.41315466E+03  EK= 0.31016E+00 SP= 0.00E+00 SK= 0.00E+00
       N       E                     dE             d eps       ncg     rms          rms(c)
RMM:   1    -0.413171489033E+03    0.49707E-02   -0.11090E+01  4298   0.820E-01    0.923E-01
RMM:   2    -0.413179352192E+03   -0.78632E-02   -0.13544E-01  4274   0.105E-01    0.644E-01
RMM:   3    -0.413178015158E+03    0.13370E-02   -0.80458E-03  4771   0.427E-02    0.160E-01
RMM:   4    -0.413202950548E+03   -0.24935E-01   -0.25375E-02  5151   0.133E-01    0.659E-01
RMM:   5    -0.413177655665E+03    0.25295E-01   -0.12544E-02  4804   0.109E-01    0.392E-02
RMM:   6    -0.413177781954E+03   -0.12629E-03   -0.19998E-03  5822   0.424E-02    0.233E-02
RMM:   7    -0.413177780549E+03    0.14049E-05   -0.21490E-04  5739   0.136E-02    0.123E-02
RMM:   8    -0.413177774491E+03    0.60576E-05   -0.43942E-05  4916   0.646E-03    0.841E-03
RMM:   9    -0.413177767248E+03    0.72434E-05   -0.10937E-05  3818   0.370E-03    0.612E-03
RMM:  10    -0.413177762474E+03    0.47743E-05   -0.16104E-06  2549   0.208E-03    0.396E-03
RMM:  11    -0.413177754777E+03    0.76965E-05   -0.18245E-06  2553   0.210E-03    0.184E-03
RMM:  12    -0.413177746748E+03    0.80297E-05   -0.94609E-07  2472   0.164E-03    0.661E-04
RMM:  13    -0.413177745775E+03    0.97288E-06   -0.30355E-07  2106   0.983E-04
   26 T=    63. E= -.41286625E+03 F= -.41317775E+03 E0= -.41315600E+03  EK= 0.31150E+00 SP= 0.00E+00 SK= 0.00E+00
       N       E                     dE             d eps       ncg     rms          rms(c)
RMM:   1    -0.413171483783E+03    0.62630E-02   -0.11038E+01  4297   0.797E-01    0.899E-01
RMM:   2    -0.413181420063E+03   -0.99363E-02   -0.13637E-01  4275   0.104E-01    0.646E-01
RMM:   3    -0.413179801781E+03    0.16183E-02   -0.77341E-03  4714   0.425E-02    0.153E-01
RMM:   4    -0.413201368553E+03   -0.21567E-01   -0.21954E-02  5152   0.124E-01    0.614E-01
RMM:   5    -0.413179493311E+03    0.21875E-01   -0.10943E-02  4814   0.102E-01    0.363E-02
RMM:   6    -0.413179600851E+03   -0.10754E-03   -0.17201E-03  5826   0.390E-02    0.217E-02
RMM:   7    -0.413179601822E+03   -0.97064E-06   -0.18846E-04  5716   0.127E-02    0.114E-02
RMM:   8    -0.413179598302E+03    0.35196E-05   -0.39985E-05  4870   0.622E-03    0.779E-03
RMM:   9    -0.413179592883E+03    0.54195E-05   -0.97991E-06  3719   0.356E-03    0.570E-03
RMM:  10    -0.413179590074E+03    0.28085E-05   -0.14301E-06  2538   0.199E-03    0.371E-03
RMM:  11    -0.413179585056E+03    0.50182E-05   -0.17957E-06  2552   0.208E-03    0.172E-03
RMM:  12    -0.413179580069E+03    0.49868E-05   -0.85729E-07  2456   0.155E-03    0.663E-04
RMM:  13    -0.413179579604E+03    0.46512E-06   -0.26958E-07  1998   0.923E-04
   27 T=    64. E= -.41286650E+03 F= -.41317958E+03 E0= -.41315788E+03  EK= 0.31308E+00 SP= 0.00E+00 SK= 0.00E+00
       N       E                     dE             d eps       ncg     rms          rms(c)
RMM:   1    -0.413173851391E+03    0.57287E-02   -0.11172E+01  4298   0.835E-01    0.907E-01
RMM:   2    -0.413182778461E+03   -0.89271E-02   -0.14047E-01  4271   0.109E-01    0.657E-01
RMM:   3    -0.413180901440E+03    0.18770E-02   -0.79388E-03  4646   0.437E-02    0.150E-01
RMM:   4    -0.413198138541E+03   -0.17237E-01   -0.17594E-02  5145   0.111E-01    0.550E-01
RMM:   5    -0.413180652760E+03    0.17486E-01   -0.87387E-03  4814   0.907E-02    0.340E-02
RMM:   6    -0.413180728631E+03   -0.75871E-04   -0.13780E-03  5828   0.347E-02    0.203E-02
RMM:   7    -0.413180729501E+03   -0.86980E-06   -0.14770E-04  5574   0.114E-02    0.955E-03
RMM:   8    -0.413180723818E+03    0.56831E-05   -0.25095E-05  4467   0.505E-03    0.612E-03
RMM:   9    -0.413180722427E+03    0.13904E-05   -0.58328E-06  3066   0.283E-03    0.498E-03
RMM:  10    -0.413180720013E+03    0.24140E-05   -0.10708E-06  2514   0.174E-03    0.335E-03
RMM:  11    -0.413180715226E+03    0.47877E-05   -0.16098E-06  2536   0.200E-03    0.161E-03
RMM:  12    -0.413180712534E+03    0.26918E-05   -0.68621E-07  2404   0.139E-03    0.772E-04
RMM:  13    -0.413180711920E+03    0.61364E-06   -0.21029E-07  1833   0.834E-04
   28 T=    64. E= -.41286621E+03 F= -.41318071E+03 E0= -.41315906E+03  EK= 0.31451E+00 SP= 0.00E+00 SK= 0.00E+00
       N       E                     dE             d eps       ncg     rms          rms(c)
RMM:   1    -0.413181774812E+03   -0.10623E-02   -0.11281E+01  4294   0.864E-01    0.930E-01
RMM:   2    -0.413184475458E+03   -0.27006E-02   -0.14690E-01  4270   0.112E-01    0.651E-01
RMM:   3    -0.413182867625E+03    0.16078E-02   -0.81227E-03  4438   0.435E-02    0.164E-01
RMM:   4    -0.413190081646E+03   -0.72140E-02   -0.77915E-03  5166   0.742E-02    0.358E-01
RMM:   5    -0.413182843683E+03    0.72380E-02   -0.36590E-03  4830   0.586E-02    0.313E-02
RMM:   6    -0.413182861442E+03   -0.17758E-04   -0.62151E-04  5829   0.235E-02    0.203E-02
RMM:   7    -0.413182854489E+03    0.69528E-05   -0.14845E-04  5415   0.120E-02    0.120E-02
RMM:   8    -0.413182841137E+03    0.13352E-04   -0.15791E-05  4071   0.496E-03    0.483E-03
RMM:   9    -0.413182836828E+03    0.43089E-05   -0.31139E-06  2776   0.238E-03    0.361E-03
RMM:  10    -0.413182831098E+03    0.57299E-05   -0.10116E-06  2480   0.170E-03    0.205E-03
RMM:  11    -0.413182823830E+03    0.72678E-05   -0.68856E-07  2448   0.141E-03    0.885E-04
RMM:  12    -0.413182818605E+03    0.52256E-05   -0.33549E-07  2100   0.993E-04    0.340E-04
RMM:  13    -0.413182816465E+03    0.21390E-05   -0.16179E-07  1443   0.734E-04    0.197E-04
RMM:  14    -0.413182813515E+03    0.29505E-05   -0.10572E-07  1202   0.673E-04    0.124E-04
RMM:  15    -0.413182808424E+03    0.50906E-05   -0.11125E-07  1409   0.694E-04    0.104E-04
RMM:  16    -0.413182807362E+03    0.10619E-05   -0.50475E-08   978   0.583E-04    0.685E-05
RMM:  17    -0.413182802195E+03    0.51678E-05   -0.92269E-08  1374   0.656E-04    0.449E-05
RMM:  18    -0.413182801796E+03    0.39912E-06   -0.28032E-08   785   0.523E-04
   29 T=    64. E= -.41286652E+03 F= -.41318280E+03 E0= -.41316120E+03  EK= 0.31629E+00 SP= 0.00E+00 SK= 0.00E+00
       N       E                     dE             d eps       ncg     rms          rms(c)
RMM:   1    -0.413178975798E+03    0.38264E-02   -0.11191E+01  4292   0.845E-01    0.909E-01
RMM:   2    -0.413186684822E+03   -0.77090E-02   -0.13841E-01  4267   0.111E-01    0.649E-01
RMM:   3    -0.413184731154E+03    0.19537E-02   -0.79889E-03  4498   0.455E-02    0.150E-01
RMM:   4    -0.413195267663E+03   -0.10537E-01   -0.10936E-02  5157   0.890E-02    0.432E-01
RMM:   5    -0.413184629313E+03    0.10638E-01   -0.53342E-03  4822   0.709E-02    0.320E-02
RMM:   6    -0.413184662308E+03   -0.32995E-04   -0.86562E-04  5842   0.276E-02    0.206E-02
RMM:   7    -0.413184662921E+03   -0.61219E-06   -0.16087E-04  5516   0.122E-02    0.127E-02
RMM:   8    -0.413184649942E+03    0.12978E-04   -0.24159E-05  4477   0.564E-03    0.536E-03
RMM:   9    -0.413184647228E+03    0.27143E-05   -0.46184E-06  2965   0.275E-03    0.422E-03
RMM:  10    -0.413184643652E+03    0.35757E-05   -0.93067E-07  2492   0.170E-03    0.256E-03
RMM:  11    -0.413184638947E+03    0.47049E-05   -0.71672E-07  2464   0.142E-03    0.123E-03
RMM:  12    -0.413184634736E+03    0.42111E-05   -0.44685E-07  2243   0.110E-03    0.497E-04
RMM:  13    -0.413184633442E+03    0.12941E-05   -0.17405E-07  1599   0.764E-04    0.237E-04
RMM:  14    -0.413184631956E+03    0.14861E-05   -0.95741E-08  1149   0.652E-04    0.145E-04
RMM:  15    -0.413184628368E+03    0.35882E-05   -0.96592E-08  1254   0.671E-04    0.123E-04
RMM:  16    -0.413184627964E+03    0.40383E-06   -0.39561E-08   862   0.582E-04
   30 T=    65. E= -.41286646E+03 F= -.41318463E+03 E0= -.41316308E+03  EK= 0.31817E+00 SP= 0.00E+00 SK= 0.00E+00
       N       E                     dE             d eps       ncg     rms          rms(c)
RMM:   1    -0.413188124722E+03   -0.34964E-02   -0.11397E+01  4292   0.912E-01    0.909E-01
RMM:   2    -0.413189076116E+03   -0.95139E-03   -0.15410E-01  4280   0.126E-01    0.664E-01
RMM:   3    -0.413186287182E+03    0.27889E-02   -0.78035E-03  4259   0.455E-02    0.159E-01
RMM:   4    -0.413187361319E+03   -0.10741E-02   -0.21486E-03  5069   0.378E-02    0.138E-01
RMM:   5    -0.413186305952E+03    0.10554E-02   -0.52664E-04  4768   0.233E-02    0.278E-02
RMM:   6    -0.413186302055E+03    0.38970E-05   -0.16225E-04  5528   0.132E-02    0.205E-02
RMM:   7    -0.413186292898E+03    0.91573E-05   -0.10343E-04  4889   0.951E-03    0.926E-03
RMM:   8    -0.413186289304E+03    0.35931E-05   -0.66831E-06  3251   0.355E-03    0.423E-03
RMM:   9    -0.413186288555E+03    0.74964E-06   -0.11641E-06  2465   0.168E-03
   31 T=    65. E= -.41286612E+03 F= -.41318629E+03 E0= -.41316479E+03  EK= 0.32017E+00 SP= 0.00E+00 SK= 0.00E+00
       N       E                     dE             d eps       ncg     rms          rms(c)
RMM:   1    -0.413181520328E+03    0.47690E-02   -0.11386E+01  4291   0.859E-01    0.936E-01
RMM:   2    -0.413190835098E+03   -0.93148E-02   -0.14258E-01  4282   0.124E-01    0.658E-01
RMM:   3    -0.413188999395E+03    0.18357E-02   -0.85339E-03  4523   0.521E-02    0.158E-01
RMM:   4    -0.413202471095E+03   -0.13472E-01   -0.13647E-02  5163   0.100E-01    0.488E-01
RMM:   5    -0.413188959711E+03    0.13511E-01   -0.68156E-03  4809   0.809E-02    0.357E-02
RMM:   6    -0.413188941016E+03    0.18695E-04   -0.10944E-03  5801   0.328E-02    0.239E-02
RMM:   7    -0.413188938065E+03    0.29502E-05   -0.19914E-04  5565   0.136E-02    0.134E-02
RMM:   8    -0.413188925806E+03    0.12259E-04   -0.30593E-05  4719   0.615E-03    0.607E-03
RMM:   9    -0.413188921814E+03    0.39917E-05   -0.54828E-06  3067   0.297E-03    0.413E-03
RMM:  10    -0.413188915719E+03    0.60951E-05   -0.10142E-06  2509   0.175E-03    0.240E-03
RMM:  11    -0.413188908373E+03    0.73463E-05   -0.79254E-07  2485   0.145E-03    0.118E-03
RMM:  12    -0.413188901212E+03    0.71610E-05   -0.53897E-07  2299   0.118E-03    0.536E-04
RMM:  13    -0.413188898393E+03    0.28192E-05   -0.21785E-07  1697   0.821E-04    0.301E-04
RMM:  14    -0.413188896208E+03    0.21848E-05   -0.11514E-07  1205   0.676E-04    0.187E-04
RMM:  15    -0.413188890677E+03    0.55312E-05   -0.11030E-07  1306   0.695E-04    0.114E-04
RMM:  16    -0.413188888607E+03    0.20702E-05   -0.62055E-08  1039   0.613E-04    0.985E-05
RMM:  17    -0.413188885459E+03    0.31480E-05   -0.58502E-08  1149   0.609E-04    0.832E-05
RMM:  18    -0.413188882560E+03    0.28987E-05   -0.47164E-08  1077   0.577E-04    0.463E-05
RMM:  19    -0.413188881955E+03    0.60540E-06   -0.20912E-08   743   0.517E-04
   32 T=    66. E= -.41286637E+03 F= -.41318888E+03 E0= -.41316743E+03  EK= 0.32251E+00 SP= 0.00E+00 SK= 0.00E+00
       N       E                     dE             d eps       ncg     rms          rms(c)
RMM:   1    -0.413183376791E+03    0.55058E-02   -0.11362E+01  4281   0.880E-01    0.923E-01
RMM:   2    -0.413192924904E+03   -0.95481E-02   -0.14448E-01  4266   0.129E-01    0.655E-01
RMM:   3    -0.413190788588E+03    0.21363E-02   -0.81224E-03  4399   0.451E-02    0.157E-01
RMM:   4    -0.413196165003E+03   -0.53764E-02   -0.59224E-03  5147   0.671E-02    0.309E-01
RMM:   5    -0.413190838738E+03    0.53263E-02   -0.26501E-03  4807   0.510E-02    0.315E-02
RMM:   6    -0.413190824807E+03    0.13931E-04   -0.48965E-04  5740   0.223E-02    0.224E-02
RMM:   7    -0.413190815470E+03    0.93368E-05   -0.14354E-04  5277   0.116E-02    0.107E-02
RMM:   8    -0.413190806519E+03    0.89509E-05   -0.15737E-05  4169   0.482E-03    0.499E-03
RMM:   9    -0.413190804026E+03    0.24934E-05   -0.20826E-06  2649   0.213E-03    0.307E-03
RMM:  10    -0.413190798527E+03    0.54988E-05   -0.82404E-07  2471   0.150E-03    0.160E-03
RMM:  11    -0.413190792573E+03    0.59544E-05   -0.53199E-07  2361   0.119E-03    0.731E-04
RMM:  12    -0.413190788149E+03    0.44234E-05   -0.27763E-07  1917   0.895E-04    0.332E-04
RMM:  13    -0.413190785803E+03    0.23466E-05   -0.13739E-07  1257   0.699E-04    0.176E-04
RMM:  14    -0.413190783162E+03    0.26403E-05   -0.87796E-08  1066   0.647E-04    0.114E-04
RMM:  15    -0.413190778888E+03    0.42744E-05   -0.84349E-08  1180   0.659E-04    0.629E-05
RMM:  16    -0.413190777382E+03    0.15063E-05   -0.49798E-08   993   0.598E-04    0.596E-05
RMM:  17    -0.413190774927E+03    0.24550E-05   -0.46416E-08  1064   0.593E-04    0.347E-05
RMM:  18    -0.413190773096E+03    0.18311E-05   -0.35186E-08   969   0.558E-04    0.191E-05
RMM:  19    -0.413190772864E+03    0.23147E-06   -0.14382E-08   678   0.508E-04
   33 T=    66. E= -.41286609E+03 F= -.41319077E+03 E0= -.41316937E+03  EK= 0.32468E+00 SP= 0.00E+00 SK= 0.00E+00
       N       E                     dE             d eps       ncg     rms          rms(c)
RMM:   1    -0.413190077136E+03    0.69596E-03   -0.11515E+01  4295   0.944E-01    0.915E-01
RMM:   2    -0.413195436745E+03   -0.53596E-02   -0.15408E-01  4271   0.136E-01    0.669E-01
RMM:   3    -0.413193426459E+03    0.20103E-02   -0.80665E-03  4354   0.545E-02    0.158E-01
RMM:   4    -0.413197452286E+03   -0.40258E-02   -0.47959E-03  5147   0.610E-02    0.268E-01
RMM:   5    -0.413193438805E+03    0.40135E-02   -0.19692E-03  4802   0.443E-02    0.301E-02
RMM:   6    -0.413193426439E+03    0.12367E-04   -0.37132E-04  5720   0.197E-02    0.217E-02
RMM:   7    -0.413193421079E+03    0.53597E-05   -0.13140E-04  5162   0.109E-02    0.100E-02
RMM:   8    -0.413193414543E+03    0.65359E-05   -0.12106E-05  3886   0.438E-03    0.470E-03
RMM:   9    -0.413193413293E+03    0.12505E-05   -0.16335E-06  2573   0.197E-03    0.277E-03
RMM:  10    -0.413193409962E+03    0.33306E-05   -0.85551E-07  2462   0.146E-03    0.138E-03
RMM:  11    -0.413193406578E+03    0.33839E-05   -0.50527E-07  2245   0.112E-03    0.626E-04
RMM:  12    -0.413193404190E+03    0.23879E-05   -0.25397E-07  1724   0.839E-04    0.274E-04
RMM:  13    -0.413193402703E+03    0.14875E-05   -0.13579E-07  1163   0.682E-04    0.153E-04
RMM:  14    -0.413193400833E+03    0.18695E-05   -0.98866E-08  1104   0.651E-04    0.111E-04
RMM:  15    -0.413193398077E+03    0.27557E-05   -0.96886E-08  1196   0.652E-04    0.599E-05
RMM:  16    -0.413193397251E+03    0.82624E-06   -0.46020E-08   888   0.578E-04
   34 T=    67. E= -.41286618E+03 F= -.41319340E+03 E0= -.41317204E+03  EK= 0.32721E+00 SP= 0.00E+00 SK= 0.00E+00
       N       E                     dE             d eps       ncg     rms          rms(c)
RMM:   1    -0.413188828531E+03    0.45695E-02   -0.11584E+01  4302   0.918E-01    0.940E-01
RMM:   2    -0.413198348932E+03   -0.95204E-02   -0.14887E-01  4267   0.133E-01    0.668E-01
RMM:   3    -0.413196232041E+03    0.21169E-02   -0.83259E-03  4321   0.492E-02    0.158E-01
RMM:   4    -0.413197918146E+03   -0.16861E-02   -0.26157E-03  5140   0.428E-02    0.175E-01
RMM:   5    -0.413196237821E+03    0.16803E-02   -0.84868E-04  4791   0.294E-02    0.307E-02
RMM:   6    -0.413196227139E+03    0.10682E-04   -0.22550E-04  5599   0.155E-02    0.228E-02
RMM:   7    -0.413196210674E+03    0.16464E-04   -0.12380E-04  4939   0.104E-02    0.104E-02
RMM:   8    -0.413196206217E+03    0.44572E-05   -0.79682E-06  3258   0.358E-03    0.438E-03
RMM:   9    -0.413196204201E+03    0.20161E-05   -0.13607E-06  2471   0.176E-03    0.238E-03
RMM:  10    -0.413196196089E+03    0.81118E-05   -0.83244E-07  2434   0.144E-03    0.112E-03
RMM:  11    -0.413196193217E+03    0.28729E-05   -0.29234E-07  1964   0.919E-04    0.605E-04
RMM:  12    -0.413196188056E+03    0.51600E-05   -0.20595E-07  1571   0.795E-04    0.230E-04
RMM:  13    -0.413196184039E+03    0.40178E-05   -0.11253E-07  1166   0.673E-04    0.112E-04
RMM:  14    -0.413196180093E+03    0.39455E-05   -0.87376E-08  1139   0.648E-04    0.102E-04
RMM:  15    -0.413196174761E+03    0.53322E-05   -0.88410E-08  1338   0.654E-04    0.718E-05
RMM:  16    -0.413196172826E+03    0.19353E-05   -0.41981E-08   918   0.554E-04    0.466E-05
RMM:  17    -0.413196171342E+03    0.14842E-05   -0.26434E-08   777   0.527E-04    0.227E-05
RMM:  18    -0.413196170675E+03    0.66667E-06   -0.17429E-08   680   0.511E-04
   35 T=    67. E= -.41286637E+03 F= -.41319617E+03 E0= -.41317486E+03  EK= 0.32980E+00 SP= 0.00E+00 SK= 0.00E+00
       N       E                     dE             d eps       ncg     rms          rms(c)
RMM:   1    -0.413205460933E+03   -0.92896E-02   -0.11737E+01  4299   0.102E+00    0.940E-01
RMM:   2    -0.413200211060E+03    0.52499E-02   -0.16074E-01  4250   0.134E-01    0.663E-01
RMM:   3    -0.413198492415E+03    0.17186E-02   -0.83084E-03  4703   0.508E-02    0.186E-01
RMM:   4    -0.413225590445E+03   -0.27098E-01   -0.27356E-02  5169   0.139E-01    0.687E-01
RMM:   5    -0.413198250088E+03    0.27340E-01   -0.13816E-02  4804   0.115E-01    0.419E-02
RMM:   6    -0.413198280976E+03   -0.30889E-04   -0.22376E-03  5855   0.445E-02    0.255E-02
RMM:   7    -0.413198287830E+03   -0.68537E-05   -0.26644E-04  5747   0.149E-02    0.145E-02
RMM:   8    -0.413198277704E+03    0.10126E-04   -0.51124E-05  4976   0.726E-03    0.882E-03
RMM:   9    -0.413198273345E+03    0.43591E-05   -0.15037E-05  4248   0.442E-03    0.611E-03
RMM:  10    -0.413198266581E+03    0.67643E-05   -0.20029E-06  2580   0.228E-03    0.363E-03
RMM:  11    -0.413198261417E+03    0.51636E-05   -0.12136E-06  2501   0.176E-03    0.212E-03
RMM:  12    -0.413198251045E+03    0.10373E-04   -0.12092E-06  2487   0.184E-03    0.911E-04
RMM:  13    -0.413198247414E+03    0.36310E-05   -0.42482E-07  2279   0.118E-03    0.574E-04
RMM:  14    -0.413198246963E+03    0.45055E-06   -0.18020E-07  1683   0.782E-04
   36 T=    68. E= -.41286610E+03 F= -.41319825E+03 E0= -.41317699E+03  EK= 0.33215E+00 SP= 0.00E+00 SK= 0.00E+00
       N       E                     dE             d eps       ncg     rms          rms(c)
RMM:   1    -0.413202097142E+03   -0.38497E-02   -0.11739E+01  4305   0.103E+00    0.924E-01
RMM:   2    -0.413204028883E+03   -0.19317E-02   -0.15739E-01  4250   0.137E-01    0.673E-01
RMM:   3    -0.413201520951E+03    0.25079E-02   -0.82145E-03  4600   0.524E-02    0.168E-01
RMM:   4    -0.413219726690E+03   -0.18206E-01   -0.18527E-02  5161   0.115E-01    0.566E-01
RMM:   5    -0.413201364892E+03    0.18362E-01   -0.92862E-03  4803   0.940E-02    0.378E-02
RMM:   6    -0.413201367208E+03   -0.23160E-05   -0.14915E-03  5825   0.371E-02    0.243E-02
RMM:   7    -0.413201374471E+03   -0.72629E-05   -0.23524E-04  5660   0.140E-02    0.142E-02
RMM:   8    -0.413201363681E+03    0.10790E-04   -0.43257E-05  4961   0.703E-03    0.702E-03
RMM:   9    -0.413201360932E+03    0.27492E-05   -0.82477E-06  3413   0.355E-03    0.439E-03
RMM:  10    -0.413201356874E+03    0.40576E-05   -0.13450E-06  2533   0.191E-03    0.271E-03
RMM:  11    -0.413201351795E+03    0.50790E-05   -0.94626E-07  2496   0.155E-03    0.127E-03
RMM:  12    -0.413201346425E+03    0.53698E-05   -0.65906E-07  2370   0.129E-03    0.547E-04
RMM:  13    -0.413201344556E+03    0.18697E-05   -0.26048E-07  1876   0.886E-04    0.340E-04
RMM:  14    -0.413201343448E+03    0.11074E-05   -0.13018E-07  1285   0.693E-04    0.223E-04
RMM:  15    -0.413201339220E+03    0.42279E-05   -0.11663E-07  1246   0.696E-04    0.119E-04
RMM:  16    -0.413201338385E+03    0.83544E-06   -0.61180E-08   983   0.617E-04
   37 T=    68. E= -.41286644E+03 F= -.41320134E+03 E0= -.41318012E+03  EK= 0.33490E+00 SP= 0.00E+00 SK= 0.00E+00
       N       E                     dE             d eps       ncg     rms          rms(c)
RMM:   1    -0.413198033248E+03    0.33060E-02   -0.11805E+01  4306   0.101E+00    0.944E-01
RMM:   2    -0.413206622170E+03   -0.85889E-02   -0.15612E-01  4252   0.128E-01    0.678E-01
RMM:   3    -0.413204162042E+03    0.24601E-02   -0.87153E-03  4807   0.524E-02    0.184E-01
RMM:   4    -0.413241980170E+03   -0.37818E-01   -0.38726E-02  5153   0.164E-01    0.808E-01
RMM:   5    -0.413203623893E+03    0.38356E-01   -0.19319E-02  4799   0.136E-01    0.465E-02
RMM:   6    -0.413203705213E+03   -0.81319E-04   -0.31196E-03  5842   0.521E-02    0.270E-02
RMM:   7    -0.413203719105E+03   -0.13893E-04   -0.34085E-04  5761   0.162E-02    0.152E-02
RMM:   8    -0.413203711997E+03    0.71080E-05   -0.50522E-05  4944   0.695E-03    0.903E-03
RMM:   9    -0.413203709837E+03    0.21603E-05   -0.20321E-05  4449   0.468E-03    0.683E-03
RMM:  10    -0.413203703401E+03    0.64358E-05   -0.30981E-06  2672   0.263E-03    0.389E-03
RMM:  11    -0.413203698912E+03    0.44892E-05   -0.17192E-06  2522   0.205E-03    0.224E-03
RMM:  12    -0.413203690634E+03    0.82779E-05   -0.13827E-06  2496   0.197E-03    0.899E-04
RMM:  13    -0.413203688033E+03    0.26013E-05   -0.47617E-07  2340   0.126E-03    0.625E-04
RMM:  14    -0.413203687810E+03    0.22304E-06   -0.19923E-07  1820   0.821E-04
   38 T=    69. E= -.41286627E+03 F= -.41320369E+03 E0= -.41318251E+03  EK= 0.33742E+00 SP= 0.00E+00 SK= 0.00E+00
       N       E                     dE             d eps       ncg     rms          rms(c)
RMM:   1    -0.413218427324E+03   -0.14739E-01   -0.12023E+01  4305   0.113E+00    0.957E-01
RMM:   2    -0.413208573683E+03    0.98536E-02   -0.16598E-01  4267   0.128E-01    0.673E-01
RMM:   3    -0.413207128817E+03    0.14449E-02   -0.90954E-03  5015   0.544E-02    0.221E-01
RMM:   4    -0.413258315601E+03   -0.51187E-01   -0.55214E-02  5139   0.195E-01    0.938E-01
RMM:   5    -0.413206075760E+03    0.52240E-01   -0.25875E-02  4786   0.158E-01    0.547E-02
RMM:   6    -0.413206210792E+03   -0.13503E-03   -0.41653E-03  5821   0.609E-02    0.298E-02
RMM:   7    -0.413206227539E+03   -0.16747E-04   -0.46418E-04  5850   0.187E-02    0.182E-02
RMM:   8    -0.413206226405E+03    0.11337E-05   -0.89156E-05  5235   0.888E-03    0.121E-02
RMM:   9    -0.413206213556E+03    0.12850E-04   -0.25148E-05  4612   0.546E-03    0.650E-03
RMM:  10    -0.413206206166E+03    0.73897E-05   -0.43336E-06  2768   0.291E-03    0.384E-03
RMM:  11    -0.413206199979E+03    0.61871E-05   -0.16420E-06  2512   0.209E-03    0.224E-03
RMM:  12    -0.413206189767E+03    0.10211E-04   -0.11105E-06  2487   0.184E-03    0.738E-04
RMM:  13    -0.413206185237E+03    0.45304E-05   -0.48239E-07  2347   0.124E-03    0.490E-04
RMM:  14    -0.413206183336E+03    0.19006E-05   -0.22056E-07  1898   0.853E-04    0.323E-04
RMM:  15    -0.413206177851E+03    0.54852E-05   -0.13243E-07  1461   0.728E-04    0.181E-04
RMM:  16    -0.413206175329E+03    0.25222E-05   -0.74342E-08  1085   0.630E-04    0.115E-04
RMM:  17    -0.413206172168E+03    0.31612E-05   -0.59761E-08  1098   0.621E-04    0.950E-05
RMM:  18    -0.413206169058E+03    0.31100E-05   -0.51046E-08  1129   0.614E-04    0.554E-05
RMM:  19    -0.413206166420E+03    0.26376E-05   -0.41363E-08  1119   0.595E-04    0.424E-05
RMM:  20    -0.413206165854E+03    0.56646E-06   -0.20604E-08   825   0.538E-04
   39 T=    69. E= -.41286615E+03 F= -.41320617E+03 E0= -.41318503E+03  EK= 0.34002E+00 SP= 0.00E+00 SK= 0.00E+00
       N       E                     dE             d eps       ncg     rms          rms(c)
RMM:   1    -0.413205469730E+03    0.69669E-03   -0.11880E+01  4310   0.110E+00    0.935E-01
RMM:   2    -0.413211981342E+03   -0.65116E-02   -0.16083E-01  4263   0.129E-01    0.677E-01
RMM:   3    -0.413210558950E+03    0.14224E-02   -0.92566E-03  5034   0.584E-02    0.230E-01
RMM:   4    -0.413263687194E+03   -0.53128E-01   -0.59682E-02  5132   0.203E-01    0.958E-01
RMM:   5    -0.413209016251E+03    0.54671E-01   -0.26686E-02  4778   0.161E-01    0.555E-02
RMM:   6    -0.413209154714E+03   -0.13846E-03   -0.42905E-03  5810   0.616E-02    0.293E-02
RMM:   7    -0.413209174185E+03   -0.19471E-04   -0.48654E-04  5892   0.191E-02    0.190E-02
RMM:   8    -0.413209174812E+03   -0.62654E-06   -0.98153E-05  5251   0.931E-03    0.126E-02
RMM:   9    -0.413209163255E+03    0.11557E-04   -0.23564E-05  4560   0.546E-03    0.607E-03
RMM:  10    -0.413209158758E+03    0.44968E-05   -0.47343E-06  2815   0.286E-03    0.360E-03
RMM:  11    -0.413209155126E+03    0.36314E-05   -0.15520E-06  2503   0.203E-03    0.208E-03
RMM:  12    -0.413209149214E+03    0.59120E-05   -0.10033E-06  2481   0.171E-03    0.684E-04
RMM:  13    -0.413209146324E+03    0.28906E-05   -0.45716E-07  2313   0.119E-03    0.405E-04
RMM:  14    -0.413209144852E+03    0.14723E-05   -0.21923E-07  1830   0.839E-04    0.275E-04
RMM:  15    -0.413209141214E+03    0.36379E-05   -0.13549E-07  1390   0.720E-04    0.160E-04
RMM:  16    -0.413209139804E+03    0.14102E-05   -0.76181E-08  1066   0.631E-04    0.926E-05
RMM:  17    -0.413209137861E+03    0.19423E-05   -0.59638E-08  1045   0.619E-04    0.698E-05
RMM:  18    -0.413209135551E+03    0.23099E-05   -0.48058E-08  1013   0.610E-04    0.346E-05
RMM:  19    -0.413209133701E+03    0.18500E-05   -0.38878E-08  1006   0.597E-04    0.285E-05
RMM:  20    -0.413209133015E+03    0.68639E-06   -0.21841E-08   825   0.566E-04
   40 T=    70. E= -.41286638E+03 F= -.41320913E+03 E0= -.41318803E+03  EK= 0.34275E+00 SP= 0.00E+00 SK= 0.00E+00
       N       E                     dE             d eps       ncg     rms          rms(c)
RMM:   1    -0.413223285452E+03   -0.14152E-01   -0.12181E+01  4308   0.125E+00    0.947E-01
RMM:   2    -0.413213977200E+03    0.93083E-02   -0.17918E-01  4271   0.142E-01    0.690E-01
RMM:   3    -0.413212975931E+03    0.10013E-02   -0.95217E-03  5047   0.620E-02    0.263E-01
RMM:   4    -0.413268644009E+03   -0.55668E-01   -0.64693E-02  5125   0.212E-01    0.984E-01
RMM:   5    -0.413210914977E+03    0.57729E-01   -0.27905E-02  4773   0.166E-01    0.586E-02
RMM:   6    -0.413211055674E+03   -0.14070E-03   -0.44888E-03  5809   0.632E-02    0.297E-02
RMM:   7    -0.413211076981E+03   -0.21306E-04   -0.52130E-04  5921   0.197E-02    0.203E-02
RMM:   8    -0.413211077201E+03   -0.22029E-06   -0.10599E-04  5278   0.977E-03    0.128E-02
RMM:   9    -0.413211065376E+03    0.11825E-04   -0.22989E-05  4514   0.552E-03    0.551E-03
RMM:  10    -0.413211061161E+03    0.42147E-05   -0.52095E-06  2872   0.287E-03    0.332E-03
RMM:  11    -0.413211057674E+03    0.34877E-05   -0.14640E-06  2507   0.196E-03    0.188E-03
RMM:  12    -0.413211052471E+03    0.52026E-05   -0.83920E-07  2473   0.157E-03    0.654E-04
RMM:  13    -0.413211049630E+03    0.28413E-05   -0.40370E-07  2259   0.110E-03    0.324E-04
RMM:  14    -0.413211047670E+03    0.19601E-05   -0.20818E-07  1730   0.812E-04    0.220E-04
RMM:  15    -0.413211044359E+03    0.33103E-05   -0.13228E-07  1303   0.702E-04    0.113E-04
RMM:  16    -0.413211042927E+03    0.14327E-05   -0.80409E-08  1104   0.641E-04    0.693E-05
RMM:  17    -0.413211041039E+03    0.18880E-05   -0.62941E-08  1078   0.627E-04    0.572E-05
RMM:  18    -0.413211038893E+03    0.21453E-05   -0.49627E-08  1033   0.614E-04    0.281E-05
RMM:  19    -0.413211037411E+03    0.14826E-05   -0.35381E-08   973   0.595E-04    0.256E-05
RMM:  20    -0.413211036922E+03    0.48844E-06   -0.20173E-08   806   0.565E-04
   41 T=    70. E= -.41286600E+03 F= -.41321104E+03 E0= -.41318997E+03  EK= 0.34504E+00 SP= 0.00E+00 SK= 0.00E+00
       N       E                     dE             d eps       ncg     rms          rms(c)
RMM:   1    -0.413232124471E+03   -0.21087E-01   -0.12298E+01  4311   0.131E+00    0.972E-01
RMM:   2    -0.413216056625E+03    0.16068E-01   -0.17192E-01  4288   0.143E-01    0.682E-01
RMM:   3    -0.413217198018E+03   -0.11414E-02   -0.11536E-02  5081   0.735E-02    0.313E-01
RMM:   4    -0.413255162177E+03   -0.37964E-01   -0.53253E-02  5095   0.194E-01    0.844E-01
RMM:   5    -0.413213639545E+03    0.41523E-01   -0.18833E-02  4739   0.141E-01    0.564E-02
RMM:   6    -0.413213699235E+03   -0.59691E-04   -0.31808E-03  5754   0.536E-02    0.293E-02
RMM:   7    -0.413213709093E+03   -0.98575E-05   -0.40650E-04  5829   0.179E-02    0.201E-02
RMM:   8    -0.413213705241E+03    0.38516E-05   -0.97469E-05  5212   0.969E-03    0.115E-02
RMM:   9    -0.413213690934E+03    0.14307E-04   -0.19177E-05  4359   0.529E-03    0.446E-03
RMM:  10    -0.413213685260E+03    0.56737E-05   -0.39763E-06  2766   0.256E-03    0.277E-03
RMM:  11    -0.413213678993E+03    0.62672E-05   -0.12262E-06  2502   0.181E-03    0.146E-03
RMM:  12    -0.413213671587E+03    0.74061E-05   -0.62079E-07  2424   0.138E-03    0.563E-04
RMM:  13    -0.413213667451E+03    0.41363E-05   -0.30825E-07  2000   0.965E-04    0.266E-04
RMM:  14    -0.413213663994E+03    0.34564E-05   -0.17025E-07  1471   0.760E-04    0.157E-04
RMM:  15    -0.413213658157E+03    0.58375E-05   -0.12863E-07  1357   0.716E-04    0.113E-04
RMM:  16    -0.413213655905E+03    0.22514E-05   -0.82268E-08  1172   0.652E-04    0.743E-05
RMM:  17    -0.413213651963E+03    0.39423E-05   -0.77717E-08  1357   0.656E-04    0.683E-05
RMM:  18    -0.413213649377E+03    0.25861E-05   -0.48344E-08  1072   0.594E-04    0.371E-05
RMM:  19    -0.413213648409E+03    0.96778E-06   -0.29987E-08   888   0.551E-04
   42 T=    71. E= -.41286617E+03 F= -.41321365E+03 E0= -.41319261E+03  EK= 0.34748E+00 SP= 0.00E+00 SK= 0.00E+00
       N       E                     dE             d eps       ncg     rms          rms(c)
RMM:   1    -0.413219359117E+03   -0.57097E-02   -0.12111E+01  4312   0.131E+00    0.948E-01
RMM:   2    -0.413218208539E+03    0.11506E-02   -0.16654E-01  4295   0.150E-01    0.682E-01
RMM:   3    -0.413220291787E+03   -0.20832E-02   -0.12192E-02  5087   0.796E-02    0.336E-01
RMM:   4    -0.413253912675E+03   -0.33621E-01   -0.51834E-02  5081   0.192E-01    0.809E-01
RMM:   5    -0.413215797991E+03    0.38115E-01   -0.16804E-02  4724   0.135E-01    0.551E-02
RMM:   6    -0.413215841215E+03   -0.43223E-04   -0.28465E-03  5745   0.510E-02    0.283E-02
RMM:   7    -0.413215848657E+03   -0.74420E-05   -0.36967E-04  5829   0.173E-02    0.197E-02
RMM:   8    -0.413215844788E+03    0.38689E-05   -0.89631E-05  5168   0.945E-03    0.107E-02
RMM:   9    -0.413215832963E+03    0.11825E-04   -0.17990E-05  4259   0.517E-03    0.410E-03
RMM:  10    -0.413215828937E+03    0.40268E-05   -0.35723E-06  2738   0.245E-03    0.253E-03
RMM:  11    -0.413215823975E+03    0.49617E-05   -0.12105E-06  2502   0.177E-03    0.134E-03
RMM:  12    -0.413215818660E+03    0.53153E-05   -0.59469E-07  2405   0.133E-03    0.530E-04
RMM:  13    -0.413215815578E+03    0.30814E-05   -0.29890E-07  1883   0.929E-04    0.244E-04
RMM:  14    -0.413215812838E+03    0.27405E-05   -0.17530E-07  1425   0.755E-04    0.139E-04
RMM:  15    -0.413215808194E+03    0.46433E-05   -0.13883E-07  1302   0.717E-04    0.101E-04
RMM:  16    -0.413215806623E+03    0.15720E-05   -0.87135E-08  1169   0.655E-04    0.734E-05
RMM:  17    -0.413215803488E+03    0.31349E-05   -0.76439E-08  1238   0.651E-04    0.591E-05
RMM:  18    -0.413215801057E+03    0.24304E-05   -0.57109E-08  1154   0.610E-04    0.424E-05
RMM:  19    -0.413215800467E+03    0.58986E-06   -0.29256E-08   840   0.551E-04
   43 T=    71. E= -.41286620E+03 F= -.41321580E+03 E0= -.41319480E+03  EK= 0.34960E+00 SP= 0.00E+00 SK= 0.00E+00
       N       E                     dE             d eps       ncg     rms          rms(c)
RMM:   1    -0.413256011094E+03   -0.40210E-01   -0.12586E+01  4312   0.152E+00    0.947E-01
RMM:   2    -0.413219989741E+03    0.36021E-01   -0.21590E-01  4303   0.176E-01    0.702E-01
RMM:   3    -0.413222606713E+03   -0.26170E-02   -0.12023E-02  5101   0.856E-02    0.396E-01
RMM:   4    -0.413256801178E+03   -0.34194E-01   -0.55643E-02  5077   0.200E-01    0.833E-01
RMM:   5    -0.413217172694E+03    0.39628E-01   -0.17953E-02  4709   0.141E-01    0.609E-02
RMM:   6    -0.413217192323E+03   -0.19629E-04   -0.29392E-03  5710   0.523E-02    0.292E-02
RMM:   7    -0.413217200474E+03   -0.81508E-05   -0.38600E-04  5898   0.177E-02    0.210E-02
RMM:   8    -0.413217196590E+03    0.38842E-05   -0.91366E-05  5221   0.951E-03    0.111E-02
RMM:   9    -0.413217185584E+03    0.11006E-04   -0.21975E-05  4385   0.562E-03    0.430E-03
RMM:  10    -0.413217182761E+03    0.28224E-05   -0.39869E-06  2761   0.252E-03    0.250E-03
RMM:  11    -0.413217178872E+03    0.38893E-05   -0.17869E-06  2556   0.200E-03    0.143E-03
RMM:  12    -0.413217175835E+03    0.30370E-05   -0.62723E-07  2458   0.141E-03    0.667E-04
RMM:  13    -0.413217173332E+03    0.25029E-05   -0.33152E-07  1765   0.943E-04    0.313E-04
RMM:  14    -0.413217171015E+03    0.23167E-05   -0.21409E-07  1473   0.792E-04    0.163E-04
RMM:  15    -0.413217168381E+03    0.26349E-05   -0.15794E-07  1363   0.728E-04    0.950E-05
RMM:  16    -0.413217166433E+03    0.19480E-05   -0.10963E-07  1236   0.667E-04    0.624E-05
RMM:  17    -0.413217164515E+03    0.19178E-05   -0.82273E-08  1162   0.634E-04    0.473E-05
RMM:  18    -0.413217162446E+03    0.20686E-05   -0.64439E-08  1105   0.604E-04    0.423E-05
RMM:  19    -0.413217161862E+03    0.58406E-06   -0.35552E-08   849   0.552E-04
   44 T=    71. E= -.41286597E+03 F= -.41321716E+03 E0= -.41319618E+03  EK= 0.35119E+00 SP= 0.00E+00 SK= 0.00E+00
       N       E                     dE             d eps       ncg     rms          rms(c)
RMM:   1    -0.413231752779E+03   -0.14590E-01   -0.12357E+01  4311   0.150E+00    0.978E-01
RMM:   2    -0.413220940672E+03    0.10812E-01   -0.17357E-01  4347   0.176E-01    0.691E-01
RMM:   3    -0.413229879255E+03   -0.89386E-02   -0.18496E-02  5120   0.111E-01    0.483E-01
RMM:   4    -0.413238934406E+03   -0.90552E-02   -0.41161E-02  5027   0.176E-01    0.600E-01
RMM:   5    -0.413219047345E+03    0.19887E-01   -0.75579E-03  4605   0.102E-01    0.510E-02
RMM:   6    -0.413219011883E+03    0.35462E-04   -0.14709E-03  5525   0.371E-02    0.269E-02
RMM:   7    -0.413219009172E+03    0.27112E-05   -0.21368E-04  5642   0.141E-02    0.187E-02
RMM:   8    -0.413219001485E+03    0.76867E-05   -0.85081E-05  5077   0.942E-03    0.909E-03
RMM:   9    -0.413218987768E+03    0.13717E-04   -0.14564E-05  4155   0.506E-03    0.366E-03
RMM:  10    -0.413218983836E+03    0.39314E-05   -0.23119E-06  2652   0.212E-03    0.208E-03
RMM:  11    -0.413218976548E+03    0.72888E-05   -0.11203E-06  2484   0.171E-03    0.118E-03
RMM:  12    -0.413218970890E+03    0.56572E-05   -0.48792E-07  2407   0.124E-03    0.568E-04
RMM:  13    -0.413218967213E+03    0.36776E-05   -0.22860E-07  1689   0.827E-04    0.274E-04
RMM:  14    -0.413218963515E+03    0.36981E-05   -0.13279E-07  1235   0.685E-04    0.143E-04
RMM:  15    -0.413218958249E+03    0.52651E-05   -0.11179E-07  1234   0.677E-04    0.112E-04
RMM:  16    -0.413218955711E+03    0.25380E-05   -0.69904E-08  1072   0.619E-04    0.100E-04
RMM:  17    -0.413218952626E+03    0.30854E-05   -0.58943E-08  1129   0.609E-04    0.570E-05
RMM:  18    -0.413218948917E+03    0.37090E-05   -0.53304E-08  1137   0.598E-04    0.487E-05
RMM:  19    -0.413218948499E+03    0.41783E-06   -0.22055E-08   745   0.519E-04
   45 T=    72. E= -.41286631E+03 F= -.41321895E+03 E0= -.41319799E+03  EK= 0.35263E+00 SP= 0.00E+00 SK= 0.00E+00
       N       E                     dE             d eps       ncg     rms          rms(c)
RMM:   1    -0.413238748143E+03   -0.19799E-01   -0.12333E+01  4310   0.162E+00    0.960E-01
RMM:   2    -0.413221237630E+03    0.17511E-01   -0.18221E-01  4383   0.187E-01    0.688E-01
RMM:   3    -0.413232792378E+03   -0.11555E-01   -0.20370E-02  5122   0.120E-01    0.534E-01
RMM:   4    -0.413236125818E+03   -0.33334E-02   -0.40205E-02  5010   0.175E-01    0.558E-01
RMM:   5    -0.413219403003E+03    0.16723E-01   -0.63813E-03  4570   0.972E-02    0.510E-02
RMM:   6    -0.413219348410E+03    0.54594E-04   -0.11778E-03  5348   0.341E-02    0.263E-02
RMM:   7    -0.413219345400E+03    0.30092E-05   -0.17498E-04  5639   0.129E-02    0.179E-02
RMM:   8    -0.413219340469E+03    0.49312E-05   -0.94182E-05  5130   0.978E-03    0.972E-03
RMM:   9    -0.413219325884E+03    0.14585E-04   -0.16554E-05  4310   0.540E-03    0.380E-03
RMM:  10    -0.413219322761E+03    0.31231E-05   -0.26339E-06  2686   0.217E-03    0.215E-03
RMM:  11    -0.413219316351E+03    0.64102E-05   -0.12874E-06  2494   0.180E-03    0.125E-03
RMM:  12    -0.413219311925E+03    0.44258E-05   -0.50602E-07  2414   0.128E-03    0.644E-04
RMM:  13    -0.413219308377E+03    0.35483E-05   -0.23269E-07  1714   0.857E-04    0.314E-04
RMM:  14    -0.413219304936E+03    0.34407E-05   -0.12687E-07  1256   0.690E-04    0.160E-04
RMM:  15    -0.413219300760E+03    0.41765E-05   -0.10074E-07  1212   0.665E-04    0.111E-04
RMM:  16    -0.413219298508E+03    0.22522E-05   -0.63412E-08  1080   0.611E-04    0.104E-04
RMM:  17    -0.413219296374E+03    0.21333E-05   -0.43183E-08   940   0.575E-04    0.588E-05
RMM:  18    -0.413219292646E+03    0.37281E-05   -0.56104E-08  1160   0.604E-04    0.498E-05
RMM:  19    -0.413219292310E+03    0.33573E-06   -0.17583E-08   684   0.509E-04
   46 T=    72. E= -.41286615E+03 F= -.41321929E+03 E0= -.41319836E+03  EK= 0.35314E+00 SP= 0.00E+00 SK= 0.00E+00
       N       E                     dE             d eps       ncg     rms          rms(c)
RMM:   1    -0.413245743885E+03   -0.26451E-01   -0.12437E+01  4311   0.172E+00    0.949E-01
RMM:   2    -0.413221615427E+03    0.24128E-01   -0.19887E-01  4373   0.209E-01    0.702E-01
RMM:   3    -0.413233466269E+03   -0.11851E-01   -0.20728E-02  5125   0.125E-01    0.556E-01
RMM:   4    -0.413237383504E+03   -0.39172E-02   -0.42836E-02  5006   0.181E-01    0.582E-01
RMM:   5    -0.413219185617E+03    0.18198E-01   -0.71768E-03  4572   0.103E-01    0.538E-02
RMM:   6    -0.413219121015E+03    0.64602E-04   -0.12782E-03  5355   0.358E-02    0.271E-02
RMM:   7    -0.413219117307E+03    0.37082E-05   -0.19183E-04  5680   0.134E-02    0.193E-02
RMM:   8    -0.413219110688E+03    0.66187E-05   -0.93038E-05  5161   0.970E-03    0.981E-03
RMM:   9    -0.413219097664E+03    0.13024E-04   -0.17977E-05  4323   0.556E-03    0.391E-03
RMM:  10    -0.413219095399E+03    0.22648E-05   -0.27405E-06  2685   0.220E-03    0.222E-03
RMM:  11    -0.413219091095E+03    0.43046E-05   -0.14659E-06  2514   0.187E-03    0.137E-03
RMM:  12    -0.413219088108E+03    0.29865E-05   -0.53534E-07  2419   0.132E-03    0.680E-04
RMM:  13    -0.413219085333E+03    0.27756E-05   -0.26903E-07  1746   0.893E-04    0.311E-04
RMM:  14    -0.413219082837E+03    0.24952E-05   -0.16338E-07  1397   0.736E-04    0.169E-04
RMM:  15    -0.413219079827E+03    0.30104E-05   -0.12496E-07  1245   0.682E-04    0.106E-04
RMM:  16    -0.413219077984E+03    0.18429E-05   -0.78371E-08  1082   0.618E-04    0.883E-05
RMM:  17    -0.413219076059E+03    0.19247E-05   -0.61825E-08  1050   0.598E-04    0.507E-05
RMM:  18    -0.413219074124E+03    0.19357E-05   -0.52633E-08  1017   0.584E-04    0.401E-05
RMM:  19    -0.413219073782E+03    0.34212E-06   -0.21644E-08   706   0.527E-04
   47 T=    72. E= -.41286614E+03 F= -.41321907E+03 E0= -.41319816E+03  EK= 0.35293E+00 SP= 0.00E+00 SK= 0.00E+00
       N       E                     dE             d eps       ncg     rms          rms(c)
RMM:   1    -0.413270475062E+03   -0.51401E-01   -0.12660E+01  4306   0.192E+00    0.974E-01
RMM:   2    -0.413220465553E+03    0.50010E-01   -0.21050E-01  4454   0.214E-01    0.699E-01
RMM:   3    -0.413239154335E+03   -0.18689E-01   -0.26763E-02  5142   0.144E-01    0.658E-01
RMM:   4    -0.413229678086E+03    0.94762E-02   -0.39322E-02  4974   0.177E-01    0.482E-01
RMM:   5    -0.413218471971E+03    0.11206E-01   -0.51993E-03  4530   0.925E-02    0.565E-02
RMM:   6    -0.413218346706E+03    0.12526E-03   -0.62353E-04  4849   0.295E-02    0.277E-02
RMM:   7    -0.413218339121E+03    0.75855E-05   -0.16469E-04  5959   0.129E-02    0.146E-02
RMM:   8    -0.413218333291E+03    0.58300E-05   -0.91987E-05  5214   0.105E-02    0.133E-02
RMM:   9    -0.413218320038E+03    0.13253E-04   -0.23138E-05  4555   0.583E-03    0.473E-03
RMM:  10    -0.413218316174E+03    0.38635E-05   -0.39728E-06  2829   0.296E-03    0.228E-03
RMM:  11    -0.413218311086E+03    0.50886E-05   -0.22599E-06  2525   0.240E-03    0.151E-03
RMM:  12    -0.413218306155E+03    0.49309E-05   -0.89392E-07  2416   0.171E-03    0.923E-04
RMM:  13    -0.413218302623E+03    0.35313E-05   -0.37366E-07  2280   0.109E-03    0.609E-04
RMM:  14    -0.413218297422E+03    0.52018E-05   -0.20346E-07  1768   0.821E-04    0.303E-04
RMM:  15    -0.413218293225E+03    0.41962E-05   -0.13286E-07  1382   0.688E-04    0.235E-04
RMM:  16    -0.413218291458E+03    0.17671E-05   -0.68104E-08   973   0.574E-04    0.123E-04
RMM:  17    -0.413218288630E+03    0.28286E-05   -0.67871E-08  1055   0.588E-04    0.812E-05
RMM:  18    -0.413218286831E+03    0.17982E-05   -0.37751E-08   850   0.560E-04    0.725E-05
RMM:  19    -0.413218286238E+03    0.59357E-06   -0.18981E-08   688   0.535E-04
   48 T=    72. E= -.41286647E+03 F= -.41321829E+03 E0= -.41319738E+03  EK= 0.35182E+00 SP= 0.00E+00 SK= 0.00E+00
       N       E                     dE             d eps       ncg     rms          rms(c)
RMM:   1    -0.413271735628E+03   -0.53449E-01   -0.12526E+01  4305   0.205E+00    0.967E-01
RMM:   2    -0.413217408667E+03    0.54327E-01   -0.20503E-01  4480   0.226E-01    0.689E-01
RMM:   3    -0.413242460368E+03   -0.25052E-01   -0.32483E-02  5158   0.161E-01    0.736E-01
RMM:   4    -0.413223220511E+03    0.19240E-01   -0.38557E-02  4951   0.178E-01    0.417E-01
RMM:   5    -0.413215534769E+03    0.76857E-02   -0.48106E-03  4621   0.906E-02    0.645E-02
RMM:   6    -0.413215335159E+03    0.19961E-03   -0.47842E-04  4669   0.296E-02    0.310E-02
RMM:   7    -0.413215335827E+03   -0.66806E-06   -0.20657E-04  5814   0.150E-02    0.215E-02
RMM:   8    -0.413215310149E+03    0.25677E-04   -0.73284E-05  5029   0.951E-03    0.921E-03
RMM:   9    -0.413215299566E+03    0.10584E-04   -0.14560E-05  4015   0.481E-03    0.447E-03
RMM:  10    -0.413215294460E+03    0.51058E-05   -0.21958E-06  2591   0.231E-03    0.247E-03
RMM:  11    -0.413215287889E+03    0.65708E-05   -0.11414E-06  2488   0.174E-03    0.163E-03
RMM:  12    -0.413215284014E+03    0.38750E-05   -0.40427E-07  2380   0.117E-03    0.808E-04
RMM:  13    -0.413215278528E+03    0.54862E-05   -0.28929E-07  1775   0.895E-04    0.387E-04
RMM:  14    -0.413215273734E+03    0.47941E-05   -0.21648E-07  1785   0.792E-04    0.401E-04
RMM:  15    -0.413215269724E+03    0.40099E-05   -0.13472E-07  1185   0.653E-04    0.173E-04
RMM:  16    -0.413215266964E+03    0.27594E-05   -0.91368E-08  1165   0.624E-04    0.101E-04
RMM:  17    -0.413215264955E+03    0.20090E-05   -0.58538E-08  1005   0.585E-04    0.619E-05
RMM:  18    -0.413215262899E+03    0.20568E-05   -0.54403E-08  1093   0.597E-04    0.683E-05
RMM:  19    -0.413215262008E+03    0.89071E-06   -0.29533E-08   868   0.546E-04
   49 T=    71. E= -.41286612E+03 F= -.41321526E+03 E0= -.41319437E+03  EK= 0.34914E+00 SP= 0.00E+00 SK= 0.00E+00
       N       E                     dE             d eps       ncg     rms          rms(c)
RMM:   1    -0.413242284287E+03   -0.27021E-01   -0.12133E+01  4305   0.205E+00    0.938E-01
RMM:   2    -0.413214315001E+03    0.27969E-01   -0.20643E-01  4492   0.235E-01    0.695E-01
RMM:   3    -0.413238405717E+03   -0.24091E-01   -0.31609E-02  5162   0.161E-01    0.736E-01
RMM:   4    -0.413220300139E+03    0.18106E-01   -0.39690E-02  4949   0.181E-01    0.432E-01
RMM:   5    -0.413211860029E+03    0.84401E-02   -0.54016E-03  4635   0.953E-02    0.679E-02
RMM:   6    -0.413211631512E+03    0.22852E-03   -0.53410E-04  4684   0.315E-02    0.317E-02
RMM:   7    -0.413211631293E+03    0.21906E-06   -0.21669E-04  5830   0.153E-02    0.216E-02
RMM:   8    -0.413211607017E+03    0.24276E-04   -0.74283E-05  5091   0.941E-03    0.986E-03
RMM:   9    -0.413211597877E+03    0.91400E-05   -0.16801E-05  4191   0.512E-03    0.462E-03
RMM:  10    -0.413211593701E+03    0.41756E-05   -0.26872E-06  2628   0.248E-03    0.258E-03
RMM:  11    -0.413211589243E+03    0.44584E-05   -0.12444E-06  2495   0.183E-03    0.172E-03
RMM:  12    -0.413211586385E+03    0.28578E-05   -0.45438E-07  2417   0.123E-03    0.876E-04
RMM:  13    -0.413211582528E+03    0.38572E-05   -0.33825E-07  1927   0.944E-04    0.427E-04
RMM:  14    -0.413211579137E+03    0.33906E-05   -0.25268E-07  1747   0.810E-04    0.391E-04
RMM:  15    -0.413211576253E+03    0.28840E-05   -0.17932E-07  1299   0.694E-04    0.153E-04
RMM:  16    -0.413211574746E+03    0.15072E-05   -0.10718E-07  1214   0.632E-04    0.106E-04
RMM:  17    -0.413211573500E+03    0.12457E-05   -0.77560E-08  1108   0.599E-04    0.689E-05
RMM:  18    -0.413211572559E+03    0.94160E-06   -0.58831E-08  1039   0.578E-04
   50 T=    70. E= -.41286640E+03 F= -.41321157E+03 E0= -.41319069E+03  EK= 0.34517E+00 SP= 0.00E+00 SK= 0.00E+00
       N       E                     dE             d eps       ncg     rms          rms(c)
RMM:   1    -0.413244831376E+03   -0.33258E-01   -0.12059E+01  4301   0.221E+00    0.951E-01
RMM:   2    -0.413208196273E+03    0.36635E-01   -0.20832E-01  4560   0.249E-01    0.692E-01
[...]
RMM:   8    -0.413723424179E+03    0.46897E-04   -0.67380E-04  5483   0.304E-02    0.395E-02
RMM:   9    -0.413723389539E+03    0.34640E-04   -0.26242E-04  4938   0.211E-02    0.238E-02
RMM:  10    -0.413723386579E+03    0.29599E-05   -0.71895E-05  5580   0.109E-02    0.121E-02
RMM:  11    -0.413723387396E+03   -0.81742E-06   -0.32993E-05  5244   0.668E-03    0.616E-03
RMM:  12    -0.413723388489E+03   -0.10930E-05   -0.47438E-06  2988   0.315E-03    0.349E-03
RMM:  13    -0.413723390131E+03   -0.16416E-05   -0.26122E-06  2687   0.252E-03    0.195E-03
RMM:  14    -0.413723391563E+03   -0.14323E-05   -0.99837E-07  2488   0.173E-03    0.855E-04
RMM:  15    -0.413723392527E+03   -0.96364E-06   -0.50364E-07  2193   0.116E-03
  137 T=   173. E= -.41287184E+03 F= -.41372339E+03 E0= -.41370303E+03  EK= 0.85155E+00 SP= 0.00E+00 SK= 0.00E+00
       N       E                     dE             d eps       ncg     rms          rms(c)
RMM:   1    -0.413720107479E+03    0.32841E-02   -0.18122E+01  4267   0.763E+00    0.111E+00
RMM:   2    -0.413590126721E+03    0.12998E+00   -0.53702E-01  5408   0.829E-01    0.931E-01
RMM:   3    -0.413642676441E+03   -0.52550E-01   -0.11848E-01  5628   0.372E-01    0.118E+00
RMM:   4    -0.413591818750E+03    0.50858E-01   -0.58680E-02  5150   0.274E-01    0.559E-01
RMM:   5    -0.413587043232E+03    0.47755E-02   -0.26596E-02  4769   0.220E-01    0.183E-01
RMM:   6    -0.413586424783E+03    0.61845E-03   -0.35483E-03  4993   0.852E-02    0.711E-02
RMM:   7    -0.413586377658E+03    0.47126E-04   -0.10676E-03  5496   0.397E-02    0.422E-02
RMM:   8    -0.413586350189E+03    0.27469E-04   -0.46246E-04  5669   0.244E-02    0.316E-02
RMM:   9    -0.413586345352E+03    0.48372E-05   -0.16308E-04  5284   0.159E-02    0.221E-02
RMM:  10    -0.413586336894E+03    0.84581E-05   -0.45093E-05  5309   0.878E-03    0.101E-02
RMM:  11    -0.413586338032E+03   -0.11379E-05   -0.29510E-05  5231   0.599E-03    0.549E-03
RMM:  12    -0.413586337940E+03    0.91270E-07   -0.30796E-06  2787   0.277E-03
  138 T=   147. E= -.41286329E+03 F= -.41358634E+03 E0= -.41356577E+03  EK= 0.72305E+00 SP= 0.00E+00 SK= 0.00E+00
       N       E                     dE             d eps       ncg     rms          rms(c)
RMM:   1    -0.413688736888E+03   -0.10240E+00   -0.15817E+01  4280   0.698E+00    0.110E+00
RMM:   2    -0.413571970767E+03    0.11677E+00   -0.48724E-01  5382   0.776E-01    0.993E-01
RMM:   3    -0.413590586975E+03   -0.18616E-01   -0.10604E-01  5514   0.353E-01    0.106E+00
RMM:   4    -0.413558841897E+03    0.31745E-01   -0.62448E-02  5227   0.293E-01    0.492E-01
RMM:   5    -0.413554554281E+03    0.42876E-02   -0.20700E-02  4615   0.200E-01    0.173E-01
RMM:   6    -0.413555110390E+03   -0.55611E-03   -0.10398E-02  5395   0.119E-01    0.139E-01
RMM:   7    -0.413554056942E+03    0.10534E-02   -0.26056E-03  4947   0.655E-02    0.533E-02
RMM:   8    -0.413554059825E+03   -0.28825E-05   -0.94321E-04  5831   0.353E-02    0.317E-02
RMM:   9    -0.413554060995E+03   -0.11701E-05   -0.21165E-04  5641   0.171E-02    0.258E-02
RMM:  10    -0.413554042840E+03    0.18155E-04   -0.50400E-05  5190   0.919E-03    0.109E-02
RMM:  11    -0.413554043785E+03   -0.94474E-06   -0.40822E-05  5474   0.678E-03    0.580E-03
RMM:  12    -0.413554043559E+03    0.22585E-06   -0.30428E-06  2783   0.276E-03
  139 T=   140. E= -.41286818E+03 F= -.41355404E+03 E0= -.41353308E+03  EK= 0.68587E+00 SP= 0.00E+00 SK= 0.00E+00
       N       E                     dE             d eps       ncg     rms          rms(c)
RMM:   1    -0.413722456968E+03   -0.16841E+00   -0.16333E+01  4284   0.695E+00    0.120E+00
RMM:   2    -0.413607464863E+03    0.11499E+00   -0.57947E-01  5412   0.845E-01    0.123E+00
RMM:   3    -0.413598324991E+03    0.91399E-02   -0.11268E-01  5538   0.370E-01    0.111E+00
RMM:   4    -0.413576075410E+03    0.22250E-01   -0.58155E-02  5256   0.289E-01    0.585E-01
RMM:   5    -0.413573482385E+03    0.25930E-02   -0.30155E-02  4609   0.237E-01    0.225E-01
RMM:   6    -0.413572681052E+03    0.80133E-03   -0.14759E-02  5077   0.146E-01    0.150E-01
RMM:   7    -0.413571338261E+03    0.13428E-02   -0.26113E-03  4739   0.717E-02    0.544E-02
RMM:   8    -0.413571347382E+03   -0.91206E-05   -0.89635E-04  5853   0.342E-02    0.353E-02
RMM:   9    -0.413571331597E+03    0.15785E-04   -0.22441E-04  4911   0.191E-02    0.192E-02
RMM:  10    -0.413571324787E+03    0.68093E-05   -0.55167E-05  5561   0.932E-03    0.939E-03
RMM:  11    -0.413571325665E+03   -0.87745E-06   -0.24442E-05  5016   0.573E-03    0.604E-03
RMM:  12    -0.413571325769E+03   -0.10448E-06   -0.35728E-06  2862   0.277E-03
  140 T=   141. E= -.41287724E+03 F= -.41357133E+03 E0= -.41354978E+03  EK= 0.69408E+00 SP= 0.00E+00 SK= 0.00E+00
       N       E                     dE             d eps       ncg     rms          rms(c)
RMM:   1    -0.413641002500E+03   -0.69677E-01   -0.16417E+01  4282   0.703E+00    0.140E+00
RMM:   2    -0.413544835428E+03    0.96167E-01   -0.61354E-01  5449   0.884E-01    0.137E+00
RMM:   3    -0.413559594659E+03   -0.14759E-01   -0.12530E-01  5626   0.383E-01    0.137E+00
RMM:   4    -0.413523532928E+03    0.36062E-01   -0.66785E-02  5182   0.309E-01    0.714E-01
RMM:   5    -0.413520369604E+03    0.31633E-02   -0.43562E-02  4472   0.287E-01    0.232E-01
RMM:   6    -0.413518369707E+03    0.19999E-02   -0.13379E-02  4979   0.146E-01    0.138E-01
RMM:   7    -0.413517293928E+03    0.10758E-02   -0.22345E-03  4721   0.670E-02    0.649E-02
RMM:   8    -0.413517233170E+03    0.60758E-04   -0.71838E-04  5296   0.330E-02    0.364E-02
RMM:   9    -0.413517223347E+03    0.98238E-05   -0.32827E-04  4902   0.226E-02    0.194E-02
RMM:  10    -0.413517220110E+03    0.32370E-05   -0.73567E-05  5647   0.105E-02    0.103E-02
RMM:  11    -0.413517220388E+03   -0.27853E-06   -0.23329E-05  4767   0.578E-03    0.574E-03
RMM:  12    -0.413517220782E+03   -0.39435E-06   -0.46329E-06  2985   0.297E-03
  141 T=   130. E= -.41287966E+03 F= -.41351722E+03 E0= -.41349494E+03  EK= 0.63756E+00 SP= 0.00E+00 SK= 0.00E+00
       N       E                     dE             d eps       ncg     rms          rms(c)
RMM:   1    -0.413432594430E+03    0.84626E-01   -0.13347E+01  4267   0.655E+00    0.144E+00
RMM:   2    -0.413390682264E+03    0.41912E-01   -0.50017E-01  5457   0.810E-01    0.131E+00
RMM:   3    -0.413444281852E+03   -0.53600E-01   -0.12285E-01  5557   0.379E-01    0.142E+00
RMM:   4    -0.413393382059E+03    0.50900E-01   -0.88592E-02  5221   0.325E-01    0.771E-01
RMM:   5    -0.413380942272E+03    0.12440E-01   -0.38292E-02  4368   0.280E-01    0.202E-01
RMM:   6    -0.413379825578E+03    0.11167E-02   -0.61222E-03  5118   0.107E-01    0.102E-01
RMM:   7    -0.413379522068E+03    0.30351E-03   -0.15220E-03  5068   0.487E-02    0.618E-02
RMM:   8    -0.413379427522E+03    0.94545E-04   -0.54485E-04  4742   0.308E-02    0.340E-02
RMM:   9    -0.413379425597E+03    0.19258E-05   -0.29412E-04  5242   0.218E-02    0.224E-02
RMM:  10    -0.413379421238E+03    0.43588E-05   -0.66010E-05  5482   0.101E-02    0.108E-02
RMM:  11    -0.413379421753E+03   -0.51478E-06   -0.29100E-05  5087   0.617E-03    0.588E-03
RMM:  12    -0.413379422079E+03   -0.32681E-06   -0.43831E-06  2935   0.314E-03
  142 T=   104. E= -.41286614E+03 F= -.41337942E+03 E0= -.41335656E+03  EK= 0.51328E+00 SP= 0.00E+00 SK= 0.00E+00
       N       E                     dE             d eps       ncg     rms          rms(c)
RMM:   1    -0.413366896897E+03    0.12525E-01   -0.10061E+01  4267   0.589E+00    0.906E-01
RMM:   2    -0.413352564808E+03    0.14332E-01   -0.34089E-01  5480   0.671E-01    0.854E-01
RMM:   3    -0.413372507397E+03   -0.19943E-01   -0.64804E-02  5635   0.280E-01    0.900E-01
RMM:   4    -0.413351423000E+03    0.21084E-01   -0.34054E-02  5330   0.200E-01    0.541E-01
RMM:   5    -0.413346301773E+03    0.51212E-02   -0.18756E-02  4318   0.202E-01    0.134E-01
RMM:   6    -0.413345783083E+03    0.51869E-03   -0.30640E-03  5033   0.759E-02    0.726E-02
RMM:   7    -0.413345673767E+03    0.10932E-03   -0.91449E-04  5280   0.367E-02    0.466E-02
RMM:   8    -0.413345621868E+03    0.51899E-04   -0.29501E-04  4821   0.219E-02    0.276E-02
RMM:   9    -0.413345620041E+03    0.18272E-05   -0.13219E-04  4600   0.155E-02    0.130E-02
RMM:  10    -0.413345623072E+03   -0.30313E-05   -0.37781E-05  5164   0.758E-03    0.752E-03
RMM:  11    -0.413345624823E+03   -0.17507E-05   -0.85862E-06  3529   0.391E-03    0.378E-03
RMM:  12    -0.413345626632E+03   -0.18091E-05   -0.26399E-06  2748   0.253E-03    0.197E-03
RMM:  13    -0.413345627979E+03   -0.13473E-05   -0.12026E-06  2539   0.179E-03    0.109E-03
RMM:  14    -0.413345628874E+03   -0.89445E-06   -0.78969E-07  2419   0.135E-03
  143 T=    99. E= -.41286052E+03 F= -.41334563E+03 E0= -.41332256E+03  EK= 0.48511E+00 SP= 0.00E+00 SK= 0.00E+00
       N       E                     dE             d eps       ncg     rms          rms(c)
RMM:   1    -0.413520684286E+03   -0.17506E+00   -0.11926E+01  4288   0.640E+00    0.111E+00
RMM:   2    -0.413492804911E+03    0.27879E-01   -0.36094E-01  5432   0.721E-01    0.102E+00
RMM:   3    -0.413525372562E+03   -0.32568E-01   -0.95455E-02  5650   0.328E-01    0.117E+00
RMM:   4    -0.413484080720E+03    0.41292E-01   -0.47643E-02  5154   0.256E-01    0.539E-01
RMM:   5    -0.413481767828E+03    0.23129E-02   -0.26192E-02  4606   0.223E-01    0.186E-01
RMM:   6    -0.413480471113E+03    0.12967E-02   -0.68875E-03  4981   0.108E-01    0.911E-02
RMM:   7    -0.413480150792E+03    0.32032E-03   -0.15280E-03  5270   0.500E-02    0.574E-02
RMM:   8    -0.413480077423E+03    0.73370E-04   -0.28594E-04  4699   0.225E-02    0.343E-02
RMM:   9    -0.413480072609E+03    0.48138E-05   -0.18824E-04  4522   0.185E-02    0.140E-02
RMM:  10    -0.413480077615E+03   -0.50067E-05   -0.63897E-05  5593   0.909E-03    0.967E-03
RMM:  11    -0.413480079649E+03   -0.20340E-05   -0.17020E-05  4449   0.512E-03    0.520E-03
RMM:  12    -0.413480082560E+03   -0.29107E-05   -0.48464E-06  3019   0.318E-03    0.247E-03
RMM:  13    -0.413480084829E+03   -0.22686E-05   -0.22073E-06  2650   0.225E-03    0.149E-03
RMM:  14    -0.413480086863E+03   -0.20337E-05   -0.10992E-06  2519   0.169E-03    0.802E-04
RMM:  15    -0.413480088117E+03   -0.12547E-05   -0.61449E-07  2254   0.115E-03    0.441E-04
RMM:  16    -0.413480089034E+03   -0.91651E-06   -0.47875E-07  1942   0.988E-04
  144 T=   123. E= -.41287816E+03 F= -.41348009E+03 E0= -.41345690E+03  EK= 0.60193E+00 SP= 0.00E+00 SK= 0.00E+00
       N       E                     dE             d eps       ncg     rms          rms(c)
RMM:   1    -0.413627113001E+03   -0.14702E+00   -0.15560E+01  4292   0.728E+00    0.152E+00
RMM:   2    -0.413566473312E+03    0.60640E-01   -0.47018E-01  5406   0.853E-01    0.138E+00
RMM:   3    -0.413630960434E+03   -0.64487E-01   -0.14483E-01  5643   0.403E-01    0.156E+00
RMM:   4    -0.413560682107E+03    0.70278E-01   -0.83768E-02  5120   0.330E-01    0.714E-01
RMM:   5    -0.413554796523E+03    0.58856E-02   -0.39748E-02  4696   0.272E-01    0.233E-01
RMM:   6    -0.413552657263E+03    0.21393E-02   -0.94568E-03  4952   0.129E-01    0.108E-01
RMM:   7    -0.413552259831E+03    0.39743E-03   -0.20992E-03  5245   0.591E-02    0.676E-02
RMM:   8    -0.413552133798E+03    0.12603E-03   -0.48542E-04  4715   0.294E-02    0.398E-02
RMM:   9    -0.413552122007E+03    0.11791E-04   -0.25590E-04  4627   0.212E-02    0.174E-02
RMM:  10    -0.413552126531E+03   -0.45237E-05   -0.87389E-05  5674   0.107E-02    0.106E-02
RMM:  11    -0.413552128396E+03   -0.18657E-05   -0.25708E-05  4905   0.609E-03    0.636E-03
RMM:  12    -0.413552130727E+03   -0.23310E-05   -0.68122E-06  3272   0.362E-03    0.313E-03
RMM:  13    -0.413552133146E+03   -0.24184E-05   -0.32064E-06  2779   0.265E-03    0.195E-03
RMM:  14    -0.413552135387E+03   -0.22416E-05   -0.11984E-06  2525   0.185E-03    0.930E-04
RMM:  15    -0.413552136722E+03   -0.13345E-05   -0.62190E-07  2323   0.122E-03    0.541E-04
RMM:  16    -0.413552137938E+03   -0.12158E-05   -0.50411E-07  2059   0.102E-03    0.274E-04
RMM:  17    -0.413552138733E+03   -0.79487E-06   -0.36518E-07  1732   0.865E-04
  145 T=   136. E= -.41288590E+03 F= -.41355214E+03 E0= -.41352880E+03  EK= 0.66624E+00 SP= 0.00E+00 SK= 0.00E+00
       N       E                     dE             d eps       ncg     rms          rms(c)
RMM:   1    -0.413513679492E+03    0.38458E-01   -0.14783E+01  4291   0.715E+00    0.147E+00
RMM:   2    -0.413455015167E+03    0.58664E-01   -0.44296E-01  5392   0.826E-01    0.133E+00
RMM:   3    -0.413484051127E+03   -0.29036E-01   -0.95047E-02  5569   0.354E-01    0.115E+00
RMM:   4    -0.413494560295E+03   -0.10509E-01   -0.10167E-01  5230   0.315E-01    0.104E+00
RMM:   5    -0.413451013584E+03    0.43547E-01   -0.43621E-02  4618   0.282E-01    0.223E-01
RMM:   6    -0.413449206127E+03    0.18075E-02   -0.87165E-03  5166   0.123E-01    0.895E-02
RMM:   7    -0.413449095549E+03    0.11058E-03   -0.16806E-03  5471   0.479E-02    0.538E-02
RMM:   8    -0.413449109190E+03   -0.13641E-04   -0.74777E-04  5445   0.300E-02    0.406E-02
RMM:   9    -0.413449051315E+03    0.57876E-04   -0.25666E-04  4916   0.211E-02    0.184E-02
RMM:  10    -0.413449056180E+03   -0.48648E-05   -0.83587E-05  5746   0.108E-02    0.106E-02
RMM:  11    -0.413449056854E+03   -0.67490E-06   -0.21582E-05  4753   0.561E-03    0.592E-03
RMM:  12    -0.413449059354E+03   -0.24996E-05   -0.53685E-06  3062   0.334E-03    0.343E-03
RMM:  13    -0.413449061733E+03   -0.23787E-05   -0.24269E-06  2649   0.253E-03    0.208E-03
RMM:  14    -0.413449063557E+03   -0.18240E-05   -0.10516E-06  2527   0.174E-03    0.985E-04
RMM:  15    -0.413449064660E+03   -0.11034E-05   -0.53302E-07  2325   0.116E-03    0.497E-04
RMM:  16    -0.413449065590E+03   -0.92953E-06   -0.37991E-07  1802   0.922E-04
  146 T=   117. E= -.41287305E+03 F= -.41344907E+03 E0= -.41342580E+03  EK= 0.57602E+00 SP= 0.00E+00 SK= 0.00E+00
       N       E                     dE             d eps       ncg     rms          rms(c)
RMM:   1    -0.413398023300E+03    0.51041E-01   -0.10807E+01  4287   0.617E+00    0.922E-01
RMM:   2    -0.413362221302E+03    0.35802E-01   -0.28747E-01  5408   0.651E-01    0.831E-01
RMM:   3    -0.413369734295E+03   -0.75130E-02   -0.44919E-02  5607   0.248E-01    0.670E-01
RMM:   4    -0.413382386109E+03   -0.12652E-01   -0.42546E-02  5302   0.201E-01    0.726E-01
RMM:   5    -0.413360157893E+03    0.22228E-01   -0.20422E-02  4577   0.193E-01    0.139E-01
RMM:   6    -0.413359702060E+03    0.45583E-03   -0.44821E-03  5353   0.846E-02    0.641E-02
RMM:   7    -0.413359665061E+03    0.36998E-04   -0.89951E-04  5505   0.343E-02    0.405E-02
RMM:   8    -0.413359679428E+03   -0.14367E-04   -0.36709E-04  5403   0.211E-02    0.303E-02
RMM:   9    -0.413359652542E+03    0.26886E-04   -0.13599E-04  4816   0.156E-02    0.122E-02
RMM:  10    -0.413359657711E+03   -0.51689E-05   -0.42252E-05  5506   0.784E-03    0.798E-03
RMM:  11    -0.413359658253E+03   -0.54240E-06   -0.91134E-06  3692   0.388E-03
  147 T=   102. E= -.41285645E+03 F= -.41335966E+03 E0= -.41333676E+03  EK= 0.50321E+00 SP= 0.00E+00 SK= 0.00E+00
       N       E                     dE             d eps       ncg     rms          rms(c)
RMM:   1    -0.413540544111E+03   -0.18089E+00   -0.11100E+01  4285   0.622E+00    0.783E-01
RMM:   2    -0.413507997774E+03    0.32546E-01   -0.27295E-01  5403   0.629E-01    0.724E-01
RMM:   3    -0.413516968388E+03   -0.89706E-02   -0.55906E-02  5696   0.254E-01    0.780E-01
RMM:   4    -0.413500078990E+03    0.16889E-01   -0.23924E-02  5141   0.189E-01    0.361E-01
RMM:   5    -0.413499527274E+03    0.55172E-03   -0.14632E-02  4651   0.165E-01    0.159E-01
RMM:   6    -0.413499126114E+03    0.40116E-03   -0.59921E-03  5192   0.929E-02    0.979E-02
RMM:   7    -0.413498712248E+03    0.41387E-03   -0.11562E-03  4885   0.458E-02    0.501E-02
RMM:   8    -0.413498689416E+03    0.22832E-04   -0.41980E-04  5524   0.256E-02    0.318E-02
RMM:   9    -0.413498690229E+03   -0.81252E-06   -0.15939E-04  4871   0.159E-02    0.161E-02
RMM:  10    -0.413498688482E+03    0.17466E-05   -0.53223E-05  5544   0.878E-03    0.774E-03
RMM:  11    -0.413498690536E+03   -0.20539E-05   -0.14865E-05  4279   0.468E-03    0.558E-03
RMM:  12    -0.413498692751E+03   -0.22147E-05   -0.37386E-06  2877   0.311E-03    0.265E-03
RMM:  13    -0.413498693958E+03   -0.12071E-05   -0.15134E-06  2559   0.198E-03    0.112E-03
RMM:  14    -0.413498694928E+03   -0.97000E-06   -0.91711E-07  2462   0.151E-03
  148 T=   128. E= -.41286797E+03 F= -.41349869E+03 E0= -.41347620E+03  EK= 0.63073E+00 SP= 0.00E+00 SK= 0.00E+00
       N       E                     dE             d eps       ncg     rms          rms(c)
RMM:   1    -0.413816339928E+03   -0.31765E+00   -0.16761E+01  4289   0.757E+00    0.127E+00
RMM:   2    -0.413747955332E+03    0.68385E-01   -0.44208E-01  5392   0.825E-01    0.117E+00
RMM:   3    -0.413770034961E+03   -0.22080E-01   -0.11685E-01  5604   0.369E-01    0.125E+00
RMM:   4    -0.413728973276E+03    0.41062E-01   -0.61859E-02  5108   0.297E-01    0.541E-01
RMM:   5    -0.413727391955E+03    0.15813E-02   -0.35976E-02  4831   0.251E-01    0.239E-01
RMM:   6    -0.413725728216E+03    0.16637E-02   -0.13162E-02  5163   0.139E-01    0.140E-01
RMM:   7    -0.413724866187E+03    0.86203E-03   -0.17308E-03  4624   0.608E-02    0.658E-02
RMM:   8    -0.413724818823E+03    0.47364E-04   -0.87502E-04  5575   0.357E-02    0.377E-02
RMM:   9    -0.413724814358E+03    0.44655E-05   -0.28877E-04  5164   0.208E-02    0.207E-02
RMM:  10    -0.413724809858E+03    0.44994E-05   -0.78326E-05  5574   0.109E-02    0.969E-03
RMM:  11    -0.413724813284E+03   -0.34262E-05   -0.27949E-05  5015   0.620E-03    0.762E-03
RMM:  12    -0.413724815235E+03   -0.19503E-05   -0.60772E-06  3228   0.360E-03    0.355E-03
RMM:  13    -0.413724816707E+03   -0.14721E-05   -0.28061E-06  2731   0.247E-03    0.143E-03
RMM:  14    -0.413724817882E+03   -0.11755E-05   -0.12112E-06  2513   0.181E-03    0.668E-04
RMM:  15    -0.413724818553E+03   -0.67085E-06   -0.67327E-07  2369   0.130E-03
  149 T=   172. E= -.41287986E+03 F= -.41372482E+03 E0= -.41370269E+03  EK= 0.84496E+00 SP= 0.00E+00 SK= 0.00E+00
       N       E                     dE             d eps       ncg     rms          rms(c)
RMM:   1    -0.414007073338E+03   -0.28226E+00   -0.22013E+01  4283   0.852E+00    0.126E+00
RMM:   2    -0.413858296654E+03    0.14878E+00   -0.61073E-01  5389   0.963E-01    0.118E+00
RMM:   3    -0.413894720218E+03   -0.36424E-01   -0.12778E-01  5717   0.387E-01    0.130E+00
RMM:   4    -0.413849458985E+03    0.45261E-01   -0.51419E-02  5100   0.267E-01    0.666E-01
RMM:   5    -0.413847658355E+03    0.18006E-02   -0.38072E-02  4558   0.267E-01    0.261E-01
RMM:   6    -0.413846082094E+03    0.15763E-02   -0.12702E-02  5130   0.140E-01    0.146E-01
RMM:   7    -0.413845173885E+03    0.90821E-03   -0.24709E-03  5070   0.671E-02    0.813E-02
RMM:   8    -0.413845026913E+03    0.14697E-03   -0.84479E-04  5145   0.370E-02    0.426E-02
RMM:   9    -0.413845010813E+03    0.16099E-04   -0.45265E-04  4918   0.266E-02    0.200E-02
RMM:  10    -0.413845011453E+03   -0.63947E-06   -0.86183E-05  5595   0.113E-02    0.117E-02
RMM:  11    -0.413845012876E+03   -0.14227E-05   -0.27429E-05  4883   0.654E-03    0.717E-03
RMM:  12    -0.413845015406E+03   -0.25308E-05   -0.66592E-06  3245   0.362E-03    0.357E-03
RMM:  13    -0.413845017102E+03   -0.16954E-05   -0.26422E-06  2711   0.246E-03    0.173E-03
RMM:  14    -0.413845018134E+03   -0.10324E-05   -0.11528E-06  2505   0.178E-03    0.881E-04
RMM:  15    -0.413845018911E+03   -0.77691E-06   -0.63105E-07  2336   0.126E-03
  150 T=   195. E= -.41288798E+03 F= -.41384502E+03 E0= -.41382333E+03  EK= 0.95704E+00 SP= 0.00E+00 SK= 0.00E+00
