       N       E                     dE             d eps       ncg     rms          rms(c)
RMM:   1     0.220149749141E+04    0.22015E+04   -0.52443E+04  2132   0.654E+02
RMM:   2     0.705965037122E+03   -0.14955E+04   -0.16262E+04  2132   0.177E+02
RMM:   3     0.137890545588E+03   -0.56807E+03   -0.65724E+03  2132   0.117E+02
RMM:   4    -0.159584545610E+03   -0.29748E+03   -0.27870E+03  2132   0.936E+01
RMM:   5    -0.287432001850E+03   -0.12785E+03   -0.11442E+03  2132   0.595E+01
RMM:   6    -0.349898708016E+03   -0.62467E+02   -0.55138E+02  2132   0.423E+01
RMM:   7    -0.382774306348E+03   -0.32876E+02   -0.30434E+02  2132   0.293E+01
RMM:   8    -0.404282153037E+03   -0.21508E+02   -0.18441E+02  2132   0.233E+01
RMM:   9    -0.435927121006E+03   -0.31645E+02   -0.30567E+02  6097   0.173E+01
RMM:  10    -0.441252512273E+03   -0.53254E+01   -0.63095E+01  6398   0.539E+00
RMM:  11    -0.442508961414E+03   -0.12564E+01   -0.11408E+01  6215   0.173E+00
RMM:  12    -0.442876319314E+03   -0.36736E+00   -0.27431E+00  6375   0.602E-01    0.134E+02
RMM:  13    -0.425591133512E+03    0.17285E+02   -0.81040E+01  4670   0.119E+01    0.712E+01
RMM:  14    -0.498519594104E+03   -0.72928E+02   -0.53740E+02  5421   0.232E+01    0.305E+01
RMM:  15    -0.412452696146E+03    0.86067E+02   -0.19063E+02  5055   0.161E+01    0.472E+00
RMM:  16    -0.414252137247E+03   -0.17994E+01   -0.38446E+01  6073   0.592E+00    0.445E+00
RMM:  17    -0.413318713763E+03    0.93342E+00   -0.19734E+00  5324   0.168E+00    0.272E+00
RMM:  18    -0.413150403931E+03    0.16831E+00   -0.12777E+00  5801   0.119E+00    0.157E+00
RMM:  19    -0.413170097138E+03   -0.19693E-01   -0.28132E-01  5844   0.544E-01    0.942E-01
RMM:  20    -0.413212095277E+03   -0.41998E-01   -0.33026E-01  5387   0.628E-01    0.884E-01
RMM:  21    -0.413176399622E+03    0.35696E-01   -0.44215E-02  4897   0.277E-01    0.492E-01
RMM:  22    -0.413167258791E+03    0.91408E-02   -0.39320E-02  5760   0.200E-01    0.217E-01
RMM:  23    -0.413164927638E+03    0.23312E-02   -0.14149E-02  6134   0.111E-01    0.837E-02
RMM:  24    -0.413163563650E+03    0.13640E-02   -0.30591E-03  5956   0.563E-02    0.493E-02
RMM:  25    -0.413163103021E+03    0.46063E-03   -0.72743E-04  5353   0.270E-02    0.318E-02
RMM:  26    -0.413163055885E+03    0.47136E-04   -0.72699E-04  5859   0.287E-02    0.292E-02
RMM:  27    -0.413163505721E+03   -0.44984E-03   -0.26796E-04  4920   0.220E-02    0.217E-02
RMM:  28    -0.413163846309E+03   -0.34059E-03   -0.13199E-04  5095   0.149E-02    0.120E-02
RMM:  29    -0.413164323496E+03   -0.47719E-03   -0.13815E-04  4499   0.191E-02    0.422E-03
RMM:  30    -0.413164551819E+03   -0.22832E-03   -0.88575E-05  4341   0.109E-02    0.266E-03
RMM:  31    -0.413164658293E+03   -0.10647E-03   -0.50133E-05  3186   0.653E-03    0.180E-03
RMM:  32    -0.413164677532E+03   -0.19239E-04   -0.18366E-05  2951   0.281E-03    0.105E-03
RMM:  33    -0.413164686110E+03   -0.85781E-05   -0.75923E-06  2769   0.209E-03    0.668E-04
RMM:  34    -0.413164685765E+03    0.34520E-06   -0.46313E-06  2510   0.137E-03
    1 T=    61. E= -.41286688E+03 F= -.41316469E+03 E0= -.41314219E+03  EK= 0.29780E+00 SP= 0.00E+00 SK= 0.00E+00
       N       E                     dE             d eps       ncg     rms          rms(c)
RMM:   1    -0.413170283578E+03   -0.55975E-02   -0.71729E+00  3977   0.535E-01    0.896E-01
RMM:   2    -0.413170644472E+03   -0.36089E-03   -0.90362E-02  3929   0.784E-02    0.660E-01
RMM:   3    -0.413166439535E+03    0.42049E-02   -0.36618E-02  5020   0.696E-02    0.229E-01
RMM:   4    -0.413192479347E+03   -0.26040E-01   -0.33802E-02  5178   0.155E-01    0.695E-01
RMM:   5    -0.413164170850E+03    0.28308E-01   -0.13331E-02  4802   0.118E-01    0.510E-02
RMM:   6    -0.413164367520E+03   -0.19667E-03   -0.24873E-03  5697   0.488E-02    0.341E-02
RMM:   7    -0.413164376115E+03   -0.85958E-05   -0.44606E-04  5732   0.190E-02    0.221E-02
RMM:   8    -0.413164373189E+03    0.29264E-05   -0.54692E-05  5206   0.833E-03    0.903E-03
RMM:   9    -0.413164375276E+03   -0.20867E-05   -0.11765E-05  3624   0.363E-03    0.619E-03
RMM:  10    -0.413164380422E+03   -0.51462E-05   -0.23076E-06  2600   0.226E-03    0.368E-03
RMM:  11    -0.413164384054E+03   -0.36325E-05   -0.11687E-06  2515   0.160E-03    0.204E-03
RMM:  12    -0.413164390309E+03   -0.62547E-05   -0.14601E-06  2532   0.172E-03    0.945E-04
RMM:  13    -0.413164393793E+03   -0.34843E-05   -0.73167E-07  2372   0.125E-03    0.719E-04
RMM:  14    -0.413164393769E+03    0.24349E-07   -0.34991E-07  1878   0.848E-04
    2 T=    61. E= -.41286664E+03 F= -.41316439E+03 E0= -.41314189E+03  EK= 0.29775E+00 SP= 0.00E+00 SK= 0.00E+00
       N       E                     dE             d eps       ncg     rms          rms(c)
RMM:   1    -0.413171313831E+03   -0.69200E-02   -0.71397E+00  4186   0.536E-01    0.912E-01
RMM:   2    -0.413170855325E+03    0.45851E-03   -0.90441E-02  3919   0.771E-02    0.658E-01
RMM:   3    -0.413166629027E+03    0.42263E-02   -0.33513E-02  5026   0.632E-02    0.195E-01
RMM:   4    -0.413193826068E+03   -0.27197E-01   -0.32921E-02  5147   0.153E-01    0.704E-01
RMM:   5    -0.413164791059E+03    0.29035E-01   -0.13374E-02  4799   0.118E-01    0.501E-02
RMM:   6    -0.413164985352E+03   -0.19429E-03   -0.25084E-03  5734   0.493E-02    0.362E-02
RMM:   7    -0.413164969842E+03    0.15509E-04   -0.44615E-04  5645   0.200E-02    0.233E-02
RMM:   8    -0.413164960545E+03    0.92972E-05   -0.58160E-05  5227   0.877E-03    0.103E-02
RMM:   9    -0.413164958625E+03    0.19198E-05   -0.11737E-05  3750   0.384E-03    0.708E-03
RMM:  10    -0.413164958735E+03   -0.11030E-06   -0.21614E-06  2584   0.236E-03
    3 T=    61. E= -.41286700E+03 F= -.41316496E+03 E0= -.41314246E+03  EK= 0.29796E+00 SP= 0.00E+00 SK= 0.00E+00
       N       E                     dE             d eps       ncg     rms          rms(c)
RMM:   1    -0.413170702007E+03   -0.57434E-02   -0.70917E+00  4221   0.541E-01    0.897E-01
RMM:   2    -0.413170510023E+03    0.19198E-03   -0.89999E-02  4257   0.768E-02    0.652E-01
RMM:   3    -0.413174405301E+03   -0.38953E-02   -0.38932E-02  5174   0.104E-01    0.423E-01
RMM:   4    -0.413180463514E+03   -0.60582E-02   -0.33554E-02  5083   0.160E-01    0.527E-01
RMM:   5    -0.413164733912E+03    0.15730E-01   -0.60078E-03  4594   0.884E-02    0.529E-02
RMM:   6    -0.413164731742E+03    0.21697E-05   -0.11928E-03  5326   0.349E-02    0.313E-02
RMM:   7    -0.413164740698E+03   -0.89552E-05   -0.24802E-04  5729   0.151E-02    0.180E-02
RMM:   8    -0.413164737291E+03    0.34068E-05   -0.38919E-05  4995   0.751E-03    0.679E-03
RMM:   9    -0.413164736665E+03    0.62559E-06   -0.43718E-06  2867   0.281E-03
    4 T=    61. E= -.41286684E+03 F= -.41316474E+03 E0= -.41314225E+03  EK= 0.29790E+00 SP= 0.00E+00 SK= 0.00E+00
       N       E                     dE             d eps       ncg     rms          rms(c)
RMM:   1    -0.413170703065E+03   -0.59658E-02   -0.71709E+00  4239   0.548E-01    0.894E-01
RMM:   2    -0.413170941544E+03   -0.23848E-03   -0.90652E-02  4101   0.763E-02    0.659E-01
RMM:   3    -0.413170168487E+03    0.77306E-03   -0.38450E-02  5106   0.859E-02    0.328E-01
RMM:   4    -0.413188707649E+03   -0.18539E-01   -0.35916E-02  5104   0.163E-01    0.646E-01
RMM:   5    -0.413164775858E+03    0.23932E-01   -0.10289E-02  4699   0.108E-01    0.524E-02
RMM:   6    -0.413164884392E+03   -0.10853E-03   -0.18863E-03  5617   0.434E-02    0.319E-02
RMM:   7    -0.413164898839E+03   -0.14447E-04   -0.34530E-04  5784   0.168E-02    0.200E-02
RMM:   8    -0.413164899196E+03   -0.35726E-06   -0.45917E-05  5056   0.798E-03    0.769E-03
RMM:   9    -0.413164901142E+03   -0.19453E-05   -0.70690E-06  3182   0.321E-03    0.455E-03
RMM:  10    -0.413164905802E+03   -0.46603E-05   -0.17280E-06  2550   0.209E-03    0.280E-03
RMM:  11    -0.413164909462E+03   -0.36596E-05   -0.95514E-07  2507   0.154E-03    0.141E-03
RMM:  12    -0.413164914134E+03   -0.46728E-05   -0.10038E-06  2505   0.144E-03    0.669E-04
RMM:  13    -0.413164916535E+03   -0.24008E-05   -0.53895E-07  2185   0.108E-03    0.398E-04
RMM:  14    -0.413164917001E+03   -0.46531E-06   -0.23690E-07  1642   0.794E-04
    5 T=    61. E= -.41286690E+03 F= -.41316492E+03 E0= -.41314244E+03  EK= 0.29802E+00 SP= 0.00E+00 SK= 0.00E+00
       N       E                     dE             d eps       ncg     rms          rms(c)
RMM:   1    -0.413171605041E+03   -0.66885E-02   -0.71551E+00  4246   0.549E-01    0.909E-01
RMM:   2    -0.413171177029E+03    0.42801E-03   -0.90512E-02  4068   0.762E-02    0.659E-01
RMM:   3    -0.413167635346E+03    0.35417E-02   -0.34306E-02  5040   0.665E-02    0.221E-01
RMM:   4    -0.413194955500E+03   -0.27320E-01   -0.35275E-02  5125   0.159E-01    0.713E-01
RMM:   5    -0.413165204313E+03    0.29751E-01   -0.13509E-02  4763   0.119E-01    0.517E-02
RMM:   6    -0.413165396685E+03   -0.19237E-03   -0.24703E-03  5677   0.493E-02    0.354E-02
RMM:   7    -0.413165390710E+03    0.59746E-05   -0.43589E-04  5667   0.193E-02    0.227E-02
RMM:   8    -0.413165383182E+03    0.75281E-05   -0.57472E-05  5241   0.867E-03    0.969E-03
RMM:   9    -0.413165381519E+03    0.16630E-05   -0.10824E-05  3673   0.375E-03    0.634E-03
RMM:  10    -0.413165381969E+03   -0.45031E-06   -0.20163E-06  2566   0.228E-03
    6 T=    61. E= -.41286709E+03 F= -.41316538E+03 E0= -.41314292E+03  EK= 0.29829E+00 SP= 0.00E+00 SK= 0.00E+00
       N       E                     dE             d eps       ncg     rms          rms(c)
RMM:   1    -0.413171210798E+03   -0.58293E-02   -0.71126E+00  4258   0.554E-01    0.903E-01
RMM:   2    -0.413170886119E+03    0.32468E-03   -0.90194E-02  4226   0.769E-02    0.653E-01
RMM:   3    -0.413172782118E+03   -0.18960E-02   -0.37039E-02  5143   0.950E-02    0.377E-01
RMM:   4    -0.413183659464E+03   -0.10877E-01   -0.34209E-02  5078   0.160E-01    0.568E-01
RMM:   5    -0.413165116480E+03    0.18543E-01   -0.72182E-03  4639   0.944E-02    0.531E-02
RMM:   6    -0.413165150703E+03   -0.34223E-04   -0.14142E-03  5424   0.379E-02    0.322E-02
RMM:   7    -0.413165157951E+03   -0.72480E-05   -0.27984E-04  5777   0.158E-02    0.191E-02
RMM:   8    -0.413165150665E+03    0.72860E-05   -0.43615E-05  5015   0.798E-03    0.730E-03
RMM:   9    -0.413165148331E+03    0.23343E-05   -0.55084E-06  2978   0.303E-03    0.385E-03
RMM:  10    -0.413165147868E+03    0.46224E-06   -0.14766E-06  2528   0.197E-03
    7 T=    61. E= -.41286678E+03 F= -.41316515E+03 E0= -.41314270E+03  EK= 0.29836E+00 SP= 0.00E+00 SK= 0.00E+00
       N       E                     dE             d eps       ncg     rms          rms(c)
RMM:   1    -0.413171410218E+03   -0.62619E-02   -0.71665E+00  4267   0.562E-01    0.892E-01
RMM:   2    -0.413171888510E+03   -0.47829E-03   -0.90376E-02  4088   0.778E-02    0.657E-01
RMM:   3    -0.413168696373E+03    0.31921E-02   -0.36525E-02  5032   0.746E-02    0.258E-01
RMM:   4    -0.413194320290E+03   -0.25624E-01   -0.35798E-02  5116   0.160E-01    0.703E-01
RMM:   5    -0.413165549254E+03    0.28771E-01   -0.13013E-02  4747   0.118E-01    0.510E-02
RMM:   6    -0.413165736750E+03   -0.18750E-03   -0.23778E-03  5676   0.482E-02    0.342E-02
RMM:   7    -0.413165733094E+03    0.36560E-05   -0.41762E-04  5666   0.192E-02    0.221E-02
RMM:   8    -0.413165727307E+03    0.57871E-05   -0.56821E-05  5182   0.867E-03    0.933E-03
RMM:   9    -0.413165727657E+03   -0.35025E-06   -0.10586E-05  3590   0.375E-03    0.605E-03
RMM:  10    -0.413165730366E+03   -0.27083E-05   -0.19896E-06  2569   0.226E-03    0.360E-03
RMM:  11    -0.413165732281E+03   -0.19157E-05   -0.97330E-07  2509   0.159E-03    0.199E-03
RMM:  12    -0.413165735356E+03   -0.30745E-05   -0.14080E-06  2538   0.173E-03    0.958E-04
RMM:  13    -0.413165736738E+03   -0.13817E-05   -0.69277E-07  2384   0.127E-03    0.745E-04
RMM:  14    -0.413165736557E+03    0.18087E-06   -0.24870E-07  1874   0.843E-04
    8 T=    61. E= -.41286699E+03 F= -.41316574E+03 E0= -.41314331E+03  EK= 0.29875E+00 SP= 0.00E+00 SK= 0.00E+00
       N       E                     dE             d eps       ncg     rms          rms(c)
RMM:   1    -0.413171960050E+03   -0.62233E-02   -0.71846E+00  4280   0.564E-01    0.906E-01
RMM:   2    -0.413172008371E+03   -0.48321E-04   -0.90544E-02  4147   0.789E-02    0.660E-01
RMM:   3    -0.413167895358E+03    0.41130E-02   -0.34873E-02  4986   0.681E-02    0.216E-01
RMM:   4    -0.413195055188E+03   -0.27160E-01   -0.33858E-02  5119   0.155E-01    0.709E-01
RMM:   5    -0.413165715870E+03    0.29339E-01   -0.13590E-02  4777   0.118E-01    0.498E-02
RMM:   6    -0.413165910379E+03   -0.19451E-03   -0.24421E-03  5711   0.488E-02    0.356E-02
RMM:   7    -0.413165900714E+03    0.96654E-05   -0.42963E-04  5623   0.197E-02    0.227E-02
RMM:   8    -0.413165894374E+03    0.63395E-05   -0.56736E-05  5177   0.870E-03    0.991E-03
RMM:   9    -0.413165892653E+03    0.17216E-05   -0.11144E-05  3695   0.380E-03    0.671E-03
RMM:  10    -0.413165893394E+03   -0.74163E-06   -0.20074E-06  2566   0.229E-03
    9 T=    61. E= -.41286689E+03 F= -.41316589E+03 E0= -.41314348E+03  EK= 0.29901E+00 SP= 0.00E+00 SK= 0.00E+00
       N       E                     dE             d eps       ncg     rms          rms(c)
RMM:   1    -0.413173111681E+03   -0.72190E-02   -0.71605E+00  4286   0.584E-01    0.909E-01
RMM:   2    -0.413171870607E+03    0.12411E-02   -0.91602E-02  4305   0.806E-02    0.656E-01
RMM:   3    -0.413174481123E+03   -0.26105E-02   -0.37392E-02  5138   0.996E-02    0.396E-01
RMM:   4    -0.413183374145E+03   -0.88930E-02   -0.34196E-02  5066   0.160E-01    0.551E-01
RMM:   5    -0.413165981682E+03    0.17392E-01   -0.66065E-03  4626   0.914E-02    0.534E-02
RMM:   6    -0.413165991559E+03   -0.98772E-05   -0.13389E-03  5385   0.365E-02    0.323E-02
RMM:   7    -0.413165991631E+03   -0.72090E-07   -0.26748E-04  5722   0.156E-02    0.188E-02
RMM:   8    -0.413165984748E+03    0.68831E-05   -0.42600E-05  5021   0.779E-03    0.714E-03
RMM:   9    -0.413165981697E+03    0.30510E-05   -0.49697E-06  2921   0.293E-03    0.374E-03
RMM:  10    -0.413165980178E+03    0.15196E-05   -0.14302E-06  2519   0.195E-03    0.225E-03
RMM:  11    -0.413165978394E+03    0.17832E-05   -0.91913E-07  2461   0.151E-03    0.111E-03
RMM:  12    -0.413165976116E+03    0.22785E-05   -0.73148E-07  2442   0.127E-03    0.501E-04
RMM:  13    -0.413165974644E+03    0.14717E-05   -0.35191E-07  1926   0.936E-04    0.311E-04
RMM:  14    -0.413165973046E+03    0.15983E-05   -0.22608E-07  1506   0.774E-04    0.185E-04
RMM:  15    -0.413165970123E+03    0.29229E-05   -0.31528E-07  1788   0.814E-04    0.277E-04
RMM:  16    -0.413165967387E+03    0.27355E-05   -0.22231E-07  1362   0.692E-04    0.175E-04
RMM:  17    -0.413165966187E+03    0.12000E-05   -0.10282E-07  1056   0.593E-04    0.897E-05
RMM:  18    -0.413165964525E+03    0.16627E-05   -0.91025E-08  1084   0.598E-04    0.483E-05
RMM:  19    -0.413165964253E+03    0.27121E-06   -0.35029E-08   776   0.535E-04
   10 T=    61. E= -.41286676E+03 F= -.41316596E+03 E0= -.41314358E+03  EK= 0.29921E+00 SP= 0.00E+00 SK= 0.00E+00
       N       E                     dE             d eps       ncg     rms          rms(c)
RMM:   1    -0.413172518761E+03   -0.65542E-02   -0.71637E+00  4289   0.574E-01    0.892E-01
RMM:   2    -0.413172737529E+03   -0.21877E-03   -0.90547E-02  4213   0.780E-02    0.655E-01
RMM:   3    -0.413169163450E+03    0.35741E-02   -0.35431E-02  5010   0.694E-02    0.235E-01
RMM:   4    -0.413195952210E+03   -0.26789E-01   -0.35201E-02  5112   0.158E-01    0.710E-01
RMM:   5    -0.413166578407E+03    0.29374E-01   -0.13545E-02  4756   0.118E-01    0.503E-02
RMM:   6    -0.413166767012E+03   -0.18860E-03   -0.24141E-03  5668   0.486E-02    0.349E-02
RMM:   7    -0.413166758789E+03    0.82229E-05   -0.42450E-04  5593   0.193E-02    0.224E-02
RMM:   8    -0.413166753650E+03    0.51385E-05   -0.57040E-05  5201   0.857E-03    0.958E-03
RMM:   9    -0.413166753011E+03    0.63898E-06   -0.10738E-05  3690   0.375E-03    0.634E-03
RMM:  10    -0.413166755054E+03   -0.20426E-05   -0.19230E-06  2557   0.223E-03    0.378E-03
RMM:  11    -0.413166756272E+03   -0.12178E-05   -0.90263E-07  2490   0.156E-03    0.213E-03
RMM:  12    -0.413166758178E+03   -0.19061E-05   -0.13311E-06  2516   0.173E-03    0.103E-03
RMM:  13    -0.413166758880E+03   -0.70234E-06   -0.59806E-07  2375   0.126E-03
   11 T=    61. E= -.41286711E+03 F= -.41316676E+03 E0= -.41314440E+03  EK= 0.29965E+00 SP= 0.00E+00 SK= 0.00E+00
       N       E                     dE             d eps       ncg     rms          rms(c)
RMM:   1    -0.413172757691E+03   -0.59995E-02   -0.72212E+00  4294   0.579E-01    0.903E-01
RMM:   2    -0.413172702453E+03    0.55237E-04   -0.91165E-02  4229   0.774E-02    0.662E-01
RMM:   3    -0.413168801434E+03    0.39010E-02   -0.35551E-02  4991   0.671E-02    0.222E-01
RMM:   4    -0.413195783713E+03   -0.26982E-01   -0.34002E-02  5119   0.155E-01    0.708E-01
RMM:   5    -0.413166542554E+03    0.29241E-01   -0.13605E-02  4764   0.118E-01    0.493E-02
RMM:   6    -0.413166745102E+03   -0.20255E-03   -0.24783E-03  5731   0.487E-02    0.349E-02
RMM:   7    -0.413166737778E+03    0.73233E-05   -0.42425E-04  5626   0.197E-02    0.226E-02
RMM:   8    -0.413166731685E+03    0.60933E-05   -0.58163E-05  5113   0.872E-03    0.102E-02
RMM:   9    -0.413166730159E+03    0.15258E-05   -0.11283E-05  3697   0.386E-03    0.695E-03
RMM:  10    -0.413166731305E+03   -0.11454E-05   -0.19926E-06  2567   0.229E-03    0.409E-03
RMM:  11    -0.413166732132E+03   -0.82745E-06   -0.10179E-06  2490   0.166E-03
   12 T=    61. E= -.41286683E+03 F= -.41316673E+03 E0= -.41314440E+03  EK= 0.29991E+00 SP= 0.00E+00 SK= 0.00E+00
       N       E                     dE             d eps       ncg     rms          rms(c)
RMM:   1    -0.413173692734E+03   -0.69614E-02   -0.71933E+00  4290   0.586E-01    0.914E-01
RMM:   2    -0.413172957524E+03    0.73521E-03   -0.91371E-02  4246   0.777E-02    0.658E-01
RMM:   3    -0.413168756207E+03    0.42013E-02   -0.32661E-02  4985   0.593E-02    0.179E-01
RMM:   4    -0.413195589650E+03   -0.26833E-01   -0.31575E-02  5124   0.149E-01    0.697E-01
RMM:   5    -0.413167155018E+03    0.28435E-01   -0.13308E-02  4786   0.116E-01    0.492E-02
RMM:   6    -0.413167352004E+03   -0.19699E-03   -0.24338E-03  5749   0.484E-02    0.358E-02
RMM:   7    -0.413167333877E+03    0.18127E-04   -0.42291E-04  5637   0.200E-02    0.231E-02
RMM:   8    -0.413167319913E+03    0.13964E-04   -0.56219E-05  5071   0.867E-03    0.106E-02
RMM:   9    -0.413167315237E+03    0.46759E-05   -0.11438E-05  3702   0.387E-03    0.742E-03
RMM:  10    -0.413167311812E+03    0.34251E-05   -0.21417E-06  2578   0.238E-03    0.429E-03
RMM:  11    -0.413167309445E+03    0.23667E-05   -0.11350E-06  2504   0.174E-03    0.243E-03
RMM:  12    -0.413167304862E+03    0.45832E-05   -0.17403E-06  2569   0.196E-03    0.116E-03
RMM:  13    -0.413167301637E+03    0.32256E-05   -0.64167E-07  2407   0.135E-03    0.918E-04
RMM:  14    -0.413167301727E+03   -0.90044E-07   -0.24254E-07  1917   0.862E-04
   13 T=    61. E= -.41286694E+03 F= -.41316730E+03 E0= -.41314500E+03  EK= 0.30036E+00 SP= 0.00E+00 SK= 0.00E+00
       N       E                     dE             d eps       ncg     rms          rms(c)
RMM:   1    -0.413173649825E+03   -0.63482E-02   -0.71728E+00  4295   0.585E-01    0.894E-01
RMM:   2    -0.413173822292E+03   -0.17247E-03   -0.90672E-02  4244   0.775E-02    0.654E-01
RMM:   3    -0.413169963266E+03    0.38590E-02   -0.34341E-02  5004   0.648E-02    0.215E-01
RMM:   4    -0.413197145690E+03   -0.27182E-01   -0.34076E-02  5118   0.155E-01    0.709E-01
RMM:   5    -0.413167777505E+03    0.29368E-01   -0.13626E-02  4768   0.118E-01    0.497E-02
RMM:   6    -0.413167971995E+03   -0.19449E-03   -0.24516E-03  5706   0.488E-02    0.353E-02
RMM:   7    -0.413167962976E+03    0.90185E-05   -0.42792E-04  5592   0.197E-02    0.227E-02
RMM:   8    -0.413167953265E+03    0.97111E-05   -0.58319E-05  5163   0.868E-03    0.101E-02
RMM:   9    -0.413167950245E+03    0.30204E-05   -0.11032E-05  3692   0.383E-03    0.684E-03
RMM:  10    -0.413167949797E+03    0.44792E-06   -0.19910E-06  2557   0.231E-03
   14 T=    61. E= -.41286707E+03 F= -.41316795E+03 E0= -.41314568E+03  EK= 0.30088E+00 SP= 0.00E+00 SK= 0.00E+00
       N       E                     dE             d eps       ncg     rms          rms(c)
RMM:   1    -0.413173805405E+03   -0.58552E-02   -0.72642E+00  4303   0.592E-01    0.901E-01
RMM:   2    -0.413174217087E+03   -0.41168E-03   -0.91511E-02  4316   0.796E-02    0.663E-01
RMM:   3    -0.413178256424E+03   -0.40393E-02   -0.41499E-02  5129   0.107E-01    0.438E-01
RMM:   4    -0.413184342663E+03   -0.60862E-02   -0.34897E-02  5049   0.162E-01    0.539E-01
RMM:   5    -0.413168007917E+03    0.16335E-01   -0.65388E-03  4583   0.911E-02    0.517E-02
RMM:   6    -0.413168028212E+03   -0.20295E-04   -0.12633E-03  5358   0.348E-02    0.309E-02
RMM:   7    -0.413168030756E+03   -0.25435E-05   -0.24857E-04  5635   0.150E-02    0.177E-02
RMM:   8    -0.413168027419E+03    0.33363E-05   -0.38235E-05  4897   0.772E-03    0.653E-03
RMM:   9    -0.413168026693E+03    0.72624E-06   -0.45788E-06  2853   0.286E-03
   15 T=    61. E= -.41286669E+03 F= -.41316803E+03 E0= -.41314579E+03  EK= 0.30133E+00 SP= 0.00E+00 SK= 0.00E+00
       N       E                     dE             d eps       ncg     rms          rms(c)
RMM:   1    -0.413175314670E+03   -0.72873E-02   -0.72406E+00  4297   0.594E-01    0.916E-01
RMM:   2    -0.413174995766E+03    0.31890E-03   -0.91685E-02  4265   0.801E-02    0.661E-01
RMM:   3    -0.413174238161E+03    0.75760E-03   -0.35216E-02  5099   0.852E-02    0.313E-01
RMM:   4    -0.413193017694E+03   -0.18780E-01   -0.36608E-02  5082   0.163E-01    0.643E-01
RMM:   5    -0.413168989832E+03    0.24028E-01   -0.98751E-03  4688   0.106E-01    0.533E-02
RMM:   6    -0.413169083368E+03   -0.93536E-04   -0.19532E-03  5589   0.435E-02    0.339E-02
RMM:   7    -0.413169076068E+03    0.72997E-05   -0.35529E-04  5704   0.178E-02    0.211E-02
RMM:   8    -0.413169068102E+03    0.79657E-05   -0.49214E-05  5062   0.847E-03    0.831E-03
RMM:   9    -0.413169063744E+03    0.43585E-05   -0.79012E-06  3228   0.337E-03    0.480E-03
RMM:  10    -0.413169060587E+03    0.31564E-05   -0.18081E-06  2541   0.218E-03    0.291E-03
RMM:  11    -0.413169057797E+03    0.27907E-05   -0.93390E-07  2486   0.157E-03    0.150E-03
RMM:  12    -0.413169053099E+03    0.46976E-05   -0.94614E-07  2486   0.148E-03    0.709E-04
RMM:  13    -0.413169049546E+03    0.35529E-05   -0.48710E-07  2239   0.110E-03    0.443E-04
RMM:  14    -0.413169048504E+03    0.10422E-05   -0.21596E-07  1680   0.794E-04    0.298E-04
RMM:  15    -0.413169042875E+03    0.56294E-05   -0.31376E-07  1967   0.870E-04    0.484E-04
RMM:  16    -0.413169039360E+03    0.35145E-05   -0.15278E-07  1242   0.653E-04    0.363E-04
RMM:  17    -0.413169037645E+03    0.17157E-05   -0.81510E-08   976   0.575E-04    0.248E-04
RMM:  18    -0.413169035682E+03    0.19624E-05   -0.67818E-08  1002   0.585E-04    0.110E-04
RMM:  19    -0.413169033827E+03    0.18554E-05   -0.71579E-08  1208   0.616E-04    0.142E-04
RMM:  20    -0.413169033866E+03   -0.39094E-07   -0.18770E-08   708   0.534E-04
   16 T=    62. E= -.41286692E+03 F= -.41316903E+03 E0= -.41314684E+03  EK= 0.30211E+00 SP= 0.00E+00 SK= 0.00E+00
       N       E                     dE             d eps       ncg     rms          rms(c)
RMM:   1    -0.413175390336E+03   -0.63565E-02   -0.72094E+00  4295   0.598E-01    0.899E-01
RMM:   2    -0.413175521956E+03   -0.13162E-03   -0.91424E-02  4252   0.799E-02    0.655E-01
RMM:   3    -0.413171858167E+03    0.36638E-02   -0.33870E-02  5001   0.699E-02    0.224E-01
RMM:   4    -0.413199626331E+03   -0.27768E-01   -0.36190E-02  5101   0.160E-01    0.719E-01
RMM:   5    -0.413169381469E+03    0.30245E-01   -0.13841E-02  4753   0.119E-01    0.509E-02
RMM:   6    -0.413169562269E+03   -0.18080E-03   -0.25218E-03  5691   0.494E-02    0.359E-02
RMM:   7    -0.413169540531E+03    0.21738E-04   -0.43531E-04  5591   0.198E-02    0.230E-02
RMM:   8    -0.413169531573E+03    0.89576E-05   -0.59141E-05  5177   0.891E-03    0.101E-02
RMM:   9    -0.413169528112E+03    0.34607E-05   -0.11370E-05  3738   0.388E-03    0.664E-03
RMM:  10    -0.413169526904E+03    0.12083E-05   -0.20166E-06  2556   0.230E-03    0.394E-03
RMM:  11    -0.413169526067E+03    0.83637E-06   -0.93797E-07  2490   0.160E-03
   17 T=    62. E= -.41286685E+03 F= -.41316953E+03 E0= -.41314737E+03  EK= 0.30268E+00 SP= 0.00E+00 SK= 0.00E+00
       N       E                     dE             d eps       ncg     rms          rms(c)
RMM:   1    -0.413175843252E+03   -0.63163E-02   -0.73093E+00  4300   0.605E-01    0.900E-01
RMM:   2    -0.413176206454E+03   -0.36320E-03   -0.92430E-02  4255   0.805E-02    0.664E-01
RMM:   3    -0.413171912887E+03    0.42936E-02   -0.36070E-02  4946   0.668E-02    0.218E-01
RMM:   4    -0.413198368192E+03   -0.26455E-01   -0.32434E-02  5108   0.151E-01    0.699E-01
RMM:   5    -0.413169860304E+03    0.28508E-01   -0.13463E-02  4773   0.117E-01    0.486E-02
RMM:   6    -0.413170049267E+03   -0.18896E-03   -0.24145E-03  5726   0.479E-02    0.343E-02
RMM:   7    -0.413170035909E+03    0.13358E-04   -0.41400E-04  5631   0.196E-02    0.223E-02
RMM:   8    -0.413170027796E+03    0.81127E-05   -0.55801E-05  5043   0.860E-03    0.100E-02
RMM:   9    -0.413170025967E+03    0.18293E-05   -0.11201E-05  3670   0.384E-03    0.698E-03
RMM:  10    -0.413170026588E+03   -0.62067E-06   -0.19661E-06  2559   0.228E-03
   18 T=    62. E= -.41286677E+03 F= -.41317003E+03 E0= -.41314791E+03  EK= 0.30326E+00 SP= 0.00E+00 SK= 0.00E+00
       N       E                     dE             d eps       ncg     rms          rms(c)
RMM:   1    -0.413177423222E+03   -0.73973E-02   -0.72964E+00  4302   0.606E-01    0.916E-01
RMM:   2    -0.413177093608E+03    0.32961E-03   -0.92637E-02  4325   0.814E-02    0.664E-01
RMM:   3    -0.413180489767E+03   -0.33962E-02   -0.38488E-02  5133   0.102E-01    0.412E-01
RMM:   4    -0.413188335519E+03   -0.78458E-02   -0.35089E-02  5053   0.162E-01    0.546E-01
RMM:   5    -0.413171219409E+03    0.17116E-01   -0.64682E-03  4598   0.912E-02    0.528E-02
RMM:   6    -0.413171240859E+03   -0.21449E-04   -0.13563E-03  5379   0.357E-02    0.323E-02
RMM:   7    -0.413171232495E+03    0.83639E-05   -0.26292E-04  5623   0.157E-02    0.186E-02
RMM:   8    -0.413171226285E+03    0.62098E-05   -0.40396E-05  4952   0.780E-03    0.699E-03
RMM:   9    -0.413171222452E+03    0.38327E-05   -0.51059E-06  2922   0.297E-03    0.375E-03
RMM:  10    -0.413171219630E+03    0.28222E-05   -0.13869E-06  2511   0.195E-03    0.222E-03
RMM:  11    -0.413171216699E+03    0.29310E-05   -0.81892E-07  2451   0.146E-03    0.110E-03
RMM:  12    -0.413171212611E+03    0.40878E-05   -0.65703E-07  2423   0.125E-03    0.516E-04
RMM:  13    -0.413171209928E+03    0.26826E-05   -0.31740E-07  1906   0.921E-04    0.318E-04
RMM:  14    -0.413171207681E+03    0.22479E-05   -0.17939E-07  1438   0.735E-04    0.197E-04
RMM:  15    -0.413171202880E+03    0.48009E-05   -0.20516E-07  1563   0.756E-04    0.260E-04
RMM:  16    -0.413171198682E+03    0.41973E-05   -0.14074E-07  1195   0.653E-04    0.182E-04
RMM:  17    -0.413171196720E+03    0.19629E-05   -0.74956E-08   987   0.586E-04    0.946E-05
RMM:  18    -0.413171194112E+03    0.26076E-05   -0.64504E-08  1011   0.588E-04    0.368E-05
RMM:  19    -0.413171193286E+03    0.82641E-06   -0.31579E-08   818   0.549E-04
   19 T=    62. E= -.41286706E+03 F= -.41317119E+03 E0= -.41314912E+03  EK= 0.30414E+00 SP= 0.00E+00 SK= 0.00E+00
       N       E                     dE             d eps       ncg     rms          rms(c)
RMM:   1    -0.413177554589E+03   -0.63605E-02   -0.72650E+00  4295   0.613E-01    0.906E-01
RMM:   2    -0.413177348333E+03    0.20626E-03   -0.92323E-02  4259   0.809E-02    0.658E-01
RMM:   3    -0.413174062944E+03    0.32854E-02   -0.33292E-02  5039   0.688E-02    0.223E-01
RMM:   4    -0.413202249239E+03   -0.28186E-01   -0.37208E-02  5100   0.162E-01    0.724E-01
RMM:   5    -0.413171494244E+03    0.30755E-01   -0.14039E-02  4756   0.120E-01    0.517E-02
RMM:   6    -0.413171681906E+03   -0.18766E-03   -0.25546E-03  5692   0.499E-02    0.363E-02
RMM:   7    -0.413171669049E+03    0.12857E-04   -0.44521E-04  5587   0.201E-02    0.234E-02
RMM:   8    -0.413171657993E+03    0.11056E-04   -0.61808E-05  5170   0.927E-03    0.103E-02
RMM:   9    -0.413171653442E+03    0.45516E-05   -0.12089E-05  3776   0.400E-03    0.667E-03
RMM:  10    -0.413171650776E+03    0.26652E-05   -0.21102E-06  2566   0.235E-03    0.396E-03
RMM:  11    -0.413171649025E+03    0.17514E-05   -0.96362E-07  2495   0.161E-03    0.228E-03
RMM:  12    -0.413171645268E+03    0.37567E-05   -0.14210E-06  2526   0.182E-03    0.108E-03
RMM:  13    -0.413171642406E+03    0.28617E-05   -0.64123E-07  2396   0.132E-03    0.874E-04
RMM:  14    -0.413171642172E+03    0.23423E-06   -0.25700E-07  1940   0.885E-04
   20 T=    62. E= -.41286680E+03 F= -.41317164E+03 E0= -.41314961E+03  EK= 0.30484E+00 SP= 0.00E+00 SK= 0.00E+00
       N       E                     dE             d eps       ncg     rms          rms(c)
RMM:   1    -0.413178462981E+03   -0.68206E-02   -0.73512E+00  4295   0.620E-01    0.900E-01
RMM:   2    -0.413178753624E+03   -0.29064E-03   -0.92848E-02  4265   0.805E-02    0.664E-01
RMM:   3    -0.413174902160E+03    0.38515E-02   -0.35800E-02  4993   0.674E-02    0.224E-01
RMM:   4    -0.413202322421E+03   -0.27420E-01   -0.34532E-02  5111   0.157E-01    0.713E-01
RMM:   5    -0.413172575229E+03    0.29747E-01   -0.13923E-02  4765   0.119E-01    0.496E-02
RMM:   6    -0.413172768907E+03   -0.19368E-03   -0.25239E-03  5729   0.491E-02    0.347E-02
RMM:   7    -0.413172769778E+03   -0.87084E-06   -0.42270E-04  5603   0.198E-02    0.226E-02
RMM:   8    -0.413172764112E+03    0.56655E-05   -0.61236E-05  5101   0.908E-03    0.104E-02
RMM:   9    -0.413172761117E+03    0.29953E-05   -0.12125E-05  3774   0.401E-03    0.703E-03
RMM:  10    -0.413172761007E+03    0.10957E-06   -0.20192E-06  2557   0.233E-03
   21 T=    62. E= -.41286697E+03 F= -.41317276E+03 E0= -.41315077E+03  EK= 0.30580E+00 SP= 0.00E+00 SK= 0.00E+00
       N       E                     dE             d eps       ncg     rms          rms(c)
RMM:   1    -0.413179866908E+03   -0.71058E-02   -0.73679E+00  4300   0.621E-01    0.916E-01
RMM:   2    -0.413179884759E+03   -0.17850E-04   -0.93242E-02  4332   0.829E-02    0.667E-01
RMM:   3    -0.413183239890E+03   -0.33551E-02   -0.39021E-02  5130   0.103E-01    0.414E-01
RMM:   4    -0.413191482476E+03   -0.82426E-02   -0.35592E-02  5044   0.163E-01    0.554E-01
RMM:   5    -0.413173872415E+03    0.17610E-01   -0.66650E-03  4595   0.930E-02    0.524E-02
RMM:   6    -0.413173907440E+03   -0.35025E-04   -0.13956E-03  5388   0.364E-02    0.322E-02
RMM:   7    -0.413173912144E+03   -0.47041E-05   -0.27162E-04  5624   0.159E-02    0.189E-02
RMM:   8    -0.413173903841E+03    0.83034E-05   -0.42654E-05  4962   0.791E-03    0.714E-03
RMM:   9    -0.413173899553E+03    0.42878E-05   -0.52502E-06  2923   0.306E-03    0.384E-03
RMM:  10    -0.413173897062E+03    0.24910E-05   -0.13672E-06  2507   0.195E-03    0.229E-03
RMM:  11    -0.413173894385E+03    0.26769E-05   -0.80328E-07  2448   0.146E-03    0.115E-03
RMM:  12    -0.413173890515E+03    0.38699E-05   -0.65782E-07  2423   0.125E-03    0.520E-04
RMM:  13    -0.413173888017E+03    0.24984E-05   -0.31258E-07  1917   0.919E-04    0.320E-04
RMM:  14    -0.413173886060E+03    0.19562E-05   -0.17051E-07  1415   0.725E-04    0.202E-04
RMM:  15    -0.413173881193E+03    0.48679E-05   -0.19876E-07  1561   0.750E-04    0.273E-04
RMM:  16    -0.413173877217E+03    0.39754E-05   -0.12008E-07  1108   0.633E-04    0.186E-04
RMM:  17    -0.413173875233E+03    0.19839E-05   -0.67203E-08   946   0.582E-04    0.981E-05
RMM:  18    -0.413173872401E+03    0.28318E-05   -0.61982E-08  1002   0.593E-04    0.390E-05
RMM:  19    -0.413173871422E+03    0.97923E-06   -0.29923E-08   812   0.554E-04
   22 T=    62. E= -.41286701E+03 F= -.41317387E+03 E0= -.41315193E+03  EK= 0.30686E+00 SP= 0.00E+00 SK= 0.00E+00
       N       E                     dE             d eps       ncg     rms          rms(c)
RMM:   1    -0.413181547799E+03   -0.76754E-02   -0.73574E+00  4295   0.642E-01    0.915E-01
RMM:   2    -0.413180531092E+03    0.10167E-02   -0.94145E-02  4275   0.827E-02    0.662E-01
RMM:   3    -0.413176537833E+03    0.39933E-02   -0.32646E-02  4986   0.681E-02    0.204E-01
RMM:   4    -0.413206006772E+03   -0.29469E-01   -0.36771E-02  5106   0.161E-01    0.733E-01
RMM:   5    -0.413174397335E+03    0.31609E-01   -0.14616E-02  4772   0.122E-01    0.515E-02
RMM:   6    -0.413174588210E+03   -0.19088E-03   -0.26917E-03  5708   0.508E-02    0.369E-02
RMM:   7    -0.413174572706E+03    0.15504E-04   -0.45750E-04  5579   0.205E-02    0.239E-02
RMM:   8    -0.413174561850E+03    0.10856E-04   -0.65179E-05  5188   0.929E-03    0.109E-02
RMM:   9    -0.413174556507E+03    0.53427E-05   -0.12494E-05  3843   0.406E-03    0.726E-03
RMM:  10    -0.413174552743E+03    0.37647E-05   -0.21945E-06  2573   0.239E-03    0.429E-03
RMM:  11    -0.413174550199E+03    0.25438E-05   -0.10637E-06  2509   0.167E-03    0.248E-03
RMM:  12    -0.413174545034E+03    0.51651E-05   -0.16162E-06  2551   0.194E-03    0.116E-03
RMM:  13    -0.413174541290E+03    0.37441E-05   -0.68471E-07  2407   0.137E-03    0.963E-04
RMM:  14    -0.413174541208E+03    0.81876E-07   -0.26747E-07  1987   0.902E-04
   23 T=    63. E= -.41286663E+03 F= -.41317454E+03 E0= -.41315265E+03  EK= 0.30791E+00 SP= 0.00E+00 SK= 0.00E+00
       N       E                     dE             d eps       ncg     rms          rms(c)
RMM:   1    -0.413181850252E+03   -0.73090E-02   -0.74073E+00  4295   0.632E-01    0.902E-01
RMM:   2    -0.413182518641E+03   -0.66839E-03   -0.93992E-02  4286   0.839E-02    0.665E-01
RMM:   3    -0.413177871889E+03    0.46468E-02   -0.35080E-02  4916   0.689E-02    0.204E-01
RMM:   4    -0.413204593648E+03   -0.26722E-01   -0.31893E-02  5114   0.150E-01    0.699E-01
RMM:   5    -0.413175978990E+03    0.28615E-01   -0.13570E-02  4781   0.117E-01    0.486E-02
RMM:   6    -0.413176164926E+03   -0.18594E-03   -0.24937E-03  5772   0.481E-02    0.336E-02
RMM:   7    -0.413176161618E+03    0.33079E-05   -0.39313E-04  5610   0.194E-02    0.220E-02
RMM:   8    -0.413176152214E+03    0.94043E-05   -0.64123E-05  5021   0.904E-03    0.108E-02
RMM:   9    -0.413176148436E+03    0.37785E-05   -0.12550E-05  3848   0.411E-03    0.755E-03
RMM:  10    -0.413176147346E+03    0.10893E-05   -0.20736E-06  2564   0.236E-03    0.446E-03
RMM:  11    -0.413176146430E+03    0.91645E-06   -0.12438E-06  2504   0.180E-03
   24 T=    63. E= -.41286687E+03 F= -.41317615E+03 E0= -.41315430E+03  EK= 0.30927E+00 SP= 0.00E+00 SK= 0.00E+00
       N       E                     dE             d eps       ncg     rms          rms(c)
RMM:   1    -0.413183250686E+03   -0.71033E-02   -0.74668E+00  4297   0.637E-01    0.916E-01
RMM:   2    -0.413183464664E+03   -0.21398E-03   -0.94758E-02  4294   0.850E-02    0.671E-01
RMM:   3    -0.413178388219E+03    0.50764E-02   -0.34365E-02  4834   0.650E-02    0.177E-01
RMM:   4    -0.413200997228E+03   -0.22609E-01   -0.25448E-02  5110   0.135E-01    0.641E-01
RMM:   5    -0.413177058775E+03    0.23938E-01   -0.11392E-02  4785   0.107E-01    0.464E-02
RMM:   6    -0.413177205776E+03   -0.14700E-03   -0.21071E-03  5815   0.435E-02    0.301E-02
RMM:   7    -0.413177204858E+03    0.91852E-06   -0.23887E-04  5669   0.160E-02    0.162E-02
RMM:   8    -0.413177200813E+03    0.40446E-05   -0.52237E-05  4992   0.750E-03    0.105E-02
RMM:   9    -0.413177195892E+03    0.49214E-05   -0.10648E-05  3816   0.382E-03    0.753E-03
RMM:  10    -0.413177193842E+03    0.20497E-05   -0.18763E-06  2550   0.232E-03    0.443E-03
RMM:  11    -0.413177191587E+03    0.22555E-05   -0.16107E-06  2535   0.198E-03    0.236E-03
RMM:  12    -0.413177187830E+03    0.37565E-05   -0.14388E-06  2513   0.187E-03    0.104E-03
RMM:  13    -0.413177185927E+03    0.19029E-05   -0.45174E-07  2283   0.119E-03    0.659E-04
RMM:  14    -0.413177185502E+03    0.42516E-06   -0.20847E-07  1741   0.808E-04
   25 T=    63. E= -.41286670E+03 F= -.41317719E+03 E0= -.41315539E+03  EK= 0.31049E+00 SP= 0.00E+00 SK= 0.00E+00
       N       E                     dE             d eps       ncg     rms          rms(c)
RMM:   1    -0.413185058169E+03   -0.78722E-02   -0.74578E+00  4292   0.653E-01    0.924E-01
RMM:   2    -0.413184452471E+03    0.60570E-03   -0.95576E-02  4289   0.873E-02    0.667E-01
RMM:   3    -0.413179844167E+03    0.46083E-02   -0.32243E-02  4905   0.656E-02    0.171E-01
RMM:   4    -0.413207637058E+03   -0.27793E-01   -0.31978E-02  5114   0.150E-01    0.706E-01
RMM:   5    -0.413178360937E+03    0.29276E-01   -0.13838E-02  4777   0.118E-01    0.500E-02
RMM:   6    -0.413178549426E+03   -0.18849E-03   -0.25818E-03  5780   0.489E-02    0.362E-02
RMM:   7    -0.413178543038E+03    0.63874E-05   -0.42894E-04  5587   0.203E-02    0.234E-02
RMM:   8    -0.413178530729E+03    0.12310E-04   -0.63676E-05  5076   0.930E-03    0.113E-02
RMM:   9    -0.413178524385E+03    0.63433E-05   -0.12568E-05  3800   0.413E-03    0.780E-03
RMM:  10    -0.413178519132E+03    0.52530E-05   -0.22853E-06  2592   0.248E-03    0.453E-03
RMM:  11    -0.413178514987E+03    0.41451E-05   -0.13177E-06  2518   0.184E-03    0.248E-03
RMM:  12    -0.413178507853E+03    0.71341E-05   -0.17712E-06  2570   0.202E-03    0.115E-03
RMM:  13    -0.413178503782E+03    0.40715E-05   -0.60156E-07  2389   0.134E-03    0.842E-04
RMM:  14    -0.413178503546E+03    0.23530E-06   -0.25882E-07  1951   0.882E-04
   26 T=    63. E= -.41286664E+03 F= -.41317850E+03 E0= -.41315676E+03  EK= 0.31186E+00 SP= 0.00E+00 SK= 0.00E+00
       N       E                     dE             d eps       ncg     rms          rms(c)
RMM:   1    -0.413186188891E+03   -0.76851E-02   -0.74793E+00  4291   0.656E-01    0.907E-01
RMM:   2    -0.413186363482E+03   -0.17459E-03   -0.95828E-02  4287   0.924E-02    0.666E-01
RMM:   3    -0.413181561466E+03    0.48020E-02   -0.33742E-02  4873   0.645E-02    0.176E-01
RMM:   4    -0.413205664529E+03   -0.24103E-01   -0.27403E-02  5119   0.140E-01    0.661E-01
RMM:   5    -0.413180191004E+03    0.25474E-01   -0.12175E-02  4777   0.110E-01    0.471E-02
RMM:   6    -0.413180342474E+03   -0.15147E-03   -0.22151E-03  5821   0.447E-02    0.320E-02
RMM:   7    -0.413180343762E+03   -0.12880E-05   -0.31999E-04  5612   0.183E-02    0.199E-02
RMM:   8    -0.413180336031E+03    0.77308E-05   -0.60534E-05  4960   0.873E-03    0.107E-02
RMM:   9    -0.413180331454E+03    0.45768E-05   -0.11764E-05  3829   0.409E-03    0.753E-03
RMM:  10    -0.413180329139E+03    0.23156E-05   -0.20166E-06  2569   0.239E-03    0.436E-03
RMM:  11    -0.413180326792E+03    0.23462E-05   -0.14350E-06  2522   0.191E-03    0.227E-03
RMM:  12    -0.413180323164E+03    0.36282E-05   -0.14805E-06  2524   0.189E-03    0.109E-03
RMM:  13    -0.413180321259E+03    0.19055E-05   -0.48369E-07  2319   0.123E-03    0.681E-04
RMM:  14    -0.413180320661E+03    0.59760E-06   -0.22124E-07  1803   0.826E-04
   27 T=    64. E= -.41286686E+03 F= -.41318032E+03 E0= -.41315862E+03  EK= 0.31346E+00 SP= 0.00E+00 SK= 0.00E+00
       N       E                     dE             d eps       ncg     rms          rms(c)
RMM:   1    -0.413187769164E+03   -0.74479E-02   -0.75854E+00  4292   0.664E-01    0.918E-01
RMM:   2    -0.413187589117E+03    0.18005E-03   -0.97116E-02  4284   0.912E-02    0.675E-01
RMM:   3    -0.413182781749E+03    0.48074E-02   -0.35164E-02  4904   0.642E-02    0.189E-01
RMM:   4    -0.413207784420E+03   -0.25003E-01   -0.28784E-02  5117   0.144E-01    0.674E-01
RMM:   5    -0.413181239237E+03    0.26545E-01   -0.12590E-02  4773   0.112E-01    0.478E-02
RMM:   6    -0.413181411320E+03   -0.17208E-03   -0.23184E-03  5812   0.459E-02    0.335E-02
RMM:   7    -0.413181415030E+03   -0.37104E-05   -0.36559E-04  5579   0.193E-02    0.216E-02
RMM:   8    -0.413181408506E+03    0.65243E-05   -0.60381E-05  4987   0.906E-03    0.108E-02
RMM:   9    -0.413181405081E+03    0.34253E-05   -0.11828E-05  3764   0.411E-03    0.750E-03
RMM:  10    -0.413181403641E+03    0.14401E-05   -0.22115E-06  2590   0.250E-03    0.432E-03
RMM:  11    -0.413181402149E+03    0.14916E-05   -0.14035E-06  2523   0.191E-03    0.224E-03
RMM:  12    -0.413181399583E+03    0.25662E-05   -0.15190E-06  2520   0.195E-03    0.109E-03
RMM:  13    -0.413181397980E+03    0.16025E-05   -0.51305E-07  2335   0.126E-03    0.706E-04
RMM:  14    -0.413181397448E+03    0.53252E-06   -0.23217E-07  1844   0.843E-04
   28 T=    64. E= -.41286649E+03 F= -.41318140E+03 E0= -.41315975E+03  EK= 0.31491E+00 SP= 0.00E+00 SK= 0.00E+00
       N       E                     dE             d eps       ncg     rms          rms(c)
RMM:   1    -0.413192177933E+03   -0.10780E-01   -0.76012E+00  4292   0.692E-01    0.933E-01
RMM:   2    -0.413189655424E+03    0.25225E-02   -0.99270E-02  4286   0.953E-02    0.674E-01
RMM:   3    -0.413184485232E+03    0.51702E-02   -0.31984E-02  4856   0.629E-02    0.151E-01
RMM:   4    -0.413209438784E+03   -0.24954E-01   -0.27413E-02  5126   0.140E-01    0.668E-01
RMM:   5    -0.413183356928E+03    0.26082E-01   -0.12510E-02  4782   0.111E-01    0.483E-02
RMM:   6    -0.413183504990E+03   -0.14806E-03   -0.22868E-03  5837   0.454E-02    0.341E-02
RMM:   7    -0.413183499523E+03    0.54670E-05   -0.33852E-04  5583   0.189E-02    0.210E-02
RMM:   8    -0.413183488761E+03    0.10762E-04   -0.62196E-05  4981   0.895E-03    0.112E-02
RMM:   9    -0.413183482134E+03    0.66265E-05   -0.11994E-05  3825   0.413E-03    0.780E-03
RMM:  10    -0.413183476991E+03    0.51431E-05   -0.22593E-06  2597   0.251E-03    0.442E-03
RMM:  11    -0.413183472413E+03    0.45779E-05   -0.14884E-06  2532   0.194E-03    0.234E-03
RMM:  12    -0.413183465494E+03    0.69194E-05   -0.16533E-06  2554   0.198E-03    0.118E-03
RMM:  13    -0.413183462568E+03    0.29261E-05   -0.54876E-07  2348   0.130E-03    0.745E-04
RMM:  14    -0.413183461568E+03    0.99973E-06   -0.24717E-07  1919   0.864E-04
   29 T=    64. E= -.41286668E+03 F= -.41318346E+03 E0= -.41316186E+03  EK= 0.31678E+00 SP= 0.00E+00 SK= 0.00E+00
       N       E                     dE             d eps       ncg     rms          rms(c)
RMM:   1    -0.413191237288E+03   -0.77747E-02   -0.75739E+00  4298   0.673E-01    0.915E-01
RMM:   2    -0.413191804080E+03   -0.56679E-03   -0.97227E-02  4282   0.967E-02    0.670E-01
RMM:   3    -0.413186588745E+03    0.52153E-02   -0.33451E-02  4843   0.672E-02    0.170E-01
RMM:   4    -0.413211380079E+03   -0.24791E-01   -0.27697E-02  5121   0.141E-01    0.669E-01
RMM:   5    -0.413185248410E+03    0.26132E-01   -0.12531E-02  4785   0.111E-01    0.478E-02
RMM:   6    -0.413185404507E+03   -0.15610E-03   -0.22897E-03  5838   0.451E-02    0.335E-02
RMM:   7    -0.413185406647E+03   -0.21401E-05   -0.34076E-04  5605   0.185E-02    0.209E-02
RMM:   8    -0.413185398173E+03    0.84740E-05   -0.60931E-05  5005   0.866E-03    0.111E-02
RMM:   9    -0.413185392503E+03    0.56694E-05   -0.11510E-05  3787   0.403E-03    0.761E-03
RMM:  10    -0.413185388955E+03    0.35486E-05   -0.21213E-06  2572   0.240E-03    0.434E-03
RMM:  11    -0.413185385740E+03    0.32148E-05   -0.14379E-06  2527   0.190E-03    0.227E-03
RMM:  12    -0.413185380831E+03    0.49094E-05   -0.15196E-06  2522   0.192E-03    0.115E-03
RMM:  13    -0.413185378610E+03    0.22204E-05   -0.52574E-07  2341   0.127E-03    0.727E-04
RMM:  14    -0.413185377748E+03    0.86261E-06   -0.23710E-07  1876   0.852E-04
   30 T=    65. E= -.41286670E+03 F= -.41318538E+03 E0= -.41316383E+03  EK= 0.31867E+00 SP= 0.00E+00 SK= 0.00E+00
       N       E                     dE             d eps       ncg     rms          rms(c)
RMM:   1    -0.413194905965E+03   -0.95274E-02   -0.77270E+00  4298   0.698E-01    0.921E-01
RMM:   2    -0.413193824194E+03    0.10818E-02   -0.99029E-02  4276   0.100E-01    0.680E-01
RMM:   3    -0.413188281400E+03    0.55428E-02   -0.35972E-02  4774   0.717E-02    0.184E-01
RMM:   4    -0.413211004958E+03   -0.22724E-01   -0.25436E-02  5123   0.136E-01    0.644E-01
RMM:   5    -0.413186878978E+03    0.24126E-01   -0.11672E-02  4790   0.107E-01    0.466E-02
RMM:   6    -0.413187022541E+03   -0.14356E-03   -0.21113E-03  5841   0.430E-02    0.317E-02
RMM:   7    -0.413187028014E+03   -0.54726E-05   -0.29110E-04  5609   0.175E-02    0.189E-02
RMM:   8    -0.413187023083E+03    0.49309E-05   -0.57192E-05  4963   0.829E-03    0.106E-02
RMM:   9    -0.413187018757E+03    0.43262E-05   -0.10974E-05  3765   0.396E-03    0.731E-03
RMM:  10    -0.413187017467E+03    0.12900E-05   -0.19883E-06  2550   0.237E-03    0.416E-03
RMM:  11    -0.413187015935E+03    0.15313E-05   -0.14841E-06  2532   0.191E-03    0.213E-03
RMM:  12    -0.413187013392E+03    0.25433E-05   -0.13802E-06  2501   0.185E-03    0.112E-03
RMM:  13    -0.413187012018E+03    0.13738E-05   -0.48055E-07  2319   0.122E-03    0.689E-04
RMM:  14    -0.413187011270E+03    0.74792E-06   -0.21850E-07  1798   0.824E-04
   31 T=    65. E= -.41286652E+03 F= -.41318701E+03 E0= -.41316551E+03  EK= 0.32049E+00 SP= 0.00E+00 SK= 0.00E+00
       N       E                     dE             d eps       ncg     rms          rms(c)
RMM:   1    -0.413197357734E+03   -0.10346E-01   -0.77245E+00  4300   0.722E-01    0.940E-01
RMM:   2    -0.413196129409E+03    0.12283E-02   -0.10020E-01  4279   0.104E-01    0.680E-01
RMM:   3    -0.413190419592E+03    0.57098E-02   -0.32942E-02  4707   0.697E-02    0.142E-01
RMM:   4    -0.413210066141E+03   -0.19647E-01   -0.21075E-02  5127   0.123E-01    0.596E-01
RMM:   5    -0.413189481059E+03    0.20585E-01   -0.10108E-02  4803   0.982E-02    0.461E-02
RMM:   6    -0.413189604062E+03   -0.12300E-03   -0.18259E-03  5850   0.399E-02    0.313E-02
RMM:   7    -0.413189604311E+03   -0.24939E-06   -0.21556E-04  5544   0.158E-02    0.158E-02
RMM:   8    -0.413189599379E+03    0.49320E-05   -0.37213E-05  4777   0.653E-03    0.965E-03
RMM:   9    -0.413189594366E+03    0.50127E-05   -0.90814E-06  3565   0.343E-03    0.701E-03
RMM:  10    -0.413189590185E+03    0.41810E-05   -0.18566E-06  2551   0.233E-03    0.397E-03
RMM:  11    -0.413189585394E+03    0.47911E-05   -0.15794E-06  2535   0.197E-03    0.205E-03
RMM:  12    -0.413189578709E+03    0.66856E-05   -0.13403E-06  2502   0.184E-03    0.116E-03
RMM:  13    -0.413189576367E+03    0.23421E-05   -0.44148E-07  2305   0.118E-03    0.711E-04
RMM:  14    -0.413189575356E+03    0.10110E-05   -0.19709E-07  1757   0.795E-04    0.521E-04
RMM:  15    -0.413189569714E+03    0.56417E-05   -0.22438E-07  2187   0.852E-04    0.594E-04
RMM:  16    -0.413189564743E+03    0.49704E-05   -0.13095E-07  1538   0.695E-04    0.572E-04
RMM:  17    -0.413189563534E+03    0.12094E-05   -0.34423E-08   838   0.527E-04    0.471E-04
RMM:  18    -0.413189559617E+03    0.39166E-05   -0.54364E-08  1012   0.585E-04    0.176E-04
RMM:  19    -0.413189556255E+03    0.33625E-05   -0.47733E-08  1144   0.606E-04    0.135E-04
RMM:  20    -0.413189555868E+03    0.38644E-06   -0.24640E-08   908   0.549E-04
   32 T=    66. E= -.41286696E+03 F= -.41318956E+03 E0= -.41316811E+03  EK= 0.32260E+00 SP= 0.00E+00 SK= 0.00E+00
       N       E                     dE             d eps       ncg     rms          rms(c)
RMM:   1    -0.413198674489E+03   -0.91182E-02   -0.77119E+00  4301   0.733E-01    0.928E-01
RMM:   2    -0.413197738144E+03    0.93635E-03   -0.10097E-01  4278   0.107E-01    0.676E-01
RMM:   3    -0.413192154895E+03    0.55832E-02   -0.32964E-02  4626   0.733E-02    0.138E-01
RMM:   4    -0.413208121008E+03   -0.15966E-01   -0.16947E-02  5129   0.111E-01    0.540E-01
RMM:   5    -0.413191343871E+03    0.16777E-01   -0.83340E-03  4807   0.886E-02    0.444E-02
RMM:   6    -0.413191439436E+03   -0.95565E-04   -0.14968E-03  5836   0.360E-02    0.294E-02
RMM:   7    -0.413191443529E+03   -0.40933E-05   -0.19319E-04  5486   0.149E-02    0.158E-02
RMM:   8    -0.413191433216E+03    0.10313E-04   -0.33748E-05  4750   0.634E-03    0.884E-03
RMM:   9    -0.413191431782E+03    0.14346E-05   -0.82242E-06  3487   0.342E-03    0.662E-03
RMM:  10    -0.413191427960E+03    0.38219E-05   -0.15710E-06  2517   0.222E-03    0.355E-03
RMM:  11    -0.413191424479E+03    0.34810E-05   -0.12699E-06  2513   0.180E-03    0.185E-03
RMM:  12    -0.413191420004E+03    0.44745E-05   -0.98477E-07  2466   0.159E-03    0.103E-03
RMM:  13    -0.413191418176E+03    0.18283E-05   -0.35885E-07  2193   0.106E-03    0.558E-04
RMM:  14    -0.413191417016E+03    0.11597E-05   -0.16709E-07  1564   0.750E-04    0.402E-04
RMM:  15    -0.413191412614E+03    0.44018E-05   -0.17196E-07  1877   0.777E-04    0.343E-04
RMM:  16    -0.413191409672E+03    0.29419E-05   -0.74025E-08  1143   0.615E-04    0.271E-04
RMM:  17    -0.413191406522E+03    0.31507E-05   -0.45390E-08   891   0.562E-04    0.189E-04
RMM:  18    -0.413191402720E+03    0.38017E-05   -0.46861E-08   930   0.577E-04    0.480E-05
RMM:  19    -0.413191400633E+03    0.20872E-05   -0.31639E-08   908   0.571E-04    0.806E-05
RMM:  20    -0.413191400369E+03    0.26364E-06   -0.11779E-08   674   0.532E-04
   33 T=    66. E= -.41286682E+03 F= -.41319140E+03 E0= -.41317000E+03  EK= 0.32458E+00 SP= 0.00E+00 SK= 0.00E+00
       N       E                     dE             d eps       ncg     rms          rms(c)
RMM:   1    -0.413201270069E+03   -0.98694E-02   -0.78452E+00  4306   0.737E-01    0.926E-01
RMM:   2    -0.413200248880E+03    0.10212E-02   -0.10302E-01  4266   0.112E-01    0.685E-01
RMM:   3    -0.413194501121E+03    0.57478E-02   -0.35814E-02  4524   0.794E-02    0.155E-01
RMM:   4    -0.413204310880E+03   -0.98098E-02   -0.10888E-02  5133   0.901E-02    0.433E-01
RMM:   5    -0.413193672225E+03    0.10639E-01   -0.52957E-03  4819   0.709E-02    0.418E-02
RMM:   6    -0.413193748589E+03   -0.76364E-04   -0.11051E-03  5816   0.303E-02    0.287E-02
RMM:   7    -0.413193755449E+03   -0.68605E-05   -0.23405E-04  5362   0.159E-02    0.188E-02
RMM:   8    -0.413193740581E+03    0.14868E-04   -0.27727E-05  4601   0.656E-03    0.828E-03
RMM:   9    -0.413193740220E+03    0.36069E-06   -0.54391E-06  2997   0.295E-03
   34 T=    67. E= -.41286683E+03 F= -.41319374E+03 E0= -.41317239E+03  EK= 0.32691E+00 SP= 0.00E+00 SK= 0.00E+00
       N       E                     dE             d eps       ncg     rms          rms(c)
RMM:   1    -0.413203077270E+03   -0.93367E-02   -0.78650E+00  4305   0.746E-01    0.946E-01
RMM:   2    -0.413202432422E+03    0.64485E-03   -0.10357E-01  4289   0.119E-01    0.688E-01
RMM:   3    -0.413199387235E+03    0.30452E-02   -0.35078E-02  4926   0.988E-02    0.240E-01
RMM:   4    -0.413230727876E+03   -0.31341E-01   -0.41472E-02  5087   0.173E-01    0.764E-01
RMM:   5    -0.413196280383E+03    0.34447E-01   -0.15538E-02  4761   0.126E-01    0.531E-02
RMM:   6    -0.413196463891E+03   -0.18351E-03   -0.29742E-03  5801   0.510E-02    0.362E-02
RMM:   7    -0.413196469897E+03   -0.60068E-05   -0.40034E-04  5619   0.196E-02    0.223E-02
RMM:   8    -0.413196464317E+03    0.55803E-05   -0.84421E-05  5152   0.993E-03    0.126E-02
RMM:   9    -0.413196454844E+03    0.94734E-05   -0.14604E-05  4066   0.470E-03    0.735E-03
RMM:  10    -0.413196449673E+03    0.51704E-05   -0.29786E-06  2697   0.272E-03    0.432E-03
RMM:  11    -0.413196445986E+03    0.36869E-05   -0.12341E-06  2500   0.185E-03    0.251E-03
RMM:  12    -0.413196438211E+03    0.77756E-05   -0.16843E-06  2532   0.206E-03    0.117E-03
RMM:  13    -0.413196433551E+03    0.46594E-05   -0.67900E-07  2388   0.141E-03    0.804E-04
RMM:  14    -0.413196432410E+03    0.11415E-05   -0.29411E-07  2057   0.944E-04    0.530E-04
RMM:  15    -0.413196430050E+03    0.23596E-05   -0.14817E-07  1481   0.731E-04    0.314E-04
RMM:  16    -0.413196422640E+03    0.74101E-05   -0.21253E-07  2106   0.823E-04    0.654E-04
RMM:  17    -0.413196420189E+03    0.24508E-05   -0.69454E-08  1055   0.581E-04    0.538E-04
RMM:  18    -0.413196413917E+03    0.62723E-05   -0.73354E-08   996   0.590E-04    0.339E-04
RMM:  19    -0.413196412488E+03    0.14295E-05   -0.46646E-08  1000   0.580E-04    0.873E-05
RMM:  20    -0.413196410257E+03    0.22306E-05   -0.50013E-08  1208   0.607E-04    0.274E-04
RMM:  21    -0.413196410108E+03    0.14893E-06   -0.18285E-08   763   0.526E-04
   35 T=    67. E= -.41286692E+03 F= -.41319641E+03 E0= -.41317510E+03  EK= 0.32949E+00 SP= 0.00E+00 SK= 0.00E+00
       N       E                     dE             d eps       ncg     rms          rms(c)
RMM:   1    -0.413209446742E+03   -0.13036E-01   -0.79099E+00  4303   0.809E-01    0.943E-01
RMM:   2    -0.413204411488E+03    0.50353E-02   -0.10926E-01  4260   0.129E-01    0.685E-01
RMM:   3    -0.413198824252E+03    0.55872E-02   -0.32019E-02  4310   0.821E-02    0.980E-02
RMM:   4    -0.413198674295E+03    0.14996E-03   -0.47120E-04  4961   0.205E-02    0.669E-02
RMM:   5    -0.413198552977E+03    0.12132E-03   -0.18715E-04  4813   0.134E-02    0.477E-02
RMM:   6    -0.413198578082E+03   -0.25105E-04   -0.46667E-04  5221   0.210E-02    0.348E-02
RMM:   7    -0.413198534526E+03    0.43555E-04   -0.19551E-04  4776   0.157E-02    0.195E-02
RMM:   8    -0.413198527413E+03    0.71133E-05   -0.34927E-05  4696   0.577E-03    0.660E-03
RMM:   9    -0.413198525994E+03    0.14192E-05   -0.83784E-06  2517   0.243E-03    0.261E-03
RMM:  10    -0.413198519867E+03    0.61268E-05   -0.10949E-06  2377   0.158E-03    0.956E-04
RMM:  11    -0.413198516427E+03    0.34397E-05   -0.30955E-07  1800   0.875E-04    0.480E-04
RMM:  12    -0.413198511622E+03    0.48048E-05   -0.15341E-07  1309   0.726E-04    0.373E-04
RMM:  13    -0.413198507513E+03    0.41091E-05   -0.98234E-08  1114   0.651E-04    0.231E-04
RMM:  14    -0.413198500899E+03    0.66145E-05   -0.11380E-07  1136   0.653E-04    0.155E-04
RMM:  15    -0.413198497609E+03    0.32899E-05   -0.38507E-08   799   0.570E-04    0.132E-04
RMM:  16    -0.413198492834E+03    0.47752E-05   -0.44265E-08   975   0.591E-04    0.704E-05
RMM:  17    -0.413198491269E+03    0.15651E-05   -0.16914E-08   686   0.529E-04    0.490E-05
RMM:  18    -0.413198490634E+03    0.63432E-06   -0.83608E-09   555   0.512E-04
   36 T=    68. E= -.41286653E+03 F= -.41319849E+03 E0= -.41317723E+03  EK= 0.33196E+00 SP= 0.00E+00 SK= 0.00E+00
       N       E                     dE             d eps       ncg     rms          rms(c)
RMM:   1    -0.413208709571E+03   -0.10218E-01   -0.79823E+00  4309   0.793E-01    0.934E-01
RMM:   2    -0.413207982904E+03    0.72667E-03   -0.10718E-01  4260   0.125E-01    0.690E-01
RMM:   3    -0.413202094787E+03    0.58881E-02   -0.35411E-02  4390   0.846E-02    0.137E-01
RMM:   4    -0.413205658824E+03   -0.35640E-02   -0.45458E-03  5141   0.600E-02    0.275E-01
RMM:   5    -0.413201503448E+03    0.41554E-02   -0.20756E-03  4801   0.453E-02    0.410E-02
RMM:   6    -0.413201551167E+03   -0.47719E-04   -0.67733E-04  5552   0.259E-02    0.326E-02
RMM:   7    -0.413201539237E+03    0.11929E-04   -0.24440E-04  5093   0.168E-02    0.191E-02
RMM:   8    -0.413201531043E+03    0.81946E-05   -0.30365E-05  4844   0.632E-03    0.789E-03
RMM:   9    -0.413201530500E+03    0.54320E-06   -0.45184E-06  2747   0.253E-03
   37 T=    68. E= -.41286670E+03 F= -.41320153E+03 E0= -.41318031E+03  EK= 0.33483E+00 SP= 0.00E+00 SK= 0.00E+00
       N       E                     dE             d eps       ncg     rms          rms(c)
RMM:   1    -0.413217890565E+03   -0.16360E-01   -0.81194E+00  4311   0.884E-01    0.949E-01
RMM:   2    -0.413211016752E+03    0.68738E-02   -0.12222E-01  4266   0.128E-01    0.699E-01
RMM:   3    -0.413205393340E+03    0.56234E-02   -0.31997E-02  4808   0.810E-02    0.155E-01
RMM:   4    -0.413239054304E+03   -0.33661E-01   -0.37035E-02  5126   0.162E-01    0.772E-01
RMM:   5    -0.413204102529E+03    0.34952E-01   -0.16849E-02  4785   0.128E-01    0.524E-02
RMM:   6    -0.413204197676E+03   -0.95147E-04   -0.29553E-03  5816   0.511E-02    0.346E-02
RMM:   7    -0.413204216119E+03   -0.18443E-04   -0.36309E-04  5620   0.186E-02    0.194E-02
RMM:   8    -0.413204207805E+03    0.83139E-05   -0.53496E-05  4942   0.772E-03    0.107E-02
RMM:   9    -0.413204207660E+03    0.14529E-06   -0.20541E-05  4509   0.484E-03    0.825E-03
RMM:  10    -0.413204201776E+03    0.58841E-05   -0.33015E-06  2725   0.291E-03    0.436E-03
RMM:  11    -0.413204198869E+03    0.29070E-05   -0.15519E-06  2508   0.201E-03    0.270E-03
RMM:  12    -0.413204191240E+03    0.76288E-05   -0.21172E-06  2558   0.230E-03    0.142E-03
RMM:  13    -0.413204187321E+03    0.39189E-05   -0.74798E-07  2439   0.152E-03    0.921E-04
RMM:  14    -0.413204186359E+03    0.96187E-06   -0.28971E-07  2100   0.958E-04
   38 T=    69. E= -.41286657E+03 F= -.41320419E+03 E0= -.41318301E+03  EK= 0.33762E+00 SP= 0.00E+00 SK= 0.00E+00
       N       E                     dE             d eps       ncg     rms          rms(c)
RMM:   1    -0.413220562342E+03   -0.16375E-01   -0.81261E+00  4306   0.911E-01    0.958E-01
RMM:   2    -0.413213585746E+03    0.69766E-02   -0.11823E-01  4258   0.122E-01    0.695E-01
RMM:   3    -0.413207366182E+03    0.62196E-02   -0.30919E-02  4674   0.703E-02    0.110E-01
RMM:   4    -0.413225719380E+03   -0.18353E-01   -0.19162E-02  5135   0.117E-01    0.575E-01
RMM:   5    -0.413206814673E+03    0.18905E-01   -0.94345E-03  4815   0.946E-02    0.474E-02
RMM:   6    -0.413206850684E+03   -0.36011E-04   -0.17042E-03  5767   0.399E-02    0.339E-02
RMM:   7    -0.413206859586E+03   -0.89017E-05   -0.36051E-04  5464   0.189E-02    0.218E-02
RMM:   8    -0.413206840980E+03    0.18606E-04   -0.52124E-05  5107   0.827E-03    0.104E-02
RMM:   9    -0.413206837811E+03    0.31693E-05   -0.92934E-06  3413   0.374E-03    0.631E-03
RMM:  10    -0.413206831836E+03    0.59748E-05   -0.20212E-06  2579   0.236E-03    0.337E-03
RMM:  11    -0.413206826283E+03    0.55523E-05   -0.11539E-06  2491   0.177E-03    0.176E-03
RMM:  12    -0.413206819005E+03    0.72783E-05   -0.96850E-07  2477   0.158E-03    0.968E-04
RMM:  13    -0.413206815137E+03    0.38686E-05   -0.39201E-07  2205   0.109E-03    0.514E-04
RMM:  14    -0.413206813101E+03    0.20357E-05   -0.19394E-07  1673   0.786E-04    0.343E-04
RMM:  15    -0.413206806511E+03    0.65899E-05   -0.14272E-07  1548   0.739E-04    0.195E-04
RMM:  16    -0.413206801692E+03    0.48191E-05   -0.83948E-08  1199   0.647E-04    0.184E-04
RMM:  17    -0.413206796725E+03    0.49669E-05   -0.59964E-08  1091   0.615E-04    0.144E-04
RMM:  18    -0.413206791135E+03    0.55902E-05   -0.61225E-08  1247   0.623E-04    0.538E-05
RMM:  19    -0.413206789874E+03    0.12613E-05   -0.25365E-08   845   0.546E-04    0.337E-05
RMM:  20    -0.413206789232E+03    0.64167E-06   -0.17846E-08   775   0.530E-04
   39 T=    69. E= -.41286642E+03 F= -.41320679E+03 E0= -.41318565E+03  EK= 0.34037E+00 SP= 0.00E+00 SK= 0.00E+00
       N       E                     dE             d eps       ncg     rms          rms(c)
RMM:   1    -0.413227263200E+03   -0.20473E-01   -0.82283E+00  4310   0.974E-01    0.939E-01
RMM:   2    -0.413217160766E+03    0.10102E-01   -0.13045E-01  4259   0.129E-01    0.699E-01
RMM:   3    -0.413211352078E+03    0.58087E-02   -0.30489E-02  4882   0.774E-02    0.163E-01
RMM:   4    -0.413250546785E+03   -0.39195E-01   -0.44122E-02  5128   0.176E-01    0.830E-01
RMM:   5    -0.413209864103E+03    0.40683E-01   -0.19520E-02  4786   0.138E-01    0.548E-02
RMM:   6    -0.413209984722E+03   -0.12062E-03   -0.33688E-03  5816   0.544E-02    0.355E-02
RMM:   7    -0.413209999287E+03   -0.14566E-04   -0.40030E-04  5660   0.191E-02    0.197E-02
RMM:   8    -0.413210000270E+03   -0.98290E-06   -0.61745E-05  4985   0.793E-03    0.112E-02
RMM:   9    -0.413209996246E+03    0.40242E-05   -0.20071E-05  4459   0.475E-03    0.773E-03
RMM:  10    -0.413209994429E+03    0.18168E-05   -0.42236E-06  2869   0.297E-03    0.438E-03
RMM:  11    -0.413209992835E+03    0.15936E-05   -0.16021E-06  2509   0.207E-03    0.271E-03
RMM:  12    -0.413209988530E+03    0.43053E-05   -0.18247E-06  2524   0.216E-03    0.116E-03
RMM:  13    -0.413209985654E+03    0.28762E-05   -0.73635E-07  2445   0.148E-03    0.877E-04
RMM:  14    -0.413209985147E+03    0.50703E-06   -0.30073E-07  2108   0.963E-04
   40 T=    70. E= -.41286673E+03 F= -.41320999E+03 E0= -.41318888E+03  EK= 0.34326E+00 SP= 0.00E+00 SK= 0.00E+00
       N       E                     dE             d eps       ncg     rms          rms(c)
RMM:   1    -0.413222473060E+03   -0.12487E-01   -0.82687E+00  4314   0.935E-01    0.958E-01
RMM:   2    -0.413219451017E+03    0.30220E-02   -0.11539E-01  4261   0.124E-01    0.706E-01
RMM:   3    -0.413213735329E+03    0.57157E-02   -0.35297E-02  4858   0.799E-02    0.178E-01
RMM:   4    -0.413246997729E+03   -0.33262E-01   -0.37916E-02  5124   0.164E-01    0.771E-01
RMM:   5    -0.413212149967E+03    0.34848E-01   -0.16691E-02  4791   0.128E-01    0.531E-02
RMM:   6    -0.413212235162E+03   -0.85195E-04   -0.28831E-03  5807   0.504E-02    0.337E-02
RMM:   7    -0.413212253802E+03   -0.18639E-04   -0.37015E-04  5669   0.184E-02    0.194E-02
RMM:   8    -0.413212246764E+03    0.70376E-05   -0.59921E-05  5019   0.808E-03    0.106E-02
RMM:   9    -0.413212246658E+03    0.10585E-06   -0.20367E-05  4518   0.490E-03    0.757E-03
RMM:  10    -0.413212242235E+03    0.44228E-05   -0.29222E-06  2671   0.273E-03    0.414E-03
RMM:  11    -0.413212240035E+03    0.22000E-05   -0.13025E-06  2497   0.187E-03    0.251E-03
RMM:  12    -0.413212234145E+03    0.58901E-05   -0.18025E-06  2542   0.210E-03    0.133E-03
RMM:  13    -0.413212230701E+03    0.34441E-05   -0.66973E-07  2407   0.142E-03    0.876E-04
RMM:  14    -0.413212229896E+03    0.80545E-06   -0.26430E-07  2009   0.914E-04
   41 T=    70. E= -.41286653E+03 F= -.41321223E+03 E0= -.41319116E+03  EK= 0.34570E+00 SP= 0.00E+00 SK= 0.00E+00
       N       E                     dE             d eps       ncg     rms          rms(c)
RMM:   1    -0.413232567370E+03   -0.20337E-01   -0.83338E+00  4311   0.105E+00    0.973E-01
RMM:   2    -0.413221715106E+03    0.10852E-01   -0.12385E-01  4300   0.132E-01    0.705E-01
RMM:   3    -0.413217171546E+03    0.45436E-02   -0.32154E-02  4986   0.812E-02    0.208E-01
RMM:   4    -0.413256928863E+03   -0.39757E-01   -0.49534E-02  5114   0.187E-01    0.844E-01
RMM:   5    -0.413214703415E+03    0.42225E-01   -0.19423E-02  4776   0.140E-01    0.578E-02
RMM:   6    -0.413214825035E+03   -0.12162E-03   -0.34800E-03  5798   0.552E-02    0.363E-02
RMM:   7    -0.413214836158E+03   -0.11124E-04   -0.42596E-04  5719   0.196E-02    0.210E-02
RMM:   8    -0.413214836929E+03   -0.77009E-06   -0.88734E-05  5180   0.948E-03    0.132E-02
RMM:   9    -0.413214826198E+03    0.10731E-04   -0.22259E-05  4552   0.535E-03    0.738E-03
RMM:  10    -0.413214820983E+03    0.52145E-05   -0.38657E-06  2779   0.293E-03    0.426E-03
RMM:  11    -0.413214817231E+03    0.37523E-05   -0.13641E-06  2501   0.197E-03    0.258E-03
RMM:  12    -0.413214808401E+03    0.88295E-05   -0.14496E-06  2505   0.198E-03    0.116E-03
RMM:  13    -0.413214802211E+03    0.61899E-05   -0.65020E-07  2428   0.140E-03    0.744E-04
RMM:  14    -0.413214801093E+03    0.11189E-05   -0.28402E-07  2083   0.940E-04    0.480E-04
RMM:  15    -0.413214798538E+03    0.25541E-05   -0.13720E-07  1448   0.714E-04    0.314E-04
RMM:  16    -0.413214790420E+03    0.81185E-05   -0.15457E-07  1868   0.770E-04    0.504E-04
RMM:  17    -0.413214788470E+03    0.19496E-05   -0.51665E-08   944   0.565E-04    0.382E-04
RMM:  18    -0.413214781503E+03    0.69672E-05   -0.65101E-08  1186   0.614E-04    0.250E-04
RMM:  19    -0.413214780250E+03    0.12536E-05   -0.32956E-08   893   0.554E-04    0.790E-05
RMM:  20    -0.413214778124E+03    0.21252E-05   -0.39917E-08  1107   0.591E-04    0.180E-04
RMM:  21    -0.413214777826E+03    0.29862E-06   -0.14671E-08   719   0.525E-04
   42 T=    71. E= -.41286675E+03 F= -.41321478E+03 E0= -.41319374E+03  EK= 0.34802E+00 SP= 0.00E+00 SK= 0.00E+00
       N       E                     dE             d eps       ncg     rms          rms(c)
RMM:   1    -0.413229518715E+03   -0.14741E-01   -0.82839E+00  4314   0.107E+00    0.953E-01
RMM:   2    -0.413224073202E+03    0.54455E-02   -0.12327E-01  4348   0.132E-01    0.703E-01
RMM:   3    -0.413220986121E+03    0.30871E-02   -0.34536E-02  5035   0.917E-02    0.269E-01
RMM:   4    -0.413256126891E+03   -0.35141E-01   -0.50638E-02  5101   0.191E-01    0.814E-01
RMM:   5    -0.413216909885E+03    0.39217E-01   -0.17175E-02  4749   0.134E-01    0.577E-02
RMM:   6    -0.413216999944E+03   -0.90060E-04   -0.31468E-03  5764   0.528E-02    0.353E-02
RMM:   7    -0.413217011354E+03   -0.11410E-04   -0.42551E-04  5692   0.198E-02    0.221E-02
RMM:   8    -0.413217012967E+03   -0.16123E-05   -0.10884E-04  5202   0.108E-02    0.133E-02
RMM:   9    -0.413217003274E+03    0.96925E-05   -0.18152E-05  4332   0.535E-03    0.621E-03
RMM:  10    -0.413217000640E+03    0.26337E-05   -0.39363E-06  2806   0.275E-03    0.368E-03
RMM:  11    -0.413216998425E+03    0.22159E-05   -0.12153E-06  2495   0.185E-03    0.211E-03
RMM:  12    -0.413216993301E+03    0.51237E-05   -0.11714E-06  2494   0.176E-03    0.972E-04
RMM:  13    -0.413216989589E+03    0.37114E-05   -0.53802E-07  2351   0.125E-03    0.550E-04
RMM:  14    -0.413216988492E+03    0.10976E-05   -0.25228E-07  1904   0.869E-04    0.352E-04
RMM:  15    -0.413216985699E+03    0.27931E-05   -0.13997E-07  1401   0.711E-04    0.167E-04
RMM:  16    -0.413216981320E+03    0.43787E-05   -0.10851E-07  1310   0.679E-04    0.190E-04
RMM:  17    -0.413216978786E+03    0.25345E-05   -0.61827E-08  1000   0.611E-04    0.121E-04
RMM:  18    -0.413216975008E+03    0.37772E-05   -0.61413E-08  1180   0.626E-04    0.101E-04
RMM:  19    -0.413216972547E+03    0.24619E-05   -0.39155E-08   979   0.581E-04    0.370E-05
RMM:  20    -0.413216971691E+03    0.85573E-06   -0.22822E-08   810   0.549E-04
   43 T=    71. E= -.41286698E+03 F= -.41321697E+03 E0= -.41319596E+03  EK= 0.35000E+00 SP= 0.00E+00 SK= 0.00E+00
       N       E                     dE             d eps       ncg     rms          rms(c)
RMM:   1    -0.413230135759E+03   -0.13163E-01   -0.83873E+00  4316   0.109E+00    0.959E-01
RMM:   2    -0.413225574108E+03    0.45617E-02   -0.12383E-01  4361   0.139E-01    0.713E-01
RMM:   3    -0.413223230094E+03    0.23440E-02   -0.37227E-02  5048   0.986E-02    0.304E-01
RMM:   4    -0.413255395412E+03   -0.32165E-01   -0.50793E-02  5092   0.192E-01    0.795E-01
RMM:   5    -0.413218072497E+03    0.37323E-01   -0.15852E-02  4732   0.131E-01    0.575E-02
RMM:   6    -0.413218141735E+03   -0.69238E-04   -0.29415E-03  5766   0.511E-02    0.339E-02
RMM:   7    -0.413218156525E+03   -0.14790E-04   -0.40205E-04  5682   0.193E-02    0.215E-02
RMM:   8    -0.413218159675E+03   -0.31500E-05   -0.10938E-04  5187   0.108E-02    0.127E-02
RMM:   9    -0.413218150682E+03    0.89923E-05   -0.17401E-05  4295   0.532E-03    0.570E-03
RMM:  10    -0.413218148959E+03    0.17237E-05   -0.38152E-06  2792   0.268E-03    0.341E-03
RMM:  11    -0.413218147305E+03    0.16543E-05   -0.12112E-06  2502   0.183E-03    0.190E-03
RMM:  12    -0.413218143419E+03    0.38854E-05   -0.10973E-06  2493   0.167E-03    0.883E-04
RMM:  13    -0.413218140437E+03    0.29821E-05   -0.49939E-07  2302   0.118E-03    0.470E-04
RMM:  14    -0.413218139229E+03    0.12082E-05   -0.23488E-07  1776   0.829E-04    0.292E-04
RMM:  15    -0.413218135712E+03    0.35167E-05   -0.15577E-07  1374   0.726E-04    0.159E-04
RMM:  16    -0.413218132792E+03    0.29203E-05   -0.10244E-07  1182   0.664E-04    0.147E-04
RMM:  17    -0.413218130198E+03    0.25939E-05   -0.75029E-08  1144   0.629E-04    0.108E-04
RMM:  18    -0.413218127551E+03    0.26472E-05   -0.57213E-08  1082   0.606E-04    0.677E-05
RMM:  19    -0.413218124694E+03    0.28564E-05   -0.46042E-08  1088   0.595E-04    0.362E-05
RMM:  20    -0.413218124145E+03    0.54977E-06   -0.21264E-08   768   0.538E-04
   44 T=    72. E= -.41286679E+03 F= -.41321812E+03 E0= -.41319714E+03  EK= 0.35133E+00 SP= 0.00E+00 SK= 0.00E+00
       N       E                     dE             d eps       ncg     rms          rms(c)
RMM:   1    -0.413236148103E+03   -0.18023E-01   -0.83846E+00  4314   0.121E+00    0.977E-01
RMM:   2    -0.413226511177E+03    0.96369E-02   -0.12770E-01  4367   0.148E-01    0.711E-01
RMM:   3    -0.413226115600E+03    0.39558E-03   -0.35718E-02  5070   0.106E-01    0.346E-01
RMM:   4    -0.413251309032E+03   -0.25193E-01   -0.48696E-02  5069   0.190E-01    0.736E-01
RMM:   5    -0.413219346276E+03    0.31963E-01   -0.12640E-02  4710   0.121E-01    0.582E-02
RMM:   6    -0.413219373050E+03   -0.26774E-04   -0.24713E-03  5703   0.474E-02    0.340E-02
RMM:   7    -0.413219381314E+03   -0.82635E-05   -0.38345E-04  5641   0.191E-02    0.224E-02
RMM:   8    -0.413219377236E+03    0.40773E-05   -0.11334E-04  5145   0.113E-02    0.122E-02
RMM:   9    -0.413219366537E+03    0.10699E-04   -0.14734E-05  4171   0.519E-03    0.517E-03
RMM:  10    -0.413219362397E+03    0.41395E-05   -0.34199E-06  2764   0.253E-03    0.307E-03
RMM:  11    -0.413219358616E+03    0.37815E-05   -0.10878E-06  2491   0.175E-03    0.166E-03
RMM:  12    -0.413219351879E+03    0.67365E-05   -0.82249E-07  2456   0.151E-03    0.788E-04
RMM:  13    -0.413219347625E+03    0.42549E-05   -0.37560E-07  2145   0.106E-03    0.357E-04
RMM:  14    -0.413219345309E+03    0.23158E-05   -0.19432E-07  1620   0.785E-04    0.221E-04
RMM:  15    -0.413219338925E+03    0.63835E-05   -0.13774E-07  1359   0.724E-04    0.177E-04
RMM:  16    -0.413219336295E+03    0.26306E-05   -0.81216E-08  1117   0.646E-04    0.117E-04
RMM:  17    -0.413219332851E+03    0.34440E-05   -0.65098E-08  1139   0.633E-04    0.752E-05
RMM:  18    -0.413219328840E+03    0.40104E-05   -0.59702E-08  1252   0.624E-04    0.437E-05
RMM:  19    -0.413219326709E+03    0.21311E-05   -0.35955E-08   995   0.564E-04    0.367E-05
RMM:  20    -0.413219326131E+03    0.57846E-06   -0.18978E-08   773   0.529E-04
   45 T=    72. E= -.41286711E+03 F= -.41321933E+03 E0= -.41319836E+03  EK= 0.35221E+00 SP= 0.00E+00 SK= 0.00E+00
       N       E                     dE             d eps       ncg     rms          rms(c)
RMM:   1    -0.413241283040E+03   -0.21956E-01   -0.83685E+00  4312   0.131E+00    0.957E-01
RMM:   2    -0.413226034207E+03    0.15249E-01   -0.13796E-01  4393   0.158E-01    0.707E-01
RMM:   3    -0.413227614661E+03   -0.15805E-02   -0.34458E-02  5071   0.115E-01    0.396E-01
RMM:   4    -0.413247949126E+03   -0.20334E-01   -0.49365E-02  5059   0.192E-01    0.703E-01
RMM:   5    -0.413218777686E+03    0.29171E-01   -0.10900E-02  4676   0.116E-01    0.586E-02
RMM:   6    -0.413218779630E+03   -0.19440E-05   -0.22095E-03  5654   0.451E-02    0.330E-02
RMM:   7    -0.413218791380E+03   -0.11750E-04   -0.36315E-04  5630   0.187E-02    0.226E-02
RMM:   8    -0.413218787340E+03    0.40396E-05   -0.11409E-04  5105   0.115E-02    0.113E-02
RMM:   9    -0.413218777670E+03    0.96700E-05   -0.13718E-05  4099   0.518E-03    0.460E-03
RMM:  10    -0.413218774207E+03    0.34633E-05   -0.31359E-06  2751   0.241E-03    0.275E-03
RMM:  11    -0.413218770291E+03    0.39161E-05   -0.10906E-06  2485   0.172E-03    0.143E-03
RMM:  12    -0.413218764716E+03    0.55748E-05   -0.71387E-07  2412   0.139E-03    0.703E-04
RMM:  13    -0.413218760917E+03    0.37992E-05   -0.34290E-07  1964   0.990E-04    0.302E-04
RMM:  14    -0.413218758007E+03    0.29097E-05   -0.18952E-07  1490   0.770E-04    0.175E-04
RMM:  15    -0.413218752476E+03    0.55315E-05   -0.14169E-07  1301   0.722E-04    0.130E-04
RMM:  16    -0.413218749735E+03    0.27409E-05   -0.91983E-08  1178   0.662E-04    0.909E-05
RMM:  17    -0.413218744617E+03    0.51178E-05   -0.91056E-08  1394   0.673E-04    0.625E-05
RMM:  18    -0.413218742177E+03    0.24396E-05   -0.52462E-08  1089   0.588E-04    0.345E-05
RMM:  19    -0.413218740507E+03    0.16706E-05   -0.34442E-08   923   0.552E-04    0.236E-05
RMM:  20    -0.413218740255E+03    0.25201E-06   -0.20122E-08   752   0.524E-04
   46 T=    72. E= -.41286685E+03 F= -.41321874E+03 E0= -.41319779E+03  EK= 0.35189E+00 SP= 0.00E+00 SK= 0.00E+00
       N       E                     dE             d eps       ncg     rms          rms(c)
RMM:   1    -0.413235738488E+03   -0.16998E-01   -0.83671E+00  4314   0.136E+00    0.951E-01
RMM:   2    -0.413224761291E+03    0.10977E-01   -0.13357E-01  4412   0.168E-01    0.712E-01
RMM:   3    -0.413229254852E+03   -0.44936E-02   -0.39552E-02  5079   0.129E-01    0.460E-01
RMM:   4    -0.413241704252E+03   -0.12449E-01   -0.47758E-02  5038   0.192E-01    0.646E-01
RMM:   5    -0.413217220475E+03    0.24484E-01   -0.86041E-03  4648   0.108E-01    0.567E-02
RMM:   6    -0.413217191071E+03    0.29404E-04   -0.18042E-03  5544   0.409E-02    0.302E-02
RMM:   7    -0.413217201009E+03   -0.99378E-05   -0.30114E-04  5600   0.172E-02    0.208E-02
RMM:   8    -0.413217197213E+03    0.37952E-05   -0.11112E-04  5072   0.113E-02    0.103E-02
RMM:   9    -0.413217189536E+03    0.76775E-05   -0.12099E-05  3966   0.499E-03    0.432E-03
RMM:  10    -0.413217187382E+03    0.21541E-05   -0.27084E-06  2698   0.231E-03    0.252E-03
RMM:  11    -0.413217184574E+03    0.28076E-05   -0.11530E-06  2495   0.171E-03    0.128E-03
RMM:  12    -0.413217180878E+03    0.36957E-05   -0.69498E-07  2387   0.133E-03    0.667E-04
RMM:  13    -0.413217178018E+03    0.28602E-05   -0.33198E-07  1867   0.948E-04    0.291E-04
RMM:  14    -0.413217175321E+03    0.26970E-05   -0.19512E-07  1408   0.756E-04    0.161E-04
RMM:  15    -0.413217171270E+03    0.40509E-05   -0.15862E-07  1342   0.724E-04    0.115E-04
RMM:  16    -0.413217168730E+03    0.25403E-05   -0.10462E-07  1215   0.662E-04    0.804E-05
RMM:  17    -0.413217163805E+03    0.49253E-05   -0.11061E-07  1438   0.682E-04    0.559E-05
RMM:  18    -0.413217162087E+03    0.17183E-05   -0.52231E-08  1005   0.566E-04    0.320E-05
RMM:  19    -0.413217160832E+03    0.12549E-05   -0.33132E-08   869   0.539E-04    0.171E-05
RMM:  20    -0.413217160394E+03    0.43719E-06   -0.19258E-08   719   0.518E-04
   47 T=    71. E= -.41286673E+03 F= -.41321716E+03 E0= -.41319623E+03  EK= 0.35043E+00 SP= 0.00E+00 SK= 0.00E+00
       N       E                     dE             d eps       ncg     rms          rms(c)
RMM:   1    -0.413233480580E+03   -0.16320E-01   -0.82499E+00  4312   0.142E+00    0.966E-01
RMM:   2    -0.413221671556E+03    0.11809E-01   -0.13051E-01  4457   0.177E-01    0.709E-01
RMM:   3    -0.413232562912E+03   -0.10891E-01   -0.43081E-02  5106   0.147E-01    0.561E-01
RMM:   4    -0.413230938605E+03    0.16243E-02   -0.44223E-02  4996   0.188E-01    0.530E-01
RMM:   5    -0.413214553774E+03    0.16385E-01   -0.51532E-03  4576   0.920E-02    0.558E-02
RMM:   6    -0.413214478435E+03    0.75339E-04   -0.10196E-03  5158   0.331E-02    0.287E-02
RMM:   7    -0.413214489408E+03   -0.10972E-04   -0.18401E-04  5530   0.138E-02    0.156E-02
RMM:   8    -0.413214493232E+03   -0.38247E-05   -0.10002E-04  5201   0.103E-02    0.110E-02
RMM:   9    -0.413214480466E+03    0.12767E-04   -0.14279E-05  4190   0.515E-03    0.422E-03
RMM:  10    -0.413214477607E+03    0.28588E-05   -0.30574E-06  2723   0.238E-03    0.234E-03
RMM:  11    -0.413214472688E+03    0.49186E-05   -0.11906E-06  2454   0.181E-03    0.123E-03
RMM:  12    -0.413214468469E+03    0.42187E-05   -0.56469E-07  2321   0.128E-03    0.707E-04
RMM:  13    -0.413214464168E+03    0.43014E-05   -0.27470E-07  1754   0.911E-04    0.324E-04
RMM:  14    -0.413214459710E+03    0.44583E-05   -0.15099E-07  1333   0.725E-04    0.169E-04
RMM:  15    -0.413214455245E+03    0.44645E-05   -0.10805E-07  1216   0.675E-04    0.121E-04
RMM:  16    -0.413214452098E+03    0.31472E-05   -0.72983E-08  1102   0.628E-04    0.938E-05
RMM:  17    -0.413214446322E+03    0.57757E-05   -0.81479E-08  1354   0.647E-04    0.664E-05
RMM:  18    -0.413214444682E+03    0.16405E-05   -0.31318E-08   826   0.529E-04    0.518E-05
RMM:  19    -0.413214443183E+03    0.14985E-05   -0.22678E-08   759   0.521E-04    0.241E-05
RMM:  20    -0.413214442209E+03    0.97407E-06   -0.15878E-08   690   0.509E-04
   48 T=    71. E= -.41286689E+03 F= -.41321444E+03 E0= -.41319352E+03  EK= 0.34755E+00 SP= 0.00E+00 SK= 0.00E+00
       N       E                     dE             d eps       ncg     rms          rms(c)
RMM:   1    -0.413230634132E+03   -0.16191E-01   -0.80857E+00  4307   0.153E+00    0.953E-01
RMM:   2    -0.413216160413E+03    0.14474E-01   -0.13114E-01  4531   0.189E-01    0.698E-01
RMM:   3    -0.413235070895E+03   -0.18910E-01   -0.47268E-02  5138   0.166E-01    0.672E-01
RMM:   4    -0.413220171649E+03    0.14899E-01   -0.43711E-02  4970   0.190E-01    0.435E-01
RMM:   5    -0.413209217783E+03    0.10954E-01   -0.37085E-03  4579   0.847E-02    0.577E-02
RMM:   6    -0.413209088951E+03    0.12883E-03   -0.53192E-04  4772   0.281E-02    0.292E-02
RMM:   7    -0.413209101432E+03   -0.12480E-04   -0.20497E-04  5798   0.155E-02    0.166E-02
RMM:   8    -0.413209088405E+03    0.13027E-04   -0.67377E-05  5111   0.922E-03    0.917E-03
RMM:   9    -0.413209083509E+03    0.48956E-05   -0.10993E-05  4035   0.455E-03    0.413E-03
RMM:  10    -0.413209080088E+03    0.34206E-05   -0.16825E-06  2587   0.217E-03    0.231E-03
RMM:  11    -0.413209074350E+03    0.57388E-05   -0.10216E-06  2478   0.167E-03    0.144E-03
RMM:  12    -0.413209070866E+03    0.34835E-05   -0.43067E-07  2261   0.113E-03    0.760E-04
RMM:  13    -0.413209065434E+03    0.54318E-05   -0.35750E-07  2196   0.979E-04    0.462E-04
RMM:  14    -0.413209060986E+03    0.44482E-05   -0.16612E-07  1356   0.725E-04    0.283E-04
RMM:  15    -0.413209056417E+03    0.45687E-05   -0.11004E-07  1117   0.654E-04    0.135E-04
RMM:  16    -0.413209053011E+03    0.34062E-05   -0.81175E-08  1130   0.629E-04    0.864E-05
RMM:  17    -0.413209046744E+03    0.62671E-05   -0.91247E-08  1447   0.665E-04    0.146E-04
RMM:  18    -0.413209045512E+03    0.12324E-05   -0.37921E-08   880   0.527E-04    0.107E-04
RMM:  19    -0.413209043817E+03    0.16945E-05   -0.32090E-08   883   0.524E-04    0.412E-05
RMM:  20    -0.413209042258E+03    0.15593E-05   -0.23408E-08   800   0.512E-04    0.330E-05
RMM:  21    -0.413209042067E+03    0.19086E-06   -0.12288E-08   630   0.483E-04
   49 T=    70. E= -.41286654E+03 F= -.41320904E+03 E0= -.41318812E+03  EK= 0.34250E+00 SP= 0.00E+00 SK= 0.00E+00
       N       E                     dE             d eps       ncg     rms          rms(c)
RMM:   1    -0.413226485966E+03   -0.17444E-01   -0.79899E+00  4310   0.168E+00    0.925E-01
RMM:   2    -0.413209732193E+03    0.16754E-01   -0.13774E-01  4618   0.202E-01    0.697E-01
RMM:   3    -0.413235206207E+03   -0.25474E-01   -0.51453E-02  5141   0.183E-01    0.754E-01
RMM:   4    -0.413211770735E+03    0.23435E-01   -0.46801E-02  4940   0.199E-01    0.401E-01
RMM:   5    -0.413202534157E+03    0.92366E-02   -0.39102E-03  4668   0.879E-02    0.622E-02
RMM:   6    -0.413202358272E+03    0.17589E-03   -0.46647E-04  4667   0.285E-02    0.296E-02
RMM:   7    -0.413202391634E+03   -0.33362E-04   -0.29351E-04  5710   0.186E-02    0.232E-02
RMM:   8    -0.413202363106E+03    0.28528E-04   -0.78758E-05  5002   0.104E-02    0.102E-02
RMM:   9    -0.413202360257E+03    0.28494E-05   -0.24384E-05  5317   0.604E-03    0.477E-03
RMM:  10    -0.413202357514E+03    0.27422E-05   -0.29718E-06  2741   0.258E-03    0.275E-03
RMM:  11    -0.413202353652E+03    0.38627E-05   -0.15835E-06  2504   0.209E-03    0.212E-03
[...]
RMM:   3    -0.413160487280E+03    0.65175E-03   -0.77782E-03  5037   0.473E-02    0.170E-01
RMM:   4    -0.413198989584E+03   -0.38502E-01   -0.42728E-02  5142   0.172E-01    0.818E-01
RMM:   5    -0.413159570963E+03    0.39419E-01   -0.18903E-02  4795   0.137E-01    0.536E-02
RMM:   6    -0.413159613241E+03   -0.42278E-04   -0.31958E-03  5694   0.531E-02    0.205E-02
RMM:   7    -0.413159655626E+03   -0.42384E-04   -0.39997E-04  6030   0.163E-02    0.147E-02
RMM:   8    -0.413159668155E+03   -0.12529E-04   -0.60249E-05  5229   0.748E-03    0.824E-03
RMM:   9    -0.413159675633E+03   -0.74783E-05   -0.10065E-05  3314   0.356E-03    0.366E-03
RMM:  10    -0.413159683481E+03   -0.78482E-05   -0.28037E-06  2616   0.217E-03    0.242E-03
RMM:  11    -0.413159692280E+03   -0.87987E-05   -0.13331E-06  2515   0.168E-03    0.125E-03
RMM:  12    -0.413159698758E+03   -0.64779E-05   -0.82236E-07  2383   0.131E-03    0.407E-04
RMM:  13    -0.413159701396E+03   -0.26383E-05   -0.37915E-07  1939   0.955E-04    0.280E-04
RMM:  14    -0.413159703803E+03   -0.24065E-05   -0.24856E-07  1459   0.803E-04    0.171E-04
RMM:  15    -0.413159707138E+03   -0.33359E-05   -0.30663E-07  1555   0.805E-04    0.108E-04
RMM:  16    -0.413159707819E+03   -0.68038E-06   -0.12567E-07  1228   0.667E-04
  137 T=    60. E= -.41286735E+03 F= -.41315971E+03 E0= -.41313896E+03  EK= 0.29235E+00 SP= 0.00E+00 SK= 0.00E+00
       N       E                     dE             d eps       ncg     rms          rms(c)
RMM:   1    -0.413152896522E+03    0.68106E-02   -0.10311E+01  4265   0.832E-01    0.874E-01
RMM:   2    -0.413161300038E+03   -0.84035E-02   -0.11888E-01  4305   0.976E-02    0.606E-01
RMM:   3    -0.413160940742E+03    0.35930E-03   -0.74068E-03  5003   0.451E-02    0.167E-01
RMM:   4    -0.413196032073E+03   -0.35091E-01   -0.37542E-02  5145   0.161E-01    0.780E-01
RMM:   5    -0.413160367697E+03    0.35664E-01   -0.17371E-02  4802   0.131E-01    0.512E-02
RMM:   6    -0.413160404962E+03   -0.37265E-04   -0.29243E-03  5708   0.509E-02    0.206E-02
RMM:   7    -0.413160436573E+03   -0.31610E-04   -0.36241E-04  5983   0.156E-02    0.142E-02
RMM:   8    -0.413160442116E+03   -0.55435E-05   -0.50674E-05  5013   0.676E-03    0.797E-03
RMM:   9    -0.413160443959E+03   -0.18432E-05   -0.82300E-06  3124   0.325E-03    0.369E-03
RMM:  10    -0.413160447184E+03   -0.32250E-05   -0.23713E-06  2573   0.206E-03    0.232E-03
RMM:  11    -0.413160450437E+03   -0.32524E-05   -0.12075E-06  2491   0.160E-03    0.112E-03
RMM:  12    -0.413160452576E+03   -0.21395E-05   -0.74240E-07  2346   0.125E-03    0.351E-04
RMM:  13    -0.413160453488E+03   -0.91178E-06   -0.34903E-07  1880   0.931E-04
  138 T=    60. E= -.41286791E+03 F= -.41316045E+03 E0= -.41313972E+03  EK= 0.29254E+00 SP= 0.00E+00 SK= 0.00E+00
       N       E                     dE             d eps       ncg     rms          rms(c)
RMM:   1    -0.413151979307E+03    0.84733E-02   -0.10314E+01  4265   0.834E-01    0.858E-01
RMM:   2    -0.413161170335E+03   -0.91910E-02   -0.11937E-01  4307   0.983E-02    0.599E-01
RMM:   3    -0.413160340860E+03    0.82947E-03   -0.65658E-03  4968   0.400E-02    0.156E-01
RMM:   4    -0.413189125959E+03   -0.28785E-01   -0.29936E-02  5155   0.144E-01    0.707E-01
RMM:   5    -0.413159966965E+03    0.29159E-01   -0.14423E-02  4809   0.118E-01    0.456E-02
RMM:   6    -0.413159993653E+03   -0.26688E-04   -0.24044E-03  5710   0.463E-02    0.182E-02
RMM:   7    -0.413160020792E+03   -0.27139E-04   -0.29268E-04  5877   0.141E-02    0.126E-02
RMM:   8    -0.413160026978E+03   -0.61861E-05   -0.38846E-05  4640   0.591E-03    0.719E-03
RMM:   9    -0.413160030567E+03   -0.35887E-05   -0.62657E-06  2968   0.294E-03    0.338E-03
RMM:  10    -0.413160035147E+03   -0.45804E-05   -0.20947E-06  2557   0.195E-03    0.206E-03
RMM:  11    -0.413160039410E+03   -0.42625E-05   -0.11720E-06  2494   0.152E-03    0.976E-04
RMM:  12    -0.413160042118E+03   -0.27079E-05   -0.68673E-07  2256   0.118E-03    0.324E-04
RMM:  13    -0.413160043417E+03   -0.12995E-05   -0.35206E-07  1796   0.902E-04    0.237E-04
RMM:  14    -0.413160044828E+03   -0.14105E-05   -0.31707E-07  1507   0.828E-04    0.113E-04
RMM:  15    -0.413160045581E+03   -0.75333E-06   -0.20904E-07  1477   0.751E-04
  139 T=    60. E= -.41286765E+03 F= -.41316005E+03 E0= -.41313932E+03  EK= 0.29240E+00 SP= 0.00E+00 SK= 0.00E+00
       N       E                     dE             d eps       ncg     rms          rms(c)
RMM:   1    -0.413151883633E+03    0.81612E-02   -0.10407E+01  4264   0.841E-01    0.846E-01
RMM:   2    -0.413161818680E+03   -0.99350E-02   -0.12436E-01  4304   0.101E-01    0.611E-01
RMM:   3    -0.413160869937E+03    0.94874E-03   -0.62448E-03  4937   0.402E-02    0.148E-01
RMM:   4    -0.413186895620E+03   -0.26026E-01   -0.26892E-02  5155   0.137E-01    0.673E-01
RMM:   5    -0.413160572656E+03    0.26323E-01   -0.13081E-02  4811   0.112E-01    0.412E-02
RMM:   6    -0.413160595932E+03   -0.23276E-04   -0.21522E-03  5720   0.438E-02    0.143E-02
RMM:   7    -0.413160626220E+03   -0.30288E-04   -0.25453E-04  5795   0.131E-02    0.110E-02
RMM:   8    -0.413160636450E+03   -0.10229E-04   -0.31823E-05  4324   0.525E-03    0.665E-03
RMM:   9    -0.413160645665E+03   -0.92155E-05   -0.50187E-06  2839   0.273E-03    0.317E-03
RMM:  10    -0.413160654408E+03   -0.87428E-05   -0.20350E-06  2564   0.190E-03    0.182E-03
RMM:  11    -0.413160661609E+03   -0.72015E-05   -0.11170E-06  2487   0.146E-03    0.874E-04
RMM:  12    -0.413160666304E+03   -0.46951E-05   -0.65285E-07  2182   0.112E-03    0.308E-04
RMM:  13    -0.413160669033E+03   -0.27286E-05   -0.37935E-07  1698   0.892E-04    0.218E-04
RMM:  14    -0.413160671954E+03   -0.29215E-05   -0.39879E-07  1630   0.860E-04    0.114E-04
RMM:  15    -0.413160673027E+03   -0.10729E-05   -0.20031E-07  1353   0.720E-04    0.687E-05
RMM:  16    -0.413160673634E+03   -0.60632E-06   -0.16755E-07  1322   0.685E-04
  140 T=    60. E= -.41286771E+03 F= -.41316067E+03 E0= -.41313996E+03  EK= 0.29296E+00 SP= 0.00E+00 SK= 0.00E+00
       N       E                     dE             d eps       ncg     rms          rms(c)
RMM:   1    -0.413152794352E+03    0.78787E-02   -0.10492E+01  4265   0.846E-01    0.868E-01
RMM:   2    -0.413162249210E+03   -0.94549E-02   -0.12231E-01  4307   0.978E-02    0.607E-01
RMM:   3    -0.413161403163E+03    0.84605E-03   -0.62349E-03  4876   0.375E-02    0.149E-01
RMM:   4    -0.413178927852E+03   -0.17525E-01   -0.17911E-02  5160   0.112E-01    0.553E-01
RMM:   5    -0.413161307533E+03    0.17620E-01   -0.89044E-03  4826   0.921E-02    0.368E-02
RMM:   6    -0.413161305691E+03    0.18419E-05   -0.14453E-03  5699   0.366E-02    0.147E-02
RMM:   7    -0.413161325391E+03   -0.19700E-04   -0.17893E-04  5619   0.112E-02    0.101E-02
RMM:   8    -0.413161330414E+03   -0.50225E-05   -0.22348E-05  3984   0.457E-03    0.602E-03
RMM:   9    -0.413161334548E+03   -0.41344E-05   -0.35140E-06  2673   0.248E-03    0.265E-03
RMM:  10    -0.413161338559E+03   -0.40108E-05   -0.16514E-06  2540   0.178E-03    0.148E-03
RMM:  11    -0.413161341229E+03   -0.26700E-05   -0.86368E-07  2431   0.133E-03    0.704E-04
RMM:  12    -0.413161342938E+03   -0.17087E-05   -0.53090E-07  2071   0.103E-03    0.269E-04
RMM:  13    -0.413161343927E+03   -0.98900E-06   -0.33333E-07  1626   0.853E-04
  141 T=    60. E= -.41286795E+03 F= -.41316134E+03 E0= -.41314064E+03  EK= 0.29339E+00 SP= 0.00E+00 SK= 0.00E+00
       N       E                     dE             d eps       ncg     rms          rms(c)
RMM:   1    -0.413152288443E+03    0.90545E-02   -0.10442E+01  4266   0.847E-01    0.865E-01
RMM:   2    -0.413161399967E+03   -0.91115E-02   -0.12174E-01  4302   0.996E-02    0.599E-01
RMM:   3    -0.413160843860E+03    0.55611E-03   -0.61620E-03  4742   0.350E-02    0.145E-01
RMM:   4    -0.413165561900E+03   -0.47180E-02   -0.52875E-03  5164   0.627E-02    0.290E-01
RMM:   5    -0.413160832181E+03    0.47297E-02   -0.24329E-03  4832   0.487E-02    0.291E-02
RMM:   6    -0.413160809526E+03    0.22655E-04   -0.43942E-04  5559   0.217E-02    0.139E-02
RMM:   7    -0.413160817553E+03   -0.80269E-05   -0.65070E-05  5205   0.769E-03    0.837E-03
RMM:   8    -0.413160819533E+03   -0.19796E-05   -0.10928E-05  3543   0.384E-03    0.371E-03
RMM:   9    -0.413160821271E+03   -0.17381E-05   -0.23880E-06  2564   0.229E-03    0.175E-03
RMM:  10    -0.413160823172E+03   -0.19009E-05   -0.10025E-06  2495   0.150E-03    0.105E-03
RMM:  11    -0.413160824456E+03   -0.12846E-05   -0.66159E-07  2250   0.113E-03    0.490E-04
RMM:  12    -0.413160824900E+03   -0.44414E-06   -0.42513E-07  1754   0.900E-04
  142 T=    60. E= -.41286749E+03 F= -.41316082E+03 E0= -.41314013E+03  EK= 0.29333E+00 SP= 0.00E+00 SK= 0.00E+00
       N       E                     dE             d eps       ncg     rms          rms(c)
RMM:   1    -0.413153068660E+03    0.77558E-02   -0.10399E+01  4264   0.850E-01    0.844E-01
RMM:   2    -0.413163140420E+03   -0.10072E-01   -0.12448E-01  4306   0.987E-02    0.608E-01
RMM:   3    -0.413161923693E+03    0.12167E-02   -0.57757E-03  4724   0.329E-02    0.135E-01
RMM:   4    -0.413162146270E+03   -0.22258E-03   -0.10760E-03  5142   0.269E-02    0.641E-02
RMM:   5    -0.413161960089E+03    0.18618E-03   -0.19298E-04  4926   0.146E-02    0.310E-02
RMM:   6    -0.413161922486E+03    0.37604E-04   -0.10582E-04  5120   0.112E-02    0.108E-02
RMM:   7    -0.413161940518E+03   -0.18032E-04   -0.27048E-05  4978   0.593E-03    0.760E-03
RMM:   8    -0.413161950398E+03   -0.98803E-05   -0.69672E-06  3170   0.347E-03    0.290E-03
RMM:   9    -0.413161955113E+03   -0.47147E-05   -0.13848E-06  2506   0.192E-03    0.151E-03
RMM:  10    -0.413161959776E+03   -0.46629E-05   -0.86926E-07  2411   0.138E-03    0.847E-04
RMM:  11    -0.413161965186E+03   -0.54097E-05   -0.80678E-07  2259   0.117E-03    0.438E-04
RMM:  12    -0.413161967657E+03   -0.24718E-05   -0.39705E-07  1752   0.842E-04    0.216E-04
RMM:  13    -0.413161969253E+03   -0.15952E-05   -0.27225E-07  1399   0.739E-04    0.141E-04
RMM:  14    -0.413161970692E+03   -0.14397E-05   -0.41880E-07  1631   0.795E-04    0.102E-04
RMM:  15    -0.413161970630E+03    0.61849E-07   -0.10332E-07  1030   0.565E-04
  143 T=    60. E= -.41286788E+03 F= -.41316197E+03 E0= -.41314128E+03  EK= 0.29409E+00 SP= 0.00E+00 SK= 0.00E+00
       N       E                     dE             d eps       ncg     rms          rms(c)
RMM:   1    -0.413153760649E+03    0.82100E-02   -0.10402E+01  4264   0.855E-01    0.860E-01
RMM:   2    -0.413163519537E+03   -0.97589E-02   -0.12310E-01  4297   0.103E-01    0.611E-01
RMM:   3    -0.413162248444E+03    0.12711E-02   -0.61126E-03  4664   0.366E-02    0.137E-01
RMM:   4    -0.413163087964E+03   -0.83952E-03   -0.16727E-03  5182   0.359E-02    0.128E-01
RMM:   5    -0.413162206115E+03    0.88185E-03   -0.51011E-04  4848   0.234E-02    0.277E-02
RMM:   6    -0.413162180465E+03    0.25649E-04   -0.16502E-04  5278   0.138E-02    0.135E-02
RMM:   7    -0.413162192438E+03   -0.11973E-04   -0.38969E-05  5094   0.669E-03    0.791E-03
RMM:   8    -0.413162196360E+03   -0.39221E-05   -0.10775E-05  3633   0.402E-03    0.331E-03
RMM:   9    -0.413162198825E+03   -0.24644E-05   -0.11643E-06  2521   0.185E-03    0.185E-03
RMM:  10    -0.413162202526E+03   -0.37017E-05   -0.97317E-07  2471   0.145E-03    0.856E-04
RMM:  11    -0.413162205367E+03   -0.28408E-05   -0.72562E-07  2164   0.115E-03    0.421E-04
RMM:  12    -0.413162206363E+03   -0.99624E-06   -0.31736E-07  1836   0.845E-04
  144 T=    60. E= -.41286770E+03 F= -.41316221E+03 E0= -.41314153E+03  EK= 0.29451E+00 SP= 0.00E+00 SK= 0.00E+00
       N       E                     dE             d eps       ncg     rms          rms(c)
RMM:   1    -0.413154260411E+03    0.79450E-02   -0.10299E+01  4264   0.851E-01    0.870E-01
RMM:   2    -0.413162903783E+03   -0.86434E-02   -0.12072E-01  4306   0.992E-02    0.603E-01
RMM:   3    -0.413162153371E+03    0.75041E-03   -0.66418E-03  4817   0.348E-02    0.142E-01
RMM:   4    -0.413167928684E+03   -0.57753E-02   -0.63335E-03  5173   0.687E-02    0.321E-01
RMM:   5    -0.413162145844E+03    0.57828E-02   -0.29720E-03  4840   0.537E-02    0.340E-02
RMM:   6    -0.413162116241E+03    0.29604E-04   -0.56282E-04  5576   0.235E-02    0.176E-02
RMM:   7    -0.413162123090E+03   -0.68494E-05   -0.92156E-05  5389   0.891E-03    0.911E-03
RMM:   8    -0.413162123297E+03   -0.20713E-06   -0.21042E-05  4447   0.504E-03    0.457E-03
RMM:   9    -0.413162122825E+03    0.47252E-06   -0.20150E-06  2612   0.213E-03
  145 T=    60. E= -.41286759E+03 F= -.41316212E+03 E0= -.41314145E+03  EK= 0.29453E+00 SP= 0.00E+00 SK= 0.00E+00
       N       E                     dE             d eps       ncg     rms          rms(c)
RMM:   1    -0.413155154148E+03    0.69691E-02   -0.10120E+01  4269   0.848E-01    0.843E-01
RMM:   2    -0.413164551062E+03   -0.93969E-02   -0.12122E-01  4309   0.990E-02    0.607E-01
RMM:   3    -0.413163426826E+03    0.11242E-02   -0.66802E-03  4951   0.414E-02    0.145E-01
RMM:   4    -0.413188403002E+03   -0.24976E-01   -0.25830E-02  5149   0.134E-01    0.659E-01
RMM:   5    -0.413163088654E+03    0.25314E-01   -0.12691E-02  4830   0.110E-01    0.458E-02
RMM:   6    -0.413163118240E+03   -0.29586E-04   -0.20080E-03  5708   0.430E-02    0.180E-02
RMM:   7    -0.413163140647E+03   -0.22406E-04   -0.25691E-04  5853   0.133E-02    0.119E-02
RMM:   8    -0.413163147833E+03   -0.71867E-05   -0.42248E-05  5001   0.640E-03    0.692E-03
RMM:   9    -0.413163150377E+03   -0.25436E-05   -0.68460E-06  3036   0.308E-03    0.293E-03
RMM:  10    -0.413163153952E+03   -0.35754E-05   -0.24293E-06  2587   0.210E-03    0.185E-03
RMM:  11    -0.413163156944E+03   -0.29919E-05   -0.12959E-06  2507   0.161E-03    0.993E-04
RMM:  12    -0.413163158364E+03   -0.14194E-05   -0.74537E-07  2312   0.121E-03    0.392E-04
RMM:  13    -0.413163158749E+03   -0.38560E-06   -0.42221E-07  1867   0.921E-04
  146 T=    60. E= -.41286786E+03 F= -.41316316E+03 E0= -.41314249E+03  EK= 0.29530E+00 SP= 0.00E+00 SK= 0.00E+00
       N       E                     dE             d eps       ncg     rms          rms(c)
RMM:   1    -0.413156010007E+03    0.71484E-02   -0.10058E+01  4264   0.851E-01    0.852E-01
RMM:   2    -0.413165132284E+03   -0.91223E-02   -0.12106E-01  4294   0.101E-01    0.616E-01
RMM:   3    -0.413163569940E+03    0.15623E-02   -0.72561E-03  4907   0.405E-02    0.133E-01
RMM:   4    -0.413183174667E+03   -0.19605E-01   -0.20248E-02  5157   0.119E-01    0.586E-01
RMM:   5    -0.413163329201E+03    0.19845E-01   -0.99846E-03  4836   0.972E-02    0.439E-02
RMM:   6    -0.413163339610E+03   -0.10409E-04   -0.16553E-03  5707   0.382E-02    0.198E-02
RMM:   7    -0.413163359898E+03   -0.20287E-04   -0.21703E-04  5752   0.122E-02    0.113E-02
RMM:   8    -0.413163366950E+03   -0.70523E-05   -0.37595E-05  4937   0.625E-03    0.657E-03
RMM:   9    -0.413163368345E+03   -0.13951E-05   -0.60615E-06  3051   0.302E-03    0.284E-03
RMM:  10    -0.413163371846E+03   -0.35006E-05   -0.23082E-06  2579   0.213E-03    0.189E-03
RMM:  11    -0.413163374783E+03   -0.29377E-05   -0.12017E-06  2511   0.162E-03    0.940E-04
RMM:  12    -0.413163376149E+03   -0.13661E-05   -0.63050E-07  2279   0.116E-03    0.410E-04
RMM:  13    -0.413163376613E+03   -0.46319E-06   -0.37691E-07  1840   0.902E-04
  147 T=    60. E= -.41286755E+03 F= -.41316338E+03 E0= -.41314272E+03  EK= 0.29583E+00 SP= 0.00E+00 SK= 0.00E+00
       N       E                     dE             d eps       ncg     rms          rms(c)
RMM:   1    -0.413157436876E+03    0.59393E-02   -0.98911E+00  4266   0.843E-01    0.871E-01
RMM:   2    -0.413165182523E+03   -0.77456E-02   -0.11695E-01  4305   0.980E-02    0.609E-01
RMM:   3    -0.413164001355E+03    0.11812E-02   -0.80689E-03  4931   0.424E-02    0.142E-01
RMM:   4    -0.413188765417E+03   -0.24764E-01   -0.25724E-02  5153   0.134E-01    0.657E-01
RMM:   5    -0.413163667015E+03    0.25098E-01   -0.12554E-02  4825   0.109E-01    0.504E-02
RMM:   6    -0.413163690989E+03   -0.23974E-04   -0.21005E-03  5692   0.434E-02    0.242E-02
RMM:   7    -0.413163706433E+03   -0.15444E-04   -0.28708E-04  5902   0.140E-02    0.132E-02
RMM:   8    -0.413163706264E+03    0.16887E-06   -0.47940E-05  5205   0.708E-03    0.739E-03
RMM:   9    -0.413163703459E+03    0.28048E-05   -0.77322E-06  3276   0.331E-03    0.326E-03
RMM:  10    -0.413163702249E+03    0.12100E-05   -0.26463E-06  2603   0.226E-03    0.221E-03
RMM:  11    -0.413163700363E+03    0.18866E-05   -0.12090E-06  2507   0.169E-03    0.114E-03
RMM:  12    -0.413163698047E+03    0.23153E-05   -0.69633E-07  2427   0.127E-03    0.466E-04
RMM:  13    -0.413163696304E+03    0.17436E-05   -0.36674E-07  1879   0.919E-04    0.297E-04
RMM:  14    -0.413163694248E+03    0.20561E-05   -0.26557E-07  1570   0.813E-04    0.164E-04
RMM:  15    -0.413163692141E+03    0.21064E-05   -0.19864E-07  1564   0.752E-04    0.959E-05
RMM:  16    -0.413163688963E+03    0.31787E-05   -0.21860E-07  1664   0.757E-04    0.784E-05
RMM:  17    -0.413163687978E+03    0.98457E-06   -0.84571E-08  1125   0.582E-04
  148 T=    60. E= -.41286772E+03 F= -.41316369E+03 E0= -.41314303E+03  EK= 0.29597E+00 SP= 0.00E+00 SK= 0.00E+00
       N       E                     dE             d eps       ncg     rms          rms(c)
RMM:   1    -0.413158233933E+03    0.54550E-02   -0.96135E+00  4264   0.840E-01    0.845E-01
RMM:   2    -0.413166128300E+03   -0.78944E-02   -0.11560E-01  4306   0.974E-02    0.608E-01
RMM:   3    -0.413164750472E+03    0.13778E-02   -0.85558E-03  4983   0.453E-02    0.143E-01
RMM:   4    -0.413196826141E+03   -0.32076E-01   -0.34197E-02  5146   0.154E-01    0.745E-01
RMM:   5    -0.413164171403E+03    0.32655E-01   -0.16111E-02  4816   0.125E-01    0.556E-02
RMM:   6    -0.413164218311E+03   -0.46908E-04   -0.26909E-03  5675   0.492E-02    0.247E-02
RMM:   7    -0.413164243055E+03   -0.24745E-04   -0.36265E-04  6003   0.154E-02    0.144E-02
RMM:   8    -0.413164246175E+03   -0.31194E-05   -0.58483E-05  5355   0.779E-03    0.805E-03
RMM:   9    -0.413164244998E+03    0.11771E-05   -0.10089E-05  3473   0.366E-03    0.344E-03
RMM:  10    -0.413164246421E+03   -0.14229E-05   -0.31079E-06  2662   0.235E-03    0.241E-03
RMM:  11    -0.413164247209E+03   -0.78805E-06   -0.12999E-06  2508   0.177E-03
  149 T=    60. E= -.41286784E+03 F= -.41316425E+03 E0= -.41314359E+03  EK= 0.29641E+00 SP= 0.00E+00 SK= 0.00E+00
       N       E                     dE             d eps       ncg     rms          rms(c)
RMM:   1    -0.413159226214E+03    0.50202E-02   -0.94811E+00  4264   0.831E-01    0.847E-01
RMM:   2    -0.413166933234E+03   -0.77070E-02   -0.11521E-01  4302   0.975E-02    0.621E-01
RMM:   3    -0.413165357548E+03    0.15757E-02   -0.10100E-02  5049   0.493E-02    0.150E-01
RMM:   4    -0.413202477687E+03   -0.37120E-01   -0.41220E-02  5131   0.169E-01    0.801E-01
RMM:   5    -0.413164450577E+03    0.38027E-01   -0.18368E-02  4814   0.134E-01    0.602E-02
RMM:   6    -0.413164511780E+03   -0.61203E-04   -0.31105E-03  5670   0.530E-02    0.256E-02
RMM:   7    -0.413164543686E+03   -0.31906E-04   -0.43154E-04  6057   0.169E-02    0.157E-02
RMM:   8    -0.413164549303E+03   -0.56161E-05   -0.70242E-05  5411   0.860E-03    0.869E-03
RMM:   9    -0.413164549340E+03   -0.37544E-07   -0.11886E-05  3622   0.396E-03    0.368E-03
RMM:  10    -0.413164552004E+03   -0.26640E-05   -0.34692E-06  2710   0.244E-03    0.255E-03
RMM:  11    -0.413164554392E+03   -0.23878E-05   -0.15005E-06  2512   0.190E-03    0.150E-03
RMM:  12    -0.413164555499E+03   -0.11067E-05   -0.83288E-07  2493   0.141E-03    0.545E-04
RMM:  13    -0.413164555585E+03   -0.86493E-07   -0.38191E-07  2040   0.975E-04
  150 T=    60. E= -.41286756E+03 F= -.41316456E+03 E0= -.41314391E+03  EK= 0.29699E+00 SP= 0.00E+00 SK= 0.00E+00
