       N       E                     dE             d eps       ncg     rms          rms(c)
RMM:   1     0.220170115208E+04    0.22017E+04   -0.52440E+04  2132   0.654E+02
RMM:   2     0.705339523349E+03   -0.14964E+04   -0.16263E+04  2132   0.177E+02
RMM:   3     0.137547307897E+03   -0.56779E+03   -0.65725E+03  2132   0.117E+02
RMM:   4    -0.159344785224E+03   -0.29689E+03   -0.27874E+03  2132   0.937E+01
RMM:   5    -0.287322023762E+03   -0.12798E+03   -0.11428E+03  2132   0.595E+01
RMM:   6    -0.349686066263E+03   -0.62364E+02   -0.55139E+02  2132   0.423E+01
RMM:   7    -0.382660182018E+03   -0.32974E+02   -0.30481E+02  2132   0.293E+01
RMM:   8    -0.404198640211E+03   -0.21538E+02   -0.18458E+02  2132   0.233E+01
RMM:   9    -0.435932323556E+03   -0.31734E+02   -0.30607E+02  6102   0.173E+01
RMM:  10    -0.441319632264E+03   -0.53873E+01   -0.63629E+01  6396   0.540E+00
RMM:  11    -0.442517721861E+03   -0.11981E+01   -0.10976E+01  6214   0.173E+00
RMM:  12    -0.442886608448E+03   -0.36889E+00   -0.26874E+00  6366   0.598E-01    0.134E+02
RMM:  13    -0.425648849797E+03    0.17238E+02   -0.81297E+01  4677   0.120E+01    0.712E+01
RMM:  14    -0.500045358148E+03   -0.74397E+02   -0.54524E+02  5423   0.233E+01    0.308E+01
RMM:  15    -0.415010968621E+03    0.85034E+02   -0.19796E+02  5057   0.163E+01    0.649E+00
RMM:  16    -0.414030986154E+03    0.97998E+00   -0.39607E+01  6073   0.609E+00    0.427E+00
RMM:  17    -0.413217228902E+03    0.81376E+00   -0.23605E+00  5378   0.184E+00    0.244E+00
RMM:  18    -0.413171061311E+03    0.46168E-01   -0.81344E-01  5973   0.928E-01    0.162E+00
RMM:  19    -0.413170243705E+03    0.81761E-03   -0.26734E-01  5687   0.561E-01    0.852E-01
RMM:  20    -0.413187587661E+03   -0.17344E-01   -0.24256E-01  5433   0.532E-01    0.583E-01
RMM:  21    -0.413168724819E+03    0.18863E-01   -0.34663E-02  4977   0.242E-01    0.257E-01
RMM:  22    -0.413166692151E+03    0.20327E-02   -0.15360E-02  6087   0.109E-01    0.145E-01
RMM:  23    -0.413164976871E+03    0.17153E-02   -0.63838E-03  5860   0.751E-02    0.857E-02
RMM:  24    -0.413163451915E+03    0.15250E-02   -0.15044E-03  5175   0.411E-02    0.436E-02
RMM:  25    -0.413162912829E+03    0.53909E-03   -0.81067E-04  5579   0.267E-02    0.354E-02
RMM:  26    -0.413162993921E+03   -0.81092E-04   -0.80398E-04  5765   0.301E-02    0.318E-02
RMM:  27    -0.413163387536E+03   -0.39361E-03   -0.18779E-04  4596   0.200E-02    0.199E-02
RMM:  28    -0.413163844553E+03   -0.45702E-03   -0.17888E-04  5108   0.199E-02    0.104E-02
RMM:  29    -0.413164208671E+03   -0.36412E-03   -0.11268E-04  4515   0.158E-02    0.400E-03
RMM:  30    -0.413164416015E+03   -0.20734E-03   -0.81320E-05  4404   0.102E-02    0.369E-03
RMM:  31    -0.413164512238E+03   -0.96223E-04   -0.46533E-05  3173   0.615E-03    0.347E-03
RMM:  32    -0.413164527982E+03   -0.15744E-04   -0.17925E-05  2950   0.287E-03    0.174E-03
RMM:  33    -0.413164533607E+03   -0.56249E-05   -0.74337E-06  2752   0.205E-03    0.615E-04
RMM:  34    -0.413164533516E+03    0.91077E-07   -0.42344E-06  2652   0.164E-03
    1 T=    61. E= -.41286670E+03 F= -.41316453E+03 E0= -.41314204E+03  EK= 0.29784E+00 SP= 0.00E+00 SK= 0.00E+00
       N       E                     dE             d eps       ncg     rms          rms(c)
RMM:   1    -0.413173528212E+03   -0.89946E-02   -0.63352E+00  3984   0.494E-01    0.908E-01
RMM:   2    -0.413171398692E+03    0.21295E-02   -0.81758E-02  3916   0.734E-02    0.664E-01
RMM:   3    -0.413167551443E+03    0.38472E-02   -0.50130E-02  5075   0.774E-02    0.307E-01
RMM:   4    -0.413187091727E+03   -0.19540E-01   -0.30018E-02  5170   0.147E-01    0.635E-01
RMM:   5    -0.413164076865E+03    0.23015E-01   -0.11550E-02  4767   0.108E-01    0.479E-02
RMM:   6    -0.413164226397E+03   -0.14953E-03   -0.19690E-03  5678   0.434E-02    0.302E-02
RMM:   7    -0.413164245302E+03   -0.18905E-04   -0.34450E-04  5762   0.167E-02    0.199E-02
RMM:   8    -0.413164246743E+03   -0.14419E-05   -0.43185E-05  4933   0.747E-03    0.700E-03
RMM:   9    -0.413164249677E+03   -0.29333E-05   -0.90117E-06  3249   0.315E-03    0.460E-03
RMM:  10    -0.413164254870E+03   -0.51927E-05   -0.19158E-06  2564   0.199E-03    0.282E-03
RMM:  11    -0.413164258778E+03   -0.39087E-05   -0.10553E-06  2500   0.145E-03    0.139E-03
RMM:  12    -0.413164264195E+03   -0.54163E-05   -0.10430E-06  2496   0.137E-03    0.685E-04
RMM:  13    -0.413164266792E+03   -0.25977E-05   -0.52983E-07  2072   0.101E-03    0.426E-04
RMM:  14    -0.413164267316E+03   -0.52383E-06   -0.30373E-07  1561   0.763E-04
    2 T=    61. E= -.41286642E+03 F= -.41316427E+03 E0= -.41314177E+03  EK= 0.29784E+00 SP= 0.00E+00 SK= 0.00E+00
       N       E                     dE             d eps       ncg     rms          rms(c)
RMM:   1    -0.413174610336E+03   -0.10344E-01   -0.62851E+00  4189   0.494E-01    0.923E-01
RMM:   2    -0.413171619848E+03    0.29905E-02   -0.82109E-02  3900   0.723E-02    0.663E-01
RMM:   3    -0.413168464866E+03    0.31550E-02   -0.46713E-02  5108   0.772E-02    0.293E-01
RMM:   4    -0.413187877765E+03   -0.19413E-01   -0.31061E-02  5139   0.151E-01    0.637E-01
RMM:   5    -0.413164658183E+03    0.23220E-01   -0.10908E-02  4740   0.107E-01    0.473E-02
RMM:   6    -0.413164800531E+03   -0.14235E-03   -0.19306E-03  5652   0.433E-02    0.323E-02
RMM:   7    -0.413164801031E+03   -0.50030E-06   -0.34467E-04  5667   0.174E-02    0.217E-02
RMM:   8    -0.413164793529E+03    0.75024E-05   -0.47629E-05  5120   0.790E-03    0.847E-03
RMM:   9    -0.413164792039E+03    0.14894E-05   -0.88816E-06  3355   0.341E-03    0.510E-03
RMM:  10    -0.413164792073E+03   -0.33353E-07   -0.16707E-06  2544   0.209E-03
    3 T=    61. E= -.41286674E+03 F= -.41316479E+03 E0= -.41314230E+03  EK= 0.29806E+00 SP= 0.00E+00 SK= 0.00E+00
       N       E                     dE             d eps       ncg     rms          rms(c)
RMM:   1    -0.413173914695E+03   -0.91227E-02   -0.62436E+00  4216   0.499E-01    0.909E-01
RMM:   2    -0.413171321245E+03    0.25934E-02   -0.81574E-02  4133   0.711E-02    0.657E-01
RMM:   3    -0.413172587715E+03   -0.12665E-02   -0.49726E-02  5162   0.985E-02    0.404E-01
RMM:   4    -0.413180021869E+03   -0.74342E-02   -0.29680E-02  5083   0.150E-01    0.532E-01
RMM:   5    -0.413164514229E+03    0.15508E-01   -0.72889E-03  4613   0.887E-02    0.468E-02
RMM:   6    -0.413164560578E+03   -0.46350E-04   -0.12221E-03  5429   0.342E-02    0.298E-02
RMM:   7    -0.413164571555E+03   -0.10977E-04   -0.23321E-04  5591   0.146E-02    0.187E-02
RMM:   8    -0.413164568991E+03    0.25641E-05   -0.34247E-05  4867   0.692E-03    0.644E-03
RMM:   9    -0.413164568920E+03    0.71748E-07   -0.47134E-06  2842   0.268E-03
    4 T=    61. E= -.41286655E+03 F= -.41316457E+03 E0= -.41314208E+03  EK= 0.29801E+00 SP= 0.00E+00 SK= 0.00E+00
       N       E                     dE             d eps       ncg     rms          rms(c)
RMM:   1    -0.413173958118E+03   -0.93891E-02   -0.63292E+00  4241   0.512E-01    0.905E-01
RMM:   2    -0.413171717748E+03    0.22404E-02   -0.82394E-02  4115   0.714E-02    0.663E-01
RMM:   3    -0.413172306314E+03   -0.58857E-03   -0.52550E-02  5155   0.958E-02    0.408E-01
RMM:   4    -0.413181258029E+03   -0.89517E-02   -0.29895E-02  5092   0.150E-01    0.555E-01
RMM:   5    -0.413164661199E+03    0.16597E-01   -0.83522E-03  4636   0.929E-02    0.463E-02
RMM:   6    -0.413164731260E+03   -0.70061E-04   -0.12991E-03  5504   0.352E-02    0.289E-02
RMM:   7    -0.413164747456E+03   -0.16196E-04   -0.24361E-04  5597   0.149E-02    0.183E-02
RMM:   8    -0.413164751019E+03   -0.35629E-05   -0.34298E-05  4820   0.698E-03    0.614E-03
RMM:   9    -0.413164753959E+03   -0.29401E-05   -0.49480E-06  2889   0.270E-03    0.363E-03
RMM:  10    -0.413164758814E+03   -0.48552E-05   -0.13121E-06  2532   0.179E-03    0.221E-03
RMM:  11    -0.413164762271E+03   -0.34572E-05   -0.76729E-07  2398   0.131E-03    0.107E-03
RMM:  12    -0.413164766559E+03   -0.42877E-05   -0.82800E-07  2447   0.123E-03    0.548E-04
RMM:  13    -0.413164768858E+03   -0.22992E-05   -0.46696E-07  1888   0.941E-04    0.328E-04
RMM:  14    -0.413164769490E+03   -0.63128E-06   -0.23181E-07  1424   0.747E-04
    5 T=    61. E= -.41286664E+03 F= -.41316477E+03 E0= -.41314229E+03  EK= 0.29813E+00 SP= 0.00E+00 SK= 0.00E+00
       N       E                     dE             d eps       ncg     rms          rms(c)
RMM:   1    -0.413174941726E+03   -0.10173E-01   -0.62947E+00  4246   0.506E-01    0.920E-01
RMM:   2    -0.413172094213E+03    0.28475E-02   -0.81815E-02  4050   0.706E-02    0.664E-01
RMM:   3    -0.413169341634E+03    0.27526E-02   -0.47693E-02  5104   0.777E-02    0.311E-01
RMM:   4    -0.413187404892E+03   -0.18063E-01   -0.30845E-02  5116   0.150E-01    0.627E-01
RMM:   5    -0.413165096717E+03    0.22308E-01   -0.10608E-02  4712   0.105E-01    0.469E-02
RMM:   6    -0.413165241851E+03   -0.14513E-03   -0.18074E-03  5621   0.419E-02    0.317E-02
RMM:   7    -0.413165245632E+03   -0.37816E-05   -0.32176E-04  5656   0.167E-02    0.212E-02
RMM:   8    -0.413165242681E+03    0.29509E-05   -0.44377E-05  5032   0.787E-03    0.803E-03
RMM:   9    -0.413165241891E+03    0.78987E-06   -0.80235E-06  3224   0.336E-03
    6 T=    61. E= -.41286689E+03 F= -.41316524E+03 E0= -.41314278E+03  EK= 0.29835E+00 SP= 0.00E+00 SK= 0.00E+00
       N       E                     dE             d eps       ncg     rms          rms(c)
RMM:   1    -0.413174511952E+03   -0.92693E-02   -0.62489E+00  4269   0.511E-01    0.914E-01
RMM:   2    -0.413171776646E+03    0.27353E-02   -0.81539E-02  4252   0.712E-02    0.658E-01
RMM:   3    -0.413175410352E+03   -0.36337E-02   -0.50641E-02  5168   0.108E-01    0.449E-01
RMM:   4    -0.413177888831E+03   -0.24785E-02   -0.29534E-02  5057   0.151E-01    0.488E-01
RMM:   5    -0.413165016353E+03    0.12872E-01   -0.60285E-03  4562   0.819E-02    0.466E-02
RMM:   6    -0.413165032657E+03   -0.16304E-04   -0.98240E-04  5334   0.307E-02    0.296E-02
RMM:   7    -0.413165040509E+03   -0.78516E-05   -0.19776E-04  5488   0.137E-02    0.177E-02
RMM:   8    -0.413165035183E+03    0.53256E-05   -0.30115E-05  4776   0.666E-03    0.587E-03
RMM:   9    -0.413165033632E+03    0.15506E-05   -0.37068E-06  2735   0.248E-03    0.310E-03
RMM:  10    -0.413165033011E+03    0.62183E-06   -0.11010E-06  2504   0.166E-03
    7 T=    61. E= -.41286666E+03 F= -.41316503E+03 E0= -.41314258E+03  EK= 0.29838E+00 SP= 0.00E+00 SK= 0.00E+00
       N       E                     dE             d eps       ncg     rms          rms(c)
RMM:   1    -0.413174725526E+03   -0.96919E-02   -0.63104E+00  4273   0.519E-01    0.904E-01
RMM:   2    -0.413172639782E+03    0.20857E-02   -0.81637E-02  4071   0.727E-02    0.661E-01
RMM:   3    -0.413170266168E+03    0.23736E-02   -0.50541E-02  5069   0.845E-02    0.341E-01
RMM:   4    -0.413186678365E+03   -0.16412E-01   -0.30159E-02  5098   0.149E-01    0.617E-01
RMM:   5    -0.413165427810E+03    0.21251E-01   -0.10512E-02  4697   0.103E-01    0.456E-02
RMM:   6    -0.413165566943E+03   -0.13913E-03   -0.17489E-03  5629   0.408E-02    0.307E-02
RMM:   7    -0.413165563328E+03    0.36150E-05   -0.31301E-04  5616   0.168E-02    0.205E-02
RMM:   8    -0.413165561346E+03    0.19821E-05   -0.41795E-05  4938   0.784E-03    0.771E-03
RMM:   9    -0.413165562313E+03   -0.96700E-06   -0.77335E-06  3168   0.330E-03
    8 T=    61. E= -.41286686E+03 F= -.41316556E+03 E0= -.41314313E+03  EK= 0.29870E+00 SP= 0.00E+00 SK= 0.00E+00
       N       E                     dE             d eps       ncg     rms          rms(c)
RMM:   1    -0.413175192217E+03   -0.96309E-02   -0.63113E+00  4285   0.520E-01    0.917E-01
RMM:   2    -0.413172777374E+03    0.24148E-02   -0.81926E-02  4282   0.749E-02    0.664E-01
RMM:   3    -0.413177065843E+03   -0.42885E-02   -0.53283E-02  5148   0.113E-01    0.473E-01
RMM:   4    -0.413178044445E+03   -0.97860E-03   -0.29395E-02  5038   0.151E-01    0.483E-01
RMM:   5    -0.413165726619E+03    0.12318E-01   -0.61660E-03  4543   0.809E-02    0.456E-02
RMM:   6    -0.413165743611E+03   -0.16992E-04   -0.93517E-04  5325   0.298E-02    0.290E-02
RMM:   7    -0.413165755958E+03   -0.12346E-04   -0.18991E-04  5387   0.136E-02    0.171E-02
RMM:   8    -0.413165756239E+03   -0.28140E-06   -0.28991E-05  4671   0.658E-03    0.546E-03
RMM:   9    -0.413165756738E+03   -0.49857E-06   -0.37233E-06  2713   0.241E-03
    9 T=    61. E= -.41286679E+03 F= -.41316576E+03 E0= -.41314335E+03  EK= 0.29897E+00 SP= 0.00E+00 SK= 0.00E+00
       N       E                     dE             d eps       ncg     rms          rms(c)
RMM:   1    -0.413175515299E+03   -0.97591E-02   -0.62687E+00  4287   0.523E-01    0.921E-01
RMM:   2    -0.413172658257E+03    0.28570E-02   -0.82148E-02  4207   0.740E-02    0.660E-01
RMM:   3    -0.413171864137E+03    0.79412E-03   -0.47811E-02  5108   0.908E-02    0.354E-01
RMM:   4    -0.413184353053E+03   -0.12489E-01   -0.30368E-02  5075   0.150E-01    0.576E-01
RMM:   5    -0.413165753773E+03    0.18599E-01   -0.85103E-03  4675   0.952E-02    0.469E-02
RMM:   6    -0.413165836606E+03   -0.82832E-04   -0.14777E-03  5571   0.376E-02    0.312E-02
RMM:   7    -0.413165831882E+03    0.47239E-05   -0.27611E-04  5614   0.158E-02    0.202E-02
RMM:   8    -0.413165826855E+03    0.50264E-05   -0.37754E-05  4896   0.736E-03    0.716E-03
RMM:   9    -0.413165824417E+03    0.24377E-05   -0.61955E-06  2995   0.295E-03    0.404E-03
RMM:  10    -0.413165822418E+03    0.19992E-05   -0.14460E-06  2526   0.193E-03    0.243E-03
RMM:  11    -0.413165820561E+03    0.18577E-05   -0.79029E-07  2460   0.139E-03    0.122E-03
RMM:  12    -0.413165817269E+03    0.32911E-05   -0.89347E-07  2480   0.132E-03    0.641E-04
RMM:  13    -0.413165814640E+03    0.26295E-05   -0.45836E-07  2006   0.993E-04    0.403E-04
RMM:  14    -0.413165813555E+03    0.10843E-05   -0.19434E-07  1464   0.746E-04    0.238E-04
RMM:  15    -0.413165808966E+03    0.45891E-05   -0.44402E-07  2072   0.915E-04    0.474E-04
RMM:  16    -0.413165805219E+03    0.37477E-05   -0.28057E-07  1288   0.694E-04    0.315E-04
RMM:  17    -0.413165804541E+03    0.67754E-06   -0.86090E-08   934   0.561E-04
   10 T=    61. E= -.41286659E+03 F= -.41316580E+03 E0= -.41314342E+03  EK= 0.29922E+00 SP= 0.00E+00 SK= 0.00E+00
       N       E                     dE             d eps       ncg     rms          rms(c)
RMM:   1    -0.413175846595E+03   -0.10041E-01   -0.62932E+00  4288   0.531E-01    0.903E-01
RMM:   2    -0.413173597771E+03    0.22488E-02   -0.81558E-02  4218   0.726E-02    0.659E-01
RMM:   3    -0.413170788918E+03    0.28089E-02   -0.49635E-02  5061   0.812E-02    0.326E-01
RMM:   4    -0.413188544207E+03   -0.17755E-01   -0.30273E-02  5089   0.149E-01    0.626E-01
RMM:   5    -0.413166469277E+03    0.22075E-01   -0.10813E-02  4711   0.104E-01    0.456E-02
RMM:   6    -0.413166611885E+03   -0.14261E-03   -0.17945E-03  5619   0.413E-02    0.312E-02
RMM:   7    -0.413166616290E+03   -0.44057E-05   -0.31708E-04  5548   0.169E-02    0.208E-02
RMM:   8    -0.413166614653E+03    0.16376E-05   -0.42578E-05  5001   0.760E-03    0.784E-03
RMM:   9    -0.413166615274E+03   -0.62117E-06   -0.78853E-06  3221   0.329E-03
   11 T=    61. E= -.41286691E+03 F= -.41316662E+03 E0= -.41314426E+03  EK= 0.29971E+00 SP= 0.00E+00 SK= 0.00E+00
       N       E                     dE             d eps       ncg     rms          rms(c)
RMM:   1    -0.413176037787E+03   -0.94231E-02   -0.63385E+00  4299   0.534E-01    0.915E-01
RMM:   2    -0.413173531139E+03    0.25066E-02   -0.82167E-02  4337   0.721E-02    0.666E-01
RMM:   3    -0.413178873630E+03   -0.53425E-02   -0.54926E-02  5156   0.115E-01    0.493E-01
RMM:   4    -0.413178382939E+03    0.49069E-03   -0.29819E-02  5034   0.152E-01    0.477E-01
RMM:   5    -0.413166575086E+03    0.11808E-01   -0.61846E-03  4522   0.800E-02    0.452E-02
RMM:   6    -0.413166593758E+03   -0.18672E-04   -0.88176E-04  5268   0.289E-02    0.286E-02
RMM:   7    -0.413166607834E+03   -0.14076E-04   -0.18335E-04  5334   0.135E-02    0.167E-02
RMM:   8    -0.413166608267E+03   -0.43301E-06   -0.27732E-05  4643   0.640E-03    0.517E-03
RMM:   9    -0.413166609106E+03   -0.83941E-06   -0.33316E-06  2685   0.237E-03
   12 T=    61. E= -.41286668E+03 F= -.41316661E+03 E0= -.41314428E+03  EK= 0.29993E+00 SP= 0.00E+00 SK= 0.00E+00
       N       E                     dE             d eps       ncg     rms          rms(c)
RMM:   1    -0.413177006961E+03   -0.10399E-01   -0.62930E+00  4288   0.535E-01    0.925E-01
RMM:   2    -0.413173905187E+03    0.31018E-02   -0.82408E-02  4251   0.717E-02    0.663E-01
RMM:   3    -0.413173420427E+03    0.48476E-03   -0.47981E-02  5135   0.890E-02    0.360E-01
RMM:   4    -0.413185357169E+03   -0.11937E-01   -0.30640E-02  5075   0.151E-01    0.571E-01
RMM:   5    -0.413167072637E+03    0.18285E-01   -0.83205E-03  4664   0.947E-02    0.469E-02
RMM:   6    -0.413167151223E+03   -0.78585E-04   -0.14509E-03  5563   0.372E-02    0.312E-02
RMM:   7    -0.413167148509E+03    0.27139E-05   -0.27018E-04  5586   0.156E-02    0.202E-02
RMM:   8    -0.413167142217E+03    0.62915E-05   -0.37812E-05  4897   0.742E-03    0.717E-03
RMM:   9    -0.413167139205E+03    0.30121E-05   -0.61537E-06  2977   0.296E-03    0.401E-03
RMM:  10    -0.413167136488E+03    0.27176E-05   -0.14236E-06  2516   0.192E-03    0.241E-03
RMM:  11    -0.413167134061E+03    0.24270E-05   -0.78583E-07  2448   0.138E-03    0.122E-03
RMM:  12    -0.413167129748E+03    0.43130E-05   -0.85221E-07  2474   0.132E-03    0.645E-04
RMM:  13    -0.413167126403E+03    0.33444E-05   -0.41605E-07  1989   0.978E-04    0.413E-04
RMM:  14    -0.413167124969E+03    0.14347E-05   -0.18198E-07  1426   0.737E-04    0.246E-04
RMM:  15    -0.413167119816E+03    0.51529E-05   -0.31506E-07  1874   0.840E-04    0.421E-04
RMM:  16    -0.413167114883E+03    0.49327E-05   -0.23485E-07  1324   0.696E-04    0.294E-04
RMM:  17    -0.413167113942E+03    0.94107E-06   -0.77082E-08   910   0.559E-04
   13 T=    61. E= -.41286677E+03 F= -.41316711E+03 E0= -.41314481E+03  EK= 0.30034E+00 SP= 0.00E+00 SK= 0.00E+00
       N       E                     dE             d eps       ncg     rms          rms(c)
RMM:   1    -0.413177123344E+03   -0.10008E-01   -0.62825E+00  4295   0.544E-01    0.906E-01
RMM:   2    -0.413174733149E+03    0.23902E-02   -0.81677E-02  4238   0.742E-02    0.659E-01
RMM:   3    -0.413172192645E+03    0.25405E-02   -0.48892E-02  5085   0.798E-02    0.325E-01
RMM:   4    -0.413189676796E+03   -0.17484E-01   -0.30795E-02  5092   0.150E-01    0.623E-01
RMM:   5    -0.413167685037E+03    0.21992E-01   -0.10602E-02  4701   0.104E-01    0.459E-02
RMM:   6    -0.413167830015E+03   -0.14498E-03   -0.17927E-03  5627   0.412E-02    0.314E-02
RMM:   7    -0.413167840300E+03   -0.10285E-04   -0.31543E-04  5548   0.169E-02    0.210E-02
RMM:   8    -0.413167837101E+03    0.31989E-05   -0.42985E-05  4993   0.763E-03    0.794E-03
RMM:   9    -0.413167836147E+03    0.95401E-06   -0.77612E-06  3190   0.332E-03
   14 T=    61. E= -.41286695E+03 F= -.41316784E+03 E0= -.41314557E+03  EK= 0.30088E+00 SP= 0.00E+00 SK= 0.00E+00
       N       E                     dE             d eps       ncg     rms          rms(c)
RMM:   1    -0.413177274549E+03   -0.94374E-02   -0.63668E+00  4300   0.550E-01    0.913E-01
RMM:   2    -0.413175038834E+03    0.22357E-02   -0.82447E-02  4321   0.749E-02    0.667E-01
RMM:   3    -0.413180634647E+03   -0.55958E-02   -0.56091E-02  5145   0.117E-01    0.503E-01
RMM:   4    -0.413179503548E+03    0.11311E-02   -0.29872E-02  5025   0.152E-01    0.476E-01
RMM:   5    -0.413167847473E+03    0.11656E-01   -0.62779E-03  4509   0.804E-02    0.447E-02
RMM:   6    -0.413167882592E+03   -0.35119E-04   -0.88053E-04  5281   0.286E-02    0.284E-02
RMM:   7    -0.413167888706E+03   -0.61143E-05   -0.18394E-04  5275   0.134E-02    0.166E-02
RMM:   8    -0.413167889494E+03   -0.78740E-06   -0.27291E-05  4536   0.670E-03    0.506E-03
RMM:   9    -0.413167890275E+03   -0.78085E-06   -0.34771E-06  2692   0.240E-03
   15 T=    61. E= -.41286659E+03 F= -.41316789E+03 E0= -.41314566E+03  EK= 0.30130E+00 SP= 0.00E+00 SK= 0.00E+00
       N       E                     dE             d eps       ncg     rms          rms(c)
RMM:   1    -0.413178852701E+03   -0.10963E-01   -0.63207E+00  4296   0.547E-01    0.928E-01
RMM:   2    -0.413175892241E+03    0.29605E-02   -0.82649E-02  4267   0.751E-02    0.665E-01
RMM:   3    -0.413175288012E+03    0.60423E-03   -0.48513E-02  5102   0.928E-02    0.362E-01
RMM:   4    -0.413187256591E+03   -0.11969E-01   -0.30576E-02  5060   0.151E-01    0.572E-01
RMM:   5    -0.413168905025E+03    0.18352E-01   -0.83554E-03  4657   0.952E-02    0.466E-02
RMM:   6    -0.413168993304E+03   -0.88279E-04   -0.14709E-03  5573   0.371E-02    0.313E-02
RMM:   7    -0.413168982019E+03    0.11285E-04   -0.27240E-04  5544   0.162E-02    0.202E-02
RMM:   8    -0.413168974163E+03    0.78565E-05   -0.37898E-05  4874   0.759E-03    0.711E-03
RMM:   9    -0.413168970611E+03    0.35513E-05   -0.64624E-06  3010   0.300E-03    0.402E-03
RMM:  10    -0.413168967448E+03    0.31639E-05   -0.14056E-06  2518   0.191E-03    0.242E-03
RMM:  11    -0.413168964624E+03    0.28239E-05   -0.75566E-07  2439   0.137E-03    0.123E-03
RMM:  12    -0.413168959475E+03    0.51484E-05   -0.84078E-07  2477   0.132E-03    0.652E-04
RMM:  13    -0.413168955269E+03    0.42061E-05   -0.40691E-07  1988   0.976E-04    0.427E-04
RMM:  14    -0.413168953753E+03    0.15156E-05   -0.17395E-07  1415   0.730E-04    0.248E-04
RMM:  15    -0.413168947125E+03    0.66290E-05   -0.29660E-07  1870   0.842E-04    0.457E-04
RMM:  16    -0.413168942153E+03    0.49715E-05   -0.17149E-07  1242   0.655E-04    0.313E-04
RMM:  17    -0.413168940893E+03    0.12599E-05   -0.71305E-08   907   0.551E-04    0.231E-04
RMM:  18    -0.413168938820E+03    0.20734E-05   -0.60838E-08   932   0.571E-04    0.843E-05
RMM:  19    -0.413168937379E+03    0.14409E-05   -0.50841E-08  1007   0.582E-04    0.879E-05
RMM:  20    -0.413168937393E+03   -0.14581E-07   -0.15338E-08   659   0.526E-04
   16 T=    61. E= -.41286686E+03 F= -.41316894E+03 E0= -.41314674E+03  EK= 0.30208E+00 SP= 0.00E+00 SK= 0.00E+00
       N       E                     dE             d eps       ncg     rms          rms(c)
RMM:   1    -0.413178918038E+03   -0.99807E-02   -0.62928E+00  4292   0.553E-01    0.911E-01
RMM:   2    -0.413176413810E+03    0.25042E-02   -0.82242E-02  4257   0.760E-02    0.660E-01
RMM:   3    -0.413173740584E+03    0.26732E-02   -0.48325E-02  5051   0.831E-02    0.319E-01
RMM:   4    -0.413191554279E+03   -0.17814E-01   -0.31004E-02  5074   0.150E-01    0.627E-01
RMM:   5    -0.413169258422E+03    0.22296E-01   -0.10622E-02  4706   0.104E-01    0.459E-02
RMM:   6    -0.413169395969E+03   -0.13755E-03   -0.18171E-03  5638   0.413E-02    0.320E-02
RMM:   7    -0.413169391025E+03    0.49441E-05   -0.31988E-04  5525   0.173E-02    0.213E-02
RMM:   8    -0.413169387088E+03    0.39369E-05   -0.43275E-05  4992   0.793E-03    0.811E-03
RMM:   9    -0.413169384989E+03    0.20989E-05   -0.86227E-06  3242   0.339E-03    0.488E-03
RMM:  10    -0.413169384462E+03    0.52712E-06   -0.15206E-06  2520   0.204E-03
   17 T=    62. E= -.41286671E+03 F= -.41316938E+03 E0= -.41314723E+03  EK= 0.30268E+00 SP= 0.00E+00 SK= 0.00E+00
       N       E                     dE             d eps       ncg     rms          rms(c)
RMM:   1    -0.413179260878E+03   -0.98759E-02   -0.63945E+00  4304   0.562E-01    0.912E-01
RMM:   2    -0.413177096792E+03    0.21641E-02   -0.83028E-02  4285   0.763E-02    0.668E-01
RMM:   3    -0.413178856977E+03   -0.17602E-02   -0.54288E-02  5115   0.105E-01    0.438E-01
RMM:   4    -0.413184940536E+03   -0.60836E-02   -0.29947E-02  5042   0.151E-01    0.534E-01
RMM:   5    -0.413169772048E+03    0.15168E-01   -0.77125E-03  4582   0.882E-02    0.453E-02
RMM:   6    -0.413169836076E+03   -0.64028E-04   -0.12100E-03  5428   0.328E-02    0.290E-02
RMM:   7    -0.413169838047E+03   -0.19712E-05   -0.22565E-04  5425   0.144E-02    0.182E-02
RMM:   8    -0.413169838173E+03   -0.12598E-06   -0.31742E-05  4732   0.675E-03    0.599E-03
RMM:   9    -0.413169838186E+03   -0.12791E-07   -0.44180E-06  2821   0.263E-03
   18 T=    62. E= -.41286661E+03 F= -.41316984E+03 E0= -.41314772E+03  EK= 0.30323E+00 SP= 0.00E+00 SK= 0.00E+00
       N       E                     dE             d eps       ncg     rms          rms(c)
RMM:   1    -0.413180997405E+03   -0.11159E-01   -0.63554E+00  4295   0.560E-01    0.929E-01
RMM:   2    -0.413178074425E+03    0.29230E-02   -0.83169E-02  4284   0.757E-02    0.668E-01
RMM:   3    -0.413178954101E+03   -0.87968E-03   -0.50197E-02  5129   0.981E-02    0.399E-01
RMM:   4    -0.413187356623E+03   -0.84025E-02   -0.30465E-02  5054   0.151E-01    0.543E-01
RMM:   5    -0.413171049217E+03    0.16307E-01   -0.74721E-03  4618   0.905E-02    0.465E-02
RMM:   6    -0.413171117062E+03   -0.67846E-04   -0.13055E-03  5495   0.344E-02    0.305E-02
RMM:   7    -0.413171114596E+03    0.24668E-05   -0.24214E-04  5473   0.154E-02    0.193E-02
RMM:   8    -0.413171110656E+03    0.39397E-05   -0.34781E-05  4788   0.733E-03    0.657E-03
RMM:   9    -0.413171107657E+03    0.29987E-05   -0.55237E-06  2908   0.284E-03    0.366E-03
RMM:  10    -0.413171104788E+03    0.28696E-05   -0.13220E-06  2517   0.184E-03    0.219E-03
RMM:  11    -0.413171102018E+03    0.27697E-05   -0.70866E-07  2389   0.131E-03    0.110E-03
RMM:  12    -0.413171096991E+03    0.50274E-05   -0.75030E-07  2439   0.125E-03    0.591E-04
RMM:  13    -0.413171092889E+03    0.41017E-05   -0.35697E-07  1850   0.918E-04    0.371E-04
RMM:  14    -0.413171090786E+03    0.21027E-05   -0.16444E-07  1322   0.712E-04    0.208E-04
RMM:  15    -0.413171084011E+03    0.67756E-05   -0.26049E-07  1697   0.802E-04    0.374E-04
RMM:  16    -0.413171078397E+03    0.56131E-05   -0.16276E-07  1208   0.657E-04    0.240E-04
RMM:  17    -0.413171077207E+03    0.11904E-05   -0.65541E-08   907   0.561E-04    0.171E-04
RMM:  18    -0.413171074939E+03    0.22678E-05   -0.54430E-08   947   0.573E-04    0.688E-05
RMM:  19    -0.413171073491E+03    0.14486E-05   -0.43379E-08   962   0.570E-04    0.581E-05
RMM:  20    -0.413171073426E+03    0.64338E-07   -0.13273E-08   645   0.518E-04
   19 T=    62. E= -.41286700E+03 F= -.41317107E+03 E0= -.41314900E+03  EK= 0.30408E+00 SP= 0.00E+00 SK= 0.00E+00
       N       E                     dE             d eps       ncg     rms          rms(c)
RMM:   1    -0.413181237431E+03   -0.10164E-01   -0.63212E+00  4296   0.564E-01    0.918E-01
RMM:   2    -0.413178404467E+03    0.28330E-02   -0.82646E-02  4259   0.757E-02    0.663E-01
RMM:   3    -0.413175864190E+03    0.25403E-02   -0.47758E-02  5085   0.796E-02    0.314E-01
RMM:   4    -0.413193883604E+03   -0.18019E-01   -0.31501E-02  5083   0.151E-01    0.628E-01
RMM:   5    -0.413171407559E+03    0.22476E-01   -0.10597E-02  4708   0.105E-01    0.464E-02
RMM:   6    -0.413171542012E+03   -0.13445E-03   -0.18341E-03  5644   0.417E-02    0.323E-02
RMM:   7    -0.413171532702E+03    0.93099E-05   -0.32513E-04  5546   0.173E-02    0.218E-02
RMM:   8    -0.413171528443E+03    0.42587E-05   -0.45016E-05  4981   0.840E-03    0.840E-03
RMM:   9    -0.413171525611E+03    0.28328E-05   -0.93446E-06  3302   0.356E-03    0.494E-03
RMM:  10    -0.413171523900E+03    0.17104E-05   -0.16071E-06  2532   0.208E-03    0.294E-03
RMM:  11    -0.413171522272E+03    0.16287E-05   -0.83882E-07  2490   0.145E-03    0.155E-03
RMM:  12    -0.413171518935E+03    0.33367E-05   -0.10237E-06  2497   0.149E-03    0.831E-04
RMM:  13    -0.413171516246E+03    0.26889E-05   -0.43123E-07  2146   0.106E-03    0.555E-04
RMM:  14    -0.413171515767E+03    0.47837E-06   -0.18765E-07  1556   0.754E-04
   20 T=    62. E= -.41286676E+03 F= -.41317152E+03 E0= -.41314948E+03  EK= 0.30475E+00 SP= 0.00E+00 SK= 0.00E+00
       N       E                     dE             d eps       ncg     rms          rms(c)
RMM:   1    -0.413182152594E+03   -0.10636E-01   -0.64117E+00  4292   0.577E-01    0.912E-01
RMM:   2    -0.413179714587E+03    0.24380E-02   -0.83393E-02  4262   0.760E-02    0.668E-01
RMM:   3    -0.413176836383E+03    0.28782E-02   -0.51150E-02  5066   0.786E-02    0.328E-01
RMM:   4    -0.413195550285E+03   -0.18714E-01   -0.30971E-02  5085   0.150E-01    0.638E-01
RMM:   5    -0.413172511055E+03    0.23039E-01   -0.11381E-02  4714   0.107E-01    0.455E-02
RMM:   6    -0.413172672809E+03   -0.16175E-03   -0.19012E-03  5677   0.423E-02    0.312E-02
RMM:   7    -0.413172673844E+03   -0.10358E-05   -0.33071E-04  5554   0.175E-02    0.212E-02
RMM:   8    -0.413172670159E+03    0.36850E-05   -0.46209E-05  4971   0.812E-03    0.828E-03
RMM:   9    -0.413172669250E+03    0.90889E-06   -0.91283E-06  3332   0.358E-03
   21 T=    62. E= -.41286696E+03 F= -.41317267E+03 E0= -.41315068E+03  EK= 0.30571E+00 SP= 0.00E+00 SK= 0.00E+00
       N       E                     dE             d eps       ncg     rms          rms(c)
RMM:   1    -0.413183682959E+03   -0.11013E-01   -0.64048E+00  4301   0.575E-01    0.928E-01
RMM:   2    -0.413180765791E+03    0.29172E-02   -0.83635E-02  4346   0.770E-02    0.671E-01
RMM:   3    -0.413186457439E+03   -0.56916E-02   -0.54365E-02  5144   0.117E-01    0.493E-01
RMM:   4    -0.413185668283E+03    0.78916E-03   -0.30430E-02  5024   0.154E-01    0.474E-01
RMM:   5    -0.413173699142E+03    0.11969E-01   -0.58017E-03  4512   0.802E-02    0.453E-02
RMM:   6    -0.413173730327E+03   -0.31185E-04   -0.89956E-04  5324   0.291E-02    0.295E-02
RMM:   7    -0.413173748280E+03   -0.17954E-04   -0.18946E-04  5272   0.142E-02    0.175E-02
RMM:   8    -0.413173746175E+03    0.21050E-05   -0.29392E-05  4611   0.704E-03    0.546E-03
RMM:   9    -0.413173744023E+03    0.21527E-05   -0.39590E-06  2734   0.252E-03    0.296E-03
RMM:  10    -0.413173741775E+03    0.22474E-05   -0.10260E-06  2482   0.161E-03    0.170E-03
RMM:  11    -0.413173739465E+03    0.23105E-05   -0.59923E-07  2178   0.116E-03    0.813E-04
RMM:  12    -0.413173735332E+03    0.41325E-05   -0.57390E-07  2239   0.107E-03    0.461E-04
RMM:  13    -0.413173731632E+03    0.37008E-05   -0.28021E-07  1553   0.800E-04    0.280E-04
RMM:  14    -0.413173728512E+03    0.31193E-05   -0.16225E-07  1232   0.685E-04    0.163E-04
RMM:  15    -0.413173722701E+03    0.58113E-05   -0.19469E-07  1333   0.717E-04    0.256E-04
RMM:  16    -0.413173717151E+03    0.55499E-05   -0.14491E-07  1130   0.647E-04    0.146E-04
RMM:  17    -0.413173715828E+03    0.13236E-05   -0.59656E-08   858   0.562E-04    0.985E-05
RMM:  18    -0.413173713844E+03    0.19832E-05   -0.43947E-08   862   0.559E-04    0.398E-05
RMM:  19    -0.413173712752E+03    0.10921E-05   -0.27920E-08   792   0.544E-04    0.255E-05
RMM:  20    -0.413173712440E+03    0.31197E-06   -0.12354E-08   639   0.521E-04
   22 T=    62. E= -.41286700E+03 F= -.41317371E+03 E0= -.41315177E+03  EK= 0.30671E+00 SP= 0.00E+00 SK= 0.00E+00
       N       E                     dE             d eps       ncg     rms          rms(c)
RMM:   1    -0.413184413312E+03   -0.10701E-01   -0.63731E+00  4292   0.575E-01    0.928E-01
RMM:   2    -0.413181491521E+03    0.29218E-02   -0.83726E-02  4276   0.766E-02    0.667E-01
RMM:   3    -0.413178374099E+03    0.31174E-02   -0.47442E-02  5027   0.820E-02    0.299E-01
RMM:   4    -0.413198062323E+03   -0.19688E-01   -0.31699E-02  5091   0.152E-01    0.643E-01
RMM:   5    -0.413174334157E+03    0.23728E-01   -0.11103E-02  4718   0.108E-01    0.465E-02
RMM:   6    -0.413174477141E+03   -0.14298E-03   -0.19807E-03  5683   0.432E-02    0.329E-02
RMM:   7    -0.413174468467E+03    0.86734E-05   -0.34287E-04  5542   0.179E-02    0.223E-02
RMM:   8    -0.413174462200E+03    0.62671E-05   -0.48252E-05  5028   0.831E-03    0.895E-03
RMM:   9    -0.413174458613E+03    0.35871E-05   -0.96760E-06  3399   0.362E-03    0.535E-03
RMM:  10    -0.413174456106E+03    0.25070E-05   -0.16759E-06  2535   0.211E-03    0.320E-03
RMM:  11    -0.413174453754E+03    0.23516E-05   -0.89888E-07  2498   0.150E-03    0.170E-03
RMM:  12    -0.413174449227E+03    0.45274E-05   -0.11573E-06  2512   0.158E-03    0.877E-04
RMM:  13    -0.413174445857E+03    0.33697E-05   -0.47555E-07  2217   0.110E-03    0.618E-04
RMM:  14    -0.413174445483E+03    0.37393E-06   -0.19494E-07  1605   0.766E-04
   23 T=    63. E= -.41286674E+03 F= -.41317445E+03 E0= -.41315255E+03  EK= 0.30770E+00 SP= 0.00E+00 SK= 0.00E+00
       N       E                     dE             d eps       ncg     rms          rms(c)
RMM:   1    -0.413186108039E+03   -0.11662E-01   -0.64398E+00  4294   0.595E-01    0.914E-01
RMM:   2    -0.413183457667E+03    0.26504E-02   -0.84597E-02  4289   0.804E-02    0.669E-01
RMM:   3    -0.413179757707E+03    0.37000E-02   -0.50521E-02  4993   0.827E-02    0.309E-01
RMM:   4    -0.413200200718E+03   -0.20443E-01   -0.30710E-02  5096   0.149E-01    0.652E-01
RMM:   5    -0.413175931190E+03    0.24270E-01   -0.11907E-02  4734   0.110E-01    0.456E-02
RMM:   6    -0.413176088612E+03   -0.15742E-03   -0.20950E-03  5718   0.438E-02    0.316E-02
RMM:   7    -0.413176087622E+03    0.99002E-06   -0.35100E-04  5551   0.181E-02    0.219E-02
RMM:   8    -0.413176085642E+03    0.19800E-05   -0.50770E-05  4933   0.861E-03    0.906E-03
RMM:   9    -0.413176084154E+03    0.14881E-05   -0.10612E-05  3467   0.382E-03    0.571E-03
RMM:  10    -0.413176084246E+03   -0.92550E-07   -0.17176E-06  2534   0.216E-03
   24 T=    63. E= -.41286700E+03 F= -.41317608E+03 E0= -.41315424E+03  EK= 0.30908E+00 SP= 0.00E+00 SK= 0.00E+00
       N       E                     dE             d eps       ncg     rms          rms(c)
RMM:   1    -0.413187019422E+03   -0.10935E-01   -0.64771E+00  4301   0.587E-01    0.928E-01
RMM:   2    -0.413184536705E+03    0.24827E-02   -0.84517E-02  4315   0.805E-02    0.675E-01
RMM:   3    -0.413185887569E+03   -0.13509E-02   -0.53146E-02  5086   0.107E-01    0.424E-01
RMM:   4    -0.413193163647E+03   -0.72761E-02   -0.30260E-02  5040   0.152E-01    0.544E-01
RMM:   5    -0.413177081750E+03    0.16082E-01   -0.75889E-03  4591   0.903E-02    0.456E-02
RMM:   6    -0.413177157064E+03   -0.75314E-04   -0.13191E-03  5514   0.344E-02    0.300E-02
RMM:   7    -0.413177159064E+03   -0.19999E-05   -0.24307E-04  5437   0.152E-02    0.194E-02
RMM:   8    -0.413177153985E+03    0.50795E-05   -0.34546E-05  4776   0.720E-03    0.654E-03
RMM:   9    -0.413177151839E+03    0.21461E-05   -0.53986E-06  2894   0.282E-03    0.367E-03
RMM:  10    -0.413177150108E+03    0.17311E-05   -0.11829E-06  2507   0.178E-03    0.222E-03
RMM:  11    -0.413177148230E+03    0.18777E-05   -0.66064E-07  2371   0.128E-03    0.112E-03
RMM:  12    -0.413177144533E+03    0.36966E-05   -0.68437E-07  2403   0.120E-03    0.582E-04
RMM:  13    -0.413177142005E+03    0.25284E-05   -0.28822E-07  1802   0.873E-04    0.390E-04
RMM:  14    -0.413177139755E+03    0.22496E-05   -0.14900E-07  1299   0.697E-04    0.211E-04
RMM:  15    -0.413177134603E+03    0.51527E-05   -0.16808E-07  1416   0.720E-04    0.265E-04
RMM:  16    -0.413177128714E+03    0.58881E-05   -0.14194E-07  1172   0.653E-04    0.183E-04
RMM:  17    -0.413177126806E+03    0.19080E-05   -0.57726E-08   935   0.576E-04    0.126E-04
RMM:  18    -0.413177123913E+03    0.28938E-05   -0.46997E-08   958   0.579E-04    0.473E-05
RMM:  19    -0.413177122843E+03    0.10700E-05   -0.25140E-08   799   0.551E-04    0.237E-05
RMM:  20    -0.413177122418E+03    0.42422E-06   -0.13437E-08   705   0.534E-04
   25 T=    63. E= -.41286682E+03 F= -.41317712E+03 E0= -.41315532E+03  EK= 0.31030E+00 SP= 0.00E+00 SK= 0.00E+00
       N       E                     dE             d eps       ncg     rms          rms(c)
RMM:   1    -0.413188801949E+03   -0.11679E-01   -0.64473E+00  4290   0.591E-01    0.937E-01
RMM:   2    -0.413185555807E+03    0.32461E-02   -0.85058E-02  4293   0.803E-02    0.673E-01
RMM:   3    -0.413181696143E+03    0.38597E-02   -0.47229E-02  4996   0.808E-02    0.276E-01
RMM:   4    -0.413203830813E+03   -0.22135E-01   -0.31830E-02  5096   0.152E-01    0.664E-01
RMM:   5    -0.413178338931E+03    0.25492E-01   -0.12020E-02  4736   0.112E-01    0.466E-02
RMM:   6    -0.413178511063E+03   -0.17213E-03   -0.21404E-03  5736   0.446E-02    0.333E-02
RMM:   7    -0.413178511930E+03   -0.86701E-06   -0.35767E-04  5548   0.185E-02    0.228E-02
RMM:   8    -0.413178504406E+03    0.75247E-05   -0.53202E-05  4996   0.883E-03    0.974E-03
RMM:   9    -0.413178499944E+03    0.44619E-05   -0.11137E-05  3560   0.394E-03    0.595E-03
RMM:  10    -0.413178496668E+03    0.32755E-05   -0.18977E-06  2554   0.225E-03    0.353E-03
RMM:  11    -0.413178493679E+03    0.29895E-05   -0.10431E-06  2502   0.161E-03    0.188E-03
RMM:  12    -0.413178488336E+03    0.53429E-05   -0.13708E-06  2531   0.172E-03    0.976E-04
RMM:  13    -0.413178484949E+03    0.33869E-05   -0.50334E-07  2275   0.116E-03    0.681E-04
RMM:  14    -0.413178484477E+03    0.47234E-06   -0.20930E-07  1680   0.788E-04
   26 T=    63. E= -.41286689E+03 F= -.41317848E+03 E0= -.41315674E+03  EK= 0.31159E+00 SP= 0.00E+00 SK= 0.00E+00
       N       E                     dE             d eps       ncg     rms          rms(c)
RMM:   1    -0.413190208521E+03   -0.11724E-01   -0.64750E+00  4293   0.605E-01    0.919E-01
RMM:   2    -0.413187548027E+03    0.26605E-02   -0.84891E-02  4284   0.831E-02    0.671E-01
RMM:   3    -0.413183216487E+03    0.43315E-02   -0.49604E-02  4974   0.768E-02    0.284E-01
RMM:   4    -0.413204826694E+03   -0.21610E-01   -0.29649E-02  5106   0.147E-01    0.655E-01
RMM:   5    -0.413180111498E+03    0.24715E-01   -0.12037E-02  4744   0.111E-01    0.452E-02
RMM:   6    -0.413180276775E+03   -0.16528E-03   -0.21086E-03  5790   0.437E-02    0.314E-02
RMM:   7    -0.413180275550E+03    0.12249E-05   -0.33200E-04  5552   0.182E-02    0.217E-02
RMM:   8    -0.413180270364E+03    0.51863E-05   -0.53148E-05  4898   0.888E-03    0.964E-03
RMM:   9    -0.413180267881E+03    0.24828E-05   -0.11732E-05  3589   0.404E-03    0.612E-03
RMM:  10    -0.413180266715E+03    0.11665E-05   -0.18762E-06  2557   0.228E-03    0.363E-03
RMM:  11    -0.413180265093E+03    0.16215E-05   -0.11289E-06  2502   0.170E-03    0.185E-03
RMM:  12    -0.413180262088E+03    0.30048E-05   -0.12996E-06  2515   0.170E-03    0.104E-03
RMM:  13    -0.413180260122E+03    0.19661E-05   -0.41823E-07  2237   0.112E-03    0.627E-04
RMM:  14    -0.413180259482E+03    0.64029E-06   -0.19074E-07  1613   0.769E-04
   27 T=    64. E= -.41286714E+03 F= -.41318026E+03 E0= -.41315856E+03  EK= 0.31312E+00 SP= 0.00E+00 SK= 0.00E+00
       N       E                     dE             d eps       ncg     rms          rms(c)
RMM:   1    -0.413191637376E+03   -0.11377E-01   -0.65650E+00  4293   0.610E-01    0.929E-01
RMM:   2    -0.413188827985E+03    0.28094E-02   -0.87458E-02  4287   0.863E-02    0.680E-01
RMM:   3    -0.413184276822E+03    0.45512E-02   -0.50711E-02  4993   0.743E-02    0.287E-01
RMM:   4    -0.413206330289E+03   -0.22053E-01   -0.29836E-02  5110   0.147E-01    0.659E-01
RMM:   5    -0.413181299267E+03    0.25031E-01   -0.12235E-02  4748   0.111E-01    0.451E-02
RMM:   6    -0.413181464395E+03   -0.16513E-03   -0.21261E-03  5795   0.438E-02    0.314E-02
RMM:   7    -0.413181476311E+03   -0.11915E-04   -0.33363E-04  5555   0.180E-02    0.217E-02
RMM:   8    -0.413181471537E+03    0.47733E-05   -0.53116E-05  4926   0.866E-03    0.966E-03
RMM:   9    -0.413181469099E+03    0.24384E-05   -0.10735E-05  3584   0.396E-03    0.610E-03
RMM:  10    -0.413181468487E+03    0.61189E-06   -0.18388E-06  2551   0.223E-03
   28 T=    64. E= -.41286688E+03 F= -.41318147E+03 E0= -.41315982E+03  EK= 0.31459E+00 SP= 0.00E+00 SK= 0.00E+00
       N       E                     dE             d eps       ncg     rms          rms(c)
RMM:   1    -0.413194084617E+03   -0.12616E-01   -0.65352E+00  4297   0.607E-01    0.946E-01
RMM:   2    -0.413190888657E+03    0.31960E-02   -0.86547E-02  4311   0.864E-02    0.679E-01
RMM:   3    -0.413191470460E+03   -0.58180E-03   -0.50730E-02  5106   0.102E-01    0.397E-01
RMM:   4    -0.413200934942E+03   -0.94645E-02   -0.31585E-02  5040   0.154E-01    0.559E-01
RMM:   5    -0.413183475830E+03    0.17459E-01   -0.78113E-03  4635   0.936E-02    0.465E-02
RMM:   6    -0.413183539567E+03   -0.63737E-04   -0.14048E-03  5603   0.358E-02    0.316E-02
RMM:   7    -0.413183544271E+03   -0.47036E-05   -0.26150E-04  5414   0.164E-02    0.204E-02
RMM:   8    -0.413183541292E+03    0.29783E-05   -0.38568E-05  4824   0.803E-03    0.723E-03
RMM:   9    -0.413183537161E+03    0.41316E-05   -0.71313E-06  3029   0.321E-03    0.388E-03
RMM:  10    -0.413183532564E+03    0.45968E-05   -0.14398E-06  2530   0.196E-03    0.235E-03
RMM:  11    -0.413183528345E+03    0.42193E-05   -0.78727E-07  2447   0.138E-03    0.121E-03
RMM:  12    -0.413183521129E+03    0.72152E-05   -0.81969E-07  2466   0.131E-03    0.618E-04
RMM:  13    -0.413183517046E+03    0.40838E-05   -0.36144E-07  1925   0.936E-04    0.432E-04
RMM:  14    -0.413183513978E+03    0.30678E-05   -0.18390E-07  1427   0.732E-04    0.249E-04
RMM:  15    -0.413183506916E+03    0.70619E-05   -0.18343E-07  1475   0.736E-04    0.272E-04
RMM:  16    -0.413183499273E+03    0.76427E-05   -0.14430E-07  1197   0.666E-04    0.208E-04
RMM:  17    -0.413183496434E+03    0.28387E-05   -0.71625E-08  1019   0.592E-04    0.144E-04
RMM:  18    -0.413183492959E+03    0.34752E-05   -0.56246E-08  1052   0.592E-04    0.530E-05
RMM:  19    -0.413183491857E+03    0.11022E-05   -0.29520E-08   842   0.549E-04    0.341E-05
RMM:  20    -0.413183491518E+03    0.33948E-06   -0.16905E-08   739   0.530E-04
   29 T=    64. E= -.41286709E+03 F= -.41318349E+03 E0= -.41316189E+03  EK= 0.31640E+00 SP= 0.00E+00 SK= 0.00E+00
       N       E                     dE             d eps       ncg     rms          rms(c)
RMM:   1    -0.413195456213E+03   -0.11964E-01   -0.65357E+00  4294   0.617E-01    0.928E-01
RMM:   2    -0.413192974906E+03    0.24813E-02   -0.86342E-02  4281   0.898E-02    0.674E-01
RMM:   3    -0.413188672383E+03    0.43025E-02   -0.49369E-02  4989   0.799E-02    0.288E-01
RMM:   4    -0.413211015931E+03   -0.22344E-01   -0.31733E-02  5102   0.151E-01    0.668E-01
RMM:   5    -0.413185294660E+03    0.25721E-01   -0.12460E-02  4741   0.113E-01    0.459E-02
RMM:   6    -0.413185451677E+03   -0.15702E-03   -0.21973E-03  5801   0.442E-02    0.323E-02
RMM:   7    -0.413185462388E+03   -0.10711E-04   -0.34087E-04  5542   0.183E-02    0.224E-02
RMM:   8    -0.413185460955E+03    0.14337E-05   -0.54604E-05  4919   0.902E-03    0.995E-03
RMM:   9    -0.413185458240E+03    0.27143E-05   -0.11913E-05  3593   0.413E-03    0.609E-03
RMM:  10    -0.413185456800E+03    0.14404E-05   -0.20373E-06  2572   0.234E-03    0.358E-03
RMM:  11    -0.413185455108E+03    0.16923E-05   -0.10842E-06  2498   0.167E-03    0.186E-03
RMM:  12    -0.413185451943E+03    0.31647E-05   -0.13382E-06  2522   0.173E-03    0.102E-03
RMM:  13    -0.413185449938E+03    0.20052E-05   -0.44686E-07  2257   0.115E-03    0.660E-04
RMM:  14    -0.413185449268E+03    0.66981E-06   -0.20077E-07  1649   0.787E-04
   30 T=    65. E= -.41286716E+03 F= -.41318545E+03 E0= -.41316390E+03  EK= 0.31829E+00 SP= 0.00E+00 SK= 0.00E+00
       N       E                     dE             d eps       ncg     rms          rms(c)
RMM:   1    -0.413197602022E+03   -0.12152E-01   -0.66627E+00  4302   0.632E-01    0.932E-01
RMM:   2    -0.413195033356E+03    0.25687E-02   -0.90347E-02  4280   0.958E-02    0.685E-01
RMM:   3    -0.413190052135E+03    0.49812E-02   -0.51811E-02  4944   0.823E-02    0.291E-01
RMM:   4    -0.413212779943E+03   -0.22728E-01   -0.30621E-02  5111   0.149E-01    0.670E-01
RMM:   5    -0.413186871941E+03    0.25908E-01   -0.12766E-02  4765   0.113E-01    0.453E-02
RMM:   6    -0.413187032815E+03   -0.16087E-03   -0.21892E-03  5828   0.441E-02    0.313E-02
RMM:   7    -0.413187049154E+03   -0.16339E-04   -0.33031E-04  5570   0.180E-02    0.214E-02
RMM:   8    -0.413187049384E+03   -0.22987E-06   -0.56551E-05  4932   0.879E-03    0.979E-03
RMM:   9    -0.413187047567E+03    0.18171E-05   -0.11411E-05  3644   0.409E-03    0.614E-03
RMM:  10    -0.413187047267E+03    0.29974E-06   -0.19837E-06  2560   0.231E-03
   31 T=    65. E= -.41286689E+03 F= -.41318705E+03 E0= -.41316555E+03  EK= 0.32016E+00 SP= 0.00E+00 SK= 0.00E+00
       N       E                     dE             d eps       ncg     rms          rms(c)
RMM:   1    -0.413203892097E+03   -0.16845E-01   -0.66746E+00  4301   0.672E-01    0.949E-01
RMM:   2    -0.413197318629E+03    0.65735E-02   -0.98157E-02  4297   0.101E-01    0.687E-01
RMM:   3    -0.413195881516E+03    0.14371E-02   -0.48180E-02  5048   0.102E-01    0.353E-01
RMM:   4    -0.413213087572E+03   -0.17206E-01   -0.36218E-02  5062   0.164E-01    0.641E-01
RMM:   5    -0.413189452681E+03    0.23635E-01   -0.10295E-02  4679   0.106E-01    0.492E-02
RMM:   6    -0.413189562906E+03   -0.11023E-03   -0.19596E-03  5685   0.415E-02    0.327E-02
RMM:   7    -0.413189575467E+03   -0.12560E-04   -0.31952E-04  5566   0.173E-02    0.221E-02
RMM:   8    -0.413189573182E+03    0.22842E-05   -0.48664E-05  4991   0.831E-03    0.851E-03
RMM:   9    -0.413189568218E+03    0.49645E-05   -0.93000E-06  3263   0.362E-03    0.452E-03
RMM:  10    -0.413189563797E+03    0.44209E-05   -0.17629E-06  2556   0.213E-03    0.281E-03
RMM:  11    -0.413189559514E+03    0.42835E-05   -0.90529E-07  2485   0.151E-03    0.146E-03
RMM:  12    -0.413189552184E+03    0.73295E-05   -0.90956E-07  2479   0.143E-03    0.689E-04
RMM:  13    -0.413189548301E+03    0.38831E-05   -0.39099E-07  2092   0.102E-03    0.505E-04
RMM:  14    -0.413189545750E+03    0.25506E-05   -0.19418E-07  1588   0.767E-04    0.307E-04
RMM:  15    -0.413189538467E+03    0.72839E-05   -0.18421E-07  1606   0.760E-04    0.314E-04
RMM:  16    -0.413189531405E+03    0.70621E-05   -0.12323E-07  1235   0.650E-04    0.263E-04
RMM:  17    -0.413189526796E+03    0.46081E-05   -0.76973E-08  1049   0.599E-04    0.166E-04
RMM:  18    -0.413189523190E+03    0.36067E-05   -0.61846E-08  1105   0.602E-04    0.509E-05
RMM:  19    -0.413189521833E+03    0.13564E-05   -0.33098E-08   888   0.559E-04    0.563E-05
RMM:  20    -0.413189521553E+03    0.27997E-06   -0.16430E-08   726   0.531E-04
   32 T=    66. E= -.41286716E+03 F= -.41318952E+03 E0= -.41316807E+03  EK= 0.32236E+00 SP= 0.00E+00 SK= 0.00E+00
       N       E                     dE             d eps       ncg     rms          rms(c)
RMM:   1    -0.413202413902E+03   -0.12892E-01   -0.66359E+00  4301   0.665E-01    0.940E-01
RMM:   2    -0.413199047254E+03    0.33666E-02   -0.91134E-02  4272   0.102E-01    0.681E-01
RMM:   3    -0.413193467918E+03    0.55793E-02   -0.48430E-02  4816   0.849E-02    0.242E-01
RMM:   4    -0.413215803108E+03   -0.22335E-01   -0.27142E-02  5115   0.141E-01    0.651E-01
RMM:   5    -0.413191149421E+03    0.24654E-01   -0.12047E-02  4772   0.109E-01    0.446E-02
RMM:   6    -0.413191317659E+03   -0.16824E-03   -0.21154E-03  5824   0.430E-02    0.313E-02
RMM:   7    -0.413191343244E+03   -0.25585E-04   -0.27029E-04  5569   0.172E-02    0.193E-02
RMM:   8    -0.413191344531E+03   -0.12871E-05   -0.59171E-05  4955   0.856E-03    0.106E-02
RMM:   9    -0.413191340052E+03    0.44785E-05   -0.12454E-05  3880   0.427E-03    0.672E-03
RMM:  10    -0.413191338134E+03    0.19185E-05   -0.21900E-06  2585   0.249E-03    0.390E-03
RMM:  11    -0.413191335546E+03    0.25878E-05   -0.13734E-06  2518   0.187E-03    0.202E-03
RMM:  12    -0.413191331267E+03    0.42795E-05   -0.14929E-06  2526   0.187E-03    0.117E-03
RMM:  13    -0.413191329100E+03    0.21664E-05   -0.46055E-07  2292   0.119E-03    0.718E-04
RMM:  14    -0.413191328229E+03    0.87100E-06   -0.20971E-07  1733   0.804E-04
   33 T=    66. E= -.41286695E+03 F= -.41319133E+03 E0= -.41316993E+03  EK= 0.32438E+00 SP= 0.00E+00 SK= 0.00E+00
       N       E                     dE             d eps       ncg     rms          rms(c)
RMM:   1    -0.413205091578E+03   -0.13762E-01   -0.67677E+00  4305   0.673E-01    0.937E-01
RMM:   2    -0.413201516362E+03    0.35752E-02   -0.95109E-02  4265   0.105E-01    0.690E-01
RMM:   3    -0.413195354251E+03    0.61621E-02   -0.51120E-02  4603   0.844E-02    0.245E-01
RMM:   4    -0.413207163520E+03   -0.11809E-01   -0.15051E-02  5116   0.106E-01    0.488E-01
RMM:   5    -0.413193555913E+03    0.13608E-01   -0.67209E-03  4795   0.808E-02    0.392E-02
RMM:   6    -0.413193654381E+03   -0.98468E-04   -0.12058E-03  5825   0.323E-02    0.269E-02
RMM:   7    -0.413193675680E+03   -0.21300E-04   -0.15757E-04  5394   0.142E-02    0.151E-02
RMM:   8    -0.413193669536E+03    0.61441E-05   -0.30869E-05  4674   0.621E-03    0.774E-03
RMM:   9    -0.413193670288E+03   -0.75200E-06   -0.76565E-06  3344   0.339E-03
   34 T=    66. E= -.41286703E+03 F= -.41319367E+03 E0= -.41317232E+03  EK= 0.32664E+00 SP= 0.00E+00 SK= 0.00E+00
       N       E                     dE             d eps       ncg     rms          rms(c)
RMM:   1    -0.413207771333E+03   -0.14102E-01   -0.67634E+00  4304   0.683E-01    0.959E-01
RMM:   2    -0.413203665879E+03    0.41055E-02   -0.91852E-02  4286   0.114E-01    0.692E-01
RMM:   3    -0.413201214964E+03    0.24509E-02   -0.50782E-02  4959   0.109E-01    0.324E-01
RMM:   4    -0.413221279917E+03   -0.20065E-01   -0.33936E-02  5063   0.158E-01    0.660E-01
RMM:   5    -0.413196245442E+03    0.25034E-01   -0.11634E-02  4712   0.110E-01    0.474E-02
RMM:   6    -0.413196394787E+03   -0.14934E-03   -0.21454E-03  5767   0.431E-02    0.332E-02
RMM:   7    -0.413196408329E+03   -0.13542E-04   -0.34240E-04  5518   0.182E-02    0.230E-02
RMM:   8    -0.413196407634E+03    0.69520E-06   -0.58556E-05  5019   0.929E-03    0.101E-02
RMM:   9    -0.413196402762E+03    0.48716E-05   -0.11224E-05  3513   0.419E-03    0.538E-03
RMM:  10    -0.413196398497E+03    0.42653E-05   -0.21090E-06  2597   0.241E-03    0.320E-03
RMM:  11    -0.413196394380E+03    0.41164E-05   -0.10226E-06  2498   0.164E-03    0.169E-03
RMM:  12    -0.413196386564E+03    0.78162E-05   -0.12018E-06  2498   0.170E-03    0.925E-04
RMM:  13    -0.413196382355E+03    0.42088E-05   -0.45631E-07  2257   0.114E-03    0.673E-04
RMM:  14    -0.413196380665E+03    0.16903E-05   -0.20752E-07  1672   0.798E-04    0.413E-04
RMM:  15    -0.413196373635E+03    0.70306E-05   -0.19668E-07  1796   0.793E-04    0.377E-04
RMM:  16    -0.413196365970E+03    0.76642E-05   -0.13964E-07  1428   0.681E-04    0.422E-04
RMM:  17    -0.413196359777E+03    0.61938E-05   -0.89174E-08  1096   0.605E-04    0.337E-04
RMM:  18    -0.413196356873E+03    0.29040E-05   -0.59493E-08  1021   0.582E-04    0.107E-04
RMM:  19    -0.413196354366E+03    0.25064E-05   -0.49995E-08  1114   0.593E-04    0.129E-04
RMM:  20    -0.413196354374E+03   -0.81272E-08   -0.17901E-08   704   0.515E-04
   35 T=    67. E= -.41286728E+03 F= -.41319635E+03 E0= -.41317505E+03  EK= 0.32907E+00 SP= 0.00E+00 SK= 0.00E+00
       N       E                     dE             d eps       ncg     rms          rms(c)
RMM:   1    -0.413209437938E+03   -0.13084E-01   -0.67512E+00  4303   0.703E-01    0.956E-01
RMM:   2    -0.413205741236E+03    0.36967E-02   -0.92524E-02  4260   0.119E-01    0.689E-01
RMM:   3    -0.413199498618E+03    0.62426E-02   -0.48738E-02  4362   0.903E-02    0.198E-01
RMM:   4    -0.413200000304E+03   -0.50169E-03   -0.29825E-03  5045   0.465E-02    0.172E-01
RMM:   5    -0.413198411192E+03    0.15891E-02   -0.83727E-04  4761   0.290E-02    0.374E-02
RMM:   6    -0.413198464483E+03   -0.53291E-04   -0.44717E-04  5408   0.206E-02    0.320E-02
RMM:   7    -0.413198452337E+03    0.12146E-04   -0.17503E-04  4902   0.151E-02    0.203E-02
RMM:   8    -0.413198443967E+03    0.83703E-05   -0.33216E-05  4485   0.569E-03    0.548E-03
RMM:   9    -0.413198442998E+03    0.96852E-06   -0.43300E-06  2584   0.236E-03
   36 T=    67. E= -.41286701E+03 F= -.41319844E+03 E0= -.41317718E+03  EK= 0.33143E+00 SP= 0.00E+00 SK= 0.00E+00
       N       E                     dE             d eps       ncg     rms          rms(c)
RMM:   1    -0.413212348747E+03   -0.13905E-01   -0.68623E+00  4307   0.721E-01    0.946E-01
RMM:   2    -0.413209177624E+03    0.31711E-02   -0.95948E-02  4263   0.121E-01    0.694E-01
RMM:   3    -0.413203062759E+03    0.61149E-02   -0.52123E-02  4485   0.960E-02    0.235E-01
RMM:   4    -0.413208696124E+03   -0.56334E-02   -0.90507E-03  5128   0.808E-02    0.357E-01
RMM:   5    -0.413201594991E+03    0.71011E-02   -0.34987E-03  4794   0.595E-02    0.389E-02
RMM:   6    -0.413201621720E+03   -0.26729E-04   -0.80576E-04  5657   0.279E-02    0.304E-02
RMM:   7    -0.413201638641E+03   -0.16921E-04   -0.23189E-04  5251   0.161E-02    0.197E-02
RMM:   8    -0.413201629754E+03    0.88877E-05   -0.29686E-05  4666   0.647E-03    0.745E-03
RMM:   9    -0.413201629000E+03    0.75365E-06   -0.51543E-06  2825   0.275E-03
   37 T=    68. E= -.41286735E+03 F= -.41320163E+03 E0= -.41318041E+03  EK= 0.33428E+00 SP= 0.00E+00 SK= 0.00E+00
       N       E                     dE             d eps       ncg     rms          rms(c)
RMM:   1    -0.413215955121E+03   -0.14325E-01   -0.69175E+00  4312   0.745E-01    0.965E-01
RMM:   2    -0.413212224546E+03    0.37306E-02   -0.96023E-02  4261   0.115E-01    0.701E-01
RMM:   3    -0.413205941745E+03    0.62828E-02   -0.51375E-02  4660   0.899E-02    0.231E-01
RMM:   4    -0.413220409951E+03   -0.14468E-01   -0.17759E-02  5129   0.114E-01    0.532E-01
RMM:   5    -0.413204296724E+03    0.16113E-01   -0.79511E-03  4798   0.888E-02    0.427E-02
RMM:   6    -0.413204323960E+03   -0.27235E-04   -0.14017E-03  5735   0.368E-02    0.312E-02
RMM:   7    -0.413204347759E+03   -0.23799E-04   -0.30251E-04  5471   0.176E-02    0.210E-02
RMM:   8    -0.413204337274E+03    0.10485E-04   -0.45181E-05  5037   0.783E-03    0.894E-03
RMM:   9    -0.413204335999E+03    0.12754E-05   -0.90849E-06  3217   0.357E-03    0.478E-03
RMM:  10    -0.413204332446E+03    0.35524E-05   -0.17133E-06  2546   0.215E-03    0.262E-03
RMM:  11    -0.413204327530E+03    0.49163E-05   -0.11289E-06  2499   0.163E-03    0.134E-03
RMM:  12    -0.413204321110E+03    0.64203E-05   -0.81020E-07  2423   0.136E-03    0.861E-04
RMM:  13    -0.413204317734E+03    0.33762E-05   -0.30162E-07  1999   0.932E-04    0.465E-04
RMM:  14    -0.413204314310E+03    0.34239E-05   -0.16811E-07  1390   0.727E-04    0.253E-04
RMM:  15    -0.413204305027E+03    0.92826E-05   -0.19142E-07  1563   0.761E-04    0.274E-04
RMM:  16    -0.413204299600E+03    0.54274E-05   -0.10149E-07  1216   0.654E-04    0.226E-04
RMM:  17    -0.413204293137E+03    0.64628E-05   -0.90420E-08  1292   0.646E-04    0.143E-04
RMM:  18    -0.413204289259E+03    0.38775E-05   -0.51974E-08  1074   0.584E-04    0.620E-05
RMM:  19    -0.413204288176E+03    0.10837E-05   -0.29099E-08   858   0.538E-04    0.324E-05
RMM:  20    -0.413204287155E+03    0.10208E-05   -0.22850E-08   828   0.529E-04    0.340E-05
RMM:  21    -0.413204286740E+03    0.41481E-06   -0.13901E-08   714   0.506E-04
   38 T=    69. E= -.41286721E+03 F= -.41320429E+03 E0= -.41318311E+03  EK= 0.33707E+00 SP= 0.00E+00 SK= 0.00E+00
       N       E                     dE             d eps       ncg     rms          rms(c)
RMM:   1    -0.413219271141E+03   -0.14984E-01   -0.69146E+00  4310   0.784E-01    0.973E-01
RMM:   2    -0.413214918105E+03    0.43530E-02   -0.96846E-02  4258   0.113E-01    0.699E-01
RMM:   3    -0.413208311045E+03    0.66071E-02   -0.48822E-02  4598   0.828E-02    0.196E-01
RMM:   4    -0.413218437473E+03   -0.10126E-01   -0.12520E-02  5137   0.958E-02    0.449E-01
RMM:   5    -0.413207083391E+03    0.11354E-01   -0.56637E-03  4806   0.746E-02    0.413E-02
RMM:   6    -0.413207111462E+03   -0.28071E-04   -0.10826E-03  5699   0.325E-02    0.317E-02
RMM:   7    -0.413207130332E+03   -0.18870E-04   -0.27289E-04  5345   0.169E-02    0.208E-02
RMM:   8    -0.413207118568E+03    0.11764E-04   -0.38650E-05  5008   0.730E-03    0.890E-03
RMM:   9    -0.413207116965E+03    0.16027E-05   -0.73306E-06  3040   0.319E-03    0.446E-03
RMM:  10    -0.413207113887E+03    0.30780E-05   -0.14864E-06  2523   0.201E-03    0.238E-03
RMM:  11    -0.413207109806E+03    0.40815E-05   -0.96126E-07  2483   0.154E-03    0.118E-03
RMM:  12    -0.413207105566E+03    0.42399E-05   -0.54250E-07  2288   0.118E-03    0.688E-04
RMM:  13    -0.413207102853E+03    0.27125E-05   -0.24164E-07  1851   0.852E-04    0.356E-04
RMM:  14    -0.413207099703E+03    0.31499E-05   -0.13408E-07  1267   0.698E-04    0.195E-04
RMM:  15    -0.413207093704E+03    0.59998E-05   -0.10833E-07  1202   0.678E-04    0.146E-04
RMM:  16    -0.413207089406E+03    0.42981E-05   -0.73889E-08  1082   0.635E-04    0.115E-04
RMM:  17    -0.413207085108E+03    0.42977E-05   -0.59263E-08  1111   0.621E-04    0.845E-05
RMM:  18    -0.413207081078E+03    0.40296E-05   -0.47577E-08  1122   0.602E-04    0.405E-05
RMM:  19    -0.413207080196E+03    0.88254E-06   -0.22234E-08   780   0.534E-04
   39 T=    69. E= -.41286711E+03 F= -.41320708E+03 E0= -.41318594E+03  EK= 0.33997E+00 SP= 0.00E+00 SK= 0.00E+00
       N       E                     dE             d eps       ncg     rms          rms(c)
RMM:   1    -0.413222596433E+03   -0.15515E-01   -0.69925E+00  4305   0.813E-01    0.958E-01
RMM:   2    -0.413218457083E+03    0.41393E-02   -0.99087E-02  4258   0.115E-01    0.701E-01
RMM:   3    -0.413212163421E+03    0.62937E-02   -0.51779E-02  4717   0.892E-02    0.238E-01
RMM:   4    -0.413230590883E+03   -0.18427E-01   -0.22327E-02  5111   0.128E-01    0.596E-01
RMM:   5    -0.413210280300E+03    0.20311E-01   -0.99664E-03  4794   0.995E-02    0.439E-02
RMM:   6    -0.413210317115E+03   -0.36816E-04   -0.17126E-03  5773   0.397E-02    0.303E-02
RMM:   7    -0.413210349000E+03   -0.31885E-04   -0.30728E-04  5551   0.171E-02    0.208E-02
RMM:   8    -0.413210339232E+03    0.97686E-05   -0.54149E-05  5060   0.812E-03    0.984E-03
RMM:   9    -0.413210339975E+03   -0.74355E-06   -0.10952E-05  3590   0.401E-03    0.542E-03
RMM:  10    -0.413210339304E+03    0.67163E-06   -0.19134E-06  2570   0.224E-03
   40 T=    70. E= -.41286737E+03 F= -.41321034E+03 E0= -.41318924E+03  EK= 0.34297E+00 SP= 0.00E+00 SK= 0.00E+00
       N       E                     dE             d eps       ncg     rms          rms(c)
RMM:   1    -0.413225490955E+03   -0.15151E-01   -0.70960E+00  4316   0.842E-01    0.970E-01
RMM:   2    -0.413220989670E+03    0.45013E-02   -0.10418E-01  4286   0.116E-01    0.711E-01
RMM:   3    -0.413217057659E+03    0.39320E-02   -0.53115E-02  4978   0.101E-01    0.313E-01
RMM:   4    -0.413243304738E+03   -0.26247E-01   -0.39644E-02  5081   0.170E-01    0.730E-01
RMM:   5    -0.413212551662E+03    0.30753E-01   -0.14253E-02  4750   0.122E-01    0.497E-02
RMM:   6    -0.413212622409E+03   -0.70747E-04   -0.24886E-03  5778   0.467E-02    0.312E-02
RMM:   7    -0.413212644801E+03   -0.22391E-04   -0.30072E-04  5656   0.169E-02    0.195E-02
RMM:   8    -0.413212650239E+03   -0.54378E-05   -0.73677E-05  5088   0.883E-03    0.114E-02
RMM:   9    -0.413212643321E+03    0.69179E-05   -0.16806E-05  4263   0.489E-03    0.588E-03
RMM:  10    -0.413212640948E+03    0.23723E-05   -0.28075E-06  2661   0.259E-03    0.339E-03
RMM:  11    -0.413212638643E+03    0.23052E-05   -0.12107E-06  2503   0.177E-03    0.195E-03
RMM:  12    -0.413212632761E+03    0.58821E-05   -0.13198E-06  2511   0.174E-03    0.102E-03
RMM:  13    -0.413212628235E+03    0.45267E-05   -0.52330E-07  2313   0.120E-03    0.644E-04
RMM:  14    -0.413212626739E+03    0.14954E-05   -0.22448E-07  1736   0.811E-04    0.364E-04
RMM:  15    -0.413212620775E+03    0.59637E-05   -0.17236E-07  1471   0.757E-04    0.272E-04
RMM:  16    -0.413212614889E+03    0.58864E-05   -0.13248E-07  1472   0.704E-04    0.365E-04
RMM:  17    -0.413212612180E+03    0.27096E-05   -0.65071E-08  1009   0.580E-04    0.263E-04
RMM:  18    -0.413212606260E+03    0.59197E-05   -0.78341E-08  1310   0.635E-04    0.164E-04
RMM:  19    -0.413212604465E+03    0.17953E-05   -0.39482E-08   950   0.557E-04    0.508E-05
RMM:  20    -0.413212603211E+03    0.12535E-05   -0.27231E-08   885   0.547E-04    0.873E-05
RMM:  21    -0.413212602945E+03    0.26623E-06   -0.14394E-08   713   0.514E-04
   41 T=    70. E= -.41286706E+03 F= -.41321260E+03 E0= -.41319153E+03  EK= 0.34554E+00 SP= 0.00E+00 SK= 0.00E+00
       N       E                     dE             d eps       ncg     rms          rms(c)
RMM:   1    -0.413230385069E+03   -0.17782E-01   -0.70900E+00  4316   0.914E-01    0.986E-01
RMM:   2    -0.413223470247E+03    0.69148E-02   -0.10561E-01  4307   0.124E-01    0.710E-01
RMM:   3    -0.413218026934E+03    0.54433E-02   -0.48623E-02  4933   0.902E-02    0.242E-01
RMM:   4    -0.413248109484E+03   -0.30083E-01   -0.38276E-02  5106   0.166E-01    0.750E-01
RMM:   5    -0.413215267734E+03    0.32842E-01   -0.15480E-02  4777   0.125E-01    0.504E-02
RMM:   6    -0.413215351132E+03   -0.83398E-04   -0.26445E-03  5790   0.483E-02    0.318E-02
RMM:   7    -0.413215386608E+03   -0.35476E-04   -0.31039E-04  5672   0.168E-02    0.186E-02
RMM:   8    -0.413215386922E+03   -0.31335E-06   -0.43070E-05  4785   0.691E-03    0.873E-03
RMM:   9    -0.413215387764E+03   -0.84269E-06   -0.17787E-05  4298   0.445E-03    0.669E-03
RMM:  10    -0.413215382711E+03    0.50530E-05   -0.34616E-06  2784   0.274E-03    0.360E-03
RMM:  11    -0.413215379930E+03    0.27812E-05   -0.13798E-06  2495   0.189E-03    0.212E-03
RMM:  12    -0.413215373166E+03    0.67640E-05   -0.14280E-06  2496   0.190E-03    0.114E-03
RMM:  13    -0.413215369802E+03    0.33643E-05   -0.49026E-07  2364   0.126E-03    0.736E-04
RMM:  14    -0.413215368823E+03    0.97838E-06   -0.20973E-07  1790   0.824E-04
   42 T=    71. E= -.41286715E+03 F= -.41321537E+03 E0= -.41319433E+03  EK= 0.34822E+00 SP= 0.00E+00 SK= 0.00E+00
       N       E                     dE             d eps       ncg     rms          rms(c)
RMM:   1    -0.413232486061E+03   -0.17116E-01   -0.71097E+00  4316   0.950E-01    0.969E-01
RMM:   2    -0.413226054008E+03    0.64321E-02   -0.10437E-01  4374   0.121E-01    0.707E-01
RMM:   3    -0.413220976485E+03    0.50775E-02   -0.51179E-02  4951   0.945E-02    0.274E-01
RMM:   4    -0.413249891677E+03   -0.28915E-01   -0.38831E-02  5101   0.168E-01    0.745E-01
RMM:   5    -0.413217607662E+03    0.32284E-01   -0.15155E-02  4770   0.125E-01    0.505E-02
RMM:   6    -0.413217685412E+03   -0.77750E-04   -0.26041E-03  5769   0.478E-02    0.309E-02
RMM:   7    -0.413217715376E+03   -0.29964E-04   -0.29712E-04  5679   0.164E-02    0.178E-02
RMM:   8    -0.413217715363E+03    0.12948E-07   -0.39453E-05  4620   0.647E-03    0.778E-03
RMM:   9    -0.413217712313E+03    0.30498E-05   -0.83267E-06  3197   0.337E-03    0.453E-03
RMM:  10    -0.413217711035E+03    0.12779E-05   -0.22822E-06  2600   0.218E-03    0.305E-03
RMM:  11    -0.413217707466E+03    0.35695E-05   -0.11609E-06  2491   0.179E-03    0.181E-03
RMM:  12    -0.413217700954E+03    0.65113E-05   -0.10888E-06  2480   0.160E-03    0.998E-04
RMM:  13    -0.413217698517E+03    0.24378E-05   -0.37739E-07  2243   0.107E-03    0.611E-04
RMM:  14    -0.413217696891E+03    0.16257E-05   -0.18360E-07  1547   0.766E-04    0.328E-04
RMM:  15    -0.413217690206E+03    0.66851E-05   -0.16751E-07  1623   0.767E-04    0.292E-04
RMM:  16    -0.413217686513E+03    0.36929E-05   -0.84841E-08  1175   0.638E-04    0.199E-04
RMM:  17    -0.413217681629E+03    0.48841E-05   -0.72571E-08  1232   0.635E-04    0.183E-04
RMM:  18    -0.413217677085E+03    0.45436E-05   -0.58244E-08  1222   0.611E-04    0.855E-05
RMM:  19    -0.413217675069E+03    0.20165E-05   -0.31593E-08   966   0.556E-04    0.476E-05
RMM:  20    -0.413217674720E+03    0.34906E-06   -0.14825E-08   739   0.517E-04
   43 T=    71. E= -.41286713E+03 F= -.41321767E+03 E0= -.41319666E+03  EK= 0.35054E+00 SP= 0.00E+00 SK= 0.00E+00
       N       E                     dE             d eps       ncg     rms          rms(c)
RMM:   1    -0.413236070181E+03   -0.18395E-01   -0.72456E+00  4316   0.102E+00    0.971E-01
RMM:   2    -0.413227672304E+03    0.83979E-02   -0.11317E-01  4403   0.131E-01    0.717E-01
RMM:   3    -0.413223427577E+03    0.42447E-02   -0.51646E-02  4989   0.100E-01    0.307E-01
RMM:   4    -0.413253374566E+03   -0.29947E-01   -0.44172E-02  5088   0.179E-01    0.770E-01
RMM:   5    -0.413218877042E+03    0.34498E-01   -0.15682E-02  4745   0.129E-01    0.519E-02
RMM:   6    -0.413218953306E+03   -0.76265E-04   -0.27210E-03  5759   0.487E-02    0.304E-02
RMM:   7    -0.413218984845E+03   -0.31539E-04   -0.31785E-04  5733   0.167E-02    0.185E-02
RMM:   8    -0.413218994254E+03   -0.94082E-05   -0.72724E-05  5123   0.856E-03    0.111E-02
RMM:   9    -0.413218988370E+03    0.58833E-05   -0.19636E-05  4440   0.506E-03    0.574E-03
RMM:  10    -0.413218987757E+03    0.61320E-06   -0.32259E-06  2688   0.270E-03
   44 T=    72. E= -.41286691E+03 F= -.41321899E+03 E0= -.41319800E+03  EK= 0.35208E+00 SP= 0.00E+00 SK= 0.00E+00
       N       E                     dE             d eps       ncg     rms          rms(c)
RMM:   1    -0.413238141875E+03   -0.19154E-01   -0.71902E+00  4316   0.107E+00    0.992E-01
RMM:   2    -0.413228918285E+03    0.92236E-02   -0.11040E-01  4456   0.136E-01    0.717E-01
RMM:   3    -0.413231642864E+03   -0.27246E-02   -0.54627E-02  5083   0.128E-01    0.451E-01
RMM:   4    -0.413240427220E+03   -0.87844E-02   -0.39451E-02  5028   0.175E-01    0.594E-01
RMM:   5    -0.413220379354E+03    0.20048E-01   -0.78329E-03  4612   0.996E-02    0.492E-02
RMM:   6    -0.413220375085E+03    0.42687E-05   -0.15104E-03  5582   0.372E-02    0.292E-02
RMM:   7    -0.413220389158E+03   -0.14073E-04   -0.22992E-04  5501   0.155E-02    0.198E-02
RMM:   8    -0.413220388953E+03    0.20490E-06   -0.80024E-05  5050   0.961E-03    0.101E-02
RMM:   9    -0.413220380082E+03    0.88713E-05   -0.10166E-05  3689   0.441E-03    0.429E-03
RMM:  10    -0.413220375090E+03    0.49921E-05   -0.20785E-06  2622   0.218E-03    0.239E-03
RMM:  11    -0.413220369862E+03    0.52279E-05   -0.97963E-07  2468   0.156E-03    0.124E-03
RMM:  12    -0.413220361340E+03    0.85224E-05   -0.71579E-07  2383   0.130E-03    0.644E-04
RMM:  13    -0.413220356567E+03    0.47730E-05   -0.28467E-07  1874   0.898E-04    0.356E-04
RMM:  14    -0.413220352079E+03    0.44873E-05   -0.15348E-07  1291   0.707E-04    0.171E-04
RMM:  15    -0.413220341159E+03    0.10920E-04   -0.16795E-07  1558   0.761E-04    0.220E-04
RMM:  16    -0.413220336099E+03    0.50605E-05   -0.93290E-08  1301   0.644E-04    0.119E-04
RMM:  17    -0.413220330422E+03    0.56762E-05   -0.71956E-08  1273   0.621E-04    0.589E-05
RMM:  18    -0.413220326938E+03    0.34845E-05   -0.45097E-08  1073   0.566E-04    0.563E-05
RMM:  19    -0.413220326518E+03    0.41978E-06   -0.23635E-08   805   0.510E-04
   45 T=    72. E= -.41286728E+03 F= -.41322033E+03 E0= -.41319936E+03  EK= 0.35304E+00 SP= 0.00E+00 SK= 0.00E+00
       N       E                     dE             d eps       ncg     rms          rms(c)
RMM:   1    -0.413238075523E+03   -0.17749E-01   -0.71392E+00  4315   0.115E+00    0.974E-01
RMM:   2    -0.413228411541E+03    0.96640E-02   -0.11142E-01  4437   0.144E-01    0.710E-01
RMM:   3    -0.413227127218E+03    0.12843E-02   -0.51042E-02  5031   0.117E-01    0.367E-01
RMM:   4    -0.413247406873E+03   -0.20280E-01   -0.42062E-02  5065   0.178E-01    0.690E-01
RMM:   5    -0.413219872915E+03    0.27534E-01   -0.11596E-02  4701   0.115E-01    0.516E-02
RMM:   6    -0.413219892882E+03   -0.19966E-04   -0.20663E-03  5693   0.432E-02    0.291E-02
RMM:   7    -0.413219922290E+03   -0.29409E-04   -0.25778E-04  5713   0.157E-02    0.183E-02
RMM:   8    -0.413219933163E+03   -0.10872E-04   -0.85507E-05  5132   0.951E-03    0.114E-02
RMM:   9    -0.413219924613E+03    0.85498E-05   -0.15875E-05  4220   0.507E-03    0.471E-03
RMM:  10    -0.413219921777E+03    0.28360E-05   -0.31989E-06  2733   0.256E-03    0.288E-03
RMM:  11    -0.413219918808E+03    0.29689E-05   -0.11712E-06  2486   0.176E-03    0.150E-03
RMM:  12    -0.413219913329E+03    0.54793E-05   -0.79978E-07  2443   0.143E-03    0.769E-04
RMM:  13    -0.413219908949E+03    0.43792E-05   -0.33969E-07  2007   0.983E-04    0.348E-04
RMM:  14    -0.413219906209E+03    0.27403E-05   -0.17349E-07  1426   0.743E-04    0.178E-04
RMM:  15    -0.413219899997E+03    0.62123E-05   -0.13527E-07  1303   0.714E-04    0.157E-04
RMM:  16    -0.413219896059E+03    0.39379E-05   -0.90551E-08  1207   0.661E-04    0.118E-04
RMM:  17    -0.413219891844E+03    0.42154E-05   -0.78273E-08  1313   0.645E-04    0.645E-05
RMM:  18    -0.413219888195E+03    0.36482E-05   -0.51093E-08  1119   0.586E-04    0.371E-05
RMM:  19    -0.413219886703E+03    0.14925E-05   -0.29120E-08   860   0.539E-04    0.292E-05
RMM:  20    -0.413219886427E+03    0.27585E-06   -0.17959E-08   728   0.521E-04
   46 T=    72. E= -.41286720E+03 F= -.41321989E+03 E0= -.41319894E+03  EK= 0.35268E+00 SP= 0.00E+00 SK= 0.00E+00
       N       E                     dE             d eps       ncg     rms          rms(c)
RMM:   1    -0.413238830965E+03   -0.18944E-01   -0.72171E+00  4315   0.127E+00    0.965E-01
RMM:   2    -0.413227466646E+03    0.11364E-01   -0.11504E-01  4474   0.158E-01    0.716E-01
RMM:   3    -0.413229546111E+03   -0.20795E-02   -0.56042E-02  5050   0.134E-01    0.451E-01
RMM:   4    -0.413241863318E+03   -0.12317E-01   -0.42387E-02  5039   0.181E-01    0.641E-01
RMM:   5    -0.413218526358E+03    0.23337E-01   -0.96732E-03  4648   0.109E-01    0.508E-02
RMM:   6    -0.413218516139E+03    0.10219E-04   -0.16908E-03  5588   0.395E-02    0.268E-02
RMM:   7    -0.413218543706E+03   -0.27567E-04   -0.22799E-04  5633   0.151E-02    0.178E-02
RMM:   8    -0.413218551196E+03   -0.74898E-05   -0.87492E-05  5122   0.984E-03    0.102E-02
RMM:   9    -0.413218545005E+03    0.61904E-05   -0.11974E-05  3881   0.478E-03    0.419E-03
RMM:  10    -0.413218543393E+03    0.16128E-05   -0.28028E-06  2692   0.238E-03    0.256E-03
RMM:  11    -0.413218541099E+03    0.22939E-05   -0.12582E-06  2498   0.173E-03    0.123E-03
RMM:  12    -0.413218537494E+03    0.36049E-05   -0.75241E-07  2372   0.134E-03    0.634E-04
RMM:  13    -0.413218534408E+03    0.30857E-05   -0.33878E-07  1823   0.938E-04    0.283E-04
RMM:  14    -0.413218531464E+03    0.29436E-05   -0.19900E-07  1403   0.758E-04    0.149E-04
RMM:  15    -0.413218526791E+03    0.46731E-05   -0.16842E-07  1381   0.736E-04    0.119E-04
RMM:  16    -0.413218523494E+03    0.32975E-05   -0.11988E-07  1381   0.682E-04    0.911E-05
RMM:  17    -0.413218518550E+03    0.49434E-05   -0.10286E-07  1372   0.653E-04    0.526E-05
RMM:  18    -0.413218516391E+03    0.21590E-05   -0.51898E-08   972   0.559E-04    0.387E-05
RMM:  19    -0.413218515379E+03    0.10127E-05   -0.32398E-08   838   0.533E-04    0.189E-05
RMM:  20    -0.413218514674E+03    0.70522E-06   -0.21842E-08   765   0.525E-04
   47 T=    71. E= -.41286734E+03 F= -.41321851E+03 E0= -.41319758E+03  EK= 0.35118E+00 SP= 0.00E+00 SK= 0.00E+00
       N       E                     dE             d eps       ncg     rms          rms(c)
RMM:   1    -0.413238806236E+03   -0.20291E-01   -0.71226E+00  4313   0.133E+00    0.976E-01
RMM:   2    -0.413224534258E+03    0.14272E-01   -0.11693E-01  4534   0.167E-01    0.714E-01
RMM:   3    -0.413231483691E+03   -0.69494E-02   -0.54104E-02  5086   0.146E-01    0.521E-01
RMM:   4    -0.413233669055E+03   -0.21854E-02   -0.41428E-02  5006   0.182E-01    0.556E-01
RMM:   5    -0.413216029031E+03    0.17640E-01   -0.65891E-03  4599   0.969E-02    0.509E-02
RMM:   6    -0.413215985816E+03    0.43215E-04   -0.11478E-03  5283   0.340E-02    0.266E-02
RMM:   7    -0.413216014303E+03   -0.28487E-04   -0.17190E-04  5577   0.135E-02    0.159E-02
RMM:   8    -0.413216020602E+03   -0.62985E-05   -0.84140E-05  5201   0.952E-03    0.104E-02
RMM:   9    -0.413216010267E+03    0.10335E-04   -0.12105E-05  3946   0.481E-03    0.397E-03
RMM:  10    -0.413216007345E+03    0.29221E-05   -0.28198E-06  2699   0.239E-03    0.234E-03
RMM:  11    -0.413216002855E+03    0.44893E-05   -0.12475E-06  2480   0.180E-03    0.119E-03
RMM:  12    -0.413215998432E+03    0.44231E-05   -0.57238E-07  2309   0.127E-03    0.670E-04
RMM:  13    -0.413215994211E+03    0.42216E-05   -0.26987E-07  1754   0.899E-04    0.307E-04
RMM:  14    -0.413215989505E+03    0.47056E-05   -0.15903E-07  1425   0.738E-04    0.162E-04
RMM:  15    -0.413215984639E+03    0.48663E-05   -0.11093E-07  1247   0.679E-04    0.117E-04
RMM:  16    -0.413215980603E+03    0.40353E-05   -0.78253E-08  1166   0.634E-04    0.827E-05
RMM:  17    -0.413215973533E+03    0.70704E-05   -0.84218E-08  1439   0.662E-04    0.754E-05
RMM:  18    -0.413215972596E+03    0.93702E-06   -0.28427E-08   793   0.517E-04
   48 T=    71. E= -.41286767E+03 F= -.41321597E+03 E0= -.41319505E+03  EK= 0.34831E+00 SP= 0.00E+00 SK= 0.00E+00
       N       E                     dE             d eps       ncg     rms          rms(c)
RMM:   1    -0.413234197904E+03   -0.18224E-01   -0.69717E+00  4310   0.142E+00    0.962E-01
RMM:   2    -0.413219320723E+03    0.14877E-01   -0.11613E-01  4597   0.175E-01    0.703E-01
RMM:   3    -0.413234252893E+03   -0.14932E-01   -0.57383E-02  5103   0.167E-01    0.635E-01
RMM:   4    -0.413222852155E+03    0.11401E-01   -0.41312E-02  4970   0.185E-01    0.460E-01
RMM:   5    -0.413210930189E+03    0.11922E-01   -0.46480E-03  4561   0.878E-02    0.514E-02
RMM:   6    -0.413210842549E+03    0.87640E-04   -0.61168E-04  4838   0.283E-02    0.265E-02
RMM:   7    -0.413210862106E+03   -0.19558E-04   -0.14991E-04  5697   0.135E-02    0.127E-02
RMM:   8    -0.413210860745E+03    0.13610E-05   -0.44042E-05  5192   0.770E-03    0.858E-03
RMM:   9    -0.413210857657E+03    0.30889E-05   -0.11739E-05  3990   0.414E-03    0.369E-03
RMM:  10    -0.413210854166E+03    0.34903E-05   -0.18899E-06  2559   0.224E-03    0.236E-03
RMM:  11    -0.413210848797E+03    0.53697E-05   -0.11163E-06  2471   0.177E-03    0.143E-03
RMM:  12    -0.413210845272E+03    0.35245E-05   -0.45560E-07  2393   0.118E-03    0.773E-04
RMM:  13    -0.413210840589E+03    0.46835E-05   -0.27257E-07  1904   0.902E-04    0.393E-04
RMM:  14    -0.413210834423E+03    0.61653E-05   -0.19458E-07  1697   0.777E-04    0.413E-04
RMM:  15    -0.413210829727E+03    0.46967E-05   -0.94844E-08  1075   0.615E-04    0.172E-04
RMM:  16    -0.413210826109E+03    0.36180E-05   -0.69840E-08  1104   0.607E-04    0.101E-04
RMM:  17    -0.413210821857E+03    0.42515E-05   -0.56752E-08  1137   0.599E-04    0.109E-04
RMM:  18    -0.413210820103E+03    0.17537E-05   -0.33528E-08   891   0.538E-04    0.777E-05
RMM:  19    -0.413210815914E+03    0.41897E-05   -0.37484E-08  1044   0.568E-04    0.420E-05
RMM:  20    -0.413210814723E+03    0.11911E-05   -0.17640E-08   737   0.505E-04    0.309E-05
RMM:  21    -0.413210814421E+03    0.30109E-06   -0.90874E-09   603   0.485E-04
   49 T=    70. E= -.41286738E+03 F= -.41321081E+03 E0= -.41318989E+03  EK= 0.34343E+00 SP= 0.00E+00 SK= 0.00E+00
       N       E                     dE             d eps       ncg     rms          rms(c)
RMM:   1    -0.413232822938E+03   -0.22008E-01   -0.69530E+00  4310   0.159E+00    0.935E-01
RMM:   2    -0.413213262232E+03    0.19561E-01   -0.12209E-01  4705   0.187E-01    0.701E-01
RMM:   3    -0.413238483384E+03   -0.25221E-01   -0.64615E-02  5123   0.192E-01    0.759E-01
RMM:   4    -0.413214007194E+03    0.24476E-01   -0.45815E-02  4935   0.198E-01    0.413E-01
RMM:   5    -0.413204734759E+03    0.92724E-02   -0.49200E-03  4652   0.915E-02    0.556E-02
RMM:   6    -0.413204603871E+03    0.13089E-03   -0.49175E-04  4715   0.282E-02    0.270E-02
RMM:   7    -0.413204642154E+03   -0.38283E-04   -0.23849E-04  5639   0.173E-02    0.203E-02
RMM:   8    -0.413204623976E+03    0.18178E-04   -0.61383E-05  4997   0.923E-03    0.932E-03
RMM:   9    -0.413204622807E+03    0.11686E-05   -0.17144E-05  4670   0.527E-03    0.418E-03
RMM:  10    -0.413204620031E+03    0.27763E-05   -0.24275E-06  2676   0.243E-03    0.259E-03
RMM:  11    -0.413204615854E+03    0.41768E-05   -0.11433E-06  2493   0.181E-03    0.178E-03
RMM:  12    -0.413204612625E+03    0.32294E-05   -0.44458E-07  2268   0.112E-03    0.884E-04
RMM:  13    -0.413204609074E+03    0.35505E-05   -0.33751E-07  2118   0.938E-04    0.376E-04
RMM:  14    -0.413204605263E+03    0.38112E-05   -0.21542E-07  1630   0.771E-04    0.305E-04
RMM:  15    -0.413204599836E+03    0.54271E-05   -0.16805E-07  1346   0.708E-04    0.130E-04
RMM:  16    -0.413204596963E+03    0.28726E-05   -0.96912E-08  1181   0.626E-04    0.874E-05
RMM:  17    -0.413204592344E+03    0.46190E-05   -0.95014E-08  1300   0.635E-04    0.702E-05
RMM:  18    -0.413204589896E+03    0.24485E-05   -0.55891E-08  1055   0.565E-04    0.532E-05
RMM:  19    -0.413204588046E+03    0.18501E-05   -0.35969E-08   913   0.534E-04    0.278E-05
RMM:  20    -0.413204587034E+03    0.10114E-05   -0.23293E-08   811   0.515E-04    0.203E-05
RMM:  21    -0.413204586791E+03    0.24352E-06   -0.12158E-08   692   0.496E-04
   50 T=    69. E= -.41286772E+03 F= -.41320459E+03 E0= -.41318367E+03  EK= 0.33686E+00 SP= 0.00E+00 SK= 0.00E+00
       N       E                     dE             d eps       ncg     rms          rms(c)
RMM:   1    -0.413223310309E+03   -0.18723E-01   -0.67622E+00  4309   0.165E+00    0.930E-01
RMM:   2    -0.413203918013E+03    0.19392E-01   -0.12604E-01  4780   0.200E-01    0.695E-01
RMM:   3    -0.413238681158E+03   -0.34763E-01   -0.66931E-02  5143   0.208E-01    0.856E-01
RMM:   4    -0.413202227897E+03    0.36453E-01   -0.48686E-02  4919   0.207E-01    0.349E-01
RMM:   5    -0.413195638846E+03    0.65891E-02   -0.49991E-03  4935   0.936E-02    0.656E-02
RMM:   6    -0.413195425989E+03    0.21286E-03   -0.50308E-04  4617   0.303E-02    0.297E-02
RMM:   7    -0.413195456313E+03   -0.30325E-04   -0.25448E-04  5635   0.179E-02    0.226E-02
RMM:   8    -0.413195441506E+03    0.14807E-04   -0.68652E-05  5008   0.102E-02    0.108E-02
RMM:   9    -0.413195437763E+03    0.37429E-05   -0.19394E-05  4661   0.556E-03    0.421E-03
RMM:  10    -0.413195434110E+03    0.36527E-05   -0.32408E-06  2791   0.262E-03    0.272E-03
RMM:  11    -0.413195428862E+03    0.52481E-05   -0.92869E-07  2497   0.172E-03    0.152E-03
RMM:  12    -0.413195424903E+03    0.39594E-05   -0.45275E-07  2190   0.111E-03    0.677E-04
RMM:  13    -0.413195420463E+03    0.44399E-05   -0.40551E-07  2249   0.102E-03    0.454E-04
RMM:  14    -0.413195416325E+03    0.41379E-05   -0.23055E-07  1694   0.812E-04    0.335E-04
RMM:  15    -0.413195411411E+03    0.49141E-05   -0.15063E-07  1320   0.715E-04    0.170E-04
RMM:  16    -0.413195407620E+03    0.37907E-05   -0.10809E-07  1311   0.673E-04    0.855E-05
RMM:  17    -0.413195401721E+03    0.58996E-05   -0.11143E-07  1541   0.686E-04    0.132E-04
RMM:  18    -0.413195400647E+03    0.10733E-05   -0.49249E-08   985   0.535E-04    0.997E-05
RMM:  19    -0.413195398551E+03    0.20963E-05   -0.43354E-08  1040   0.544E-04    0.336E-05
RMM:  20    -0.413195397409E+03    0.11416E-05   -0.28146E-08   886   0.519E-04    0.268E-05
RMM:  21    -0.413195397192E+03    0.21727E-06   -0.14453E-08   733   0.494E-04
   51 T=    67. E= -.41286763E+03 F= -.41319540E+03 E0= -.41317448E+03  EK= 0.32777E+00 SP= 0.00E+00 SK= 0.00E+00
       N       E                     dE             d eps       ncg     rms          rms(c)
RMM:   1    -0.413213141849E+03   -0.17744E-01   -0.64840E+00  4303   0.175E+00    0.920E-01
RMM:   2    -0.413191501495E+03    0.21640E-01   -0.12159E-01  4854   0.207E-01    0.677E-01
[...]
RMM:   7    -0.413159888035E+03   -0.36654E-04   -0.39218E-04  6027   0.161E-02    0.123E-02
RMM:   8    -0.413159893980E+03   -0.59446E-05   -0.48497E-05  4485   0.579E-03    0.840E-03
RMM:   9    -0.413159898137E+03   -0.41571E-05   -0.63531E-06  2918   0.301E-03    0.404E-03
RMM:  10    -0.413159902981E+03   -0.48439E-05   -0.23373E-06  2572   0.214E-03    0.211E-03
RMM:  11    -0.413159907277E+03   -0.42966E-05   -0.10805E-06  2506   0.157E-03    0.853E-04
RMM:  12    -0.413159909959E+03   -0.26819E-05   -0.57171E-07  2292   0.115E-03    0.329E-04
RMM:  13    -0.413159911397E+03   -0.14378E-05   -0.31034E-07  1836   0.893E-04    0.276E-04
RMM:  14    -0.413159913192E+03   -0.17950E-05   -0.24457E-07  1423   0.794E-04    0.142E-04
RMM:  15    -0.413159914477E+03   -0.12851E-05   -0.18998E-07  1386   0.739E-04    0.725E-05
RMM:  16    -0.413159914917E+03   -0.43959E-06   -0.12039E-07  1222   0.666E-04
  136 T=    60. E= -.41286749E+03 F= -.41315991E+03 E0= -.41313917E+03  EK= 0.29243E+00 SP= 0.00E+00 SK= 0.00E+00
       N       E                     dE             d eps       ncg     rms          rms(c)
RMM:   1    -0.413150643869E+03    0.92706E-02   -0.10754E+01  4268   0.839E-01    0.868E-01
RMM:   2    -0.413161241885E+03   -0.10598E-01   -0.12989E-01  4303   0.102E-01    0.626E-01
RMM:   3    -0.413160671637E+03    0.57025E-03   -0.67118E-03  5028   0.471E-02    0.186E-01
RMM:   4    -0.413202755800E+03   -0.42084E-01   -0.46345E-02  5144   0.179E-01    0.853E-01
RMM:   5    -0.413159730275E+03    0.43026E-01   -0.20825E-02  4801   0.144E-01    0.524E-02
RMM:   6    -0.413159787373E+03   -0.57099E-04   -0.34046E-03  5701   0.552E-02    0.133E-02
RMM:   7    -0.413159829687E+03   -0.42314E-04   -0.40900E-04  6013   0.163E-02    0.120E-02
RMM:   8    -0.413159837754E+03   -0.80666E-05   -0.48808E-05  4470   0.581E-03    0.820E-03
RMM:   9    -0.413159845385E+03   -0.76310E-05   -0.63377E-06  2917   0.296E-03    0.410E-03
RMM:  10    -0.413159853651E+03   -0.82660E-05   -0.23979E-06  2576   0.214E-03    0.217E-03
RMM:  11    -0.413159860907E+03   -0.72569E-05   -0.11383E-06  2511   0.159E-03    0.863E-04
RMM:  12    -0.413159865438E+03   -0.45301E-05   -0.60583E-07  2336   0.118E-03    0.340E-04
RMM:  13    -0.413159867715E+03   -0.22773E-05   -0.31673E-07  1859   0.901E-04    0.295E-04
RMM:  14    -0.413159870923E+03   -0.32083E-05   -0.27703E-07  1468   0.811E-04    0.149E-04
RMM:  15    -0.413159872841E+03   -0.19177E-05   -0.19261E-07  1411   0.739E-04    0.784E-05
RMM:  16    -0.413159873642E+03   -0.80090E-06   -0.13417E-07  1312   0.678E-04
  137 T=    60. E= -.41286733E+03 F= -.41315987E+03 E0= -.41313914E+03  EK= 0.29254E+00 SP= 0.00E+00 SK= 0.00E+00
       N       E                     dE             d eps       ncg     rms          rms(c)
RMM:   1    -0.413151902817E+03    0.79700E-02   -0.10778E+01  4265   0.842E-01    0.890E-01
RMM:   2    -0.413161390348E+03   -0.94875E-02   -0.12681E-01  4306   0.100E-01    0.619E-01
RMM:   3    -0.413161160496E+03    0.22985E-03   -0.68504E-03  5054   0.421E-02    0.179E-01
RMM:   4    -0.413199333797E+03   -0.38173E-01   -0.41105E-02  5151   0.168E-01    0.813E-01
RMM:   5    -0.413160438845E+03    0.38895E-01   -0.18960E-02  4797   0.137E-01    0.513E-02
RMM:   6    -0.413160484483E+03   -0.45638E-04   -0.31361E-03  5701   0.528E-02    0.159E-02
RMM:   7    -0.413160517847E+03   -0.33364E-04   -0.37991E-04  5990   0.158E-02    0.127E-02
RMM:   8    -0.413160521710E+03   -0.38628E-05   -0.45045E-05  4448   0.573E-03    0.837E-03
RMM:   9    -0.413160522809E+03   -0.10988E-05   -0.61199E-06  2906   0.290E-03    0.404E-03
RMM:  10    -0.413160525031E+03   -0.22223E-05   -0.22526E-06  2571   0.206E-03    0.214E-03
RMM:  11    -0.413160526717E+03   -0.16854E-05   -0.10053E-06  2492   0.153E-03    0.888E-04
RMM:  12    -0.413160527832E+03   -0.11155E-05   -0.55689E-07  2295   0.115E-03    0.314E-04
RMM:  13    -0.413160528399E+03   -0.56704E-06   -0.29301E-07  1833   0.887E-04
  138 T=    60. E= -.41286766E+03 F= -.41316053E+03 E0= -.41313980E+03  EK= 0.29287E+00 SP= 0.00E+00 SK= 0.00E+00
       N       E                     dE             d eps       ncg     rms          rms(c)
RMM:   1    -0.413151568643E+03    0.89592E-02   -0.10688E+01  4265   0.842E-01    0.876E-01
RMM:   2    -0.413161291861E+03   -0.97232E-02   -0.12644E-01  4300   0.100E-01    0.614E-01
RMM:   3    -0.413160733076E+03    0.55878E-03   -0.64238E-03  4936   0.397E-02    0.161E-01
RMM:   4    -0.413188359888E+03   -0.27627E-01   -0.28596E-02  5159   0.141E-01    0.693E-01
RMM:   5    -0.413160365420E+03    0.27994E-01   -0.13940E-02  4819   0.116E-01    0.433E-02
RMM:   6    -0.413160389675E+03   -0.24254E-04   -0.22755E-03  5712   0.453E-02    0.154E-02
RMM:   7    -0.413160414785E+03   -0.25110E-04   -0.27207E-04  5824   0.136E-02    0.115E-02
RMM:   8    -0.413160418599E+03   -0.38140E-05   -0.32730E-05  4221   0.518E-03    0.718E-03
RMM:   9    -0.413160420888E+03   -0.22890E-05   -0.47768E-06  2814   0.273E-03    0.339E-03
RMM:  10    -0.413160423958E+03   -0.30704E-05   -0.19407E-06  2563   0.192E-03    0.181E-03
RMM:  11    -0.413160426213E+03   -0.22551E-05   -0.89371E-07  2470   0.142E-03    0.832E-04
RMM:  12    -0.413160427815E+03   -0.16021E-05   -0.52235E-07  2200   0.109E-03    0.291E-04
RMM:  13    -0.413160428758E+03   -0.94206E-06   -0.29069E-07  1695   0.864E-04
  139 T=    60. E= -.41286744E+03 F= -.41316043E+03 E0= -.41313971E+03  EK= 0.29299E+00 SP= 0.00E+00 SK= 0.00E+00
       N       E                     dE             d eps       ncg     rms          rms(c)
RMM:   1    -0.413151607657E+03    0.88202E-02   -0.10703E+01  4266   0.846E-01    0.865E-01
RMM:   2    -0.413162111698E+03   -0.10504E-01   -0.12923E-01  4302   0.101E-01    0.624E-01
RMM:   3    -0.413160856913E+03    0.12548E-02   -0.62065E-03  4912   0.377E-02    0.149E-01
RMM:   4    -0.413181786184E+03   -0.20929E-01   -0.21626E-02  5158   0.123E-01    0.605E-01
RMM:   5    -0.413160630281E+03    0.21156E-01   -0.10592E-02  4819   0.101E-01    0.377E-02
RMM:   6    -0.413160642790E+03   -0.12509E-04   -0.17476E-03  5734   0.397E-02    0.131E-02
RMM:   7    -0.413160666861E+03   -0.24071E-04   -0.20736E-04  5676   0.119E-02    0.101E-02
RMM:   8    -0.413160674803E+03   -0.79420E-05   -0.25886E-05  4139   0.482E-03    0.611E-03
RMM:   9    -0.413160682366E+03   -0.75628E-05   -0.40211E-06  2758   0.255E-03    0.281E-03
RMM:  10    -0.413160689270E+03   -0.69035E-05   -0.16377E-06  2541   0.178E-03    0.159E-03
RMM:  11    -0.413160694647E+03   -0.53770E-05   -0.82360E-07  2439   0.133E-03    0.791E-04
RMM:  12    -0.413160698479E+03   -0.38320E-05   -0.48976E-07  2064   0.103E-03    0.276E-04
RMM:  13    -0.413160700966E+03   -0.24873E-05   -0.30149E-07  1625   0.843E-04    0.181E-04
RMM:  14    -0.413160703571E+03   -0.26050E-05   -0.29673E-07  1578   0.813E-04    0.102E-04
RMM:  15    -0.413160704699E+03   -0.11281E-05   -0.17766E-07  1381   0.706E-04    0.666E-05
RMM:  16    -0.413160705264E+03   -0.56459E-06   -0.13601E-07  1234   0.654E-04
  140 T=    60. E= -.41286750E+03 F= -.41316071E+03 E0= -.41314000E+03  EK= 0.29321E+00 SP= 0.00E+00 SK= 0.00E+00
       N       E                     dE             d eps       ncg     rms          rms(c)
RMM:   1    -0.413152663202E+03    0.80415E-02   -0.10724E+01  4265   0.853E-01    0.885E-01
RMM:   2    -0.413162205557E+03   -0.95424E-02   -0.12690E-01  4298   0.100E-01    0.621E-01
RMM:   3    -0.413161363903E+03    0.84165E-03   -0.65045E-03  4888   0.377E-02    0.151E-01
RMM:   4    -0.413179460130E+03   -0.18096E-01   -0.18639E-02  5165   0.114E-01    0.564E-01
RMM:   5    -0.413161157327E+03    0.18303E-01   -0.92003E-03  4825   0.938E-02    0.374E-02
RMM:   6    -0.413161157286E+03    0.41597E-07   -0.15109E-03  5699   0.373E-02    0.154E-02
RMM:   7    -0.413161172915E+03   -0.15630E-04   -0.18296E-04  5648   0.114E-02    0.105E-02
RMM:   8    -0.413161176104E+03   -0.31888E-05   -0.24303E-05  4181   0.485E-03    0.591E-03
RMM:   9    -0.413161177794E+03   -0.16900E-05   -0.37173E-06  2738   0.250E-03    0.266E-03
RMM:  10    -0.413161180201E+03   -0.24065E-05   -0.14606E-06  2536   0.170E-03    0.158E-03
RMM:  11    -0.413161182208E+03   -0.20075E-05   -0.75199E-07  2414   0.130E-03    0.781E-04
RMM:  12    -0.413161183599E+03   -0.13909E-05   -0.44125E-07  2053   0.100E-03    0.251E-04
RMM:  13    -0.413161184374E+03   -0.77465E-06   -0.24937E-07  1519   0.812E-04
  141 T=    60. E= -.41286770E+03 F= -.41316118E+03 E0= -.41314049E+03  EK= 0.29349E+00 SP= 0.00E+00 SK= 0.00E+00
       N       E                     dE             d eps       ncg     rms          rms(c)
RMM:   1    -0.413152577812E+03    0.86058E-02   -0.10649E+01  4264   0.848E-01    0.883E-01
RMM:   2    -0.413161839902E+03   -0.92621E-02   -0.12556E-01  4301   0.991E-02    0.614E-01
RMM:   3    -0.413161131277E+03    0.70862E-03   -0.65083E-03  4727   0.366E-02    0.147E-01
RMM:   4    -0.413167767683E+03   -0.66364E-02   -0.72052E-03  5167   0.724E-02    0.344E-01
RMM:   5    -0.413161089430E+03    0.66783E-02   -0.34095E-03  4845   0.575E-02    0.311E-02
RMM:   6    -0.413161069551E+03    0.19879E-04   -0.60051E-04  5605   0.247E-02    0.158E-02
RMM:   7    -0.413161075449E+03   -0.58989E-05   -0.86067E-05  5303   0.843E-03    0.889E-03
RMM:   8    -0.413161076246E+03   -0.79622E-06   -0.16728E-05  4036   0.444E-03    0.407E-03
RMM:   9    -0.413161076580E+03   -0.33440E-06   -0.18701E-06  2573   0.205E-03
  142 T=    60. E= -.41286743E+03 F= -.41316108E+03 E0= -.41314039E+03  EK= 0.29364E+00 SP= 0.00E+00 SK= 0.00E+00
       N       E                     dE             d eps       ncg     rms          rms(c)
RMM:   1    -0.413152914830E+03    0.81614E-02   -0.10611E+01  4272   0.851E-01    0.863E-01
RMM:   2    -0.413163140748E+03   -0.10226E-01   -0.12781E-01  4302   0.100E-01    0.622E-01
RMM:   3    -0.413161843782E+03    0.12970E-02   -0.63049E-03  4832   0.373E-02    0.142E-01
RMM:   4    -0.413174302361E+03   -0.12459E-01   -0.13049E-02  5171   0.962E-02    0.469E-01
RMM:   5    -0.413161711449E+03    0.12591E-01   -0.64109E-03  4844   0.783E-02    0.339E-02
RMM:   6    -0.413161695802E+03    0.15647E-04   -0.10449E-03  5687   0.318E-02    0.143E-02
RMM:   7    -0.413161713489E+03   -0.17687E-04   -0.13724E-04  5523   0.101E-02    0.945E-03
RMM:   8    -0.413161721340E+03   -0.78511E-05   -0.22097E-05  4288   0.489E-03    0.502E-03
RMM:   9    -0.413161726357E+03   -0.50167E-05   -0.32433E-06  2697   0.239E-03    0.233E-03
RMM:  10    -0.413161731338E+03   -0.49813E-05   -0.13019E-06  2529   0.165E-03    0.152E-03
RMM:  11    -0.413161736261E+03   -0.49226E-05   -0.86742E-07  2450   0.133E-03    0.781E-04
RMM:  12    -0.413161739277E+03   -0.30165E-05   -0.47982E-07  1940   0.985E-04    0.275E-04
RMM:  13    -0.413161740894E+03   -0.16163E-05   -0.27020E-07  1491   0.807E-04    0.175E-04
RMM:  14    -0.413161742760E+03   -0.18661E-05   -0.30952E-07  1562   0.804E-04    0.120E-04
RMM:  15    -0.413161743471E+03   -0.71108E-06   -0.17577E-07  1344   0.695E-04
  143 T=    60. E= -.41286768E+03 F= -.41316174E+03 E0= -.41314106E+03  EK= 0.29407E+00 SP= 0.00E+00 SK= 0.00E+00
       N       E                     dE             d eps       ncg     rms          rms(c)
RMM:   1    -0.413153329500E+03    0.84133E-02   -0.10638E+01  4264   0.854E-01    0.879E-01
RMM:   2    -0.413163110505E+03   -0.97810E-02   -0.12691E-01  4294   0.101E-01    0.624E-01
RMM:   3    -0.413161879714E+03    0.12308E-02   -0.65761E-03  4628   0.365E-02    0.137E-01
RMM:   4    -0.413161880565E+03   -0.85097E-06   -0.90236E-04  5032   0.246E-02    0.298E-02
RMM:   5    -0.413161845200E+03    0.35365E-04   -0.11691E-04  4824   0.126E-02    0.154E-02
RMM:   6    -0.413161857729E+03   -0.12529E-04   -0.47006E-05  5329   0.721E-03    0.122E-02
RMM:   7    -0.413161871091E+03   -0.13361E-04   -0.27365E-05  4575   0.500E-03    0.182E-02
RMM:   8    -0.413161855190E+03    0.15901E-04   -0.11930E-05  4035   0.419E-03    0.439E-03
RMM:   9    -0.413161856170E+03   -0.97957E-06   -0.18004E-06  2555   0.212E-03
  144 T=    60. E= -.41286756E+03 F= -.41316186E+03 E0= -.41314118E+03  EK= 0.29429E+00 SP= 0.00E+00 SK= 0.00E+00
       N       E                     dE             d eps       ncg     rms          rms(c)
RMM:   1    -0.413153965009E+03    0.78902E-02   -0.10584E+01  4264   0.855E-01    0.888E-01
RMM:   2    -0.413162883579E+03   -0.89186E-02   -0.12447E-01  4303   0.103E-01    0.616E-01
RMM:   3    -0.413161977789E+03    0.90579E-03   -0.68834E-03  4745   0.367E-02    0.144E-01
RMM:   4    -0.413166637671E+03   -0.46599E-02   -0.52733E-03  5181   0.628E-02    0.289E-01
RMM:   5    -0.413161951585E+03    0.46861E-02   -0.24010E-03  4841   0.486E-02    0.330E-02
RMM:   6    -0.413161923641E+03    0.27944E-04   -0.47228E-04  5596   0.219E-02    0.180E-02
RMM:   7    -0.413161927342E+03   -0.37011E-05   -0.81943E-05  5298   0.844E-03    0.855E-03
RMM:   8    -0.413161926798E+03    0.54372E-06   -0.18326E-05  4289   0.477E-03    0.438E-03
RMM:   9    -0.413161926415E+03    0.38307E-06   -0.16653E-06  2577   0.204E-03
  145 T=    60. E= -.41286744E+03 F= -.41316193E+03 E0= -.41314126E+03  EK= 0.29448E+00 SP= 0.00E+00 SK= 0.00E+00
       N       E                     dE             d eps       ncg     rms          rms(c)
RMM:   1    -0.413154343124E+03    0.75837E-02   -0.10484E+01  4267   0.854E-01    0.864E-01
RMM:   2    -0.413164196318E+03   -0.98532E-02   -0.12591E-01  4294   0.104E-01    0.619E-01
RMM:   3    -0.413162897189E+03    0.12991E-02   -0.67672E-03  4898   0.408E-02    0.145E-01
RMM:   4    -0.413184165422E+03   -0.21268E-01   -0.21857E-02  5159   0.124E-01    0.609E-01
RMM:   5    -0.413162630561E+03    0.21535E-01   -0.10829E-02  4840   0.101E-01    0.428E-02
RMM:   6    -0.413162644855E+03   -0.14294E-04   -0.17451E-03  5733   0.397E-02    0.173E-02
RMM:   7    -0.413162663675E+03   -0.18820E-04   -0.21646E-04  5762   0.124E-02    0.110E-02
RMM:   8    -0.413162669435E+03   -0.57593E-05   -0.34124E-05  4775   0.580E-03    0.630E-03
RMM:   9    -0.413162671439E+03   -0.20047E-05   -0.55328E-06  2943   0.286E-03    0.279E-03
RMM:  10    -0.413162674728E+03   -0.32887E-05   -0.19766E-06  2563   0.195E-03    0.174E-03
RMM:  11    -0.413162677866E+03   -0.31379E-05   -0.10217E-06  2490   0.149E-03    0.888E-04
RMM:  12    -0.413162679791E+03   -0.19253E-05   -0.56929E-07  2163   0.111E-03    0.323E-04
RMM:  13    -0.413162680699E+03   -0.90776E-06   -0.32144E-07  1723   0.869E-04
  146 T=    60. E= -.41286769E+03 F= -.41316268E+03 E0= -.41314202E+03  EK= 0.29499E+00 SP= 0.00E+00 SK= 0.00E+00
       N       E                     dE             d eps       ncg     rms          rms(c)
RMM:   1    -0.413154508549E+03    0.81712E-02   -0.10521E+01  4265   0.858E-01    0.873E-01
RMM:   2    -0.413164245869E+03   -0.97373E-02   -0.12662E-01  4299   0.103E-01    0.627E-01
RMM:   3    -0.413162855080E+03    0.13908E-02   -0.70111E-03  4902   0.394E-02    0.140E-01
RMM:   4    -0.413180587285E+03   -0.17732E-01   -0.18295E-02  5161   0.114E-01    0.558E-01
RMM:   5    -0.413162638946E+03    0.17948E-01   -0.90281E-03  4834   0.924E-02    0.411E-02
RMM:   6    -0.413162645403E+03   -0.64577E-05   -0.15184E-03  5709   0.364E-02    0.177E-02
RMM:   7    -0.413162662802E+03   -0.17398E-04   -0.18952E-04  5663   0.116E-02    0.103E-02
RMM:   8    -0.413162668627E+03   -0.58250E-05   -0.29411E-05  4634   0.552E-03    0.584E-03
RMM:   9    -0.413162670245E+03   -0.16185E-05   -0.49421E-06  2919   0.277E-03    0.268E-03
RMM:  10    -0.413162673344E+03   -0.30991E-05   -0.17551E-06  2544   0.190E-03    0.171E-03
RMM:  11    -0.413162676361E+03   -0.30167E-05   -0.91474E-07  2480   0.145E-03    0.827E-04
RMM:  12    -0.413162678220E+03   -0.18595E-05   -0.49258E-07  2149   0.106E-03    0.315E-04
RMM:  13    -0.413162679176E+03   -0.95525E-06   -0.27382E-07  1605   0.832E-04
  147 T=    60. E= -.41286741E+03 F= -.41316268E+03 E0= -.41314202E+03  EK= 0.29527E+00 SP= 0.00E+00 SK= 0.00E+00
       N       E                     dE             d eps       ncg     rms          rms(c)
RMM:   1    -0.413155687906E+03    0.69903E-02   -0.10484E+01  4264   0.859E-01    0.892E-01
RMM:   2    -0.413164302055E+03   -0.86141E-02   -0.12339E-01  4300   0.100E-01    0.619E-01
RMM:   3    -0.413163467870E+03    0.83418E-03   -0.75305E-03  4959   0.403E-02    0.153E-01
RMM:   4    -0.413189188143E+03   -0.25720E-01   -0.26613E-02  5158   0.136E-01    0.669E-01
RMM:   5    -0.413163122615E+03    0.26066E-01   -0.13006E-02  4823   0.111E-01    0.490E-02
RMM:   6    -0.413163153096E+03   -0.30481E-04   -0.21619E-03  5707   0.440E-02    0.210E-02
RMM:   7    -0.413163168232E+03   -0.15136E-04   -0.27801E-04  5844   0.137E-02    0.123E-02
RMM:   8    -0.413163167421E+03    0.81052E-06   -0.38882E-05  4943   0.626E-03    0.656E-03
RMM:   9    -0.413163165047E+03    0.23742E-05   -0.69533E-06  3130   0.308E-03    0.305E-03
RMM:  10    -0.413163163989E+03    0.10576E-05   -0.20288E-06  2552   0.200E-03    0.200E-03
RMM:  11    -0.413163162546E+03    0.14429E-05   -0.96905E-07  2491   0.151E-03    0.103E-03
RMM:  12    -0.413163161016E+03    0.15308E-05   -0.57159E-07  2323   0.116E-03    0.352E-04
RMM:  13    -0.413163160239E+03    0.77615E-06   -0.28166E-07  1770   0.858E-04
  148 T=    60. E= -.41286755E+03 F= -.41316316E+03 E0= -.41314251E+03  EK= 0.29561E+00 SP= 0.00E+00 SK= 0.00E+00
       N       E                     dE             d eps       ncg     rms          rms(c)
RMM:   1    -0.413155849235E+03    0.73118E-02   -0.10345E+01  4264   0.856E-01    0.867E-01
RMM:   2    -0.413165105030E+03   -0.92558E-02   -0.12365E-01  4303   0.100E-01    0.618E-01
RMM:   3    -0.413164073531E+03    0.10315E-02   -0.73957E-03  4989   0.423E-02    0.154E-01
RMM:   4    -0.413195697173E+03   -0.31624E-01   -0.33205E-02  5148   0.152E-01    0.739E-01
RMM:   5    -0.413163550514E+03    0.32147E-01   -0.15980E-02  4824   0.124E-01    0.522E-02
RMM:   6    -0.413163603046E+03   -0.52531E-04   -0.25919E-03  5688   0.486E-02    0.202E-02
RMM:   7    -0.413163626423E+03   -0.23378E-04   -0.33066E-04  5932   0.147E-02    0.127E-02
RMM:   8    -0.413163629037E+03   -0.26133E-05   -0.45204E-05  5119   0.663E-03    0.680E-03
RMM:   9    -0.413163628723E+03    0.31424E-06   -0.85374E-06  3258   0.323E-03
  149 T=    60. E= -.41286762E+03 F= -.41316363E+03 E0= -.41314298E+03  EK= 0.29601E+00 SP= 0.00E+00 SK= 0.00E+00
       N       E                     dE             d eps       ncg     rms          rms(c)
RMM:   1    -0.413156076271E+03    0.75528E-02   -0.10369E+01  4264   0.863E-01    0.869E-01
RMM:   2    -0.413165435285E+03   -0.93590E-02   -0.12544E-01  4305   0.102E-01    0.629E-01
RMM:   3    -0.413165655656E+03   -0.22037E-03   -0.91747E-03  5124   0.576E-02    0.225E-01
RMM:   4    -0.413203494130E+03   -0.37838E-01   -0.47829E-02  5117   0.182E-01    0.821E-01
RMM:   5    -0.413163609362E+03    0.39885E-01   -0.18754E-02  4801   0.138E-01    0.679E-02
RMM:   6    -0.413163565461E+03    0.43901E-04   -0.30265E-03  5540   0.541E-02    0.213E-02
RMM:   7    -0.413163606792E+03   -0.41331E-04   -0.47962E-04  6088   0.185E-02    0.150E-02
RMM:   8    -0.413163611321E+03   -0.45289E-05   -0.68649E-05  5487   0.825E-03    0.811E-03
RMM:   9    -0.413163613373E+03   -0.20521E-05   -0.12982E-05  3782   0.407E-03    0.385E-03
RMM:  10    -0.413163615688E+03   -0.23144E-05   -0.23359E-06  2584   0.214E-03    0.239E-03
RMM:  11    -0.413163618993E+03   -0.33048E-05   -0.15273E-06  2550   0.186E-03    0.148E-03
RMM:  12    -0.413163620945E+03   -0.19527E-05   -0.72864E-07  2484   0.138E-03    0.644E-04
RMM:  13    -0.413163621928E+03   -0.98263E-06   -0.35243E-07  1888   0.945E-04
  150 T=    60. E= -.41286730E+03 F= -.41316362E+03 E0= -.41314298E+03  EK= 0.29632E+00 SP= 0.00E+00 SK= 0.00E+00
