       N       E                     dE             d eps       ncg     rms          rms(c)
RMM:   1     0.220187405505E+04    0.22019E+04   -0.52443E+04  2132   0.654E+02
RMM:   2     0.706007051595E+03   -0.14959E+04   -0.16264E+04  2132   0.177E+02
RMM:   3     0.137839343606E+03   -0.56817E+03   -0.65713E+03  2132   0.117E+02
RMM:   4    -0.159602652968E+03   -0.29744E+03   -0.27826E+03  2132   0.936E+01
RMM:   5    -0.287449947705E+03   -0.12785E+03   -0.11455E+03  2132   0.595E+01
RMM:   6    -0.349863778860E+03   -0.62414E+02   -0.55146E+02  2132   0.423E+01
RMM:   7    -0.382755161726E+03   -0.32891E+02   -0.30458E+02  2132   0.293E+01
RMM:   8    -0.404298016524E+03   -0.21543E+02   -0.18440E+02  2132   0.233E+01
RMM:   9    -0.435946875021E+03   -0.31649E+02   -0.30576E+02  6091   0.173E+01
RMM:  10    -0.441282681970E+03   -0.53358E+01   -0.63013E+01  6406   0.539E+00
RMM:  11    -0.442514010229E+03   -0.12313E+01   -0.11217E+01  6222   0.172E+00
RMM:  12    -0.442895738598E+03   -0.38173E+00   -0.27191E+00  6365   0.599E-01    0.134E+02
RMM:  13    -0.425609412594E+03    0.17286E+02   -0.80971E+01  4671   0.119E+01    0.712E+01
RMM:  14    -0.499492707762E+03   -0.73883E+02   -0.53856E+02  5414   0.232E+01    0.307E+01
RMM:  15    -0.416091530070E+03    0.83401E+02   -0.19923E+02  5087   0.164E+01    0.716E+00
RMM:  16    -0.414019409421E+03    0.20721E+01   -0.39607E+01  6095   0.612E+00    0.428E+00
RMM:  17    -0.413210475098E+03    0.80893E+00   -0.25224E+00  5387   0.189E+00    0.243E+00
RMM:  18    -0.413177405674E+03    0.33069E-01   -0.76514E-01  5996   0.898E-01    0.168E+00
RMM:  19    -0.413170929338E+03    0.64763E-02   -0.27251E-01  5687   0.568E-01    0.878E-01
RMM:  20    -0.413190116467E+03   -0.19187E-01   -0.27421E-01  5560   0.546E-01    0.616E-01
RMM:  21    -0.413169292111E+03    0.20824E-01   -0.35264E-02  4980   0.243E-01    0.277E-01
RMM:  22    -0.413166327967E+03    0.29641E-02   -0.19551E-02  5964   0.130E-01    0.135E-01
RMM:  23    -0.413165087762E+03    0.12402E-02   -0.53041E-03  6023   0.659E-02    0.840E-02
RMM:  24    -0.413163578203E+03    0.15096E-02   -0.15337E-03  5266   0.409E-02    0.502E-02
RMM:  25    -0.413162906060E+03    0.67214E-03   -0.84312E-04  5272   0.287E-02    0.380E-02
RMM:  26    -0.413162990304E+03   -0.84244E-04   -0.10216E-03  5809   0.331E-02    0.361E-02
RMM:  27    -0.413163389660E+03   -0.39936E-03   -0.20077E-04  4562   0.208E-02    0.208E-02
RMM:  28    -0.413163820649E+03   -0.43099E-03   -0.18012E-04  5238   0.191E-02    0.946E-03
RMM:  29    -0.413164197750E+03   -0.37710E-03   -0.10922E-04  4594   0.157E-02    0.482E-03
RMM:  30    -0.413164420597E+03   -0.22285E-03   -0.78428E-05  4429   0.106E-02    0.471E-03
RMM:  31    -0.413164549267E+03   -0.12867E-03   -0.58004E-05  3224   0.743E-03    0.364E-03
RMM:  32    -0.413164566470E+03   -0.17203E-04   -0.20550E-05  2997   0.312E-03    0.203E-03
RMM:  33    -0.413164573451E+03   -0.69805E-05   -0.83828E-06  2807   0.232E-03    0.610E-04
RMM:  34    -0.413164573195E+03    0.25612E-06   -0.45767E-06  2633   0.166E-03
    1 T=    61. E= -.41286675E+03 F= -.41316457E+03 E0= -.41314208E+03  EK= 0.29783E+00 SP= 0.00E+00 SK= 0.00E+00
       N       E                     dE             d eps       ncg     rms          rms(c)
RMM:   1    -0.413174389577E+03   -0.98161E-02   -0.61293E+00  3998   0.483E-01    0.911E-01
RMM:   2    -0.413171603411E+03    0.27862E-02   -0.79727E-02  3988   0.727E-02    0.664E-01
RMM:   3    -0.413167777315E+03    0.38261E-02   -0.53661E-02  5079   0.783E-02    0.320E-01
RMM:   4    -0.413185659966E+03   -0.17883E-01   -0.28389E-02  5163   0.143E-01    0.617E-01
RMM:   5    -0.413164141357E+03    0.21519E-01   -0.11133E-02  4766   0.105E-01    0.464E-02
RMM:   6    -0.413164275231E+03   -0.13387E-03   -0.18177E-03  5671   0.417E-02    0.291E-02
RMM:   7    -0.413164291687E+03   -0.16456E-04   -0.31709E-04  5765   0.159E-02    0.192E-02
RMM:   8    -0.413164292252E+03   -0.56473E-06   -0.39208E-05  4822   0.719E-03    0.652E-03
RMM:   9    -0.413164295838E+03   -0.35867E-05   -0.82311E-06  3183   0.301E-03    0.430E-03
RMM:  10    -0.413164301386E+03   -0.55478E-05   -0.17669E-06  2559   0.191E-03    0.265E-03
RMM:  11    -0.413164305559E+03   -0.41735E-05   -0.10313E-06  2476   0.140E-03    0.126E-03
RMM:  12    -0.413164311151E+03   -0.55912E-05   -0.95847E-07  2467   0.130E-03    0.631E-04
RMM:  13    -0.413164313781E+03   -0.26300E-05   -0.50139E-07  2003   0.969E-04    0.390E-04
RMM:  14    -0.413164314434E+03   -0.65297E-06   -0.29281E-07  1495   0.751E-04
    2 T=    61. E= -.41286648E+03 F= -.41316431E+03 E0= -.41314181E+03  EK= 0.29783E+00 SP= 0.00E+00 SK= 0.00E+00
       N       E                     dE             d eps       ncg     rms          rms(c)
RMM:   1    -0.413175550848E+03   -0.11237E-01   -0.60781E+00  4187   0.488E-01    0.927E-01
RMM:   2    -0.413171823175E+03    0.37277E-02   -0.80197E-02  4031   0.727E-02    0.664E-01
RMM:   3    -0.413169199154E+03    0.26240E-02   -0.50325E-02  5111   0.818E-02    0.319E-01
RMM:   4    -0.413185547438E+03   -0.16348E-01   -0.29413E-02  5126   0.147E-01    0.607E-01
RMM:   5    -0.413164737649E+03    0.20810E-01   -0.99959E-03  4708   0.102E-01    0.457E-02
RMM:   6    -0.413164851306E+03   -0.11366E-03   -0.17046E-03  5629   0.406E-02    0.309E-02
RMM:   7    -0.413164852497E+03   -0.11906E-05   -0.30094E-04  5617   0.165E-02    0.208E-02
RMM:   8    -0.413164845140E+03    0.73569E-05   -0.42921E-05  5001   0.763E-03    0.769E-03
RMM:   9    -0.413164844256E+03    0.88397E-06   -0.79248E-06  3205   0.327E-03
    3 T=    61. E= -.41286677E+03 F= -.41316484E+03 E0= -.41314235E+03  EK= 0.29807E+00 SP= 0.00E+00 SK= 0.00E+00
       N       E                     dE             d eps       ncg     rms          rms(c)
RMM:   1    -0.413174785257E+03   -0.99401E-02   -0.60403E+00  4218   0.491E-01    0.912E-01
RMM:   2    -0.413171525568E+03    0.32597E-02   -0.79568E-02  4210   0.713E-02    0.657E-01
RMM:   3    -0.413175606215E+03   -0.40806E-02   -0.54692E-02  5184   0.110E-01    0.467E-01
RMM:   4    -0.413176340445E+03   -0.73423E-03   -0.28134E-02  5059   0.148E-01    0.473E-01
RMM:   5    -0.413164616056E+03    0.11724E-01   -0.61575E-03  4547   0.794E-02    0.445E-02
RMM:   6    -0.413164620575E+03   -0.45191E-05   -0.86753E-04  5313   0.290E-02    0.284E-02
RMM:   7    -0.413164626424E+03   -0.58492E-05   -0.17840E-04  5383   0.131E-02    0.170E-02
RMM:   8    -0.413164622782E+03    0.36419E-05   -0.27471E-05  4637   0.637E-03    0.526E-03
RMM:   9    -0.413164623365E+03   -0.58315E-06   -0.36283E-06  2704   0.238E-03
    4 T=    61. E= -.41286660E+03 F= -.41316462E+03 E0= -.41314214E+03  EK= 0.29802E+00 SP= 0.00E+00 SK= 0.00E+00
       N       E                     dE             d eps       ncg     rms          rms(c)
RMM:   1    -0.413174752236E+03   -0.10129E-01   -0.61275E+00  4236   0.496E-01    0.909E-01
RMM:   2    -0.413171886551E+03    0.28657E-02   -0.79815E-02  4067   0.693E-02    0.663E-01
RMM:   3    -0.413171861732E+03    0.24818E-04   -0.55499E-02  5142   0.933E-02    0.405E-01
RMM:   4    -0.413180973810E+03   -0.91121E-02   -0.28213E-02  5092   0.146E-01    0.552E-01
RMM:   5    -0.413164704871E+03    0.16269E-01   -0.86622E-03  4644   0.921E-02    0.441E-02
RMM:   6    -0.413164775231E+03   -0.70361E-04   -0.12692E-03  5547   0.348E-02    0.284E-02
RMM:   7    -0.413164788358E+03   -0.13127E-04   -0.23712E-04  5549   0.147E-02    0.182E-02
RMM:   8    -0.413164789830E+03   -0.14722E-05   -0.32537E-05  4731   0.677E-03    0.594E-03
RMM:   9    -0.413164792838E+03   -0.30079E-05   -0.49537E-06  2881   0.269E-03    0.364E-03
RMM:  10    -0.413164797761E+03   -0.49227E-05   -0.12682E-06  2531   0.176E-03    0.222E-03
RMM:  11    -0.413164801223E+03   -0.34617E-05   -0.74853E-07  2378   0.128E-03    0.108E-03
RMM:  12    -0.413164805702E+03   -0.44796E-05   -0.86548E-07  2463   0.124E-03    0.566E-04
RMM:  13    -0.413164808014E+03   -0.23120E-05   -0.47817E-07  1891   0.943E-04    0.353E-04
RMM:  14    -0.413164808579E+03   -0.56476E-06   -0.22786E-07  1395   0.744E-04
    5 T=    61. E= -.41286673E+03 F= -.41316481E+03 E0= -.41314233E+03  EK= 0.29808E+00 SP= 0.00E+00 SK= 0.00E+00
       N       E                     dE             d eps       ncg     rms          rms(c)
RMM:   1    -0.413176010589E+03   -0.11203E-01   -0.60934E+00  4246   0.502E-01    0.924E-01
RMM:   2    -0.413172267149E+03    0.37434E-02   -0.80018E-02  4075   0.695E-02    0.664E-01
RMM:   3    -0.413170032713E+03    0.22344E-02   -0.51206E-02  5124   0.813E-02    0.335E-01
RMM:   4    -0.413185145298E+03   -0.15113E-01   -0.29214E-02  5106   0.147E-01    0.597E-01
RMM:   5    -0.413165171541E+03    0.19974E-01   -0.97381E-03  4685   0.999E-02    0.453E-02
RMM:   6    -0.413165280486E+03   -0.10895E-03   -0.15945E-03  5600   0.393E-02    0.304E-02
RMM:   7    -0.413165276860E+03    0.36267E-05   -0.28438E-04  5603   0.160E-02    0.203E-02
RMM:   8    -0.413165272536E+03    0.43238E-05   -0.40419E-05  4938   0.761E-03    0.735E-03
RMM:   9    -0.413165272076E+03    0.46015E-06   -0.72735E-06  3119   0.315E-03
    6 T=    61. E= -.41286699E+03 F= -.41316527E+03 E0= -.41314281E+03  EK= 0.29828E+00 SP= 0.00E+00 SK= 0.00E+00
       N       E                     dE             d eps       ncg     rms          rms(c)
RMM:   1    -0.413175356097E+03   -0.10084E-01   -0.60490E+00  4269   0.500E-01    0.918E-01
RMM:   2    -0.413171959124E+03    0.33970E-02   -0.79609E-02  4233   0.705E-02    0.659E-01
RMM:   3    -0.413175188614E+03   -0.32295E-02   -0.53499E-02  5161   0.106E-01    0.449E-01
RMM:   4    -0.413177511195E+03   -0.23226E-02   -0.28219E-02  5056   0.148E-01    0.484E-01
RMM:   5    -0.413165052137E+03    0.12459E-01   -0.62486E-03  4560   0.813E-02    0.448E-02
RMM:   6    -0.413165067095E+03   -0.14958E-04   -0.94133E-04  5343   0.300E-02    0.288E-02
RMM:   7    -0.413165077796E+03   -0.10701E-04   -0.18817E-04  5426   0.134E-02    0.175E-02
RMM:   8    -0.413165073495E+03    0.43011E-05   -0.28950E-05  4659   0.666E-03    0.551E-03
RMM:   9    -0.413165072480E+03    0.10146E-05   -0.39188E-06  2739   0.246E-03    0.304E-03
RMM:  10    -0.413165071912E+03    0.56808E-06   -0.11153E-06  2497   0.162E-03
    7 T=    61. E= -.41286675E+03 F= -.41316507E+03 E0= -.41314262E+03  EK= 0.29832E+00 SP= 0.00E+00 SK= 0.00E+00
       N       E                     dE             d eps       ncg     rms          rms(c)
RMM:   1    -0.413175586530E+03   -0.10514E-01   -0.61154E+00  4273   0.509E-01    0.907E-01
RMM:   2    -0.413172828460E+03    0.27581E-02   -0.79651E-02  4145   0.719E-02    0.661E-01
RMM:   3    -0.413171032942E+03    0.17955E-02   -0.54131E-02  5078   0.878E-02    0.366E-01
RMM:   4    -0.413184427531E+03   -0.13395E-01   -0.28484E-02  5088   0.145E-01    0.588E-01
RMM:   5    -0.413165510121E+03    0.18917E-01   -0.97797E-03  4685   0.979E-02    0.439E-02
RMM:   6    -0.413165615132E+03   -0.10501E-03   -0.15404E-03  5603   0.380E-02    0.294E-02
RMM:   7    -0.413165612639E+03    0.24925E-05   -0.27694E-04  5556   0.159E-02    0.196E-02
RMM:   8    -0.413165610164E+03    0.24747E-05   -0.37930E-05  4848   0.741E-03    0.698E-03
RMM:   9    -0.413165611884E+03   -0.17200E-05   -0.67709E-06  3076   0.305E-03    0.425E-03
RMM:  10    -0.413165615294E+03   -0.34100E-05   -0.13373E-06  2526   0.186E-03    0.257E-03
RMM:  11    -0.413165617516E+03   -0.22216E-05   -0.77128E-07  2448   0.135E-03    0.128E-03
RMM:  12    -0.413165620491E+03   -0.29747E-05   -0.94960E-07  2491   0.134E-03    0.679E-04
RMM:  13    -0.413165621431E+03   -0.93988E-06   -0.44293E-07  2005   0.980E-04
    8 T=    61. E= -.41286694E+03 F= -.41316562E+03 E0= -.41314319E+03  EK= 0.29868E+00 SP= 0.00E+00 SK= 0.00E+00
       N       E                     dE             d eps       ncg     rms          rms(c)
RMM:   1    -0.413176141242E+03   -0.10521E-01   -0.61182E+00  4282   0.510E-01    0.921E-01
RMM:   2    -0.413172992015E+03    0.31492E-02   -0.79917E-02  4189   0.738E-02    0.665E-01
RMM:   3    -0.413170241711E+03    0.27503E-02   -0.52102E-02  5067   0.837E-02    0.333E-01
RMM:   4    -0.413186309514E+03   -0.16068E-01   -0.28864E-02  5093   0.146E-01    0.607E-01
RMM:   5    -0.413165687623E+03    0.20622E-01   -0.10248E-02  4696   0.101E-01    0.441E-02
RMM:   6    -0.413165809204E+03   -0.12158E-03   -0.16868E-03  5637   0.399E-02    0.307E-02
RMM:   7    -0.413165806021E+03    0.31825E-05   -0.29536E-04  5561   0.165E-02    0.206E-02
RMM:   8    -0.413165801926E+03    0.40950E-05   -0.40449E-05  4882   0.770E-03    0.764E-03
RMM:   9    -0.413165801578E+03    0.34782E-06   -0.80191E-06  3182   0.327E-03
    9 T=    61. E= -.41286683E+03 F= -.41316580E+03 E0= -.41314339E+03  EK= 0.29897E+00 SP= 0.00E+00 SK= 0.00E+00
       N       E                     dE             d eps       ncg     rms          rms(c)
RMM:   1    -0.413176353081E+03   -0.10551E-01   -0.60768E+00  4296   0.513E-01    0.925E-01
RMM:   2    -0.413172780417E+03    0.35727E-02   -0.80249E-02  4299   0.734E-02    0.661E-01
RMM:   3    -0.413177477725E+03   -0.46973E-02   -0.54333E-02  5157   0.113E-01    0.474E-01
RMM:   4    -0.413177203329E+03    0.27440E-03   -0.28369E-02  5036   0.149E-01    0.463E-01
RMM:   5    -0.413165880679E+03    0.11323E-01   -0.56714E-03  4530   0.777E-02    0.446E-02
RMM:   6    -0.413165880968E+03   -0.28847E-06   -0.83786E-04  5300   0.283E-02    0.290E-02
RMM:   7    -0.413165868526E+03    0.12442E-04   -0.17615E-04  5337   0.133E-02    0.171E-02
RMM:   8    -0.413165863015E+03    0.55110E-05   -0.27584E-05  4604   0.657E-03    0.527E-03
RMM:   9    -0.413165861252E+03    0.17636E-05   -0.36221E-06  2697   0.238E-03    0.287E-03
RMM:  10    -0.413165859302E+03    0.19492E-05   -0.10653E-06  2485   0.157E-03    0.167E-03
RMM:  11    -0.413165857355E+03    0.19476E-05   -0.65351E-07  2186   0.116E-03    0.781E-04
RMM:  12    -0.413165854366E+03    0.29887E-05   -0.61690E-07  2244   0.107E-03    0.441E-04
RMM:  13    -0.413165851820E+03    0.25459E-05   -0.32427E-07  1613   0.824E-04    0.290E-04
RMM:  14    -0.413165849257E+03    0.25631E-05   -0.25421E-07  1456   0.752E-04    0.180E-04
RMM:  15    -0.413165845563E+03    0.36939E-05   -0.32035E-07  1691   0.783E-04    0.292E-04
RMM:  16    -0.413165841307E+03    0.42565E-05   -0.31075E-07  1430   0.720E-04    0.138E-04
RMM:  17    -0.413165840535E+03    0.77187E-06   -0.81117E-08   898   0.541E-04
   10 T=    61. E= -.41286663E+03 F= -.41316584E+03 E0= -.41314346E+03  EK= 0.29921E+00 SP= 0.00E+00 SK= 0.00E+00
       N       E                     dE             d eps       ncg     rms          rms(c)
RMM:   1    -0.413176605827E+03   -0.10765E-01   -0.61080E+00  4289   0.522E-01    0.907E-01
RMM:   2    -0.413173763512E+03    0.28423E-02   -0.79675E-02  4224   0.738E-02    0.660E-01
RMM:   3    -0.413171369295E+03    0.23942E-02   -0.53022E-02  5066   0.847E-02    0.348E-01
RMM:   4    -0.413186508800E+03   -0.15140E-01   -0.28745E-02  5083   0.146E-01    0.601E-01
RMM:   5    -0.413166513698E+03    0.19995E-01   -0.10140E-02  4689   0.995E-02    0.440E-02
RMM:   6    -0.413166626837E+03   -0.11314E-03   -0.16359E-03  5605   0.390E-02    0.301E-02
RMM:   7    -0.413166627643E+03   -0.80609E-06   -0.28763E-04  5520   0.161E-02    0.201E-02
RMM:   8    -0.413166626057E+03    0.15856E-05   -0.38901E-05  4884   0.732E-03    0.728E-03
RMM:   9    -0.413166627161E+03   -0.11040E-05   -0.71848E-06  3099   0.315E-03    0.442E-03
RMM:  10    -0.413166629934E+03   -0.27726E-05   -0.13714E-06  2518   0.190E-03    0.267E-03
RMM:  11    -0.413166631605E+03   -0.16708E-05   -0.74520E-07  2453   0.135E-03    0.137E-03
RMM:  12    -0.413166633542E+03   -0.19375E-05   -0.84059E-07  2480   0.134E-03    0.725E-04
RMM:  13    -0.413166633869E+03   -0.32719E-06   -0.34402E-07  1998   0.963E-04
   11 T=    61. E= -.41286696E+03 F= -.41316663E+03 E0= -.41314427E+03  EK= 0.29967E+00 SP= 0.00E+00 SK= 0.00E+00
       N       E                     dE             d eps       ncg     rms          rms(c)
RMM:   1    -0.413176865141E+03   -0.10232E-01   -0.61547E+00  4292   0.525E-01    0.918E-01
RMM:   2    -0.413173737195E+03    0.31279E-02   -0.80207E-02  4243   0.723E-02    0.667E-01
RMM:   3    -0.413171262058E+03    0.24751E-02   -0.53193E-02  5077   0.825E-02    0.344E-01
RMM:   4    -0.413186926151E+03   -0.15664E-01   -0.29069E-02  5087   0.146E-01    0.606E-01
RMM:   5    -0.413166487563E+03    0.20439E-01   -0.10273E-02  4687   0.101E-01    0.440E-02
RMM:   6    -0.413166624634E+03   -0.13707E-03   -0.16896E-03  5643   0.395E-02    0.304E-02
RMM:   7    -0.413166622128E+03    0.25057E-05   -0.29396E-04  5544   0.165E-02    0.205E-02
RMM:   8    -0.413166619133E+03    0.29950E-05   -0.39922E-05  4863   0.754E-03    0.754E-03
RMM:   9    -0.413166619157E+03   -0.23916E-07   -0.75929E-06  3149   0.322E-03
   12 T=    61. E= -.41286675E+03 F= -.41316662E+03 E0= -.41314429E+03  EK= 0.29986E+00 SP= 0.00E+00 SK= 0.00E+00
       N       E                     dE             d eps       ncg     rms          rms(c)
RMM:   1    -0.413177833327E+03   -0.11214E-01   -0.61087E+00  4298   0.525E-01    0.929E-01
RMM:   2    -0.413174067905E+03    0.37654E-02   -0.80515E-02  4369   0.700E-02    0.664E-01
RMM:   3    -0.413179438690E+03   -0.53708E-02   -0.54680E-02  5171   0.113E-01    0.486E-01
RMM:   4    -0.413178073748E+03    0.13649E-02   -0.28671E-02  5025   0.150E-01    0.454E-01
RMM:   5    -0.413167189591E+03    0.10884E-01   -0.54496E-03  4505   0.771E-02    0.444E-02
RMM:   6    -0.413167188399E+03    0.11916E-05   -0.80071E-04  5266   0.278E-02    0.291E-02
RMM:   7    -0.413167184363E+03    0.40364E-05   -0.17028E-04  5278   0.131E-02    0.170E-02
RMM:   8    -0.413167180697E+03    0.36661E-05   -0.26820E-05  4570   0.639E-03    0.515E-03
RMM:   9    -0.413167178613E+03    0.20840E-05   -0.34665E-06  2674   0.237E-03    0.281E-03
RMM:  10    -0.413167176151E+03    0.24615E-05   -0.10331E-06  2467   0.154E-03    0.162E-03
RMM:  11    -0.413167173526E+03    0.26253E-05   -0.63597E-07  2144   0.114E-03    0.760E-04
RMM:  12    -0.413167169573E+03    0.39528E-05   -0.58142E-07  2237   0.106E-03    0.449E-04
RMM:  13    -0.413167166697E+03    0.28761E-05   -0.26535E-07  1537   0.795E-04    0.309E-04
RMM:  14    -0.413167163091E+03    0.36061E-05   -0.22085E-07  1352   0.742E-04    0.169E-04
RMM:  15    -0.413167158498E+03    0.45923E-05   -0.25853E-07  1630   0.769E-04    0.287E-04
RMM:  16    -0.413167153535E+03    0.49630E-05   -0.22636E-07  1365   0.693E-04    0.141E-04
RMM:  17    -0.413167152281E+03    0.12541E-05   -0.74444E-08   877   0.539E-04    0.796E-05
RMM:  18    -0.413167150921E+03    0.13606E-05   -0.51442E-08   829   0.536E-04    0.306E-05
RMM:  19    -0.413167150382E+03    0.53822E-06   -0.26892E-08   690   0.513E-04
   13 T=    61. E= -.41286686E+03 F= -.41316715E+03 E0= -.41314485E+03  EK= 0.30029E+00 SP= 0.00E+00 SK= 0.00E+00
       N       E                     dE             d eps       ncg     rms          rms(c)
RMM:   1    -0.413177887916E+03   -0.10737E-01   -0.61048E+00  4296   0.533E-01    0.909E-01
RMM:   2    -0.413174899706E+03    0.29882E-02   -0.79769E-02  4250   0.709E-02    0.660E-01
RMM:   3    -0.413172850815E+03    0.20489E-02   -0.52117E-02  5097   0.828E-02    0.347E-01
RMM:   4    -0.413187618226E+03   -0.14767E-01   -0.29356E-02  5083   0.147E-01    0.597E-01
RMM:   5    -0.413167764123E+03    0.19854E-01   -0.98953E-03  4678   0.995E-02    0.444E-02
RMM:   6    -0.413167880385E+03   -0.11626E-03   -0.16213E-03  5591   0.387E-02    0.303E-02
RMM:   7    -0.413167886907E+03   -0.65220E-05   -0.28316E-04  5501   0.161E-02    0.203E-02
RMM:   8    -0.413167882661E+03    0.42458E-05   -0.38908E-05  4882   0.740E-03    0.729E-03
RMM:   9    -0.413167882389E+03    0.27192E-06   -0.71398E-06  3086   0.316E-03
   14 T=    61. E= -.41286705E+03 F= -.41316788E+03 E0= -.41314561E+03  EK= 0.30084E+00 SP= 0.00E+00 SK= 0.00E+00
       N       E                     dE             d eps       ncg     rms          rms(c)
RMM:   1    -0.413177995868E+03   -0.10113E-01   -0.61935E+00  4301   0.538E-01    0.916E-01
RMM:   2    -0.413175162297E+03    0.28336E-02   -0.80600E-02  4318   0.730E-02    0.667E-01
RMM:   3    -0.413180391911E+03   -0.52296E-02   -0.58686E-02  5150   0.116E-01    0.504E-01
RMM:   4    -0.413179089108E+03    0.13028E-02   -0.28729E-02  5023   0.150E-01    0.472E-01
RMM:   5    -0.413167874690E+03    0.11214E-01   -0.65329E-03  4502   0.791E-02    0.431E-02
RMM:   6    -0.413167893586E+03   -0.18896E-04   -0.84544E-04  5263   0.278E-02    0.277E-02
RMM:   7    -0.413167893711E+03   -0.12506E-06   -0.17437E-04  5227   0.133E-02    0.162E-02
RMM:   8    -0.413167896305E+03   -0.25941E-05   -0.25903E-05  4416   0.643E-03    0.478E-03
RMM:   9    -0.413167897465E+03   -0.11593E-05   -0.33582E-06  2686   0.232E-03    0.291E-03
RMM:  10    -0.413167899576E+03   -0.21112E-05   -0.10141E-06  2465   0.153E-03    0.166E-03
RMM:  11    -0.413167900478E+03   -0.90183E-06   -0.55401E-07  2035   0.109E-03
   15 T=    61. E= -.41286669E+03 F= -.41316790E+03 E0= -.41314567E+03  EK= 0.30121E+00 SP= 0.00E+00 SK= 0.00E+00
       N       E                     dE             d eps       ncg     rms          rms(c)
RMM:   1    -0.413179599361E+03   -0.11700E-01   -0.61493E+00  4296   0.539E-01    0.931E-01
RMM:   2    -0.413176028604E+03    0.35708E-02   -0.80960E-02  4257   0.747E-02    0.666E-01
RMM:   3    -0.413173587812E+03    0.24408E-02   -0.50218E-02  5052   0.846E-02    0.325E-01
RMM:   4    -0.413189529657E+03   -0.15942E-01   -0.29908E-02  5077   0.148E-01    0.605E-01
RMM:   5    -0.413168865782E+03    0.20664E-01   -0.98373E-03  4691   0.101E-01    0.449E-02
RMM:   6    -0.413168979498E+03   -0.11372E-03   -0.17032E-03  5625   0.399E-02    0.316E-02
RMM:   7    -0.413168969708E+03    0.97905E-05   -0.29899E-04  5525   0.169E-02    0.212E-02
RMM:   8    -0.413168958827E+03    0.10881E-04   -0.41029E-05  4911   0.779E-03    0.795E-03
RMM:   9    -0.413168955253E+03    0.35739E-05   -0.81224E-06  3181   0.333E-03    0.468E-03
RMM:  10    -0.413168952230E+03    0.30227E-05   -0.15083E-06  2524   0.202E-03    0.280E-03
RMM:  11    -0.413168949565E+03    0.26653E-05   -0.82322E-07  2481   0.142E-03    0.147E-03
RMM:  12    -0.413168944233E+03    0.53317E-05   -0.10271E-06  2496   0.149E-03    0.795E-04
RMM:  13    -0.413168940281E+03    0.39525E-05   -0.44010E-07  2133   0.105E-03    0.544E-04
RMM:  14    -0.413168939643E+03    0.63758E-06   -0.17542E-07  1506   0.739E-04
   16 T=    61. E= -.41286696E+03 F= -.41316894E+03 E0= -.41314674E+03  EK= 0.30198E+00 SP= 0.00E+00 SK= 0.00E+00
       N       E                     dE             d eps       ncg     rms          rms(c)
RMM:   1    -0.413179573618E+03   -0.10633E-01   -0.61272E+00  4295   0.544E-01    0.914E-01
RMM:   2    -0.413176555913E+03    0.30177E-02   -0.80528E-02  4265   0.757E-02    0.661E-01
RMM:   3    -0.413174291086E+03    0.22648E-02   -0.51251E-02  5055   0.865E-02    0.338E-01
RMM:   4    -0.413189697818E+03   -0.15407E-01   -0.29629E-02  5073   0.148E-01    0.603E-01
RMM:   5    -0.413169308954E+03    0.20389E-01   -0.99712E-03  4687   0.100E-01    0.448E-02
RMM:   6    -0.413169418306E+03   -0.10935E-03   -0.16606E-03  5632   0.393E-02    0.308E-02
RMM:   7    -0.413169413485E+03    0.48212E-05   -0.29111E-04  5514   0.166E-02    0.206E-02
RMM:   8    -0.413169408186E+03    0.52998E-05   -0.40280E-05  4896   0.767E-03    0.747E-03
RMM:   9    -0.413169406244E+03    0.19412E-05   -0.78385E-06  3129   0.325E-03    0.443E-03
RMM:  10    -0.413169405117E+03    0.11276E-05   -0.14374E-06  2523   0.197E-03    0.267E-03
RMM:  11    -0.413169403859E+03    0.12574E-05   -0.75996E-07  2454   0.137E-03    0.138E-03
RMM:  12    -0.413169401115E+03    0.27440E-05   -0.87804E-07  2487   0.139E-03    0.737E-04
RMM:  13    -0.413169398818E+03    0.22970E-05   -0.36763E-07  2032   0.987E-04    0.482E-04
RMM:  14    -0.413169398012E+03    0.80659E-06   -0.16514E-07  1448   0.730E-04
   17 T=    62. E= -.41286681E+03 F= -.41316940E+03 E0= -.41314724E+03  EK= 0.30259E+00 SP= 0.00E+00 SK= 0.00E+00
       N       E                     dE             d eps       ncg     rms          rms(c)
RMM:   1    -0.413179986036E+03   -0.10587E-01   -0.62337E+00  4294   0.552E-01    0.915E-01
RMM:   2    -0.413177301579E+03    0.26845E-02   -0.81214E-02  4267   0.764E-02    0.668E-01
RMM:   3    -0.413175054293E+03    0.22473E-02   -0.54524E-02  5049   0.883E-02    0.363E-01
RMM:   4    -0.413189694008E+03   -0.14640E-01   -0.29340E-02  5070   0.147E-01    0.601E-01
RMM:   5    -0.413169775960E+03    0.19918E-01   -0.10240E-02  4678   0.999E-02    0.441E-02
RMM:   6    -0.413169897056E+03   -0.12110E-03   -0.16588E-03  5637   0.386E-02    0.299E-02
RMM:   7    -0.413169886372E+03    0.10683E-04   -0.28645E-04  5522   0.162E-02    0.200E-02
RMM:   8    -0.413169883916E+03    0.24564E-05   -0.38116E-05  4837   0.755E-03    0.725E-03
RMM:   9    -0.413169884781E+03   -0.86526E-06   -0.75667E-06  3124   0.321E-03
   18 T=    62. E= -.41286672E+03 F= -.41316988E+03 E0= -.41314777E+03  EK= 0.30317E+00 SP= 0.00E+00 SK= 0.00E+00
       N       E                     dE             d eps       ncg     rms          rms(c)
RMM:   1    -0.413181694071E+03   -0.11810E-01   -0.61969E+00  4299   0.551E-01    0.932E-01
RMM:   2    -0.413178195730E+03    0.34983E-02   -0.81510E-02  4314   0.760E-02    0.669E-01
RMM:   3    -0.413183038815E+03   -0.48431E-02   -0.55184E-02  5147   0.114E-01    0.480E-01
RMM:   4    -0.413182788209E+03    0.25061E-03   -0.29227E-02  5029   0.150E-01    0.469E-01
RMM:   5    -0.413171154162E+03    0.11634E-01   -0.58596E-03  4521   0.791E-02    0.443E-02
RMM:   6    -0.413171172200E+03   -0.18038E-04   -0.87535E-04  5330   0.283E-02    0.292E-02
RMM:   7    -0.413171165256E+03    0.69437E-05   -0.17937E-04  5279   0.136E-02    0.173E-02
RMM:   8    -0.413171162503E+03    0.27532E-05   -0.27244E-05  4531   0.688E-03    0.522E-03
RMM:   9    -0.413171160083E+03    0.24203E-05   -0.37951E-06  2714   0.247E-03    0.290E-03
RMM:  10    -0.413171157364E+03    0.27186E-05   -0.10715E-06  2492   0.159E-03    0.167E-03
RMM:  11    -0.413171154710E+03    0.26542E-05   -0.61128E-07  2150   0.115E-03    0.797E-04
RMM:  12    -0.413171150079E+03    0.46310E-05   -0.59303E-07  2223   0.107E-03    0.461E-04
RMM:  13    -0.413171146201E+03    0.38783E-05   -0.27976E-07  1534   0.805E-04    0.295E-04
RMM:  14    -0.413171142744E+03    0.34564E-05   -0.16698E-07  1205   0.692E-04    0.165E-04
RMM:  15    -0.413171137074E+03    0.56699E-05   -0.19920E-07  1446   0.731E-04    0.267E-04
RMM:  16    -0.413171130607E+03    0.64677E-05   -0.17993E-07  1303   0.677E-04    0.148E-04
RMM:  17    -0.413171129602E+03    0.10050E-05   -0.58128E-08   811   0.540E-04    0.101E-04
RMM:  18    -0.413171127702E+03    0.18994E-05   -0.46761E-08   868   0.551E-04    0.337E-05
RMM:  19    -0.413171127093E+03    0.60969E-06   -0.23470E-08   721   0.525E-04
   19 T=    62. E= -.41286714E+03 F= -.41317113E+03 E0= -.41314905E+03  EK= 0.30399E+00 SP= 0.00E+00 SK= 0.00E+00
       N       E                     dE             d eps       ncg     rms          rms(c)
RMM:   1    -0.413181874788E+03   -0.10747E-01   -0.61677E+00  4297   0.557E-01    0.921E-01
RMM:   2    -0.413178514021E+03    0.33608E-02   -0.81103E-02  4266   0.746E-02    0.663E-01
RMM:   3    -0.413176364290E+03    0.21497E-02   -0.50401E-02  5095   0.820E-02    0.332E-01
RMM:   4    -0.413192193613E+03   -0.15829E-01   -0.30411E-02  5083   0.149E-01    0.606E-01
RMM:   5    -0.413171428778E+03    0.20765E-01   -0.99874E-03  4686   0.101E-01    0.451E-02
RMM:   6    -0.413171546234E+03   -0.11746E-03   -0.17029E-03  5629   0.397E-02    0.313E-02
RMM:   7    -0.413171547045E+03   -0.81136E-06   -0.29739E-04  5509   0.169E-02    0.212E-02
RMM:   8    -0.413171541988E+03    0.50567E-05   -0.41598E-05  4898   0.815E-03    0.786E-03
RMM:   9    -0.413171539654E+03    0.23346E-05   -0.87864E-06  3187   0.343E-03    0.459E-03
RMM:  10    -0.413171538121E+03    0.15325E-05   -0.15285E-06  2532   0.202E-03    0.277E-03
RMM:  11    -0.413171536509E+03    0.16125E-05   -0.79533E-07  2478   0.140E-03    0.147E-03
RMM:  12    -0.413171533136E+03    0.33727E-05   -0.95436E-07  2492   0.144E-03    0.799E-04
RMM:  13    -0.413171530657E+03    0.24789E-05   -0.39416E-07  2097   0.101E-03    0.522E-04
RMM:  14    -0.413171529890E+03    0.76715E-06   -0.17711E-07  1502   0.739E-04
   20 T=    62. E= -.41286690E+03 F= -.41317153E+03 E0= -.41314950E+03  EK= 0.30463E+00 SP= 0.00E+00 SK= 0.00E+00
       N       E                     dE             d eps       ncg     rms          rms(c)
RMM:   1    -0.413182699877E+03   -0.11169E-01   -0.62654E+00  4294   0.567E-01    0.915E-01
RMM:   2    -0.413179881519E+03    0.28184E-02   -0.81664E-02  4267   0.751E-02    0.668E-01
RMM:   3    -0.413177339363E+03    0.25422E-02   -0.53856E-02  5085   0.811E-02    0.348E-01
RMM:   4    -0.413193819064E+03   -0.16480E-01   -0.29946E-02  5083   0.148E-01    0.617E-01
RMM:   5    -0.413172559724E+03    0.21259E-01   -0.10827E-02  4696   0.103E-01    0.444E-02
RMM:   6    -0.413172681937E+03   -0.12221E-03   -0.17447E-03  5664   0.400E-02    0.303E-02
RMM:   7    -0.413172685809E+03   -0.38725E-05   -0.30113E-04  5523   0.168E-02    0.205E-02
RMM:   8    -0.413172684467E+03    0.13424E-05   -0.41355E-05  4866   0.805E-03    0.764E-03
RMM:   9    -0.413172684115E+03    0.35151E-06   -0.85507E-06  3222   0.348E-03
   21 T=    62. E= -.41286707E+03 F= -.41317268E+03 E0= -.41315070E+03  EK= 0.30562E+00 SP= 0.00E+00 SK= 0.00E+00
       N       E                     dE             d eps       ncg     rms          rms(c)
RMM:   1    -0.413184304520E+03   -0.11620E-01   -0.62623E+00  4302   0.568E-01    0.930E-01
RMM:   2    -0.413180895520E+03    0.34090E-02   -0.82105E-02  4339   0.765E-02    0.671E-01
RMM:   3    -0.413186098443E+03   -0.52029E-02   -0.56290E-02  5144   0.115E-01    0.490E-01
RMM:   4    -0.413185516917E+03    0.58153E-03   -0.29574E-02  5022   0.151E-01    0.473E-01
RMM:   5    -0.413173773905E+03    0.11743E-01   -0.60242E-03  4508   0.802E-02    0.441E-02
RMM:   6    -0.413173796429E+03   -0.22524E-04   -0.89201E-04  5342   0.285E-02    0.289E-02
RMM:   7    -0.413173799279E+03   -0.28499E-05   -0.18495E-04  5253   0.139E-02    0.175E-02
RMM:   8    -0.413173796260E+03    0.30189E-05   -0.28284E-05  4533   0.718E-03    0.528E-03
RMM:   9    -0.413173794308E+03    0.19518E-05   -0.38132E-06  2718   0.250E-03    0.294E-03
RMM:  10    -0.413173792073E+03    0.22349E-05   -0.10273E-06  2488   0.158E-03    0.170E-03
RMM:  11    -0.413173789740E+03    0.23338E-05   -0.59844E-07  2136   0.114E-03    0.802E-04
RMM:  12    -0.413173785503E+03    0.42362E-05   -0.59029E-07  2235   0.107E-03    0.466E-04
RMM:  13    -0.413173781604E+03    0.38993E-05   -0.28406E-07  1533   0.801E-04    0.286E-04
RMM:  14    -0.413173778331E+03    0.32728E-05   -0.16255E-07  1208   0.686E-04    0.165E-04
RMM:  15    -0.413173772559E+03    0.57726E-05   -0.18837E-07  1312   0.714E-04    0.252E-04
RMM:  16    -0.413173766413E+03    0.61454E-05   -0.15994E-07  1207   0.663E-04    0.147E-04
RMM:  17    -0.413173765316E+03    0.10970E-05   -0.57414E-08   836   0.557E-04    0.107E-04
RMM:  18    -0.413173763379E+03    0.19372E-05   -0.42761E-08   862   0.557E-04    0.474E-05
RMM:  19    -0.413173762267E+03    0.11122E-05   -0.30274E-08   815   0.542E-04    0.259E-05
RMM:  20    -0.413173761998E+03    0.26928E-06   -0.12971E-08   618   0.512E-04
   22 T=    62. E= -.41286711E+03 F= -.41317376E+03 E0= -.41315182E+03  EK= 0.30665E+00 SP= 0.00E+00 SK= 0.00E+00
       N       E                     dE             d eps       ncg     rms          rms(c)
RMM:   1    -0.413185039555E+03   -0.11277E-01   -0.62372E+00  4292   0.568E-01    0.930E-01
RMM:   2    -0.413181597056E+03    0.34425E-02   -0.82267E-02  4279   0.775E-02    0.667E-01
RMM:   3    -0.413178660110E+03    0.29369E-02   -0.49672E-02  5032   0.827E-02    0.310E-01
RMM:   4    -0.413196909970E+03   -0.18250E-01   -0.30902E-02  5084   0.150E-01    0.629E-01
RMM:   5    -0.413174397331E+03    0.22513E-01   -0.10740E-02  4708   0.105E-01    0.453E-02
RMM:   6    -0.413174530185E+03   -0.13285E-03   -0.18527E-03  5677   0.417E-02    0.321E-02
RMM:   7    -0.413174519441E+03    0.10744E-04   -0.31909E-04  5514   0.176E-02    0.218E-02
RMM:   8    -0.413174512292E+03    0.71486E-05   -0.45613E-05  4974   0.822E-03    0.853E-03
RMM:   9    -0.413174508584E+03    0.37087E-05   -0.97193E-06  3336   0.357E-03    0.505E-03
RMM:  10    -0.413174505998E+03    0.25858E-05   -0.15663E-06  2533   0.207E-03    0.304E-03
RMM:  11    -0.413174503573E+03    0.24252E-05   -0.86195E-07  2494   0.146E-03    0.160E-03
RMM:  12    -0.413174498873E+03    0.46998E-05   -0.10691E-06  2500   0.153E-03    0.844E-04
RMM:  13    -0.413174495450E+03    0.34227E-05   -0.44507E-07  2173   0.106E-03    0.581E-04
RMM:  14    -0.413174495008E+03    0.44161E-06   -0.18550E-07  1538   0.749E-04
   23 T=    63. E= -.41286682E+03 F= -.41317450E+03 E0= -.41315260E+03  EK= 0.30768E+00 SP= 0.00E+00 SK= 0.00E+00
       N       E                     dE             d eps       ncg     rms          rms(c)
RMM:   1    -0.413186181851E+03   -0.11686E-01   -0.63075E+00  4294   0.577E-01    0.917E-01
RMM:   2    -0.413183520711E+03    0.26611E-02   -0.82544E-02  4289   0.795E-02    0.669E-01
RMM:   3    -0.413180187578E+03    0.33331E-02   -0.52984E-02  5004   0.843E-02    0.325E-01
RMM:   4    -0.413198821259E+03   -0.18634E-01   -0.29839E-02  5082   0.148E-01    0.635E-01
RMM:   5    -0.413175987738E+03    0.22834E-01   -0.11463E-02  4725   0.107E-01    0.444E-02
RMM:   6    -0.413176118728E+03   -0.13099E-03   -0.19044E-03  5710   0.420E-02    0.308E-02
RMM:   7    -0.413176117210E+03    0.15186E-05   -0.32224E-04  5530   0.176E-02    0.212E-02
RMM:   8    -0.413176113712E+03    0.34978E-05   -0.47239E-05  4880   0.855E-03    0.845E-03
RMM:   9    -0.413176112432E+03    0.12801E-05   -0.10443E-05  3388   0.373E-03    0.523E-03
RMM:  10    -0.413176112767E+03   -0.33548E-06   -0.16012E-06  2534   0.209E-03
   24 T=    63. E= -.41286707E+03 F= -.41317611E+03 E0= -.41315427E+03  EK= 0.30904E+00 SP= 0.00E+00 SK= 0.00E+00
       N       E                     dE             d eps       ncg     rms          rms(c)
RMM:   1    -0.413187564296E+03   -0.11452E-01   -0.63542E+00  4302   0.580E-01    0.931E-01
RMM:   2    -0.413184602770E+03    0.29615E-02   -0.83318E-02  4320   0.816E-02    0.675E-01
RMM:   3    -0.413185514423E+03   -0.91165E-03   -0.54817E-02  5082   0.105E-01    0.419E-01
RMM:   4    -0.413193163310E+03   -0.76489E-02   -0.29592E-02  5042   0.150E-01    0.544E-01
RMM:   5    -0.413177104296E+03    0.16059E-01   -0.78526E-03  4603   0.902E-02    0.447E-02
RMM:   6    -0.413177174966E+03   -0.70670E-04   -0.13228E-03  5552   0.341E-02    0.296E-02
RMM:   7    -0.413177171019E+03    0.39469E-05   -0.24025E-04  5414   0.152E-02    0.193E-02
RMM:   8    -0.413177166266E+03    0.47531E-05   -0.33704E-05  4727   0.725E-03    0.645E-03
RMM:   9    -0.413177164523E+03    0.17431E-05   -0.57562E-06  2911   0.286E-03    0.367E-03
RMM:  10    -0.413177162971E+03    0.15521E-05   -0.11754E-06  2507   0.177E-03    0.222E-03
RMM:  11    -0.413177161216E+03    0.17549E-05   -0.65312E-07  2359   0.126E-03    0.113E-03
RMM:  12    -0.413177157546E+03    0.36698E-05   -0.70770E-07  2429   0.122E-03    0.595E-04
RMM:  13    -0.413177154889E+03    0.26574E-05   -0.29935E-07  1809   0.879E-04    0.401E-04
RMM:  14    -0.413177152788E+03    0.21006E-05   -0.15000E-07  1291   0.698E-04    0.216E-04
RMM:  15    -0.413177147893E+03    0.48948E-05   -0.15981E-07  1361   0.715E-04    0.248E-04
RMM:  16    -0.413177141700E+03    0.61935E-05   -0.15847E-07  1250   0.679E-04    0.208E-04
RMM:  17    -0.413177139905E+03    0.17948E-05   -0.61445E-08   968   0.579E-04    0.155E-04
RMM:  18    -0.413177137014E+03    0.28905E-05   -0.47905E-08   940   0.575E-04    0.687E-05
RMM:  19    -0.413177135921E+03    0.10936E-05   -0.28683E-08   845   0.552E-04    0.252E-05
RMM:  20    -0.413177135423E+03    0.49820E-06   -0.15902E-08   725   0.533E-04
   25 T=    63. E= -.41286691E+03 F= -.41317714E+03 E0= -.41315534E+03  EK= 0.31022E+00 SP= 0.00E+00 SK= 0.00E+00
       N       E                     dE             d eps       ncg     rms          rms(c)
RMM:   1    -0.413189372099E+03   -0.12236E-01   -0.63281E+00  4292   0.583E-01    0.940E-01
RMM:   2    -0.413185725184E+03    0.36469E-02   -0.83820E-02  4291   0.798E-02    0.673E-01
RMM:   3    -0.413182430063E+03    0.32951E-02   -0.49414E-02  5021   0.847E-02    0.300E-01
RMM:   4    -0.413202146923E+03   -0.19717E-01   -0.31439E-02  5084   0.151E-01    0.643E-01
RMM:   5    -0.413178452280E+03    0.23695E-01   -0.11234E-02  4720   0.108E-01    0.458E-02
RMM:   6    -0.413178589778E+03   -0.13750E-03   -0.19681E-03  5721   0.427E-02    0.326E-02
RMM:   7    -0.413178581190E+03    0.85882E-05   -0.33185E-04  5511   0.180E-02    0.224E-02
RMM:   8    -0.413178573728E+03    0.74619E-05   -0.48145E-05  4976   0.851E-03    0.903E-03
RMM:   9    -0.413178569453E+03    0.42749E-05   -0.10194E-05  3442   0.375E-03    0.534E-03
RMM:  10    -0.413178566189E+03    0.32647E-05   -0.16703E-06  2537   0.213E-03    0.320E-03
RMM:  11    -0.413178563277E+03    0.29120E-05   -0.91714E-07  2497   0.151E-03    0.171E-03
RMM:  12    -0.413178557771E+03    0.55055E-05   -0.12133E-06  2510   0.161E-03    0.899E-04
RMM:  13    -0.413178553965E+03    0.38059E-05   -0.47826E-07  2212   0.110E-03    0.630E-04
RMM:  14    -0.413178553578E+03    0.38702E-06   -0.19304E-07  1567   0.763E-04
   26 T=    63. E= -.41286701E+03 F= -.41317855E+03 E0= -.41315681E+03  EK= 0.31154E+00 SP= 0.00E+00 SK= 0.00E+00
       N       E                     dE             d eps       ncg     rms          rms(c)
RMM:   1    -0.413190803196E+03   -0.12249E-01   -0.63638E+00  4294   0.598E-01    0.921E-01
RMM:   2    -0.413187768990E+03    0.30342E-02   -0.83599E-02  4286   0.815E-02    0.671E-01
RMM:   3    -0.413183995211E+03    0.37738E-02   -0.51754E-02  5014   0.808E-02    0.308E-01
RMM:   4    -0.413204104311E+03   -0.20109E-01   -0.30226E-02  5092   0.149E-01    0.647E-01
RMM:   5    -0.413180245772E+03    0.23859E-01   -0.11729E-02  4734   0.109E-01    0.448E-02
RMM:   6    -0.413180393994E+03   -0.14822E-03   -0.19778E-03  5761   0.425E-02    0.311E-02
RMM:   7    -0.413180395464E+03   -0.14693E-05   -0.32512E-04  5548   0.178E-02    0.217E-02
RMM:   8    -0.413180391259E+03    0.42051E-05   -0.49732E-05  4922   0.845E-03    0.906E-03
RMM:   9    -0.413180389425E+03    0.18339E-05   -0.10116E-05  3449   0.377E-03    0.554E-03
RMM:  10    -0.413180388520E+03    0.90498E-06   -0.16536E-06  2533   0.212E-03
   27 T=    64. E= -.41286730E+03 F= -.41318039E+03 E0= -.41315869E+03  EK= 0.31309E+00 SP= 0.00E+00 SK= 0.00E+00
       N       E                     dE             d eps       ncg     rms          rms(c)
RMM:   1    -0.413192683559E+03   -0.12294E-01   -0.64668E+00  4300   0.609E-01    0.930E-01
RMM:   2    -0.413189000526E+03    0.36830E-02   -0.88643E-02  4316   0.854E-02    0.681E-01
RMM:   3    -0.413189419048E+03   -0.41852E-03   -0.54730E-02  5100   0.101E-01    0.412E-01
RMM:   4    -0.413199909522E+03   -0.10490E-01   -0.32335E-02  5045   0.156E-01    0.581E-01
RMM:   5    -0.413181492051E+03    0.18417E-01   -0.90196E-03  4639   0.975E-02    0.458E-02
RMM:   6    -0.413181558788E+03   -0.66736E-04   -0.14683E-03  5603   0.364E-02    0.296E-02
RMM:   7    -0.413181557674E+03    0.11135E-05   -0.25782E-04  5473   0.158E-02    0.196E-02
RMM:   8    -0.413181556485E+03    0.11896E-05   -0.37551E-05  4788   0.784E-03    0.672E-03
RMM:   9    -0.413181555076E+03    0.14081E-05   -0.69423E-06  3005   0.316E-03    0.381E-03
RMM:  10    -0.413181553969E+03    0.11077E-05   -0.13379E-06  2514   0.188E-03    0.235E-03
RMM:  11    -0.413181552486E+03    0.14832E-05   -0.74657E-07  2398   0.133E-03    0.119E-03
RMM:  12    -0.413181549229E+03    0.32568E-05   -0.74694E-07  2435   0.126E-03    0.599E-04
RMM:  13    -0.413181546770E+03    0.24588E-05   -0.31190E-07  1866   0.899E-04    0.406E-04
RMM:  14    -0.413181544862E+03    0.19080E-05   -0.15633E-07  1315   0.707E-04    0.225E-04
RMM:  15    -0.413181539967E+03    0.48950E-05   -0.17024E-07  1412   0.726E-04    0.259E-04
RMM:  16    -0.413181534130E+03    0.58373E-05   -0.14964E-07  1240   0.672E-04    0.213E-04
RMM:  17    -0.413181532100E+03    0.20292E-05   -0.62146E-08   946   0.583E-04    0.148E-04
RMM:  18    -0.413181529207E+03    0.28938E-05   -0.52436E-08  1028   0.587E-04    0.685E-05
RMM:  19    -0.413181527853E+03    0.13537E-05   -0.31373E-08   882   0.555E-04    0.269E-05
RMM:  20    -0.413181527451E+03    0.40217E-06   -0.14568E-08   711   0.529E-04
   28 T=    64. E= -.41286696E+03 F= -.41318153E+03 E0= -.41315988E+03  EK= 0.31457E+00 SP= 0.00E+00 SK= 0.00E+00
       N       E                     dE             d eps       ncg     rms          rms(c)
RMM:   1    -0.413194537225E+03   -0.13009E-01   -0.64356E+00  4292   0.603E-01    0.947E-01
RMM:   2    -0.413190924016E+03    0.36132E-02   -0.85578E-02  4284   0.851E-02    0.679E-01
RMM:   3    -0.413186782022E+03    0.41420E-02   -0.49192E-02  5018   0.769E-02    0.278E-01
RMM:   4    -0.413208888384E+03   -0.22106E-01   -0.31731E-02  5098   0.151E-01    0.664E-01
RMM:   5    -0.413183433108E+03    0.25455E-01   -0.12190E-02  4741   0.112E-01    0.460E-02
RMM:   6    -0.413183571963E+03   -0.13886E-03   -0.21589E-03  5786   0.442E-02    0.328E-02
RMM:   7    -0.413183576698E+03   -0.47347E-05   -0.34190E-04  5535   0.184E-02    0.227E-02
RMM:   8    -0.413183573605E+03    0.30928E-05   -0.53994E-05  4959   0.888E-03    0.997E-03
RMM:   9    -0.413183570027E+03    0.35777E-05   -0.11339E-05  3586   0.405E-03    0.601E-03
RMM:  10    -0.413183566842E+03    0.31855E-05   -0.19912E-06  2569   0.229E-03    0.356E-03
RMM:  11    -0.413183563705E+03    0.31365E-05   -0.10699E-06  2499   0.164E-03    0.187E-03
RMM:  12    -0.413183558214E+03    0.54910E-05   -0.14035E-06  2531   0.174E-03    0.102E-03
RMM:  13    -0.413183555080E+03    0.31342E-05   -0.48337E-07  2278   0.116E-03    0.687E-04
RMM:  14    -0.413183554451E+03    0.62899E-06   -0.20710E-07  1666   0.789E-04
   29 T=    64. E= -.41286714E+03 F= -.41318355E+03 E0= -.41316196E+03  EK= 0.31642E+00 SP= 0.00E+00 SK= 0.00E+00
       N       E                     dE             d eps       ncg     rms          rms(c)
RMM:   1    -0.413195802994E+03   -0.12248E-01   -0.64455E+00  4297   0.614E-01    0.929E-01
RMM:   2    -0.413192997171E+03    0.28058E-02   -0.85410E-02  4276   0.878E-02    0.675E-01
RMM:   3    -0.413188199141E+03    0.47980E-02   -0.50545E-02  4962   0.767E-02    0.277E-01
RMM:   4    -0.413210046085E+03   -0.21847E-01   -0.29382E-02  5110   0.146E-01    0.655E-01
RMM:   5    -0.413185282181E+03    0.24764E-01   -0.12186E-02  4749   0.111E-01    0.446E-02
RMM:   6    -0.413185431959E+03   -0.14978E-03   -0.21266E-03  5827   0.433E-02    0.312E-02
RMM:   7    -0.413185447558E+03   -0.15599E-04   -0.31296E-04  5553   0.180E-02    0.214E-02
RMM:   8    -0.413185444665E+03    0.28938E-05   -0.56217E-05  4875   0.898E-03    0.101E-02
RMM:   9    -0.413185441402E+03    0.32629E-05   -0.12128E-05  3660   0.419E-03    0.629E-03
RMM:  10    -0.413185439146E+03    0.22562E-05   -0.20622E-06  2571   0.237E-03    0.370E-03
RMM:  11    -0.413185436350E+03    0.27960E-05   -0.12479E-06  2510   0.177E-03    0.185E-03
RMM:  12    -0.413185431946E+03    0.44038E-05   -0.13426E-06  2519   0.174E-03    0.107E-03
RMM:  13    -0.413185429665E+03    0.22803E-05   -0.42654E-07  2236   0.113E-03    0.655E-04
RMM:  14    -0.413185428772E+03    0.89306E-06   -0.19488E-07  1611   0.778E-04
   30 T=    65. E= -.41286715E+03 F= -.41318543E+03 E0= -.41316388E+03  EK= 0.31828E+00 SP= 0.00E+00 SK= 0.00E+00
       N       E                     dE             d eps       ncg     rms          rms(c)
RMM:   1    -0.413197582888E+03   -0.12153E-01   -0.65789E+00  4300   0.626E-01    0.935E-01
RMM:   2    -0.413195076912E+03    0.25060E-02   -0.87905E-02  4279   0.951E-02    0.685E-01
RMM:   3    -0.413189829728E+03    0.52472E-02   -0.53454E-02  4902   0.819E-02    0.291E-01
RMM:   4    -0.413210840290E+03   -0.21011E-01   -0.27992E-02  5115   0.143E-01    0.646E-01
RMM:   5    -0.413186857338E+03    0.23983E-01   -0.11985E-02  4763   0.108E-01    0.439E-02
RMM:   6    -0.413187006779E+03   -0.14944E-03   -0.20359E-03  5848   0.422E-02    0.301E-02
RMM:   7    -0.413187020441E+03   -0.13663E-04   -0.29451E-04  5563   0.172E-02    0.203E-02
RMM:   8    -0.413187019974E+03    0.46712E-06   -0.54474E-05  4915   0.850E-03    0.961E-03
RMM:   9    -0.413187017828E+03    0.21458E-05   -0.10849E-05  3647   0.404E-03    0.606E-03
RMM:  10    -0.413187017765E+03    0.63184E-07   -0.18717E-06  2551   0.227E-03
   31 T=    65. E= -.41286691E+03 F= -.41318702E+03 E0= -.41316552E+03  EK= 0.32010E+00 SP= 0.00E+00 SK= 0.00E+00
       N       E                     dE             d eps       ncg     rms          rms(c)
RMM:   1    -0.413201906484E+03   -0.14889E-01   -0.65735E+00  4303   0.660E-01    0.952E-01
RMM:   2    -0.413197418661E+03    0.44878E-02   -0.91522E-02  4297   0.103E-01    0.686E-01
RMM:   3    -0.413195764835E+03    0.16538E-02   -0.51000E-02  5024   0.104E-01    0.356E-01
RMM:   4    -0.413211472406E+03   -0.15708E-01   -0.33704E-02  5058   0.158E-01    0.621E-01
RMM:   5    -0.413189493684E+03    0.21979E-01   -0.10017E-02  4681   0.103E-01    0.471E-02
RMM:   6    -0.413189602508E+03   -0.10882E-03   -0.18290E-03  5700   0.400E-02    0.323E-02
RMM:   7    -0.413189610953E+03   -0.84453E-05   -0.30853E-04  5480   0.174E-02    0.219E-02
RMM:   8    -0.413189607057E+03    0.38965E-05   -0.45034E-05  4948   0.834E-03    0.837E-03
RMM:   9    -0.413189602884E+03    0.41724E-05   -0.93039E-06  3207   0.357E-03    0.456E-03
RMM:  10    -0.413189598356E+03    0.45285E-05   -0.16432E-06  2542   0.212E-03    0.278E-03
RMM:  11    -0.413189594101E+03    0.42550E-05   -0.87945E-07  2485   0.148E-03    0.146E-03
RMM:  12    -0.413189586542E+03    0.75584E-05   -0.93325E-07  2479   0.144E-03    0.713E-04
RMM:  13    -0.413189582601E+03    0.39415E-05   -0.39604E-07  2095   0.102E-03    0.524E-04
RMM:  14    -0.413189580113E+03    0.24879E-05   -0.19284E-07  1560   0.763E-04    0.313E-04
RMM:  15    -0.413189573146E+03    0.69674E-05   -0.17490E-07  1567   0.751E-04    0.291E-04
RMM:  16    -0.413189565623E+03    0.75230E-05   -0.13092E-07  1300   0.664E-04    0.275E-04
RMM:  17    -0.413189561224E+03    0.43982E-05   -0.75858E-08  1036   0.591E-04    0.186E-04
RMM:  18    -0.413189557368E+03    0.38568E-05   -0.62225E-08  1102   0.598E-04    0.483E-05
RMM:  19    -0.413189556152E+03    0.12153E-05   -0.32166E-08   876   0.554E-04    0.468E-05
RMM:  20    -0.413189555648E+03    0.50380E-06   -0.18664E-08   761   0.533E-04
   32 T=    66. E= -.41286727E+03 F= -.41318956E+03 E0= -.41316811E+03  EK= 0.32228E+00 SP= 0.00E+00 SK= 0.00E+00
       N       E                     dE             d eps       ncg     rms          rms(c)
RMM:   1    -0.413205399956E+03   -0.15844E-01   -0.65913E+00  4299   0.684E-01    0.938E-01
RMM:   2    -0.413199180426E+03    0.62195E-02   -0.97144E-02  4270   0.104E-01    0.682E-01
RMM:   3    -0.413193255401E+03    0.59250E-02   -0.47087E-02  4783   0.832E-02    0.226E-01
RMM:   4    -0.413216128093E+03   -0.22873E-01   -0.27117E-02  5119   0.141E-01    0.654E-01
RMM:   5    -0.413191191367E+03    0.24937E-01   -0.12242E-02  4776   0.109E-01    0.442E-02
RMM:   6    -0.413191355663E+03   -0.16430E-03   -0.21213E-03  5839   0.429E-02    0.311E-02
RMM:   7    -0.413191379644E+03   -0.23980E-04   -0.25729E-04  5551   0.170E-02    0.186E-02
RMM:   8    -0.413191380946E+03   -0.13023E-05   -0.57550E-05  4944   0.835E-03    0.105E-02
RMM:   9    -0.413191376368E+03    0.45782E-05   -0.12727E-05  3915   0.425E-03    0.675E-03
RMM:  10    -0.413191374449E+03    0.19182E-05   -0.21727E-06  2588   0.249E-03    0.394E-03
RMM:  11    -0.413191371830E+03    0.26191E-05   -0.14666E-06  2524   0.191E-03    0.202E-03
RMM:  12    -0.413191367522E+03    0.43081E-05   -0.14726E-06  2516   0.188E-03    0.116E-03
RMM:  13    -0.413191365464E+03    0.20584E-05   -0.46080E-07  2290   0.119E-03    0.723E-04
RMM:  14    -0.413191364618E+03    0.84600E-06   -0.20955E-07  1736   0.804E-04
   33 T=    66. E= -.41286708E+03 F= -.41319136E+03 E0= -.41316996E+03  EK= 0.32429E+00 SP= 0.00E+00 SK= 0.00E+00
       N       E                     dE             d eps       ncg     rms          rms(c)
RMM:   1    -0.413204854679E+03   -0.13489E-01   -0.67000E+00  4307   0.668E-01    0.938E-01
RMM:   2    -0.413201592005E+03    0.32627E-02   -0.92844E-02  4265   0.105E-01    0.690E-01
RMM:   3    -0.413195690804E+03    0.59012E-02   -0.52791E-02  4685   0.845E-02    0.259E-01
RMM:   4    -0.413210016206E+03   -0.14325E-01   -0.18195E-02  5122   0.116E-01    0.534E-01
RMM:   5    -0.413193631241E+03    0.16385E-01   -0.81292E-03  4792   0.889E-02    0.401E-02
RMM:   6    -0.413193735899E+03   -0.10466E-03   -0.14264E-03  5841   0.348E-02    0.270E-02
RMM:   7    -0.413193751414E+03   -0.15515E-04   -0.15231E-04  5370   0.139E-02    0.138E-02
RMM:   8    -0.413193749566E+03    0.18488E-05   -0.25691E-05  4325   0.552E-03    0.705E-03
RMM:   9    -0.413193751457E+03   -0.18911E-05   -0.74822E-06  3287   0.325E-03    0.517E-03
RMM:  10    -0.413193749910E+03    0.15464E-05   -0.13877E-06  2535   0.200E-03    0.322E-03
RMM:  11    -0.413193748679E+03    0.12311E-05   -0.17284E-06  2539   0.195E-03    0.167E-03
RMM:  12    -0.413193746601E+03    0.20787E-05   -0.10488E-06  2444   0.155E-03    0.129E-03
RMM:  13    -0.413193745374E+03    0.12269E-05   -0.30307E-07  2116   0.974E-04    0.602E-04
RMM:  14    -0.413193744275E+03    0.10987E-05   -0.14206E-07  1401   0.700E-04    0.400E-04
RMM:  15    -0.413193738976E+03    0.52991E-05   -0.27710E-07  2209   0.874E-04    0.652E-04
RMM:  16    -0.413193737444E+03    0.15320E-05   -0.66472E-08  1055   0.585E-04    0.461E-04
RMM:  17    -0.413193732971E+03    0.44731E-05   -0.68097E-08   932   0.586E-04    0.272E-04
RMM:  18    -0.413193730396E+03    0.25748E-05   -0.47561E-08  1000   0.586E-04    0.654E-05
RMM:  19    -0.413193727554E+03    0.28413E-05   -0.46429E-08  1138   0.596E-04    0.188E-04
RMM:  20    -0.413193727121E+03    0.43377E-06   -0.14698E-08   717   0.515E-04
   34 T=    66. E= -.41286720E+03 F= -.41319373E+03 E0= -.41317237E+03  EK= 0.32653E+00 SP= 0.00E+00 SK= 0.00E+00
       N       E                     dE             d eps       ncg     rms          rms(c)
RMM:   1    -0.413208563806E+03   -0.14836E-01   -0.67128E+00  4305   0.683E-01    0.960E-01
RMM:   2    -0.413203846850E+03    0.47170E-02   -0.91511E-02  4268   0.115E-01    0.692E-01
RMM:   3    -0.413198033074E+03    0.58138E-02   -0.49909E-02  4625   0.901E-02    0.223E-01
RMM:   4    -0.413212019877E+03   -0.13987E-01   -0.16747E-02  5125   0.112E-01    0.521E-01
RMM:   5    -0.413196397802E+03    0.15622E-01   -0.77808E-03  4796   0.865E-02    0.404E-02
RMM:   6    -0.413196493947E+03   -0.96146E-04   -0.13423E-03  5818   0.342E-02    0.281E-02
RMM:   7    -0.413196514803E+03   -0.20856E-04   -0.20208E-04  5442   0.155E-02    0.176E-02
RMM:   8    -0.413196503501E+03    0.11303E-04   -0.36990E-05  4777   0.703E-03    0.834E-03
RMM:   9    -0.413196502963E+03    0.53770E-06   -0.85422E-06  3430   0.365E-03
   35 T=    67. E= -.41286754E+03 F= -.41319650E+03 E0= -.41317520E+03  EK= 0.32897E+00 SP= 0.00E+00 SK= 0.00E+00
       N       E                     dE             d eps       ncg     rms          rms(c)
RMM:   1    -0.413209619139E+03   -0.13116E-01   -0.67014E+00  4307   0.701E-01    0.957E-01
RMM:   2    -0.413205840313E+03    0.37788E-02   -0.91970E-02  4295   0.119E-01    0.689E-01
RMM:   3    -0.413202931624E+03    0.29087E-02   -0.50863E-02  4933   0.111E-01    0.311E-01
RMM:   4    -0.413224303868E+03   -0.21372E-01   -0.34080E-02  5076   0.158E-01    0.670E-01
RMM:   5    -0.413198410315E+03    0.25894E-01   -0.12093E-02  4718   0.112E-01    0.472E-02
RMM:   6    -0.413198554943E+03   -0.14463E-03   -0.22396E-03  5794   0.437E-02    0.330E-02
RMM:   7    -0.413198566541E+03   -0.11598E-04   -0.31736E-04  5539   0.178E-02    0.223E-02
RMM:   8    -0.413198563103E+03    0.34376E-05   -0.65556E-05  4997   0.936E-03    0.109E-02
RMM:   9    -0.413198556386E+03    0.67173E-05   -0.12274E-05  3709   0.441E-03    0.576E-03
RMM:  10    -0.413198551250E+03    0.51361E-05   -0.22963E-06  2631   0.246E-03    0.340E-03
RMM:  11    -0.413198546588E+03    0.46618E-05   -0.10643E-06  2497   0.169E-03    0.185E-03
RMM:  12    -0.413198537512E+03    0.90761E-05   -0.13360E-06  2502   0.179E-03    0.105E-03
RMM:  13    -0.413198532657E+03    0.48551E-05   -0.49680E-07  2305   0.120E-03    0.746E-04
RMM:  14    -0.413198531159E+03    0.14979E-05   -0.22242E-07  1767   0.822E-04    0.461E-04
RMM:  15    -0.413198524444E+03    0.67147E-05   -0.19206E-07  1795   0.795E-04    0.363E-04
RMM:  16    -0.413198516196E+03    0.82480E-05   -0.15785E-07  1620   0.720E-04    0.510E-04
RMM:  17    -0.413198510510E+03    0.56864E-05   -0.81888E-08  1081   0.596E-04    0.421E-04
RMM:  18    -0.413198506379E+03    0.41311E-05   -0.61315E-08  1024   0.588E-04    0.148E-04
RMM:  19    -0.413198503700E+03    0.26788E-05   -0.61897E-08  1281   0.619E-04    0.218E-04
RMM:  20    -0.413198503684E+03    0.16455E-07   -0.19550E-08   714   0.509E-04
   36 T=    67. E= -.41286720E+03 F= -.41319850E+03 E0= -.41317724E+03  EK= 0.33131E+00 SP= 0.00E+00 SK= 0.00E+00
       N       E                     dE             d eps       ncg     rms          rms(c)
RMM:   1    -0.413212700904E+03   -0.14197E-01   -0.68236E+00  4311   0.722E-01    0.946E-01
RMM:   2    -0.413209294204E+03    0.34067E-02   -0.95803E-02  4253   0.121E-01    0.695E-01
RMM:   3    -0.413202960836E+03    0.63334E-02   -0.52678E-02  4370   0.951E-02    0.233E-01
RMM:   4    -0.413202143162E+03    0.81767E-03   -0.28554E-03  4941   0.375E-02    0.103E-01
RMM:   5    -0.413201645556E+03    0.49761E-03   -0.35164E-04  4714   0.188E-02    0.374E-02
RMM:   6    -0.413201674427E+03   -0.28871E-04   -0.34401E-04  5261   0.180E-02    0.303E-02
RMM:   7    -0.413201680075E+03   -0.56486E-05   -0.15828E-04  4784   0.140E-02    0.201E-02
RMM:   8    -0.413201672274E+03    0.78010E-05   -0.29149E-05  4415   0.537E-03    0.553E-03
RMM:   9    -0.413201673205E+03   -0.93040E-06   -0.64168E-06  2480   0.229E-03
   37 T=    68. E= -.41286754E+03 F= -.41320167E+03 E0= -.41318045E+03  EK= 0.33414E+00 SP= 0.00E+00 SK= 0.00E+00
       N       E                     dE             d eps       ncg     rms          rms(c)
RMM:   1    -0.413215875050E+03   -0.14203E-01   -0.68879E+00  4312   0.746E-01    0.964E-01
RMM:   2    -0.413212178991E+03    0.36961E-02   -0.95866E-02  4261   0.116E-01    0.701E-01
RMM:   3    -0.413205462037E+03    0.67170E-02   -0.51358E-02  4388   0.878E-02    0.216E-01
RMM:   4    -0.413204259427E+03    0.12026E-02   -0.20494E-03  4576   0.296E-02    0.415E-02
RMM:   5    -0.413204347940E+03   -0.88513E-04   -0.32735E-04  4992   0.155E-02    0.515E-02
RMM:   6    -0.413204315383E+03    0.32557E-04   -0.22763E-04  5183   0.142E-02    0.403E-02
RMM:   7    -0.413204283342E+03    0.32042E-04   -0.18562E-04  4905   0.151E-02    0.233E-02
RMM:   8    -0.413204270847E+03    0.12494E-04   -0.32217E-05  4481   0.584E-03    0.757E-03
RMM:   9    -0.413204270414E+03    0.43389E-06   -0.13009E-05  2471   0.249E-03    0.406E-03
RMM:  10    -0.413204265457E+03    0.49567E-05   -0.16945E-06  2347   0.156E-03    0.165E-03
RMM:  11    -0.413204261574E+03    0.38824E-05   -0.65849E-07  1681   0.937E-04    0.532E-04
RMM:  12    -0.413204257643E+03    0.39315E-05   -0.18652E-07  1290   0.717E-04    0.356E-04
RMM:  13    -0.413204251456E+03    0.61868E-05   -0.17342E-07  1275   0.693E-04    0.283E-04
RMM:  14    -0.413204244520E+03    0.69359E-05   -0.14189E-07  1104   0.639E-04    0.178E-04
RMM:  15    -0.413204236745E+03    0.77754E-05   -0.92285E-08  1026   0.618E-04    0.116E-04
RMM:  16    -0.413204232088E+03    0.46570E-05   -0.52214E-08   951   0.578E-04    0.760E-05
RMM:  17    -0.413204230911E+03    0.11768E-05   -0.18493E-08   613   0.495E-04    0.521E-05
RMM:  18    -0.413204228509E+03    0.24014E-05   -0.21340E-08   717   0.515E-04    0.227E-05
RMM:  19    -0.413204228134E+03    0.37512E-06   -0.56471E-09   481   0.464E-04
   38 T=    69. E= -.41286732E+03 F= -.41320423E+03 E0= -.41318305E+03  EK= 0.33691E+00 SP= 0.00E+00 SK= 0.00E+00
       N       E                     dE             d eps       ncg     rms          rms(c)
RMM:   1    -0.413219282196E+03   -0.15054E-01   -0.68928E+00  4311   0.787E-01    0.974E-01
RMM:   2    -0.413214775123E+03    0.45071E-02   -0.96605E-02  4256   0.114E-01    0.699E-01
RMM:   3    -0.413208313529E+03    0.64616E-02   -0.49139E-02  4656   0.841E-02    0.201E-01
RMM:   4    -0.413221980594E+03   -0.13667E-01   -0.16338E-02  5130   0.109E-01    0.514E-01
RMM:   5    -0.413206965402E+03    0.15015E-01   -0.74741E-03  4796   0.857E-02    0.425E-02
RMM:   6    -0.413206985928E+03   -0.20526E-04   -0.13248E-03  5727   0.358E-02    0.315E-02
RMM:   7    -0.413207004184E+03   -0.18256E-04   -0.29190E-04  5440   0.173E-02    0.212E-02
RMM:   8    -0.413206992627E+03    0.11557E-04   -0.45321E-05  5035   0.780E-03    0.944E-03
RMM:   9    -0.413206991113E+03    0.15145E-05   -0.87828E-06  3208   0.354E-03    0.487E-03
RMM:  10    -0.413206988015E+03    0.30973E-05   -0.16462E-06  2529   0.213E-03    0.266E-03
RMM:  11    -0.413206984088E+03    0.39276E-05   -0.10508E-06  2492   0.161E-03    0.132E-03
RMM:  12    -0.413206979389E+03    0.46984E-05   -0.69245E-07  2386   0.132E-03    0.816E-04
RMM:  13    -0.413206976728E+03    0.26619E-05   -0.27870E-07  1986   0.917E-04    0.432E-04
RMM:  14    -0.413206974339E+03    0.23881E-05   -0.14580E-07  1362   0.711E-04    0.232E-04
RMM:  15    -0.413206968504E+03    0.58354E-05   -0.11715E-07  1280   0.696E-04    0.161E-04
RMM:  16    -0.413206964076E+03    0.44278E-05   -0.76393E-08  1100   0.638E-04    0.143E-04
RMM:  17    -0.413206959747E+03    0.43296E-05   -0.59961E-08  1096   0.618E-04    0.103E-04
RMM:  18    -0.413206955209E+03    0.45380E-05   -0.52808E-08  1152   0.609E-04    0.473E-05
RMM:  19    -0.413206954176E+03    0.10331E-05   -0.23679E-08   801   0.538E-04    0.222E-05
RMM:  20    -0.413206953605E+03    0.57054E-06   -0.15864E-08   713   0.526E-04
   39 T=    69. E= -.41286715E+03 F= -.41320695E+03 E0= -.41318581E+03  EK= 0.33980E+00 SP= 0.00E+00 SK= 0.00E+00
       N       E                     dE             d eps       ncg     rms          rms(c)
RMM:   1    -0.413222495729E+03   -0.15542E-01   -0.69775E+00  4314   0.815E-01    0.958E-01
RMM:   2    -0.413218372792E+03    0.41229E-02   -0.98938E-02  4257   0.115E-01    0.701E-01
RMM:   3    -0.413212216103E+03    0.61567E-02   -0.51975E-02  4741   0.895E-02    0.242E-01
RMM:   4    -0.413232366524E+03   -0.20150E-01   -0.24501E-02  5112   0.133E-01    0.621E-01
RMM:   5    -0.413210224148E+03    0.22142E-01   -0.10916E-02  4792   0.104E-01    0.447E-02
RMM:   6    -0.413210260970E+03   -0.36822E-04   -0.18495E-03  5766   0.413E-02    0.303E-02
RMM:   7    -0.413210291296E+03   -0.30326E-04   -0.31087E-04  5576   0.170E-02    0.204E-02
RMM:   8    -0.413210282434E+03    0.88617E-05   -0.57909E-05  5073   0.823E-03    0.101E-02
RMM:   9    -0.413210283184E+03   -0.74959E-06   -0.11613E-05  3717   0.416E-03    0.555E-03
RMM:  10    -0.413210282621E+03    0.56248E-06   -0.20764E-06  2589   0.229E-03
   40 T=    70. E= -.41286743E+03 F= -.41321028E+03 E0= -.41318918E+03  EK= 0.34285E+00 SP= 0.00E+00 SK= 0.00E+00
       N       E                     dE             d eps       ncg     rms          rms(c)
RMM:   1    -0.413225558147E+03   -0.15275E-01   -0.70953E+00  4316   0.845E-01    0.969E-01
RMM:   2    -0.413220963515E+03    0.45946E-02   -0.10423E-01  4295   0.116E-01    0.711E-01
RMM:   3    -0.413217431499E+03    0.35320E-02   -0.53275E-02  4997   0.103E-01    0.324E-01
RMM:   4    -0.413242646977E+03   -0.25215E-01   -0.39925E-02  5079   0.171E-01    0.723E-01
RMM:   5    -0.413212551917E+03    0.30095E-01   -0.13877E-02  4744   0.121E-01    0.499E-02
RMM:   6    -0.413212615746E+03   -0.63829E-04   -0.24396E-03  5764   0.463E-02    0.312E-02
RMM:   7    -0.413212637612E+03   -0.21867E-04   -0.31109E-04  5631   0.172E-02    0.204E-02
RMM:   8    -0.413212640255E+03   -0.26423E-05   -0.78293E-05  5109   0.919E-03    0.116E-02
RMM:   9    -0.413212633594E+03    0.66610E-05   -0.15202E-05  4123   0.481E-03    0.562E-03
RMM:  10    -0.413212631375E+03    0.22187E-05   -0.28463E-06  2688   0.251E-03    0.326E-03
RMM:  11    -0.413212628998E+03    0.23772E-05   -0.11369E-06  2499   0.171E-03    0.184E-03
RMM:  12    -0.413212623124E+03    0.58733E-05   -0.12654E-06  2508   0.168E-03    0.976E-04
RMM:  13    -0.413212618681E+03    0.44431E-05   -0.49945E-07  2290   0.116E-03    0.611E-04
RMM:  14    -0.413212617148E+03    0.15335E-05   -0.21558E-07  1684   0.798E-04    0.341E-04
RMM:  15    -0.413212610625E+03    0.65225E-05   -0.18280E-07  1543   0.768E-04    0.294E-04
RMM:  16    -0.413212604874E+03    0.57517E-05   -0.12466E-07  1387   0.684E-04    0.328E-04
RMM:  17    -0.413212601680E+03    0.31934E-05   -0.67792E-08  1058   0.589E-04    0.229E-04
RMM:  18    -0.413212596616E+03    0.50637E-05   -0.69558E-08  1254   0.619E-04    0.119E-04
RMM:  19    -0.413212594791E+03    0.18251E-05   -0.36802E-08   940   0.553E-04    0.483E-05
RMM:  20    -0.413212593734E+03    0.10574E-05   -0.23880E-08   844   0.539E-04    0.622E-05
RMM:  21    -0.413212593297E+03    0.43724E-06   -0.14505E-08   729   0.519E-04
   41 T=    70. E= -.41286714E+03 F= -.41321259E+03 E0= -.41319152E+03  EK= 0.34545E+00 SP= 0.00E+00 SK= 0.00E+00
       N       E                     dE             d eps       ncg     rms          rms(c)
RMM:   1    -0.413230544897E+03   -0.17951E-01   -0.70982E+00  4316   0.918E-01    0.986E-01
RMM:   2    -0.413223518323E+03    0.70266E-02   -0.10585E-01  4306   0.124E-01    0.710E-01
RMM:   3    -0.413217815921E+03    0.57024E-02   -0.48039E-02  4910   0.877E-02    0.230E-01
RMM:   4    -0.413247730248E+03   -0.29914E-01   -0.37048E-02  5106   0.163E-01    0.745E-01
RMM:   5    -0.413215359013E+03    0.32371E-01   -0.15360E-02  4775   0.124E-01    0.502E-02
RMM:   6    -0.413215438869E+03   -0.79856E-04   -0.26247E-03  5784   0.480E-02    0.317E-02
RMM:   7    -0.413215465645E+03   -0.26776E-04   -0.32418E-04  5697   0.170E-02    0.190E-02
RMM:   8    -0.413215462469E+03    0.31760E-05   -0.55165E-05  5028   0.771E-03    0.102E-02
RMM:   9    -0.413215462264E+03    0.20529E-06   -0.19377E-05  4454   0.482E-03    0.667E-03
RMM:  10    -0.413215457532E+03    0.47321E-05   -0.28004E-06  2639   0.270E-03    0.370E-03
RMM:  11    -0.413215454921E+03    0.26108E-05   -0.12156E-06  2490   0.181E-03    0.220E-03
RMM:  12    -0.413215448240E+03    0.66805E-05   -0.14008E-06  2499   0.189E-03    0.123E-03
RMM:  13    -0.413215444167E+03    0.40729E-05   -0.53488E-07  2360   0.128E-03    0.809E-04
RMM:  14    -0.413215442943E+03    0.12242E-05   -0.22074E-07  1853   0.847E-04    0.458E-04
RMM:  15    -0.413215439094E+03    0.38494E-05   -0.12512E-07  1399   0.713E-04    0.195E-04
RMM:  16    -0.413215433899E+03    0.51944E-05   -0.10544E-07  1482   0.692E-04    0.360E-04
RMM:  17    -0.413215431223E+03    0.26760E-05   -0.51483E-08  1002   0.580E-04    0.309E-04
RMM:  18    -0.413215424790E+03    0.64338E-05   -0.63764E-08  1246   0.621E-04    0.195E-04
RMM:  19    -0.413215423004E+03    0.17853E-05   -0.29232E-08   872   0.536E-04    0.756E-05
RMM:  20    -0.413215421507E+03    0.14971E-05   -0.25586E-08   897   0.542E-04    0.622E-05
RMM:  21    -0.413215421239E+03    0.26767E-06   -0.13377E-08   717   0.512E-04
   42 T=    71. E= -.41286730E+03 F= -.41321542E+03 E0= -.41319438E+03  EK= 0.34813E+00 SP= 0.00E+00 SK= 0.00E+00
       N       E                     dE             d eps       ncg     rms          rms(c)
RMM:   1    -0.413232489430E+03   -0.17068E-01   -0.71259E+00  4316   0.954E-01    0.969E-01
RMM:   2    -0.413226050402E+03    0.64390E-02   -0.10469E-01  4374   0.121E-01    0.707E-01
RMM:   3    -0.413220740632E+03    0.53098E-02   -0.50576E-02  4944   0.928E-02    0.264E-01
RMM:   4    -0.413249963245E+03   -0.29223E-01   -0.38249E-02  5103   0.166E-01    0.745E-01
RMM:   5    -0.413217653443E+03    0.32310E-01   -0.15262E-02  4773   0.125E-01    0.503E-02
RMM:   6    -0.413217726542E+03   -0.73099E-04   -0.26065E-03  5771   0.478E-02    0.308E-02
RMM:   7    -0.413217757942E+03   -0.31400E-04   -0.31114E-04  5713   0.166E-02    0.182E-02
RMM:   8    -0.413217756951E+03    0.99081E-06   -0.49087E-05  4939   0.728E-03    0.920E-03
RMM:   9    -0.413217758255E+03   -0.13035E-05   -0.18506E-05  4366   0.464E-03    0.649E-03
RMM:  10    -0.413217754593E+03    0.36616E-05   -0.29395E-06  2659   0.272E-03    0.358E-03
RMM:  11    -0.413217752903E+03    0.16906E-05   -0.12746E-06  2502   0.183E-03    0.211E-03
RMM:  12    -0.413217748199E+03    0.47035E-05   -0.14185E-06  2507   0.186E-03    0.118E-03
RMM:  13    -0.413217745143E+03    0.30562E-05   -0.53661E-07  2368   0.126E-03    0.755E-04
RMM:  14    -0.413217743992E+03    0.11512E-05   -0.21907E-07  1797   0.831E-04    0.418E-04
RMM:  15    -0.413217740189E+03    0.38027E-05   -0.13339E-07  1419   0.727E-04    0.193E-04
RMM:  16    -0.413217736159E+03    0.40303E-05   -0.98308E-08  1366   0.675E-04    0.297E-04
RMM:  17    -0.413217733663E+03    0.24956E-05   -0.51132E-08   971   0.582E-04    0.250E-04
RMM:  18    -0.413217728230E+03    0.54333E-05   -0.64913E-08  1227   0.620E-04    0.134E-04
RMM:  19    -0.413217726142E+03    0.20877E-05   -0.31104E-08   912   0.550E-04    0.503E-05
RMM:  20    -0.413217725224E+03    0.91804E-06   -0.18664E-08   791   0.529E-04
   43 T=    71. E= -.41286737E+03 F= -.41321773E+03 E0= -.41319671E+03  EK= 0.35036E+00 SP= 0.00E+00 SK= 0.00E+00
       N       E                     dE             d eps       ncg     rms          rms(c)
RMM:   1    -0.413235706006E+03   -0.17980E-01   -0.72715E+00  4316   0.103E+00    0.971E-01
RMM:   2    -0.413227587741E+03    0.81183E-02   -0.11258E-01  4403   0.134E-01    0.717E-01
RMM:   3    -0.413222829964E+03    0.47578E-02   -0.51096E-02  4971   0.981E-02    0.291E-01
RMM:   4    -0.413253880651E+03   -0.31051E-01   -0.43428E-02  5096   0.178E-01    0.775E-01
RMM:   5    -0.413218844392E+03    0.35036E-01   -0.16168E-02  4762   0.130E-01    0.518E-02
RMM:   6    -0.413218922238E+03   -0.77846E-04   -0.27767E-03  5775   0.492E-02    0.303E-02
RMM:   7    -0.413218948946E+03   -0.26708E-04   -0.30796E-04  5705   0.164E-02    0.177E-02
RMM:   8    -0.413218954975E+03   -0.60285E-05   -0.51863E-05  4993   0.731E-03    0.899E-03
RMM:   9    -0.413218952489E+03    0.24857E-05   -0.17527E-05  4341   0.454E-03    0.598E-03
RMM:  10    -0.413218951891E+03    0.59788E-06   -0.36747E-06  2775   0.275E-03
   44 T=    72. E= -.41286721E+03 F= -.41321895E+03 E0= -.41319796E+03  EK= 0.35175E+00 SP= 0.00E+00 SK= 0.00E+00
       N       E                     dE             d eps       ncg     rms          rms(c)
RMM:   1    -0.413238068347E+03   -0.19116E-01   -0.72265E+00  4316   0.108E+00    0.991E-01
RMM:   2    -0.413228832040E+03    0.92363E-02   -0.11094E-01  4454   0.137E-01    0.716E-01
RMM:   3    -0.413231272202E+03   -0.24402E-02   -0.53618E-02  5082   0.127E-01    0.445E-01
RMM:   4    -0.413240855895E+03   -0.95837E-02   -0.39904E-02  5036   0.175E-01    0.600E-01
RMM:   5    -0.413220332715E+03    0.20523E-01   -0.79746E-03  4619   0.101E-01    0.499E-02
RMM:   6    -0.413220327041E+03    0.56736E-05   -0.15737E-03  5603   0.379E-02    0.300E-02
RMM:   7    -0.413220332256E+03   -0.52140E-05   -0.26348E-04  5479   0.164E-02    0.213E-02
RMM:   8    -0.413220331511E+03    0.74429E-06   -0.78832E-05  5027   0.980E-03    0.990E-03
RMM:   9    -0.413220323602E+03    0.79089E-05   -0.94735E-06  3491   0.434E-03    0.423E-03
RMM:  10    -0.413220318458E+03    0.51445E-05   -0.18925E-06  2588   0.216E-03    0.238E-03
RMM:  11    -0.413220312900E+03    0.55576E-05   -0.10105E-06  2483   0.157E-03    0.123E-03
RMM:  12    -0.413220304414E+03    0.84864E-05   -0.72832E-07  2368   0.129E-03    0.618E-04
RMM:  13    -0.413220299701E+03    0.47125E-05   -0.30141E-07  1909   0.913E-04    0.364E-04
RMM:  14    -0.413220295591E+03    0.41107E-05   -0.16237E-07  1288   0.718E-04    0.181E-04
RMM:  15    -0.413220284349E+03    0.11241E-04   -0.18505E-07  1616   0.775E-04    0.234E-04
RMM:  16    -0.413220280027E+03    0.43226E-05   -0.95046E-08  1269   0.640E-04    0.138E-04
RMM:  17    -0.413220274477E+03    0.55491E-05   -0.79209E-08  1276   0.627E-04    0.626E-05
RMM:  18    -0.413220270614E+03    0.38634E-05   -0.51959E-08  1118   0.581E-04    0.613E-05
RMM:  19    -0.413220270154E+03    0.46054E-06   -0.27497E-08   820   0.522E-04
   45 T=    72. E= -.41286766E+03 F= -.41322027E+03 E0= -.41319930E+03  EK= 0.35261E+00 SP= 0.00E+00 SK= 0.00E+00
       N       E                     dE             d eps       ncg     rms          rms(c)
RMM:   1    -0.413238021928E+03   -0.17751E-01   -0.71829E+00  4316   0.116E+00    0.973E-01
RMM:   2    -0.413228263928E+03    0.97580E-02   -0.11210E-01  4450   0.144E-01    0.710E-01
RMM:   3    -0.413226659109E+03    0.16048E-02   -0.49636E-02  5026   0.115E-01    0.355E-01
RMM:   4    -0.413248495169E+03   -0.21836E-01   -0.42802E-02  5069   0.179E-01    0.703E-01
RMM:   5    -0.413219840729E+03    0.28654E-01   -0.12077E-02  4704   0.118E-01    0.522E-02
RMM:   6    -0.413219865119E+03   -0.24390E-04   -0.21731E-03  5695   0.442E-02    0.294E-02
RMM:   7    -0.413219887974E+03   -0.22855E-04   -0.27009E-04  5723   0.161E-02    0.186E-02
RMM:   8    -0.413219895032E+03   -0.70578E-05   -0.87301E-05  5140   0.961E-03    0.116E-02
RMM:   9    -0.413219885904E+03    0.91285E-05   -0.16332E-05  4247   0.513E-03    0.483E-03
RMM:  10    -0.413219882969E+03    0.29349E-05   -0.32977E-06  2744   0.260E-03    0.296E-03
RMM:  11    -0.413219880099E+03    0.28701E-05   -0.11873E-06  2495   0.177E-03    0.155E-03
RMM:  12    -0.413219874606E+03    0.54923E-05   -0.81279E-07  2452   0.145E-03    0.796E-04
RMM:  13    -0.413219870131E+03    0.44751E-05   -0.35689E-07  2062   0.100E-03    0.367E-04
RMM:  14    -0.413219867550E+03    0.25808E-05   -0.17848E-07  1459   0.746E-04    0.186E-04
RMM:  15    -0.413219861339E+03    0.62110E-05   -0.14186E-07  1308   0.721E-04    0.161E-04
RMM:  16    -0.413219857754E+03    0.35853E-05   -0.94006E-08  1252   0.663E-04    0.124E-04
RMM:  17    -0.413219853768E+03    0.39862E-05   -0.78353E-08  1309   0.641E-04    0.690E-05
RMM:  18    -0.413219849907E+03    0.38606E-05   -0.55064E-08  1154   0.596E-04    0.403E-05
RMM:  19    -0.413219848378E+03    0.15297E-05   -0.31390E-08   881   0.541E-04    0.330E-05
RMM:  20    -0.413219848132E+03    0.24522E-06   -0.17467E-08   719   0.518E-04
   46 T=    72. E= -.41286761E+03 F= -.41321985E+03 E0= -.41319890E+03  EK= 0.35224E+00 SP= 0.00E+00 SK= 0.00E+00
       N       E                     dE             d eps       ncg     rms          rms(c)
RMM:   1    -0.413240981620E+03   -0.21133E-01   -0.72976E+00  4316   0.129E+00    0.964E-01
RMM:   2    -0.413227431123E+03    0.13550E-01   -0.11628E-01  4489   0.159E-01    0.716E-01
RMM:   3    -0.413229234293E+03   -0.18032E-02   -0.54594E-02  5051   0.132E-01    0.442E-01
RMM:   4    -0.413242717309E+03   -0.13483E-01   -0.43059E-02  5039   0.182E-01    0.650E-01
RMM:   5    -0.413218598774E+03    0.24119E-01   -0.99206E-03  4654   0.110E-01    0.515E-02
RMM:   6    -0.413218578975E+03    0.19799E-04   -0.17496E-03  5599   0.402E-02    0.271E-02
RMM:   7    -0.413218600041E+03   -0.21067E-04   -0.24049E-04  5658   0.155E-02    0.182E-02
RMM:   8    -0.413218607283E+03   -0.72414E-05   -0.89748E-05  5105   0.100E-02    0.102E-02
RMM:   9    -0.413218601794E+03    0.54888E-05   -0.12015E-05  3904   0.478E-03    0.427E-03
RMM:  10    -0.413218600225E+03    0.15692E-05   -0.28134E-06  2694   0.238E-03    0.261E-03
RMM:  11    -0.413218598075E+03    0.21503E-05   -0.12653E-06  2499   0.173E-03    0.125E-03
RMM:  12    -0.413218594575E+03    0.35000E-05   -0.77377E-07  2373   0.135E-03    0.642E-04
RMM:  13    -0.413218591524E+03    0.30510E-05   -0.35600E-07  1839   0.950E-04    0.289E-04
RMM:  14    -0.413218588668E+03    0.28553E-05   -0.20636E-07  1423   0.767E-04    0.153E-04
RMM:  15    -0.413218584140E+03    0.45287E-05   -0.17684E-07  1398   0.746E-04    0.120E-04
RMM:  16    -0.413218580897E+03    0.32429E-05   -0.12394E-07  1350   0.678E-04    0.905E-05
RMM:  17    -0.413218575868E+03    0.50291E-05   -0.11638E-07  1465   0.680E-04    0.537E-05
RMM:  18    -0.413218573963E+03    0.19044E-05   -0.55441E-08   990   0.559E-04    0.364E-05
RMM:  19    -0.413218573087E+03    0.87627E-06   -0.32971E-08   836   0.529E-04
   47 T=    71. E= -.41286769E+03 F= -.41321857E+03 E0= -.41319764E+03  EK= 0.35088E+00 SP= 0.00E+00 SK= 0.00E+00
       N       E                     dE             d eps       ncg     rms          rms(c)
RMM:   1    -0.413239985196E+03   -0.21411E-01   -0.72086E+00  4314   0.135E+00    0.977E-01
RMM:   2    -0.413224720772E+03    0.15264E-01   -0.11730E-01  4538   0.171E-01    0.713E-01
RMM:   3    -0.413231242053E+03   -0.65213E-02   -0.52985E-02  5084   0.145E-01    0.512E-01
RMM:   4    -0.413234332869E+03   -0.30908E-02   -0.41586E-02  5013   0.182E-01    0.561E-01
RMM:   5    -0.413216307256E+03    0.18026E-01   -0.66929E-03  4603   0.976E-02    0.517E-02
RMM:   6    -0.413216259713E+03    0.47543E-04   -0.11905E-03  5311   0.345E-02    0.268E-02
RMM:   7    -0.413216284553E+03   -0.24840E-04   -0.17967E-04  5604   0.137E-02    0.162E-02
RMM:   8    -0.413216290026E+03   -0.54729E-05   -0.86905E-05  5191   0.973E-03    0.105E-02
RMM:   9    -0.413216279603E+03    0.10423E-04   -0.12126E-05  3949   0.486E-03    0.403E-03
RMM:  10    -0.413216276687E+03    0.29158E-05   -0.28658E-06  2698   0.241E-03    0.238E-03
RMM:  11    -0.413216272229E+03    0.44579E-05   -0.12700E-06  2491   0.182E-03    0.121E-03
RMM:  12    -0.413216267782E+03    0.44479E-05   -0.59236E-07  2329   0.129E-03    0.672E-04
RMM:  13    -0.413216263607E+03    0.41750E-05   -0.28062E-07  1776   0.912E-04    0.311E-04
RMM:  14    -0.413216259021E+03    0.45859E-05   -0.16889E-07  1441   0.750E-04    0.164E-04
RMM:  15    -0.413216254268E+03    0.47527E-05   -0.11644E-07  1279   0.688E-04    0.120E-04
RMM:  16    -0.413216250425E+03    0.38424E-05   -0.84271E-08  1231   0.644E-04    0.865E-05
RMM:  17    -0.413216243658E+03    0.67674E-05   -0.88496E-08  1417   0.659E-04    0.729E-05
RMM:  18    -0.413216242590E+03    0.10685E-05   -0.31401E-08   825   0.524E-04    0.517E-05
RMM:  19    -0.413216240658E+03    0.19316E-05   -0.28784E-08   875   0.534E-04    0.203E-05
RMM:  20    -0.413216240059E+03    0.59884E-06   -0.14171E-08   673   0.500E-04
   48 T=    71. E= -.41286793E+03 F= -.41321624E+03 E0= -.41319531E+03  EK= 0.34831E+00 SP= 0.00E+00 SK= 0.00E+00
       N       E                     dE             d eps       ncg     rms          rms(c)
RMM:   1    -0.413235658736E+03   -0.19418E-01   -0.70744E+00  4311   0.144E+00    0.963E-01
RMM:   2    -0.413219846447E+03    0.15812E-01   -0.11777E-01  4600   0.177E-01    0.703E-01
RMM:   3    -0.413234625430E+03   -0.14779E-01   -0.55982E-02  5107   0.166E-01    0.632E-01
RMM:   4    -0.413223598394E+03    0.11027E-01   -0.41596E-02  4967   0.186E-01    0.461E-01
RMM:   5    -0.413211556411E+03    0.12042E-01   -0.45888E-03  4576   0.878E-02    0.526E-02
RMM:   6    -0.413211460734E+03    0.95678E-04   -0.61902E-04  4834   0.285E-02    0.269E-02
RMM:   7    -0.413211489029E+03   -0.28296E-04   -0.15449E-04  5722   0.135E-02    0.128E-02
RMM:   8    -0.413211487505E+03    0.15240E-05   -0.44190E-05  5206   0.780E-03    0.852E-03
RMM:   9    -0.413211484490E+03    0.30153E-05   -0.11890E-05  4002   0.415E-03    0.371E-03
RMM:  10    -0.413211480973E+03    0.35175E-05   -0.19405E-06  2558   0.226E-03    0.239E-03
RMM:  11    -0.413211475570E+03    0.54022E-05   -0.11548E-06  2469   0.181E-03    0.149E-03
RMM:  12    -0.413211472001E+03    0.35695E-05   -0.46770E-07  2401   0.120E-03    0.799E-04
RMM:  13    -0.413211467420E+03    0.45812E-05   -0.27742E-07  1921   0.907E-04    0.402E-04
RMM:  14    -0.413211461149E+03    0.62706E-05   -0.20930E-07  1726   0.795E-04    0.419E-04
RMM:  15    -0.413211456378E+03    0.47713E-05   -0.10184E-07  1075   0.621E-04    0.170E-04
RMM:  16    -0.413211453193E+03    0.31849E-05   -0.72052E-08  1106   0.607E-04    0.975E-05
RMM:  17    -0.413211448909E+03    0.42837E-05   -0.62788E-08  1147   0.600E-04    0.106E-04
RMM:  18    -0.413211447266E+03    0.16431E-05   -0.34991E-08   891   0.539E-04    0.826E-05
RMM:  19    -0.413211443498E+03    0.37686E-05   -0.39888E-08  1030   0.566E-04    0.419E-05
RMM:  20    -0.413211442004E+03    0.14937E-05   -0.19436E-08   746   0.513E-04    0.295E-05
RMM:  21    -0.413211441789E+03    0.21504E-06   -0.93877E-09   594   0.487E-04
   49 T=    70. E= -.41286756E+03 F= -.41321144E+03 E0= -.41319052E+03  EK= 0.34389E+00 SP= 0.00E+00 SK= 0.00E+00
       N       E                     dE             d eps       ncg     rms          rms(c)
RMM:   1    -0.413232627034E+03   -0.21185E-01   -0.70562E+00  4309   0.160E+00    0.934E-01
RMM:   2    -0.413214390964E+03    0.18236E-01   -0.12580E-01  4710   0.192E-01    0.701E-01
RMM:   3    -0.413240399926E+03   -0.26009E-01   -0.63030E-02  5131   0.192E-01    0.767E-01
RMM:   4    -0.413215082539E+03    0.25317E-01   -0.46830E-02  4931   0.200E-01    0.407E-01
RMM:   5    -0.413205960581E+03    0.91220E-02   -0.47538E-03  4687   0.915E-02    0.586E-02
RMM:   6    -0.413205809933E+03    0.15065E-03   -0.49078E-04  4689   0.286E-02    0.279E-02
RMM:   7    -0.413205850157E+03   -0.40224E-04   -0.25465E-04  5663   0.178E-02    0.211E-02
RMM:   8    -0.413205829430E+03    0.20727E-04   -0.64977E-05  5028   0.944E-03    0.982E-03
RMM:   9    -0.413205827716E+03    0.17140E-05   -0.20606E-05  5018   0.562E-03    0.440E-03
RMM:  10    -0.413205824895E+03    0.28217E-05   -0.27823E-06  2720   0.253E-03    0.265E-03
RMM:  11    -0.413205820916E+03    0.39785E-05   -0.13886E-06  2501   0.197E-03    0.200E-03
RMM:  12    -0.413205817570E+03    0.33464E-05   -0.50608E-07  2377   0.123E-03    0.999E-04
RMM:  13    -0.413205814402E+03    0.31681E-05   -0.31384E-07  2054   0.911E-04    0.412E-04
RMM:  14    -0.413205810091E+03    0.43101E-05   -0.25268E-07  1725   0.810E-04    0.330E-04
RMM:  15    -0.413205804824E+03    0.52677E-05   -0.18533E-07  1358   0.710E-04    0.144E-04
RMM:  16    -0.413205802008E+03    0.28154E-05   -0.10576E-07  1170   0.626E-04    0.978E-05
RMM:  17    -0.413205797963E+03    0.40454E-05   -0.99276E-08  1262   0.625E-04    0.667E-05
RMM:  18    -0.413205795012E+03    0.29511E-05   -0.66955E-08  1112   0.582E-04    0.534E-05
RMM:  19    -0.413205793837E+03    0.11749E-05   -0.34215E-08   863   0.527E-04    0.274E-05
RMM:  20    -0.413205792461E+03    0.13762E-05   -0.32523E-08   937   0.530E-04    0.278E-05
RMM:  21    -0.413205792151E+03    0.30990E-06   -0.14769E-08   713   0.485E-04
   50 T=    69. E= -.41286784E+03 F= -.41320579E+03 E0= -.41318487E+03  EK= 0.33795E+00 SP= 0.00E+00 SK= 0.00E+00
       N       E                     dE             d eps       ncg     rms          rms(c)
[...]
RMM:   2    -0.414123896210E+03    0.10207E+00   -0.10716E+00  5405   0.125E+00    0.200E+00
RMM:   3    -0.414108460763E+03    0.15435E-01   -0.28958E-01  5360   0.604E-01    0.185E+00
RMM:   4    -0.414015356417E+03    0.93104E-01   -0.16522E-01  5212   0.478E-01    0.896E-01
RMM:   5    -0.414008797609E+03    0.65588E-02   -0.43702E-02  4643   0.302E-01    0.347E-01
RMM:   6    -0.414008598743E+03    0.19887E-03   -0.30310E-02  5062   0.210E-01    0.219E-01
RMM:   7    -0.414005924330E+03    0.26744E-02   -0.72389E-03  4946   0.111E-01    0.923E-02
RMM:   8    -0.414005825146E+03    0.99185E-04   -0.12417E-03  5505   0.450E-02    0.586E-02
RMM:   9    -0.414005764023E+03    0.61123E-04   -0.41698E-04  4645   0.270E-02    0.230E-02
RMM:  10    -0.414005759963E+03    0.40596E-05   -0.13053E-04  5591   0.136E-02    0.134E-02
RMM:  11    -0.414005757495E+03    0.24686E-05   -0.33674E-05  5288   0.694E-03    0.715E-03
RMM:  12    -0.414005757001E+03    0.49364E-06   -0.10064E-05  3784   0.420E-03    0.487E-03
RMM:  13    -0.414005756692E+03    0.30916E-06   -0.31302E-06  2789   0.277E-03
  138 T=   227. E= -.41289067E+03 F= -.41400576E+03 E0= -.41398524E+03  EK= 0.11151E+01 SP= 0.00E+00 SK= 0.00E+00
       N       E                     dE             d eps       ncg     rms          rms(c)
RMM:   1    -0.414162115650E+03   -0.15636E+00   -0.25754E+01  4270   0.892E+00    0.174E+00
RMM:   2    -0.413978450329E+03    0.18367E+00   -0.10609E+00  5397   0.121E+00    0.178E+00
RMM:   3    -0.413998223692E+03   -0.19773E-01   -0.21879E-01  5497   0.524E-01    0.175E+00
RMM:   4    -0.413929328998E+03    0.68895E-01   -0.10389E-01  5236   0.383E-01    0.984E-01
RMM:   5    -0.413923295231E+03    0.60338E-02   -0.49043E-02  4391   0.319E-01    0.306E-01
RMM:   6    -0.413922185825E+03    0.11094E-02   -0.19230E-02  5028   0.176E-01    0.170E-01
RMM:   7    -0.413920765779E+03    0.14200E-02   -0.51642E-03  5100   0.917E-02    0.911E-02
RMM:   8    -0.413920560203E+03    0.20558E-03   -0.85753E-04  5092   0.394E-02    0.575E-02
RMM:   9    -0.413920489769E+03    0.70435E-04   -0.47065E-04  4523   0.285E-02    0.181E-02
RMM:  10    -0.413920496258E+03   -0.64896E-05   -0.14639E-04  5864   0.138E-02    0.132E-02
RMM:  11    -0.413920493764E+03    0.24942E-05   -0.28939E-05  4910   0.659E-03    0.718E-03
RMM:  12    -0.413920492415E+03    0.13492E-05   -0.78120E-06  3415   0.379E-03    0.415E-03
RMM:  13    -0.413920492084E+03    0.33117E-06   -0.22919E-06  2697   0.243E-03
  139 T=   210. E= -.41288706E+03 F= -.41392049E+03 E0= -.41389907E+03  EK= 0.10334E+01 SP= 0.00E+00 SK= 0.00E+00
       N       E                     dE             d eps       ncg     rms          rms(c)
RMM:   1    -0.413806869266E+03    0.11362E+00   -0.20706E+01  4265   0.796E+00    0.155E+00
RMM:   2    -0.413678034695E+03    0.12883E+00   -0.76217E-01  5395   0.984E-01    0.145E+00
RMM:   3    -0.413725513638E+03   -0.47479E-01   -0.14957E-01  5599   0.420E-01    0.157E+00
RMM:   4    -0.413669441264E+03    0.56072E-01   -0.74041E-02  5157   0.318E-01    0.853E-01
RMM:   5    -0.413665122942E+03    0.43183E-02   -0.52306E-02  4524   0.312E-01    0.267E-01
RMM:   6    -0.413662277779E+03    0.28452E-02   -0.76335E-03  4645   0.128E-01    0.100E-01
RMM:   7    -0.413662142413E+03    0.13537E-03   -0.22095E-03  5627   0.573E-02    0.683E-02
RMM:   8    -0.413662008813E+03    0.13360E-03   -0.68356E-04  5125   0.315E-02    0.449E-02
RMM:   9    -0.413661970379E+03    0.38434E-04   -0.27877E-04  4529   0.224E-02    0.168E-02
RMM:  10    -0.413661973667E+03   -0.32883E-05   -0.88191E-05  5793   0.109E-02    0.111E-02
RMM:  11    -0.413661971743E+03    0.19238E-05   -0.19220E-05  4519   0.552E-03    0.556E-03
RMM:  12    -0.413661970748E+03    0.99506E-06   -0.40291E-06  2926   0.280E-03
  140 T=   161. E= -.41286898E+03 F= -.41366197E+03 E0= -.41363984E+03  EK= 0.79299E+00 SP= 0.00E+00 SK= 0.00E+00
       N       E                     dE             d eps       ncg     rms          rms(c)
RMM:   1    -0.413532397539E+03    0.12957E+00   -0.13686E+01  4264   0.653E+00    0.112E+00
RMM:   2    -0.413493383738E+03    0.39014E-01   -0.45034E-01  5420   0.725E-01    0.101E+00
RMM:   3    -0.413515311871E+03   -0.21928E-01   -0.88431E-02  5613   0.316E-01    0.111E+00
RMM:   4    -0.413485480725E+03    0.29831E-01   -0.43171E-02  5107   0.256E-01    0.486E-01
RMM:   5    -0.413484313561E+03    0.11672E-02   -0.27536E-02  4804   0.220E-01    0.180E-01
RMM:   6    -0.413483103196E+03    0.12104E-02   -0.69160E-03  5040   0.107E-01    0.966E-02
RMM:   7    -0.413482681680E+03    0.42152E-03   -0.13968E-03  5084   0.491E-02    0.474E-02
RMM:   8    -0.413482670893E+03    0.10787E-04   -0.44580E-04  5713   0.251E-02    0.325E-02
RMM:   9    -0.413482665205E+03    0.56881E-05   -0.15053E-04  4986   0.154E-02    0.176E-02
RMM:  10    -0.413482659889E+03    0.53159E-05   -0.45488E-05  5420   0.821E-03    0.804E-03
RMM:  11    -0.413482659389E+03    0.50063E-06   -0.16054E-05  4425   0.465E-03    0.450E-03
RMM:  12    -0.413482658465E+03    0.92382E-06   -0.22633E-06  2681   0.247E-03
  141 T=   127. E= -.41285854E+03 F= -.41348266E+03 E0= -.41345989E+03  EK= 0.62412E+00 SP= 0.00E+00 SK= 0.00E+00
       N       E                     dE             d eps       ncg     rms          rms(c)
RMM:   1    -0.413564658126E+03   -0.81999E-01   -0.11879E+01  4266   0.618E+00    0.113E+00
RMM:   2    -0.413551933713E+03    0.12724E-01   -0.39996E-01  5409   0.692E-01    0.110E+00
RMM:   3    -0.413542381199E+03    0.95525E-02   -0.91928E-02  5462   0.329E-01    0.991E-01
RMM:   4    -0.413524355236E+03    0.18026E-01   -0.63936E-02  5273   0.301E-01    0.462E-01
RMM:   5    -0.413520236370E+03    0.41189E-02   -0.28614E-02  4878   0.223E-01    0.176E-01
RMM:   6    -0.413519549016E+03    0.68735E-03   -0.11837E-02  5267   0.132E-01    0.132E-01
RMM:   7    -0.413518786533E+03    0.76248E-03   -0.15316E-03  4693   0.563E-02    0.563E-02
RMM:   8    -0.413518774487E+03    0.12045E-04   -0.58237E-04  5627   0.282E-02    0.267E-02
RMM:   9    -0.413518782598E+03   -0.81103E-05   -0.19888E-04  5668   0.169E-02    0.214E-02
RMM:  10    -0.413518771858E+03    0.10739E-04   -0.38637E-05  5078   0.808E-03    0.103E-02
RMM:  11    -0.413518771590E+03    0.26830E-06   -0.32037E-05  5369   0.629E-03    0.446E-03
RMM:  12    -0.413518771682E+03   -0.92281E-07   -0.28431E-06  2767   0.249E-03
  142 T=   132. E= -.41287016E+03 F= -.41351877E+03 E0= -.41349544E+03  EK= 0.64861E+00 SP= 0.00E+00 SK= 0.00E+00
       N       E                     dE             d eps       ncg     rms          rms(c)
RMM:   1    -0.413709141164E+03   -0.19037E+00   -0.14301E+01  4276   0.679E+00    0.128E+00
RMM:   2    -0.413679498084E+03    0.29643E-01   -0.50154E-01  5422   0.796E-01    0.134E+00
RMM:   3    -0.413648903642E+03    0.30594E-01   -0.11522E-01  5452   0.375E-01    0.112E+00
RMM:   4    -0.413629955532E+03    0.18948E-01   -0.72362E-02  5287   0.321E-01    0.551E-01
RMM:   5    -0.413627339271E+03    0.26163E-02   -0.40564E-02  4890   0.260E-01    0.253E-01
RMM:   6    -0.413624917399E+03    0.24219E-02   -0.17088E-02  5046   0.162E-01    0.143E-01
RMM:   7    -0.413623995437E+03    0.92196E-03   -0.17494E-03  4552   0.649E-02    0.597E-02
RMM:   8    -0.413623973270E+03    0.22167E-04   -0.47207E-04  5304   0.269E-02    0.300E-02
RMM:   9    -0.413623979463E+03   -0.61925E-05   -0.20702E-04  5400   0.176E-02    0.178E-02
RMM:  10    -0.413623976365E+03    0.30980E-05   -0.43461E-05  5348   0.804E-03    0.102E-02
RMM:  11    -0.413623976377E+03   -0.12762E-07   -0.25259E-05  5111   0.603E-03    0.471E-03
RMM:  12    -0.413623977768E+03   -0.13910E-05   -0.50171E-06  3007   0.305E-03    0.388E-03
RMM:  13    -0.413623978175E+03   -0.40665E-06   -0.15682E-06  2555   0.221E-03
  143 T=   152. E= -.41287674E+03 F= -.41362398E+03 E0= -.41360025E+03  EK= 0.74724E+00 SP= 0.00E+00 SK= 0.00E+00
       N       E                     dE             d eps       ncg     rms          rms(c)
RMM:   1    -0.413782698206E+03   -0.15872E+00   -0.16413E+01  4280   0.724E+00    0.115E+00
RMM:   2    -0.413723769897E+03    0.58928E-01   -0.56658E-01  5427   0.834E-01    0.122E+00
RMM:   3    -0.413703405442E+03    0.20364E-01   -0.10197E-01  5562   0.355E-01    0.104E+00
RMM:   4    -0.413685982941E+03    0.17423E-01   -0.46416E-02  5251   0.266E-01    0.545E-01
RMM:   5    -0.413686247752E+03   -0.26481E-03   -0.38277E-02  4851   0.253E-01    0.274E-01
RMM:   6    -0.413683289821E+03    0.29579E-02   -0.17238E-02  4932   0.162E-01    0.138E-01
RMM:   7    -0.413682349506E+03    0.94031E-03   -0.19106E-03  4600   0.672E-02    0.588E-02
RMM:   8    -0.413682321061E+03    0.28445E-04   -0.52237E-04  5356   0.284E-02    0.331E-02
RMM:   9    -0.413682321415E+03   -0.35416E-06   -0.19997E-04  4831   0.181E-02    0.147E-02
RMM:  10    -0.413682323532E+03   -0.21168E-05   -0.56053E-05  5513   0.883E-03    0.892E-03
RMM:  11    -0.413682324320E+03   -0.78766E-06   -0.15453E-05  4425   0.493E-03    0.522E-03
RMM:  12    -0.413682326322E+03   -0.20026E-05   -0.47564E-06  3015   0.319E-03    0.355E-03
RMM:  13    -0.413682327328E+03   -0.10058E-05   -0.14456E-06  2563   0.205E-03    0.139E-03
RMM:  14    -0.413682327975E+03   -0.64693E-06   -0.74491E-07  2435   0.140E-03
  144 T=   164. E= -.41287553E+03 F= -.41368233E+03 E0= -.41365846E+03  EK= 0.80679E+00 SP= 0.00E+00 SK= 0.00E+00
       N       E                     dE             d eps       ncg     rms          rms(c)
RMM:   1    -0.413783150947E+03   -0.10082E+00   -0.17104E+01  4287   0.736E+00    0.104E+00
RMM:   2    -0.413702368023E+03    0.80783E-01   -0.53423E-01  5430   0.816E-01    0.102E+00
RMM:   3    -0.413708127090E+03   -0.57591E-02   -0.84389E-02  5748   0.318E-01    0.101E+00
RMM:   4    -0.413688376922E+03    0.19750E-01   -0.32298E-02  5108   0.224E-01    0.516E-01
RMM:   5    -0.413688880526E+03   -0.50360E-03   -0.32153E-02  4717   0.235E-01    0.244E-01
RMM:   6    -0.413686589644E+03    0.22909E-02   -0.13196E-02  4911   0.142E-01    0.121E-01
RMM:   7    -0.413685842474E+03    0.74717E-03   -0.18881E-03  4840   0.624E-02    0.605E-02
RMM:   8    -0.413685781436E+03    0.61038E-04   -0.48200E-04  5155   0.280E-02    0.357E-02
RMM:   9    -0.413685775664E+03    0.57715E-05   -0.26007E-04  4718   0.202E-02    0.144E-02
RMM:  10    -0.413685781074E+03   -0.54091E-05   -0.72825E-05  5751   0.973E-03    0.110E-02
RMM:  11    -0.413685780596E+03    0.47767E-06   -0.16409E-05  4322   0.515E-03    0.547E-03
RMM:  12    -0.413685782940E+03   -0.23444E-05   -0.51951E-06  3066   0.323E-03    0.293E-03
RMM:  13    -0.413685784548E+03   -0.16078E-05   -0.14298E-06  2537   0.205E-03    0.137E-03
RMM:  14    -0.413685785526E+03   -0.97775E-06   -0.73621E-07  2437   0.144E-03
  145 T=   165. E= -.41287425E+03 F= -.41368579E+03 E0= -.41366197E+03  EK= 0.81154E+00 SP= 0.00E+00 SK= 0.00E+00
       N       E                     dE             d eps       ncg     rms          rms(c)
RMM:   1    -0.413727047983E+03   -0.41263E-01   -0.16559E+01  4288   0.729E+00    0.103E+00
RMM:   2    -0.413646767196E+03    0.80281E-01   -0.47747E-01  5416   0.779E-01    0.917E-01
RMM:   3    -0.413680654205E+03   -0.33887E-01   -0.84697E-02  5747   0.312E-01    0.107E+00
RMM:   4    -0.413647464199E+03    0.33190E-01   -0.41665E-02  5059   0.232E-01    0.485E-01
RMM:   5    -0.413645200383E+03    0.22638E-02   -0.26128E-02  4704   0.214E-01    0.180E-01
RMM:   6    -0.413644045132E+03    0.11553E-02   -0.64757E-03  5004   0.105E-01    0.945E-02
RMM:   7    -0.413643665947E+03    0.37919E-03   -0.14210E-03  5107   0.496E-02    0.547E-02
RMM:   8    -0.413643605925E+03    0.60022E-04   -0.40039E-04  4968   0.262E-02    0.330E-02
RMM:   9    -0.413643608650E+03   -0.27254E-05   -0.21825E-04  4815   0.185E-02    0.167E-02
RMM:  10    -0.413643612150E+03   -0.34995E-05   -0.64381E-05  5733   0.922E-03    0.113E-02
RMM:  11    -0.413643612295E+03   -0.14557E-06   -0.17706E-05  4466   0.522E-03    0.575E-03
RMM:  12    -0.413643614493E+03   -0.21973E-05   -0.46786E-06  2961   0.319E-03    0.271E-03
RMM:  13    -0.413643616111E+03   -0.16183E-05   -0.16373E-06  2520   0.215E-03    0.145E-03
RMM:  14    -0.413643617534E+03   -0.14227E-05   -0.75099E-07  2451   0.151E-03    0.710E-04
RMM:  15    -0.413643618667E+03   -0.11332E-05   -0.38654E-07  2206   0.105E-03    0.432E-04
RMM:  16    -0.413643619873E+03   -0.12064E-05   -0.24161E-07  1614   0.822E-04    0.217E-04
RMM:  17    -0.413643620992E+03   -0.11185E-05   -0.17546E-07  1384   0.733E-04    0.100E-04
RMM:  18    -0.413643621916E+03   -0.92360E-06   -0.13362E-07  1261   0.683E-04
  146 T=   157. E= -.41287250E+03 F= -.41364362E+03 E0= -.41362002E+03  EK= 0.77112E+00 SP= 0.00E+00 SK= 0.00E+00
       N       E                     dE             d eps       ncg     rms          rms(c)
RMM:   1    -0.413651634837E+03   -0.80138E-02   -0.15074E+01  4288   0.702E+00    0.950E-01
RMM:   2    -0.413583800651E+03    0.67834E-01   -0.40057E-01  5373   0.714E-01    0.802E-01
RMM:   3    -0.413615459651E+03   -0.31659E-01   -0.70375E-02  5687   0.293E-01    0.876E-01
RMM:   4    -0.413594736334E+03    0.20723E-01   -0.47664E-02  5131   0.225E-01    0.506E-01
RMM:   5    -0.413585619311E+03    0.91170E-02   -0.22072E-02  4979   0.193E-01    0.156E-01
RMM:   6    -0.413584606090E+03    0.10132E-02   -0.29521E-03  4734   0.792E-02    0.657E-02
RMM:   7    -0.413584563980E+03    0.42110E-04   -0.98143E-04  5491   0.381E-02    0.446E-02
RMM:   8    -0.413584532731E+03    0.31249E-04   -0.42247E-04  5388   0.244E-02    0.305E-02
RMM:   9    -0.413584531974E+03    0.75693E-06   -0.11124E-04  4917   0.139E-02    0.165E-02
RMM:  10    -0.413584532880E+03   -0.90610E-06   -0.51034E-05  5650   0.853E-03    0.892E-03
RMM:  11    -0.413584535056E+03   -0.21761E-05   -0.15224E-05  4391   0.464E-03    0.534E-03
RMM:  12    -0.413584536722E+03   -0.16660E-05   -0.29479E-06  2719   0.285E-03    0.283E-03
RMM:  13    -0.413584538312E+03   -0.15904E-05   -0.16691E-06  2534   0.212E-03    0.146E-03
RMM:  14    -0.413584540254E+03   -0.19419E-05   -0.83678E-07  2471   0.158E-03    0.649E-04
RMM:  15    -0.413584541551E+03   -0.12969E-05   -0.41261E-07  2230   0.108E-03    0.404E-04
RMM:  16    -0.413584542748E+03   -0.11965E-05   -0.25614E-07  1652   0.847E-04    0.242E-04
RMM:  17    -0.413584544137E+03   -0.13897E-05   -0.22803E-07  1630   0.801E-04    0.135E-04
RMM:  18    -0.413584545009E+03   -0.87143E-06   -0.15441E-07  1352   0.696E-04
  147 T=   146. E= -.41286663E+03 F= -.41358455E+03 E0= -.41356120E+03  EK= 0.71791E+00 SP= 0.00E+00 SK= 0.00E+00
       N       E                     dE             d eps       ncg     rms          rms(c)
RMM:   1    -0.413662235289E+03   -0.77691E-01   -0.14297E+01  4289   0.685E+00    0.770E-01
RMM:   2    -0.413587786656E+03    0.74449E-01   -0.34845E-01  5352   0.677E-01    0.648E-01
RMM:   3    -0.413615585732E+03   -0.27799E-01   -0.64948E-02  5776   0.269E-01    0.858E-01
RMM:   4    -0.413589705590E+03    0.25880E-01   -0.26836E-02  5100   0.187E-01    0.356E-01
RMM:   5    -0.413589047994E+03    0.65760E-03   -0.17236E-02  4951   0.174E-01    0.166E-01
RMM:   6    -0.413588326527E+03    0.72147E-03   -0.40296E-03  5126   0.830E-02    0.829E-02
RMM:   7    -0.413588138509E+03    0.18802E-03   -0.97690E-04  5368   0.395E-02    0.471E-02
RMM:   8    -0.413588117320E+03    0.21189E-04   -0.41437E-04  5583   0.252E-02    0.290E-02
RMM:   9    -0.413588116050E+03    0.12698E-05   -0.13673E-04  5290   0.145E-02    0.179E-02
RMM:  10    -0.413588114564E+03    0.14858E-05   -0.52906E-05  5575   0.880E-03    0.910E-03
RMM:  11    -0.413588116885E+03   -0.23210E-05   -0.16760E-05  4491   0.477E-03    0.583E-03
RMM:  12    -0.413588119625E+03   -0.27394E-05   -0.50721E-06  3101   0.349E-03    0.279E-03
RMM:  13    -0.413588121008E+03   -0.13827E-05   -0.13177E-06  2528   0.198E-03    0.148E-03
RMM:  14    -0.413588122379E+03   -0.13719E-05   -0.61331E-07  2426   0.134E-03    0.564E-04
RMM:  15    -0.413588123630E+03   -0.12501E-05   -0.37295E-07  1895   0.970E-04    0.352E-04
RMM:  16    -0.413588124882E+03   -0.12527E-05   -0.31243E-07  1794   0.863E-04    0.223E-04
RMM:  17    -0.413588125548E+03   -0.66572E-06   -0.19119E-07  1409   0.727E-04
  148 T=   147. E= -.41286482E+03 F= -.41358813E+03 E0= -.41356498E+03  EK= 0.72330E+00 SP= 0.00E+00 SK= 0.00E+00
       N       E                     dE             d eps       ncg     rms          rms(c)
RMM:   1    -0.413812795218E+03   -0.22467E+00   -0.16287E+01  4289   0.717E+00    0.972E-01
RMM:   2    -0.413683841820E+03    0.12895E+00   -0.41066E-01  5382   0.775E-01    0.865E-01
RMM:   3    -0.413716805911E+03   -0.32964E-01   -0.87506E-02  5718   0.316E-01    0.103E+00
RMM:   4    -0.413683579515E+03    0.33226E-01   -0.39338E-02  5223   0.222E-01    0.511E-01
RMM:   5    -0.413680834805E+03    0.27447E-02   -0.20484E-02  4530   0.203E-01    0.186E-01
RMM:   6    -0.413680478682E+03    0.35612E-03   -0.62975E-03  5182   0.101E-01    0.111E-01
RMM:   7    -0.413680022041E+03    0.45664E-03   -0.15039E-03  5012   0.501E-02    0.628E-02
RMM:   8    -0.413679954768E+03    0.67273E-04   -0.50651E-04  5490   0.286E-02    0.368E-02
RMM:   9    -0.413679944047E+03    0.10721E-04   -0.26215E-04  4922   0.206E-02    0.194E-02
RMM:  10    -0.413679942816E+03    0.12317E-05   -0.65592E-05  5569   0.102E-02    0.111E-02
RMM:  11    -0.413679944441E+03   -0.16259E-05   -0.27163E-05  5022   0.627E-03    0.648E-03
RMM:  12    -0.413679946697E+03   -0.22555E-05   -0.54849E-06  3104   0.342E-03    0.327E-03
RMM:  13    -0.413679948331E+03   -0.16345E-05   -0.22548E-06  2638   0.233E-03    0.167E-03
RMM:  14    -0.413679949685E+03   -0.13541E-05   -0.85060E-07  2456   0.159E-03    0.778E-04
RMM:  15    -0.413679950859E+03   -0.11738E-05   -0.49157E-07  2183   0.115E-03    0.415E-04
RMM:  16    -0.413679951866E+03   -0.10072E-05   -0.31993E-07  1835   0.899E-04    0.219E-04
RMM:  17    -0.413679952540E+03   -0.67372E-06   -0.21411E-07  1394   0.757E-04
  149 T=   164. E= -.41287324E+03 F= -.41367995E+03 E0= -.41365712E+03  EK= 0.80671E+00 SP= 0.00E+00 SK= 0.00E+00
       N       E                     dE             d eps       ncg     rms          rms(c)
RMM:   1    -0.413972174084E+03   -0.29222E+00   -0.19726E+01  4289   0.777E+00    0.122E+00
RMM:   2    -0.413765226177E+03    0.20695E+00   -0.52839E-01  5393   0.911E-01    0.114E+00
RMM:   3    -0.413782157407E+03   -0.16931E-01   -0.89311E-02  5685   0.336E-01    0.100E+00
RMM:   4    -0.413784684832E+03   -0.25274E-02   -0.59741E-02  5315   0.245E-01    0.892E-01
RMM:   5    -0.413761240619E+03    0.23444E-01   -0.40583E-02  4433   0.277E-01    0.229E-01
RMM:   6    -0.413759904828E+03    0.13358E-02   -0.67009E-03  5061   0.113E-01    0.111E-01
RMM:   7    -0.413759738449E+03    0.16638E-03   -0.14242E-03  5620   0.462E-02    0.716E-02
RMM:   8    -0.413759634630E+03    0.10382E-03   -0.66088E-04  4834   0.324E-02    0.351E-02
RMM:   9    -0.413759637054E+03   -0.24239E-05   -0.36406E-04  5207   0.231E-02    0.194E-02
RMM:  10    -0.413759625702E+03    0.11351E-04   -0.83294E-05  5658   0.113E-02    0.132E-02
RMM:  11    -0.413759626067E+03   -0.36457E-06   -0.24604E-05  4837   0.623E-03    0.600E-03
RMM:  12    -0.413759628182E+03   -0.21149E-05   -0.59387E-06  3160   0.337E-03    0.358E-03
RMM:  13    -0.413759630460E+03   -0.22785E-05   -0.16852E-06  2573   0.227E-03    0.186E-03
RMM:  14    -0.413759632081E+03   -0.16212E-05   -0.79679E-07  2479   0.153E-03    0.965E-04
RMM:  15    -0.413759633547E+03   -0.14656E-05   -0.48949E-07  2220   0.114E-03    0.455E-04
RMM:  16    -0.413759634598E+03   -0.10507E-05   -0.29025E-07  1692   0.867E-04    0.243E-04
RMM:  17    -0.413759635507E+03   -0.90891E-06   -0.21338E-07  1473   0.778E-04
  150 T=   179. E= -.41288107E+03 F= -.41375964E+03 E0= -.41373733E+03  EK= 0.87856E+00 SP= 0.00E+00 SK= 0.00E+00
