       N       E                     dE             d eps       ncg     rms          rms(c)
RMM:   1     0.220141909356E+04    0.22014E+04   -0.52443E+04  2132   0.654E+02
RMM:   2     0.705469760468E+03   -0.14959E+04   -0.16264E+04  2132   0.177E+02
RMM:   3     0.137254695394E+03   -0.56822E+03   -0.65763E+03  2132   0.117E+02
RMM:   4    -0.159109298644E+03   -0.29636E+03   -0.27877E+03  2132   0.936E+01
RMM:   5    -0.287601363379E+03   -0.12849E+03   -0.11465E+03  2132   0.595E+01
RMM:   6    -0.349793594859E+03   -0.62192E+02   -0.55124E+02  2132   0.423E+01
RMM:   7    -0.382622790320E+03   -0.32829E+02   -0.30391E+02  2132   0.293E+01
RMM:   8    -0.404177337722E+03   -0.21555E+02   -0.18435E+02  2132   0.233E+01
RMM:   9    -0.435999424552E+03   -0.31822E+02   -0.30748E+02  6101   0.173E+01
RMM:  10    -0.441290441843E+03   -0.52910E+01   -0.63309E+01  6396   0.539E+00
RMM:  11    -0.442525938533E+03   -0.12355E+01   -0.11100E+01  6218   0.173E+00
RMM:  12    -0.442902638369E+03   -0.37670E+00   -0.27608E+00  6369   0.601E-01    0.134E+02
RMM:  13    -0.425638044817E+03    0.17265E+02   -0.80965E+01  4670   0.119E+01    0.712E+01
RMM:  14    -0.499648123991E+03   -0.74010E+02   -0.54245E+02  5420   0.233E+01    0.307E+01
RMM:  15    -0.414030927162E+03    0.85617E+02   -0.19572E+02  5055   0.163E+01    0.596E+00
RMM:  16    -0.414079613121E+03   -0.48686E-01   -0.39430E+01  6079   0.605E+00    0.430E+00
RMM:  17    -0.413232294539E+03    0.84732E+00   -0.22716E+00  5337   0.179E+00    0.249E+00
RMM:  18    -0.413160516399E+03    0.71778E-01   -0.96676E-01  5932   0.102E+00    0.156E+00
RMM:  19    -0.413166980424E+03   -0.64640E-02   -0.28839E-01  5756   0.563E-01    0.851E-01
RMM:  20    -0.413181139250E+03   -0.14159E-01   -0.18389E-01  5307   0.479E-01    0.524E-01
RMM:  21    -0.413166423231E+03    0.14716E-01   -0.33797E-02  5023   0.223E-01    0.245E-01
RMM:  22    -0.413165257384E+03    0.11658E-02   -0.13371E-02  6085   0.943E-02    0.149E-01
RMM:  23    -0.413163741927E+03    0.15155E-02   -0.52780E-03  5836   0.664E-02    0.790E-02
RMM:  24    -0.413162526475E+03    0.12155E-02   -0.19250E-03  5660   0.418E-02    0.326E-02
RMM:  25    -0.413162407924E+03    0.11855E-03   -0.80475E-04  5939   0.228E-02    0.266E-02
RMM:  26    -0.413162670532E+03   -0.26261E-03   -0.52793E-04  5779   0.236E-02    0.295E-02
RMM:  27    -0.413163103775E+03   -0.43324E-03   -0.18824E-04  4560   0.189E-02    0.151E-02
RMM:  28    -0.413163602399E+03   -0.49862E-03   -0.19141E-04  5197   0.195E-02    0.847E-03
RMM:  29    -0.413163936336E+03   -0.33394E-03   -0.94868E-05  4336   0.133E-02    0.382E-03
RMM:  30    -0.413164152372E+03   -0.21604E-03   -0.75069E-05  3935   0.962E-03    0.256E-03
RMM:  31    -0.413164247517E+03   -0.95145E-04   -0.43833E-05  3092   0.545E-03    0.196E-03
RMM:  32    -0.413164273610E+03   -0.26093E-04   -0.18994E-05  2920   0.273E-03    0.105E-03
RMM:  33    -0.413164284080E+03   -0.10470E-04   -0.83792E-06  2744   0.194E-03    0.611E-04
RMM:  34    -0.413164288175E+03   -0.40942E-05   -0.40602E-06  2554   0.147E-03    0.788E-04
RMM:  35    -0.413164288474E+03   -0.29931E-06   -0.22638E-06  1816   0.979E-04
    1 T=    61. E= -.41286647E+03 F= -.41316429E+03 E0= -.41314179E+03  EK= 0.29782E+00 SP= 0.00E+00 SK= 0.00E+00
       N       E                     dE             d eps       ncg     rms          rms(c)
RMM:   1    -0.413154848153E+03    0.94400E-02   -0.11187E+01  3992   0.707E-01    0.886E-01
RMM:   2    -0.413165328116E+03   -0.10480E-01   -0.13822E-01  3831   0.101E-01    0.640E-01
RMM:   3    -0.413163919391E+03    0.14087E-02   -0.63560E-03  4821   0.378E-02    0.162E-01
RMM:   4    -0.413190395223E+03   -0.26476E-01   -0.27634E-02  5215   0.138E-01    0.677E-01
RMM:   5    -0.413163506753E+03    0.26888E-01   -0.13243E-02  4846   0.114E-01    0.332E-02
RMM:   6    -0.413163684968E+03   -0.17821E-03   -0.21355E-03  5840   0.448E-02    0.163E-02
RMM:   7    -0.413163703997E+03   -0.19030E-04   -0.25860E-04  5879   0.132E-02    0.130E-02
RMM:   8    -0.413163709814E+03   -0.58171E-05   -0.34358E-05  4367   0.507E-03    0.831E-03
RMM:   9    -0.413163715568E+03   -0.57539E-05   -0.57792E-06  2918   0.268E-03    0.555E-03
RMM:  10    -0.413163724080E+03   -0.85116E-05   -0.23429E-06  2585   0.211E-03    0.280E-03
RMM:  11    -0.413163731534E+03   -0.74538E-05   -0.16104E-06  2544   0.177E-03    0.144E-03
RMM:  12    -0.413163736075E+03   -0.45407E-05   -0.86222E-07  2422   0.134E-03    0.508E-04
RMM:  13    -0.413163737847E+03   -0.17724E-05   -0.44501E-07  2016   0.938E-04    0.304E-04
RMM:  14    -0.413163739765E+03   -0.19181E-05   -0.31269E-07  1531   0.779E-04    0.177E-04
RMM:  15    -0.413163742508E+03   -0.27425E-05   -0.29145E-07  1541   0.757E-04    0.145E-04
RMM:  16    -0.413163743023E+03   -0.51571E-06   -0.16930E-07  1106   0.628E-04
    2 T=    61. E= -.41286600E+03 F= -.41316374E+03 E0= -.41314124E+03  EK= 0.29774E+00 SP= 0.00E+00 SK= 0.00E+00
       N       E                     dE             d eps       ncg     rms          rms(c)
RMM:   1    -0.413155463533E+03    0.82790E-02   -0.11218E+01  4195   0.704E-01    0.911E-01
RMM:   2    -0.413165521553E+03   -0.10058E-01   -0.13544E-01  3909   0.972E-02    0.633E-01
RMM:   3    -0.413164776838E+03    0.74472E-03   -0.67377E-03  4838   0.382E-02    0.169E-01
RMM:   4    -0.413192798547E+03   -0.28022E-01   -0.28351E-02  5185   0.141E-01    0.698E-01
RMM:   5    -0.413164374626E+03    0.28424E-01   -0.13817E-02  4831   0.117E-01    0.360E-02
RMM:   6    -0.413164550979E+03   -0.17635E-03   -0.22220E-03  5800   0.459E-02    0.182E-02
RMM:   7    -0.413164563020E+03   -0.12041E-04   -0.26551E-04  5888   0.135E-02    0.135E-02
RMM:   8    -0.413164563704E+03   -0.68409E-06   -0.33951E-05  4340   0.511E-03    0.847E-03
RMM:   9    -0.413164563033E+03    0.67098E-06   -0.53465E-06  2922   0.267E-03
    3 T=    61. E= -.41286652E+03 F= -.41316456E+03 E0= -.41314207E+03  EK= 0.29805E+00 SP= 0.00E+00 SK= 0.00E+00
       N       E                     dE             d eps       ncg     rms          rms(c)
RMM:   1    -0.413154950988E+03    0.96127E-02   -0.11133E+01  4227   0.705E-01    0.894E-01
RMM:   2    -0.413165710085E+03   -0.10759E-01   -0.13417E-01  4176   0.100E-01    0.627E-01
RMM:   3    -0.413167670891E+03   -0.19608E-02   -0.89989E-03  5164   0.656E-02    0.292E-01
RMM:   4    -0.413194557534E+03   -0.26887E-01   -0.40900E-02  5138   0.171E-01    0.724E-01
RMM:   5    -0.413164150686E+03    0.30407E-01   -0.12877E-02  4740   0.121E-01    0.535E-02
RMM:   6    -0.413164208791E+03   -0.58105E-04   -0.21802E-03  5583   0.466E-02    0.161E-02
RMM:   7    -0.413164232527E+03   -0.23736E-04   -0.30791E-04  6042   0.150E-02    0.119E-02
RMM:   8    -0.413164235750E+03   -0.32227E-05   -0.38545E-05  4697   0.552E-03    0.745E-03
RMM:   9    -0.413164237841E+03   -0.20908E-05   -0.68908E-06  3083   0.357E-03    0.359E-03
RMM:  10    -0.413164239699E+03   -0.18585E-05   -0.19527E-06  2557   0.218E-03    0.217E-03
RMM:  11    -0.413164241671E+03   -0.19721E-05   -0.98776E-07  2532   0.155E-03    0.101E-03
RMM:  12    -0.413164242649E+03   -0.97815E-06   -0.46417E-07  2135   0.105E-03
    4 T=    61. E= -.41286620E+03 F= -.41316424E+03 E0= -.41314175E+03  EK= 0.29804E+00 SP= 0.00E+00 SK= 0.00E+00
       N       E                     dE             d eps       ncg     rms          rms(c)
RMM:   1    -0.413154683973E+03    0.95577E-02   -0.11172E+01  4236   0.711E-01    0.884E-01
RMM:   2    -0.413165800698E+03   -0.11117E-01   -0.13828E-01  3994   0.974E-02    0.639E-01
RMM:   3    -0.413164536963E+03    0.12637E-02   -0.62687E-03  4866   0.355E-02    0.161E-01
RMM:   4    -0.413189618967E+03   -0.25082E-01   -0.25437E-02  5170   0.133E-01    0.662E-01
RMM:   5    -0.413164128696E+03    0.25490E-01   -0.12405E-02  4823   0.110E-01    0.321E-02
RMM:   6    -0.413164293605E+03   -0.16491E-03   -0.19846E-03  5820   0.430E-02    0.160E-02
RMM:   7    -0.413164309627E+03   -0.16023E-04   -0.23077E-04  5815   0.126E-02    0.123E-02
RMM:   8    -0.413164314653E+03   -0.50258E-05   -0.30496E-05  4295   0.495E-03    0.799E-03
RMM:   9    -0.413164318998E+03   -0.43450E-05   -0.48143E-06  2870   0.265E-03    0.540E-03
RMM:  10    -0.413164325822E+03   -0.68241E-05   -0.19676E-06  2564   0.204E-03    0.273E-03
RMM:  11    -0.413164331660E+03   -0.58382E-05   -0.14490E-06  2555   0.175E-03    0.139E-03
RMM:  12    -0.413164335172E+03   -0.35111E-05   -0.71111E-07  2411   0.130E-03    0.503E-04
RMM:  13    -0.413164336533E+03   -0.13612E-05   -0.31425E-07  1934   0.903E-04    0.292E-04
RMM:  14    -0.413164337986E+03   -0.14534E-05   -0.21277E-07  1481   0.766E-04    0.169E-04
RMM:  15    -0.413164339750E+03   -0.17634E-05   -0.21946E-07  1523   0.750E-04    0.144E-04
RMM:  16    -0.413164340069E+03   -0.31957E-06   -0.94029E-08  1074   0.623E-04
    5 T=    61. E= -.41286617E+03 F= -.41316434E+03 E0= -.41314186E+03  EK= 0.29817E+00 SP= 0.00E+00 SK= 0.00E+00
       N       E                     dE             d eps       ncg     rms          rms(c)
RMM:   1    -0.413155743841E+03    0.85959E-02   -0.11227E+01  4248   0.716E-01    0.907E-01
RMM:   2    -0.413166130347E+03   -0.10387E-01   -0.13526E-01  3950   0.960E-02    0.635E-01
RMM:   3    -0.413165171677E+03    0.95867E-03   -0.65462E-03  4849   0.365E-02    0.169E-01
RMM:   4    -0.413193193581E+03   -0.28022E-01   -0.28333E-02  5165   0.140E-01    0.698E-01
RMM:   5    -0.413164770618E+03    0.28423E-01   -0.13818E-02  4820   0.116E-01    0.355E-02
RMM:   6    -0.413164946168E+03   -0.17555E-03   -0.22014E-03  5786   0.455E-02    0.178E-02
RMM:   7    -0.413164958005E+03   -0.11837E-04   -0.25955E-04  5866   0.133E-02    0.133E-02
RMM:   8    -0.413164959025E+03   -0.10202E-05   -0.32847E-05  4328   0.509E-03    0.838E-03
RMM:   9    -0.413164958619E+03    0.40630E-06   -0.52603E-06  2893   0.268E-03
    6 T=    61. E= -.41286648E+03 F= -.41316496E+03 E0= -.41314249E+03  EK= 0.29848E+00 SP= 0.00E+00 SK= 0.00E+00
       N       E                     dE             d eps       ncg     rms          rms(c)
RMM:   1    -0.413155378730E+03    0.95803E-02   -0.11166E+01  4269   0.721E-01    0.902E-01
RMM:   2    -0.413165384575E+03   -0.10006E-01   -0.13482E-01  4244   0.997E-02    0.628E-01
RMM:   3    -0.413167685354E+03   -0.23008E-02   -0.90588E-03  5158   0.630E-02    0.287E-01
RMM:   4    -0.413195295574E+03   -0.27610E-01   -0.41022E-02  5125   0.170E-01    0.730E-01
RMM:   5    -0.413164401603E+03    0.30894E-01   -0.13183E-02  4746   0.121E-01    0.531E-02
RMM:   6    -0.413164468124E+03   -0.66521E-04   -0.21948E-03  5612   0.468E-02    0.163E-02
RMM:   7    -0.413164490881E+03   -0.22757E-04   -0.30456E-04  6042   0.149E-02    0.120E-02
RMM:   8    -0.413164492539E+03   -0.16579E-05   -0.38628E-05  4649   0.550E-03    0.748E-03
RMM:   9    -0.413164491650E+03    0.88909E-06   -0.67207E-06  3021   0.358E-03
    7 T=    61. E= -.41286596E+03 F= -.41316449E+03 E0= -.41314205E+03  EK= 0.29853E+00 SP= 0.00E+00 SK= 0.00E+00
       N       E                     dE             d eps       ncg     rms          rms(c)
RMM:   1    -0.413155693484E+03    0.87991E-02   -0.11170E+01  4288   0.730E-01    0.883E-01
RMM:   2    -0.413166588522E+03   -0.10895E-01   -0.13750E-01  4146   0.972E-02    0.636E-01
RMM:   3    -0.413165359897E+03    0.12286E-02   -0.61425E-03  4387   0.332E-02    0.153E-01
RMM:   4    -0.413172341554E+03   -0.69817E-02   -0.72977E-03  5176   0.719E-02    0.354E-01
RMM:   5    -0.413165301893E+03    0.70397E-02   -0.35308E-03  4832   0.586E-02    0.203E-02
RMM:   6    -0.413165301817E+03    0.76016E-07   -0.54969E-04  5818   0.240E-02    0.120E-02
RMM:   7    -0.413165312875E+03   -0.11058E-04   -0.60227E-05  4855   0.721E-03    0.723E-03
RMM:   8    -0.413165318724E+03   -0.58496E-05   -0.65818E-06  3039   0.285E-03    0.438E-03
RMM:   9    -0.413165325049E+03   -0.63246E-05   -0.20345E-06  2551   0.197E-03    0.200E-03
RMM:  10    -0.413165328128E+03   -0.30790E-05   -0.99023E-07  2492   0.146E-03    0.132E-03
RMM:  11    -0.413165331273E+03   -0.31448E-05   -0.91937E-07  2473   0.142E-03    0.740E-04
RMM:  12    -0.413165333281E+03   -0.20085E-05   -0.49004E-07  2175   0.104E-03    0.364E-04
RMM:  13    -0.413165333486E+03   -0.20512E-06   -0.17084E-07  1320   0.707E-04
    8 T=    61. E= -.41286642E+03 F= -.41316533E+03 E0= -.41314290E+03  EK= 0.29892E+00 SP= 0.00E+00 SK= 0.00E+00
       N       E                     dE             d eps       ncg     rms          rms(c)
RMM:   1    -0.413156023515E+03    0.93098E-02   -0.11235E+01  4285   0.729E-01    0.901E-01
RMM:   2    -0.413166585552E+03   -0.10562E-01   -0.13670E-01  4139   0.101E-01    0.638E-01
RMM:   3    -0.413165758517E+03    0.82704E-03   -0.66014E-03  4858   0.417E-02    0.174E-01
RMM:   4    -0.413200953631E+03   -0.35195E-01   -0.36152E-02  5162   0.158E-01    0.781E-01
RMM:   5    -0.413165065989E+03    0.35888E-01   -0.17485E-02  4809   0.131E-01    0.393E-02
RMM:   6    -0.413165279772E+03   -0.21378E-03   -0.27976E-03  5768   0.512E-02    0.179E-02
RMM:   7    -0.413165297723E+03   -0.17951E-04   -0.33411E-04  5906   0.148E-02    0.139E-02
RMM:   8    -0.413165298792E+03   -0.10686E-05   -0.39843E-05  4423   0.545E-03    0.891E-03
RMM:   9    -0.413165298328E+03    0.46353E-06   -0.64002E-06  2973   0.280E-03
    9 T=    61. E= -.41286618E+03 F= -.41316530E+03 E0= -.41314289E+03  EK= 0.29912E+00 SP= 0.00E+00 SK= 0.00E+00
       N       E                     dE             d eps       ncg     rms          rms(c)
RMM:   1    -0.413156504112E+03    0.87947E-02   -0.11220E+01  4293   0.733E-01    0.909E-01
RMM:   2    -0.413166277292E+03   -0.97732E-02   -0.13476E-01  4270   0.978E-02    0.629E-01
RMM:   3    -0.413169059093E+03   -0.27818E-02   -0.95222E-03  5152   0.664E-02    0.301E-01
RMM:   4    -0.413193706584E+03   -0.24647E-01   -0.39306E-02  5114   0.167E-01    0.702E-01
RMM:   5    -0.413165424577E+03    0.28282E-01   -0.11881E-02  4733   0.116E-01    0.525E-02
RMM:   6    -0.413165474022E+03   -0.49445E-04   -0.20012E-03  5592   0.445E-02    0.170E-02
RMM:   7    -0.413165492553E+03   -0.18531E-04   -0.28039E-04  6029   0.146E-02    0.121E-02
RMM:   8    -0.413165492850E+03   -0.29647E-06   -0.35550E-05  4628   0.539E-03    0.745E-03
RMM:   9    -0.413165489314E+03    0.35360E-05   -0.68574E-06  3051   0.358E-03    0.357E-03
RMM:  10    -0.413165488100E+03    0.12137E-05   -0.18646E-06  2548   0.215E-03    0.211E-03
RMM:  11    -0.413165486599E+03    0.15015E-05   -0.99587E-07  2529   0.155E-03    0.983E-04
RMM:  12    -0.413165485642E+03    0.95672E-06   -0.46666E-07  2152   0.105E-03
   10 T=    61. E= -.41286607E+03 F= -.41316549E+03 E0= -.41314310E+03  EK= 0.29941E+00 SP= 0.00E+00 SK= 0.00E+00
       N       E                     dE             d eps       ncg     rms          rms(c)
RMM:   1    -0.413156614933E+03    0.88717E-02   -0.11173E+01  4293   0.737E-01    0.885E-01
RMM:   2    -0.413167656093E+03   -0.11041E-01   -0.13669E-01  4176   0.960E-02    0.634E-01
RMM:   3    -0.413166543098E+03    0.11130E-02   -0.62117E-03  4859   0.399E-02    0.168E-01
RMM:   4    -0.413196755845E+03   -0.30213E-01   -0.30710E-02  5155   0.146E-01    0.725E-01
RMM:   5    -0.413165996134E+03    0.30760E-01   -0.15177E-02  4809   0.121E-01    0.349E-02
RMM:   6    -0.413166180385E+03   -0.18425E-03   -0.23137E-03  5784   0.470E-02    0.173E-02
RMM:   7    -0.413166194462E+03   -0.14077E-04   -0.27391E-04  5854   0.138E-02    0.131E-02
RMM:   8    -0.413166196924E+03   -0.24619E-05   -0.35955E-05  4426   0.526E-03    0.864E-03
RMM:   9    -0.413166197522E+03   -0.59876E-06   -0.57375E-06  2938   0.277E-03
   11 T=    61. E= -.41286629E+03 F= -.41316620E+03 E0= -.41314384E+03  EK= 0.29991E+00 SP= 0.00E+00 SK= 0.00E+00
       N       E                     dE             d eps       ncg     rms          rms(c)
RMM:   1    -0.413156645678E+03    0.95512E-02   -0.11256E+01  4299   0.745E-01    0.896E-01
RMM:   2    -0.413167291032E+03   -0.10645E-01   -0.13853E-01  4291   0.997E-02    0.641E-01
RMM:   3    -0.413169672339E+03   -0.23813E-02   -0.91823E-03  5134   0.678E-02    0.298E-01
RMM:   4    -0.413199054429E+03   -0.29382E-01   -0.44345E-02  5106   0.177E-01    0.754E-01
RMM:   5    -0.413165914161E+03    0.33140E-01   -0.14054E-02  4731   0.125E-01    0.527E-02
RMM:   6    -0.413165995232E+03   -0.81071E-04   -0.23352E-03  5622   0.480E-02    0.146E-02
RMM:   7    -0.413166019425E+03   -0.24193E-04   -0.31123E-04  6033   0.151E-02    0.116E-02
RMM:   8    -0.413166022821E+03   -0.33966E-05   -0.39192E-05  4661   0.554E-03    0.725E-03
RMM:   9    -0.413166025236E+03   -0.24151E-05   -0.68193E-06  3003   0.355E-03    0.368E-03
RMM:  10    -0.413166027129E+03   -0.18930E-05   -0.22069E-06  2561   0.223E-03    0.216E-03
RMM:  11    -0.413166028697E+03   -0.15677E-05   -0.11745E-06  2543   0.158E-03    0.976E-04
RMM:  12    -0.413166029344E+03   -0.64672E-06   -0.51054E-07  2125   0.106E-03
   12 T=    61. E= -.41286579E+03 F= -.41316603E+03 E0= -.41314370E+03  EK= 0.30024E+00 SP= 0.00E+00 SK= 0.00E+00
       N       E                     dE             d eps       ncg     rms          rms(c)
RMM:   1    -0.413157664298E+03    0.83644E-02   -0.11285E+01  4296   0.748E-01    0.915E-01
RMM:   2    -0.413167637437E+03   -0.99731E-02   -0.13528E-01  4215   0.956E-02    0.632E-01
RMM:   3    -0.413167074544E+03    0.56289E-03   -0.67938E-03  4912   0.374E-02    0.174E-01
RMM:   4    -0.413197829026E+03   -0.30754E-01   -0.31255E-02  5153   0.147E-01    0.730E-01
RMM:   5    -0.413166590624E+03    0.31238E-01   -0.15318E-02  4807   0.122E-01    0.374E-02
RMM:   6    -0.413166779307E+03   -0.18868E-03   -0.24560E-03  5795   0.476E-02    0.191E-02
RMM:   7    -0.413166789107E+03   -0.98007E-05   -0.28761E-04  5870   0.140E-02    0.141E-02
RMM:   8    -0.413166787235E+03    0.18720E-05   -0.37298E-05  4468   0.537E-03    0.922E-03
RMM:   9    -0.413166782669E+03    0.45659E-05   -0.60253E-06  2962   0.278E-03    0.628E-03
RMM:  10    -0.413166778394E+03    0.42759E-05   -0.21152E-06  2554   0.215E-03    0.313E-03
RMM:  11    -0.413166775053E+03    0.33404E-05   -0.15975E-06  2537   0.189E-03    0.155E-03
RMM:  12    -0.413166772380E+03    0.26732E-05   -0.78673E-07  2442   0.141E-03    0.515E-04
RMM:  13    -0.413166771495E+03    0.88458E-06   -0.33725E-07  2090   0.959E-04
   13 T=    61. E= -.41286594E+03 F= -.41316677E+03 E0= -.41314447E+03  EK= 0.30084E+00 SP= 0.00E+00 SK= 0.00E+00
       N       E                     dE             d eps       ncg     rms          rms(c)
RMM:   1    -0.413157710231E+03    0.90621E-02   -0.11201E+01  4294   0.750E-01    0.889E-01
RMM:   2    -0.413168449273E+03   -0.10739E-01   -0.13717E-01  4225   0.953E-02    0.632E-01
RMM:   3    -0.413167584227E+03    0.86505E-03   -0.63069E-03  4845   0.377E-02    0.170E-01
RMM:   4    -0.413196965803E+03   -0.29382E-01   -0.29932E-02  5150   0.144E-01    0.715E-01
RMM:   5    -0.413167074480E+03    0.29891E-01   -0.14641E-02  4806   0.119E-01    0.351E-02
RMM:   6    -0.413167257306E+03   -0.18283E-03   -0.23412E-03  5789   0.464E-02    0.173E-02
RMM:   7    -0.413167269805E+03   -0.12500E-04   -0.27139E-04  5840   0.136E-02    0.132E-02
RMM:   8    -0.413167270039E+03   -0.23323E-06   -0.34424E-05  4362   0.519E-03    0.859E-03
RMM:   9    -0.413167268495E+03    0.15438E-05   -0.55673E-06  2912   0.276E-03    0.591E-03
RMM:  10    -0.413167267964E+03    0.53070E-06   -0.21320E-06  2558   0.219E-03
   14 T=    61. E= -.41286599E+03 F= -.41316727E+03 E0= -.41314500E+03  EK= 0.30128E+00 SP= 0.00E+00 SK= 0.00E+00
       N       E                     dE             d eps       ncg     rms          rms(c)
RMM:   1    -0.413157679225E+03    0.95893E-02   -0.11289E+01  4304   0.757E-01    0.893E-01
RMM:   2    -0.413169212921E+03   -0.11534E-01   -0.13957E-01  4286   0.100E-01    0.643E-01
RMM:   3    -0.413171168691E+03   -0.19558E-02   -0.91411E-03  5121   0.672E-02    0.299E-01
RMM:   4    -0.413201502294E+03   -0.30334E-01   -0.45696E-02  5103   0.179E-01    0.764E-01
RMM:   5    -0.413167387565E+03    0.34115E-01   -0.14501E-02  4726   0.127E-01    0.510E-02
RMM:   6    -0.413167479202E+03   -0.91637E-04   -0.23871E-03  5631   0.482E-02    0.142E-02
RMM:   7    -0.413167505141E+03   -0.25938E-04   -0.31072E-04  6012   0.149E-02    0.113E-02
RMM:   8    -0.413167508372E+03   -0.32315E-05   -0.37923E-05  4573   0.541E-03    0.686E-03
RMM:   9    -0.413167510344E+03   -0.19718E-05   -0.59797E-06  2868   0.322E-03    0.339E-03
RMM:  10    -0.413167512058E+03   -0.17135E-05   -0.22415E-06  2562   0.214E-03    0.199E-03
RMM:  11    -0.413167513264E+03   -0.12064E-05   -0.10682E-06  2536   0.150E-03    0.869E-04
RMM:  12    -0.413167513841E+03   -0.57716E-06   -0.49292E-07  1967   0.104E-03
   15 T=    61. E= -.41286590E+03 F= -.41316751E+03 E0= -.41314528E+03  EK= 0.30162E+00 SP= 0.00E+00 SK= 0.00E+00
       N       E                     dE             d eps       ncg     rms          rms(c)
RMM:   1    -0.413159751719E+03    0.77615E-02   -0.11338E+01  4301   0.773E-01    0.917E-01
RMM:   2    -0.413169407719E+03   -0.96560E-02   -0.13668E-01  4249   0.102E-01    0.635E-01
RMM:   3    -0.413168697969E+03    0.70975E-03   -0.68109E-03  4907   0.398E-02    0.177E-01
RMM:   4    -0.413202058075E+03   -0.33360E-01   -0.34048E-02  5150   0.153E-01    0.760E-01
RMM:   5    -0.413168152876E+03    0.33905E-01   -0.16553E-02  4805   0.127E-01    0.385E-02
RMM:   6    -0.413168348672E+03   -0.19580E-03   -0.26739E-03  5800   0.495E-02    0.192E-02
RMM:   7    -0.413168358670E+03   -0.99985E-05   -0.30667E-04  5872   0.145E-02    0.143E-02
RMM:   8    -0.413168356099E+03    0.25711E-05   -0.39631E-05  4523   0.552E-03    0.953E-03
RMM:   9    -0.413168350869E+03    0.52303E-05   -0.63052E-06  2976   0.285E-03    0.651E-03
RMM:  10    -0.413168345572E+03    0.52973E-05   -0.22816E-06  2562   0.225E-03    0.320E-03
RMM:  11    -0.413168341503E+03    0.40686E-05   -0.16952E-06  2538   0.194E-03    0.158E-03
RMM:  12    -0.413168338357E+03    0.31461E-05   -0.80179E-07  2454   0.145E-03    0.520E-04
RMM:  13    -0.413168337266E+03    0.10905E-05   -0.34690E-07  2126   0.979E-04    0.330E-04
RMM:  14    -0.413168335794E+03    0.14721E-05   -0.20384E-07  1639   0.784E-04    0.189E-04
RMM:  15    -0.413168333159E+03    0.26357E-05   -0.20682E-07  1581   0.764E-04    0.157E-04
RMM:  16    -0.413168332572E+03    0.58648E-06   -0.77866E-08  1054   0.614E-04
   16 T=    62. E= -.41286615E+03 F= -.41316833E+03 E0= -.41314614E+03  EK= 0.30218E+00 SP= 0.00E+00 SK= 0.00E+00
       N       E                     dE             d eps       ncg     rms          rms(c)
RMM:   1    -0.413159217518E+03    0.91156E-02   -0.11242E+01  4295   0.760E-01    0.896E-01
RMM:   2    -0.413170022360E+03   -0.10805E-01   -0.13752E-01  4248   0.986E-02    0.631E-01
RMM:   3    -0.413169214809E+03    0.80755E-03   -0.64167E-03  4904   0.400E-02    0.178E-01
RMM:   4    -0.413204527168E+03   -0.35312E-01   -0.36312E-02  5143   0.158E-01    0.781E-01
RMM:   5    -0.413168615787E+03    0.35911E-01   -0.17535E-02  4797   0.131E-01    0.392E-02
RMM:   6    -0.413168824021E+03   -0.20823E-03   -0.28435E-03  5780   0.509E-02    0.186E-02
RMM:   7    -0.413168836334E+03   -0.12313E-04   -0.32854E-04  5881   0.148E-02    0.142E-02
RMM:   8    -0.413168834838E+03    0.14962E-05   -0.40659E-05  4481   0.551E-03    0.932E-03
RMM:   9    -0.413168830904E+03    0.39338E-05   -0.65668E-06  2991   0.283E-03    0.645E-03
RMM:  10    -0.413168827327E+03    0.35774E-05   -0.23120E-06  2561   0.226E-03    0.314E-03
RMM:  11    -0.413168824847E+03    0.24801E-05   -0.16333E-06  2534   0.192E-03    0.156E-03
RMM:  12    -0.413168822951E+03    0.18956E-05   -0.78256E-07  2445   0.143E-03    0.526E-04
RMM:  13    -0.413168822237E+03    0.71382E-06   -0.34696E-07  2127   0.979E-04
   17 T=    62. E= -.41286614E+03 F= -.41316882E+03 E0= -.41314666E+03  EK= 0.30269E+00 SP= 0.00E+00 SK= 0.00E+00
       N       E                     dE             d eps       ncg     rms          rms(c)
RMM:   1    -0.413159529314E+03    0.92936E-02   -0.11325E+01  4298   0.769E-01    0.890E-01
RMM:   2    -0.413171067623E+03   -0.11538E-01   -0.14005E-01  4262   0.101E-01    0.644E-01
RMM:   3    -0.413169732111E+03    0.13355E-02   -0.62599E-03  4877   0.386E-02    0.170E-01
RMM:   4    -0.413201856550E+03   -0.32124E-01   -0.32947E-02  5153   0.151E-01    0.746E-01
RMM:   5    -0.413169147030E+03    0.32710E-01   -0.16031E-02  4805   0.125E-01    0.362E-02
RMM:   6    -0.413169336624E+03   -0.18959E-03   -0.25473E-03  5796   0.486E-02    0.173E-02
RMM:   7    -0.413169350044E+03   -0.13419E-04   -0.29102E-04  5857   0.141E-02    0.134E-02
RMM:   8    -0.413169351057E+03   -0.10130E-05   -0.37491E-05  4458   0.536E-03    0.883E-03
RMM:   9    -0.413169350119E+03    0.93774E-06   -0.60100E-06  2953   0.282E-03
   18 T=    62. E= -.41286596E+03 F= -.41316935E+03 E0= -.41314723E+03  EK= 0.30339E+00 SP= 0.00E+00 SK= 0.00E+00
       N       E                     dE             d eps       ncg     rms          rms(c)
RMM:   1    -0.413161284567E+03    0.80665E-02   -0.11388E+01  4300   0.774E-01    0.915E-01
RMM:   2    -0.413171524846E+03   -0.10240E-01   -0.13849E-01  4310   0.102E-01    0.639E-01
RMM:   3    -0.413174435544E+03   -0.29107E-02   -0.97053E-03  5135   0.686E-02    0.312E-01
RMM:   4    -0.413199498762E+03   -0.25063E-01   -0.41094E-02  5098   0.171E-01    0.710E-01
RMM:   5    -0.413170374970E+03    0.29124E-01   -0.12167E-02  4720   0.118E-01    0.513E-02
RMM:   6    -0.413170424973E+03   -0.50003E-04   -0.20296E-03  5591   0.448E-02    0.162E-02
RMM:   7    -0.413170440513E+03   -0.15540E-04   -0.28130E-04  6021   0.145E-02    0.120E-02
RMM:   8    -0.413170438944E+03    0.15689E-05   -0.35790E-05  4622   0.538E-03    0.741E-03
RMM:   9    -0.413170431694E+03    0.72502E-05   -0.66550E-06  2980   0.362E-03    0.367E-03
RMM:  10    -0.413170428323E+03    0.33706E-05   -0.19432E-06  2539   0.218E-03    0.210E-03
RMM:  11    -0.413170424392E+03    0.39313E-05   -0.98991E-07  2519   0.155E-03    0.955E-04
RMM:  12    -0.413170422086E+03    0.23056E-05   -0.45968E-07  2166   0.105E-03    0.456E-04
RMM:  13    -0.413170419163E+03    0.29229E-05   -0.35588E-07  1837   0.899E-04    0.230E-04
RMM:  14    -0.413170417325E+03    0.18381E-05   -0.20050E-07  1403   0.736E-04    0.134E-04
RMM:  15    -0.413170414585E+03    0.27397E-05   -0.20926E-07  1549   0.748E-04    0.956E-05
RMM:  16    -0.413170413069E+03    0.15165E-05   -0.11752E-07  1280   0.638E-04    0.898E-05
RMM:  17    -0.413170410291E+03    0.27783E-05   -0.12862E-07  1347   0.649E-04    0.351E-05
RMM:  18    -0.413170409358E+03    0.93218E-06   -0.59781E-08   938   0.543E-04
   19 T=    62. E= -.41286612E+03 F= -.41317041E+03 E0= -.41314833E+03  EK= 0.30429E+00 SP= 0.00E+00 SK= 0.00E+00
       N       E                     dE             d eps       ncg     rms          rms(c)
RMM:   1    -0.413161607906E+03    0.88024E-02   -0.11337E+01  4297   0.783E-01    0.905E-01
RMM:   2    -0.413172081934E+03   -0.10474E-01   -0.13752E-01  4257   0.992E-02    0.632E-01
RMM:   3    -0.413171524916E+03    0.55702E-03   -0.65857E-03  4966   0.407E-02    0.186E-01
RMM:   4    -0.413210791318E+03   -0.39266E-01   -0.41039E-02  5144   0.168E-01    0.823E-01
RMM:   5    -0.413170788705E+03    0.40003E-01   -0.19569E-02  4795   0.138E-01    0.419E-02
RMM:   6    -0.413171000561E+03   -0.21186E-03   -0.30895E-03  5758   0.540E-02    0.193E-02
RMM:   7    -0.413171014223E+03   -0.13662E-04   -0.36560E-04  5870   0.156E-02    0.147E-02
RMM:   8    -0.413171011853E+03    0.23703E-05   -0.45801E-05  4612   0.581E-03    0.968E-03
RMM:   9    -0.413171006219E+03    0.56335E-05   -0.71087E-06  3026   0.289E-03    0.662E-03
RMM:  10    -0.413171000443E+03    0.57767E-05   -0.24337E-06  2562   0.231E-03    0.318E-03
RMM:  11    -0.413170996172E+03    0.42710E-05   -0.16274E-06  2526   0.194E-03    0.155E-03
RMM:  12    -0.413170993256E+03    0.29153E-05   -0.79482E-07  2454   0.145E-03    0.512E-04
RMM:  13    -0.413170992238E+03    0.10178E-05   -0.34245E-07  2132   0.991E-04    0.336E-04
RMM:  14    -0.413170990971E+03    0.12674E-05   -0.19058E-07  1648   0.779E-04    0.191E-04
RMM:  15    -0.413170988556E+03    0.24150E-05   -0.17142E-07  1522   0.744E-04    0.138E-04
RMM:  16    -0.413170988047E+03    0.50930E-06   -0.72338E-08  1058   0.614E-04
   20 T=    62. E= -.41286597E+03 F= -.41317099E+03 E0= -.41314895E+03  EK= 0.30501E+00 SP= 0.00E+00 SK= 0.00E+00
       N       E                     dE             d eps       ncg     rms          rms(c)
RMM:   1    -0.413162157502E+03    0.88311E-02   -0.11380E+01  4297   0.786E-01    0.891E-01
RMM:   2    -0.413173356519E+03   -0.11199E-01   -0.14189E-01  4270   0.105E-01    0.644E-01
RMM:   3    -0.413172205801E+03    0.11507E-02   -0.63875E-03  4901   0.416E-02    0.177E-01
RMM:   4    -0.413209463410E+03   -0.37258E-01   -0.38590E-02  5146   0.163E-01    0.802E-01
RMM:   5    -0.413171497695E+03    0.37966E-01   -0.18709E-02  4801   0.135E-01    0.391E-02
RMM:   6    -0.413171704366E+03   -0.20667E-03   -0.29629E-03  5794   0.528E-02    0.179E-02
RMM:   7    -0.413171720949E+03   -0.16583E-04   -0.34565E-04  5883   0.152E-02    0.140E-02
RMM:   8    -0.413171721005E+03   -0.55810E-07   -0.44337E-05  4578   0.571E-03    0.937E-03
RMM:   9    -0.413171718600E+03    0.24048E-05   -0.68403E-06  3009   0.290E-03    0.654E-03
RMM:  10    -0.413171717205E+03    0.13951E-05   -0.24638E-06  2570   0.234E-03    0.322E-03
RMM:  11    -0.413171716470E+03    0.73522E-06   -0.17642E-06  2548   0.197E-03
   21 T=    62. E= -.41286583E+03 F= -.41317172E+03 E0= -.41314973E+03  EK= 0.30589E+00 SP= 0.00E+00 SK= 0.00E+00
       N       E                     dE             d eps       ncg     rms          rms(c)
RMM:   1    -0.413163372932E+03    0.83443E-02   -0.11462E+01  4298   0.789E-01    0.913E-01
RMM:   2    -0.413174162950E+03   -0.10790E-01   -0.14066E-01  4293   0.102E-01    0.643E-01
RMM:   3    -0.413174185997E+03   -0.23047E-04   -0.72274E-03  5023   0.509E-02    0.216E-01
RMM:   4    -0.413219587306E+03   -0.45401E-01   -0.50903E-02  5131   0.187E-01    0.888E-01
RMM:   5    -0.413172811541E+03    0.46776E-01   -0.22261E-02  4786   0.149E-01    0.469E-02
RMM:   6    -0.413173018464E+03   -0.20692E-03   -0.34915E-03  5751   0.583E-02    0.185E-02
RMM:   7    -0.413173038896E+03   -0.20431E-04   -0.42036E-04  5958   0.167E-02    0.151E-02
RMM:   8    -0.413173037092E+03    0.18036E-05   -0.52149E-05  4766   0.611E-03    0.977E-03
RMM:   9    -0.413173031320E+03    0.57718E-05   -0.74667E-06  3029   0.294E-03    0.616E-03
RMM:  10    -0.413173025556E+03    0.57636E-05   -0.27393E-06  2582   0.239E-03    0.285E-03
RMM:  11    -0.413173021366E+03    0.41902E-05   -0.14479E-06  2518   0.184E-03    0.135E-03
RMM:  12    -0.413173018097E+03    0.32688E-05   -0.75790E-07  2454   0.139E-03    0.444E-04
RMM:  13    -0.413173016367E+03    0.17308E-05   -0.34065E-07  2093   0.971E-04    0.304E-04
RMM:  14    -0.413173013975E+03    0.23915E-05   -0.22263E-07  1648   0.798E-04    0.201E-04
RMM:  15    -0.413173011771E+03    0.22044E-05   -0.14804E-07  1401   0.709E-04    0.108E-04
RMM:  16    -0.413173010812E+03    0.95840E-06   -0.82827E-08  1144   0.631E-04
   22 T=    62. E= -.41286619E+03 F= -.41317301E+03 E0= -.41315107E+03  EK= 0.30682E+00 SP= 0.00E+00 SK= 0.00E+00
       N       E                     dE             d eps       ncg     rms          rms(c)
RMM:   1    -0.413164333536E+03    0.86782E-02   -0.11451E+01  4298   0.792E-01    0.915E-01
RMM:   2    -0.413174821071E+03   -0.10488E-01   -0.13896E-01  4284   0.106E-01    0.635E-01
RMM:   3    -0.413174244236E+03    0.57683E-03   -0.67776E-03  4882   0.448E-02    0.186E-01
RMM:   4    -0.413212730971E+03   -0.38487E-01   -0.39954E-02  5146   0.166E-01    0.816E-01
RMM:   5    -0.413173427441E+03    0.39304E-01   -0.19289E-02  4796   0.137E-01    0.414E-02
RMM:   6    -0.413173634968E+03   -0.20753E-03   -0.31284E-03  5775   0.543E-02    0.199E-02
RMM:   7    -0.413173648364E+03   -0.13397E-04   -0.36031E-04  5885   0.156E-02    0.150E-02
RMM:   8    -0.413173644911E+03    0.34536E-05   -0.46328E-05  4657   0.594E-03    0.101E-02
RMM:   9    -0.413173637827E+03    0.70833E-05   -0.72313E-06  3050   0.305E-03    0.695E-03
RMM:  10    -0.413173629722E+03    0.81057E-05   -0.24798E-06  2566   0.249E-03    0.344E-03
RMM:  11    -0.413173623189E+03    0.65332E-05   -0.16997E-06  2528   0.202E-03    0.173E-03
RMM:  12    -0.413173618497E+03    0.46915E-05   -0.84005E-07  2465   0.151E-03    0.559E-04
RMM:  13    -0.413173616816E+03    0.16809E-05   -0.36320E-07  2167   0.102E-03    0.357E-04
RMM:  14    -0.413173614831E+03    0.19854E-05   -0.19932E-07  1694   0.794E-04    0.203E-04
RMM:  15    -0.413173610841E+03    0.39899E-05   -0.18100E-07  1675   0.765E-04    0.167E-04
RMM:  16    -0.413173610123E+03    0.71776E-06   -0.73146E-08  1073   0.607E-04
   23 T=    63. E= -.41286592E+03 F= -.41317361E+03 E0= -.41315172E+03  EK= 0.30769E+00 SP= 0.00E+00 SK= 0.00E+00
       N       E                     dE             d eps       ncg     rms          rms(c)
RMM:   1    -0.413165415055E+03    0.81958E-02   -0.11449E+01  4292   0.795E-01    0.894E-01
RMM:   2    -0.413176887005E+03   -0.11472E-01   -0.14241E-01  4278   0.105E-01    0.643E-01
RMM:   3    -0.413175593256E+03    0.12937E-02   -0.62520E-03  4836   0.416E-02    0.174E-01
RMM:   4    -0.413206771640E+03   -0.31178E-01   -0.31821E-02  5155   0.148E-01    0.735E-01
RMM:   5    -0.413175075612E+03    0.31696E-01   -0.15682E-02  4801   0.123E-01    0.353E-02
RMM:   6    -0.413175249437E+03   -0.17382E-03   -0.25279E-03  5773   0.485E-02    0.174E-02
RMM:   7    -0.413175262736E+03   -0.13299E-04   -0.27822E-04  5834   0.139E-02    0.130E-02
RMM:   8    -0.413175261812E+03    0.92386E-06   -0.37513E-05  4525   0.537E-03    0.914E-03
RMM:   9    -0.413175257503E+03    0.43091E-05   -0.62165E-06  2996   0.286E-03    0.634E-03
RMM:  10    -0.413175254235E+03    0.32681E-05   -0.21161E-06  2556   0.221E-03    0.322E-03
RMM:  11    -0.413175251879E+03    0.23559E-05   -0.16645E-06  2544   0.194E-03    0.164E-03
RMM:  12    -0.413175250053E+03    0.18255E-05   -0.74106E-07  2439   0.142E-03    0.581E-04
RMM:  13    -0.413175249403E+03    0.65094E-06   -0.32136E-07  2104   0.959E-04
   24 T=    63. E= -.41286628E+03 F= -.41317525E+03 E0= -.41315340E+03  EK= 0.30897E+00 SP= 0.00E+00 SK= 0.00E+00
       N       E                     dE             d eps       ncg     rms          rms(c)
RMM:   1    -0.413166525682E+03    0.87244E-02   -0.11561E+01  4295   0.805E-01    0.910E-01
RMM:   2    -0.413177821702E+03   -0.11296E-01   -0.14238E-01  4278   0.106E-01    0.648E-01
RMM:   3    -0.413176536529E+03    0.12852E-02   -0.64278E-03  4803   0.429E-02    0.175E-01
RMM:   4    -0.413207194011E+03   -0.30657E-01   -0.31047E-02  5154   0.147E-01    0.728E-01
RMM:   5    -0.413176075194E+03    0.31119E-01   -0.15389E-02  4807   0.122E-01    0.352E-02
RMM:   6    -0.413176242029E+03   -0.16684E-03   -0.24650E-03  5781   0.478E-02    0.179E-02
RMM:   7    -0.413176254114E+03   -0.12084E-04   -0.26860E-04  5819   0.138E-02    0.130E-02
RMM:   8    -0.413176252234E+03    0.18792E-05   -0.36752E-05  4538   0.539E-03    0.925E-03
RMM:   9    -0.413176246744E+03    0.54907E-05   -0.63322E-06  3042   0.293E-03    0.638E-03
RMM:  10    -0.413176241693E+03    0.50506E-05   -0.21206E-06  2557   0.228E-03    0.324E-03
RMM:  11    -0.413176237556E+03    0.41366E-05   -0.16561E-06  2540   0.196E-03    0.163E-03
RMM:  12    -0.413176234668E+03    0.28881E-05   -0.72048E-07  2433   0.141E-03    0.559E-04
RMM:  13    -0.413176233598E+03    0.10702E-05   -0.31566E-07  2093   0.948E-04    0.337E-04
RMM:  14    -0.413176232103E+03    0.14947E-05   -0.17661E-07  1579   0.759E-04    0.188E-04
RMM:  15    -0.413176229479E+03    0.26248E-05   -0.15569E-07  1529   0.732E-04    0.169E-04
RMM:  16    -0.413176228886E+03    0.59300E-06   -0.62141E-08   987   0.599E-04
   25 T=    63. E= -.41286622E+03 F= -.41317623E+03 E0= -.41315443E+03  EK= 0.31001E+00 SP= 0.00E+00 SK= 0.00E+00
       N       E                     dE             d eps       ncg     rms          rms(c)
RMM:   1    -0.413167790771E+03    0.84387E-02   -0.11587E+01  4294   0.812E-01    0.925E-01
RMM:   2    -0.413178194579E+03   -0.10404E-01   -0.14153E-01  4272   0.110E-01    0.640E-01
RMM:   3    -0.413177473798E+03    0.72078E-03   -0.66809E-03  4702   0.403E-02    0.174E-01
RMM:   4    -0.413199836514E+03   -0.22363E-01   -0.22552E-02  5151   0.126E-01    0.625E-01
RMM:   5    -0.413177125418E+03    0.22711E-01   -0.11320E-02  4812   0.104E-01    0.316E-02
RMM:   6    -0.413177237280E+03   -0.11186E-03   -0.17714E-03  5808   0.400E-02    0.171E-02
RMM:   7    -0.413177241522E+03   -0.42423E-05   -0.17521E-04  5542   0.115E-02    0.108E-02
RMM:   8    -0.413177235114E+03    0.64081E-05   -0.21968E-05  3854   0.429E-03    0.756E-03
RMM:   9    -0.413177227406E+03    0.77088E-05   -0.52476E-06  2953   0.275E-03    0.508E-03
RMM:  10    -0.413177221505E+03    0.59004E-05   -0.16275E-06  2532   0.205E-03    0.294E-03
RMM:  11    -0.413177213078E+03    0.84268E-05   -0.13416E-06  2510   0.185E-03    0.143E-03
RMM:  12    -0.413177208409E+03    0.46696E-05   -0.56772E-07  2379   0.129E-03    0.570E-04
RMM:  13    -0.413177206509E+03    0.18996E-05   -0.24562E-07  1954   0.881E-04    0.315E-04
RMM:  14    -0.413177203551E+03    0.29578E-05   -0.14527E-07  1510   0.730E-04    0.155E-04
RMM:  15    -0.413177199386E+03    0.41651E-05   -0.13276E-07  1553   0.711E-04    0.189E-04
RMM:  16    -0.413177198520E+03    0.86632E-06   -0.47301E-08   927   0.573E-04
   26 T=    63. E= -.41286590E+03 F= -.41317720E+03 E0= -.41315545E+03  EK= 0.31130E+00 SP= 0.00E+00 SK= 0.00E+00
       N       E                     dE             d eps       ncg     rms          rms(c)
RMM:   1    -0.413169042124E+03    0.81573E-02   -0.11562E+01  4292   0.815E-01    0.900E-01
RMM:   2    -0.413180441201E+03   -0.11399E-01   -0.14315E-01  4273   0.106E-01    0.643E-01
RMM:   3    -0.413179382186E+03    0.10590E-02   -0.62982E-03  4638   0.405E-02    0.171E-01
RMM:   4    -0.413197816229E+03   -0.18434E-01   -0.18565E-02  5158   0.114E-01    0.568E-01
RMM:   5    -0.413179154726E+03    0.18662E-01   -0.92565E-03  4809   0.939E-02    0.277E-02
RMM:   6    -0.413179246406E+03   -0.91681E-04   -0.14632E-03  5833   0.359E-02    0.152E-02
RMM:   7    -0.413179251627E+03   -0.52205E-05   -0.13811E-04  5431   0.103E-02    0.956E-03
RMM:   8    -0.413179246655E+03    0.49722E-05   -0.16236E-05  3515   0.376E-03    0.638E-03
RMM:   9    -0.413179241632E+03    0.50223E-05   -0.33302E-06  2632   0.243E-03    0.353E-03
RMM:  10    -0.413179239154E+03    0.24782E-05   -0.11846E-06  2513   0.168E-03    0.243E-03
RMM:  11    -0.413179234930E+03    0.42242E-05   -0.10006E-06  2498   0.161E-03    0.119E-03
RMM:  12    -0.413179232351E+03    0.25789E-05   -0.46884E-07  2314   0.114E-03    0.438E-04
RMM:  13    -0.413179231526E+03    0.82498E-06   -0.20043E-07  1634   0.792E-04
   27 T=    64. E= -.41286619E+03 F= -.41317923E+03 E0= -.41315753E+03  EK= 0.31304E+00 SP= 0.00E+00 SK= 0.00E+00
       N       E                     dE             d eps       ncg     rms          rms(c)
RMM:   1    -0.413172751836E+03    0.64805E-02   -0.11723E+01  4289   0.844E-01    0.909E-01
RMM:   2    -0.413181542698E+03   -0.87909E-02   -0.14722E-01  4270   0.108E-01    0.654E-01
RMM:   3    -0.413180348814E+03    0.11939E-02   -0.63892E-03  4499   0.412E-02    0.168E-01
RMM:   4    -0.413190899493E+03   -0.10551E-01   -0.11007E-02  5153   0.905E-02    0.434E-01
RMM:   5    -0.413180111787E+03    0.10788E-01   -0.52755E-03  4818   0.710E-02    0.221E-02
RMM:   6    -0.413180151949E+03   -0.40162E-04   -0.83885E-04  5849   0.271E-02    0.135E-02
RMM:   7    -0.413180154972E+03   -0.30228E-05   -0.89100E-05  5352   0.867E-03    0.943E-03
RMM:   8    -0.413180149316E+03    0.56565E-05   -0.12712E-05  3655   0.381E-03    0.561E-03
RMM:   9    -0.413180145814E+03    0.35020E-05   -0.26767E-06  2660   0.236E-03    0.363E-03
RMM:  10    -0.413180141905E+03    0.39090E-05   -0.97230E-07  2503   0.161E-03    0.196E-03
RMM:  11    -0.413180138190E+03    0.37145E-05   -0.76734E-07  2472   0.137E-03    0.931E-04
RMM:  12    -0.413180135423E+03    0.27672E-05   -0.39072E-07  2174   0.101E-03    0.319E-04
RMM:  13    -0.413180134401E+03    0.10216E-05   -0.16374E-07  1432   0.728E-04    0.191E-04
RMM:  14    -0.413180132647E+03    0.17542E-05   -0.11319E-07  1221   0.673E-04    0.126E-04
RMM:  15    -0.413180130274E+03    0.23734E-05   -0.99796E-08  1243   0.663E-04    0.914E-05
RMM:  16    -0.413180129487E+03    0.78691E-06   -0.47158E-08   927   0.586E-04
   28 T=    64. E= -.41286570E+03 F= -.41318013E+03 E0= -.41315848E+03  EK= 0.31443E+00 SP= 0.00E+00 SK= 0.00E+00
       N       E                     dE             d eps       ncg     rms          rms(c)
RMM:   1    -0.413172995685E+03    0.71346E-02   -0.11774E+01  4289   0.843E-01    0.933E-01
RMM:   2    -0.413183443018E+03   -0.10447E-01   -0.14434E-01  4265   0.114E-01    0.646E-01
RMM:   3    -0.413182556154E+03    0.88686E-03   -0.67733E-03  4399   0.410E-02    0.172E-01
RMM:   4    -0.413188245366E+03   -0.56892E-02   -0.61603E-03  5169   0.670E-02    0.318E-01
RMM:   5    -0.413182512159E+03    0.57332E-02   -0.28315E-03  4828   0.520E-02    0.219E-02
RMM:   6    -0.413182523377E+03   -0.11218E-04   -0.46929E-04  5803   0.207E-02    0.149E-02
RMM:   7    -0.413182517798E+03    0.55786E-05   -0.65377E-05  5176   0.782E-03    0.831E-03
RMM:   8    -0.413182508630E+03    0.91680E-05   -0.73819E-06  3051   0.330E-03    0.393E-03
RMM:   9    -0.413182502396E+03    0.62344E-05   -0.15674E-06  2548   0.195E-03    0.246E-03
RMM:  10    -0.413182495417E+03    0.69792E-05   -0.76948E-07  2468   0.141E-03    0.135E-03
RMM:  11    -0.413182489489E+03    0.59279E-05   -0.48192E-07  2268   0.111E-03    0.521E-04
RMM:  12    -0.413182485342E+03    0.41469E-05   -0.25104E-07  1782   0.857E-04    0.199E-04
RMM:  13    -0.413182482474E+03    0.28675E-05   -0.13725E-07  1310   0.706E-04    0.120E-04
RMM:  14    -0.413182478786E+03    0.36887E-05   -0.10950E-07  1358   0.685E-04    0.829E-05
RMM:  15    -0.413182475677E+03    0.31089E-05   -0.84215E-08  1276   0.641E-04    0.811E-05
RMM:  16    -0.413182473709E+03    0.19681E-05   -0.54256E-08  1050   0.578E-04    0.455E-05
RMM:  17    -0.413182471423E+03    0.22856E-05   -0.51521E-08  1050   0.577E-04    0.227E-05
RMM:  18    -0.413182471046E+03    0.37743E-06   -0.21155E-08   742   0.517E-04
   29 T=    64. E= -.41286621E+03 F= -.41318247E+03 E0= -.41316087E+03  EK= 0.31626E+00 SP= 0.00E+00 SK= 0.00E+00
       N       E                     dE             d eps       ncg     rms          rms(c)
RMM:   1    -0.413174265488E+03    0.82059E-02   -0.11732E+01  4289   0.848E-01    0.910E-01
RMM:   2    -0.413185435677E+03   -0.11170E-01   -0.14706E-01  4265   0.111E-01    0.646E-01
RMM:   3    -0.413184231936E+03    0.12037E-02   -0.63704E-03  4452   0.421E-02    0.172E-01
RMM:   4    -0.413191597894E+03   -0.73660E-02   -0.79151E-03  5145   0.774E-02    0.364E-01
RMM:   5    -0.413184057745E+03    0.75401E-02   -0.37172E-03  4823   0.596E-02    0.210E-02
RMM:   6    -0.413184076207E+03   -0.18463E-04   -0.59196E-04  5829   0.230E-02    0.139E-02
RMM:   7    -0.413184073379E+03    0.28284E-05   -0.73723E-05  5245   0.818E-03    0.885E-03
RMM:   8    -0.413184065848E+03    0.75309E-05   -0.88293E-06  3194   0.354E-03    0.448E-03
RMM:   9    -0.413184060806E+03    0.50420E-05   -0.19287E-06  2578   0.213E-03    0.275E-03
RMM:  10    -0.413184055579E+03    0.52273E-05   -0.83485E-07  2488   0.148E-03    0.153E-03
RMM:  11    -0.413184051034E+03    0.45446E-05   -0.52295E-07  2333   0.116E-03    0.633E-04
RMM:  12    -0.413184047715E+03    0.33197E-05   -0.28051E-07  1906   0.894E-04    0.219E-04
RMM:  13    -0.413184045787E+03    0.19277E-05   -0.14060E-07  1306   0.707E-04    0.135E-04
RMM:  14    -0.413184043097E+03    0.26898E-05   -0.10597E-07  1239   0.676E-04    0.895E-05
RMM:  15    -0.413184040610E+03    0.24871E-05   -0.83058E-08  1232   0.646E-04    0.660E-05
RMM:  16    -0.413184039020E+03    0.15903E-05   -0.52398E-08  1015   0.593E-04    0.458E-05
RMM:  17    -0.413184036542E+03    0.24772E-05   -0.55590E-08  1095   0.597E-04    0.229E-05
RMM:  18    -0.413184036097E+03    0.44574E-06   -0.21524E-08   742   0.532E-04
   30 T=    65. E= -.41286608E+03 F= -.41318404E+03 E0= -.41316249E+03  EK= 0.31796E+00 SP= 0.00E+00 SK= 0.00E+00
       N       E                     dE             d eps       ncg     rms          rms(c)
RMM:   1    -0.413178228119E+03    0.58084E-02   -0.11887E+01  4287   0.895E-01    0.911E-01
RMM:   2    -0.413187840314E+03   -0.96122E-02   -0.15208E-01  4265   0.121E-01    0.660E-01
RMM:   3    -0.413185889677E+03    0.19506E-02   -0.62087E-03  4390   0.392E-02    0.170E-01
RMM:   4    -0.413190174485E+03   -0.42848E-02   -0.49544E-03  5140   0.605E-02    0.275E-01
RMM:   5    -0.413185893896E+03    0.42806E-02   -0.21164E-03  4819   0.449E-02    0.182E-02
RMM:   6    -0.413185897825E+03   -0.39289E-05   -0.33527E-04  5766   0.179E-02    0.127E-02
RMM:   7    -0.413185895458E+03    0.23665E-05   -0.47375E-05  4937   0.693E-03    0.697E-03
RMM:   8    -0.413185890012E+03    0.54465E-05   -0.66087E-06  3017   0.326E-03    0.323E-03
RMM:   9    -0.413185887445E+03    0.25663E-05   -0.13064E-06  2526   0.185E-03    0.190E-03
RMM:  10    -0.413185884470E+03    0.29758E-05   -0.64772E-07  2327   0.124E-03    0.108E-03
RMM:  11    -0.413185881660E+03    0.28091E-05   -0.42521E-07  2092   0.100E-03    0.422E-04
RMM:  12    -0.413185879557E+03    0.21037E-05   -0.23629E-07  1585   0.810E-04    0.173E-04
RMM:  13    -0.413185877949E+03    0.16082E-05   -0.14100E-07  1216   0.697E-04    0.106E-04
RMM:  14    -0.413185876159E+03    0.17896E-05   -0.10992E-07  1238   0.669E-04    0.589E-05
RMM:  15    -0.413185874384E+03    0.17749E-05   -0.84144E-08  1146   0.635E-04    0.545E-05
RMM:  16    -0.413185873268E+03    0.11164E-05   -0.47966E-08   888   0.579E-04    0.230E-05
RMM:  17    -0.413185872197E+03    0.10703E-05   -0.41061E-08   914   0.570E-04    0.180E-05
RMM:  18    -0.413185871837E+03    0.35991E-06   -0.19475E-08   712   0.535E-04
   31 T=    65. E= -.41286612E+03 F= -.41318587E+03 E0= -.41316437E+03  EK= 0.31975E+00 SP= 0.00E+00 SK= 0.00E+00
       N       E                     dE             d eps       ncg     rms          rms(c)
RMM:   1    -0.413183721939E+03    0.21503E-02   -0.12024E+01  4293   0.917E-01    0.938E-01
RMM:   2    -0.413189589046E+03   -0.58671E-02   -0.15252E-01  4261   0.118E-01    0.654E-01
RMM:   3    -0.413188690816E+03    0.89823E-03   -0.68075E-03  4293   0.517E-02    0.178E-01
RMM:   4    -0.413191631650E+03   -0.29408E-02   -0.36877E-03  5115   0.543E-02    0.230E-01
RMM:   5    -0.413188649019E+03    0.29826E-02   -0.14411E-03  4808   0.377E-02    0.203E-02
RMM:   6    -0.413188644872E+03    0.41471E-05   -0.25284E-04  5715   0.160E-02    0.145E-02
RMM:   7    -0.413188635271E+03    0.96013E-05   -0.40826E-05  4753   0.689E-03    0.604E-03
RMM:   8    -0.413188626020E+03    0.92510E-05   -0.54052E-06  2928   0.311E-03    0.292E-03
RMM:   9    -0.413188621366E+03    0.46537E-05   -0.99644E-07  2498   0.172E-03    0.178E-03
RMM:  10    -0.413188614289E+03    0.70767E-05   -0.56943E-07  2352   0.122E-03    0.938E-04
RMM:  11    -0.413188609056E+03    0.52332E-05   -0.33787E-07  1947   0.936E-04    0.382E-04
RMM:  12    -0.413188604356E+03    0.47005E-05   -0.20221E-07  1568   0.790E-04    0.161E-04
RMM:  13    -0.413188600653E+03    0.37032E-05   -0.13046E-07  1338   0.703E-04    0.917E-05
RMM:  14    -0.413188597097E+03    0.35551E-05   -0.96205E-08  1250   0.657E-04    0.623E-05
RMM:  15    -0.413188592696E+03    0.44014E-05   -0.92009E-08  1343   0.654E-04    0.673E-05
RMM:  16    -0.413188591061E+03    0.16354E-05   -0.46204E-08   929   0.564E-04    0.360E-05
RMM:  17    -0.413188589459E+03    0.16013E-05   -0.37355E-08   893   0.549E-04    0.181E-05
RMM:  18    -0.413188589210E+03    0.24931E-06   -0.18253E-08   675   0.510E-04
   32 T=    66. E= -.41286650E+03 F= -.41318859E+03 E0= -.41316714E+03  EK= 0.32209E+00 SP= 0.00E+00 SK= 0.00E+00
       N       E                     dE             d eps       ncg     rms          rms(c)
RMM:   1    -0.413191845279E+03   -0.32558E-02   -0.12067E+01  4293   0.940E-01    0.925E-01
RMM:   2    -0.413191946658E+03   -0.10138E-03   -0.15736E-01  4272   0.131E-01    0.651E-01
RMM:   3    -0.413190540129E+03    0.14065E-02   -0.63383E-03  4196   0.394E-02    0.183E-01
RMM:   4    -0.413191311989E+03   -0.77186E-03   -0.18015E-03  5069   0.358E-02    0.120E-01
RMM:   5    -0.413190506327E+03    0.80566E-03   -0.38886E-04  4752   0.202E-02    0.187E-02
RMM:   6    -0.413190496686E+03    0.96411E-05   -0.10239E-04  5451   0.107E-02    0.134E-02
RMM:   7    -0.413190485586E+03    0.11100E-04   -0.20710E-05  4028   0.544E-03    0.429E-03
RMM:   8    -0.413190477686E+03    0.79001E-05   -0.34762E-06  2700   0.274E-03    0.239E-03
RMM:   9    -0.413190474150E+03    0.35357E-05   -0.68400E-07  2433   0.155E-03    0.135E-03
RMM:  10    -0.413190468009E+03    0.61407E-05   -0.41165E-07  2134   0.105E-03    0.645E-04
RMM:  11    -0.413190462597E+03    0.54122E-05   -0.23632E-07  1626   0.810E-04    0.246E-04
RMM:  12    -0.413190458945E+03    0.36521E-05   -0.13465E-07  1437   0.703E-04    0.149E-04
RMM:  13    -0.413190454120E+03    0.48252E-05   -0.10186E-07  1264   0.660E-04    0.732E-05
RMM:  14    -0.413190450763E+03    0.33565E-05   -0.63971E-08  1049   0.600E-04    0.628E-05
RMM:  15    -0.413190448218E+03    0.25450E-05   -0.46111E-08   978   0.571E-04    0.427E-05
RMM:  16    -0.413190444939E+03    0.32797E-05   -0.43904E-08  1026   0.580E-04    0.341E-05
RMM:  17    -0.413190444511E+03    0.42810E-06   -0.16201E-08   632   0.504E-04
   33 T=    66. E= -.41286614E+03 F= -.41319044E+03 E0= -.41316905E+03  EK= 0.32430E+00 SP= 0.00E+00 SK= 0.00E+00
       N       E                     dE             d eps       ncg     rms          rms(c)
RMM:   1    -0.413184099988E+03    0.63450E-02   -0.12099E+01  4289   0.920E-01    0.916E-01
RMM:   2    -0.413194731273E+03   -0.10631E-01   -0.15749E-01  4256   0.128E-01    0.665E-01
RMM:   3    -0.413193035192E+03    0.16961E-02   -0.62378E-03  4365   0.441E-02    0.178E-01
RMM:   4    -0.413197361948E+03   -0.43268E-02   -0.50583E-03  5147   0.629E-02    0.279E-01
RMM:   5    -0.413193006070E+03    0.43559E-02   -0.21132E-03  4799   0.457E-02    0.195E-02
RMM:   6    -0.413192995871E+03    0.10199E-04   -0.34722E-04  5723   0.190E-02    0.132E-02
RMM:   7    -0.413192993851E+03    0.20197E-05   -0.49486E-05  4935   0.734E-03    0.711E-03
RMM:   8    -0.413192988262E+03    0.55899E-05   -0.78597E-06  3209   0.349E-03    0.344E-03
RMM:   9    -0.413192985308E+03    0.29536E-05   -0.14062E-06  2537   0.195E-03    0.185E-03
RMM:  10    -0.413192981884E+03    0.34236E-05   -0.64084E-07  2384   0.126E-03    0.105E-03
RMM:  11    -0.413192978572E+03    0.33122E-05   -0.41059E-07  2116   0.100E-03    0.457E-04
RMM:  12    -0.413192975632E+03    0.29403E-05   -0.25537E-07  1683   0.829E-04    0.178E-04
RMM:  13    -0.413192974093E+03    0.15391E-05   -0.12775E-07  1160   0.683E-04    0.112E-04
RMM:  14    -0.413192972347E+03    0.17453E-05   -0.95761E-08  1101   0.654E-04    0.595E-05
RMM:  15    -0.413192970169E+03    0.21782E-05   -0.84599E-08  1152   0.643E-04    0.456E-05
RMM:  16    -0.413192969444E+03    0.72520E-06   -0.42972E-08   854   0.578E-04
   34 T=    67. E= -.41286626E+03 F= -.41319297E+03 E0= -.41317162E+03  EK= 0.32671E+00 SP= 0.00E+00 SK= 0.00E+00
       N       E                     dE             d eps       ncg     rms          rms(c)
RMM:   1    -0.413186390648E+03    0.65795E-02   -0.12222E+01  4298   0.949E-01    0.943E-01
RMM:   2    -0.413196961607E+03   -0.10571E-01   -0.15954E-01  4257   0.136E-01    0.664E-01
RMM:   3    -0.413195721126E+03    0.12405E-02   -0.65432E-03  4515   0.442E-02    0.186E-01
RMM:   4    -0.413205641075E+03   -0.99199E-02   -0.10436E-02  5159   0.874E-02    0.424E-01
RMM:   5    -0.413195483688E+03    0.10157E-01   -0.51280E-03  4815   0.698E-02    0.248E-02
RMM:   6    -0.413195476788E+03    0.69001E-05   -0.81695E-04  5794   0.276E-02    0.149E-02
RMM:   7    -0.413195475511E+03    0.12772E-05   -0.10521E-04  5380   0.927E-03    0.957E-03
RMM:   8    -0.413195467148E+03    0.83624E-05   -0.12995E-05  3559   0.389E-03    0.516E-03
RMM:   9    -0.413195460457E+03    0.66908E-05   -0.24884E-06  2627   0.234E-03    0.288E-03
RMM:  10    -0.413195453145E+03    0.73121E-05   -0.96545E-07  2497   0.158E-03    0.148E-03
RMM:  11    -0.413195446564E+03    0.65816E-05   -0.59997E-07  2396   0.123E-03    0.694E-04
RMM:  12    -0.413195440861E+03    0.57029E-05   -0.33418E-07  2105   0.964E-04    0.245E-04
RMM:  13    -0.413195438401E+03    0.24600E-05   -0.15382E-07  1384   0.729E-04    0.163E-04
RMM:  14    -0.413195434599E+03    0.38016E-05   -0.10596E-07  1176   0.676E-04    0.105E-04
RMM:  15    -0.413195430657E+03    0.39424E-05   -0.87116E-08  1239   0.660E-04    0.655E-05
RMM:  16    -0.413195428743E+03    0.19134E-05   -0.53262E-08  1021   0.605E-04    0.534E-05
RMM:  17    -0.413195424906E+03    0.38369E-05   -0.59743E-08  1238   0.621E-04    0.395E-05
RMM:  18    -0.413195423682E+03    0.12240E-05   -0.27006E-08   831   0.543E-04    0.186E-05
RMM:  19    -0.413195423477E+03    0.20568E-06   -0.14930E-08   675   0.518E-04
   35 T=    67. E= -.41286616E+03 F= -.41319542E+03 E0= -.41317412E+03  EK= 0.32926E+00 SP= 0.00E+00 SK= 0.00E+00
       N       E                     dE             d eps       ncg     rms          rms(c)
RMM:   1    -0.413189001852E+03    0.64218E-02   -0.12262E+01  4299   0.965E-01    0.942E-01
RMM:   2    -0.413198848081E+03   -0.98462E-02   -0.15780E-01  4252   0.121E-01    0.657E-01
RMM:   3    -0.413197980935E+03    0.86715E-03   -0.68021E-03  4806   0.444E-02    0.196E-01
RMM:   4    -0.413227983372E+03   -0.30002E-01   -0.30242E-02  5160   0.146E-01    0.723E-01
RMM:   5    -0.413197607919E+03    0.30375E-01   -0.15258E-02  4803   0.120E-01    0.366E-02
RMM:   6    -0.413197664453E+03   -0.56535E-04   -0.24079E-03  5869   0.456E-02    0.183E-02
RMM:   7    -0.413197675210E+03   -0.10757E-04   -0.24559E-04  5770   0.134E-02    0.129E-02
RMM:   8    -0.413197668337E+03    0.68730E-05   -0.32290E-05  4394   0.515E-03    0.884E-03
RMM:   9    -0.413197662129E+03    0.62083E-05   -0.76631E-06  3243   0.329E-03    0.580E-03
RMM:  10    -0.413197652095E+03    0.10034E-04   -0.21503E-06  2548   0.244E-03    0.265E-03
RMM:  11    -0.413197644699E+03    0.73953E-05   -0.13896E-06  2512   0.185E-03    0.147E-03
RMM:  12    -0.413197637198E+03    0.75016E-05   -0.66708E-07  2436   0.143E-03    0.551E-04
RMM:  13    -0.413197634544E+03    0.26538E-05   -0.28293E-07  2113   0.954E-04    0.368E-04
RMM:  14    -0.413197632326E+03    0.22181E-05   -0.13099E-07  1460   0.719E-04    0.217E-04
RMM:  15    -0.413197626101E+03    0.62246E-05   -0.11938E-07  1616   0.724E-04    0.208E-04
RMM:  16    -0.413197625110E+03    0.99182E-06   -0.42066E-08   908   0.574E-04
   36 T=    68. E= -.41286602E+03 F= -.41319763E+03 E0= -.41317637E+03  EK= 0.33160E+00 SP= 0.00E+00 SK= 0.00E+00
       N       E                     dE             d eps       ncg     rms          rms(c)
RMM:   1    -0.413190542459E+03    0.70836E-02   -0.12319E+01  4302   0.992E-01    0.925E-01
RMM:   2    -0.413202310169E+03   -0.11768E-01   -0.16437E-01  4250   0.136E-01    0.670E-01
RMM:   3    -0.413201106123E+03    0.12040E-02   -0.65829E-03  4801   0.525E-02    0.205E-01
RMM:   4    -0.413242165927E+03   -0.41060E-01   -0.41804E-02  5158   0.171E-01    0.841E-01
RMM:   5    -0.413200461376E+03    0.41705E-01   -0.21122E-02  4803   0.141E-01    0.399E-02
RMM:   6    -0.413200566538E+03   -0.10516E-03   -0.31747E-03  5862   0.529E-02    0.191E-02
RMM:   7    -0.413200581825E+03   -0.15287E-04   -0.31317E-04  5733   0.149E-02    0.130E-02
RMM:   8    -0.413200577371E+03    0.44537E-05   -0.34896E-05  3977   0.492E-03    0.872E-03
RMM:   9    -0.413200571415E+03    0.59562E-05   -0.85961E-06  3273   0.341E-03    0.483E-03
RMM:  10    -0.413200566818E+03    0.45973E-05   -0.25247E-06  2594   0.236E-03    0.271E-03
RMM:  11    -0.413200560616E+03    0.62016E-05   -0.14540E-06  2496   0.195E-03    0.139E-03
RMM:  12    -0.413200556604E+03    0.40124E-05   -0.65612E-07  2443   0.138E-03    0.561E-04
RMM:  13    -0.413200555144E+03    0.14600E-05   -0.28294E-07  2056   0.933E-04    0.351E-04
RMM:  14    -0.413200553194E+03    0.19498E-05   -0.14546E-07  1476   0.735E-04    0.188E-04
RMM:  15    -0.413200549362E+03    0.38323E-05   -0.12749E-07  1512   0.718E-04    0.177E-04
RMM:  16    -0.413200548433E+03    0.92933E-06   -0.53337E-08   983   0.597E-04
   37 T=    68. E= -.41286621E+03 F= -.41320055E+03 E0= -.41317933E+03  EK= 0.33434E+00 SP= 0.00E+00 SK= 0.00E+00
       N       E                     dE             d eps       ncg     rms          rms(c)
RMM:   1    -0.413194902080E+03    0.56473E-02   -0.12503E+01  4307   0.104E+00    0.946E-01
RMM:   2    -0.413205302562E+03   -0.10400E-01   -0.16410E-01  4247   0.133E-01    0.673E-01
RMM:   3    -0.413203840026E+03    0.14625E-02   -0.67896E-03  4740   0.510E-02    0.202E-01
RMM:   4    -0.413236582195E+03   -0.32742E-01   -0.32944E-02  5155   0.152E-01    0.754E-01
RMM:   5    -0.413203377640E+03    0.33205E-01   -0.16863E-02  4809   0.126E-01    0.366E-02
RMM:   6    -0.413203448083E+03   -0.70444E-04   -0.25567E-03  5851   0.472E-02    0.184E-02
RMM:   7    -0.413203460221E+03   -0.12138E-04   -0.25881E-04  5781   0.137E-02    0.130E-02
RMM:   8    -0.413203454263E+03    0.59582E-05   -0.34042E-05  4395   0.519E-03    0.888E-03
RMM:   9    -0.413203449554E+03    0.47090E-05   -0.84005E-06  3335   0.330E-03    0.593E-03
RMM:  10    -0.413203441042E+03    0.85119E-05   -0.22928E-06  2552   0.244E-03    0.269E-03
RMM:  11    -0.413203434919E+03    0.61235E-05   -0.14590E-06  2507   0.190E-03    0.150E-03
RMM:  12    -0.413203429081E+03    0.58376E-05   -0.69148E-07  2442   0.144E-03    0.565E-04
RMM:  13    -0.413203426958E+03    0.21238E-05   -0.29736E-07  2128   0.969E-04    0.383E-04
RMM:  14    -0.413203425021E+03    0.19368E-05   -0.14150E-07  1511   0.732E-04    0.215E-04
RMM:  15    -0.413203419442E+03    0.55787E-05   -0.13514E-07  1650   0.739E-04    0.226E-04
RMM:  16    -0.413203418676E+03    0.76555E-06   -0.45493E-08   910   0.581E-04
   38 T=    69. E= -.41286651E+03 F= -.41320342E+03 E0= -.41318224E+03  EK= 0.33691E+00 SP= 0.00E+00 SK= 0.00E+00
       N       E                     dE             d eps       ncg     rms          rms(c)
RMM:   1    -0.413201202387E+03    0.22171E-02   -0.12598E+01  4306   0.108E+00    0.959E-01
RMM:   2    -0.413206819413E+03   -0.56170E-02   -0.16759E-01  4257   0.125E-01    0.667E-01
RMM:   3    -0.413206106707E+03    0.71271E-03   -0.73222E-03  4937   0.548E-02    0.227E-01
RMM:   4    -0.413256216535E+03   -0.50110E-01   -0.52702E-02  5139   0.191E-01    0.929E-01
RMM:   5    -0.413205081430E+03    0.51135E-01   -0.25514E-02  4792   0.156E-01    0.467E-02
RMM:   6    -0.413205243423E+03   -0.16199E-03   -0.40028E-03  5841   0.587E-02    0.217E-02
RMM:   7    -0.413205261440E+03   -0.18017E-04   -0.39711E-04  5817   0.167E-02    0.148E-02
RMM:   8    -0.413205257903E+03    0.35374E-05   -0.51776E-05  4584   0.590E-03    0.109E-02
RMM:   9    -0.413205248400E+03    0.95029E-05   -0.11741E-05  3681   0.366E-03    0.701E-03
RMM:  10    -0.413205237874E+03    0.10526E-04   -0.35875E-06  2665   0.288E-03    0.323E-03
RMM:  11    -0.413205229927E+03    0.79469E-05   -0.17684E-06  2522   0.213E-03    0.187E-03
RMM:  12    -0.413205221343E+03    0.85834E-05   -0.86812E-07  2463   0.164E-03    0.641E-04
RMM:  13    -0.413205217367E+03    0.39767E-05   -0.36410E-07  2272   0.109E-03    0.433E-04
RMM:  14    -0.413205214339E+03    0.30277E-05   -0.17464E-07  1729   0.789E-04    0.287E-04
RMM:  15    -0.413205205825E+03    0.85141E-05   -0.15904E-07  1850   0.777E-04    0.283E-04
RMM:  16    -0.413205205219E+03    0.60617E-06   -0.53480E-08  1004   0.574E-04
   39 T=    69. E= -.41286611E+03 F= -.41320521E+03 E0= -.41318407E+03  EK= 0.33909E+00 SP= 0.00E+00 SK= 0.00E+00
       N       E                     dE             d eps       ncg     rms          rms(c)
RMM:   1    -0.413200491632E+03    0.47142E-02   -0.12578E+01  4309   0.112E+00    0.936E-01
RMM:   2    -0.413210253612E+03   -0.97620E-02   -0.16923E-01  4254   0.135E-01    0.673E-01
RMM:   3    -0.413209396895E+03    0.85672E-03   -0.69911E-03  4978   0.533E-02    0.234E-01
RMM:   4    -0.413263402690E+03   -0.54006E-01   -0.57922E-02  5137   0.200E-01    0.963E-01
RMM:   5    -0.413208153136E+03    0.55250E-01   -0.27236E-02  4786   0.162E-01    0.489E-02
RMM:   6    -0.413208350221E+03   -0.19709E-03   -0.44467E-03  5829   0.609E-02    0.211E-02
RMM:   7    -0.413208373910E+03   -0.23689E-04   -0.43955E-04  5861   0.174E-02    0.150E-02
RMM:   8    -0.413208373378E+03    0.53196E-06   -0.60157E-05  4812   0.636E-03    0.114E-02
RMM:   9    -0.413208365384E+03    0.79937E-05   -0.11883E-05  3657   0.371E-03    0.718E-03
RMM:  10    -0.413208357530E+03    0.78546E-05   -0.37772E-06  2671   0.295E-03    0.327E-03
RMM:  11    -0.413208352130E+03    0.54001E-05   -0.17895E-06  2515   0.215E-03    0.192E-03
RMM:  12    -0.413208346226E+03    0.59037E-05   -0.94891E-07  2476   0.168E-03    0.670E-04
RMM:  13    -0.413208343654E+03    0.25716E-05   -0.39727E-07  2287   0.112E-03    0.452E-04
RMM:  14    -0.413208341547E+03    0.21080E-05   -0.19860E-07  1805   0.812E-04    0.293E-04
RMM:  15    -0.413208335501E+03    0.60460E-05   -0.17994E-07  1821   0.787E-04    0.285E-04
RMM:  16    -0.413208335177E+03    0.32392E-06   -0.63392E-08  1053   0.590E-04
   40 T=    70. E= -.41286671E+03 F= -.41320834E+03 E0= -.41318724E+03  EK= 0.34163E+00 SP= 0.00E+00 SK= 0.00E+00
       N       E                     dE             d eps       ncg     rms          rms(c)
RMM:   1    -0.413204487697E+03    0.38478E-02   -0.12765E+01  4305   0.118E+00    0.948E-01
RMM:   2    -0.413211474056E+03   -0.69864E-02   -0.17491E-01  4265   0.141E-01    0.683E-01
RMM:   3    -0.413211194034E+03    0.28002E-03   -0.75422E-03  5039   0.568E-02    0.259E-01
RMM:   4    -0.413267140281E+03   -0.55946E-01   -0.63042E-02  5127   0.208E-01    0.984E-01
RMM:   5    -0.413209421495E+03    0.57719E-01   -0.27967E-02  4774   0.166E-01    0.521E-02
RMM:   6    -0.413209620580E+03   -0.19908E-03   -0.45484E-03  5820   0.621E-02    0.208E-02
RMM:   7    -0.413209645900E+03   -0.25320E-04   -0.46629E-04  5924   0.181E-02    0.158E-02
RMM:   8    -0.413209645906E+03   -0.59081E-08   -0.66892E-05  4991   0.685E-03    0.116E-02
RMM:   9    -0.413209637095E+03    0.88106E-05   -0.10410E-05  3435   0.371E-03    0.658E-03
RMM:  10    -0.413209629275E+03    0.78197E-05   -0.39903E-06  2686   0.297E-03    0.293E-03
RMM:  11    -0.413209623703E+03    0.55718E-05   -0.17187E-06  2518   0.209E-03    0.153E-03
RMM:  12    -0.413209618369E+03    0.53345E-05   -0.84650E-07  2463   0.156E-03    0.605E-04
RMM:  13    -0.413209615847E+03    0.25218E-05   -0.36371E-07  2223   0.106E-03    0.412E-04
RMM:  14    -0.413209612673E+03    0.31741E-05   -0.20285E-07  1746   0.810E-04    0.273E-04
RMM:  15    -0.413209608179E+03    0.44941E-05   -0.14383E-07  1479   0.723E-04    0.164E-04
RMM:  16    -0.413209607021E+03    0.11584E-05   -0.68467E-08  1034   0.611E-04    0.825E-05
RMM:  17    -0.413209604857E+03    0.21633E-05   -0.57336E-08  1042   0.609E-04    0.466E-05
RMM:  18    -0.413209601084E+03    0.37735E-05   -0.66189E-08  1243   0.636E-04    0.500E-05
RMM:  19    -0.413209600584E+03    0.49991E-06   -0.24144E-08   782   0.556E-04
   41 T=    70. E= -.41286614E+03 F= -.41320960E+03 E0= -.41318854E+03  EK= 0.34346E+00 SP= 0.00E+00 SK= 0.00E+00
       N       E                     dE             d eps       ncg     rms          rms(c)
RMM:   1    -0.413213020834E+03   -0.34197E-02   -0.12894E+01  4308   0.126E+00    0.972E-01
RMM:   2    -0.413213177595E+03   -0.15676E-03   -0.17803E-01  4296   0.146E-01    0.676E-01
RMM:   3    -0.413215958429E+03   -0.27808E-02   -0.99266E-03  5124   0.730E-02    0.334E-01
RMM:   4    -0.413249961123E+03   -0.34003E-01   -0.49954E-02  5091   0.187E-01    0.811E-01
RMM:   5    -0.413212132976E+03    0.37828E-01   -0.17000E-02  4728   0.135E-01    0.496E-02
RMM:   6    -0.413212193621E+03   -0.60646E-04   -0.27992E-03  5759   0.497E-02    0.186E-02
RMM:   7    -0.413212207167E+03   -0.13545E-04   -0.32959E-04  5898   0.155E-02    0.144E-02
RMM:   8    -0.413212204487E+03    0.26797E-05   -0.50043E-05  4842   0.617E-03    0.949E-03
RMM:   9    -0.413212192527E+03    0.11960E-04   -0.81808E-06  3199   0.382E-03    0.444E-03
RMM:  10    -0.413212183089E+03    0.94384E-05   -0.27283E-06  2571   0.252E-03    0.228E-03
RMM:  11    -0.413212175554E+03    0.75344E-05   -0.10455E-06  2514   0.164E-03    0.998E-04
RMM:  12    -0.413212170140E+03    0.54144E-05   -0.42388E-07  2319   0.112E-03    0.506E-04
RMM:  13    -0.413212164916E+03    0.52238E-05   -0.25247E-07  1662   0.855E-04    0.246E-04
RMM:  14    -0.413212161128E+03    0.37882E-05   -0.15837E-07  1364   0.739E-04    0.148E-04
RMM:  15    -0.413212155940E+03    0.51878E-05   -0.12577E-07  1342   0.708E-04    0.865E-05
RMM:  16    -0.413212151509E+03    0.44306E-05   -0.96794E-08  1341   0.671E-04    0.525E-05
RMM:  17    -0.413212147508E+03    0.40016E-05   -0.76731E-08  1310   0.633E-04    0.443E-05
RMM:  18    -0.413212145975E+03    0.15330E-05   -0.46663E-08   986   0.558E-04    0.291E-05
RMM:  19    -0.413212145308E+03    0.66726E-06   -0.30179E-08   821   0.530E-04
   42 T=    70. E= -.41286673E+03 F= -.41321215E+03 E0= -.41319111E+03  EK= 0.34542E+00 SP= 0.00E+00 SK= 0.00E+00
       N       E                     dE             d eps       ncg     rms          rms(c)
RMM:   1    -0.413212448321E+03   -0.30235E-03   -0.12837E+01  4310   0.132E+00    0.947E-01
RMM:   2    -0.413214910358E+03   -0.24620E-02   -0.17709E-01  4306   0.154E-01    0.676E-01
RMM:   3    -0.413218816993E+03   -0.39066E-02   -0.10720E-02  5104   0.816E-02    0.368E-01
RMM:   4    -0.413247253932E+03   -0.28437E-01   -0.47734E-02  5061   0.184E-01    0.766E-01
RMM:   5    -0.413213857535E+03    0.33396E-01   -0.14612E-02  4711   0.128E-01    0.481E-02
RMM:   6    -0.413213887175E+03   -0.29639E-04   -0.24086E-03  5740   0.465E-02    0.176E-02
RMM:   7    -0.413213896240E+03   -0.90657E-05   -0.27510E-04  5881   0.148E-02    0.138E-02
RMM:   8    -0.413213893589E+03    0.26515E-05   -0.43762E-05  4800   0.593E-03    0.880E-03
RMM:   9    -0.413213883225E+03    0.10364E-04   -0.78756E-06  3172   0.391E-03    0.419E-03
RMM:  10    -0.413213876189E+03    0.70360E-05   -0.25143E-06  2564   0.246E-03    0.230E-03
RMM:  11    -0.413213870683E+03    0.55055E-05   -0.10462E-06  2510   0.161E-03    0.102E-03
RMM:  12    -0.413213866902E+03    0.37811E-05   -0.44160E-07  2303   0.111E-03    0.513E-04
RMM:  13    -0.413213862483E+03    0.44194E-05   -0.30366E-07  1756   0.895E-04    0.269E-04
RMM:  14    -0.413213860154E+03    0.23284E-05   -0.17468E-07  1334   0.739E-04    0.150E-04
RMM:  15    -0.413213856501E+03    0.36531E-05   -0.13588E-07  1260   0.704E-04    0.815E-05
RMM:  16    -0.413213852919E+03    0.35824E-05   -0.10667E-07  1226   0.675E-04    0.495E-05
RMM:  17    -0.413213850021E+03    0.28984E-05   -0.83496E-08  1273   0.644E-04    0.412E-05
RMM:  18    -0.413213848086E+03    0.19343E-05   -0.55667E-08  1040   0.584E-04    0.326E-05
RMM:  19    -0.413213847270E+03    0.81595E-06   -0.33992E-08   836   0.543E-04
   43 T=    71. E= -.41286677E+03 F= -.41321385E+03 E0= -.41319285E+03  EK= 0.34708E+00 SP= 0.00E+00 SK= 0.00E+00
       N       E                     dE             d eps       ncg     rms          rms(c)
RMM:   1    -0.413239005302E+03   -0.25157E-01   -0.13218E+01  4309   0.151E+00    0.948E-01
RMM:   2    -0.413215897454E+03    0.23108E-01   -0.19996E-01  4311   0.175E-01    0.692E-01
RMM:   3    -0.413221185853E+03   -0.52884E-02   -0.11991E-02  5103   0.915E-02    0.416E-01
RMM:   4    -0.413246211759E+03   -0.25026E-01   -0.48601E-02  5056   0.187E-01    0.750E-01
RMM:   5    -0.413214566244E+03    0.31646E-01   -0.13653E-02  4688   0.128E-01    0.507E-02
RMM:   6    -0.413214572674E+03   -0.64297E-05   -0.22965E-03  5687   0.456E-02    0.181E-02
RMM:   7    -0.413214581724E+03   -0.90500E-05   -0.27286E-04  5912   0.149E-02    0.143E-02
RMM:   8    -0.413214578952E+03    0.27718E-05   -0.41840E-05  4783   0.591E-03    0.889E-03
RMM:   9    -0.413214569851E+03    0.91011E-05   -0.91193E-06  3362   0.430E-03    0.442E-03
RMM:  10    -0.413214564025E+03    0.58261E-05   -0.27462E-06  2597   0.258E-03    0.259E-03
RMM:  11    -0.413214559637E+03    0.43878E-05   -0.12611E-06  2523   0.176E-03    0.112E-03
RMM:  12    -0.413214556800E+03    0.28365E-05   -0.52918E-07  2422   0.122E-03    0.604E-04
RMM:  13    -0.413214552991E+03    0.38099E-05   -0.38281E-07  1864   0.976E-04    0.358E-04
RMM:  14    -0.413214551149E+03    0.18413E-05   -0.20228E-07  1398   0.780E-04    0.189E-04
RMM:  15    -0.413214548576E+03    0.25737E-05   -0.15220E-07  1263   0.722E-04    0.109E-04
RMM:  16    -0.413214545411E+03    0.31642E-05   -0.12555E-07  1281   0.695E-04    0.564E-05
RMM:  17    -0.413214543836E+03    0.15756E-05   -0.77846E-08  1071   0.632E-04    0.433E-05
RMM:  18    -0.413214541678E+03    0.21575E-05   -0.66017E-08  1084   0.616E-04    0.365E-05
RMM:  19    -0.413214540612E+03    0.10658E-05   -0.43152E-08   901   0.570E-04    0.265E-05
RMM:  20    -0.413214540192E+03    0.42076E-06   -0.26108E-08   753   0.547E-04
   44 T=    71. E= -.41286638E+03 F= -.41321454E+03 E0= -.41319357E+03  EK= 0.34816E+00 SP= 0.00E+00 SK= 0.00E+00
       N       E                     dE             d eps       ncg     rms          rms(c)
RMM:   1    -0.413243018561E+03   -0.28478E-01   -0.13312E+01  4307   0.157E+00    0.978E-01
RMM:   2    -0.413216410020E+03    0.26609E-01   -0.19038E-01  4368   0.180E-01    0.683E-01
RMM:   3    -0.413228432849E+03   -0.12023E-01   -0.17964E-02  5142   0.115E-01    0.524E-01
RMM:   4    -0.413232095031E+03   -0.36622E-02   -0.37733E-02  5017   0.169E-01    0.554E-01
RMM:   5    -0.413216075752E+03    0.16019E-01   -0.62129E-03  4573   0.963E-02    0.430E-02
RMM:   6    -0.413216034069E+03    0.41683E-04   -0.11046E-03  5373   0.324E-02    0.166E-02
RMM:   7    -0.413216033958E+03    0.11106E-06   -0.12410E-04  5686   0.107E-02    0.127E-02
RMM:   8    -0.413216028938E+03    0.50205E-05   -0.27793E-05  4736   0.523E-03    0.785E-03
RMM:   9    -0.413216013178E+03    0.15759E-04   -0.73897E-06  3169   0.412E-03    0.391E-03
RMM:  10    -0.413216006854E+03    0.63242E-05   -0.14892E-06  2536   0.210E-03    0.178E-03
RMM:  11    -0.413216000708E+03    0.61462E-05   -0.83647E-07  2488   0.145E-03    0.879E-04
RMM:  12    -0.413215995101E+03    0.56067E-05   -0.42539E-07  2347   0.109E-03    0.457E-04
RMM:  13    -0.413215989850E+03    0.52510E-05   -0.24853E-07  1617   0.822E-04    0.244E-04
RMM:  14    -0.413215987053E+03    0.27973E-05   -0.13965E-07  1190   0.693E-04    0.158E-04
RMM:  15    -0.413215981497E+03    0.55556E-05   -0.12251E-07  1263   0.694E-04    0.813E-05
RMM:  16    -0.413215977755E+03    0.37420E-05   -0.86349E-08  1171   0.647E-04    0.787E-05
RMM:  17    -0.413215975124E+03    0.26308E-05   -0.59455E-08  1044   0.597E-04    0.570E-05
RMM:  18    -0.413215971974E+03    0.31508E-05   -0.52637E-08  1050   0.585E-04    0.328E-05
RMM:  19    -0.413215971605E+03    0.36851E-06   -0.25152E-08   725   0.525E-04
   45 T=    71. E= -.41286674E+03 F= -.41321597E+03 E0= -.41319502E+03  EK= 0.34924E+00 SP= 0.00E+00 SK= 0.00E+00
       N       E                     dE             d eps       ncg     rms          rms(c)
RMM:   1    -0.413240371257E+03   -0.24399E-01   -0.13196E+01  4307   0.166E+00    0.959E-01
RMM:   2    -0.413216212100E+03    0.24159E-01   -0.18607E-01  4379   0.191E-01    0.679E-01
RMM:   3    -0.413230563091E+03   -0.14351E-01   -0.19890E-02  5135   0.124E-01    0.562E-01
RMM:   4    -0.413229573394E+03    0.98970E-03   -0.36970E-02  4994   0.168E-01    0.517E-01
RMM:   5    -0.413215899775E+03    0.13674E-01   -0.53421E-03  4546   0.927E-02    0.427E-02
RMM:   6    -0.413215838478E+03    0.61297E-04   -0.85812E-04  5167   0.296E-02    0.162E-02
RMM:   7    -0.413215838654E+03   -0.17602E-06   -0.10201E-04  5624   0.951E-03    0.111E-02
RMM:   8    -0.413215835561E+03    0.30934E-05   -0.30347E-05  4924   0.550E-03    0.782E-03
RMM:   9    -0.413215821204E+03    0.14357E-04   -0.11612E-05  3860   0.457E-03    0.423E-03
RMM:  10    -0.413215816152E+03    0.50515E-05   -0.16849E-06  2522   0.214E-03    0.193E-03
RMM:  11    -0.413215810682E+03    0.54702E-05   -0.11604E-06  2486   0.169E-03    0.102E-03
RMM:  12    -0.413215805962E+03    0.47195E-05   -0.43270E-07  2361   0.119E-03    0.584E-04
RMM:  13    -0.413215801890E+03    0.40720E-05   -0.20772E-07  1506   0.803E-04    0.282E-04
RMM:  14    -0.413215798385E+03    0.35049E-05   -0.11955E-07  1157   0.686E-04    0.156E-04
RMM:  15    -0.413215792556E+03    0.58299E-05   -0.12329E-07  1345   0.693E-04    0.107E-04
RMM:  16    -0.413215790164E+03    0.23918E-05   -0.61046E-08   962   0.583E-04    0.940E-05
RMM:  17    -0.413215786489E+03    0.36744E-05   -0.57113E-08  1007   0.582E-04    0.443E-05
RMM:  18    -0.413215784286E+03    0.22032E-05   -0.39491E-08   895   0.550E-04    0.381E-05
RMM:  19    -0.413215783401E+03    0.88481E-06   -0.20987E-08   684   0.515E-04
   46 T=    71. E= -.41286654E+03 F= -.41321578E+03 E0= -.41319486E+03  EK= 0.34924E+00 SP= 0.00E+00 SK= 0.00E+00
       N       E                     dE             d eps       ncg     rms          rms(c)
RMM:   1    -0.413261348189E+03   -0.45564E-01   -0.13457E+01  4309   0.181E+00    0.944E-01
RMM:   2    -0.413215790433E+03    0.45558E-01   -0.22402E-01  4408   0.212E-01    0.696E-01
RMM:   3    -0.413229083170E+03   -0.13293E-01   -0.19037E-02  5139   0.124E-01    0.580E-01
RMM:   4    -0.413230572758E+03   -0.14896E-02   -0.39398E-02  5005   0.174E-01    0.565E-01
RMM:   5    -0.413214737740E+03    0.15835E-01   -0.68370E-03  4560   0.102E-01    0.483E-02
RMM:   6    -0.413214666426E+03    0.71314E-04   -0.10721E-03  5232   0.332E-02    0.182E-02
RMM:   7    -0.413214666600E+03   -0.17397E-06   -0.13434E-04  5801   0.111E-02    0.135E-02
RMM:   8    -0.413214663033E+03    0.35664E-05   -0.31619E-05  4916   0.547E-03    0.885E-03
RMM:   9    -0.413214650482E+03    0.12551E-04   -0.10692E-05  3673   0.463E-03    0.473E-03
RMM:  10    -0.413214645818E+03    0.46644E-05   -0.19483E-06  2542   0.227E-03    0.228E-03
RMM:  11    -0.413214641946E+03    0.38714E-05   -0.14843E-06  2532   0.187E-03    0.121E-03
RMM:  12    -0.413214639084E+03    0.28620E-05   -0.51598E-07  2430   0.130E-03    0.697E-04
RMM:  13    -0.413214636060E+03    0.30246E-05   -0.28499E-07  1828   0.890E-04    0.350E-04
RMM:  14    -0.413214633756E+03    0.23040E-05   -0.16136E-07  1272   0.720E-04    0.197E-04
RMM:  15    -0.413214630894E+03    0.28623E-05   -0.13160E-07  1249   0.689E-04    0.866E-05
RMM:  16    -0.413214628763E+03    0.21309E-05   -0.90437E-08  1122   0.632E-04    0.767E-05
RMM:  17    -0.413214626746E+03    0.20168E-05   -0.65403E-08  1014   0.591E-04    0.615E-05
RMM:  18    -0.413214625436E+03    0.13103E-05   -0.42528E-08   833   0.550E-04    0.308E-05
RMM:  19    -0.413214624906E+03    0.53001E-06   -0.25462E-08   711   0.529E-04
   47 T=    71. E= -.41286652E+03 F= -.41321462E+03 E0= -.41319371E+03  EK= 0.34810E+00 SP= 0.00E+00 SK= 0.00E+00
       N       E                     dE             d eps       ncg     rms          rms(c)
RMM:   1    -0.413258230102E+03   -0.43605E-01   -0.13411E+01  4306   0.193E+00    0.970E-01
RMM:   2    -0.413212635958E+03    0.45594E-01   -0.20693E-01  4504   0.210E-01    0.688E-01
RMM:   3    -0.413236108466E+03   -0.23473E-01   -0.28421E-02  5158   0.151E-01    0.701E-01
RMM:   4    -0.413220815286E+03    0.15293E-01   -0.37244E-02  4965   0.173E-01    0.437E-01
RMM:   5    -0.413212202165E+03    0.86131E-02   -0.44770E-03  4555   0.892E-02    0.521E-02
RMM:   6    -0.413212042611E+03    0.15955E-03   -0.44774E-04  4729   0.275E-02    0.203E-02
RMM:   7    -0.413212044340E+03   -0.17288E-05   -0.11650E-04  5877   0.105E-02    0.138E-02
RMM:   8    -0.413212035282E+03    0.90582E-05   -0.24160E-05  4656   0.530E-03    0.975E-03
RMM:   9    -0.413212020214E+03    0.15068E-04   -0.86870E-06  3327   0.424E-03    0.513E-03
RMM:  10    -0.413212012936E+03    0.72776E-05   -0.24775E-06  2604   0.261E-03    0.228E-03
RMM:  11    -0.413212007104E+03    0.58316E-05   -0.18075E-06  2536   0.207E-03    0.139E-03
RMM:  12    -0.413212001456E+03    0.56480E-05   -0.72311E-07  2445   0.148E-03    0.738E-04
RMM:  13    -0.413211996951E+03    0.45051E-05   -0.34844E-07  2167   0.987E-04    0.400E-04
RMM:  14    -0.413211993042E+03    0.39097E-05   -0.18500E-07  1420   0.730E-04    0.222E-04
RMM:  15    -0.413211987532E+03    0.55096E-05   -0.15052E-07  1405   0.710E-04    0.126E-04
RMM:  16    -0.413211984365E+03    0.31666E-05   -0.92525E-08  1186   0.627E-04    0.119E-04
RMM:  17    -0.413211981647E+03    0.27183E-05   -0.61421E-08  1008   0.582E-04    0.663E-05
RMM:  18    -0.413211979348E+03    0.22990E-05   -0.48138E-08  1003   0.573E-04    0.414E-05
RMM:  19    -0.413211978291E+03    0.10568E-05   -0.27473E-08   806   0.536E-04    0.343E-05
RMM:  20    -0.413211977497E+03    0.79404E-06   -0.18054E-08   715   0.523E-04
   48 T=    70. E= -.41286651E+03 F= -.41321198E+03 E0= -.41319108E+03  EK= 0.34547E+00 SP= 0.00E+00 SK= 0.00E+00
       N       E                     dE             d eps       ncg     rms          rms(c)
RMM:   1    -0.413258363229E+03   -0.46385E-01   -0.13250E+01  4306   0.205E+00    0.960E-01
RMM:   2    -0.413207123390E+03    0.51240E-01   -0.20329E-01  4551   0.220E-01    0.676E-01
RMM:   3    -0.413236689623E+03   -0.29566E-01   -0.33865E-02  5171   0.166E-01    0.772E-01
RMM:   4    -0.413212824312E+03    0.23865E-01   -0.36935E-02  4930   0.175E-01    0.386E-01
RMM:   5    -0.413207038764E+03    0.57855E-02   -0.47155E-03  4784   0.911E-02    0.647E-02
RMM:   6    -0.413206771787E+03    0.26698E-03   -0.49670E-04  4666   0.309E-02    0.245E-02
RMM:   7    -0.413206768005E+03    0.37825E-05   -0.11848E-04  5706   0.115E-02    0.155E-02
RMM:   8    -0.413206758284E+03    0.97207E-05   -0.18031E-05  4145   0.470E-03    0.103E-02
RMM:   9    -0.413206742526E+03    0.15758E-04   -0.97993E-06  3426   0.426E-03    0.451E-03
RMM:  10    -0.413206733952E+03    0.85737E-05   -0.35017E-06  2745   0.291E-03    0.243E-03
RMM:  11    -0.413206726349E+03    0.76031E-05   -0.19929E-06  2553   0.227E-03    0.156E-03
RMM:  12    -0.413206721959E+03    0.43905E-05   -0.66459E-07  2440   0.148E-03    0.780E-04
RMM:  13    -0.413206717842E+03    0.41167E-05   -0.33503E-07  2160   0.977E-04    0.464E-04
RMM:  14    -0.413206712602E+03    0.52403E-05   -0.22191E-07  1686   0.792E-04    0.239E-04
RMM:  15    -0.413206707704E+03    0.48975E-05   -0.15390E-07  1389   0.707E-04    0.142E-04
RMM:  16    -0.413206705578E+03    0.21262E-05   -0.80811E-08  1096   0.620E-04    0.909E-05
RMM:  17    -0.413206702041E+03    0.35374E-05   -0.79878E-08  1247   0.631E-04    0.449E-05
RMM:  18    -0.413206700572E+03    0.14683E-05   -0.42373E-08   983   0.572E-04    0.342E-05
[...]
RMM:  16    -0.413161060107E+03   -0.24416E-05   -0.34644E-07  1580   0.788E-04    0.204E-04
RMM:  17    -0.413161060785E+03   -0.67837E-06   -0.12429E-07  1119   0.621E-04
  137 T=    60. E= -.41286593E+03 F= -.41316106E+03 E0= -.41314035E+03  EK= 0.29513E+00 SP= 0.00E+00 SK= 0.00E+00
       N       E                     dE             d eps       ncg     rms          rms(c)
RMM:   1    -0.413159756078E+03    0.13040E-02   -0.84720E+00  4264   0.767E-01    0.851E-01
RMM:   2    -0.413163821949E+03   -0.40659E-02   -0.97644E-02  4303   0.903E-02    0.606E-01
RMM:   3    -0.413161341675E+03    0.24803E-02   -0.14588E-02  4979   0.511E-02    0.130E-01
RMM:   4    -0.413190905958E+03   -0.29564E-01   -0.33000E-02  5131   0.151E-01    0.720E-01
RMM:   5    -0.413160588852E+03    0.30317E-01   -0.14579E-02  4803   0.120E-01    0.555E-02
RMM:   6    -0.413160617865E+03   -0.29013E-04   -0.25812E-03  5676   0.483E-02    0.329E-02
RMM:   7    -0.413160644985E+03   -0.27120E-04   -0.39905E-04  5853   0.173E-02    0.179E-02
RMM:   8    -0.413160649058E+03   -0.40735E-05   -0.50792E-05  5232   0.762E-03    0.792E-03
RMM:   9    -0.413160651675E+03   -0.26170E-05   -0.88416E-06  3314   0.336E-03    0.486E-03
RMM:  10    -0.413160657744E+03   -0.60687E-05   -0.22685E-06  2580   0.219E-03    0.302E-03
RMM:  11    -0.413160663123E+03   -0.53791E-05   -0.12732E-06  2515   0.170E-03    0.154E-03
RMM:  12    -0.413160669126E+03   -0.60032E-05   -0.12909E-06  2529   0.153E-03    0.718E-04
RMM:  13    -0.413160671406E+03   -0.22799E-05   -0.49607E-07  2177   0.107E-03    0.429E-04
RMM:  14    -0.413160673041E+03   -0.16351E-05   -0.27587E-07  1744   0.841E-04    0.269E-04
RMM:  15    -0.413160676167E+03   -0.31254E-05   -0.37517E-07  1757   0.850E-04    0.237E-04
RMM:  16    -0.413160678091E+03   -0.19247E-05   -0.26453E-07  1495   0.742E-04    0.211E-04
RMM:  17    -0.413160678820E+03   -0.72843E-06   -0.12141E-07  1110   0.618E-04
  138 T=    60. E= -.41286565E+03 F= -.41316068E+03 E0= -.41313998E+03  EK= 0.29503E+00 SP= 0.00E+00 SK= 0.00E+00
       N       E                     dE             d eps       ncg     rms          rms(c)
RMM:   1    -0.413158719728E+03    0.19584E-02   -0.88489E+00  4264   0.774E-01    0.843E-01
RMM:   2    -0.413164565412E+03   -0.58457E-02   -0.10211E-01  4303   0.902E-02    0.612E-01
RMM:   3    -0.413161837826E+03    0.27276E-02   -0.13160E-02  4950   0.472E-02    0.109E-01
RMM:   4    -0.413187882729E+03   -0.26045E-01   -0.28052E-02  5137   0.140E-01    0.675E-01
RMM:   5    -0.413161353251E+03    0.26529E-01   -0.12934E-02  4811   0.112E-01    0.518E-02
RMM:   6    -0.413161384176E+03   -0.30926E-04   -0.22777E-03  5684   0.452E-02    0.307E-02
RMM:   7    -0.413161413994E+03   -0.29818E-04   -0.35593E-04  5821   0.160E-02    0.160E-02
RMM:   8    -0.413161423262E+03   -0.92686E-05   -0.42862E-05  5024   0.691E-03    0.725E-03
RMM:   9    -0.413161428399E+03   -0.51367E-05   -0.74796E-06  3202   0.310E-03    0.454E-03
RMM:  10    -0.413161437817E+03   -0.94181E-05   -0.19356E-06  2553   0.204E-03    0.278E-03
RMM:  11    -0.413161446875E+03   -0.90579E-05   -0.12177E-06  2511   0.163E-03    0.133E-03
RMM:  12    -0.413161456171E+03   -0.92962E-05   -0.10991E-06  2484   0.143E-03    0.607E-04
RMM:  13    -0.413161459322E+03   -0.31503E-05   -0.40818E-07  2055   0.997E-04    0.374E-04
RMM:  14    -0.413161461632E+03   -0.23104E-05   -0.22784E-07  1547   0.795E-04    0.237E-04
RMM:  15    -0.413161466653E+03   -0.50214E-05   -0.36672E-07  1859   0.865E-04    0.261E-04
RMM:  16    -0.413161468728E+03   -0.20749E-05   -0.17760E-07  1348   0.674E-04    0.188E-04
RMM:  17    -0.413161469984E+03   -0.12555E-05   -0.11627E-07  1146   0.614E-04    0.118E-04
RMM:  18    -0.413161471162E+03   -0.11782E-05   -0.10558E-07  1172   0.620E-04    0.260E-05
RMM:  19    -0.413161471325E+03   -0.16261E-06   -0.46995E-08   883   0.551E-04
  139 T=    60. E= -.41286573E+03 F= -.41316147E+03 E0= -.41314078E+03  EK= 0.29574E+00 SP= 0.00E+00 SK= 0.00E+00
       N       E                     dE             d eps       ncg     rms          rms(c)
RMM:   1    -0.413158216440E+03    0.32547E-02   -0.92033E+00  4264   0.797E-01    0.860E-01
RMM:   2    -0.413164329493E+03   -0.61131E-02   -0.10483E-01  4295   0.933E-02    0.609E-01
RMM:   3    -0.413162004513E+03    0.23250E-02   -0.11090E-02  4875   0.432E-02    0.107E-01
RMM:   4    -0.413182353039E+03   -0.20349E-01   -0.21303E-02  5139   0.122E-01    0.597E-01
RMM:   5    -0.413161750840E+03    0.20602E-01   -0.10219E-02  4811   0.993E-02    0.483E-02
RMM:   6    -0.413161769191E+03   -0.18351E-04   -0.18261E-03  5685   0.407E-02    0.303E-02
RMM:   7    -0.413161792520E+03   -0.23329E-04   -0.29637E-04  5728   0.147E-02    0.143E-02
RMM:   8    -0.413161797343E+03   -0.48226E-05   -0.34702E-05  4781   0.620E-03    0.683E-03
RMM:   9    -0.413161800139E+03   -0.27959E-05   -0.55881E-06  3025   0.281E-03    0.428E-03
RMM:  10    -0.413161806174E+03   -0.60355E-05   -0.16930E-06  2535   0.196E-03    0.254E-03
RMM:  11    -0.413161811948E+03   -0.57740E-05   -0.11905E-06  2505   0.158E-03    0.115E-03
RMM:  12    -0.413161817007E+03   -0.50584E-05   -0.93076E-07  2397   0.132E-03    0.512E-04
RMM:  13    -0.413161819353E+03   -0.23465E-05   -0.40713E-07  1988   0.960E-04    0.309E-04
RMM:  14    -0.413161820928E+03   -0.15750E-05   -0.22315E-07  1490   0.777E-04    0.204E-04
RMM:  15    -0.413161824242E+03   -0.33143E-05   -0.39767E-07  1720   0.848E-04    0.201E-04
RMM:  16    -0.413161825361E+03   -0.11182E-05   -0.16483E-07  1271   0.675E-04    0.143E-04
RMM:  17    -0.413161826030E+03   -0.66964E-06   -0.11160E-07  1176   0.617E-04
  140 T=    60. E= -.41286590E+03 F= -.41316183E+03 E0= -.41314115E+03  EK= 0.29592E+00 SP= 0.00E+00 SK= 0.00E+00
       N       E                     dE             d eps       ncg     rms          rms(c)
RMM:   1    -0.413156675457E+03    0.51499E-02   -0.94639E+00  4264   0.804E-01    0.860E-01
RMM:   2    -0.413163224187E+03   -0.65487E-02   -0.10733E-01  4297   0.941E-02    0.600E-01
RMM:   3    -0.413161417496E+03    0.18067E-02   -0.95405E-03  4761   0.404E-02    0.111E-01
RMM:   4    -0.413172613338E+03   -0.11196E-01   -0.11675E-02  5157   0.909E-02    0.445E-01
RMM:   5    -0.413161339382E+03    0.11274E-01   -0.57286E-03  4829   0.743E-02    0.429E-02
RMM:   6    -0.413161340287E+03   -0.90421E-06   -0.10758E-03  5631   0.321E-02    0.286E-02
RMM:   7    -0.413161352322E+03   -0.12035E-04   -0.21113E-04  5576   0.123E-02    0.116E-02
RMM:   8    -0.413161354691E+03   -0.23690E-05   -0.25901E-05  4587   0.542E-03    0.619E-03
RMM:   9    -0.413161356234E+03   -0.15438E-05   -0.33391E-06  2785   0.234E-03    0.369E-03
RMM:  10    -0.413161360445E+03   -0.42103E-05   -0.15713E-06  2533   0.187E-03    0.207E-03
RMM:  11    -0.413161363845E+03   -0.34004E-05   -0.98438E-07  2464   0.145E-03    0.940E-04
RMM:  12    -0.413161366493E+03   -0.26481E-05   -0.66651E-07  2210   0.115E-03    0.454E-04
RMM:  13    -0.413161368496E+03   -0.20026E-05   -0.41766E-07  1867   0.912E-04    0.255E-04
RMM:  14    -0.413161369750E+03   -0.12541E-05   -0.23728E-07  1405   0.762E-04    0.194E-04
RMM:  15    -0.413161371498E+03   -0.17485E-05   -0.33013E-07  1539   0.790E-04    0.130E-04
RMM:  16    -0.413161372384E+03   -0.88533E-06   -0.19030E-07  1365   0.693E-04
  141 T=    60. E= -.41286568E+03 F= -.41316137E+03 E0= -.41314071E+03  EK= 0.29569E+00 SP= 0.00E+00 SK= 0.00E+00
       N       E                     dE             d eps       ncg     rms          rms(c)
RMM:   1    -0.413156318948E+03    0.50526E-02   -0.97102E+00  4264   0.819E-01    0.841E-01
RMM:   2    -0.413164382271E+03   -0.80633E-02   -0.11236E-01  4295   0.970E-02    0.604E-01
RMM:   3    -0.413162380267E+03    0.20020E-02   -0.83767E-03  4673   0.387E-02    0.105E-01
RMM:   4    -0.413166511587E+03   -0.41313E-02   -0.47065E-03  5156   0.580E-02    0.272E-01
RMM:   5    -0.413162364023E+03    0.41476E-02   -0.21706E-03  4844   0.460E-02    0.360E-02
RMM:   6    -0.413162353879E+03    0.10144E-04   -0.45807E-04  5516   0.220E-02    0.243E-02
RMM:   7    -0.413162378352E+03   -0.24473E-04   -0.13265E-04  5231   0.935E-03    0.993E-03
RMM:   8    -0.413162381679E+03   -0.33275E-05   -0.16425E-05  4264   0.457E-03    0.535E-03
RMM:   9    -0.413162384558E+03   -0.28789E-05   -0.19242E-06  2569   0.193E-03    0.286E-03
RMM:  10    -0.413162393321E+03   -0.87633E-05   -0.13372E-06  2513   0.165E-03    0.148E-03
RMM:  11    -0.413162399838E+03   -0.65164E-05   -0.81186E-07  2318   0.127E-03    0.655E-04
RMM:  12    -0.413162404862E+03   -0.50240E-05   -0.52925E-07  2045   0.101E-03    0.348E-04
RMM:  13    -0.413162408965E+03   -0.41037E-05   -0.36458E-07  1567   0.827E-04    0.191E-04
RMM:  14    -0.413162411784E+03   -0.28187E-05   -0.25441E-07  1459   0.761E-04    0.158E-04
RMM:  15    -0.413162413931E+03   -0.21468E-05   -0.20533E-07  1387   0.713E-04    0.988E-05
RMM:  16    -0.413162415408E+03   -0.14767E-05   -0.15718E-07  1257   0.653E-04    0.473E-05
RMM:  17    -0.413162415671E+03   -0.26348E-06   -0.64432E-08   905   0.548E-04
  142 T=    60. E= -.41286597E+03 F= -.41316242E+03 E0= -.41314176E+03  EK= 0.29645E+00 SP= 0.00E+00 SK= 0.00E+00
       N       E                     dE             d eps       ncg     rms          rms(c)
RMM:   1    -0.413155715271E+03    0.67001E-02   -0.10000E+01  4264   0.830E-01    0.855E-01
RMM:   2    -0.413164072226E+03   -0.83570E-02   -0.11560E-01  4302   0.961E-02    0.607E-01
RMM:   3    -0.413162489076E+03    0.15831E-02   -0.76327E-03  4633   0.351E-02    0.116E-01
RMM:   4    -0.413162569125E+03   -0.80049E-04   -0.85399E-04  5058   0.234E-02    0.415E-02
RMM:   5    -0.413162584919E+03   -0.15794E-04   -0.17508E-04  4954   0.138E-02    0.468E-02
RMM:   6    -0.413162505554E+03    0.79365E-04   -0.12155E-04  5169   0.113E-02    0.220E-02
RMM:   7    -0.413162522810E+03   -0.17256E-04   -0.90081E-05  4688   0.801E-03    0.103E-02
RMM:   8    -0.413162522943E+03   -0.13283E-06   -0.60678E-06  3223   0.342E-03
  143 T=    60. E= -.41286573E+03 F= -.41316252E+03 E0= -.41314188E+03  EK= 0.29679E+00 SP= 0.00E+00 SK= 0.00E+00
       N       E                     dE             d eps       ncg     rms          rms(c)
RMM:   1    -0.413155086150E+03    0.74367E-02   -0.10185E+01  4264   0.841E-01    0.869E-01
RMM:   2    -0.413163155110E+03   -0.80690E-02   -0.11636E-01  4310   0.965E-02    0.598E-01
RMM:   3    -0.413162313988E+03    0.84112E-03   -0.73230E-03  4796   0.391E-02    0.137E-01
RMM:   4    -0.413172734479E+03   -0.10420E-01   -0.10953E-02  5174   0.890E-02    0.428E-01
RMM:   5    -0.413162311371E+03    0.10423E-01   -0.53890E-03  4840   0.715E-02    0.437E-02
RMM:   6    -0.413162265724E+03    0.45646E-04   -0.97883E-04  5587   0.307E-02    0.214E-02
RMM:   7    -0.413162288644E+03   -0.22920E-04   -0.15560E-04  5672   0.110E-02    0.963E-03
RMM:   8    -0.413162294090E+03   -0.54457E-05   -0.27705E-05  4724   0.553E-03    0.565E-03
RMM:   9    -0.413162295916E+03   -0.18263E-05   -0.34958E-06  2775   0.253E-03    0.274E-03
RMM:  10    -0.413162299613E+03   -0.36968E-05   -0.17306E-06  2545   0.193E-03    0.162E-03
RMM:  11    -0.413162303279E+03   -0.36662E-05   -0.14352E-06  2507   0.161E-03    0.794E-04
RMM:  12    -0.413162304828E+03   -0.15486E-05   -0.62040E-07  2178   0.111E-03    0.374E-04
RMM:  13    -0.413162305893E+03   -0.10648E-05   -0.39866E-07  1738   0.880E-04    0.249E-04
RMM:  14    -0.413162306744E+03   -0.85180E-06   -0.38503E-07  1667   0.832E-04
  144 T=    60. E= -.41286569E+03 F= -.41316231E+03 E0= -.41314167E+03  EK= 0.29661E+00 SP= 0.00E+00 SK= 0.00E+00
       N       E                     dE             d eps       ncg     rms          rms(c)
RMM:   1    -0.413154883971E+03    0.74219E-02   -0.10253E+01  4264   0.847E-01    0.843E-01
RMM:   2    -0.413164598355E+03   -0.97144E-02   -0.11967E-01  4299   0.101E-01    0.599E-01
RMM:   3    -0.413163202388E+03    0.13960E-02   -0.63123E-03  4773   0.399E-02    0.137E-01
RMM:   4    -0.413174492461E+03   -0.11290E-01   -0.11671E-02  5164   0.915E-02    0.447E-01
RMM:   5    -0.413163091749E+03    0.11401E-01   -0.57894E-03  4836   0.739E-02    0.359E-02
RMM:   6    -0.413163080444E+03    0.11305E-04   -0.98629E-04  5684   0.298E-02    0.168E-02
RMM:   7    -0.413163101114E+03   -0.20670E-04   -0.12711E-04  5372   0.977E-03    0.863E-03
RMM:   8    -0.413163109878E+03   -0.87635E-05   -0.19207E-05  4069   0.463E-03    0.475E-03
RMM:   9    -0.413163113592E+03   -0.37140E-05   -0.30878E-06  2691   0.239E-03    0.241E-03
RMM:  10    -0.413163119286E+03   -0.56942E-05   -0.14875E-06  2531   0.176E-03    0.148E-03
RMM:  11    -0.413163124418E+03   -0.51318E-05   -0.10314E-06  2492   0.139E-03    0.646E-04
RMM:  12    -0.413163127277E+03   -0.28592E-05   -0.55840E-07  2062   0.102E-03    0.296E-04
RMM:  13    -0.413163128922E+03   -0.16445E-05   -0.30879E-07  1574   0.828E-04    0.191E-04
RMM:  14    -0.413163130237E+03   -0.13153E-05   -0.24368E-07  1494   0.774E-04    0.111E-04
RMM:  15    -0.413163131267E+03   -0.10299E-05   -0.21306E-07  1465   0.727E-04    0.713E-05
RMM:  16    -0.413163131739E+03   -0.47225E-06   -0.13824E-07  1224   0.644E-04
  145 T=    60. E= -.41286602E+03 F= -.41316313E+03 E0= -.41314250E+03  EK= 0.29712E+00 SP= 0.00E+00 SK= 0.00E+00
       N       E                     dE             d eps       ncg     rms          rms(c)
RMM:   1    -0.413155158064E+03    0.79732E-02   -0.10419E+01  4264   0.867E-01    0.849E-01
RMM:   2    -0.413164432820E+03   -0.92748E-02   -0.12334E-01  4295   0.104E-01    0.608E-01
RMM:   3    -0.413163454869E+03    0.97795E-03   -0.62317E-03  4942   0.396E-02    0.147E-01
RMM:   4    -0.413185650088E+03   -0.22195E-01   -0.22711E-02  5160   0.126E-01    0.621E-01
RMM:   5    -0.413163230651E+03    0.22419E-01   -0.11231E-02  4826   0.103E-01    0.424E-02
RMM:   6    -0.413163257150E+03   -0.26499E-04   -0.18532E-03  5720   0.403E-02    0.141E-02
RMM:   7    -0.413163285008E+03   -0.27858E-04   -0.21952E-04  5674   0.121E-02    0.978E-03
RMM:   8    -0.413163294106E+03   -0.90974E-05   -0.24471E-05  3977   0.478E-03    0.529E-03
RMM:   9    -0.413163299848E+03   -0.57424E-05   -0.47152E-06  2818   0.266E-03    0.271E-03
RMM:  10    -0.413163305549E+03   -0.57006E-05   -0.17428E-06  2553   0.181E-03    0.157E-03
RMM:  11    -0.413163310354E+03   -0.48059E-05   -0.10100E-06  2479   0.139E-03    0.767E-04
RMM:  12    -0.413163313960E+03   -0.36060E-05   -0.72738E-07  2225   0.112E-03    0.267E-04
RMM:  13    -0.413163315232E+03   -0.12717E-05   -0.29876E-07  1613   0.841E-04    0.193E-04
RMM:  14    -0.413163316762E+03   -0.15301E-05   -0.29441E-07  1494   0.804E-04    0.111E-04
RMM:  15    -0.413163317562E+03   -0.79927E-06   -0.19690E-07  1451   0.734E-04
  146 T=    61. E= -.41286575E+03 F= -.41316332E+03 E0= -.41314270E+03  EK= 0.29757E+00 SP= 0.00E+00 SK= 0.00E+00
       N       E                     dE             d eps       ncg     rms          rms(c)
RMM:   1    -0.413155353979E+03    0.79628E-02   -0.10479E+01  4264   0.859E-01    0.870E-01
RMM:   2    -0.413164623872E+03   -0.92699E-02   -0.12125E-01  4299   0.997E-02    0.599E-01
RMM:   3    -0.413164008564E+03    0.61531E-03   -0.64865E-03  4995   0.411E-02    0.163E-01
RMM:   4    -0.413192850822E+03   -0.28842E-01   -0.29765E-02  5151   0.144E-01    0.706E-01
RMM:   5    -0.413163675987E+03    0.29175E-01   -0.14524E-02  4819   0.118E-01    0.489E-02
RMM:   6    -0.413163717873E+03   -0.41886E-04   -0.23767E-03  5704   0.460E-02    0.157E-02
RMM:   7    -0.413163744673E+03   -0.26799E-04   -0.28939E-04  5818   0.137E-02    0.109E-02
RMM:   8    -0.413163747523E+03   -0.28503E-05   -0.30455E-05  4035   0.494E-03    0.629E-03
RMM:   9    -0.413163748131E+03   -0.60848E-06   -0.50717E-06  2791   0.274E-03
  147 T=    61. E= -.41286610E+03 F= -.41316375E+03 E0= -.41314313E+03  EK= 0.29765E+00 SP= 0.00E+00 SK= 0.00E+00
       N       E                     dE             d eps       ncg     rms          rms(c)
RMM:   1    -0.413155190348E+03    0.85572E-02   -0.10373E+01  4266   0.853E-01    0.845E-01
RMM:   2    -0.413164752346E+03   -0.95620E-02   -0.12289E-01  4309   0.996E-02    0.597E-01
RMM:   3    -0.413165112064E+03   -0.35972E-03   -0.68390E-03  5116   0.497E-02    0.204E-01
RMM:   4    -0.413202682321E+03   -0.37570E-01   -0.43549E-02  5131   0.173E-01    0.812E-01
RMM:   5    -0.413163843027E+03    0.38839E-01   -0.18663E-02  4810   0.136E-01    0.613E-02
RMM:   6    -0.413163852160E+03   -0.91329E-05   -0.30570E-03  5631   0.531E-02    0.142E-02
RMM:   7    -0.413163894180E+03   -0.42020E-04   -0.41377E-04  6082   0.166E-02    0.115E-02
RMM:   8    -0.413163899062E+03   -0.48823E-05   -0.43932E-05  4556   0.576E-03    0.742E-03
RMM:   9    -0.413163903230E+03   -0.41673E-05   -0.74179E-06  3013   0.347E-03    0.363E-03
RMM:  10    -0.413163906265E+03   -0.30349E-05   -0.24285E-06  2565   0.226E-03    0.202E-03
RMM:  11    -0.413163908813E+03   -0.25479E-05   -0.13518E-06  2543   0.163E-03    0.968E-04
RMM:  12    -0.413163909912E+03   -0.10994E-05   -0.68564E-07  2199   0.112E-03    0.457E-04
RMM:  13    -0.413163910387E+03   -0.47513E-06   -0.43920E-07  1913   0.942E-04
  148 T=    61. E= -.41286593E+03 F= -.41316391E+03 E0= -.41314330E+03  EK= 0.29798E+00 SP= 0.00E+00 SK= 0.00E+00
       N       E                     dE             d eps       ncg     rms          rms(c)
RMM:   1    -0.413155747752E+03    0.81622E-02   -0.10380E+01  4264   0.862E-01    0.843E-01
RMM:   2    -0.413165828622E+03   -0.10081E-01   -0.12555E-01  4300   0.102E-01    0.610E-01
RMM:   3    -0.413165144453E+03    0.68417E-03   -0.63378E-03  5045   0.434E-02    0.169E-01
RMM:   4    -0.413202418633E+03   -0.37274E-01   -0.39735E-02  5148   0.165E-01    0.801E-01
RMM:   5    -0.413164507278E+03    0.37911E-01   -0.18723E-02  4815   0.134E-01    0.543E-02
RMM:   6    -0.413164570175E+03   -0.62897E-04   -0.30539E-03  5690   0.523E-02    0.135E-02
RMM:   7    -0.413164608996E+03   -0.38821E-04   -0.37331E-04  5986   0.152E-02    0.110E-02
RMM:   8    -0.413164616340E+03   -0.73436E-05   -0.38384E-05  4402   0.563E-03    0.625E-03
RMM:   9    -0.413164621616E+03   -0.52756E-05   -0.67094E-06  2930   0.294E-03    0.322E-03
RMM:  10    -0.413164626161E+03   -0.45453E-05   -0.22827E-06  2570   0.201E-03    0.183E-03
RMM:  11    -0.413164629611E+03   -0.34496E-05   -0.11577E-06  2507   0.148E-03    0.982E-04
RMM:  12    -0.413164632197E+03   -0.25864E-05   -0.79558E-07  2302   0.118E-03    0.381E-04
RMM:  13    -0.413164633044E+03   -0.84736E-06   -0.35025E-07  1785   0.885E-04
  149 T=    61. E= -.41286594E+03 F= -.41316463E+03 E0= -.41314403E+03  EK= 0.29870E+00 SP= 0.00E+00 SK= 0.00E+00
       N       E                     dE             d eps       ncg     rms          rms(c)
RMM:   1    -0.413157324843E+03    0.73074E-02   -0.10298E+01  4264   0.855E-01    0.865E-01
RMM:   2    -0.413166350144E+03   -0.90253E-02   -0.12151E-01  4306   0.973E-02    0.604E-01
RMM:   3    -0.413165916447E+03    0.43370E-03   -0.68946E-03  5054   0.454E-02    0.175E-01
RMM:   4    -0.413202629441E+03   -0.36713E-01   -0.39512E-02  5140   0.165E-01    0.797E-01
RMM:   5    -0.413165179572E+03    0.37450E-01   -0.18450E-02  4816   0.134E-01    0.573E-02
RMM:   6    -0.413165225330E+03   -0.45758E-04   -0.30267E-03  5671   0.523E-02    0.181E-02
RMM:   7    -0.413165255333E+03   -0.30003E-04   -0.38559E-04  6016   0.156E-02    0.126E-02
RMM:   8    -0.413165256061E+03   -0.72799E-06   -0.43619E-05  4930   0.640E-03    0.652E-03
RMM:   9    -0.413165254754E+03    0.13073E-05   -0.81964E-06  3092   0.312E-03    0.321E-03
RMM:  10    -0.413165254364E+03    0.38992E-06   -0.22502E-06  2565   0.204E-03
  150 T=    61. E= -.41286623E+03 F= -.41316525E+03 E0= -.41314465E+03  EK= 0.29902E+00 SP= 0.00E+00 SK= 0.00E+00
