       N       E                     dE             d eps       ncg     rms          rms(c)
RMM:   1     0.220161146591E+04    0.22016E+04   -0.52440E+04  2132   0.654E+02
RMM:   2     0.705915822611E+03   -0.14957E+04   -0.16264E+04  2132   0.177E+02
RMM:   3     0.137819996355E+03   -0.56810E+03   -0.65712E+03  2132   0.117E+02
RMM:   4    -0.159255024280E+03   -0.29708E+03   -0.27832E+03  2132   0.936E+01
RMM:   5    -0.287471266147E+03   -0.12822E+03   -0.11444E+03  2132   0.595E+01
RMM:   6    -0.349915946916E+03   -0.62445E+02   -0.55179E+02  2132   0.423E+01
RMM:   7    -0.382801811937E+03   -0.32886E+02   -0.30427E+02  2132   0.293E+01
RMM:   8    -0.404251308899E+03   -0.21449E+02   -0.18393E+02  2132   0.233E+01
RMM:   9    -0.435991647193E+03   -0.31740E+02   -0.30672E+02  6102   0.173E+01
RMM:  10    -0.441290019685E+03   -0.52984E+01   -0.63181E+01  6397   0.540E+00
RMM:  11    -0.442524374540E+03   -0.12344E+01   -0.11315E+01  6223   0.174E+00
RMM:  12    -0.442899464870E+03   -0.37509E+00   -0.27298E+00  6367   0.602E-01    0.134E+02
RMM:  13    -0.425598541141E+03    0.17301E+02   -0.80920E+01  4672   0.119E+01    0.712E+01
RMM:  14    -0.499359138997E+03   -0.73761E+02   -0.53990E+02  5415   0.232E+01    0.306E+01
RMM:  15    -0.415042255327E+03    0.84317E+02   -0.19629E+02  5063   0.163E+01    0.650E+00
RMM:  16    -0.414018550017E+03    0.10237E+01   -0.39274E+01  6075   0.606E+00    0.424E+00
RMM:  17    -0.413221812725E+03    0.79674E+00   -0.23855E+00  5387   0.182E+00    0.245E+00
RMM:  18    -0.413168105761E+03    0.53707E-01   -0.83613E-01  5961   0.944E-01    0.161E+00
RMM:  19    -0.413166974793E+03    0.11310E-02   -0.28191E-01  5734   0.565E-01    0.846E-01
RMM:  20    -0.413180880281E+03   -0.13905E-01   -0.19811E-01  5435   0.484E-01    0.517E-01
RMM:  21    -0.413166896507E+03    0.13984E-01   -0.31107E-02  5031   0.216E-01    0.246E-01
RMM:  22    -0.413165174530E+03    0.17220E-02   -0.14402E-02  6075   0.103E-01    0.138E-01
RMM:  23    -0.413163945459E+03    0.12291E-02   -0.50005E-03  5864   0.641E-02    0.807E-02
RMM:  24    -0.413162670554E+03    0.12749E-02   -0.16187E-03  5406   0.403E-02    0.396E-02
RMM:  25    -0.413162469929E+03    0.20062E-03   -0.84806E-04  5616   0.259E-02    0.311E-02
RMM:  26    -0.413162708573E+03   -0.23864E-03   -0.71170E-04  5880   0.272E-02    0.335E-02
RMM:  27    -0.413163147267E+03   -0.43869E-03   -0.19028E-04  4574   0.198E-02    0.174E-02
RMM:  28    -0.413163629308E+03   -0.48204E-03   -0.19284E-04  5347   0.193E-02    0.865E-03
RMM:  29    -0.413163996459E+03   -0.36715E-03   -0.96461E-05  4329   0.143E-02    0.447E-03
RMM:  30    -0.413164224958E+03   -0.22850E-03   -0.77323E-05  4076   0.101E-02    0.292E-03
RMM:  31    -0.413164333371E+03   -0.10841E-03   -0.48238E-05  3192   0.612E-03    0.291E-03
RMM:  32    -0.413164357164E+03   -0.23793E-04   -0.19613E-05  2938   0.302E-03    0.128E-03
RMM:  33    -0.413164365478E+03   -0.83137E-05   -0.80930E-06  2761   0.204E-03    0.470E-04
RMM:  34    -0.413164367649E+03   -0.21708E-05   -0.45459E-06  2669   0.171E-03    0.101E-03
RMM:  35    -0.413164366699E+03    0.94947E-06   -0.20591E-06  2240   0.113E-03
    1 T=    61. E= -.41286655E+03 F= -.41316437E+03 E0= -.41314187E+03  EK= 0.29782E+00 SP= 0.00E+00 SK= 0.00E+00
       N       E                     dE             d eps       ncg     rms          rms(c)
RMM:   1    -0.413156408927E+03    0.79587E-02   -0.10686E+01  4005   0.682E-01    0.886E-01
RMM:   2    -0.413166236872E+03   -0.98279E-02   -0.13126E-01  3944   0.967E-02    0.643E-01
RMM:   3    -0.413164184268E+03    0.20526E-02   -0.78236E-03  4653   0.370E-02    0.133E-01
RMM:   4    -0.413178337345E+03   -0.14153E-01   -0.14884E-02  5223   0.101E-01    0.499E-01
RMM:   5    -0.413163964865E+03    0.14372E-01   -0.71735E-03  4861   0.835E-02    0.331E-02
RMM:   6    -0.413164055759E+03   -0.90893E-04   -0.12008E-03  5805   0.334E-02    0.221E-02
RMM:   7    -0.413164065599E+03   -0.98407E-05   -0.19727E-04  5705   0.126E-02    0.129E-02
RMM:   8    -0.413164070741E+03   -0.51411E-05   -0.25303E-05  4299   0.526E-03    0.544E-03
RMM:   9    -0.413164075420E+03   -0.46798E-05   -0.52448E-06  2961   0.261E-03    0.430E-03
RMM:  10    -0.413164080584E+03   -0.51634E-05   -0.12259E-06  2530   0.165E-03    0.275E-03
RMM:  11    -0.413164088036E+03   -0.74518E-05   -0.12613E-06  2521   0.157E-03    0.114E-03
RMM:  12    -0.413164093514E+03   -0.54785E-05   -0.86874E-07  2367   0.125E-03    0.525E-04
RMM:  13    -0.413164093970E+03   -0.45583E-06   -0.36115E-07  1752   0.834E-04
    2 T=    61. E= -.41286628E+03 F= -.41316409E+03 E0= -.41314159E+03  EK= 0.29782E+00 SP= 0.00E+00 SK= 0.00E+00
       N       E                     dE             d eps       ncg     rms          rms(c)
RMM:   1    -0.413157472695E+03    0.66208E-02   -0.10716E+01  4186   0.685E-01    0.909E-01
RMM:   2    -0.413166299160E+03   -0.88265E-02   -0.12901E-01  3978   0.951E-02    0.636E-01
RMM:   3    -0.413164793684E+03    0.15055E-02   -0.81022E-03  4843   0.376E-02    0.151E-01
RMM:   4    -0.413190279825E+03   -0.25486E-01   -0.25988E-02  5187   0.135E-01    0.666E-01
RMM:   5    -0.413164438818E+03    0.25841E-01   -0.12520E-02  4831   0.112E-01    0.401E-02
RMM:   6    -0.413164610435E+03   -0.17162E-03   -0.21184E-03  5806   0.445E-02    0.248E-02
RMM:   7    -0.413164618356E+03   -0.79205E-05   -0.29600E-04  5845   0.152E-02    0.161E-02
RMM:   8    -0.413164617093E+03    0.12631E-05   -0.46718E-05  4951   0.690E-03    0.781E-03
RMM:   9    -0.413164616328E+03    0.76493E-06   -0.96894E-06  3547   0.352E-03
    3 T=    61. E= -.41286653E+03 F= -.41316462E+03 E0= -.41314212E+03  EK= 0.29809E+00 SP= 0.00E+00 SK= 0.00E+00
       N       E                     dE             d eps       ncg     rms          rms(c)
RMM:   1    -0.413156903092E+03    0.77140E-02   -0.10633E+01  4227   0.686E-01    0.893E-01
RMM:   2    -0.413166210587E+03   -0.93075E-02   -0.12812E-01  4308   0.978E-02    0.630E-01
RMM:   3    -0.413172220516E+03   -0.60099E-02   -0.14155E-02  5203   0.876E-02    0.399E-01
RMM:   4    -0.413182069617E+03   -0.98491E-02   -0.34168E-02  5099   0.160E-01    0.556E-01
RMM:   5    -0.413164432315E+03    0.17637E-01   -0.63157E-03  4651   0.934E-02    0.546E-02
RMM:   6    -0.413164371809E+03    0.60506E-04   -0.11937E-03  5338   0.351E-02    0.237E-02
RMM:   7    -0.413164389384E+03   -0.17575E-04   -0.23798E-04  5985   0.151E-02    0.151E-02
RMM:   8    -0.413164390085E+03   -0.70129E-06   -0.43931E-05  5223   0.736E-03    0.657E-03
RMM:   9    -0.413164390249E+03   -0.16427E-06   -0.99040E-06  3741   0.393E-03
    4 T=    61. E= -.41286629E+03 F= -.41316439E+03 E0= -.41314190E+03  EK= 0.29810E+00 SP= 0.00E+00 SK= 0.00E+00
       N       E                     dE             d eps       ncg     rms          rms(c)
RMM:   1    -0.413156821757E+03    0.75683E-02   -0.10679E+01  4233   0.697E-01    0.883E-01
RMM:   2    -0.413166639789E+03   -0.98180E-02   -0.13146E-01  4145   0.951E-02    0.641E-01
RMM:   3    -0.413165049555E+03    0.15902E-02   -0.80517E-03  4982   0.426E-02    0.160E-01
RMM:   4    -0.413203206162E+03   -0.38157E-01   -0.39910E-02  5158   0.167E-01    0.812E-01
RMM:   5    -0.413164292081E+03    0.38914E-01   -0.18584E-02  4811   0.136E-01    0.444E-02
RMM:   6    -0.413164525203E+03   -0.23312E-03   -0.30827E-03  5840   0.539E-02    0.249E-02
RMM:   7    -0.413164544912E+03   -0.19709E-04   -0.38299E-04  5956   0.169E-02    0.172E-02
RMM:   8    -0.413164550082E+03   -0.51696E-05   -0.62828E-05  5088   0.760E-03    0.934E-03
RMM:   9    -0.413164552947E+03   -0.28650E-05   -0.13598E-05  3935   0.405E-03    0.634E-03
RMM:  10    -0.413164558150E+03   -0.52033E-05   -0.23605E-06  2609   0.217E-03    0.404E-03
RMM:  11    -0.413164565007E+03   -0.68567E-05   -0.21274E-06  2605   0.213E-03    0.189E-03
RMM:  12    -0.413164570300E+03   -0.52929E-05   -0.13166E-06  2522   0.174E-03    0.639E-04
RMM:  13    -0.413164571066E+03   -0.76607E-06   -0.42359E-07  2194   0.108E-03
    5 T=    61. E= -.41286637E+03 F= -.41316457E+03 E0= -.41314209E+03  EK= 0.29820E+00 SP= 0.00E+00 SK= 0.00E+00
       N       E                     dE             d eps       ncg     rms          rms(c)
RMM:   1    -0.413157736828E+03    0.68335E-02   -0.10719E+01  4250   0.699E-01    0.904E-01
RMM:   2    -0.413166833266E+03   -0.90964E-02   -0.12924E-01  4111   0.970E-02    0.638E-01
RMM:   3    -0.413165318637E+03    0.15146E-02   -0.80088E-03  4806   0.398E-02    0.150E-01
RMM:   4    -0.413191248062E+03   -0.25929E-01   -0.26346E-02  5162   0.135E-01    0.673E-01
RMM:   5    -0.413164878300E+03    0.26370E-01   -0.12830E-02  4821   0.112E-01    0.396E-02
RMM:   6    -0.413165046438E+03   -0.16814E-03   -0.21272E-03  5778   0.444E-02    0.244E-02
RMM:   7    -0.413165052969E+03   -0.65308E-05   -0.29022E-04  5840   0.151E-02    0.160E-02
RMM:   8    -0.413165051243E+03    0.17257E-05   -0.47411E-05  4930   0.695E-03    0.795E-03
RMM:   9    -0.413165050052E+03    0.11909E-05   -0.98548E-06  3563   0.359E-03    0.581E-03
RMM:  10    -0.413165050832E+03   -0.77967E-06   -0.15260E-06  2554   0.193E-03
    6 T=    61. E= -.41286661E+03 F= -.41316505E+03 E0= -.41314259E+03  EK= 0.29844E+00 SP= 0.00E+00 SK= 0.00E+00
       N       E                     dE             d eps       ncg     rms          rms(c)
RMM:   1    -0.413157531590E+03    0.75185E-02   -0.10664E+01  4257   0.702E-01    0.900E-01
RMM:   2    -0.413166400275E+03   -0.88687E-02   -0.12838E-01  4198   0.955E-02    0.631E-01
RMM:   3    -0.413166924058E+03   -0.52378E-03   -0.94950E-03  5102   0.572E-02    0.239E-01
RMM:   4    -0.413202418581E+03   -0.35495E-01   -0.45202E-02  5131   0.178E-01    0.802E-01
RMM:   5    -0.413164658103E+03    0.37760E-01   -0.16808E-02  4773   0.134E-01    0.538E-02
RMM:   6    -0.413164795892E+03   -0.13779E-03   -0.27798E-03  5649   0.523E-02    0.241E-02
RMM:   7    -0.413164817217E+03   -0.21325E-04   -0.37919E-04  6019   0.162E-02    0.162E-02
RMM:   8    -0.413164817439E+03   -0.22127E-06   -0.58547E-05  5236   0.768E-03    0.766E-03
RMM:   9    -0.413164814569E+03    0.28695E-05   -0.10593E-05  3476   0.359E-03    0.369E-03
RMM:  10    -0.413164814692E+03   -0.12344E-06   -0.24174E-06  2601   0.214E-03
    7 T=    61. E= -.41286633E+03 F= -.41316481E+03 E0= -.41314237E+03  EK= 0.29849E+00 SP= 0.00E+00 SK= 0.00E+00
       N       E                     dE             d eps       ncg     rms          rms(c)
RMM:   1    -0.413157644633E+03    0.71699E-02   -0.10664E+01  4265   0.707E-01    0.882E-01
RMM:   2    -0.413167379499E+03   -0.97349E-02   -0.13084E-01  4171   0.949E-02    0.639E-01
RMM:   3    -0.413166890268E+03    0.48923E-03   -0.88591E-03  5085   0.531E-02    0.212E-01
RMM:   4    -0.413209587047E+03   -0.42697E-01   -0.50175E-02  5146   0.187E-01    0.866E-01
RMM:   5    -0.413165126864E+03    0.44460E-01   -0.20389E-02  4800   0.145E-01    0.522E-02
RMM:   6    -0.413165321266E+03   -0.19440E-03   -0.32842E-03  5721   0.567E-02    0.236E-02
RMM:   7    -0.413165349230E+03   -0.27964E-04   -0.43837E-04  6022   0.174E-02    0.172E-02
RMM:   8    -0.413165354279E+03   -0.50489E-05   -0.66418E-05  5239   0.791E-03    0.871E-03
RMM:   9    -0.413165355334E+03   -0.10550E-05   -0.12654E-05  3674   0.387E-03    0.450E-03
RMM:  10    -0.413165359045E+03   -0.37116E-05   -0.27702E-06  2622   0.220E-03    0.300E-03
RMM:  11    -0.413165362825E+03   -0.37801E-05   -0.11972E-06  2522   0.166E-03    0.150E-03
RMM:  12    -0.413165366223E+03   -0.33977E-05   -0.93799E-07  2479   0.141E-03    0.362E-04
RMM:  13    -0.413165367551E+03   -0.13281E-05   -0.42794E-07  2063   0.102E-03    0.286E-04
RMM:  14    -0.413165367968E+03   -0.41715E-06   -0.21837E-07  1535   0.785E-04
    8 T=    61. E= -.41286655E+03 F= -.41316537E+03 E0= -.41314294E+03  EK= 0.29882E+00 SP= 0.00E+00 SK= 0.00E+00
       N       E                     dE             d eps       ncg     rms          rms(c)
RMM:   1    -0.413158092900E+03    0.72747E-02   -0.10724E+01  4278   0.712E-01    0.899E-01
RMM:   2    -0.413167435669E+03   -0.93428E-02   -0.13014E-01  4188   0.981E-02    0.641E-01
RMM:   3    -0.413165884152E+03    0.15515E-02   -0.80687E-03  4879   0.409E-02    0.153E-01
RMM:   4    -0.413197020179E+03   -0.31136E-01   -0.32019E-02  5153   0.149E-01    0.735E-01
RMM:   5    -0.413165318349E+03    0.31702E-01   -0.15435E-02  4810   0.123E-01    0.422E-02
RMM:   6    -0.413165511489E+03   -0.19314E-03   -0.25058E-03  5765   0.485E-02    0.249E-02
RMM:   7    -0.413165522783E+03   -0.11294E-04   -0.33897E-04  5876   0.158E-02    0.166E-02
RMM:   8    -0.413165522546E+03    0.23737E-06   -0.50620E-05  5005   0.708E-03    0.817E-03
RMM:   9    -0.413165521424E+03    0.11216E-05   -0.11121E-05  3649   0.368E-03    0.570E-03
RMM:  10    -0.413165522418E+03   -0.99325E-06   -0.17218E-06  2562   0.197E-03
    9 T=    61. E= -.41286643E+03 F= -.41316552E+03 E0= -.41314311E+03  EK= 0.29910E+00 SP= 0.00E+00 SK= 0.00E+00
       N       E                     dE             d eps       ncg     rms          rms(c)
RMM:   1    -0.413158427810E+03    0.70936E-02   -0.10707E+01  4293   0.716E-01    0.907E-01
RMM:   2    -0.413167147855E+03   -0.87200E-02   -0.12861E-01  4259   0.959E-02    0.633E-01
RMM:   3    -0.413168051705E+03   -0.90385E-03   -0.99101E-03  5094   0.609E-02    0.253E-01
RMM:   4    -0.413200796291E+03   -0.32745E-01   -0.43941E-02  5124   0.176E-01    0.777E-01
RMM:   5    -0.413165472513E+03    0.35324E-01   -0.15569E-02  4757   0.129E-01    0.535E-02
RMM:   6    -0.413165597438E+03   -0.12493E-03   -0.25962E-03  5638   0.504E-02    0.242E-02
RMM:   7    -0.413165616125E+03   -0.18687E-04   -0.35829E-04  6008   0.160E-02    0.161E-02
RMM:   8    -0.413165614226E+03    0.18989E-05   -0.57114E-05  5237   0.770E-03    0.759E-03
RMM:   9    -0.413165609643E+03    0.45827E-05   -0.10074E-05  3417   0.358E-03    0.356E-03
RMM:  10    -0.413165608547E+03    0.10966E-05   -0.22698E-06  2579   0.212E-03    0.247E-03
RMM:  11    -0.413165606989E+03    0.15574E-05   -0.11226E-06  2514   0.164E-03    0.127E-03
RMM:  12    -0.413165605352E+03    0.16378E-05   -0.68261E-07  2423   0.128E-03    0.389E-04
RMM:  13    -0.413165604568E+03    0.78320E-06   -0.33006E-07  1911   0.923E-04
   10 T=    61. E= -.41286625E+03 F= -.41316560E+03 E0= -.41314322E+03  EK= 0.29935E+00 SP= 0.00E+00 SK= 0.00E+00
       N       E                     dE             d eps       ncg     rms          rms(c)
RMM:   1    -0.413158884937E+03    0.67204E-02   -0.10661E+01  4288   0.728E-01    0.883E-01
RMM:   2    -0.413168324657E+03   -0.94397E-02   -0.13015E-01  4227   0.960E-02    0.636E-01
RMM:   3    -0.413166777397E+03    0.15473E-02   -0.78275E-03  4890   0.419E-02    0.153E-01
RMM:   4    -0.413198853137E+03   -0.32076E-01   -0.33145E-02  5149   0.151E-01    0.746E-01
RMM:   5    -0.413166159641E+03    0.32693E-01   -0.16012E-02  4804   0.125E-01    0.419E-02
RMM:   6    -0.413166349466E+03   -0.18982E-03   -0.25189E-03  5766   0.491E-02    0.246E-02
RMM:   7    -0.413166360284E+03   -0.10818E-04   -0.34028E-04  5862   0.159E-02    0.165E-02
RMM:   8    -0.413166360666E+03   -0.38127E-06   -0.53789E-05  5023   0.724E-03    0.834E-03
RMM:   9    -0.413166359831E+03    0.83425E-06   -0.11746E-05  3718   0.380E-03    0.573E-03
RMM:  10    -0.413166361354E+03   -0.15223E-05   -0.18856E-06  2577   0.200E-03    0.372E-03
RMM:  11    -0.413166363642E+03   -0.22886E-05   -0.17134E-06  2560   0.198E-03    0.159E-03
RMM:  12    -0.413166365080E+03   -0.14381E-05   -0.10279E-06  2491   0.156E-03    0.624E-04
RMM:  13    -0.413166365208E+03   -0.12761E-06   -0.33283E-07  2062   0.982E-04
   11 T=    61. E= -.41286658E+03 F= -.41316637E+03 E0= -.41314401E+03  EK= 0.29978E+00 SP= 0.00E+00 SK= 0.00E+00
       N       E                     dE             d eps       ncg     rms          rms(c)
RMM:   1    -0.413158730624E+03    0.76345E-02   -0.10735E+01  4298   0.726E-01    0.894E-01
RMM:   2    -0.413168296385E+03   -0.95658E-02   -0.13142E-01  4233   0.977E-02    0.644E-01
RMM:   3    -0.413166579341E+03    0.17170E-02   -0.79844E-03  4840   0.405E-02    0.148E-01
RMM:   4    -0.413195130693E+03   -0.28551E-01   -0.29307E-02  5149   0.142E-01    0.705E-01
RMM:   5    -0.413166104589E+03    0.29026E-01   -0.14282E-02  4809   0.117E-01    0.397E-02
RMM:   6    -0.413166276738E+03   -0.17215E-03   -0.22224E-03  5790   0.461E-02    0.239E-02
RMM:   7    -0.413166286027E+03   -0.92889E-05   -0.30016E-04  5839   0.153E-02    0.158E-02
RMM:   8    -0.413166286107E+03   -0.80025E-07   -0.50989E-05  4983   0.712E-03    0.817E-03
RMM:   9    -0.413166284947E+03    0.11603E-05   -0.10741E-05  3661   0.372E-03    0.574E-03
RMM:  10    -0.413166286258E+03   -0.13106E-05   -0.16664E-06  2562   0.195E-03    0.372E-03
RMM:  11    -0.413166288266E+03   -0.20083E-05   -0.18006E-06  2568   0.203E-03    0.159E-03
RMM:  12    -0.413166289356E+03   -0.10901E-05   -0.97555E-07  2481   0.154E-03    0.665E-04
RMM:  13    -0.413166289406E+03   -0.49949E-07   -0.31183E-07  2030   0.950E-04
   12 T=    61. E= -.41286635E+03 F= -.41316629E+03 E0= -.41314396E+03  EK= 0.29994E+00 SP= 0.00E+00 SK= 0.00E+00
       N       E                     dE             d eps       ncg     rms          rms(c)
RMM:   1    -0.413159759954E+03    0.65294E-02   -0.10741E+01  4296   0.730E-01    0.912E-01
RMM:   2    -0.413168365600E+03   -0.86056E-02   -0.12883E-01  4236   0.950E-02    0.635E-01
RMM:   3    -0.413167181133E+03    0.11845E-02   -0.81842E-03  4877   0.380E-02    0.156E-01
RMM:   4    -0.413195317998E+03   -0.28137E-01   -0.28852E-02  5145   0.141E-01    0.700E-01
RMM:   5    -0.413166711271E+03    0.28607E-01   -0.14079E-02  4804   0.117E-01    0.411E-02
RMM:   6    -0.413166877110E+03   -0.16584E-03   -0.22213E-03  5788   0.460E-02    0.253E-02
RMM:   7    -0.413166878891E+03   -0.17810E-05   -0.30227E-04  5812   0.156E-02    0.164E-02
RMM:   8    -0.413166873268E+03    0.56233E-05   -0.51870E-05  4975   0.723E-03    0.833E-03
RMM:   9    -0.413166868440E+03    0.48279E-05   -0.10829E-05  3670   0.372E-03    0.597E-03
RMM:  10    -0.413166865841E+03    0.25994E-05   -0.16200E-06  2553   0.196E-03    0.384E-03
RMM:  11    -0.413166862173E+03    0.36675E-05   -0.17011E-06  2556   0.201E-03    0.167E-03
RMM:  12    -0.413166858933E+03    0.32404E-05   -0.10039E-06  2476   0.158E-03    0.678E-04
RMM:  13    -0.413166858624E+03    0.30873E-06   -0.32246E-07  2065   0.976E-04
   13 T=    61. E= -.41286650E+03 F= -.41316686E+03 E0= -.41314456E+03  EK= 0.30036E+00 SP= 0.00E+00 SK= 0.00E+00
       N       E                     dE             d eps       ncg     rms          rms(c)
RMM:   1    -0.413159908190E+03    0.69507E-02   -0.10662E+01  4295   0.730E-01    0.887E-01
RMM:   2    -0.413169351232E+03   -0.94430E-02   -0.12997E-01  4239   0.947E-02    0.635E-01
RMM:   3    -0.413167779995E+03    0.15712E-02   -0.78118E-03  4831   0.389E-02    0.149E-01
RMM:   4    -0.413194347378E+03   -0.26567E-01   -0.27208E-02  5143   0.137E-01    0.680E-01
RMM:   5    -0.413167354556E+03    0.26993E-01   -0.13319E-02  4808   0.113E-01    0.389E-02
RMM:   6    -0.413167513442E+03   -0.15889E-03   -0.20744E-03  5806   0.443E-02    0.237E-02
RMM:   7    -0.413167519479E+03   -0.60374E-05   -0.27776E-04  5828   0.149E-02    0.155E-02
RMM:   8    -0.413167517039E+03    0.24409E-05   -0.50071E-05  4950   0.709E-03    0.804E-03
RMM:   9    -0.413167514362E+03    0.26765E-05   -0.10306E-05  3638   0.369E-03    0.576E-03
RMM:  10    -0.413167514140E+03    0.22184E-06   -0.15527E-06  2549   0.193E-03
   14 T=    61. E= -.41286660E+03 F= -.41316751E+03 E0= -.41314525E+03  EK= 0.30092E+00 SP= 0.00E+00 SK= 0.00E+00
       N       E                     dE             d eps       ncg     rms          rms(c)
RMM:   1    -0.413161897385E+03    0.56170E-02   -0.10770E+01  4304   0.762E-01    0.891E-01
RMM:   2    -0.413169816091E+03   -0.79187E-02   -0.13209E-01  4272   0.998E-02    0.645E-01
RMM:   3    -0.413169613057E+03    0.20303E-03   -0.94041E-03  5081   0.572E-02    0.232E-01
RMM:   4    -0.413210420197E+03   -0.40807E-01   -0.50635E-02  5129   0.187E-01    0.852E-01
RMM:   5    -0.413167388670E+03    0.43032E-01   -0.19540E-02  4772   0.142E-01    0.531E-02
RMM:   6    -0.413167552767E+03   -0.16410E-03   -0.31212E-03  5681   0.553E-02    0.234E-02
RMM:   7    -0.413167576679E+03   -0.23912E-04   -0.41585E-04  5991   0.169E-02    0.166E-02
RMM:   8    -0.413167579308E+03   -0.26289E-05   -0.62899E-05  5229   0.782E-03    0.813E-03
RMM:   9    -0.413167578042E+03    0.12654E-05   -0.12334E-05  3605   0.379E-03    0.394E-03
RMM:  10    -0.413167579421E+03   -0.13784E-05   -0.27208E-06  2613   0.217E-03    0.270E-03
RMM:  11    -0.413167580656E+03   -0.12354E-05   -0.10837E-06  2500   0.160E-03    0.136E-03
RMM:  12    -0.413167581488E+03   -0.83149E-06   -0.75671E-07  2437   0.130E-03
   15 T=    61. E= -.41286626E+03 F= -.41316758E+03 E0= -.41314535E+03  EK= 0.30132E+00 SP= 0.00E+00 SK= 0.00E+00
       N       E                     dE             d eps       ncg     rms          rms(c)
RMM:   1    -0.413161578270E+03    0.60024E-02   -0.10780E+01  4299   0.741E-01    0.914E-01
RMM:   2    -0.413170295296E+03   -0.87170E-02   -0.12967E-01  4252   0.983E-02    0.638E-01
RMM:   3    -0.413169035659E+03    0.12596E-02   -0.83354E-03  4916   0.415E-02    0.162E-01
RMM:   4    -0.413202882210E+03   -0.33847E-01   -0.35147E-02  5141   0.155E-01    0.766E-01
RMM:   5    -0.413168415860E+03    0.34466E-01   -0.16911E-02  4803   0.128E-01    0.439E-02
RMM:   6    -0.413168603365E+03   -0.18751E-03   -0.26749E-03  5784   0.506E-02    0.263E-02
RMM:   7    -0.413168608529E+03   -0.51638E-05   -0.35783E-04  5854   0.166E-02    0.175E-02
RMM:   8    -0.413168602294E+03    0.62348E-05   -0.59279E-05  5047   0.766E-03    0.913E-03
RMM:   9    -0.413168596050E+03    0.62440E-05   -0.12256E-05  3782   0.393E-03    0.624E-03
RMM:  10    -0.413168592615E+03    0.34355E-05   -0.19833E-06  2578   0.207E-03    0.399E-03
RMM:  11    -0.413168588316E+03    0.42988E-05   -0.16883E-06  2547   0.201E-03    0.176E-03
RMM:  12    -0.413168584135E+03    0.41805E-05   -0.11187E-06  2494   0.166E-03    0.677E-04
RMM:  13    -0.413168583578E+03    0.55784E-06   -0.35861E-07  2154   0.105E-03
   16 T=    61. E= -.41286653E+03 F= -.41316858E+03 E0= -.41314639E+03  EK= 0.30205E+00 SP= 0.00E+00 SK= 0.00E+00
       N       E                     dE             d eps       ncg     rms          rms(c)
RMM:   1    -0.413161557265E+03    0.70269E-02   -0.10700E+01  4295   0.744E-01    0.894E-01
RMM:   2    -0.413170912770E+03   -0.93555E-02   -0.13025E-01  4259   0.968E-02    0.634E-01
RMM:   3    -0.413169287529E+03    0.16252E-02   -0.78955E-03  4881   0.402E-02    0.156E-01
RMM:   4    -0.413199505972E+03   -0.30218E-01   -0.31128E-02  5138   0.146E-01    0.724E-01
RMM:   5    -0.413168820486E+03    0.30685E-01   -0.15143E-02  4807   0.121E-01    0.412E-02
RMM:   6    -0.413168992996E+03   -0.17251E-03   -0.23853E-03  5803   0.475E-02    0.247E-02
RMM:   7    -0.413168999204E+03   -0.62074E-05   -0.31206E-04  5838   0.156E-02    0.162E-02
RMM:   8    -0.413168995213E+03    0.39904E-05   -0.55698E-05  5005   0.739E-03    0.869E-03
RMM:   9    -0.413168990399E+03    0.48141E-05   -0.11815E-05  3790   0.390E-03    0.609E-03
RMM:  10    -0.413168988314E+03    0.20850E-05   -0.17576E-06  2557   0.201E-03    0.393E-03
RMM:  11    -0.413168985322E+03    0.29921E-05   -0.18338E-06  2567   0.207E-03    0.173E-03
RMM:  12    -0.413168982591E+03    0.27306E-05   -0.99279E-07  2482   0.160E-03    0.653E-04
RMM:  13    -0.413168982240E+03    0.35146E-06   -0.32623E-07  2086   0.986E-04
   17 T=    62. E= -.41286637E+03 F= -.41316898E+03 E0= -.41314682E+03  EK= 0.30261E+00 SP= 0.00E+00 SK= 0.00E+00
       N       E                     dE             d eps       ncg     rms          rms(c)
RMM:   1    -0.413161845414E+03    0.71372E-02   -0.10773E+01  4297   0.756E-01    0.889E-01
RMM:   2    -0.413171754170E+03   -0.99088E-02   -0.13280E-01  4270   0.997E-02    0.646E-01
RMM:   3    -0.413169906460E+03    0.18477E-02   -0.80455E-03  4875   0.419E-02    0.151E-01
RMM:   4    -0.413202142284E+03   -0.32236E-01   -0.33442E-02  5146   0.152E-01    0.748E-01
RMM:   5    -0.413169299303E+03    0.32843E-01   -0.16157E-02  4798   0.125E-01    0.416E-02
RMM:   6    -0.413169483505E+03   -0.18420E-03   -0.25418E-03  5795   0.491E-02    0.245E-02
RMM:   7    -0.413169493631E+03   -0.10126E-04   -0.32901E-04  5859   0.159E-02    0.164E-02
RMM:   8    -0.413169492911E+03    0.71925E-06   -0.57145E-05  5030   0.745E-03    0.874E-03
RMM:   9    -0.413169490276E+03    0.26352E-05   -0.12282E-05  3802   0.393E-03    0.596E-03
RMM:  10    -0.413169490544E+03   -0.26804E-06   -0.19234E-06  2567   0.204E-03
   18 T=    62. E= -.41286633E+03 F= -.41316949E+03 E0= -.41314737E+03  EK= 0.30316E+00 SP= 0.00E+00 SK= 0.00E+00
       N       E                     dE             d eps       ncg     rms          rms(c)
RMM:   1    -0.413163474060E+03    0.60162E-02   -0.10814E+01  4304   0.752E-01    0.912E-01
RMM:   2    -0.413172419829E+03   -0.89458E-02   -0.13115E-01  4299   0.983E-02    0.642E-01
RMM:   3    -0.413173683886E+03   -0.12641E-02   -0.10390E-02  5092   0.644E-02    0.271E-01
RMM:   4    -0.413205245781E+03   -0.31562E-01   -0.44910E-02  5101   0.177E-01    0.769E-01
RMM:   5    -0.413170563662E+03    0.34682E-01   -0.15121E-02  4738   0.128E-01    0.530E-02
RMM:   6    -0.413170675664E+03   -0.11200E-03   -0.25162E-03  5626   0.497E-02    0.244E-02
RMM:   7    -0.413170690276E+03   -0.14612E-04   -0.35068E-04  5995   0.158E-02    0.163E-02
RMM:   8    -0.413170686493E+03    0.37823E-05   -0.57582E-05  5225   0.774E-03    0.770E-03
RMM:   9    -0.413170679559E+03    0.69339E-05   -0.10338E-05  3445   0.365E-03    0.350E-03
RMM:  10    -0.413170676982E+03    0.25778E-05   -0.22558E-06  2583   0.210E-03    0.240E-03
RMM:  11    -0.413170673214E+03    0.37680E-05   -0.10588E-06  2510   0.162E-03    0.126E-03
RMM:  12    -0.413170669736E+03    0.34776E-05   -0.59292E-07  2393   0.125E-03    0.402E-04
RMM:  13    -0.413170668039E+03    0.16973E-05   -0.29046E-07  1887   0.902E-04    0.237E-04
RMM:  14    -0.413170666553E+03    0.14861E-05   -0.17619E-07  1439   0.753E-04    0.160E-04
RMM:  15    -0.413170663537E+03    0.30161E-05   -0.18314E-07  1443   0.745E-04    0.905E-05
RMM:  16    -0.413170661944E+03    0.15929E-05   -0.10951E-07  1288   0.661E-04    0.806E-05
RMM:  17    -0.413170659071E+03    0.28726E-05   -0.12147E-07  1436   0.670E-04    0.498E-05
RMM:  18    -0.413170657724E+03    0.13474E-05   -0.63125E-08  1017   0.565E-04    0.305E-05
RMM:  19    -0.413170657435E+03    0.28882E-06   -0.29304E-08   796   0.523E-04
   19 T=    62. E= -.41286669E+03 F= -.41317066E+03 E0= -.41314858E+03  EK= 0.30396E+00 SP= 0.00E+00 SK= 0.00E+00
       N       E                     dE             d eps       ncg     rms          rms(c)
RMM:   1    -0.413163798183E+03    0.68595E-02   -0.10756E+01  4299   0.753E-01    0.902E-01
RMM:   2    -0.413172880706E+03   -0.90825E-02   -0.13038E-01  4270   0.100E-01    0.636E-01
RMM:   3    -0.413171707014E+03    0.11737E-02   -0.82232E-03  4938   0.438E-02    0.171E-01
RMM:   4    -0.413210347393E+03   -0.38640E-01   -0.40971E-02  5145   0.168E-01    0.817E-01
RMM:   5    -0.413170909797E+03    0.39438E-01   -0.19278E-02  4793   0.137E-01    0.468E-02
RMM:   6    -0.413171115080E+03   -0.20528E-03   -0.30836E-03  5751   0.542E-02    0.270E-02
RMM:   7    -0.413171121502E+03   -0.64227E-05   -0.40773E-04  5856   0.174E-02    0.182E-02
RMM:   8    -0.413171115624E+03    0.58785E-05   -0.64159E-05  5138   0.791E-03    0.943E-03
RMM:   9    -0.413171108924E+03    0.67001E-05   -0.13958E-05  3911   0.409E-03    0.616E-03
RMM:  10    -0.413171105328E+03    0.35962E-05   -0.22274E-06  2588   0.214E-03    0.397E-03
RMM:  11    -0.413171101405E+03    0.39227E-05   -0.14545E-06  2518   0.190E-03    0.184E-03
RMM:  12    -0.413171097400E+03    0.40050E-05   -0.10472E-06  2483   0.165E-03    0.580E-04
RMM:  13    -0.413171096590E+03    0.80962E-06   -0.38496E-07  2203   0.109E-03
   20 T=    62. E= -.41286644E+03 F= -.41317110E+03 E0= -.41314906E+03  EK= 0.30466E+00 SP= 0.00E+00 SK= 0.00E+00
       N       E                     dE             d eps       ncg     rms          rms(c)
RMM:   1    -0.413169205115E+03    0.18923E-02   -0.10844E+01  4300   0.806E-01    0.888E-01
RMM:   2    -0.413174480251E+03   -0.52751E-02   -0.14048E-01  4278   0.103E-01    0.647E-01
RMM:   3    -0.413172515055E+03    0.19652E-02   -0.78381E-03  4876   0.405E-02    0.159E-01
RMM:   4    -0.413203666989E+03   -0.31152E-01   -0.32230E-02  5141   0.149E-01    0.735E-01
RMM:   5    -0.413171996182E+03    0.31671E-01   -0.15726E-02  4804   0.123E-01    0.411E-02
RMM:   6    -0.413172172523E+03   -0.17634E-03   -0.24622E-03  5799   0.484E-02    0.243E-02
RMM:   7    -0.413172183173E+03   -0.10650E-04   -0.31411E-04  5851   0.157E-02    0.158E-02
RMM:   8    -0.413172181716E+03    0.14570E-05   -0.59441E-05  5029   0.756E-03    0.893E-03
RMM:   9    -0.413172177512E+03    0.42035E-05   -0.12949E-05  3947   0.406E-03    0.614E-03
RMM:  10    -0.413172176869E+03    0.64293E-06   -0.18987E-06  2568   0.207E-03
   21 T=    62. E= -.41286657E+03 F= -.41317218E+03 E0= -.41315019E+03  EK= 0.30561E+00 SP= 0.00E+00 SK= 0.00E+00
       N       E                     dE             d eps       ncg     rms          rms(c)
RMM:   1    -0.413165993507E+03    0.61840E-02   -0.10862E+01  4304   0.766E-01    0.910E-01
RMM:   2    -0.413175190605E+03   -0.91971E-02   -0.13262E-01  4305   0.990E-02    0.646E-01
RMM:   3    -0.413175998750E+03   -0.80815E-03   -0.10234E-02  5079   0.632E-02    0.263E-01
RMM:   4    -0.413210557737E+03   -0.34559E-01   -0.47316E-02  5106   0.182E-01    0.798E-01
RMM:   5    -0.413173083824E+03    0.37474E-01   -0.16560E-02  4746   0.133E-01    0.531E-02
RMM:   6    -0.413173209980E+03   -0.12616E-03   -0.27384E-03  5653   0.520E-02    0.245E-02
RMM:   7    -0.413173223996E+03   -0.14016E-04   -0.37451E-04  5987   0.165E-02    0.167E-02
RMM:   8    -0.413173220291E+03    0.37048E-05   -0.60538E-05  5210   0.787E-03    0.796E-03
RMM:   9    -0.413173213521E+03    0.67707E-05   -0.11398E-05  3553   0.376E-03    0.371E-03
RMM:  10    -0.413173210843E+03    0.26781E-05   -0.24019E-06  2591   0.213E-03    0.256E-03
RMM:  11    -0.413173207168E+03    0.36744E-05   -0.10103E-06  2493   0.160E-03    0.130E-03
RMM:  12    -0.413173203514E+03    0.36539E-05   -0.60027E-07  2396   0.125E-03    0.359E-04
RMM:  13    -0.413173201699E+03    0.18152E-05   -0.29618E-07  1889   0.909E-04    0.221E-04
RMM:  14    -0.413173199926E+03    0.17731E-05   -0.18035E-07  1426   0.757E-04    0.131E-04
RMM:  15    -0.413173197163E+03    0.27632E-05   -0.15767E-07  1400   0.732E-04    0.859E-05
RMM:  16    -0.413173195490E+03    0.16727E-05   -0.10553E-07  1291   0.664E-04    0.776E-05
RMM:  17    -0.413173192996E+03    0.24944E-05   -0.98490E-08  1321   0.649E-04    0.488E-05
RMM:  18    -0.413173191453E+03    0.15424E-05   -0.58040E-08  1026   0.577E-04    0.237E-05
RMM:  19    -0.413173191028E+03    0.42579E-06   -0.27750E-08   791   0.534E-04
   22 T=    62. E= -.41286662E+03 F= -.41317319E+03 E0= -.41315125E+03  EK= 0.30657E+00 SP= 0.00E+00 SK= 0.00E+00
       N       E                     dE             d eps       ncg     rms          rms(c)
RMM:   1    -0.413166781055E+03    0.64104E-02   -0.10843E+01  4295   0.774E-01    0.912E-01
RMM:   2    -0.413175755363E+03   -0.89743E-02   -0.13170E-01  4277   0.104E-01    0.639E-01
RMM:   3    -0.413174340320E+03    0.14150E-02   -0.83642E-03  4859   0.454E-02    0.165E-01
RMM:   4    -0.413208857561E+03   -0.34517E-01   -0.35882E-02  5142   0.157E-01    0.773E-01
RMM:   5    -0.413173706431E+03    0.35151E-01   -0.17310E-02  4794   0.130E-01    0.447E-02
RMM:   6    -0.413173903213E+03   -0.19678E-03   -0.28438E-03  5788   0.514E-02    0.269E-02
RMM:   7    -0.413173908485E+03   -0.52721E-05   -0.36265E-04  5808   0.169E-02    0.176E-02
RMM:   8    -0.413173901661E+03    0.68244E-05   -0.64806E-05  5101   0.793E-03    0.970E-03
RMM:   9    -0.413173893533E+03    0.81281E-05   -0.13710E-05  3986   0.415E-03    0.663E-03
RMM:  10    -0.413173888763E+03    0.47693E-05   -0.20836E-06  2588   0.213E-03    0.428E-03
RMM:  11    -0.413173882869E+03    0.58942E-05   -0.17659E-06  2543   0.208E-03    0.191E-03
RMM:  12    -0.413173877324E+03    0.55447E-05   -0.10582E-06  2474   0.170E-03    0.631E-04
RMM:  13    -0.413173876430E+03    0.89461E-06   -0.37224E-07  2192   0.107E-03
   23 T=    63. E= -.41286631E+03 F= -.41317388E+03 E0= -.41315198E+03  EK= 0.30756E+00 SP= 0.00E+00 SK= 0.00E+00
       N       E                     dE             d eps       ncg     rms          rms(c)
RMM:   1    -0.413167805629E+03    0.60717E-02   -0.10844E+01  4297   0.781E-01    0.892E-01
RMM:   2    -0.413177791288E+03   -0.99857E-02   -0.13430E-01  4281   0.103E-01    0.646E-01
RMM:   3    -0.413175672033E+03    0.21193E-02   -0.80091E-03  4758   0.430E-02    0.148E-01
RMM:   4    -0.413200568712E+03   -0.24897E-01   -0.25417E-02  5142   0.133E-01    0.658E-01
RMM:   5    -0.413175317751E+03    0.25251E-01   -0.12568E-02  4807   0.110E-01    0.384E-02
RMM:   6    -0.413175456726E+03   -0.13898E-03   -0.20162E-03  5800   0.429E-02    0.228E-02
RMM:   7    -0.413175463205E+03   -0.64789E-05   -0.23078E-04  5760   0.141E-02    0.127E-02
RMM:   8    -0.413175461724E+03    0.14808E-05   -0.49365E-05  4974   0.684E-03    0.855E-03
RMM:   9    -0.413175456620E+03    0.51038E-05   -0.11793E-05  3925   0.386E-03    0.615E-03
RMM:  10    -0.413175454979E+03    0.16416E-05   -0.16216E-06  2547   0.206E-03    0.405E-03
RMM:  11    -0.413175452172E+03    0.28069E-05   -0.20382E-06  2579   0.219E-03    0.185E-03
RMM:  12    -0.413175449252E+03    0.29198E-05   -0.93621E-07  2479   0.161E-03    0.640E-04
RMM:  13    -0.413175448902E+03    0.34968E-06   -0.30000E-07  2071   0.962E-04
   24 T=    63. E= -.41286657E+03 F= -.41317545E+03 E0= -.41315360E+03  EK= 0.30888E+00 SP= 0.00E+00 SK= 0.00E+00
       N       E                     dE             d eps       ncg     rms          rms(c)
RMM:   1    -0.413170097710E+03    0.53515E-02   -0.10946E+01  4298   0.806E-01    0.908E-01
RMM:   2    -0.413178761228E+03   -0.86635E-02   -0.13433E-01  4280   0.106E-01    0.651E-01
RMM:   3    -0.413176689295E+03    0.20719E-02   -0.81669E-03  4668   0.436E-02    0.145E-01
RMM:   4    -0.413196428374E+03   -0.19739E-01   -0.20136E-02  5144   0.119E-01    0.588E-01
RMM:   5    -0.413176363865E+03    0.20065E-01   -0.99473E-03  4809   0.977E-02    0.365E-02
RMM:   6    -0.413176466561E+03   -0.10270E-03   -0.16092E-03  5823   0.379E-02    0.218E-02
RMM:   7    -0.413176468728E+03   -0.21667E-05   -0.17524E-04  5629   0.126E-02    0.105E-02
RMM:   8    -0.413176464601E+03    0.41267E-05   -0.31509E-05  4707   0.562E-03    0.696E-03
RMM:   9    -0.413176461063E+03    0.35378E-05   -0.70882E-06  3270   0.302E-03    0.543E-03
RMM:  10    -0.413176459538E+03    0.15251E-05   -0.13704E-06  2548   0.190E-03    0.374E-03
RMM:  11    -0.413176454943E+03    0.45955E-05   -0.18790E-06  2562   0.215E-03    0.170E-03
RMM:  12    -0.413176451462E+03    0.34803E-05   -0.83308E-07  2453   0.153E-03    0.865E-04
RMM:  13    -0.413176451104E+03    0.35880E-06   -0.24046E-07  2016   0.903E-04
   25 T=    63. E= -.41286647E+03 F= -.41317645E+03 E0= -.41315465E+03  EK= 0.30998E+00 SP= 0.00E+00 SK= 0.00E+00
       N       E                     dE             d eps       ncg     rms          rms(c)
RMM:   1    -0.413174007008E+03    0.24445E-02   -0.10986E+01  4296   0.820E-01    0.921E-01
RMM:   2    -0.413179491632E+03   -0.54846E-02   -0.13981E-01  4279   0.110E-01    0.645E-01
RMM:   3    -0.413177846723E+03    0.16449E-02   -0.81700E-03  4547   0.433E-02    0.157E-01
RMM:   4    -0.413192175633E+03   -0.14329E-01   -0.14648E-02  5151   0.102E-01    0.502E-01
RMM:   5    -0.413177699508E+03    0.14476E-01   -0.72528E-03  4820   0.829E-02    0.353E-02
RMM:   6    -0.413177754731E+03   -0.55222E-04   -0.11694E-03  5818   0.320E-02    0.208E-02
RMM:   7    -0.413177749560E+03    0.51708E-05   -0.13293E-04  5548   0.114E-02    0.952E-03
RMM:   8    -0.413177741137E+03    0.84226E-05   -0.24998E-05  4566   0.517E-03    0.642E-03
RMM:   9    -0.413177738351E+03    0.27866E-05   -0.62827E-06  3204   0.298E-03    0.537E-03
RMM:  10    -0.413177733741E+03    0.46097E-05   -0.96031E-07  2508   0.179E-03    0.338E-03
RMM:  11    -0.413177725675E+03    0.80659E-05   -0.13383E-06  2517   0.187E-03    0.160E-03
RMM:  12    -0.413177719199E+03    0.64758E-05   -0.64662E-07  2373   0.135E-03    0.601E-04
RMM:  13    -0.413177718225E+03    0.97403E-06   -0.21107E-07  1810   0.827E-04
   26 T=    63. E= -.41286642E+03 F= -.41317772E+03 E0= -.41315597E+03  EK= 0.31130E+00 SP= 0.00E+00 SK= 0.00E+00
       N       E                     dE             d eps       ncg     rms          rms(c)
RMM:   1    -0.413171861097E+03    0.58581E-02   -0.10915E+01  4294   0.793E-01    0.898E-01
RMM:   2    -0.413181513345E+03   -0.96522E-02   -0.13477E-01  4279   0.104E-01    0.647E-01
RMM:   3    -0.413179664351E+03    0.18490E-02   -0.80817E-03  4604   0.422E-02    0.144E-01
RMM:   4    -0.413195141833E+03   -0.15477E-01   -0.15829E-02  5148   0.105E-01    0.522E-01
RMM:   5    -0.413179449571E+03    0.15692E-01   -0.78561E-03  4819   0.862E-02    0.346E-02
RMM:   6    -0.413179515432E+03   -0.65861E-04   -0.12638E-03  5836   0.330E-02    0.207E-02
RMM:   7    -0.413179516303E+03   -0.87159E-06   -0.14480E-04  5557   0.116E-02    0.970E-03
RMM:   8    -0.413179509721E+03    0.65821E-05   -0.26522E-05  4603   0.529E-03    0.638E-03
RMM:   9    -0.413179508501E+03    0.12202E-05   -0.70219E-06  3313   0.308E-03    0.545E-03
RMM:  10    -0.413179505321E+03    0.31802E-05   -0.10464E-06  2521   0.182E-03    0.348E-03
RMM:  11    -0.413179500517E+03    0.48036E-05   -0.14245E-06  2525   0.190E-03    0.165E-03
RMM:  12    -0.413179496612E+03    0.39047E-05   -0.69730E-07  2399   0.138E-03    0.591E-04
RMM:  13    -0.413179495788E+03    0.82478E-06   -0.22079E-07  1848   0.840E-04
   27 T=    64. E= -.41286653E+03 F= -.41317950E+03 E0= -.41315780E+03  EK= 0.31296E+00 SP= 0.00E+00 SK= 0.00E+00
       N       E                     dE             d eps       ncg     rms          rms(c)
RMM:   1    -0.413179464102E+03    0.32511E-04   -0.11099E+01  4294   0.861E-01    0.907E-01
RMM:   2    -0.413182942458E+03   -0.34784E-02   -0.14344E-01  4278   0.110E-01    0.658E-01
RMM:   3    -0.413180787740E+03    0.21547E-02   -0.81450E-03  4506   0.425E-02    0.148E-01
RMM:   4    -0.413191529978E+03   -0.10742E-01   -0.11240E-02  5150   0.899E-02    0.437E-01
RMM:   5    -0.413180652306E+03    0.10878E-01   -0.54506E-03  4827   0.716E-02    0.323E-02
RMM:   6    -0.413180684397E+03   -0.32091E-04   -0.86178E-04  5856   0.275E-02    0.195E-02
RMM:   7    -0.413180689147E+03   -0.47496E-05   -0.15081E-04  5548   0.119E-02    0.123E-02
RMM:   8    -0.413180677304E+03    0.11843E-04   -0.27550E-05  4612   0.585E-03    0.559E-03
RMM:   9    -0.413180675728E+03    0.15753E-05   -0.52474E-06  3028   0.289E-03    0.449E-03
RMM:  10    -0.413180673388E+03    0.23406E-05   -0.92142E-07  2494   0.173E-03    0.274E-03
RMM:  11    -0.413180670160E+03    0.32275E-05   -0.75800E-07  2473   0.145E-03    0.133E-03
RMM:  12    -0.413180666669E+03    0.34914E-05   -0.52396E-07  2265   0.114E-03    0.471E-04
RMM:  13    -0.413180665832E+03    0.83711E-06   -0.18513E-07  1625   0.777E-04
   28 T=    64. E= -.41286621E+03 F= -.41318067E+03 E0= -.41315902E+03  EK= 0.31446E+00 SP= 0.00E+00 SK= 0.00E+00
       N       E                     dE             d eps       ncg     rms          rms(c)
RMM:   1    -0.413176268902E+03    0.43978E-02   -0.11089E+01  4291   0.826E-01    0.930E-01
RMM:   2    -0.413184568285E+03   -0.82994E-02   -0.13680E-01  4273   0.108E-01    0.651E-01
RMM:   3    -0.413182776798E+03    0.17915E-02   -0.86228E-03  4448   0.448E-02    0.150E-01
RMM:   4    -0.413191508304E+03   -0.87315E-02   -0.91346E-03  5160   0.800E-02    0.393E-01
RMM:   5    -0.413182745467E+03    0.87628E-02   -0.44497E-03  4832   0.646E-02    0.334E-02
RMM:   6    -0.413182767038E+03   -0.21571E-04   -0.75200E-04  5843   0.257E-02    0.212E-02
RMM:   7    -0.413182763058E+03    0.39806E-05   -0.16990E-04  5456   0.128E-02    0.132E-02
RMM:   8    -0.413182748272E+03    0.14786E-04   -0.20828E-05  4330   0.551E-03    0.553E-03
RMM:   9    -0.413182744406E+03    0.38651E-05   -0.40731E-06  2897   0.260E-03    0.422E-03
RMM:  10    -0.413182738930E+03    0.54768E-05   -0.10826E-06  2488   0.179E-03    0.244E-03
RMM:  11    -0.413182732067E+03    0.68623E-05   -0.75556E-07  2459   0.148E-03    0.115E-03
RMM:  12    -0.413182726330E+03    0.57376E-05   -0.41961E-07  2244   0.111E-03    0.489E-04
RMM:  13    -0.413182724269E+03    0.20611E-05   -0.18601E-07  1673   0.779E-04    0.238E-04
RMM:  14    -0.413182721410E+03    0.28590E-05   -0.10918E-07  1241   0.678E-04    0.146E-04
RMM:  15    -0.413182716065E+03    0.53442E-05   -0.10673E-07  1371   0.691E-04    0.112E-04
RMM:  16    -0.413182715135E+03    0.92991E-06   -0.46820E-08   935   0.587E-04
   29 T=    64. E= -.41286644E+03 F= -.41318272E+03 E0= -.41316112E+03  EK= 0.31627E+00 SP= 0.00E+00 SK= 0.00E+00
       N       E                     dE             d eps       ncg     rms          rms(c)
RMM:   1    -0.413177072444E+03    0.56436E-02   -0.11036E+01  4289   0.821E-01    0.908E-01
RMM:   2    -0.413186706863E+03   -0.96344E-02   -0.13736E-01  4267   0.111E-01    0.650E-01
RMM:   3    -0.413184711600E+03    0.19953E-02   -0.83763E-03  4448   0.471E-02    0.146E-01
RMM:   4    -0.413193887164E+03   -0.91756E-02   -0.96341E-03  5158   0.831E-02    0.404E-01
RMM:   5    -0.413184618608E+03    0.92686E-02   -0.46966E-03  4830   0.663E-02    0.328E-02
RMM:   6    -0.413184641322E+03   -0.22714E-04   -0.76233E-04  5837   0.261E-02    0.214E-02
RMM:   7    -0.413184639632E+03    0.16905E-05   -0.17071E-04  5460   0.127E-02    0.130E-02
RMM:   8    -0.413184626562E+03    0.13070E-04   -0.21772E-05  4389   0.559E-03    0.541E-03
RMM:   9    -0.413184624076E+03    0.24858E-05   -0.40814E-06  2903   0.261E-03    0.410E-03
RMM:  10    -0.413184620425E+03    0.36507E-05   -0.10133E-06  2490   0.172E-03    0.240E-03
RMM:  11    -0.413184615940E+03    0.44859E-05   -0.72119E-07  2461   0.142E-03    0.115E-03
RMM:  12    -0.413184612045E+03    0.38949E-05   -0.41906E-07  2219   0.108E-03    0.488E-04
RMM:  13    -0.413184610610E+03    0.14342E-05   -0.17569E-07  1581   0.765E-04    0.228E-04
RMM:  14    -0.413184608717E+03    0.18939E-05   -0.10384E-07  1187   0.668E-04    0.133E-04
RMM:  15    -0.413184605248E+03    0.34688E-05   -0.95754E-08  1254   0.670E-04    0.954E-05
RMM:  16    -0.413184604495E+03    0.75273E-06   -0.45328E-08   915   0.591E-04
   30 T=    65. E= -.41286643E+03 F= -.41318460E+03 E0= -.41316306E+03  EK= 0.31817E+00 SP= 0.00E+00 SK= 0.00E+00
       N       E                     dE             d eps       ncg     rms          rms(c)
RMM:   1    -0.413192043989E+03   -0.74387E-02   -0.11296E+01  4291   0.929E-01    0.908E-01
RMM:   2    -0.413189074540E+03    0.29694E-02   -0.16055E-01  4270   0.125E-01    0.666E-01
RMM:   3    -0.413186223179E+03    0.28514E-02   -0.79051E-03  4259   0.433E-02    0.166E-01
RMM:   4    -0.413188182620E+03   -0.19594E-02   -0.31309E-03  5090   0.466E-02    0.187E-01
RMM:   5    -0.413186228914E+03    0.19537E-02   -0.96577E-04  4790   0.312E-02    0.294E-02
RMM:   6    -0.413186228421E+03    0.49261E-06   -0.23786E-04  5646   0.158E-02    0.213E-02
RMM:   7    -0.413186218714E+03    0.97065E-05   -0.12448E-04  5012   0.107E-02    0.996E-03
RMM:   8    -0.413186213895E+03    0.48198E-05   -0.76165E-06  3318   0.379E-03    0.441E-03
RMM:   9    -0.413186212967E+03    0.92770E-06   -0.12366E-06  2488   0.178E-03
   31 T=    65. E= -.41286613E+03 F= -.41318621E+03 E0= -.41316472E+03  EK= 0.32009E+00 SP= 0.00E+00 SK= 0.00E+00
       N       E                     dE             d eps       ncg     rms          rms(c)
RMM:   1    -0.413181781701E+03    0.44322E-02   -0.11236E+01  4294   0.849E-01    0.935E-01
RMM:   2    -0.413190921333E+03   -0.91396E-02   -0.14046E-01  4288   0.123E-01    0.659E-01
RMM:   3    -0.413188841518E+03    0.20798E-02   -0.88661E-03  4323   0.509E-02    0.148E-01
RMM:   4    -0.413190259679E+03   -0.14182E-02   -0.23100E-03  5116   0.417E-02    0.160E-01
RMM:   5    -0.413188870254E+03    0.13894E-02   -0.72801E-04  4799   0.275E-02    0.333E-02
RMM:   6    -0.413188851878E+03    0.18376E-04   -0.23127E-04  5441   0.160E-02    0.249E-02
RMM:   7    -0.413188833364E+03    0.18514E-04   -0.12824E-04  4842   0.103E-02    0.111E-02
RMM:   8    -0.413188829269E+03    0.40949E-05   -0.97203E-06  3581   0.392E-03    0.484E-03
RMM:   9    -0.413188827348E+03    0.19206E-05   -0.17404E-06  2438   0.181E-03    0.233E-03
RMM:  10    -0.413188818456E+03    0.88928E-05   -0.85175E-07  2359   0.148E-03    0.106E-03
RMM:  11    -0.413188814120E+03    0.43361E-05   -0.33284E-07  1962   0.974E-04    0.568E-04
RMM:  12    -0.413188808686E+03    0.54334E-05   -0.22868E-07  1658   0.829E-04    0.241E-04
RMM:  13    -0.413188804697E+03    0.39888E-05   -0.11259E-07  1077   0.667E-04    0.140E-04
RMM:  14    -0.413188798313E+03    0.63841E-05   -0.11992E-07  1261   0.688E-04    0.122E-04
RMM:  15    -0.413188792841E+03    0.54718E-05   -0.95068E-08  1259   0.640E-04    0.745E-05
RMM:  16    -0.413188790539E+03    0.23021E-05   -0.45380E-08   797   0.542E-04    0.422E-05
RMM:  17    -0.413188788735E+03    0.18047E-05   -0.33273E-08   744   0.527E-04    0.259E-05
RMM:  18    -0.413188788257E+03    0.47760E-06   -0.19384E-08   611   0.501E-04
   32 T=    66. E= -.41286643E+03 F= -.41318879E+03 E0= -.41316734E+03  EK= 0.32236E+00 SP= 0.00E+00 SK= 0.00E+00
       N       E                     dE             d eps       ncg     rms          rms(c)
RMM:   1    -0.413183456164E+03    0.53326E-02   -0.11206E+01  4283   0.863E-01    0.922E-01
RMM:   2    -0.413193084307E+03   -0.96281E-02   -0.14177E-01  4271   0.128E-01    0.655E-01
RMM:   3    -0.413190695108E+03    0.23892E-02   -0.85745E-03  4314   0.457E-02    0.150E-01
RMM:   4    -0.413193314515E+03   -0.26194E-02   -0.33592E-03  5126   0.505E-02    0.216E-01
RMM:   5    -0.413190749482E+03    0.25650E-02   -0.12721E-03  4797   0.359E-02    0.317E-02
RMM:   6    -0.413190743404E+03    0.60775E-05   -0.31120E-04  5650   0.180E-02    0.232E-02
RMM:   7    -0.413190728684E+03    0.14721E-04   -0.14238E-04  5052   0.114E-02    0.112E-02
RMM:   8    -0.413190722475E+03    0.62092E-05   -0.11112E-05  3738   0.426E-03    0.496E-03
RMM:   9    -0.413190720502E+03    0.19726E-05   -0.16298E-06  2509   0.191E-03    0.273E-03
RMM:  10    -0.413190714246E+03    0.62557E-05   -0.83674E-07  2459   0.150E-03    0.132E-03
RMM:  11    -0.413190710274E+03    0.39720E-05   -0.38750E-07  2168   0.103E-03    0.739E-04
RMM:  12    -0.413190705695E+03    0.45791E-05   -0.24785E-07  1812   0.860E-04    0.255E-04
RMM:  13    -0.413190702944E+03    0.27512E-05   -0.12071E-07  1218   0.682E-04    0.154E-04
RMM:  14    -0.413190699493E+03    0.34507E-05   -0.88926E-08  1114   0.645E-04    0.126E-04
RMM:  15    -0.413190695118E+03    0.43749E-05   -0.77545E-08  1118   0.635E-04    0.569E-05
RMM:  16    -0.413190693592E+03    0.15260E-05   -0.44134E-08   891   0.574E-04    0.474E-05
RMM:  17    -0.413190691040E+03    0.25520E-05   -0.42717E-08   967   0.578E-04    0.266E-05
RMM:  18    -0.413190689886E+03    0.11548E-05   -0.24236E-08   749   0.534E-04    0.156E-05
RMM:  19    -0.413190689638E+03    0.24779E-06   -0.11463E-08   564   0.509E-04
   33 T=    66. E= -.41286615E+03 F= -.41319069E+03 E0= -.41316929E+03  EK= 0.32454E+00 SP= 0.00E+00 SK= 0.00E+00
       N       E                     dE             d eps       ncg     rms          rms(c)
RMM:   1    -0.413200811602E+03   -0.10122E-01   -0.11462E+01  4295   0.973E-01    0.913E-01
RMM:   2    -0.413195696624E+03    0.51150E-02   -0.16393E-01  4270   0.137E-01    0.671E-01
RMM:   3    -0.413193237143E+03    0.24595E-02   -0.81330E-03  4374   0.507E-02    0.169E-01
RMM:   4    -0.413198391598E+03   -0.51545E-02   -0.60257E-03  5134   0.685E-02    0.303E-01
RMM:   5    -0.413193257466E+03    0.51341E-02   -0.25034E-03  4804   0.499E-02    0.321E-02
RMM:   6    -0.413193247174E+03    0.10293E-04   -0.45816E-04  5733   0.219E-02    0.226E-02
RMM:   7    -0.413193242683E+03    0.44905E-05   -0.15591E-04  5239   0.121E-02    0.113E-02
RMM:   8    -0.413193234516E+03    0.81667E-05   -0.14745E-05  4117   0.484E-03    0.503E-03
RMM:   9    -0.413193233325E+03    0.11915E-05   -0.22399E-06  2655   0.216E-03    0.308E-03
RMM:  10    -0.413193230556E+03    0.27694E-05   -0.89198E-07  2472   0.155E-03    0.161E-03
RMM:  11    -0.413193227482E+03    0.30740E-05   -0.56195E-07  2330   0.120E-03    0.757E-04
RMM:  12    -0.413193224898E+03    0.25831E-05   -0.30497E-07  1918   0.905E-04    0.339E-04
RMM:  13    -0.413193223352E+03    0.15464E-05   -0.15028E-07  1269   0.703E-04    0.173E-04
RMM:  14    -0.413193221714E+03    0.16377E-05   -0.99128E-08  1074   0.653E-04    0.117E-04
RMM:  15    -0.413193218953E+03    0.27618E-05   -0.95251E-08  1159   0.660E-04    0.628E-05
RMM:  16    -0.413193218121E+03    0.83201E-06   -0.45423E-08   878   0.590E-04
   34 T=    67. E= -.41286620E+03 F= -.41319322E+03 E0= -.41317187E+03  EK= 0.32702E+00 SP= 0.00E+00 SK= 0.00E+00
       N       E                     dE             d eps       ncg     rms          rms(c)
RMM:   1    -0.413190466003E+03    0.27529E-02   -0.11429E+01  4301   0.914E-01    0.940E-01
RMM:   2    -0.413198194511E+03   -0.77285E-02   -0.14651E-01  4258   0.132E-01    0.669E-01
RMM:   3    -0.413195989960E+03    0.22046E-02   -0.88225E-03  4371   0.505E-02    0.152E-01
RMM:   4    -0.413199966696E+03   -0.39767E-02   -0.47256E-03  5157   0.583E-02    0.268E-01
RMM:   5    -0.413195970756E+03    0.39959E-02   -0.20204E-03  4819   0.446E-02    0.333E-02
RMM:   6    -0.413195961251E+03    0.95047E-05   -0.41393E-04  5703   0.205E-02    0.242E-02
RMM:   7    -0.413195948938E+03    0.12313E-04   -0.16113E-04  5185   0.120E-02    0.117E-02
RMM:   8    -0.413195941122E+03    0.78161E-05   -0.13374E-05  3915   0.453E-03    0.513E-03
RMM:   9    -0.413195938816E+03    0.23055E-05   -0.19903E-06  2585   0.203E-03    0.293E-03
RMM:  10    -0.413195932711E+03    0.61057E-05   -0.88439E-07  2475   0.153E-03    0.146E-03
RMM:  11    -0.413195927654E+03    0.50567E-05   -0.46145E-07  2251   0.111E-03    0.752E-04
RMM:  12    -0.413195923003E+03    0.46507E-05   -0.26654E-07  1873   0.882E-04    0.294E-04
RMM:  13    -0.413195920223E+03    0.27806E-05   -0.14128E-07  1296   0.706E-04    0.166E-04
RMM:  14    -0.413195916804E+03    0.34189E-05   -0.92751E-08  1114   0.651E-04    0.131E-04
RMM:  15    -0.413195911818E+03    0.49862E-05   -0.86659E-08  1165   0.650E-04    0.661E-05
RMM:  16    -0.413195910136E+03    0.16813E-05   -0.49173E-08   965   0.591E-04    0.562E-05
RMM:  17    -0.413195907150E+03    0.29863E-05   -0.46143E-08  1044   0.592E-04    0.292E-05
RMM:  18    -0.413195905565E+03    0.15849E-05   -0.29809E-08   886   0.553E-04    0.170E-05
RMM:  19    -0.413195905301E+03    0.26450E-06   -0.13184E-08   654   0.516E-04
   35 T=    67. E= -.41286639E+03 F= -.41319591E+03 E0= -.41317460E+03  EK= 0.32952E+00 SP= 0.00E+00 SK= 0.00E+00
       N       E                     dE             d eps       ncg     rms          rms(c)
RMM:   1    -0.413205436891E+03   -0.95313E-02   -0.11558E+01  4298   0.101E+00    0.939E-01
RMM:   2    -0.413200008477E+03    0.54284E-02   -0.15053E-01  4258   0.131E-01    0.663E-01
RMM:   3    -0.413198176154E+03    0.18323E-02   -0.90150E-03  4707   0.520E-02    0.172E-01
RMM:   4    -0.413226258543E+03   -0.28082E-01   -0.28403E-02  5163   0.142E-01    0.700E-01
RMM:   5    -0.413197873981E+03    0.28385E-01   -0.14370E-02  4799   0.117E-01    0.433E-02
RMM:   6    -0.413197914404E+03   -0.40423E-04   -0.22750E-03  5846   0.452E-02    0.266E-02
RMM:   7    -0.413197922280E+03   -0.78761E-05   -0.28716E-04  5742   0.156E-02    0.150E-02
RMM:   8    -0.413197912266E+03    0.10014E-04   -0.54954E-05  5008   0.756E-03    0.911E-03
RMM:   9    -0.413197908226E+03    0.40404E-05   -0.15636E-05  4297   0.452E-03    0.627E-03
RMM:  10    -0.413197901693E+03    0.65330E-05   -0.20846E-06  2590   0.231E-03    0.371E-03
RMM:  11    -0.413197897004E+03    0.46887E-05   -0.11839E-06  2505   0.174E-03    0.222E-03
RMM:  12    -0.413197886935E+03    0.10069E-04   -0.13036E-06  2491   0.191E-03    0.989E-04
RMM:  13    -0.413197883099E+03    0.38358E-05   -0.46745E-07  2303   0.123E-03    0.617E-04
RMM:  14    -0.413197882688E+03    0.41094E-06   -0.19795E-07  1764   0.809E-04
   36 T=    68. E= -.41286608E+03 F= -.41319788E+03 E0= -.41317662E+03  EK= 0.33180E+00 SP= 0.00E+00 SK= 0.00E+00
       N       E                     dE             d eps       ncg     rms          rms(c)
RMM:   1    -0.413198639871E+03   -0.75677E-03   -0.11521E+01  4306   0.101E+00    0.923E-01
RMM:   2    -0.413203742111E+03   -0.51022E-02   -0.15644E-01  4258   0.138E-01    0.674E-01
RMM:   3    -0.413201152383E+03    0.25897E-02   -0.86726E-03  4612   0.537E-02    0.165E-01
RMM:   4    -0.413221224244E+03   -0.20072E-01   -0.20379E-02  5160   0.121E-01    0.594E-01
RMM:   5    -0.413200963268E+03    0.20261E-01   -0.10221E-02  4806   0.986E-02    0.399E-02
RMM:   6    -0.413200974247E+03   -0.10979E-04   -0.16630E-03  5838   0.387E-02    0.255E-02
RMM:   7    -0.413200983434E+03   -0.91870E-05   -0.26063E-04  5675   0.148E-02    0.150E-02
RMM:   8    -0.413200971825E+03    0.11610E-04   -0.49006E-05  4986   0.747E-03    0.753E-03
RMM:   9    -0.413200969241E+03    0.25838E-05   -0.98647E-06  3673   0.383E-03    0.482E-03
RMM:  10    -0.413200965202E+03    0.40392E-05   -0.14748E-06  2547   0.197E-03    0.298E-03
RMM:  11    -0.413200960697E+03    0.45044E-05   -0.96610E-07  2494   0.158E-03    0.149E-03
RMM:  12    -0.413200954929E+03    0.57687E-05   -0.78624E-07  2418   0.140E-03    0.632E-04
RMM:  13    -0.413200952799E+03    0.21296E-05   -0.30422E-07  2011   0.951E-04    0.395E-04
RMM:  14    -0.413200951941E+03    0.85766E-06   -0.14606E-07  1378   0.712E-04
   37 T=    68. E= -.41286643E+03 F= -.41320095E+03 E0= -.41317973E+03  EK= 0.33453E+00 SP= 0.00E+00 SK= 0.00E+00
       N       E                     dE             d eps       ncg     rms          rms(c)
RMM:   1    -0.413200353694E+03    0.59911E-03   -0.11634E+01  4308   0.102E+00    0.943E-01
RMM:   2    -0.413206383870E+03   -0.60302E-02   -0.15439E-01  4257   0.130E-01    0.678E-01
RMM:   3    -0.413203634666E+03    0.27492E-02   -0.91075E-03  4720   0.531E-02    0.172E-01
RMM:   4    -0.413233954129E+03   -0.30319E-01   -0.30758E-02  5152   0.147E-01    0.726E-01
RMM:   5    -0.413203280189E+03    0.30674E-01   -0.15637E-02  4806   0.121E-01    0.442E-02
RMM:   6    -0.413203327091E+03   -0.46902E-04   -0.24111E-03  5843   0.465E-02    0.272E-02
RMM:   7    -0.413203338046E+03   -0.10955E-04   -0.32029E-04  5764   0.162E-02    0.161E-02
RMM:   8    -0.413203327108E+03    0.10938E-04   -0.60918E-05  5060   0.802E-03    0.919E-03
RMM:   9    -0.413203323190E+03    0.39186E-05   -0.15506E-05  4246   0.457E-03    0.575E-03
RMM:  10    -0.413203317681E+03    0.55089E-05   -0.22359E-06  2607   0.226E-03    0.352E-03
RMM:  11    -0.413203313221E+03    0.44596E-05   -0.11542E-06  2501   0.172E-03    0.199E-03
RMM:  12    -0.413203304831E+03    0.83904E-05   -0.11651E-06  2493   0.176E-03    0.870E-04
RMM:  13    -0.413203301416E+03    0.34141E-05   -0.42109E-07  2266   0.116E-03    0.569E-04
RMM:  14    -0.413203301099E+03    0.31781E-06   -0.18881E-07  1681   0.784E-04
   38 T=    69. E= -.41286628E+03 F= -.41320330E+03 E0= -.41318212E+03  EK= 0.33702E+00 SP= 0.00E+00 SK= 0.00E+00
       N       E                     dE             d eps       ncg     rms          rms(c)
RMM:   1    -0.413215207203E+03   -0.11906E-01   -0.11787E+01  4306   0.111E+00    0.956E-01
RMM:   2    -0.413208441189E+03    0.67660E-02   -0.16612E-01  4263   0.128E-01    0.674E-01
RMM:   3    -0.413206513640E+03    0.19275E-02   -0.92572E-03  4946   0.527E-02    0.210E-01
RMM:   4    -0.413254874415E+03   -0.48361E-01   -0.50964E-02  5143   0.188E-01    0.912E-01
RMM:   5    -0.413205643899E+03    0.49231E-01   -0.24496E-02  4785   0.153E-01    0.538E-02
RMM:   6    -0.413205799615E+03   -0.15572E-03   -0.40634E-03  5829   0.588E-02    0.307E-02
RMM:   7    -0.413205812870E+03   -0.13255E-04   -0.43378E-04  5750   0.183E-02    0.172E-02
RMM:   8    -0.413205804637E+03    0.82330E-05   -0.57305E-05  4886   0.713E-03    0.915E-03
RMM:   9    -0.413205796200E+03    0.84376E-05   -0.17254E-05  4166   0.429E-03    0.618E-03
RMM:  10    -0.413205792137E+03    0.40626E-05   -0.44099E-06  2862   0.272E-03    0.400E-03
RMM:  11    -0.413205785349E+03    0.67877E-05   -0.15671E-06  2505   0.207E-03    0.232E-03
RMM:  12    -0.413205773620E+03    0.11729E-04   -0.13081E-06  2492   0.194E-03    0.798E-04
RMM:  13    -0.413205770047E+03    0.35733E-05   -0.45841E-07  2365   0.124E-03    0.624E-04
RMM:  14    -0.413205769793E+03    0.25408E-06   -0.20333E-07  1865   0.827E-04
   39 T=    69. E= -.41286628E+03 F= -.41320577E+03 E0= -.41318463E+03  EK= 0.33949E+00 SP= 0.00E+00 SK= 0.00E+00
       N       E                     dE             d eps       ncg     rms          rms(c)
RMM:   1    -0.413208014376E+03   -0.22443E-02   -0.11696E+01  4310   0.111E+00    0.934E-01
RMM:   2    -0.413211686009E+03   -0.36716E-02   -0.15939E-01  4268   0.132E-01    0.678E-01
RMM:   3    -0.413209519338E+03    0.21667E-02   -0.93906E-03  4964   0.556E-02    0.208E-01
RMM:   4    -0.413260964810E+03   -0.51445E-01   -0.55457E-02  5137   0.196E-01    0.940E-01
RMM:   5    -0.413208392467E+03    0.52572E-01   -0.25857E-02  4782   0.158E-01    0.548E-02
RMM:   6    -0.413208567019E+03   -0.17455E-03   -0.43059E-03  5819   0.605E-02    0.302E-02
RMM:   7    -0.413208584147E+03   -0.17128E-04   -0.45631E-04  5774   0.186E-02    0.174E-02
RMM:   8    -0.413208581158E+03    0.29891E-05   -0.71702E-05  5083   0.788E-03    0.104E-02
RMM:   9    -0.413208573785E+03    0.73726E-05   -0.24896E-05  4604   0.516E-03    0.690E-03
RMM:  10    -0.413208569430E+03    0.43557E-05   -0.50788E-06  2926   0.302E-03    0.398E-03
RMM:  11    -0.413208565147E+03    0.42823E-05   -0.19090E-06  2540   0.219E-03    0.237E-03
RMM:  12    -0.413208557330E+03    0.78173E-05   -0.12872E-06  2496   0.193E-03    0.727E-04
RMM:  13    -0.413208554341E+03    0.29895E-05   -0.51462E-07  2370   0.128E-03    0.579E-04
RMM:  14    -0.413208553350E+03    0.99022E-06   -0.22378E-07  1950   0.861E-04
   40 T=    70. E= -.41286653E+03 F= -.41320855E+03 E0= -.41318745E+03  EK= 0.34202E+00 SP= 0.00E+00 SK= 0.00E+00
       N       E                     dE             d eps       ncg     rms          rms(c)
RMM:   1    -0.413230872709E+03   -0.22318E-01   -0.12034E+01  4310   0.126E+00    0.945E-01
RMM:   2    -0.413213519762E+03    0.17353E-01   -0.18223E-01  4277   0.147E-01    0.690E-01
RMM:   3    -0.413212191975E+03    0.13278E-02   -0.97684E-03  5042   0.610E-02    0.262E-01
RMM:   4    -0.413269118485E+03   -0.56927E-01   -0.65513E-02  5131   0.213E-01    0.994E-01
RMM:   5    -0.413210196628E+03    0.58922E-01   -0.28585E-02  4778   0.168E-01    0.597E-02
RMM:   6    -0.413210374108E+03   -0.17748E-03   -0.45809E-03  5812   0.637E-02    0.311E-02
RMM:   7    -0.413210394017E+03   -0.19909E-04   -0.53397E-04  5892   0.201E-02    0.208E-02
RMM:   8    -0.413210394735E+03   -0.71872E-06   -0.11588E-04  5293   0.102E-02    0.132E-02
RMM:   9    -0.413210381077E+03    0.13659E-04   -0.25727E-05  4601   0.583E-03    0.571E-03
RMM:  10    -0.413210376539E+03    0.45373E-05   -0.55583E-06  2930   0.297E-03    0.350E-03
RMM:  11    -0.413210372700E+03    0.38388E-05   -0.15055E-06  2505   0.200E-03    0.201E-03
RMM:  12    -0.413210366627E+03    0.60733E-05   -0.92270E-07  2481   0.164E-03    0.685E-04
RMM:  13    -0.413210363249E+03    0.33778E-05   -0.44173E-07  2297   0.115E-03    0.351E-04
RMM:  14    -0.413210361229E+03    0.20201E-05   -0.22478E-07  1816   0.837E-04    0.249E-04
RMM:  15    -0.413210357516E+03    0.37129E-05   -0.13765E-07  1325   0.712E-04    0.122E-04
RMM:  16    -0.413210355345E+03    0.21713E-05   -0.87693E-08  1147   0.651E-04    0.852E-05
RMM:  17    -0.413210352948E+03    0.23972E-05   -0.67255E-08  1125   0.635E-04    0.660E-05
RMM:  18    -0.413210350368E+03    0.25800E-05   -0.55674E-08  1125   0.620E-04    0.352E-05
RMM:  19    -0.413210348395E+03    0.19726E-05   -0.38941E-08  1021   0.593E-04    0.323E-05
RMM:  20    -0.413210347875E+03    0.52020E-06   -0.20322E-08   804   0.556E-04
   41 T=    70. E= -.41286623E+03 F= -.41321035E+03 E0= -.41318928E+03  EK= 0.34412E+00 SP= 0.00E+00 SK= 0.00E+00
       N       E                     dE             d eps       ncg     rms          rms(c)
RMM:   1    -0.413215659627E+03   -0.53112E-02   -0.11895E+01  4311   0.123E+00    0.969E-01
RMM:   2    -0.413215252010E+03    0.40762E-03   -0.16278E-01  4290   0.141E-01    0.682E-01
RMM:   3    -0.413216374945E+03   -0.11229E-02   -0.12189E-02  5086   0.738E-02    0.309E-01
RMM:   4    -0.413253288765E+03   -0.36914E-01   -0.52609E-02  5094   0.193E-01    0.833E-01
RMM:   5    -0.413212696441E+03    0.40592E-01   -0.18259E-02  4740   0.139E-01    0.569E-02
RMM:   6    -0.413212766121E+03   -0.69680E-04   -0.31110E-03  5763   0.527E-02    0.305E-02
RMM:   7    -0.413212774223E+03   -0.81030E-05   -0.40952E-04  5817   0.181E-02    0.206E-02
RMM:   8    -0.413212770571E+03    0.36530E-05   -0.10362E-04  5191   0.101E-02    0.115E-02
RMM:   9    -0.413212756630E+03    0.13941E-04   -0.19490E-05  4385   0.538E-03    0.454E-03
RMM:  10    -0.413212751384E+03    0.52454E-05   -0.39882E-06  2786   0.256E-03    0.283E-03
RMM:  11    -0.413212745507E+03    0.58769E-05   -0.12202E-06  2498   0.181E-03    0.153E-03
RMM:  12    -0.413212737864E+03    0.76437E-05   -0.65888E-07  2431   0.142E-03    0.574E-04
RMM:  13    -0.413212733801E+03    0.40623E-05   -0.32570E-07  2046   0.989E-04    0.276E-04
RMM:  14    -0.413212730719E+03    0.30826E-05   -0.17768E-07  1512   0.767E-04    0.166E-04
RMM:  15    -0.413212724711E+03    0.60075E-05   -0.13091E-07  1332   0.716E-04    0.123E-04
RMM:  16    -0.413212722594E+03    0.21166E-05   -0.82502E-08  1147   0.654E-04    0.799E-05
RMM:  17    -0.413212718784E+03    0.38109E-05   -0.75743E-08  1302   0.658E-04    0.668E-05
RMM:  18    -0.413212716132E+03    0.26517E-05   -0.52439E-08  1114   0.605E-04    0.372E-05
RMM:  19    -0.413212714615E+03    0.15167E-05   -0.35311E-08   976   0.566E-04    0.265E-05
RMM:  20    -0.413212714308E+03    0.30699E-06   -0.18818E-08   766   0.532E-04
   42 T=    71. E= -.41286638E+03 F= -.41321271E+03 E0= -.41319168E+03  EK= 0.34633E+00 SP= 0.00E+00 SK= 0.00E+00
       N       E                     dE             d eps       ncg     rms          rms(c)
RMM:   1    -0.413218068026E+03   -0.53534E-02   -0.11852E+01  4312   0.129E+00    0.945E-01
RMM:   2    -0.413217131182E+03    0.93684E-03   -0.16588E-01  4297   0.149E-01    0.682E-01
RMM:   3    -0.413219334041E+03   -0.22029E-02   -0.12828E-02  5091   0.812E-02    0.340E-01
RMM:   4    -0.413252003568E+03   -0.32670E-01   -0.51594E-02  5082   0.192E-01    0.801E-01
RMM:   5    -0.413214596764E+03    0.37407E-01   -0.16367E-02  4716   0.134E-01    0.565E-02
RMM:   6    -0.413214642059E+03   -0.45295E-04   -0.28237E-03  5749   0.505E-02    0.297E-02
RMM:   7    -0.413214649045E+03   -0.69857E-05   -0.38144E-04  5813   0.176E-02    0.205E-02
RMM:   8    -0.413214645883E+03    0.31615E-05   -0.98341E-05  5157   0.994E-03    0.109E-02
RMM:   9    -0.413214633973E+03    0.11910E-04   -0.18910E-05  4346   0.533E-03    0.417E-03
RMM:  10    -0.413214630392E+03    0.35804E-05   -0.36640E-06  2750   0.247E-03    0.256E-03
RMM:  11    -0.413214625696E+03    0.46967E-05   -0.12484E-06  2498   0.180E-03    0.138E-03
RMM:  12    -0.413214620542E+03    0.51534E-05   -0.61526E-07  2424   0.136E-03    0.581E-04
RMM:  13    -0.413214617511E+03    0.30309E-05   -0.30482E-07  1910   0.942E-04    0.257E-04
RMM:  14    -0.413214614755E+03    0.27562E-05   -0.17568E-07  1449   0.757E-04    0.145E-04
RMM:  15    -0.413214610342E+03    0.44130E-05   -0.13410E-07  1311   0.710E-04    0.105E-04
RMM:  16    -0.413214608615E+03    0.17275E-05   -0.83894E-08  1145   0.649E-04    0.769E-05
RMM:  17    -0.413214605112E+03    0.35027E-05   -0.76893E-08  1253   0.653E-04    0.577E-05
RMM:  18    -0.413214602943E+03    0.21685E-05   -0.53543E-08  1110   0.602E-04    0.406E-05
RMM:  19    -0.413214602102E+03    0.84108E-06   -0.28861E-08   841   0.554E-04
   43 T=    71. E= -.41286640E+03 F= -.41321460E+03 E0= -.41319360E+03  EK= 0.34821E+00 SP= 0.00E+00 SK= 0.00E+00
       N       E                     dE             d eps       ncg     rms          rms(c)
RMM:   1    -0.413244296326E+03   -0.29693E-01   -0.12210E+01  4312   0.146E+00    0.946E-01
RMM:   2    -0.413218419143E+03    0.25877E-01   -0.19954E-01  4305   0.172E-01    0.700E-01
RMM:   3    -0.413221463156E+03   -0.30440E-02   -0.13172E-02  5082   0.887E-02    0.391E-01
RMM:   4    -0.413253178345E+03   -0.31715E-01   -0.54111E-02  5065   0.197E-01    0.808E-01
RMM:   5    -0.413215571653E+03    0.37607E-01   -0.16585E-02  4714   0.136E-01    0.600E-02
RMM:   6    -0.413215592104E+03   -0.20451E-04   -0.27678E-03  5711   0.505E-02    0.302E-02
RMM:   7    -0.413215597543E+03   -0.54391E-05   -0.37341E-04  5861   0.176E-02    0.213E-02
RMM:   8    -0.413215594334E+03    0.32086E-05   -0.95727E-05  5178   0.987E-03    0.109E-02
RMM:   9    -0.413215583484E+03    0.10851E-04   -0.21314E-05  4417   0.561E-03    0.414E-03
RMM:  10    -0.413215581023E+03    0.24611E-05   -0.38484E-06  2762   0.247E-03    0.243E-03
RMM:  11    -0.413215577297E+03    0.37260E-05   -0.16392E-06  2538   0.194E-03    0.143E-03
RMM:  12    -0.413215574079E+03    0.32179E-05   -0.61605E-07  2453   0.139E-03    0.649E-04
RMM:  13    -0.413215571679E+03    0.23994E-05   -0.31709E-07  1779   0.930E-04    0.284E-04
RMM:  14    -0.413215569247E+03    0.24322E-05   -0.20068E-07  1441   0.780E-04    0.149E-04
RMM:  15    -0.413215566336E+03    0.29114E-05   -0.14907E-07  1331   0.720E-04    0.924E-05
RMM:  16    -0.413215564405E+03    0.19306E-05   -0.10125E-07  1213   0.666E-04    0.684E-05
RMM:  17    -0.413215562301E+03    0.21044E-05   -0.78161E-08  1193   0.637E-04    0.502E-05
RMM:  18    -0.413215559958E+03    0.23430E-05   -0.61057E-08  1099   0.603E-04    0.363E-05
RMM:  19    -0.413215559324E+03    0.63345E-06   -0.33694E-08   845   0.554E-04
   44 T=    71. E= -.41286609E+03 F= -.41321556E+03 E0= -.41319458E+03  EK= 0.34947E+00 SP= 0.00E+00 SK= 0.00E+00
       N       E                     dE             d eps       ncg     rms          rms(c)
RMM:   1    -0.413230168006E+03   -0.14608E-01   -0.12062E+01  4311   0.149E+00    0.974E-01
RMM:   2    -0.413218971466E+03    0.11197E-01   -0.16800E-01  4336   0.173E-01    0.690E-01
RMM:   3    -0.413227903451E+03   -0.89320E-02   -0.19220E-02  5128   0.111E-01    0.481E-01
RMM:   4    -0.413236731814E+03   -0.88284E-02   -0.41369E-02  5030   0.176E-01    0.596E-01
RMM:   5    -0.413216856315E+03    0.19875E-01   -0.74339E-03  4610   0.102E-01    0.523E-02
RMM:   6    -0.413216822213E+03    0.34102E-04   -0.14685E-03  5505   0.372E-02    0.281E-02
RMM:   7    -0.413216819549E+03    0.26642E-05   -0.22709E-04  5639   0.146E-02    0.193E-02
RMM:   8    -0.413216811241E+03    0.83080E-05   -0.95782E-05  5084   0.100E-02    0.924E-03
RMM:   9    -0.413216797733E+03    0.13508E-04   -0.14406E-05  4186   0.512E-03    0.370E-03
RMM:  10    -0.413216794038E+03    0.36947E-05   -0.23480E-06  2653   0.213E-03    0.214E-03
RMM:  11    -0.413216787101E+03    0.69370E-05   -0.11273E-06  2483   0.172E-03    0.121E-03
RMM:  12    -0.413216781378E+03    0.57233E-05   -0.50406E-07  2396   0.125E-03    0.594E-04
RMM:  13    -0.413216777674E+03    0.37034E-05   -0.23252E-07  1727   0.844E-04    0.287E-04
RMM:  14    -0.413216773982E+03    0.36918E-05   -0.13054E-07  1268   0.687E-04    0.148E-04
RMM:  15    -0.413216768782E+03    0.52004E-05   -0.10569E-07  1199   0.668E-04    0.114E-04
RMM:  16    -0.413216766025E+03    0.27569E-05   -0.68112E-08  1064   0.620E-04    0.100E-04
RMM:  17    -0.413216762223E+03    0.38025E-05   -0.61461E-08  1168   0.620E-04    0.600E-05
RMM:  18    -0.413216758828E+03    0.33945E-05   -0.50072E-08  1127   0.594E-04    0.456E-05
RMM:  19    -0.413216758208E+03    0.62028E-06   -0.23275E-08   792   0.526E-04
   45 T=    71. E= -.41286635E+03 F= -.41321676E+03 E0= -.41319581E+03  EK= 0.35041E+00 SP= 0.00E+00 SK= 0.00E+00
       N       E                     dE             d eps       ncg     rms          rms(c)
RMM:   1    -0.413244890022E+03   -0.28131E-01   -0.12097E+01  4311   0.163E+00    0.956E-01
RMM:   2    -0.413218639756E+03    0.26250E-01   -0.17880E-01  4358   0.187E-01    0.687E-01
RMM:   3    -0.413229950956E+03   -0.11311E-01   -0.20798E-02  5124   0.120E-01    0.531E-01
RMM:   4    -0.413233417555E+03   -0.34666E-02   -0.40402E-02  5015   0.176E-01    0.557E-01
RMM:   5    -0.413216499149E+03    0.16918E-01   -0.63584E-03  4578   0.971E-02    0.526E-02
RMM:   6    -0.413216443707E+03    0.55442E-04   -0.11941E-03  5344   0.343E-02    0.275E-02
RMM:   7    -0.413216440793E+03    0.29137E-05   -0.18853E-04  5635   0.134E-02    0.184E-02
RMM:   8    -0.413216435434E+03    0.53590E-05   -0.10532E-04  5111   0.104E-02    0.990E-03
RMM:   9    -0.413216421044E+03    0.14390E-04   -0.16456E-05  4319   0.547E-03    0.381E-03
RMM:  10    -0.413216418102E+03    0.29420E-05   -0.26881E-06  2694   0.218E-03    0.219E-03
RMM:  11    -0.413216411860E+03    0.62415E-05   -0.12587E-06  2492   0.180E-03    0.124E-03
RMM:  12    -0.413216407350E+03    0.45106E-05   -0.52572E-07  2414   0.129E-03    0.664E-04
RMM:  13    -0.413216403791E+03    0.35586E-05   -0.23995E-07  1727   0.865E-04    0.327E-04
RMM:  14    -0.413216400325E+03    0.34664E-05   -0.12758E-07  1291   0.689E-04    0.165E-04
RMM:  15    -0.413216396163E+03    0.41621E-05   -0.95099E-08  1157   0.653E-04    0.110E-04
RMM:  16    -0.413216393658E+03    0.25051E-05   -0.61549E-08  1028   0.610E-04    0.102E-04
RMM:  17    -0.413216390859E+03    0.27986E-05   -0.47658E-08  1015   0.594E-04    0.587E-05
RMM:  18    -0.413216387297E+03    0.35619E-05   -0.52004E-08  1128   0.601E-04    0.534E-05
RMM:  19    -0.413216386875E+03    0.42224E-06   -0.16230E-08   667   0.511E-04
   46 T=    71. E= -.41286615E+03 F= -.41321639E+03 E0= -.41319545E+03  EK= 0.35023E+00 SP= 0.00E+00 SK= 0.00E+00
       N       E                     dE             d eps       ncg     rms          rms(c)
RMM:   1    -0.413237273312E+03   -0.20886E-01   -0.12032E+01  4311   0.167E+00    0.944E-01
RMM:   2    -0.413217888300E+03    0.19385E-01   -0.19009E-01  4366   0.200E-01    0.700E-01
RMM:   3    -0.413230044749E+03   -0.12156E-01   -0.21592E-02  5127   0.127E-01    0.559E-01
RMM:   4    -0.413232908779E+03   -0.28640E-02   -0.42918E-02  5005   0.182E-01    0.570E-01
RMM:   5    -0.413215167269E+03    0.17742E-01   -0.68017E-03  4577   0.101E-01    0.550E-02
RMM:   6    -0.413215097129E+03    0.70139E-04   -0.12248E-03  5301   0.353E-02    0.279E-02
RMM:   7    -0.413215092218E+03    0.49116E-05   -0.19363E-04  5676   0.136E-02    0.192E-02
RMM:   8    -0.413215085628E+03    0.65894E-05   -0.10827E-04  5168   0.105E-02    0.103E-02
RMM:   9    -0.413215071965E+03    0.13663E-04   -0.18524E-05  4395   0.575E-03    0.394E-03
RMM:  10    -0.413215069927E+03    0.20381E-05   -0.29831E-06  2716   0.226E-03    0.226E-03
RMM:  11    -0.413215065737E+03    0.41902E-05   -0.14189E-06  2505   0.188E-03    0.133E-03
RMM:  12    -0.413215062667E+03    0.30691E-05   -0.56303E-07  2423   0.134E-03    0.700E-04
RMM:  13    -0.413215059907E+03    0.27607E-05   -0.27270E-07  1772   0.912E-04    0.337E-04
RMM:  14    -0.413215057347E+03    0.25594E-05   -0.15296E-07  1386   0.729E-04    0.175E-04
RMM:  15    -0.413215054514E+03    0.28330E-05   -0.11046E-07  1202   0.669E-04    0.106E-04
RMM:  16    -0.413215052544E+03    0.19698E-05   -0.70030E-08  1011   0.612E-04    0.905E-05
RMM:  17    -0.413215050226E+03    0.23183E-05   -0.59171E-08  1041   0.604E-04    0.545E-05
RMM:  18    -0.413215048139E+03    0.20868E-05   -0.46301E-08   990   0.580E-04    0.387E-05
RMM:  19    -0.413215047562E+03    0.57770E-06   -0.21044E-08   700   0.527E-04
   47 T=    71. E= -.41286610E+03 F= -.41321505E+03 E0= -.41319413E+03  EK= 0.34895E+00 SP= 0.00E+00 SK= 0.00E+00
       N       E                     dE             d eps       ncg     rms          rms(c)
RMM:   1    -0.413256424799E+03   -0.41377E-01   -0.12159E+01  4306   0.184E+00    0.966E-01
RMM:   2    -0.413214991482E+03    0.41433E-01   -0.19771E-01  4423   0.208E-01    0.695E-01
RMM:   3    -0.413234862588E+03   -0.19871E-01   -0.28314E-02  5146   0.147E-01    0.670E-01
RMM:   4    -0.413223288760E+03    0.11574E-01   -0.39564E-02  4967   0.178E-01    0.462E-01
RMM:   5    -0.413212783298E+03    0.10505E-01   -0.49295E-03  4530   0.914E-02    0.578E-02
RMM:   6    -0.413212644917E+03    0.13838E-03   -0.58218E-04  4810   0.293E-02    0.287E-02
RMM:   7    -0.413212641422E+03    0.34952E-05   -0.20279E-04  5928   0.144E-02    0.173E-02
RMM:   8    -0.413212628049E+03    0.13373E-04   -0.96541E-05  5174   0.107E-02    0.113E-02
RMM:   9    -0.413212616745E+03    0.11304E-04   -0.16730E-05  4321   0.534E-03    0.475E-03
RMM:  10    -0.413212612820E+03    0.39243E-05   -0.27164E-06  2646   0.257E-03    0.232E-03
RMM:  11    -0.413212607512E+03    0.53084E-05   -0.19752E-06  2535   0.218E-03    0.165E-03
RMM:  12    -0.413212603350E+03    0.41623E-05   -0.68003E-07  2403   0.150E-03    0.916E-04
RMM:  13    -0.413212599411E+03    0.39390E-05   -0.31069E-07  1995   0.982E-04    0.512E-04
RMM:  14    -0.413212593912E+03    0.54986E-05   -0.21435E-07  1837   0.827E-04    0.367E-04
RMM:  15    -0.413212589907E+03    0.40052E-05   -0.10681E-07  1120   0.617E-04    0.159E-04
RMM:  16    -0.413212587573E+03    0.23340E-05   -0.68085E-08   992   0.576E-04    0.914E-05
RMM:  17    -0.413212584485E+03    0.30882E-05   -0.63592E-08  1074   0.586E-04    0.623E-05
RMM:  18    -0.413212582471E+03    0.20139E-05   -0.40026E-08   897   0.555E-04    0.554E-05
RMM:  19    -0.413212581404E+03    0.10671E-05   -0.22987E-08   765   0.528E-04    0.351E-05
RMM:  20    -0.413212580283E+03    0.11208E-05   -0.21352E-08   777   0.527E-04    0.202E-05
RMM:  21    -0.413212579907E+03    0.37553E-06   -0.11640E-08   636   0.501E-04
   48 T=    70. E= -.41286639E+03 F= -.41321258E+03 E0= -.41319168E+03  EK= 0.34619E+00 SP= 0.00E+00 SK= 0.00E+00
       N       E                     dE             d eps       ncg     rms          rms(c)
RMM:   1    -0.413253546867E+03   -0.40967E-01   -0.11937E+01  4306   0.195E+00    0.955E-01
RMM:   2    -0.413209553125E+03    0.43994E-01   -0.19204E-01  4474   0.218E-01    0.683E-01
RMM:   3    -0.413236956753E+03   -0.27404E-01   -0.34913E-02  5154   0.166E-01    0.759E-01
RMM:   4    -0.413214420790E+03    0.22536E-01   -0.39011E-02  4942   0.180E-01    0.392E-01
RMM:   5    -0.413207544947E+03    0.68758E-02   -0.47906E-03  4706   0.914E-02    0.679E-02
RMM:   6    -0.413207312234E+03    0.23271E-03   -0.48765E-04  4655   0.310E-02    0.322E-02
RMM:   7    -0.413207310986E+03    0.12482E-05   -0.21073E-04  5763   0.156E-02    0.228E-02
RMM:   8    -0.413207283602E+03    0.27384E-04   -0.70913E-05  4984   0.945E-03    0.925E-03
RMM:   9    -0.413207274126E+03    0.94759E-05   -0.15091E-05  4083   0.486E-03    0.417E-03
RMM:  10    -0.413207269245E+03    0.48809E-05   -0.22624E-06  2615   0.229E-03    0.250E-03
RMM:  11    -0.413207262527E+03    0.67179E-05   -0.90719E-07  2490   0.159E-03    0.151E-03
RMM:  12    -0.413207258810E+03    0.37174E-05   -0.35281E-07  2291   0.106E-03    0.745E-04
RMM:  13    -0.413207253203E+03    0.56066E-05   -0.31436E-07  1909   0.916E-04    0.386E-04
RMM:  14    -0.413207248864E+03    0.43393E-05   -0.18071E-07  1434   0.747E-04    0.292E-04
RMM:  15    -0.413207244333E+03    0.45308E-05   -0.13090E-07  1163   0.676E-04    0.127E-04
RMM:  16    -0.413207241819E+03    0.25145E-05   -0.88354E-08  1174   0.636E-04    0.946E-05
RMM:  17    -0.413207238359E+03    0.34598E-05   -0.80026E-08  1283   0.634E-04    0.798E-05
RMM:  18    -0.413207237431E+03    0.92842E-06   -0.39351E-08   911   0.542E-04
   49 T=    69. E= -.41286610E+03 F= -.41320724E+03 E0= -.41318635E+03  EK= 0.34114E+00 SP= 0.00E+00 SK= 0.00E+00
       N       E                     dE             d eps       ncg     rms          rms(c)
RMM:   1    -0.413225511823E+03   -0.18273E-01   -0.11495E+01  4306   0.196E+00    0.924E-01
RMM:   2    -0.413203289533E+03    0.22222E-01   -0.18958E-01  4501   0.226E-01    0.687E-01
RMM:   3    -0.413231220693E+03   -0.27931E-01   -0.35314E-02  5154   0.169E-01    0.774E-01
RMM:   4    -0.413207781438E+03    0.23439E-01   -0.40197E-02  4940   0.184E-01    0.392E-01
RMM:   5    -0.413200770039E+03    0.70114E-02   -0.53180E-03  4791   0.953E-02    0.731E-02
RMM:   6    -0.413200486785E+03    0.28325E-03   -0.53220E-04  4630   0.329E-02    0.332E-02
RMM:   7    -0.413200482949E+03    0.38363E-05   -0.21005E-04  5749   0.157E-02    0.229E-02
RMM:   8    -0.413200456809E+03    0.26140E-04   -0.69107E-05  5033   0.916E-03    0.975E-03
RMM:   9    -0.413200448299E+03    0.85091E-05   -0.15587E-05  4043   0.490E-03    0.413E-03
RMM:  10    -0.413200444207E+03    0.40922E-05   -0.24416E-06  2637   0.235E-03    0.258E-03
RMM:  11    -0.413200439302E+03    0.49048E-05   -0.83685E-07  2487   0.154E-03    0.143E-03
RMM:  12    -0.413200436529E+03    0.27738E-05   -0.35927E-07  2229   0.104E-03    0.710E-04
RMM:  13    -0.413200432098E+03    0.44305E-05   -0.38852E-07  2140   0.978E-04    0.477E-04
RMM:  14    -0.413200429463E+03    0.26349E-05   -0.17618E-07  1281   0.723E-04    0.295E-04
RMM:  15    -0.413200426137E+03    0.33260E-05   -0.15421E-07  1243   0.707E-04    0.122E-04
RMM:  16    -0.413200424220E+03    0.19171E-05   -0.10193E-07  1243   0.657E-04    0.106E-04
RMM:  17    -0.413200422061E+03    0.21589E-05   -0.88887E-08  1310   0.633E-04    0.103E-04
RMM:  18    -0.413200421628E+03    0.43324E-06   -0.41927E-08   912   0.533E-04
   50 T=    68. E= -.41286654E+03 F= -.41320042E+03 E0= -.41317954E+03  EK= 0.33388E+00 SP= 0.00E+00 SK= 0.00E+00
       N       E                     dE             d eps       ncg     rms          rms(c)
RMM:   1    -0.413224042640E+03   -0.23621E-01   -0.11283E+01  4301   0.211E+00    0.929E-01
RMM:   2    -0.413192959597E+03    0.31083E-01   -0.18987E-01  4555   0.239E-01    0.680E-01
RMM:   3    -0.413230502742E+03   -0.37543E-01   -0.44143E-02  5161   0.191E-01    0.876E-01
RMM:   4    -0.413194941115E+03    0.35562E-01   -0.41246E-02  4910   0.189E-01    0.336E-01
RMM:   5    -0.413190804759E+03    0.41364E-02   -0.69774E-03  5141   0.104E-01    0.952E-02
RMM:   6    -0.413190294170E+03    0.51059E-03   -0.96198E-04  4698   0.422E-02    0.383E-02
RMM:   7    -0.413190286432E+03    0.77379E-05   -0.27603E-04  5713   0.182E-02    0.249E-02
RMM:   8    -0.413190260634E+03    0.25798E-04   -0.66878E-05  5180   0.911E-03    0.108E-02
RMM:   9    -0.413190249813E+03    0.10821E-04   -0.16782E-05  3861   0.490E-03    0.433E-03
RMM:  10    -0.413190243935E+03    0.58781E-05   -0.31103E-06  2706   0.259E-03    0.287E-03
[...]
RMM:   7    -0.413160574155E+03   -0.37987E-04   -0.28575E-04  5831   0.136E-02    0.111E-02
RMM:   8    -0.413160586564E+03   -0.12410E-04   -0.34143E-05  4237   0.521E-03    0.705E-03
RMM:   9    -0.413160599807E+03   -0.13243E-04   -0.50990E-06  2814   0.270E-03    0.347E-03
RMM:  10    -0.413160613357E+03   -0.13549E-04   -0.23443E-06  2575   0.198E-03    0.187E-03
RMM:  11    -0.413160623534E+03   -0.10177E-04   -0.12328E-06  2490   0.151E-03    0.857E-04
RMM:  12    -0.413160630427E+03   -0.68937E-05   -0.70371E-07  2272   0.116E-03    0.349E-04
RMM:  13    -0.413160634805E+03   -0.43780E-05   -0.38992E-07  1828   0.914E-04    0.258E-04
RMM:  14    -0.413160640504E+03   -0.56988E-05   -0.45593E-07  1768   0.900E-04    0.146E-04
RMM:  15    -0.413160642591E+03   -0.20869E-05   -0.18787E-07  1439   0.717E-04    0.801E-05
RMM:  16    -0.413160644422E+03   -0.18314E-05   -0.14895E-07  1393   0.684E-04    0.511E-05
RMM:  17    -0.413160645283E+03   -0.86017E-06   -0.83240E-08  1110   0.599E-04
  139 T=    60. E= -.41286621E+03 F= -.41316065E+03 E0= -.41313994E+03  EK= 0.29443E+00 SP= 0.00E+00 SK= 0.00E+00
       N       E                     dE             d eps       ncg     rms          rms(c)
RMM:   1    -0.413152045467E+03    0.85990E-02   -0.10220E+01  4264   0.845E-01    0.841E-01
RMM:   2    -0.413161521000E+03   -0.94755E-02   -0.11855E-01  4314   0.971E-02    0.594E-01
RMM:   3    -0.413160923734E+03    0.59727E-03   -0.58828E-03  4951   0.376E-02    0.148E-01
RMM:   4    -0.413183376114E+03   -0.22452E-01   -0.23170E-02  5153   0.127E-01    0.626E-01
RMM:   5    -0.413160661334E+03    0.22715E-01   -0.11333E-02  4817   0.104E-01    0.391E-02
RMM:   6    -0.413160678307E+03   -0.16973E-04   -0.18443E-03  5712   0.407E-02    0.138E-02
RMM:   7    -0.413160708737E+03   -0.30430E-04   -0.22435E-04  5721   0.123E-02    0.105E-02
RMM:   8    -0.413160719164E+03   -0.10427E-04   -0.27464E-05  4101   0.482E-03    0.657E-03
RMM:   9    -0.413160730175E+03   -0.11010E-04   -0.42544E-06  2741   0.256E-03    0.307E-03
RMM:  10    -0.413160741051E+03   -0.10877E-04   -0.20841E-06  2552   0.189E-03    0.164E-03
RMM:  11    -0.413160748473E+03   -0.74213E-05   -0.10396E-06  2468   0.141E-03    0.780E-04
RMM:  12    -0.413160753830E+03   -0.53576E-05   -0.62015E-07  2150   0.109E-03    0.322E-04
RMM:  13    -0.413160757682E+03   -0.38522E-05   -0.37214E-07  1707   0.886E-04    0.221E-04
RMM:  14    -0.413160761882E+03   -0.41991E-05   -0.37550E-07  1728   0.859E-04    0.127E-04
RMM:  15    -0.413160763744E+03   -0.18624E-05   -0.17683E-07  1411   0.705E-04    0.742E-05
RMM:  16    -0.413160765320E+03   -0.15764E-05   -0.13527E-07  1292   0.659E-04    0.431E-05
RMM:  17    -0.413160766098E+03   -0.77723E-06   -0.78340E-08  1105   0.594E-04
  140 T=    60. E= -.41286613E+03 F= -.41316077E+03 E0= -.41314007E+03  EK= 0.29463E+00 SP= 0.00E+00 SK= 0.00E+00
       N       E                     dE             d eps       ncg     rms          rms(c)
RMM:   1    -0.413151896140E+03    0.88692E-02   -0.10207E+01  4264   0.848E-01    0.851E-01
RMM:   2    -0.413160504389E+03   -0.86082E-02   -0.11672E-01  4312   0.972E-02    0.586E-01
RMM:   3    -0.413160265342E+03    0.23905E-03   -0.60330E-03  4882   0.361E-02    0.146E-01
RMM:   4    -0.413173456700E+03   -0.13191E-01   -0.13552E-02  5169   0.981E-02    0.482E-01
RMM:   5    -0.413160205791E+03    0.13251E-01   -0.67251E-03  4829   0.801E-02    0.345E-02
RMM:   6    -0.413160201943E+03    0.38477E-05   -0.11210E-03  5681   0.323E-02    0.150E-02
RMM:   7    -0.413160221744E+03   -0.19801E-04   -0.14347E-04  5536   0.102E-02    0.989E-03
RMM:   8    -0.413160228659E+03   -0.69143E-05   -0.18877E-05  3854   0.434E-03    0.557E-03
RMM:   9    -0.413160235720E+03   -0.70618E-05   -0.33099E-06  2630   0.241E-03    0.239E-03
RMM:  10    -0.413160241735E+03   -0.60150E-05   -0.16301E-06  2534   0.171E-03    0.138E-03
RMM:  11    -0.413160245838E+03   -0.41024E-05   -0.87752E-07  2413   0.129E-03    0.671E-04
RMM:  12    -0.413160248986E+03   -0.31485E-05   -0.55771E-07  1983   0.101E-03    0.270E-04
RMM:  13    -0.413160251162E+03   -0.21756E-05   -0.32697E-07  1604   0.849E-04    0.187E-04
RMM:  14    -0.413160253665E+03   -0.25027E-05   -0.36610E-07  1827   0.853E-04    0.123E-04
RMM:  15    -0.413160254921E+03   -0.12565E-05   -0.17090E-07  1355   0.684E-04    0.729E-05
RMM:  16    -0.413160256004E+03   -0.10827E-05   -0.12539E-07  1213   0.634E-04    0.353E-05
RMM:  17    -0.413160256638E+03   -0.63422E-06   -0.72806E-08  1014   0.582E-04
  141 T=    60. E= -.41286605E+03 F= -.41316026E+03 E0= -.41313957E+03  EK= 0.29421E+00 SP= 0.00E+00 SK= 0.00E+00
       N       E                     dE             d eps       ncg     rms          rms(c)
RMM:   1    -0.413154611959E+03    0.56440E-02   -0.10169E+01  4264   0.870E-01    0.826E-01
RMM:   2    -0.413161966828E+03   -0.73549E-02   -0.11861E-01  4306   0.984E-02    0.588E-01
RMM:   3    -0.413161117839E+03    0.84899E-03   -0.55191E-03  4656   0.354E-02    0.136E-01
RMM:   4    -0.413164445870E+03   -0.33280E-02   -0.39545E-03  5165   0.536E-02    0.244E-01
RMM:   5    -0.413161099117E+03    0.33468E-02   -0.17311E-03  4837   0.411E-02    0.252E-02
RMM:   6    -0.413161085654E+03    0.13464E-04   -0.32769E-04  5550   0.187E-02    0.112E-02
RMM:   7    -0.413161107585E+03   -0.21932E-04   -0.49469E-05  5035   0.683E-03    0.767E-03
RMM:   8    -0.413161120576E+03   -0.12990E-04   -0.92906E-06  3428   0.360E-03    0.327E-03
RMM:   9    -0.413161133658E+03   -0.13082E-04   -0.22913E-06  2545   0.215E-03    0.153E-03
RMM:  10    -0.413161141915E+03   -0.82568E-05   -0.93372E-07  2468   0.142E-03    0.936E-04
RMM:  11    -0.413161149789E+03   -0.78741E-05   -0.66879E-07  2211   0.109E-03    0.473E-04
RMM:  12    -0.413161155425E+03   -0.56360E-05   -0.42947E-07  1672   0.877E-04    0.217E-04
RMM:  13    -0.413161158952E+03   -0.35268E-05   -0.26363E-07  1579   0.782E-04    0.146E-04
RMM:  14    -0.413161162429E+03   -0.34773E-05   -0.25284E-07  1611   0.760E-04    0.102E-04
RMM:  15    -0.413161164767E+03   -0.23375E-05   -0.16447E-07  1284   0.670E-04    0.513E-05
RMM:  16    -0.413161165492E+03   -0.72538E-06   -0.73927E-08  1034   0.581E-04
  142 T=    60. E= -.41286628E+03 F= -.41316117E+03 E0= -.41314049E+03  EK= 0.29489E+00 SP= 0.00E+00 SK= 0.00E+00
       N       E                     dE             d eps       ncg     rms          rms(c)
RMM:   1    -0.413153348509E+03    0.78163E-02   -0.10228E+01  4264   0.872E-01    0.834E-01
RMM:   2    -0.413162266427E+03   -0.89179E-02   -0.11966E-01  4308   0.970E-02    0.596E-01
RMM:   3    -0.413161281600E+03    0.98483E-03   -0.56357E-03  4595   0.350E-02    0.133E-01
RMM:   4    -0.413161343683E+03   -0.62083E-04   -0.86175E-04  5117   0.233E-02    0.384E-02
RMM:   5    -0.413161332433E+03    0.11249E-04   -0.13622E-04  4960   0.123E-02    0.363E-02
RMM:   6    -0.413161275668E+03    0.56766E-04   -0.80327E-05  5138   0.953E-03    0.107E-02
RMM:   7    -0.413161297958E+03   -0.22291E-04   -0.21555E-05  4685   0.558E-03    0.721E-03
RMM:   8    -0.413161312168E+03   -0.14210E-04   -0.50685E-06  2924   0.313E-03    0.251E-03
RMM:   9    -0.413161322745E+03   -0.10576E-04   -0.17948E-06  2519   0.199E-03    0.125E-03
RMM:  10    -0.413161330689E+03   -0.79448E-05   -0.88262E-07  2343   0.139E-03    0.781E-04
RMM:  11    -0.413161338554E+03   -0.78643E-05   -0.56676E-07  2004   0.101E-03    0.434E-04
RMM:  12    -0.413161344717E+03   -0.61629E-05   -0.37709E-07  1692   0.795E-04    0.217E-04
RMM:  13    -0.413161350044E+03   -0.53272E-05   -0.34716E-07  1471   0.749E-04    0.161E-04
RMM:  14    -0.413161352613E+03   -0.25696E-05   -0.16065E-07  1238   0.636E-04    0.108E-04
RMM:  15    -0.413161354195E+03   -0.15820E-05   -0.98189E-08  1115   0.584E-04    0.530E-05
RMM:  16    -0.413161355464E+03   -0.12688E-05   -0.71459E-08   978   0.553E-04    0.312E-05
RMM:  17    -0.413161355574E+03   -0.10987E-06   -0.21062E-08   675   0.482E-04
  143 T=    60. E= -.41286596E+03 F= -.41316136E+03 E0= -.41314069E+03  EK= 0.29540E+00 SP= 0.00E+00 SK= 0.00E+00
       N       E                     dE             d eps       ncg     rms          rms(c)
RMM:   1    -0.413156171139E+03    0.51843E-02   -0.10266E+01  4264   0.878E-01    0.855E-01
RMM:   2    -0.413161592354E+03   -0.54212E-02   -0.11500E-01  4307   0.100E-01    0.587E-01
RMM:   3    -0.413161112683E+03    0.47967E-03   -0.60889E-03  4668   0.368E-02    0.137E-01
RMM:   4    -0.413163584346E+03   -0.24717E-02   -0.29956E-03  5192   0.482E-02    0.208E-01
RMM:   5    -0.413161179823E+03    0.24045E-02   -0.12641E-03  4837   0.355E-02    0.287E-02
RMM:   6    -0.413161156383E+03    0.23440E-04   -0.28002E-04  5450   0.174E-02    0.143E-02
RMM:   7    -0.413161171694E+03   -0.15311E-04   -0.49382E-05  5135   0.709E-03    0.814E-03
RMM:   8    -0.413161176929E+03   -0.52349E-05   -0.94612E-06  3503   0.370E-03    0.345E-03
RMM:   9    -0.413161183078E+03   -0.61488E-05   -0.24709E-06  2551   0.231E-03    0.184E-03
RMM:  10    -0.413161187326E+03   -0.42488E-05   -0.10087E-06  2478   0.153E-03    0.978E-04
RMM:  11    -0.413161191223E+03   -0.38967E-05   -0.65674E-07  2223   0.113E-03    0.532E-04
RMM:  12    -0.413161194146E+03   -0.29234E-05   -0.41413E-07  1773   0.875E-04    0.237E-04
RMM:  13    -0.413161196295E+03   -0.21488E-05   -0.30874E-07  1596   0.797E-04    0.144E-04
RMM:  14    -0.413161198296E+03   -0.20006E-05   -0.29010E-07  1655   0.770E-04    0.116E-04
RMM:  15    -0.413161199541E+03   -0.12452E-05   -0.15564E-07  1249   0.652E-04    0.650E-05
RMM:  16    -0.413161200157E+03   -0.61578E-06   -0.77028E-08  1022   0.573E-04
  144 T=    60. E= -.41286610E+03 F= -.41316120E+03 E0= -.41314054E+03  EK= 0.29510E+00 SP= 0.00E+00 SK= 0.00E+00
       N       E                     dE             d eps       ncg     rms          rms(c)
RMM:   1    -0.413152753518E+03    0.84460E-02   -0.10136E+01  4264   0.856E-01    0.830E-01
RMM:   2    -0.413162514174E+03   -0.97607E-02   -0.11741E-01  4309   0.990E-02    0.586E-01
RMM:   3    -0.413161524326E+03    0.98985E-03   -0.56521E-03  4869   0.365E-02    0.142E-01
RMM:   4    -0.413172841772E+03   -0.11317E-01   -0.11655E-02  5173   0.913E-02    0.446E-01
RMM:   5    -0.413161458210E+03    0.11384E-01   -0.57353E-03  4833   0.739E-02    0.340E-02
RMM:   6    -0.413161454327E+03    0.38837E-05   -0.99337E-04  5696   0.297E-02    0.125E-02
RMM:   7    -0.413161475478E+03   -0.21151E-04   -0.12385E-04  5481   0.960E-03    0.880E-03
RMM:   8    -0.413161484214E+03   -0.87363E-05   -0.16374E-05  3837   0.412E-03    0.520E-03
RMM:   9    -0.413161494976E+03   -0.10762E-04   -0.30731E-06  2586   0.241E-03    0.217E-03
RMM:  10    -0.413161503117E+03   -0.81406E-05   -0.13512E-06  2512   0.162E-03    0.108E-03
RMM:  11    -0.413161509316E+03   -0.61992E-05   -0.79538E-07  2316   0.121E-03    0.574E-04
RMM:  12    -0.413161513741E+03   -0.44248E-05   -0.48240E-07  1895   0.962E-04    0.263E-04
RMM:  13    -0.413161517158E+03   -0.34168E-05   -0.34692E-07  1685   0.855E-04    0.169E-04
RMM:  14    -0.413161520405E+03   -0.32469E-05   -0.35143E-07  1727   0.828E-04    0.109E-04
RMM:  15    -0.413161521685E+03   -0.12802E-05   -0.14655E-07  1282   0.673E-04    0.635E-05
RMM:  16    -0.413161522750E+03   -0.10650E-05   -0.11445E-07  1231   0.636E-04    0.285E-05
RMM:  17    -0.413161523158E+03   -0.40768E-06   -0.62162E-08  1003   0.569E-04
  145 T=    60. E= -.41286617E+03 F= -.41316152E+03 E0= -.41314087E+03  EK= 0.29535E+00 SP= 0.00E+00 SK= 0.00E+00
       N       E                     dE             d eps       ncg     rms          rms(c)
RMM:   1    -0.413153187670E+03    0.83351E-02   -0.10202E+01  4264   0.864E-01    0.829E-01
RMM:   2    -0.413163099985E+03   -0.99123E-02   -0.12011E-01  4312   0.101E-01    0.597E-01
RMM:   3    -0.413161996212E+03    0.11038E-02   -0.58248E-03  4937   0.392E-02    0.142E-01
RMM:   4    -0.413181792011E+03   -0.19796E-01   -0.20298E-02  5163   0.119E-01    0.588E-01
RMM:   5    -0.413161788402E+03    0.20004E-01   -0.10049E-02  4831   0.974E-02    0.395E-02
RMM:   6    -0.413161809300E+03   -0.20898E-04   -0.16565E-03  5719   0.380E-02    0.118E-02
RMM:   7    -0.413161838875E+03   -0.29575E-04   -0.19791E-04  5688   0.116E-02    0.938E-03
RMM:   8    -0.413161850351E+03   -0.11476E-04   -0.23924E-05  4021   0.459E-03    0.599E-03
RMM:   9    -0.413161864277E+03   -0.13926E-04   -0.38181E-06  2673   0.258E-03    0.270E-03
RMM:  10    -0.413161876137E+03   -0.11860E-04   -0.18297E-06  2542   0.179E-03    0.136E-03
RMM:  11    -0.413161884960E+03   -0.88230E-05   -0.96680E-07  2426   0.133E-03    0.676E-04
RMM:  12    -0.413161890998E+03   -0.60382E-05   -0.56797E-07  2080   0.104E-03    0.308E-04
RMM:  13    -0.413161895359E+03   -0.43614E-05   -0.37423E-07  1697   0.885E-04    0.203E-04
RMM:  14    -0.413161899785E+03   -0.44261E-05   -0.40296E-07  1814   0.871E-04    0.124E-04
RMM:  15    -0.413161901582E+03   -0.17965E-05   -0.18191E-07  1440   0.707E-04    0.695E-05
RMM:  16    -0.413161902806E+03   -0.12240E-05   -0.13254E-07  1226   0.648E-04    0.360E-05
RMM:  17    -0.413161903113E+03   -0.30682E-06   -0.69667E-08  1030   0.579E-04
  146 T=    60. E= -.41286594E+03 F= -.41316190E+03 E0= -.41314126E+03  EK= 0.29596E+00 SP= 0.00E+00 SK= 0.00E+00
       N       E                     dE             d eps       ncg     rms          rms(c)
RMM:   1    -0.413154116240E+03    0.77866E-02   -0.10225E+01  4264   0.873E-01    0.853E-01
RMM:   2    -0.413162845581E+03   -0.87293E-02   -0.11739E-01  4316   0.988E-02    0.590E-01
RMM:   3    -0.413162387216E+03    0.45837E-03   -0.62681E-03  4975   0.405E-02    0.154E-01
RMM:   4    -0.413187842573E+03   -0.25455E-01   -0.26205E-02  5151   0.135E-01    0.664E-01
RMM:   5    -0.413162107355E+03    0.25735E-01   -0.12823E-02  4821   0.110E-01    0.461E-02
RMM:   6    -0.413162145966E+03   -0.38611E-04   -0.21089E-03  5712   0.431E-02    0.152E-02
RMM:   7    -0.413162173367E+03   -0.27401E-04   -0.25909E-04  5828   0.131E-02    0.110E-02
RMM:   8    -0.413162179236E+03   -0.58696E-05   -0.30276E-05  4221   0.500E-03    0.688E-03
RMM:   9    -0.413162184569E+03   -0.53324E-05   -0.47188E-06  2746   0.270E-03    0.307E-03
RMM:  10    -0.413162189640E+03   -0.50709E-05   -0.19928E-06  2550   0.185E-03    0.157E-03
RMM:  11    -0.413162193602E+03   -0.39619E-05   -0.10407E-06  2463   0.140E-03    0.752E-04
RMM:  12    -0.413162196338E+03   -0.27369E-05   -0.60461E-07  2175   0.108E-03    0.314E-04
RMM:  13    -0.413162197852E+03   -0.15136E-05   -0.32665E-07  1709   0.872E-04    0.231E-04
RMM:  14    -0.413162199804E+03   -0.19523E-05   -0.39780E-07  1816   0.875E-04    0.136E-04
RMM:  15    -0.413162200725E+03   -0.92022E-06   -0.19200E-07  1423   0.716E-04
  147 T=    60. E= -.41286636E+03 F= -.41316220E+03 E0= -.41314156E+03  EK= 0.29584E+00 SP= 0.00E+00 SK= 0.00E+00
       N       E                     dE             d eps       ncg     rms          rms(c)
RMM:   1    -0.413153446629E+03    0.87532E-02   -0.10130E+01  4264   0.867E-01    0.837E-01
RMM:   2    -0.413163075210E+03   -0.96286E-02   -0.11654E-01  4314   0.100E-01    0.584E-01
RMM:   3    -0.413162304327E+03    0.77088E-03   -0.61112E-03  5012   0.422E-02    0.162E-01
RMM:   4    -0.413193605462E+03   -0.31301E-01   -0.32875E-02  5155   0.151E-01    0.736E-01
RMM:   5    -0.413161809038E+03    0.31796E-01   -0.15746E-02  4820   0.123E-01    0.504E-02
RMM:   6    -0.413161868862E+03   -0.59823E-04   -0.25764E-03  5703   0.478E-02    0.149E-02
RMM:   7    -0.413161900927E+03   -0.32065E-04   -0.31747E-04  5925   0.143E-02    0.114E-02
RMM:   8    -0.413161907404E+03   -0.64766E-05   -0.36863E-05  4375   0.536E-03    0.726E-03
RMM:   9    -0.413161913590E+03   -0.61866E-05   -0.56197E-06  2818   0.288E-03    0.333E-03
RMM:  10    -0.413161919575E+03   -0.59841E-05   -0.21386E-06  2568   0.194E-03    0.175E-03
RMM:  11    -0.413161924689E+03   -0.51147E-05   -0.11355E-06  2478   0.146E-03    0.855E-04
RMM:  12    -0.413161928232E+03   -0.35425E-05   -0.66708E-07  2227   0.113E-03    0.333E-04
RMM:  13    -0.413161929857E+03   -0.16255E-05   -0.33329E-07  1794   0.889E-04    0.256E-04
RMM:  14    -0.413161932245E+03   -0.23877E-05   -0.41565E-07  1774   0.887E-04    0.153E-04
RMM:  15    -0.413161933292E+03   -0.10470E-05   -0.21254E-07  1519   0.746E-04    0.840E-05
RMM:  16    -0.413161934025E+03   -0.73336E-06   -0.15332E-07  1361   0.687E-04
  148 T=    60. E= -.41286617E+03 F= -.41316193E+03 E0= -.41314130E+03  EK= 0.29576E+00 SP= 0.00E+00 SK= 0.00E+00
       N       E                     dE             d eps       ncg     rms          rms(c)
RMM:   1    -0.413153983108E+03    0.79502E-02   -0.10163E+01  4264   0.870E-01    0.826E-01
RMM:   2    -0.413163987897E+03   -0.10005E-01   -0.11996E-01  4318   0.100E-01    0.596E-01
RMM:   3    -0.413163214392E+03    0.77350E-03   -0.62154E-03  5053   0.439E-02    0.166E-01
RMM:   4    -0.413199559047E+03   -0.36345E-01   -0.39154E-02  5140   0.164E-01    0.792E-01
RMM:   5    -0.413162510120E+03    0.37049E-01   -0.18134E-02  4821   0.133E-01    0.536E-02
RMM:   6    -0.413162577278E+03   -0.67158E-04   -0.29725E-03  5678   0.515E-02    0.128E-02
RMM:   7    -0.413162620887E+03   -0.43609E-04   -0.37252E-04  6006   0.153E-02    0.112E-02
RMM:   8    -0.413162631461E+03   -0.10574E-04   -0.41287E-05  4492   0.563E-03    0.729E-03
RMM:   9    -0.413162644340E+03   -0.12879E-04   -0.63347E-06  2867   0.304E-03    0.351E-03
RMM:  10    -0.413162654848E+03   -0.10508E-04   -0.22773E-06  2565   0.201E-03    0.187E-03
RMM:  11    -0.413162664379E+03   -0.95308E-05   -0.12806E-06  2503   0.152E-03    0.927E-04
RMM:  12    -0.413162670622E+03   -0.62429E-05   -0.74685E-07  2258   0.116E-03    0.382E-04
RMM:  13    -0.413162673301E+03   -0.26792E-05   -0.34811E-07  1836   0.899E-04    0.279E-04
RMM:  14    -0.413162677306E+03   -0.40056E-05   -0.44671E-07  1764   0.899E-04    0.178E-04
RMM:  15    -0.413162679208E+03   -0.19017E-05   -0.25058E-07  1587   0.772E-04    0.103E-04
RMM:  16    -0.413162679895E+03   -0.68716E-06   -0.14458E-07  1329   0.676E-04
  149 T=    60. E= -.41286604E+03 F= -.41316268E+03 E0= -.41314205E+03  EK= 0.29664E+00 SP= 0.00E+00 SK= 0.00E+00
       N       E                     dE             d eps       ncg     rms          rms(c)
RMM:   1    -0.413154758788E+03    0.79204E-02   -0.10197E+01  4264   0.874E-01    0.848E-01
RMM:   2    -0.413163987203E+03   -0.92284E-02   -0.11777E-01  4320   0.992E-02    0.593E-01
RMM:   3    -0.413163745779E+03    0.24142E-03   -0.65708E-03  5106   0.437E-02    0.176E-01
RMM:   4    -0.413199944611E+03   -0.36199E-01   -0.39607E-02  5150   0.165E-01    0.792E-01
RMM:   5    -0.413163010675E+03    0.36934E-01   -0.18031E-02  4818   0.133E-01    0.566E-02
RMM:   6    -0.413163061925E+03   -0.51250E-04   -0.29798E-03  5674   0.517E-02    0.153E-02
RMM:   7    -0.413163100524E+03   -0.38599E-04   -0.38166E-04  6041   0.157E-02    0.120E-02
RMM:   8    -0.413163106868E+03   -0.63444E-05   -0.42998E-05  4659   0.584E-03    0.768E-03
RMM:   9    -0.413163112946E+03   -0.60774E-05   -0.69978E-06  2924   0.320E-03    0.353E-03
RMM:  10    -0.413163117749E+03   -0.48038E-05   -0.21362E-06  2559   0.202E-03    0.188E-03
RMM:  11    -0.413163122641E+03   -0.48911E-05   -0.12444E-06  2516   0.152E-03    0.100E-03
RMM:  12    -0.413163125565E+03   -0.29240E-05   -0.68090E-07  2175   0.113E-03    0.415E-04
RMM:  13    -0.413163126922E+03   -0.13569E-05   -0.36350E-07  1880   0.910E-04    0.268E-04
RMM:  14    -0.413163128223E+03   -0.13012E-05   -0.32859E-07  1632   0.839E-04    0.181E-04
RMM:  15    -0.413163129272E+03   -0.10491E-05   -0.32463E-07  1745   0.822E-04    0.118E-04
RMM:  16    -0.413163129443E+03   -0.17132E-06   -0.11635E-07  1240   0.643E-04
  150 T=    60. E= -.41286632E+03 F= -.41316313E+03 E0= -.41314251E+03  EK= 0.29681E+00 SP= 0.00E+00 SK= 0.00E+00
