       N       E                     dE             d eps       ncg     rms          rms(c)
RMM:   1     0.220155450817E+04    0.22016E+04   -0.52440E+04  2132   0.654E+02
RMM:   2     0.705983512172E+03   -0.14956E+04   -0.16263E+04  2132   0.177E+02
RMM:   3     0.137992473215E+03   -0.56799E+03   -0.65719E+03  2132   0.117E+02
RMM:   4    -0.159240334305E+03   -0.29723E+03   -0.27837E+03  2132   0.936E+01
RMM:   5    -0.287471361545E+03   -0.12823E+03   -0.11447E+03  2132   0.595E+01
RMM:   6    -0.349959493506E+03   -0.62488E+02   -0.55214E+02  2132   0.423E+01
RMM:   7    -0.382827266161E+03   -0.32868E+02   -0.30409E+02  2132   0.293E+01
RMM:   8    -0.404298921533E+03   -0.21472E+02   -0.18387E+02  2132   0.233E+01
RMM:   9    -0.436030094817E+03   -0.31731E+02   -0.30637E+02  6100   0.173E+01
RMM:  10    -0.441315792103E+03   -0.52857E+01   -0.62948E+01  6395   0.539E+00
RMM:  11    -0.442520000188E+03   -0.12042E+01   -0.11198E+01  6223   0.173E+00
RMM:  12    -0.442885111721E+03   -0.36511E+00   -0.26299E+00  6372   0.598E-01    0.134E+02
RMM:  13    -0.425591536247E+03    0.17294E+02   -0.81196E+01  4674   0.119E+01    0.712E+01
RMM:  14    -0.499206177784E+03   -0.73615E+02   -0.54023E+02  5420   0.232E+01    0.306E+01
RMM:  15    -0.414990949725E+03    0.84215E+02   -0.19725E+02  5067   0.163E+01    0.645E+00
RMM:  16    -0.414024376289E+03    0.96657E+00   -0.39335E+01  6067   0.606E+00    0.426E+00
RMM:  17    -0.413219187739E+03    0.80519E+00   -0.23843E+00  5374   0.183E+00    0.245E+00
RMM:  18    -0.413170278022E+03    0.48910E-01   -0.83433E-01  5967   0.939E-01    0.162E+00
RMM:  19    -0.413166468655E+03    0.38094E-02   -0.30727E-01  5724   0.585E-01    0.848E-01
RMM:  20    -0.413179286739E+03   -0.12818E-01   -0.18373E-01  5409   0.470E-01    0.488E-01
RMM:  21    -0.413166961639E+03    0.12325E-01   -0.31224E-02  5026   0.212E-01    0.237E-01
RMM:  22    -0.413165589564E+03    0.13721E-02   -0.13064E-02  6118   0.934E-02    0.143E-01
RMM:  23    -0.413164178957E+03    0.14106E-02   -0.50749E-03  5804   0.650E-02    0.815E-02
RMM:  24    -0.413162859539E+03    0.13194E-02   -0.18137E-03  5563   0.417E-02    0.372E-02
RMM:  25    -0.413162704388E+03    0.15515E-03   -0.84096E-04  5695   0.249E-02    0.301E-02
RMM:  26    -0.413162936697E+03   -0.23231E-03   -0.58410E-04  5862   0.250E-02    0.314E-02
RMM:  27    -0.413163375404E+03   -0.43871E-03   -0.19858E-04  4577   0.200E-02    0.149E-02
RMM:  28    -0.413163878956E+03   -0.50355E-03   -0.19466E-04  5318   0.196E-02    0.924E-03
RMM:  29    -0.413164220876E+03   -0.34192E-03   -0.93464E-05  4338   0.136E-02    0.424E-03
RMM:  30    -0.413164449130E+03   -0.22825E-03   -0.77942E-05  4039   0.101E-02    0.257E-03
RMM:  31    -0.413164543152E+03   -0.94022E-04   -0.45082E-05  3189   0.561E-03    0.264E-03
RMM:  32    -0.413164569318E+03   -0.26166E-04   -0.18244E-05  2905   0.298E-03    0.107E-03
RMM:  33    -0.413164576393E+03   -0.70747E-05   -0.79364E-06  2738   0.189E-03    0.491E-04
RMM:  34    -0.413164579178E+03   -0.27855E-05   -0.41235E-06  2671   0.168E-03    0.107E-03
RMM:  35    -0.413164578436E+03    0.74234E-06   -0.20655E-06  2205   0.110E-03
    1 T=    61. E= -.41286680E+03 F= -.41316458E+03 E0= -.41314208E+03  EK= 0.29778E+00 SP= 0.00E+00 SK= 0.00E+00
       N       E                     dE             d eps       ncg     rms          rms(c)
RMM:   1    -0.413157341601E+03    0.72376E-02   -0.10516E+01  3998   0.679E-01    0.885E-01
RMM:   2    -0.413166654598E+03   -0.93130E-02   -0.12903E-01  3988   0.963E-02    0.644E-01
RMM:   3    -0.413164459046E+03    0.21956E-02   -0.85147E-03  4706   0.389E-02    0.128E-01
RMM:   4    -0.413182032796E+03   -0.17574E-01   -0.18418E-02  5219   0.113E-01    0.555E-01
RMM:   5    -0.413164179754E+03    0.17853E-01   -0.88792E-03  4854   0.931E-02    0.365E-02
RMM:   6    -0.413164298277E+03   -0.11852E-03   -0.14880E-03  5795   0.373E-02    0.242E-02
RMM:   7    -0.413164307860E+03   -0.95838E-05   -0.24847E-04  5722   0.141E-02    0.147E-02
RMM:   8    -0.413164311534E+03   -0.36733E-05   -0.34300E-05  4663   0.609E-03    0.634E-03
RMM:   9    -0.413164315475E+03   -0.39410E-05   -0.72574E-06  3167   0.297E-03    0.500E-03
RMM:  10    -0.413164320483E+03   -0.50084E-05   -0.14318E-06  2555   0.178E-03    0.323E-03
RMM:  11    -0.413164327404E+03   -0.69211E-05   -0.13063E-06  2524   0.165E-03    0.144E-03
RMM:  12    -0.413164333769E+03   -0.63644E-05   -0.10869E-06  2460   0.142E-03    0.643E-04
RMM:  13    -0.413164334244E+03   -0.47571E-06   -0.41017E-07  1967   0.920E-04
    2 T=    61. E= -.41286659E+03 F= -.41316433E+03 E0= -.41314183E+03  EK= 0.29774E+00 SP= 0.00E+00 SK= 0.00E+00
       N       E                     dE             d eps       ncg     rms          rms(c)
RMM:   1    -0.413158376499E+03    0.59573E-02   -0.10541E+01  4188   0.680E-01    0.908E-01
RMM:   2    -0.413166625003E+03   -0.82485E-02   -0.12673E-01  4040   0.945E-02    0.637E-01
RMM:   3    -0.413165018947E+03    0.16061E-02   -0.86826E-03  4806   0.385E-02    0.143E-01
RMM:   4    -0.413188144351E+03   -0.23125E-01   -0.23557E-02  5186   0.128E-01    0.635E-01
RMM:   5    -0.413164713717E+03    0.23431E-01   -0.11455E-02  4840   0.106E-01    0.401E-02
RMM:   6    -0.413164866684E+03   -0.15297E-03   -0.19146E-03  5809   0.424E-02    0.258E-02
RMM:   7    -0.413164869798E+03   -0.31146E-05   -0.28890E-04  5785   0.155E-02    0.163E-02
RMM:   8    -0.413164866582E+03    0.32161E-05   -0.47107E-05  4950   0.710E-03    0.770E-03
RMM:   9    -0.413164865564E+03    0.10176E-05   -0.95835E-06  3553   0.351E-03    0.587E-03
RMM:  10    -0.413164866218E+03   -0.65351E-06   -0.14539E-06  2552   0.192E-03
    3 T=    61. E= -.41286689E+03 F= -.41316487E+03 E0= -.41314237E+03  EK= 0.29798E+00 SP= 0.00E+00 SK= 0.00E+00
       N       E                     dE             d eps       ncg     rms          rms(c)
RMM:   1    -0.413157786261E+03    0.70793E-02   -0.10455E+01  4220   0.681E-01    0.892E-01
RMM:   2    -0.413166467790E+03   -0.86815E-02   -0.12588E-01  4128   0.948E-02    0.631E-01
RMM:   3    -0.413166917548E+03   -0.44976E-03   -0.10050E-02  5117   0.593E-02    0.239E-01
RMM:   4    -0.413201761407E+03   -0.34844E-01   -0.45194E-02  5144   0.179E-01    0.796E-01
RMM:   5    -0.413164467374E+03    0.37294E-01   -0.16401E-02  4762   0.133E-01    0.561E-02
RMM:   6    -0.413164599948E+03   -0.13257E-03   -0.28172E-03  5632   0.525E-02    0.254E-02
RMM:   7    -0.413164624130E+03   -0.24183E-04   -0.39798E-04  6046   0.166E-02    0.166E-02
RMM:   8    -0.413164625110E+03   -0.97948E-06   -0.63225E-05  5289   0.815E-03    0.773E-03
RMM:   9    -0.413164623576E+03    0.15340E-05   -0.11004E-05  3527   0.369E-03    0.373E-03
RMM:  10    -0.413164625093E+03   -0.15168E-05   -0.26210E-06  2635   0.221E-03    0.265E-03
RMM:  11    -0.413164626709E+03   -0.16162E-05   -0.12281E-06  2526   0.172E-03    0.138E-03
RMM:  12    -0.413164627798E+03   -0.10891E-05   -0.74073E-07  2461   0.134E-03    0.445E-04
RMM:  13    -0.413164628344E+03   -0.54596E-06   -0.36875E-07  1985   0.959E-04
    4 T=    61. E= -.41286669E+03 F= -.41316463E+03 E0= -.41314214E+03  EK= 0.29794E+00 SP= 0.00E+00 SK= 0.00E+00
       N       E                     dE             d eps       ncg     rms          rms(c)
RMM:   1    -0.413157670980E+03    0.69568E-02   -0.10501E+01  4237   0.688E-01    0.883E-01
RMM:   2    -0.413167014569E+03   -0.93436E-02   -0.12906E-01  4013   0.939E-02    0.642E-01
RMM:   3    -0.413165024508E+03    0.19901E-02   -0.85460E-03  4868   0.400E-02    0.137E-01
RMM:   4    -0.413192065123E+03   -0.27041E-01   -0.27700E-02  5165   0.139E-01    0.686E-01
RMM:   5    -0.413164587819E+03    0.27477E-01   -0.13313E-02  4820   0.114E-01    0.408E-02
RMM:   6    -0.413164767367E+03   -0.17955E-03   -0.22382E-03  5786   0.455E-02    0.251E-02
RMM:   7    -0.413164779091E+03   -0.11724E-04   -0.31340E-04  5829   0.156E-02    0.164E-02
RMM:   8    -0.413164781941E+03   -0.28500E-05   -0.50508E-05  4969   0.721E-03    0.789E-03
RMM:   9    -0.413164784247E+03   -0.23058E-05   -0.10698E-05  3660   0.368E-03    0.580E-03
RMM:  10    -0.413164788579E+03   -0.43320E-05   -0.15663E-06  2560   0.193E-03    0.382E-03
RMM:  11    -0.413164794691E+03   -0.61120E-05   -0.16272E-06  2567   0.191E-03    0.169E-03
RMM:  12    -0.413164799627E+03   -0.49359E-05   -0.11603E-06  2502   0.159E-03    0.700E-04
RMM:  13    -0.413164799965E+03   -0.33811E-06   -0.33896E-07  2082   0.986E-04
    5 T=    61. E= -.41286672E+03 F= -.41316480E+03 E0= -.41314232E+03  EK= 0.29808E+00 SP= 0.00E+00 SK= 0.00E+00
       N       E                     dE             d eps       ncg     rms          rms(c)
RMM:   1    -0.413158628234E+03    0.61714E-02   -0.10539E+01  4250   0.692E-01    0.904E-01
RMM:   2    -0.413167104308E+03   -0.84761E-02   -0.12697E-01  4090   0.953E-02    0.639E-01
RMM:   3    -0.413165483538E+03    0.16208E-02   -0.86226E-03  4765   0.392E-02    0.140E-01
RMM:   4    -0.413187572615E+03   -0.22089E-01   -0.22395E-02  5156   0.125E-01    0.622E-01
RMM:   5    -0.413165120526E+03    0.22452E-01   -0.10968E-02  4825   0.103E-01    0.392E-02
RMM:   6    -0.413165264330E+03   -0.14380E-03   -0.18364E-03  5801   0.411E-02    0.250E-02
RMM:   7    -0.413165267160E+03   -0.28300E-05   -0.26956E-04  5755   0.150E-02    0.159E-02
RMM:   8    -0.413165263589E+03    0.35706E-05   -0.46625E-05  4911   0.709E-03    0.770E-03
RMM:   9    -0.413165262335E+03    0.12539E-05   -0.92293E-06  3528   0.353E-03    0.591E-03
RMM:  10    -0.413165262933E+03   -0.59789E-06   -0.13494E-06  2541   0.191E-03
    6 T=    61. E= -.41286689E+03 F= -.41316526E+03 E0= -.41314280E+03  EK= 0.29838E+00 SP= 0.00E+00 SK= 0.00E+00
       N       E                     dE             d eps       ncg     rms          rms(c)
RMM:   1    -0.413158397531E+03    0.68648E-02   -0.10484E+01  4256   0.694E-01    0.899E-01
RMM:   2    -0.413166750073E+03   -0.83525E-02   -0.12613E-01  4177   0.941E-02    0.632E-01
RMM:   3    -0.413167063409E+03   -0.31334E-03   -0.10015E-02  5090   0.568E-02    0.231E-01
RMM:   4    -0.413203155253E+03   -0.36092E-01   -0.45504E-02  5130   0.179E-01    0.806E-01
RMM:   5    -0.413164895940E+03    0.38259E-01   -0.17104E-02  4778   0.134E-01    0.552E-02
RMM:   6    -0.413165032406E+03   -0.13647E-03   -0.28414E-03  5655   0.528E-02    0.260E-02
RMM:   7    -0.413165051567E+03   -0.19161E-04   -0.39819E-04  6025   0.167E-02    0.170E-02
RMM:   8    -0.413165050424E+03    0.11429E-05   -0.63321E-05  5263   0.812E-03    0.787E-03
RMM:   9    -0.413165047015E+03    0.34091E-05   -0.11154E-05  3548   0.371E-03    0.391E-03
RMM:  10    -0.413165046981E+03    0.34532E-07   -0.25829E-06  2623   0.220E-03
    7 T=    61. E= -.41286662E+03 F= -.41316505E+03 E0= -.41314260E+03  EK= 0.29843E+00 SP= 0.00E+00 SK= 0.00E+00
       N       E                     dE             d eps       ncg     rms          rms(c)
RMM:   1    -0.413158711854E+03    0.63352E-02   -0.10486E+01  4264   0.706E-01    0.882E-01
RMM:   2    -0.413167796832E+03   -0.90850E-02   -0.12865E-01  4178   0.944E-02    0.640E-01
RMM:   3    -0.413167135222E+03    0.66161E-03   -0.95148E-03  5081   0.539E-02    0.207E-01
RMM:   4    -0.413209397223E+03   -0.42262E-01   -0.49777E-02  5141   0.186E-01    0.862E-01
RMM:   5    -0.413165357053E+03    0.44040E-01   -0.20186E-02  4799   0.144E-01    0.530E-02
RMM:   6    -0.413165549065E+03   -0.19201E-03   -0.32633E-03  5723   0.565E-02    0.256E-02
RMM:   7    -0.413165573603E+03   -0.24538E-04   -0.44231E-04  6011   0.177E-02    0.180E-02
RMM:   8    -0.413165577548E+03   -0.39447E-05   -0.70665E-05  5238   0.831E-03    0.887E-03
RMM:   9    -0.413165577970E+03   -0.42252E-06   -0.13286E-05  3759   0.400E-03    0.465E-03
RMM:  10    -0.413165581484E+03   -0.35133E-05   -0.28163E-06  2639   0.221E-03    0.318E-03
RMM:  11    -0.413165585006E+03   -0.35223E-05   -0.11990E-06  2517   0.168E-03    0.159E-03
RMM:  12    -0.413165588343E+03   -0.33372E-05   -0.10193E-06  2512   0.147E-03    0.407E-04
RMM:  13    -0.413165589530E+03   -0.11872E-05   -0.45688E-07  2104   0.105E-03    0.330E-04
RMM:  14    -0.413165589742E+03   -0.21141E-06   -0.21942E-07  1589   0.792E-04
    8 T=    61. E= -.41286687E+03 F= -.41316559E+03 E0= -.41314316E+03  EK= 0.29872E+00 SP= 0.00E+00 SK= 0.00E+00
       N       E                     dE             d eps       ncg     rms          rms(c)
RMM:   1    -0.413159015688E+03    0.65738E-02   -0.10540E+01  4280   0.707E-01    0.899E-01
RMM:   2    -0.413167825355E+03   -0.88097E-02   -0.12778E-01  4166   0.966E-02    0.642E-01
RMM:   3    -0.413166131712E+03    0.16936E-02   -0.87437E-03  4896   0.413E-02    0.146E-01
RMM:   4    -0.413196816050E+03   -0.30684E-01   -0.31702E-02  5148   0.148E-01    0.730E-01
RMM:   5    -0.413165568094E+03    0.31248E-01   -0.15190E-02  4811   0.122E-01    0.437E-02
RMM:   6    -0.413165762398E+03   -0.19430E-03   -0.25270E-03  5760   0.484E-02    0.267E-02
RMM:   7    -0.413165770673E+03   -0.82746E-05   -0.35594E-04  5822   0.163E-02    0.174E-02
RMM:   8    -0.413165768776E+03    0.18967E-05   -0.53669E-05  5033   0.743E-03    0.834E-03
RMM:   9    -0.413165767328E+03    0.14476E-05   -0.11547E-05  3719   0.378E-03    0.597E-03
RMM:  10    -0.413165768155E+03   -0.82624E-06   -0.16959E-06  2561   0.198E-03
    9 T=    61. E= -.41286679E+03 F= -.41316577E+03 E0= -.41314336E+03  EK= 0.29898E+00 SP= 0.00E+00 SK= 0.00E+00
       N       E                     dE             d eps       ncg     rms          rms(c)
RMM:   1    -0.413160536611E+03    0.52307E-02   -0.10532E+01  4296   0.724E-01    0.906E-01
RMM:   2    -0.413167495276E+03   -0.69587E-02   -0.12555E-01  4255   0.962E-02    0.634E-01
RMM:   3    -0.413168487256E+03   -0.99198E-03   -0.10699E-02  5089   0.633E-02    0.255E-01
RMM:   4    -0.413199928500E+03   -0.31441E-01   -0.43283E-02  5122   0.175E-01    0.764E-01
RMM:   5    -0.413165727097E+03    0.34201E-01   -0.14982E-02  4750   0.127E-01    0.546E-02
RMM:   6    -0.413165843008E+03   -0.11591E-03   -0.25210E-03  5619   0.498E-02    0.260E-02
RMM:   7    -0.413165857032E+03   -0.14024E-04   -0.36429E-04  6008   0.162E-02    0.168E-02
RMM:   8    -0.413165853487E+03    0.35444E-05   -0.60791E-05  5252   0.809E-03    0.769E-03
RMM:   9    -0.413165848501E+03    0.49860E-05   -0.10191E-05  3456   0.365E-03    0.369E-03
RMM:  10    -0.413165847309E+03    0.11923E-05   -0.23194E-06  2587   0.216E-03    0.257E-03
RMM:  11    -0.413165845518E+03    0.17911E-05   -0.11803E-06  2516   0.170E-03    0.133E-03
RMM:  12    -0.413165843648E+03    0.18700E-05   -0.71425E-07  2448   0.133E-03    0.418E-04
RMM:  13    -0.413165842749E+03    0.89836E-06   -0.34393E-07  1958   0.948E-04
   10 T=    61. E= -.41286661E+03 F= -.41316584E+03 E0= -.41314346E+03  EK= 0.29924E+00 SP= 0.00E+00 SK= 0.00E+00
       N       E                     dE             d eps       ncg     rms          rms(c)
RMM:   1    -0.413159571471E+03    0.62722E-02   -0.10473E+01  4285   0.714E-01    0.883E-01
RMM:   2    -0.413168683161E+03   -0.91117E-02   -0.12774E-01  4229   0.954E-02    0.637E-01
RMM:   3    -0.413166987364E+03    0.16958E-02   -0.85113E-03  4867   0.431E-02    0.145E-01
RMM:   4    -0.413198154475E+03   -0.31167E-01   -0.32239E-02  5141   0.149E-01    0.736E-01
RMM:   5    -0.413166393699E+03    0.31761E-01   -0.15435E-02  4802   0.123E-01    0.432E-02
RMM:   6    -0.413166587905E+03   -0.19421E-03   -0.25442E-03  5769   0.486E-02    0.263E-02
RMM:   7    -0.413166596556E+03   -0.86510E-05   -0.35175E-04  5823   0.164E-02    0.173E-02
RMM:   8    -0.413166595244E+03    0.13113E-05   -0.56678E-05  5027   0.760E-03    0.858E-03
RMM:   9    -0.413166593911E+03    0.13334E-05   -0.12034E-05  3790   0.390E-03    0.609E-03
RMM:  10    -0.413166595241E+03   -0.13299E-05   -0.18092E-06  2570   0.202E-03    0.399E-03
RMM:  11    -0.413166597170E+03   -0.19290E-05   -0.17453E-06  2568   0.201E-03    0.173E-03
RMM:  12    -0.413166598515E+03   -0.13453E-05   -0.11692E-06  2497   0.164E-03    0.711E-04
RMM:  13    -0.413166598590E+03   -0.75011E-07   -0.35559E-07  2130   0.103E-03
   11 T=    61. E= -.41286692E+03 F= -.41316660E+03 E0= -.41314424E+03  EK= 0.29968E+00 SP= 0.00E+00 SK= 0.00E+00
       N       E                     dE             d eps       ncg     rms          rms(c)
RMM:   1    -0.413160011254E+03    0.65873E-02   -0.10552E+01  4295   0.731E-01    0.894E-01
RMM:   2    -0.413168666685E+03   -0.86554E-02   -0.12947E-01  4234   0.979E-02    0.645E-01
RMM:   3    -0.413166780894E+03    0.18858E-02   -0.86449E-03  4819   0.410E-02    0.140E-01
RMM:   4    -0.413193312301E+03   -0.26531E-01   -0.27231E-02  5149   0.137E-01    0.680E-01
RMM:   5    -0.413166350844E+03    0.26961E-01   -0.13195E-02  4808   0.113E-01    0.407E-02
RMM:   6    -0.413166521981E+03   -0.17114E-03   -0.21851E-03  5807   0.447E-02    0.252E-02
RMM:   7    -0.413166529777E+03   -0.77958E-05   -0.29972E-04  5788   0.155E-02    0.164E-02
RMM:   8    -0.413166528020E+03    0.17564E-05   -0.53760E-05  4979   0.745E-03    0.832E-03
RMM:   9    -0.413166526535E+03    0.14855E-05   -0.10938E-05  3742   0.381E-03    0.610E-03
RMM:  10    -0.413166527723E+03   -0.11881E-05   -0.15834E-06  2555   0.197E-03    0.399E-03
RMM:  11    -0.413166529378E+03   -0.16547E-05   -0.17595E-06  2569   0.203E-03    0.175E-03
RMM:  12    -0.413166530365E+03   -0.98721E-06   -0.10820E-06  2486   0.160E-03
   12 T=    61. E= -.41286662E+03 F= -.41316653E+03 E0= -.41314420E+03  EK= 0.29991E+00 SP= 0.00E+00 SK= 0.00E+00
       N       E                     dE             d eps       ncg     rms          rms(c)
RMM:   1    -0.413160788681E+03    0.57407E-02   -0.10555E+01  4297   0.726E-01    0.911E-01
RMM:   2    -0.413168642151E+03   -0.78535E-02   -0.12650E-01  4230   0.934E-02    0.636E-01
RMM:   3    -0.413167331203E+03    0.13109E-02   -0.88132E-03  4847   0.379E-02    0.146E-01
RMM:   4    -0.413191944001E+03   -0.24613E-01   -0.25223E-02  5146   0.132E-01    0.656E-01
RMM:   5    -0.413166930875E+03    0.25013E-01   -0.12278E-02  4812   0.109E-01    0.411E-02
RMM:   6    -0.413167085351E+03   -0.15448E-03   -0.20447E-03  5811   0.431E-02    0.254E-02
RMM:   7    -0.413167086261E+03   -0.90970E-06   -0.27376E-04  5802   0.153E-02    0.158E-02
RMM:   8    -0.413167079487E+03    0.67743E-05   -0.55384E-05  4971   0.753E-03    0.858E-03
RMM:   9    -0.413167074301E+03    0.51857E-05   -0.10874E-05  3803   0.383E-03    0.643E-03
RMM:  10    -0.413167071624E+03    0.26770E-05   -0.15253E-06  2551   0.200E-03    0.415E-03
RMM:  11    -0.413167067977E+03    0.36468E-05   -0.16419E-06  2550   0.199E-03    0.194E-03
RMM:  12    -0.413167064154E+03    0.38232E-05   -0.11172E-06  2493   0.164E-03    0.696E-04
RMM:  13    -0.413167063560E+03    0.59406E-06   -0.36019E-07  2135   0.103E-03
   13 T=    61. E= -.41286666E+03 F= -.41316706E+03 E0= -.41314476E+03  EK= 0.30040E+00 SP= 0.00E+00 SK= 0.00E+00
       N       E                     dE             d eps       ncg     rms          rms(c)
RMM:   1    -0.413160837222E+03    0.62269E-02   -0.10477E+01  4299   0.723E-01    0.886E-01
RMM:   2    -0.413169729558E+03   -0.88923E-02   -0.12761E-01  4232   0.933E-02    0.636E-01
RMM:   3    -0.413168031952E+03    0.16976E-02   -0.84830E-03  4827   0.391E-02    0.141E-01
RMM:   4    -0.413193714672E+03   -0.25683E-01   -0.26394E-02  5143   0.135E-01    0.669E-01
RMM:   5    -0.413167598197E+03    0.26116E-01   -0.12807E-02  4811   0.111E-01    0.406E-02
RMM:   6    -0.413167761422E+03   -0.16323E-03   -0.21244E-03  5810   0.439E-02    0.252E-02
RMM:   7    -0.413167765824E+03   -0.44021E-05   -0.29013E-04  5766   0.155E-02    0.162E-02
RMM:   8    -0.413167761704E+03    0.41199E-05   -0.54067E-05  4972   0.749E-03    0.829E-03
RMM:   9    -0.413167758832E+03    0.28722E-05   -0.11065E-05  3749   0.382E-03    0.618E-03
RMM:  10    -0.413167758521E+03    0.31064E-06   -0.15495E-06  2547   0.197E-03
   14 T=    61. E= -.41286679E+03 F= -.41316776E+03 E0= -.41314549E+03  EK= 0.30097E+00 SP= 0.00E+00 SK= 0.00E+00
       N       E                     dE             d eps       ncg     rms          rms(c)
RMM:   1    -0.413161111286E+03    0.66475E-02   -0.10566E+01  4305   0.737E-01    0.891E-01
RMM:   2    -0.413170199754E+03   -0.90885E-02   -0.12984E-01  4279   0.978E-02    0.647E-01
RMM:   3    -0.413170276317E+03   -0.76563E-04   -0.10450E-02  5089   0.605E-02    0.243E-01
RMM:   4    -0.413208181392E+03   -0.37905E-01   -0.49508E-02  5119   0.186E-01    0.828E-01
RMM:   5    -0.413167625298E+03    0.40556E-01   -0.18052E-02  4766   0.137E-01    0.548E-02
RMM:   6    -0.413167772061E+03   -0.14676E-03   -0.29457E-03  5656   0.537E-02    0.250E-02
RMM:   7    -0.413167794353E+03   -0.22292E-04   -0.40586E-04  6010   0.169E-02    0.170E-02
RMM:   8    -0.413167796181E+03   -0.18279E-05   -0.65853E-05  5253   0.822E-03    0.806E-03
RMM:   9    -0.413167794394E+03    0.17875E-05   -0.12142E-05  3611   0.384E-03    0.379E-03
RMM:  10    -0.413167795802E+03   -0.14082E-05   -0.27254E-06  2624   0.222E-03    0.267E-03
RMM:  11    -0.413167796987E+03   -0.11855E-05   -0.11801E-06  2512   0.168E-03    0.137E-03
RMM:  12    -0.413167797648E+03   -0.66092E-06   -0.77443E-07  2441   0.134E-03
   15 T=    61. E= -.41286648E+03 F= -.41316780E+03 E0= -.41314556E+03  EK= 0.30132E+00 SP= 0.00E+00 SK= 0.00E+00
       N       E                     dE             d eps       ncg     rms          rms(c)
RMM:   1    -0.413162506504E+03    0.52905E-02   -0.10586E+01  4298   0.734E-01    0.913E-01
RMM:   2    -0.413170636834E+03   -0.81303E-02   -0.12732E-01  4256   0.980E-02    0.640E-01
RMM:   3    -0.413169295419E+03    0.13414E-02   -0.90500E-03  4924   0.433E-02    0.158E-01
RMM:   4    -0.413203897810E+03   -0.34602E-01   -0.36152E-02  5136   0.158E-01    0.774E-01
RMM:   5    -0.413168623996E+03    0.35274E-01   -0.17137E-02  4799   0.129E-01    0.463E-02
RMM:   6    -0.413168830020E+03   -0.20602E-03   -0.28852E-03  5778   0.515E-02    0.284E-02
RMM:   7    -0.413168832375E+03   -0.23548E-05   -0.38820E-04  5829   0.174E-02    0.187E-02
RMM:   8    -0.413168824650E+03    0.77252E-05   -0.64590E-05  5066   0.812E-03    0.954E-03
RMM:   9    -0.413168818086E+03    0.65643E-05   -0.13465E-05  3946   0.411E-03    0.670E-03
RMM:  10    -0.413168814449E+03    0.36364E-05   -0.20639E-06  2586   0.213E-03    0.433E-03
RMM:  11    -0.413168810330E+03    0.41193E-05   -0.16092E-06  2539   0.197E-03    0.204E-03
RMM:  12    -0.413168805392E+03    0.49384E-05   -0.13436E-06  2518   0.180E-03    0.735E-04
RMM:  13    -0.413168804558E+03    0.83393E-06   -0.41642E-07  2242   0.113E-03
   16 T=    61. E= -.41286678E+03 F= -.41316880E+03 E0= -.41314661E+03  EK= 0.30203E+00 SP= 0.00E+00 SK= 0.00E+00
       N       E                     dE             d eps       ncg     rms          rms(c)
RMM:   1    -0.413162554866E+03    0.62505E-02   -0.10506E+01  4298   0.738E-01    0.893E-01
RMM:   2    -0.413171285040E+03   -0.87302E-02   -0.12772E-01  4263   0.964E-02    0.636E-01
RMM:   3    -0.413169566346E+03    0.17187E-02   -0.85937E-03  4867   0.416E-02    0.149E-01
RMM:   4    -0.413199605034E+03   -0.30039E-01   -0.31058E-02  5140   0.146E-01    0.722E-01
RMM:   5    -0.413169067317E+03    0.30538E-01   -0.14976E-02  4801   0.120E-01    0.431E-02
RMM:   6    -0.413169250069E+03   -0.18275E-03   -0.24932E-03  5801   0.477E-02    0.265E-02
RMM:   7    -0.413169254531E+03   -0.44619E-05   -0.32943E-04  5797   0.163E-02    0.171E-02
RMM:   8    -0.413169248868E+03    0.56622E-05   -0.60877E-05  5029   0.783E-03    0.905E-03
RMM:   9    -0.413169243732E+03    0.51359E-05   -0.12688E-05  3930   0.404E-03    0.654E-03
RMM:  10    -0.413169241521E+03    0.22114E-05   -0.17886E-06  2562   0.205E-03    0.426E-03
RMM:  11    -0.413169238581E+03    0.29403E-05   -0.17793E-06  2559   0.206E-03    0.194E-03
RMM:  12    -0.413169235438E+03    0.31425E-05   -0.11699E-06  2496   0.171E-03    0.685E-04
RMM:  13    -0.413169234947E+03    0.49081E-06   -0.37320E-07  2174   0.106E-03
   17 T=    62. E= -.41286666E+03 F= -.41316923E+03 E0= -.41314708E+03  EK= 0.30257E+00 SP= 0.00E+00 SK= 0.00E+00
       N       E                     dE             d eps       ncg     rms          rms(c)
RMM:   1    -0.413162958752E+03    0.62767E-02   -0.10579E+01  4297   0.752E-01    0.889E-01
RMM:   2    -0.413172104425E+03   -0.91457E-02   -0.13044E-01  4272   0.992E-02    0.648E-01
RMM:   3    -0.413170095117E+03    0.20093E-02   -0.88106E-03  4851   0.434E-02    0.143E-01
RMM:   4    -0.413201236544E+03   -0.31141E-01   -0.32362E-02  5141   0.149E-01    0.735E-01
RMM:   5    -0.413169509811E+03    0.31727E-01   -0.15515E-02  4794   0.123E-01    0.431E-02
RMM:   6    -0.413169700049E+03   -0.19024E-03   -0.25880E-03  5796   0.487E-02    0.260E-02
RMM:   7    -0.413169709178E+03   -0.91293E-05   -0.33816E-04  5806   0.164E-02    0.171E-02
RMM:   8    -0.413169706904E+03    0.22745E-05   -0.61220E-05  5044   0.784E-03    0.900E-03
RMM:   9    -0.413169703997E+03    0.29064E-05   -0.12852E-05  3931   0.407E-03    0.637E-03
RMM:  10    -0.413169704194E+03   -0.19697E-06   -0.19002E-06  2572   0.206E-03
   18 T=    62. E= -.41286657E+03 F= -.41316970E+03 E0= -.41314759E+03  EK= 0.30313E+00 SP= 0.00E+00 SK= 0.00E+00
       N       E                     dE             d eps       ncg     rms          rms(c)
RMM:   1    -0.413164521551E+03    0.51824E-02   -0.10615E+01  4304   0.748E-01    0.912E-01
RMM:   2    -0.413172768398E+03   -0.82468E-02   -0.12859E-01  4308   0.979E-02    0.644E-01
RMM:   3    -0.413174271443E+03   -0.15030E-02   -0.11384E-02  5093   0.676E-02    0.278E-01
RMM:   4    -0.413203766061E+03   -0.29495E-01   -0.44025E-02  5103   0.176E-01    0.750E-01
RMM:   5    -0.413170831718E+03    0.32934E-01   -0.14188E-02  4733   0.124E-01    0.542E-02
RMM:   6    -0.413170930215E+03   -0.98497E-04   -0.24128E-03  5602   0.486E-02    0.262E-02
RMM:   7    -0.413170939375E+03   -0.91600E-05   -0.34916E-04  6003   0.161E-02    0.169E-02
RMM:   8    -0.413170933607E+03    0.57677E-05   -0.60494E-05  5221   0.811E-03    0.772E-03
RMM:   9    -0.413170926467E+03    0.71402E-05   -0.10261E-05  3476   0.370E-03    0.360E-03
RMM:  10    -0.413170923872E+03    0.25955E-05   -0.22360E-06  2576   0.214E-03    0.249E-03
RMM:  11    -0.413170919935E+03    0.39365E-05   -0.11490E-06  2516   0.169E-03    0.133E-03
RMM:  12    -0.413170916313E+03    0.36218E-05   -0.63235E-07  2422   0.129E-03    0.427E-04
RMM:  13    -0.413170914481E+03    0.18321E-05   -0.30954E-07  1929   0.929E-04    0.260E-04
RMM:  14    -0.413170912890E+03    0.15910E-05   -0.18683E-07  1481   0.771E-04    0.178E-04
RMM:  15    -0.413170910061E+03    0.28293E-05   -0.17806E-07  1422   0.742E-04    0.907E-05
RMM:  16    -0.413170908022E+03    0.20383E-05   -0.12536E-07  1365   0.681E-04    0.892E-05
RMM:  17    -0.413170905269E+03    0.27533E-05   -0.12270E-07  1400   0.661E-04    0.444E-05
RMM:  18    -0.413170903837E+03    0.14321E-05   -0.67674E-08  1046   0.570E-04    0.302E-05
RMM:  19    -0.413170903341E+03    0.49569E-06   -0.33280E-08   824   0.528E-04
   19 T=    62. E= -.41286690E+03 F= -.41317090E+03 E0= -.41314883E+03  EK= 0.30401E+00 SP= 0.00E+00 SK= 0.00E+00
       N       E                     dE             d eps       ncg     rms          rms(c)
RMM:   1    -0.413164767884E+03    0.61360E-02   -0.10555E+01  4298   0.746E-01    0.902E-01
RMM:   2    -0.413173134328E+03   -0.83664E-02   -0.12789E-01  4268   0.982E-02    0.637E-01
RMM:   3    -0.413171903211E+03    0.12311E-02   -0.89376E-03  4946   0.443E-02    0.164E-01
RMM:   4    -0.413209642726E+03   -0.37740E-01   -0.40112E-02  5146   0.166E-01    0.808E-01
RMM:   5    -0.413171106174E+03    0.38537E-01   -0.18788E-02  4791   0.135E-01    0.480E-02
RMM:   6    -0.413171319684E+03   -0.21351E-03   -0.30958E-03  5758   0.538E-02    0.288E-02
RMM:   7    -0.413171323322E+03   -0.36378E-05   -0.42097E-04  5804   0.179E-02    0.191E-02
RMM:   8    -0.413171315702E+03    0.76201E-05   -0.68064E-05  5159   0.829E-03    0.964E-03
RMM:   9    -0.413171308751E+03    0.69502E-05   -0.14628E-05  4063   0.423E-03    0.648E-03
RMM:  10    -0.413171305093E+03    0.36588E-05   -0.21838E-06  2597   0.214E-03    0.422E-03
RMM:  11    -0.413171301294E+03    0.37984E-05   -0.13873E-06  2516   0.187E-03    0.206E-03
RMM:  12    -0.413171296659E+03    0.46355E-05   -0.12710E-06  2517   0.177E-03    0.690E-04
RMM:  13    -0.413171295610E+03    0.10490E-05   -0.41880E-07  2262   0.115E-03    0.500E-04
RMM:  14    -0.413171295459E+03    0.15101E-06   -0.19637E-07  1747   0.798E-04
   20 T=    62. E= -.41286657E+03 F= -.41317130E+03 E0= -.41314926E+03  EK= 0.30472E+00 SP= 0.00E+00 SK= 0.00E+00
       N       E                     dE             d eps       ncg     rms          rms(c)
RMM:   1    -0.413165804099E+03    0.54915E-02   -0.10602E+01  4296   0.768E-01    0.889E-01
RMM:   2    -0.413174847869E+03   -0.90438E-02   -0.13121E-01  4279   0.981E-02    0.648E-01
RMM:   3    -0.413172769660E+03    0.20782E-02   -0.88451E-03  4880   0.419E-02    0.142E-01
RMM:   4    -0.413203115641E+03   -0.30346E-01   -0.31551E-02  5137   0.147E-01    0.726E-01
RMM:   5    -0.413172225405E+03    0.30890E-01   -0.15224E-02  4801   0.121E-01    0.430E-02
RMM:   6    -0.413172405405E+03   -0.18000E-03   -0.24709E-03  5792   0.479E-02    0.264E-02
RMM:   7    -0.413172412249E+03   -0.68437E-05   -0.33875E-04  5768   0.163E-02    0.172E-02
RMM:   8    -0.413172408811E+03    0.34380E-05   -0.58908E-05  5029   0.779E-03    0.870E-03
RMM:   9    -0.413172405253E+03    0.35578E-05   -0.12480E-05  3849   0.399E-03    0.617E-03
RMM:  10    -0.413172404674E+03    0.57891E-06   -0.17709E-06  2561   0.201E-03
   21 T=    62. E= -.41286672E+03 F= -.41317240E+03 E0= -.41315042E+03  EK= 0.30569E+00 SP= 0.00E+00 SK= 0.00E+00
       N       E                     dE             d eps       ncg     rms          rms(c)
RMM:   1    -0.413167019842E+03    0.53854E-02   -0.10659E+01  4301   0.759E-01    0.910E-01
RMM:   2    -0.413175594479E+03   -0.85746E-02   -0.13001E-01  4296   0.975E-02    0.648E-01
RMM:   3    -0.413176137520E+03   -0.54304E-03   -0.10877E-02  5087   0.626E-02    0.254E-01
RMM:   4    -0.413211453363E+03   -0.35316E-01   -0.47834E-02  5111   0.183E-01    0.803E-01
RMM:   5    -0.413173324103E+03    0.38129E-01   -0.16913E-02  4751   0.134E-01    0.546E-02
RMM:   6    -0.413173456309E+03   -0.13221E-03   -0.28197E-03  5648   0.525E-02    0.266E-02
RMM:   7    -0.413173466800E+03   -0.10491E-04   -0.39662E-04  6001   0.170E-02    0.178E-02
RMM:   8    -0.413173461644E+03    0.51563E-05   -0.66456E-05  5220   0.839E-03    0.829E-03
RMM:   9    -0.413173454338E+03    0.73058E-05   -0.12061E-05  3664   0.391E-03    0.397E-03
RMM:  10    -0.413173451512E+03    0.28257E-05   -0.25535E-06  2607   0.220E-03    0.277E-03
RMM:  11    -0.413173447791E+03    0.37208E-05   -0.10700E-06  2500   0.166E-03    0.141E-03
RMM:  12    -0.413173443727E+03    0.40646E-05   -0.67171E-07  2432   0.133E-03    0.390E-04
RMM:  13    -0.413173441723E+03    0.20038E-05   -0.33188E-07  2007   0.959E-04    0.257E-04
RMM:  14    -0.413173440328E+03    0.13948E-05   -0.18576E-07  1504   0.764E-04    0.167E-04
RMM:  15    -0.413173437553E+03    0.27755E-05   -0.15392E-07  1317   0.722E-04    0.892E-05
RMM:  16    -0.413173435440E+03    0.21128E-05   -0.11546E-07  1333   0.683E-04    0.971E-05
RMM:  17    -0.413173433428E+03    0.20118E-05   -0.90025E-08  1269   0.640E-04    0.608E-05
RMM:  18    -0.413173431198E+03    0.22302E-05   -0.74986E-08  1172   0.608E-04    0.308E-05
RMM:  19    -0.413173430591E+03    0.60641E-06   -0.31642E-08   829   0.538E-04
   22 T=    62. E= -.41286680E+03 F= -.41317343E+03 E0= -.41315149E+03  EK= 0.30663E+00 SP= 0.00E+00 SK= 0.00E+00
       N       E                     dE             d eps       ncg     rms          rms(c)
RMM:   1    -0.413167699697E+03    0.57315E-02   -0.10632E+01  4295   0.762E-01    0.911E-01
RMM:   2    -0.413176109988E+03   -0.84103E-02   -0.12897E-01  4277   0.102E-01    0.641E-01
RMM:   3    -0.413174600190E+03    0.15098E-02   -0.91135E-03  4876   0.458E-02    0.158E-01
RMM:   4    -0.413208900200E+03   -0.34300E-01   -0.35883E-02  5146   0.157E-01    0.771E-01
RMM:   5    -0.413173959494E+03    0.34941E-01   -0.17230E-02  4796   0.129E-01    0.462E-02
RMM:   6    -0.413174151986E+03   -0.19249E-03   -0.28492E-03  5796   0.511E-02    0.288E-02
RMM:   7    -0.413174152563E+03   -0.57710E-06   -0.37379E-04  5764   0.175E-02    0.183E-02
RMM:   8    -0.413174144057E+03    0.85058E-05   -0.68638E-05  5104   0.833E-03    0.985E-03
RMM:   9    -0.413174135815E+03    0.82415E-05   -0.14355E-05  4084   0.428E-03    0.686E-03
RMM:  10    -0.413174131014E+03    0.48019E-05   -0.20788E-06  2589   0.214E-03    0.445E-03
RMM:  11    -0.413174125577E+03    0.54365E-05   -0.15654E-06  2520   0.198E-03    0.213E-03
RMM:  12    -0.413174119237E+03    0.63398E-05   -0.12697E-06  2499   0.181E-03    0.715E-04
RMM:  13    -0.413174117932E+03    0.13052E-05   -0.41901E-07  2250   0.115E-03    0.494E-04
RMM:  14    -0.413174117642E+03    0.28969E-06   -0.19892E-07  1745   0.803E-04
   23 T=    63. E= -.41286656E+03 F= -.41317412E+03 E0= -.41315222E+03  EK= 0.30756E+00 SP= 0.00E+00 SK= 0.00E+00
       N       E                     dE             d eps       ncg     rms          rms(c)
RMM:   1    -0.413169040526E+03    0.50774E-02   -0.10635E+01  4298   0.778E-01    0.892E-01
RMM:   2    -0.413178225192E+03   -0.91847E-02   -0.13166E-01  4278   0.102E-01    0.648E-01
RMM:   3    -0.413175924976E+03    0.23002E-02   -0.88015E-03  4748   0.435E-02    0.138E-01
RMM:   4    -0.413200249090E+03   -0.24324E-01   -0.24922E-02  5141   0.131E-01    0.651E-01
RMM:   5    -0.413175583707E+03    0.24665E-01   -0.12275E-02  4803   0.108E-01    0.403E-02
RMM:   6    -0.413175720000E+03   -0.13629E-03   -0.20299E-03  5813   0.424E-02    0.252E-02
RMM:   7    -0.413175722852E+03   -0.28527E-05   -0.27001E-04  5736   0.152E-02    0.153E-02
RMM:   8    -0.413175718337E+03    0.45154E-05   -0.56044E-05  4977   0.761E-03    0.856E-03
RMM:   9    -0.413175713390E+03    0.49468E-05   -0.11439E-05  3876   0.394E-03    0.623E-03
RMM:  10    -0.413175711719E+03    0.16716E-05   -0.15161E-06  2543   0.197E-03    0.407E-03
RMM:  11    -0.413175709034E+03    0.26848E-05   -0.17804E-06  2552   0.210E-03    0.178E-03
RMM:  12    -0.413175706530E+03    0.25041E-05   -0.93927E-07  2456   0.157E-03    0.632E-04
RMM:  13    -0.413175706173E+03    0.35727E-06   -0.31447E-07  2062   0.969E-04
   24 T=    63. E= -.41286686E+03 F= -.41317571E+03 E0= -.41315386E+03  EK= 0.30884E+00 SP= 0.00E+00 SK= 0.00E+00
       N       E                     dE             d eps       ncg     rms          rms(c)
RMM:   1    -0.413171581826E+03    0.41247E-02   -0.10733E+01  4294   0.798E-01    0.907E-01
RMM:   2    -0.413179154839E+03   -0.75730E-02   -0.13191E-01  4274   0.105E-01    0.653E-01
RMM:   3    -0.413176901846E+03    0.22530E-02   -0.89828E-03  4681   0.446E-02    0.136E-01
RMM:   4    -0.413196359945E+03   -0.19458E-01   -0.19906E-02  5143   0.118E-01    0.584E-01
RMM:   5    -0.413176601528E+03    0.19758E-01   -0.98198E-03  4814   0.967E-02    0.384E-02
RMM:   6    -0.413176696789E+03   -0.95262E-04   -0.16144E-03  5820   0.374E-02    0.229E-02
RMM:   7    -0.413176696836E+03   -0.47086E-07   -0.17713E-04  5612   0.127E-02    0.105E-02
RMM:   8    -0.413176690985E+03    0.58512E-05   -0.28908E-05  4606   0.546E-03    0.681E-03
RMM:   9    -0.413176688141E+03    0.28438E-05   -0.35169E-06  2713   0.226E-03    0.457E-03
RMM:  10    -0.413176686235E+03    0.19063E-05   -0.97278E-07  2488   0.150E-03    0.327E-03
RMM:  11    -0.413176681624E+03    0.46107E-05   -0.16254E-06  2533   0.205E-03    0.156E-03
RMM:  12    -0.413176678900E+03    0.27238E-05   -0.66810E-07  2386   0.139E-03    0.753E-04
RMM:  13    -0.413176678426E+03    0.47452E-06   -0.24224E-07  1856   0.868E-04
   25 T=    63. E= -.41286673E+03 F= -.41317668E+03 E0= -.41315488E+03  EK= 0.30995E+00 SP= 0.00E+00 SK= 0.00E+00
       N       E                     dE             d eps       ncg     rms          rms(c)
RMM:   1    -0.413171850535E+03    0.48284E-02   -0.10731E+01  4295   0.787E-01    0.921E-01
RMM:   2    -0.413179873348E+03   -0.80228E-02   -0.13062E-01  4276   0.106E-01    0.646E-01
RMM:   3    -0.413178157919E+03    0.17154E-02   -0.91382E-03  4680   0.444E-02    0.145E-01
RMM:   4    -0.413198254318E+03   -0.20096E-01   -0.20446E-02  5149   0.119E-01    0.593E-01
RMM:   5    -0.413177933634E+03    0.20321E-01   -0.10225E-02  4820   0.981E-02    0.397E-02
RMM:   6    -0.413178018423E+03   -0.84789E-04   -0.15967E-03  5821   0.381E-02    0.238E-02
RMM:   7    -0.413178012311E+03    0.61120E-05   -0.18391E-04  5611   0.132E-02    0.110E-02
RMM:   8    -0.413178004672E+03    0.76390E-05   -0.31966E-05  4732   0.573E-03    0.735E-03
RMM:   9    -0.413177999081E+03    0.55912E-05   -0.69971E-06  3261   0.301E-03    0.563E-03
RMM:  10    -0.413177995747E+03    0.33338E-05   -0.13678E-06  2524   0.193E-03    0.379E-03
RMM:  11    -0.413177987384E+03    0.83631E-05   -0.17842E-06  2558   0.212E-03    0.175E-03
RMM:  12    -0.413177980222E+03    0.71623E-05   -0.93355E-07  2461   0.161E-03    0.948E-04
RMM:  13    -0.413177979745E+03    0.47658E-06   -0.26689E-07  2119   0.961E-04
   26 T=    63. E= -.41286669E+03 F= -.41317798E+03 E0= -.41315623E+03  EK= 0.31129E+00 SP= 0.00E+00 SK= 0.00E+00
       N       E                     dE             d eps       ncg     rms          rms(c)
RMM:   1    -0.413175069059E+03    0.29112E-02   -0.10712E+01  4295   0.797E-01    0.898E-01
RMM:   2    -0.413181968520E+03   -0.68995E-02   -0.13254E-01  4277   0.103E-01    0.648E-01
RMM:   3    -0.413179917310E+03    0.20512E-02   -0.88964E-03  4618   0.429E-02    0.135E-01
RMM:   4    -0.413195028581E+03   -0.15111E-01   -0.15510E-02  5149   0.104E-01    0.516E-01
RMM:   5    -0.413179713046E+03    0.15316E-01   -0.77236E-03  4822   0.851E-02    0.364E-02
RMM:   6    -0.413179768320E+03   -0.55274E-04   -0.12285E-03  5841   0.328E-02    0.213E-02
RMM:   7    -0.413179765319E+03    0.30009E-05   -0.13800E-04  5538   0.115E-02    0.951E-03
RMM:   8    -0.413179759296E+03    0.60231E-05   -0.23971E-05  4487   0.506E-03    0.637E-03
RMM:   9    -0.413179757505E+03    0.17906E-05   -0.47494E-06  2916   0.265E-03    0.497E-03
RMM:  10    -0.413179755038E+03    0.24678E-05   -0.92252E-07  2493   0.167E-03    0.339E-03
RMM:  11    -0.413179749525E+03    0.55127E-05   -0.15221E-06  2521   0.200E-03    0.169E-03
RMM:  12    -0.413179746570E+03    0.29554E-05   -0.68302E-07  2389   0.138E-03    0.831E-04
RMM:  13    -0.413179745689E+03    0.88097E-06   -0.21620E-07  1843   0.842E-04
   27 T=    64. E= -.41286682E+03 F= -.41317975E+03 E0= -.41315805E+03  EK= 0.31293E+00 SP= 0.00E+00 SK= 0.00E+00
       N       E                     dE             d eps       ncg     rms          rms(c)
RMM:   1    -0.413183957134E+03   -0.42106E-02   -0.10905E+01  4294   0.872E-01    0.907E-01
RMM:   2    -0.413183342284E+03    0.61485E-03   -0.13713E-01  4272   0.109E-01    0.659E-01
RMM:   3    -0.413181056787E+03    0.22855E-02   -0.91780E-03  4599   0.442E-02    0.133E-01
RMM:   4    -0.413195484460E+03   -0.14428E-01   -0.14790E-02  5152   0.102E-01    0.504E-01
RMM:   5    -0.413180884085E+03    0.14600E-01   -0.73341E-03  4816   0.830E-02    0.361E-02
RMM:   6    -0.413180934537E+03   -0.50451E-04   -0.11631E-03  5854   0.320E-02    0.212E-02
RMM:   7    -0.413180934224E+03    0.31279E-06   -0.14233E-04  5575   0.118E-02    0.101E-02
RMM:   8    -0.413180927592E+03    0.66319E-05   -0.26751E-05  4648   0.541E-03    0.652E-03
RMM:   9    -0.413180926887E+03    0.70479E-06   -0.69070E-06  3346   0.310E-03
   28 T=    64. E= -.41286651E+03 F= -.41318093E+03 E0= -.41315928E+03  EK= 0.31441E+00 SP= 0.00E+00 SK= 0.00E+00
       N       E                     dE             d eps       ncg     rms          rms(c)
RMM:   1    -0.413176865859E+03    0.40617E-02   -0.10849E+01  4295   0.805E-01    0.929E-01
RMM:   2    -0.413184912490E+03   -0.80466E-02   -0.13296E-01  4318   0.105E-01    0.653E-01
RMM:   3    -0.413187568017E+03   -0.26555E-02   -0.13039E-02  5088   0.798E-02    0.319E-01
RMM:   4    -0.413211750779E+03   -0.24183E-01   -0.41531E-02  5078   0.173E-01    0.703E-01
RMM:   5    -0.413182934138E+03    0.28817E-01   -0.11774E-02  4710   0.116E-01    0.546E-02
RMM:   6    -0.413182984181E+03   -0.50043E-04   -0.21553E-03  5655   0.451E-02    0.278E-02
RMM:   7    -0.413182986198E+03   -0.20170E-05   -0.32046E-04  5973   0.162E-02    0.179E-02
RMM:   8    -0.413182977130E+03    0.90682E-05   -0.65504E-05  5139   0.866E-03    0.802E-03
RMM:   9    -0.413182966074E+03    0.11056E-04   -0.10644E-05  3654   0.397E-03    0.373E-03
RMM:  10    -0.413182961521E+03    0.45530E-05   -0.19462E-06  2566   0.209E-03    0.243E-03
RMM:  11    -0.413182953315E+03    0.82059E-05   -0.12356E-06  2518   0.175E-03    0.141E-03
RMM:  12    -0.413182947160E+03    0.61553E-05   -0.58144E-07  2431   0.130E-03    0.477E-04
RMM:  13    -0.413182943505E+03    0.36550E-05   -0.28334E-07  1871   0.907E-04    0.263E-04
RMM:  14    -0.413182940519E+03    0.29858E-05   -0.16531E-07  1414   0.748E-04    0.178E-04
RMM:  15    -0.413182934671E+03    0.58479E-05   -0.14969E-07  1435   0.735E-04    0.110E-04
RMM:  16    -0.413182930985E+03    0.36859E-05   -0.10930E-07  1369   0.670E-04    0.105E-04
RMM:  17    -0.413182926772E+03    0.42129E-05   -0.10033E-07  1373   0.643E-04    0.525E-05
RMM:  18    -0.413182924456E+03    0.23162E-05   -0.58691E-08  1028   0.572E-04    0.444E-05
RMM:  19    -0.413182923979E+03    0.47728E-06   -0.30038E-08   814   0.531E-04
   29 T=    64. E= -.41286673E+03 F= -.41318292E+03 E0= -.41316133E+03  EK= 0.31620E+00 SP= 0.00E+00 SK= 0.00E+00
       N       E                     dE             d eps       ncg     rms          rms(c)
RMM:   1    -0.413178107682E+03    0.48168E-02   -0.10797E+01  4286   0.809E-01    0.908E-01
RMM:   2    -0.413187151695E+03   -0.90440E-02   -0.13419E-01  4271   0.111E-01    0.651E-01
RMM:   3    -0.413184938564E+03    0.22131E-02   -0.92582E-03  4462   0.489E-02    0.135E-01
RMM:   4    -0.413194310061E+03   -0.93715E-02   -0.98161E-03  5155   0.836E-02    0.408E-01
RMM:   5    -0.413184833484E+03    0.94766E-02   -0.48175E-03  4828   0.671E-02    0.352E-02
RMM:   6    -0.413184858739E+03   -0.25254E-04   -0.80980E-04  5829   0.268E-02    0.225E-02
RMM:   7    -0.413184857037E+03    0.17018E-05   -0.19541E-04  5436   0.137E-02    0.142E-02
RMM:   8    -0.413184842499E+03    0.14538E-04   -0.23367E-05  4456   0.587E-03    0.593E-03
RMM:   9    -0.413184840134E+03    0.23651E-05   -0.45284E-06  2966   0.269E-03    0.442E-03
RMM:  10    -0.413184836581E+03    0.35530E-05   -0.11642E-06  2490   0.183E-03    0.252E-03
RMM:  11    -0.413184832515E+03    0.40653E-05   -0.77683E-07  2465   0.149E-03    0.123E-03
RMM:  12    -0.413184828845E+03    0.36705E-05   -0.45559E-07  2259   0.114E-03    0.555E-04
RMM:  13    -0.413184827394E+03    0.14514E-05   -0.19611E-07  1704   0.801E-04    0.248E-04
RMM:  14    -0.413184825466E+03    0.19277E-05   -0.11274E-07  1270   0.683E-04    0.153E-04
RMM:  15    -0.413184822237E+03    0.32289E-05   -0.90736E-08  1198   0.663E-04    0.774E-05
RMM:  16    -0.413184821303E+03    0.93421E-06   -0.46882E-08   955   0.602E-04
   30 T=    65. E= -.41286681E+03 F= -.41318482E+03 E0= -.41316327E+03  EK= 0.31802E+00 SP= 0.00E+00 SK= 0.00E+00
       N       E                     dE             d eps       ncg     rms          rms(c)
RMM:   1    -0.413183932151E+03    0.89009E-03   -0.10959E+01  4293   0.885E-01    0.909E-01
RMM:   2    -0.413189446867E+03   -0.55147E-02   -0.14292E-01  4280   0.123E-01    0.665E-01
RMM:   3    -0.413186399696E+03    0.30472E-02   -0.93479E-03  4346   0.497E-02    0.133E-01
RMM:   4    -0.413190279308E+03   -0.38796E-02   -0.45485E-03  5139   0.572E-02    0.262E-01
RMM:   5    -0.413186441302E+03    0.38380E-02   -0.19387E-03  4821   0.431E-02    0.324E-02
RMM:   6    -0.413186447746E+03   -0.64434E-05   -0.40588E-04  5733   0.197E-02    0.226E-02
RMM:   7    -0.413186438882E+03    0.88643E-05   -0.16536E-04  5188   0.125E-02    0.123E-02
RMM:   8    -0.413186431286E+03    0.75954E-05   -0.11958E-05  3838   0.456E-03    0.533E-03
RMM:   9    -0.413186430131E+03    0.11552E-05   -0.18209E-06  2554   0.198E-03    0.332E-03
RMM:  10    -0.413186427463E+03    0.26677E-05   -0.10457E-06  2482   0.161E-03    0.165E-03
RMM:  11    -0.413186425581E+03    0.18825E-05   -0.51485E-07  2301   0.116E-03    0.809E-04
RMM:  12    -0.413186423478E+03    0.21025E-05   -0.30908E-07  2021   0.923E-04    0.323E-04
RMM:  13    -0.413186422098E+03    0.13801E-05   -0.14844E-07  1322   0.706E-04    0.197E-04
RMM:  14    -0.413186420311E+03    0.17874E-05   -0.10161E-07  1116   0.657E-04    0.139E-04
RMM:  15    -0.413186417810E+03    0.25011E-05   -0.93529E-08  1191   0.657E-04    0.678E-05
RMM:  16    -0.413186416891E+03    0.91894E-06   -0.47849E-08   930   0.586E-04
   31 T=    65. E= -.41286657E+03 F= -.41318642E+03 E0= -.41316492E+03  EK= 0.31985E+00 SP= 0.00E+00 SK= 0.00E+00
       N       E                     dE             d eps       ncg     rms          rms(c)
RMM:   1    -0.413182904616E+03    0.35132E-02   -0.10982E+01  4291   0.841E-01    0.935E-01
RMM:   2    -0.413191305956E+03   -0.84013E-02   -0.13706E-01  4283   0.124E-01    0.661E-01
RMM:   3    -0.413189037018E+03    0.22689E-02   -0.97722E-03  4228   0.527E-02    0.137E-01
RMM:   4    -0.413189527344E+03   -0.49033E-03   -0.13836E-03  5025   0.293E-02    0.935E-02
RMM:   5    -0.413189086380E+03    0.44096E-03   -0.27383E-04  4771   0.168E-02    0.349E-02
RMM:   6    -0.413189082475E+03    0.39053E-05   -0.21477E-04  5327   0.148E-02    0.249E-02
RMM:   7    -0.413189051694E+03    0.30780E-04   -0.14423E-04  4798   0.117E-02    0.128E-02
RMM:   8    -0.413189048616E+03    0.30781E-05   -0.11758E-05  3608   0.409E-03    0.466E-03
RMM:   9    -0.413189047008E+03    0.16080E-05   -0.19763E-06  2445   0.195E-03    0.224E-03
RMM:  10    -0.413189038165E+03    0.88427E-05   -0.86212E-07  2374   0.143E-03    0.811E-04
RMM:  11    -0.413189033716E+03    0.44492E-05   -0.30435E-07  1902   0.896E-04    0.334E-04
RMM:  12    -0.413189030268E+03    0.34478E-05   -0.17100E-07  1621   0.753E-04    0.212E-04
RMM:  13    -0.413189026887E+03    0.33813E-05   -0.10107E-07  1253   0.661E-04    0.119E-04
RMM:  14    -0.413189021230E+03    0.56574E-05   -0.81394E-08  1108   0.644E-04    0.924E-05
RMM:  15    -0.413189018392E+03    0.28372E-05   -0.45602E-08   958   0.588E-04    0.673E-05
RMM:  16    -0.413189014740E+03    0.36520E-05   -0.51634E-08  1062   0.591E-04    0.480E-05
RMM:  17    -0.413189013761E+03    0.97931E-06   -0.17161E-08   656   0.510E-04
   32 T=    66. E= -.41286691E+03 F= -.41318901E+03 E0= -.41316756E+03  EK= 0.32210E+00 SP= 0.00E+00 SK= 0.00E+00
       N       E                     dE             d eps       ncg     rms          rms(c)
RMM:   1    -0.413184630373E+03    0.43844E-02   -0.10948E+01  4282   0.854E-01    0.921E-01
RMM:   2    -0.413193457542E+03   -0.88272E-02   -0.13805E-01  4282   0.128E-01    0.657E-01
RMM:   3    -0.413190907965E+03    0.25496E-02   -0.94733E-03  4285   0.476E-02    0.139E-01
RMM:   4    -0.413192871370E+03   -0.19634E-02   -0.27127E-03  5110   0.454E-02    0.186E-01
RMM:   5    -0.413190996106E+03    0.18753E-02   -0.94007E-04  4790   0.310E-02    0.338E-02
RMM:   6    -0.413190991911E+03    0.41950E-05   -0.29374E-04  5575   0.175E-02    0.245E-02
RMM:   7    -0.413190972718E+03    0.19193E-04   -0.16434E-04  5005   0.122E-02    0.132E-02
RMM:   8    -0.413190966246E+03    0.64726E-05   -0.12475E-05  3821   0.449E-03    0.541E-03
RMM:   9    -0.413190964482E+03    0.17638E-05   -0.20244E-06  2488   0.195E-03    0.277E-03
RMM:  10    -0.413190958366E+03    0.61158E-05   -0.84043E-07  2433   0.150E-03    0.137E-03
RMM:  11    -0.413190954548E+03    0.38181E-05   -0.38503E-07  2113   0.102E-03    0.719E-04
RMM:  12    -0.413190949834E+03    0.47143E-05   -0.24879E-07  1777   0.857E-04    0.252E-04
RMM:  13    -0.413190946856E+03    0.29778E-05   -0.11656E-07  1159   0.679E-04    0.160E-04
RMM:  14    -0.413190943114E+03    0.37415E-05   -0.85452E-08  1050   0.642E-04    0.131E-04
RMM:  15    -0.413190938482E+03    0.46322E-05   -0.80781E-08  1132   0.638E-04    0.645E-05
RMM:  16    -0.413190936957E+03    0.15252E-05   -0.41874E-08   827   0.564E-04    0.536E-05
RMM:  17    -0.413190934286E+03    0.26713E-05   -0.39679E-08   859   0.567E-04    0.263E-05
RMM:  18    -0.413190933423E+03    0.86254E-06   -0.19688E-08   630   0.524E-04
   33 T=    66. E= -.41286667E+03 F= -.41319093E+03 E0= -.41316953E+03  EK= 0.32427E+00 SP= 0.00E+00 SK= 0.00E+00
       N       E                     dE             d eps       ncg     rms          rms(c)
RMM:   1    -0.413197630620E+03   -0.66963E-02   -0.11157E+01  4297   0.978E-01    0.914E-01
RMM:   2    -0.413196120467E+03    0.15102E-02   -0.15185E-01  4281   0.137E-01    0.671E-01
RMM:   3    -0.413193449222E+03    0.26712E-02   -0.93765E-03  4261   0.545E-02    0.141E-01
RMM:   4    -0.413194946099E+03   -0.14969E-02   -0.24067E-03  5094   0.422E-02    0.163E-01
RMM:   5    -0.413193505782E+03    0.14403E-02   -0.72749E-04  4770   0.273E-02    0.329E-02
RMM:   6    -0.413193501820E+03    0.39616E-05   -0.24802E-04  5558   0.162E-02    0.235E-02
RMM:   7    -0.413193487913E+03    0.13907E-04   -0.15972E-04  4955   0.119E-02    0.135E-02
RMM:   8    -0.413193482330E+03    0.55829E-05   -0.11113E-05  3513   0.417E-03    0.516E-03
RMM:   9    -0.413193481491E+03    0.83855E-06   -0.19326E-06  2484   0.190E-03
   34 T=    67. E= -.41286673E+03 F= -.41319348E+03 E0= -.41317213E+03  EK= 0.32675E+00 SP= 0.00E+00 SK= 0.00E+00
       N       E                     dE             d eps       ncg     rms          rms(c)
RMM:   1    -0.413190328443E+03    0.31539E-02   -0.11145E+01  4303   0.893E-01    0.939E-01
RMM:   2    -0.413198669512E+03   -0.83411E-02   -0.14293E-01  4269   0.130E-01    0.670E-01
RMM:   3    -0.413196229005E+03    0.24405E-02   -0.97347E-03  4297   0.521E-02    0.139E-01
RMM:   4    -0.413196296275E+03   -0.67270E-04   -0.11450E-03  4810   0.224E-02    0.368E-02
RMM:   5    -0.413196355526E+03   -0.59251E-04   -0.16934E-04  5007   0.131E-02    0.505E-02
RMM:   6    -0.413196274490E+03    0.81036E-04   -0.14744E-04  5265   0.120E-02    0.289E-02
RMM:   7    -0.413196236767E+03    0.37724E-04   -0.16763E-04  4894   0.118E-02    0.126E-02
RMM:   8    -0.413196232867E+03    0.38996E-05   -0.11357E-05  3697   0.424E-03    0.491E-03
RMM:   9    -0.413196231257E+03    0.16100E-05   -0.23296E-06  2412   0.185E-03    0.184E-03
RMM:  10    -0.413196221860E+03    0.93971E-05   -0.67375E-07  2317   0.129E-03    0.800E-04
RMM:  11    -0.413196216635E+03    0.52254E-05   -0.20134E-07  1601   0.763E-04    0.387E-04
RMM:  12    -0.413196212487E+03    0.41478E-05   -0.10385E-07  1177   0.657E-04    0.204E-04
RMM:  13    -0.413196207104E+03    0.53828E-05   -0.97401E-08  1203   0.651E-04    0.136E-04
RMM:  14    -0.413196201502E+03    0.56020E-05   -0.68455E-08  1009   0.607E-04    0.120E-04
RMM:  15    -0.413196197781E+03    0.37212E-05   -0.42185E-08   835   0.567E-04    0.536E-05
RMM:  16    -0.413196193690E+03    0.40904E-05   -0.46296E-08   957   0.577E-04    0.462E-05
RMM:  17    -0.413196192820E+03    0.86996E-06   -0.12745E-08   554   0.491E-04
   35 T=    67. E= -.41286689E+03 F= -.41319619E+03 E0= -.41317488E+03  EK= 0.32930E+00 SP= 0.00E+00 SK= 0.00E+00
       N       E                     dE             d eps       ncg     rms          rms(c)
RMM:   1    -0.413193181134E+03    0.30126E-02   -0.11149E+01  4299   0.928E-01    0.938E-01
RMM:   2    -0.413200434461E+03   -0.72533E-02   -0.14393E-01  4261   0.131E-01    0.665E-01
RMM:   3    -0.413198399691E+03    0.20348E-02   -0.98761E-03  4636   0.537E-02    0.157E-01
RMM:   4    -0.413219715832E+03   -0.21316E-01   -0.21535E-02  5162   0.124E-01    0.612E-01
RMM:   5    -0.413198223066E+03    0.21493E-01   -0.10919E-02  4803   0.102E-01    0.424E-02
RMM:   6    -0.413198232126E+03   -0.90599E-05   -0.17527E-03  5847   0.402E-02    0.270E-02
RMM:   7    -0.413198238456E+03   -0.63299E-05   -0.27816E-04  5627   0.157E-02    0.160E-02
RMM:   8    -0.413198223836E+03    0.14620E-04   -0.51839E-05  4970   0.772E-03    0.820E-03
RMM:   9    -0.413198220258E+03    0.35779E-05   -0.11153E-05  3867   0.402E-03    0.575E-03
RMM:  10    -0.413198214164E+03    0.60941E-05   -0.15154E-06  2548   0.209E-03    0.338E-03
RMM:  11    -0.413198208948E+03    0.52163E-05   -0.93358E-07  2491   0.159E-03    0.189E-03
RMM:  12    -0.413198199981E+03    0.89670E-05   -0.10119E-06  2481   0.164E-03    0.881E-04
RMM:  13    -0.413198196448E+03    0.35331E-05   -0.37966E-07  2195   0.109E-03    0.510E-04
RMM:  14    -0.413198195640E+03    0.80821E-06   -0.16936E-07  1565   0.757E-04
   36 T=    68. E= -.41286654E+03 F= -.41319820E+03 E0= -.41317693E+03  EK= 0.33165E+00 SP= 0.00E+00 SK= 0.00E+00
       N       E                     dE             d eps       ncg     rms          rms(c)
RMM:   1    -0.413209583366E+03   -0.11387E-01   -0.11346E+01  4306   0.104E+00    0.921E-01
RMM:   2    -0.413204306159E+03    0.52772E-02   -0.16420E-01  4261   0.141E-01    0.677E-01
RMM:   3    -0.413201446349E+03    0.28598E-02   -0.92101E-03  4620   0.540E-02    0.169E-01
RMM:   4    -0.413221617187E+03   -0.20171E-01   -0.20640E-02  5161   0.121E-01    0.596E-01
RMM:   5    -0.413201259557E+03    0.20358E-01   -0.10271E-02  4801   0.990E-02    0.421E-02
RMM:   6    -0.413201271832E+03   -0.12275E-04   -0.17100E-03  5837   0.391E-02    0.270E-02
RMM:   7    -0.413201282060E+03   -0.10228E-04   -0.28340E-04  5630   0.155E-02    0.159E-02
RMM:   8    -0.413201268762E+03    0.13298E-04   -0.53513E-05  4989   0.787E-03    0.793E-03
RMM:   9    -0.413201266504E+03    0.22581E-05   -0.10643E-05  3790   0.399E-03    0.522E-03
RMM:  10    -0.413201262599E+03    0.39042E-05   -0.15219E-06  2554   0.203E-03    0.320E-03
RMM:  11    -0.413201258644E+03    0.39551E-05   -0.97288E-07  2495   0.159E-03    0.166E-03
RMM:  12    -0.413201252820E+03    0.58242E-05   -0.90295E-07  2445   0.150E-03    0.729E-04
RMM:  13    -0.413201250592E+03    0.22282E-05   -0.34501E-07  2111   0.101E-03    0.440E-04
RMM:  14    -0.413201249819E+03    0.77306E-06   -0.15987E-07  1444   0.733E-04
   37 T=    68. E= -.41286683E+03 F= -.41320125E+03 E0= -.41318003E+03  EK= 0.33442E+00 SP= 0.00E+00 SK= 0.00E+00
       N       E                     dE             d eps       ncg     rms          rms(c)
RMM:   1    -0.413212259133E+03   -0.11009E-01   -0.11461E+01  4308   0.107E+00    0.943E-01
RMM:   2    -0.413206822618E+03    0.54365E-02   -0.15327E-01  4260   0.131E-01    0.680E-01
RMM:   3    -0.413203887011E+03    0.29356E-02   -0.10102E-02  4743   0.543E-02    0.164E-01
RMM:   4    -0.413234799746E+03   -0.30913E-01   -0.31457E-02  5148   0.148E-01    0.733E-01
RMM:   5    -0.413203526839E+03    0.31273E-01   -0.15894E-02  4803   0.122E-01    0.463E-02
RMM:   6    -0.413203569940E+03   -0.43101E-04   -0.24791E-03  5839   0.474E-02    0.288E-02
RMM:   7    -0.413203580804E+03   -0.10864E-04   -0.33802E-04  5731   0.168E-02    0.166E-02
RMM:   8    -0.413203569443E+03    0.11360E-04   -0.64843E-05  5057   0.833E-03    0.955E-03
RMM:   9    -0.413203565958E+03    0.34849E-05   -0.16607E-05  4343   0.471E-03    0.615E-03
RMM:  10    -0.413203560502E+03    0.54561E-05   -0.22883E-06  2614   0.233E-03    0.374E-03
RMM:  11    -0.413203556449E+03    0.40536E-05   -0.11521E-06  2499   0.173E-03    0.218E-03
RMM:  12    -0.413203547988E+03    0.84604E-05   -0.12873E-06  2502   0.186E-03    0.979E-04
RMM:  13    -0.413203544279E+03    0.37096E-05   -0.47432E-07  2306   0.122E-03    0.648E-04
RMM:  14    -0.413203544019E+03    0.25997E-06   -0.20555E-07  1792   0.814E-04
   38 T=    69. E= -.41286662E+03 F= -.41320354E+03 E0= -.41318236E+03  EK= 0.33692E+00 SP= 0.00E+00 SK= 0.00E+00
       N       E                     dE             d eps       ncg     rms          rms(c)
RMM:   1    -0.413205028966E+03   -0.14847E-02   -0.11387E+01  4305   0.105E+00    0.955E-01
RMM:   2    -0.413208893873E+03   -0.38649E-02   -0.15075E-01  4262   0.124E-01    0.675E-01
RMM:   3    -0.413206812385E+03    0.20815E-02   -0.10534E-02  4945   0.547E-02    0.191E-01
RMM:   4    -0.413253068387E+03   -0.46256E-01   -0.49214E-02  5137   0.185E-01    0.892E-01
RMM:   5    -0.413205962568E+03    0.47106E-01   -0.23472E-02  4788   0.150E-01    0.540E-02
RMM:   6    -0.413206081628E+03   -0.11906E-03   -0.37620E-03  5826   0.578E-02    0.320E-02
RMM:   7    -0.413206091719E+03   -0.10091E-04   -0.42678E-04  5732   0.185E-02    0.172E-02
RMM:   8    -0.413206084029E+03    0.76901E-05   -0.58600E-05  4927   0.735E-03    0.933E-03
RMM:   9    -0.413206076499E+03    0.75307E-05   -0.19242E-05  4375   0.451E-03    0.676E-03
RMM:  10    -0.413206071627E+03    0.48713E-05   -0.48009E-06  2955   0.285E-03    0.411E-03
RMM:  11    -0.413206065370E+03    0.62577E-05   -0.16132E-06  2506   0.209E-03    0.242E-03
RMM:  12    -0.413206053299E+03    0.12071E-04   -0.14182E-06  2495   0.202E-03    0.861E-04
RMM:  13    -0.413206049154E+03    0.41442E-05   -0.49812E-07  2370   0.129E-03    0.682E-04
RMM:  14    -0.413206049006E+03    0.14837E-06   -0.22127E-07  1925   0.856E-04
   39 T=    69. E= -.41286663E+03 F= -.41320605E+03 E0= -.41318491E+03  EK= 0.33942E+00 SP= 0.00E+00 SK= 0.00E+00
       N       E                     dE             d eps       ncg     rms          rms(c)
RMM:   1    -0.413221504472E+03   -0.15455E-01   -0.11528E+01  4311   0.117E+00    0.934E-01
RMM:   2    -0.413212322858E+03    0.91816E-02   -0.15893E-01  4264   0.132E-01    0.680E-01
RMM:   3    -0.413209940587E+03    0.23823E-02   -0.10395E-02  4973   0.572E-02    0.203E-01
RMM:   4    -0.413261380191E+03   -0.51440E-01   -0.55991E-02  5133   0.197E-01    0.940E-01
RMM:   5    -0.413208773262E+03    0.52607E-01   -0.25943E-02  4783   0.158E-01    0.560E-02
RMM:   6    -0.413208921861E+03   -0.14860E-03   -0.41747E-03  5816   0.607E-02    0.321E-02
RMM:   7    -0.413208936062E+03   -0.14201E-04   -0.47024E-04  5802   0.192E-02    0.184E-02
RMM:   8    -0.413208935749E+03    0.31288E-06   -0.91580E-05  5206   0.909E-03    0.119E-02
RMM:   9    -0.413208925394E+03    0.10355E-04   -0.27152E-05  4669   0.562E-03    0.683E-03
RMM:  10    -0.413208920926E+03    0.44681E-05   -0.44043E-06  2801   0.292E-03    0.412E-03
RMM:  11    -0.413208916958E+03    0.39682E-05   -0.16717E-06  2508   0.212E-03    0.243E-03
RMM:  12    -0.413208909491E+03    0.74670E-05   -0.13490E-06  2503   0.195E-03    0.802E-04
RMM:  13    -0.413208905982E+03    0.35085E-05   -0.55791E-07  2372   0.132E-03    0.589E-04
RMM:  14    -0.413208904975E+03    0.10074E-05   -0.24652E-07  1958   0.889E-04    0.373E-04
RMM:  15    -0.413208902169E+03    0.28055E-05   -0.12993E-07  1371   0.713E-04    0.155E-04
RMM:  16    -0.413208898578E+03    0.35914E-05   -0.98033E-08  1277   0.675E-04    0.158E-04
RMM:  17    -0.413208896922E+03    0.16556E-05   -0.55658E-08   995   0.607E-04    0.102E-04
RMM:  18    -0.413208892889E+03    0.40337E-05   -0.68189E-08  1277   0.643E-04    0.126E-04
RMM:  19    -0.413208891215E+03    0.16737E-05   -0.36073E-08   968   0.566E-04    0.725E-05
RMM:  20    -0.413208890342E+03    0.87307E-06   -0.24458E-08   858   0.541E-04
   40 T=    70. E= -.41286687E+03 F= -.41320889E+03 E0= -.41318778E+03  EK= 0.34202E+00 SP= 0.00E+00 SK= 0.00E+00
       N       E                     dE             d eps       ncg     rms          rms(c)
RMM:   1    -0.413239445633E+03   -0.30554E-01   -0.11814E+01  4310   0.129E+00    0.944E-01
RMM:   2    -0.413214355041E+03    0.25091E-01   -0.18429E-01  4271   0.145E-01    0.693E-01
RMM:   3    -0.413212878955E+03    0.14761E-02   -0.10625E-02  5052   0.630E-02    0.266E-01
RMM:   4    -0.413269078852E+03   -0.56200E-01   -0.66047E-02  5124   0.214E-01    0.989E-01
RMM:   5    -0.413210694709E+03    0.58384E-01   -0.28124E-02  4771   0.167E-01    0.619E-02
RMM:   6    -0.413210858430E+03   -0.16372E-03   -0.45839E-03  5799   0.639E-02    0.332E-02
RMM:   7    -0.413210876317E+03   -0.17886E-04   -0.55768E-04  5878   0.206E-02    0.223E-02
RMM:   8    -0.413210876033E+03    0.28317E-06   -0.12284E-04  5283   0.108E-02    0.133E-02
RMM:   9    -0.413210863840E+03    0.12193E-04   -0.25228E-05  4582   0.586E-03    0.564E-03
RMM:  10    -0.413210860354E+03    0.34861E-05   -0.56674E-06  2953   0.293E-03    0.357E-03
RMM:  11    -0.413210857268E+03    0.30860E-05   -0.14433E-06  2504   0.197E-03    0.204E-03
RMM:  12    -0.413210852264E+03    0.50040E-05   -0.94006E-07  2474   0.165E-03    0.683E-04
RMM:  13    -0.413210849380E+03    0.28835E-05   -0.46103E-07  2302   0.117E-03    0.363E-04
RMM:  14    -0.413210847919E+03    0.14612E-05   -0.23428E-07  1832   0.855E-04    0.258E-04
RMM:  15    -0.413210845284E+03    0.26354E-05   -0.13828E-07  1357   0.715E-04    0.109E-04
RMM:  16    -0.413210843044E+03    0.22400E-05   -0.92091E-08  1156   0.660E-04    0.855E-05
RMM:  17    -0.413210841178E+03    0.18659E-05   -0.69137E-08  1127   0.637E-04    0.648E-05
RMM:  18    -0.413210839209E+03    0.19688E-05   -0.51307E-08  1041   0.614E-04    0.356E-05
RMM:  19    -0.413210837249E+03    0.19602E-05   -0.43010E-08  1057   0.604E-04    0.303E-05
RMM:  20    -0.413210836822E+03    0.42669E-06   -0.20647E-08   803   0.560E-04
   41 T=    70. E= -.41286661E+03 F= -.41321084E+03 E0= -.41318976E+03  EK= 0.34422E+00 SP= 0.00E+00 SK= 0.00E+00
       N       E                     dE             d eps       ncg     rms          rms(c)
RMM:   1    -0.413214545233E+03   -0.37080E-02   -0.11569E+01  4310   0.120E+00    0.968E-01
RMM:   2    -0.413216090133E+03   -0.15449E-02   -0.15643E-01  4287   0.137E-01    0.684E-01
RMM:   3    -0.413216998010E+03   -0.90788E-03   -0.13283E-02  5085   0.744E-02    0.302E-01
RMM:   4    -0.413253744815E+03   -0.36747E-01   -0.52679E-02  5092   0.193E-01    0.830E-01
RMM:   5    -0.413213297815E+03    0.40447E-01   -0.18092E-02  4740   0.138E-01    0.580E-02
RMM:   6    -0.413213364024E+03   -0.66209E-04   -0.31100E-03  5757   0.530E-02    0.324E-02
RMM:   7    -0.413213369742E+03   -0.57175E-05   -0.42433E-04  5795   0.186E-02    0.212E-02
RMM:   8    -0.413213365487E+03    0.42545E-05   -0.11294E-04  5199   0.107E-02    0.119E-02
RMM:   9    -0.413213351449E+03    0.14039E-04   -0.19821E-05  4427   0.549E-03    0.479E-03
RMM:  10    -0.413213346284E+03    0.51647E-05   -0.41420E-06  2818   0.260E-03    0.304E-03
RMM:  11    -0.413213340596E+03    0.56881E-05   -0.11923E-06  2494   0.183E-03    0.164E-03
RMM:  12    -0.413213332788E+03    0.78082E-05   -0.71344E-07  2445   0.147E-03    0.602E-04
RMM:  13    -0.413213328524E+03    0.42639E-05   -0.34974E-07  2126   0.103E-03    0.296E-04
RMM:  14    -0.413213325895E+03    0.26289E-05   -0.18652E-07  1592   0.784E-04    0.190E-04
RMM:  15    -0.413213320264E+03    0.56305E-05   -0.13085E-07  1353   0.719E-04    0.126E-04
RMM:  16    -0.413213317773E+03    0.24916E-05   -0.83132E-08  1160   0.655E-04    0.868E-05
RMM:  17    -0.413213314446E+03    0.33272E-05   -0.70418E-08  1229   0.644E-04    0.636E-05
RMM:  18    -0.413213311555E+03    0.28902E-05   -0.55316E-08  1160   0.610E-04    0.365E-05
RMM:  19    -0.413213309505E+03    0.20508E-05   -0.38408E-08  1019   0.574E-04    0.314E-05
RMM:  20    -0.413213309280E+03    0.22485E-06   -0.17399E-08   737   0.531E-04
   42 T=    71. E= -.41286681E+03 F= -.41321331E+03 E0= -.41319227E+03  EK= 0.34650E+00 SP= 0.00E+00 SK= 0.00E+00
       N       E                     dE             d eps       ncg     rms          rms(c)
RMM:   1    -0.413225688782E+03   -0.12379E-01   -0.11608E+01  4311   0.132E+00    0.945E-01
RMM:   2    -0.413218195508E+03    0.74933E-02   -0.16495E-01  4288   0.148E-01    0.685E-01
RMM:   3    -0.413219912445E+03   -0.17169E-02   -0.13632E-02  5084   0.810E-02    0.332E-01
RMM:   4    -0.413253925876E+03   -0.34013E-01   -0.52814E-02  5084   0.194E-01    0.812E-01
RMM:   5    -0.413215293664E+03    0.38632E-01   -0.16916E-02  4721   0.136E-01    0.582E-02
RMM:   6    -0.413215344824E+03   -0.51160E-04   -0.29390E-03  5746   0.516E-02    0.318E-02
RMM:   7    -0.413215348572E+03   -0.37475E-05   -0.40995E-04  5785   0.182E-02    0.213E-02
RMM:   8    -0.413215344667E+03    0.39050E-05   -0.10829E-04  5179   0.105E-02    0.113E-02
RMM:   9    -0.413215332718E+03    0.11948E-04   -0.19674E-05  4411   0.548E-03    0.439E-03
RMM:  10    -0.413215329232E+03    0.34862E-05   -0.38650E-06  2772   0.253E-03    0.276E-03
RMM:  11    -0.413215324821E+03    0.44110E-05   -0.12698E-06  2498   0.184E-03    0.149E-03
RMM:  12    -0.413215319508E+03    0.53128E-05   -0.67225E-07  2429   0.141E-03    0.584E-04
RMM:  13    -0.413215316495E+03    0.30133E-05   -0.33339E-07  2005   0.983E-04    0.267E-04
RMM:  14    -0.413215314065E+03    0.24303E-05   -0.18609E-07  1498   0.772E-04    0.161E-04
RMM:  15    -0.413215309676E+03    0.43882E-05   -0.13789E-07  1285   0.717E-04    0.107E-04
RMM:  16    -0.413215307916E+03    0.17603E-05   -0.88785E-08  1169   0.662E-04    0.783E-05
RMM:  17    -0.413215304687E+03    0.32291E-05   -0.79664E-08  1256   0.657E-04    0.570E-05
RMM:  18    -0.413215302575E+03    0.21123E-05   -0.55814E-08  1120   0.609E-04    0.402E-05
RMM:  19    -0.413215301392E+03    0.11826E-05   -0.32720E-08   896   0.562E-04    0.219E-05
RMM:  20    -0.413215300954E+03    0.43868E-06   -0.20954E-08   771   0.540E-04
   43 T=    71. E= -.41286688E+03 F= -.41321530E+03 E0= -.41319429E+03  EK= 0.34842E+00 SP= 0.00E+00 SK= 0.00E+00
       N       E                     dE             d eps       ncg     rms          rms(c)
RMM:   1    -0.413238248477E+03   -0.22947E-01   -0.11827E+01  4312   0.141E+00    0.947E-01
RMM:   2    -0.413219663957E+03    0.18585E-01   -0.18527E-01  4283   0.168E-01    0.700E-01
RMM:   3    -0.413222171708E+03   -0.25078E-02   -0.14280E-02  5077   0.890E-02    0.373E-01
RMM:   4    -0.413254831975E+03   -0.32660E-01   -0.54899E-02  5068   0.199E-01    0.812E-01
RMM:   5    -0.413216406527E+03    0.38425E-01   -0.16663E-02  4716   0.136E-01    0.601E-02
RMM:   6    -0.413216438864E+03   -0.32337E-04   -0.28515E-03  5715   0.511E-02    0.317E-02
RMM:   7    -0.413216442972E+03   -0.41075E-05   -0.39836E-04  5829   0.181E-02    0.218E-02
RMM:   8    -0.413216439661E+03    0.33110E-05   -0.10455E-04  5178   0.104E-02    0.110E-02
RMM:   9    -0.413216429219E+03    0.10442E-04   -0.20744E-05  4437   0.559E-03    0.419E-03
RMM:  10    -0.413216426901E+03    0.23181E-05   -0.38689E-06  2769   0.248E-03    0.254E-03
RMM:  11    -0.413216423540E+03    0.33603E-05   -0.14643E-06  2522   0.188E-03    0.143E-03
RMM:  12    -0.413216420131E+03    0.34091E-05   -0.63924E-07  2438   0.138E-03    0.611E-04
RMM:  13    -0.413216417882E+03    0.22494E-05   -0.32294E-07  1867   0.943E-04    0.272E-04
RMM:  14    -0.413216415675E+03    0.22067E-05   -0.19659E-07  1473   0.775E-04    0.154E-04
RMM:  15    -0.413216412693E+03    0.29821E-05   -0.14731E-07  1300   0.715E-04    0.950E-05
RMM:  16    -0.413216410927E+03    0.17660E-05   -0.95372E-08  1157   0.660E-04    0.722E-05
RMM:  17    -0.413216408457E+03    0.24700E-05   -0.83024E-08  1220   0.649E-04    0.489E-05
RMM:  18    -0.413216406539E+03    0.19175E-05   -0.59399E-08  1093   0.602E-04    0.398E-05
RMM:  19    -0.413216405695E+03    0.84489E-06   -0.33199E-08   862   0.561E-04
   44 T=    71. E= -.41286662E+03 F= -.41321641E+03 E0= -.41319542E+03  EK= 0.34979E+00 SP= 0.00E+00 SK= 0.00E+00
       N       E                     dE             d eps       ncg     rms          rms(c)
RMM:   1    -0.413231228037E+03   -0.14821E-01   -0.11741E+01  4310   0.146E+00    0.974E-01
RMM:   2    -0.413220338675E+03    0.10889E-01   -0.16891E-01  4319   0.170E-01    0.693E-01
RMM:   3    -0.413228197565E+03   -0.78589E-02   -0.19367E-02  5119   0.109E-01    0.467E-01
RMM:   4    -0.413239462750E+03   -0.11265E-01   -0.42896E-02  5038   0.179E-01    0.619E-01
RMM:   5    -0.413217833657E+03    0.21629E-01   -0.81742E-03  4621   0.105E-01    0.546E-02
RMM:   6    -0.413217805780E+03    0.27877E-04   -0.16351E-03  5553   0.391E-02    0.303E-02
RMM:   7    -0.413217802205E+03    0.35747E-05   -0.26658E-04  5620   0.158E-02    0.204E-02
RMM:   8    -0.413217793478E+03    0.87273E-05   -0.10436E-04  5073   0.105E-02    0.962E-03
RMM:   9    -0.413217780017E+03    0.13461E-04   -0.15068E-05  4231   0.524E-03    0.390E-03
RMM:  10    -0.413217776238E+03    0.37782E-05   -0.24590E-06  2669   0.219E-03    0.227E-03
RMM:  11    -0.413217769570E+03    0.66683E-05   -0.11314E-06  2479   0.174E-03    0.125E-03
RMM:  12    -0.413217763662E+03    0.59086E-05   -0.53936E-07  2398   0.128E-03    0.603E-04
RMM:  13    -0.413217760067E+03    0.35946E-05   -0.25184E-07  1781   0.871E-04    0.290E-04
RMM:  14    -0.413217756531E+03    0.35363E-05   -0.14248E-07  1313   0.705E-04    0.153E-04
RMM:  15    -0.413217751390E+03    0.51407E-05   -0.11933E-07  1296   0.691E-04    0.124E-04
RMM:  16    -0.413217748780E+03    0.26096E-05   -0.72430E-08  1062   0.623E-04    0.103E-04
RMM:  17    -0.413217744181E+03    0.45993E-05   -0.74941E-08  1248   0.645E-04    0.694E-05
RMM:  18    -0.413217741802E+03    0.23792E-05   -0.47563E-08  1062   0.582E-04    0.489E-05
RMM:  19    -0.413217740905E+03    0.89649E-06   -0.26351E-08   825   0.531E-04
   45 T=    71. E= -.41286688E+03 F= -.41321774E+03 E0= -.41319677E+03  EK= 0.35086E+00 SP= 0.00E+00 SK= 0.00E+00
       N       E                     dE             d eps       ncg     rms          rms(c)
RMM:   1    -0.413253737218E+03   -0.35995E-01   -0.11851E+01  4311   0.163E+00    0.956E-01
RMM:   2    -0.413220242756E+03    0.33494E-01   -0.17991E-01  4335   0.186E-01    0.689E-01
RMM:   3    -0.413230690530E+03   -0.10448E-01   -0.21119E-02  5119   0.119E-01    0.522E-01
RMM:   4    -0.413235630955E+03   -0.49404E-02   -0.41581E-02  5013   0.178E-01    0.571E-01
RMM:   5    -0.413217662985E+03    0.17968E-01   -0.67440E-03  4586   0.987E-02    0.543E-02
RMM:   6    -0.413217614118E+03    0.48867E-04   -0.12937E-03  5392   0.356E-02    0.294E-02
RMM:   7    -0.413217609452E+03    0.46655E-05   -0.21601E-04  5597   0.145E-02    0.197E-02
RMM:   8    -0.413217602162E+03    0.72900E-05   -0.11325E-04  5091   0.109E-02    0.988E-03
RMM:   9    -0.413217588351E+03    0.13811E-04   -0.16017E-05  4300   0.546E-03    0.394E-03
RMM:  10    -0.413217585353E+03    0.29984E-05   -0.26625E-06  2686   0.219E-03    0.226E-03
RMM:  11    -0.413217579256E+03    0.60965E-05   -0.12542E-06  2491   0.180E-03    0.125E-03
RMM:  12    -0.413217574693E+03    0.45638E-05   -0.54388E-07  2412   0.130E-03    0.669E-04
RMM:  13    -0.413217571197E+03    0.34954E-05   -0.25186E-07  1747   0.876E-04    0.326E-04
RMM:  14    -0.413217567795E+03    0.34018E-05   -0.13689E-07  1293   0.698E-04    0.168E-04
RMM:  15    -0.413217563724E+03    0.40715E-05   -0.10550E-07  1211   0.665E-04    0.117E-04
RMM:  16    -0.413217561299E+03    0.24252E-05   -0.68390E-08  1053   0.616E-04    0.106E-04
RMM:  17    -0.413217558010E+03    0.32888E-05   -0.65025E-08  1186   0.625E-04    0.621E-05
RMM:  18    -0.413217555128E+03    0.28817E-05   -0.47990E-08  1043   0.582E-04    0.462E-05
RMM:  19    -0.413217554460E+03    0.66839E-06   -0.19912E-08   723   0.519E-04
   46 T=    71. E= -.41286664E+03 F= -.41321755E+03 E0= -.41319660E+03  EK= 0.35092E+00 SP= 0.00E+00 SK= 0.00E+00
       N       E                     dE             d eps       ncg     rms          rms(c)
RMM:   1    -0.413236724791E+03   -0.19170E-01   -0.11696E+01  4311   0.165E+00    0.944E-01
RMM:   2    -0.413219854594E+03    0.16870E-01   -0.18588E-01  4334   0.199E-01    0.702E-01
RMM:   3    -0.413231216671E+03   -0.11362E-01   -0.22180E-02  5124   0.126E-01    0.548E-01
RMM:   4    -0.413235462344E+03   -0.42457E-02   -0.44251E-02  5013   0.184E-01    0.582E-01
RMM:   5    -0.413216678351E+03    0.18784E-01   -0.70402E-03  4581   0.102E-01    0.561E-02
RMM:   6    -0.413216617601E+03    0.60749E-04   -0.13175E-03  5367   0.362E-02    0.295E-02
RMM:   7    -0.413216613431E+03    0.41704E-05   -0.21752E-04  5629   0.145E-02    0.203E-02
RMM:   8    -0.413216605734E+03    0.76973E-05   -0.11636E-04  5125   0.110E-02    0.101E-02
RMM:   9    -0.413216593020E+03    0.12714E-04   -0.17385E-05  4361   0.566E-03    0.399E-03
RMM:  10    -0.413216591011E+03    0.20087E-05   -0.28983E-06  2714   0.223E-03    0.230E-03
RMM:  11    -0.413216586833E+03    0.41785E-05   -0.13886E-06  2505   0.186E-03    0.131E-03
RMM:  12    -0.413216583850E+03    0.29831E-05   -0.57561E-07  2424   0.134E-03    0.701E-04
RMM:  13    -0.413216581189E+03    0.26611E-05   -0.28056E-07  1774   0.914E-04    0.339E-04
RMM:  14    -0.413216578725E+03    0.24637E-05   -0.15792E-07  1364   0.729E-04    0.179E-04
RMM:  15    -0.413216575946E+03    0.27794E-05   -0.11465E-07  1192   0.677E-04    0.108E-04
RMM:  16    -0.413216573951E+03    0.19942E-05   -0.81160E-08  1121   0.633E-04    0.990E-05
RMM:  17    -0.413216572041E+03    0.19103E-05   -0.61258E-08  1081   0.604E-04    0.562E-05
RMM:  18    -0.413216569539E+03    0.25019E-05   -0.61756E-08  1114   0.600E-04    0.410E-05
RMM:  19    -0.413216569127E+03    0.41262E-06   -0.20337E-08   688   0.521E-04
   47 T=    71. E= -.41286655E+03 F= -.41321657E+03 E0= -.41319563E+03  EK= 0.35002E+00 SP= 0.00E+00 SK= 0.00E+00
       N       E                     dE             d eps       ncg     rms          rms(c)
RMM:   1    -0.413252506460E+03   -0.35937E-01   -0.11786E+01  4306   0.181E+00    0.967E-01
RMM:   2    -0.413217473436E+03    0.35033E-01   -0.18981E-01  4401   0.205E-01    0.697E-01
RMM:   3    -0.413236758077E+03   -0.19285E-01   -0.28963E-02  5143   0.147E-01    0.661E-01
RMM:   4    -0.413225940854E+03    0.10817E-01   -0.40520E-02  4974   0.180E-01    0.466E-01
RMM:   5    -0.413214841350E+03    0.11100E-01   -0.47145E-03  4527   0.904E-02    0.574E-02
RMM:   6    -0.413214716907E+03    0.12444E-03   -0.59544E-04  4839   0.291E-02    0.295E-02
RMM:   7    -0.413214707485E+03    0.94222E-05   -0.18688E-04  5921   0.138E-02    0.150E-02
RMM:   8    -0.413214700390E+03    0.70944E-05   -0.99011E-05  5189   0.109E-02    0.125E-02
RMM:   9    -0.413214689010E+03    0.11380E-04   -0.20752E-05  4529   0.565E-03    0.456E-03
RMM:  10    -0.413214685393E+03    0.36174E-05   -0.31945E-06  2706   0.273E-03    0.231E-03
RMM:  11    -0.413214679935E+03    0.54578E-05   -0.20685E-06  2524   0.228E-03    0.153E-03
RMM:  12    -0.413214675599E+03    0.43361E-05   -0.76915E-07  2412   0.159E-03    0.922E-04
RMM:  13    -0.413214672007E+03    0.35917E-05   -0.33472E-07  2170   0.103E-03    0.571E-04
RMM:  14    -0.413214666320E+03    0.56872E-05   -0.22335E-07  1878   0.846E-04    0.399E-04
RMM:  15    -0.413214662506E+03    0.38134E-05   -0.10993E-07  1134   0.633E-04    0.172E-04
RMM:  16    -0.413214660464E+03    0.20426E-05   -0.70830E-08  1004   0.587E-04    0.915E-05
RMM:  17    -0.413214656931E+03    0.35331E-05   -0.73171E-08  1099   0.613E-04    0.834E-05
RMM:  18    -0.413214655346E+03    0.15846E-05   -0.37407E-08   879   0.566E-04    0.603E-05
RMM:  19    -0.413214654555E+03    0.79130E-06   -0.21035E-08   724   0.536E-04
   48 T=    71. E= -.41286681E+03 F= -.41321465E+03 E0= -.41319373E+03  EK= 0.34784E+00 SP= 0.00E+00 SK= 0.00E+00
       N       E                     dE             d eps       ncg     rms          rms(c)
RMM:   1    -0.413251680015E+03   -0.37025E-01   -0.11592E+01  4306   0.193E+00    0.957E-01
RMM:   2    -0.413212929753E+03    0.38750E-01   -0.18777E-01  4459   0.217E-01    0.687E-01
RMM:   3    -0.413239454577E+03   -0.26525E-01   -0.35171E-02  5156   0.165E-01    0.751E-01
RMM:   4    -0.413217835014E+03    0.21620E-01   -0.39844E-02  4944   0.182E-01    0.396E-01
RMM:   5    -0.413210452997E+03    0.73820E-02   -0.45320E-03  4671   0.897E-02    0.660E-02
RMM:   6    -0.413210248883E+03    0.20411E-03   -0.46229E-04  4654   0.299E-02    0.329E-02
RMM:   7    -0.413210251585E+03   -0.27026E-05   -0.24642E-04  5752   0.167E-02    0.237E-02
RMM:   8    -0.413210220368E+03    0.31218E-04   -0.85075E-05  4987   0.105E-02    0.917E-03
RMM:   9    -0.413210212258E+03    0.81093E-05   -0.16764E-05  4387   0.519E-03    0.438E-03
RMM:  10    -0.413210207636E+03    0.46230E-05   -0.22834E-06  2626   0.234E-03    0.253E-03
RMM:  11    -0.413210201125E+03    0.65102E-05   -0.10152E-06  2489   0.169E-03    0.159E-03
RMM:  12    -0.413210197415E+03    0.37108E-05   -0.36102E-07  2315   0.110E-03    0.808E-04
RMM:  13    -0.413210191984E+03    0.54300E-05   -0.31381E-07  2063   0.923E-04    0.432E-04
RMM:  14    -0.413210187665E+03    0.43200E-05   -0.16961E-07  1418   0.727E-04    0.292E-04
RMM:  15    -0.413210183062E+03    0.46027E-05   -0.12730E-07  1191   0.670E-04    0.132E-04
RMM:  16    -0.413210180365E+03    0.26970E-05   -0.83478E-08  1159   0.630E-04    0.917E-05
RMM:  17    -0.413210176472E+03    0.38930E-05   -0.85648E-08  1299   0.639E-04    0.855E-05
RMM:  18    -0.413210175577E+03    0.89529E-06   -0.37677E-08   919   0.540E-04
   49 T=    70. E= -.41286647E+03 F= -.41321018E+03 E0= -.41318925E+03  EK= 0.34370E+00 SP= 0.00E+00 SK= 0.00E+00
       N       E                     dE             d eps       ncg     rms          rms(c)
RMM:   1    -0.413229871626E+03   -0.19695E-01   -0.11236E+01  4305   0.195E+00    0.927E-01
RMM:   2    -0.413207925350E+03    0.21946E-01   -0.18587E-01  4484   0.224E-01    0.691E-01
RMM:   3    -0.413234893843E+03   -0.26968E-01   -0.35629E-02  5159   0.168E-01    0.765E-01
RMM:   4    -0.413212458919E+03    0.22435E-01   -0.41186E-02  4945   0.186E-01    0.398E-01
RMM:   5    -0.413204857356E+03    0.76016E-02   -0.49958E-03  4724   0.936E-02    0.703E-02
RMM:   6    -0.413204610423E+03    0.24693E-03   -0.49981E-04  4644   0.315E-02    0.337E-02
RMM:   7    -0.413204611827E+03   -0.14048E-05   -0.24607E-04  5755   0.167E-02    0.237E-02
RMM:   8    -0.413204582544E+03    0.29284E-04   -0.84099E-05  5027   0.102E-02    0.969E-03
RMM:   9    -0.413204575527E+03    0.70167E-05   -0.17232E-05  4383   0.525E-03    0.430E-03
RMM:  10    -0.413204571697E+03    0.38301E-05   -0.25335E-06  2647   0.238E-03    0.258E-03
RMM:  11    -0.413204566958E+03    0.47385E-05   -0.90600E-07  2486   0.162E-03    0.152E-03
RMM:  12    -0.413204564192E+03    0.27665E-05   -0.36690E-07  2283   0.107E-03    0.777E-04
RMM:  13    -0.413204559997E+03    0.41953E-05   -0.38758E-07  2227   0.986E-04    0.505E-04
RMM:  14    -0.413204557313E+03    0.26838E-05   -0.17887E-07  1332   0.723E-04    0.308E-04
RMM:  15    -0.413204553897E+03    0.34157E-05   -0.15890E-07  1258   0.704E-04    0.133E-04
RMM:  16    -0.413204551907E+03    0.19902E-05   -0.10363E-07  1212   0.650E-04    0.101E-04
RMM:  17    -0.413204549392E+03    0.25151E-05   -0.10257E-07  1330   0.648E-04    0.918E-05
RMM:  18    -0.413204548857E+03    0.53455E-06   -0.44412E-08   942   0.542E-04
   50 T=    69. E= -.41286680E+03 F= -.41320455E+03 E0= -.41318363E+03  EK= 0.33775E+00 SP= 0.00E+00 SK= 0.00E+00
       N       E                     dE             d eps       ncg     rms          rms(c)
RMM:   1    -0.413232804945E+03   -0.28256E-01   -0.11096E+01  4303   0.212E+00    0.936E-01
RMM:   2    -0.413199236195E+03    0.33569E-01   -0.18682E-01  4566   0.239E-01    0.686E-01
RMM:   3    -0.413236174485E+03   -0.36938E-01   -0.44726E-02  5164   0.191E-01    0.871E-01
RMM:   4    -0.413201079054E+03    0.35095E-01   -0.42404E-02  4917   0.192E-01    0.338E-01
[...]
RMM:  21    -0.413816291314E+03   -0.18646E-05   -0.18392E-07  1280   0.634E-04    0.774E-05
RMM:  22    -0.413816292194E+03   -0.88005E-06   -0.86918E-08   999   0.559E-04
  138 T=   185. E= -.41290951E+03 F= -.41381629E+03 E0= -.41379529E+03  EK= 0.90678E+00 SP= 0.00E+00 SK= 0.00E+00
       N       E                     dE             d eps       ncg     rms          rms(c)
RMM:   1    -0.413599085051E+03    0.21721E+00   -0.19729E+01  4281   0.778E+00    0.204E+00
RMM:   2    -0.413452347646E+03    0.14674E+00   -0.71037E-01  5207   0.980E-01    0.179E+00
RMM:   3    -0.413550215104E+03   -0.97867E-01   -0.20124E-01  5566   0.478E-01    0.160E+00
RMM:   4    -0.413530711847E+03    0.19503E-01   -0.22602E-01  5128   0.475E-01    0.126E+00
RMM:   5    -0.413459723579E+03    0.70988E-01   -0.10533E-01  5055   0.401E-01    0.397E-01
RMM:   6    -0.413451374314E+03    0.83493E-02   -0.20246E-02  4857   0.191E-01    0.150E-01
RMM:   7    -0.413450575796E+03    0.79852E-03   -0.35531E-03  5154   0.815E-02    0.740E-02
RMM:   8    -0.413450494379E+03    0.81417E-04   -0.11613E-03  5699   0.413E-02    0.411E-02
RMM:   9    -0.413450464237E+03    0.30142E-04   -0.31647E-04  5227   0.221E-02    0.213E-02
RMM:  10    -0.413450459982E+03    0.42544E-05   -0.93667E-05  5814   0.113E-02    0.124E-02
RMM:  11    -0.413450459415E+03    0.56674E-06   -0.22263E-05  4712   0.559E-03    0.742E-03
RMM:  12    -0.413450463346E+03   -0.39303E-05   -0.74179E-06  3575   0.423E-03    0.340E-03
RMM:  13    -0.413450467204E+03   -0.38577E-05   -0.19411E-06  2647   0.231E-03    0.182E-03
RMM:  14    -0.413450472911E+03   -0.57076E-05   -0.13683E-06  2591   0.183E-03    0.917E-04
RMM:  15    -0.413450477568E+03   -0.46567E-05   -0.99369E-07  2544   0.144E-03    0.683E-04
RMM:  16    -0.413450482706E+03   -0.51383E-05   -0.11382E-06  2494   0.137E-03    0.370E-04
RMM:  17    -0.413450485530E+03   -0.28239E-05   -0.62352E-07  1859   0.995E-04    0.236E-04
RMM:  18    -0.413450488368E+03   -0.28381E-05   -0.66042E-07  2142   0.102E-03    0.200E-04
RMM:  19    -0.413450490051E+03   -0.16827E-05   -0.38143E-07  1511   0.769E-04    0.102E-04
RMM:  20    -0.413450491070E+03   -0.10195E-05   -0.21866E-07  1304   0.661E-04    0.799E-05
RMM:  21    -0.413450491717E+03   -0.64686E-06   -0.12709E-07  1141   0.595E-04
  139 T=   114. E= -.41289123E+03 F= -.41345049E+03 E0= -.41342884E+03  EK= 0.55926E+00 SP= 0.00E+00 SK= 0.00E+00
       N       E                     dE             d eps       ncg     rms          rms(c)
RMM:   1    -0.413137573856E+03    0.31292E+00   -0.63794E+00  4273   0.447E+00    0.817E-01
RMM:   2    -0.413144074736E+03   -0.65009E-02   -0.27740E-01  5246   0.494E-01    0.700E-01
RMM:   3    -0.413175989320E+03   -0.31915E-01   -0.55156E-02  5534   0.244E-01    0.929E-01
RMM:   4    -0.413144943639E+03    0.31046E-01   -0.25684E-02  4948   0.190E-01    0.313E-01
RMM:   5    -0.413144814818E+03    0.12882E-03   -0.14306E-02  5266   0.151E-01    0.145E-01
RMM:   6    -0.413143910127E+03    0.90469E-03   -0.32230E-03  4928   0.756E-02    0.503E-02
RMM:   7    -0.413143884944E+03    0.25183E-04   -0.11138E-03  5745   0.377E-02    0.405E-02
RMM:   8    -0.413143841834E+03    0.43110E-04   -0.22357E-04  5185   0.184E-02    0.196E-02
RMM:   9    -0.413143832973E+03    0.88610E-05   -0.67877E-05  5606   0.987E-03    0.862E-03
RMM:  10    -0.413143832827E+03    0.14575E-06   -0.18172E-05  4522   0.477E-03    0.536E-03
RMM:  11    -0.413143832449E+03    0.37895E-06   -0.35130E-06  2841   0.291E-03
  140 T=    65. E= -.41282326E+03 F= -.41314383E+03 E0= -.41312158E+03  EK= 0.32057E+00 SP= 0.00E+00 SK= 0.00E+00
       N       E                     dE             d eps       ncg     rms          rms(c)
RMM:   1    -0.413715098735E+03   -0.57127E+00   -0.10331E+01  4285   0.554E+00    0.163E+00
RMM:   2    -0.413711751797E+03    0.33469E-02   -0.55098E-01  5372   0.867E-01    0.167E+00
RMM:   3    -0.413703465945E+03    0.82859E-02   -0.19180E-01  5299   0.475E-01    0.154E+00
RMM:   4    -0.413639196913E+03    0.64269E-01   -0.12636E-01  5199   0.417E-01    0.689E-01
RMM:   5    -0.413635527532E+03    0.36694E-02   -0.39450E-02  5026   0.265E-01    0.289E-01
RMM:   6    -0.413631784270E+03    0.37433E-02   -0.17279E-02  4952   0.163E-01    0.137E-01
RMM:   7    -0.413631225060E+03    0.55921E-03   -0.25040E-03  5231   0.707E-02    0.729E-02
RMM:   8    -0.413631180876E+03    0.44183E-04   -0.50427E-04  4992   0.295E-02    0.412E-02
RMM:   9    -0.413631169312E+03    0.11564E-04   -0.22792E-04  5031   0.195E-02    0.185E-02
RMM:  10    -0.413631164013E+03    0.52990E-05   -0.59162E-05  5532   0.895E-03    0.997E-03
RMM:  11    -0.413631162628E+03    0.13850E-05   -0.29752E-05  5470   0.623E-03    0.469E-03
RMM:  12    -0.413631162528E+03    0.10042E-06   -0.39511E-06  2901   0.283E-03
  141 T=   148. E= -.41290212E+03 F= -.41363116E+03 E0= -.41360852E+03  EK= 0.72905E+00 SP= 0.00E+00 SK= 0.00E+00
       N       E                     dE             d eps       ncg     rms          rms(c)
RMM:   1    -0.414403964698E+03   -0.77280E+00   -0.25162E+01  4295   0.850E+00    0.245E+00
RMM:   2    -0.414079448540E+03    0.32452E+00   -0.98077E-01  5406   0.120E+00    0.226E+00
RMM:   3    -0.414191385328E+03   -0.11194E+00   -0.37274E-01  5392   0.654E-01    0.239E+00
RMM:   4    -0.414031577500E+03    0.15981E+00   -0.27737E-01  5220   0.594E-01    0.111E+00
RMM:   5    -0.414010149341E+03    0.21428E-01   -0.76084E-02  4613   0.393E-01    0.309E-01
RMM:   6    -0.414008832260E+03    0.13171E-02   -0.36233E-02  5223   0.226E-01    0.220E-01
RMM:   7    -0.414006075310E+03    0.27569E-02   -0.65800E-03  4901   0.109E-01    0.919E-02
RMM:   8    -0.414005990944E+03    0.84366E-04   -0.14432E-03  5468   0.473E-02    0.527E-02
RMM:   9    -0.414005971109E+03    0.19835E-04   -0.54450E-04  5229   0.296E-02    0.289E-02
RMM:  10    -0.414005954839E+03    0.16270E-04   -0.11285E-04  5505   0.133E-02    0.137E-02
RMM:  11    -0.414005955677E+03   -0.83865E-06   -0.57914E-05  5583   0.842E-03    0.786E-03
RMM:  12    -0.414005956379E+03   -0.70161E-06   -0.83968E-06  3482   0.397E-03
  142 T=   226. E= -.41289675E+03 F= -.41400596E+03 E0= -.41398334E+03  EK= 0.11092E+01 SP= 0.00E+00 SK= 0.00E+00
       N       E                     dE             d eps       ncg     rms          rms(c)
RMM:   1    -0.414522445568E+03   -0.51649E+00   -0.29284E+01  4294   0.924E+00    0.136E+00
RMM:   2    -0.414095168808E+03    0.42728E+00   -0.83791E-01  5444   0.107E+00    0.122E+00
RMM:   3    -0.414151617003E+03   -0.56448E-01   -0.17140E-01  5681   0.450E-01    0.137E+00
RMM:   4    -0.414096835902E+03    0.54781E-01   -0.78174E-02  5195   0.306E-01    0.788E-01
RMM:   5    -0.414086636934E+03    0.10199E-01   -0.46094E-02  4498   0.295E-01    0.266E-01
RMM:   6    -0.414085954330E+03    0.68260E-03   -0.12995E-02  5144   0.145E-01    0.150E-01
RMM:   7    -0.414084970411E+03    0.98392E-03   -0.34729E-03  5038   0.763E-02    0.842E-02
RMM:   8    -0.414084833576E+03    0.13684E-03   -0.10819E-03  5562   0.421E-02    0.512E-02
RMM:   9    -0.414084814686E+03    0.18890E-04   -0.52403E-04  4884   0.293E-02    0.293E-02
RMM:  10    -0.414084799335E+03    0.15351E-04   -0.12789E-04  5527   0.145E-02    0.126E-02
RMM:  11    -0.414084803421E+03   -0.40860E-05   -0.50044E-05  5493   0.790E-03    0.929E-03
RMM:  12    -0.414084804266E+03   -0.84519E-06   -0.10588E-05  4013   0.449E-03    0.336E-03
RMM:  13    -0.414084806483E+03   -0.22174E-05   -0.41445E-06  2955   0.274E-03    0.211E-03
RMM:  14    -0.414084808439E+03   -0.19553E-05   -0.10491E-06  2492   0.182E-03    0.879E-04
RMM:  15    -0.414084809847E+03   -0.14086E-05   -0.55202E-07  2263   0.122E-03    0.573E-04
RMM:  16    -0.414084811428E+03   -0.15810E-05   -0.40807E-07  1981   0.983E-04    0.280E-04
RMM:  17    -0.414084812683E+03   -0.12552E-05   -0.28012E-07  1603   0.817E-04    0.166E-04
RMM:  18    -0.414084813838E+03   -0.11546E-05   -0.24893E-07  1574   0.773E-04    0.118E-04
RMM:  19    -0.414084814714E+03   -0.87604E-06   -0.18639E-07  1436   0.689E-04
  143 T=   246. E= -.41287515E+03 F= -.41408481E+03 E0= -.41406275E+03  EK= 0.12097E+01 SP= 0.00E+00 SK= 0.00E+00
       N       E                     dE             d eps       ncg     rms          rms(c)
RMM:   1    -0.414451023840E+03   -0.36621E+00   -0.29044E+01  4291   0.943E+00    0.110E+00
RMM:   2    -0.414091465309E+03    0.35956E+00   -0.73536E-01  5416   0.100E+00    0.902E-01
RMM:   3    -0.414107858226E+03   -0.16393E-01   -0.97877E-02  5671   0.358E-01    0.758E-01
RMM:   4    -0.414120003706E+03   -0.12145E-01   -0.60587E-02  5287   0.245E-01    0.813E-01
RMM:   5    -0.414094626046E+03    0.25378E-01   -0.46407E-02  4923   0.271E-01    0.274E-01
RMM:   6    -0.414091815293E+03    0.28108E-02   -0.71313E-03  4645   0.124E-01    0.891E-02
RMM:   7    -0.414091916415E+03   -0.10112E-03   -0.33620E-03  5967   0.642E-02    0.673E-02
RMM:   8    -0.414091878652E+03    0.37763E-04   -0.94089E-04  5523   0.337E-02    0.497E-02
RMM:   9    -0.414091798563E+03    0.80089E-04   -0.28316E-04  4755   0.232E-02    0.189E-02
RMM:  10    -0.414091806138E+03   -0.75750E-05   -0.15311E-04  5944   0.134E-02    0.127E-02
RMM:  11    -0.414091805945E+03    0.19348E-06   -0.18469E-05  4620   0.579E-03    0.620E-03
RMM:  12    -0.414091808881E+03   -0.29360E-05   -0.95190E-06  3980   0.408E-03    0.321E-03
RMM:  13    -0.414091811858E+03   -0.29776E-05   -0.15636E-06  2574   0.220E-03    0.162E-03
RMM:  14    -0.414091814510E+03   -0.26512E-05   -0.77336E-07  2487   0.144E-03    0.771E-04
RMM:  15    -0.414091817482E+03   -0.29728E-05   -0.56816E-07  2170   0.113E-03    0.424E-04
RMM:  16    -0.414091820445E+03   -0.29625E-05   -0.45823E-07  1821   0.940E-04    0.279E-04
RMM:  17    -0.414091823124E+03   -0.26791E-05   -0.38427E-07  1761   0.861E-04    0.170E-04
RMM:  18    -0.414091825680E+03   -0.25561E-05   -0.33525E-07  1633   0.782E-04    0.125E-04
RMM:  19    -0.414091827826E+03   -0.21455E-05   -0.24580E-07  1317   0.698E-04    0.971E-05
RMM:  20    -0.414091829228E+03   -0.14027E-05   -0.15232E-07  1153   0.630E-04    0.580E-05
RMM:  21    -0.414091830180E+03   -0.95220E-06   -0.96346E-08  1062   0.592E-04
  144 T=   248. E= -.41287306E+03 F= -.41409183E+03 E0= -.41407056E+03  EK= 0.12188E+01 SP= 0.00E+00 SK= 0.00E+00
       N       E                     dE             d eps       ncg     rms          rms(c)
RMM:   1    -0.414375967946E+03   -0.28414E+00   -0.28547E+01  4288   0.953E+00    0.121E+00
RMM:   2    -0.414059756786E+03    0.31621E+00   -0.71352E-01  5348   0.103E+00    0.103E+00
RMM:   3    -0.414072072099E+03   -0.12315E-01   -0.96842E-02  5689   0.363E-01    0.816E-01
RMM:   4    -0.414109746874E+03   -0.37675E-01   -0.80440E-02  5308   0.276E-01    0.105E+00
RMM:   5    -0.414061294917E+03    0.48452E-01   -0.55600E-02  4851   0.298E-01    0.276E-01
RMM:   6    -0.414059835898E+03    0.14590E-02   -0.90286E-03  5062   0.129E-01    0.118E-01
RMM:   7    -0.414059620078E+03    0.21582E-03   -0.26416E-03  5669   0.582E-02    0.767E-02
RMM:   8    -0.414059488529E+03    0.13155E-03   -0.85963E-04  5298   0.353E-02    0.418E-02
RMM:   9    -0.414059454020E+03    0.34509E-04   -0.34873E-04  4822   0.241E-02    0.203E-02
RMM:  10    -0.414059453355E+03    0.66494E-06   -0.93247E-05  5754   0.115E-02    0.109E-02
RMM:  11    -0.414059454615E+03   -0.12603E-05   -0.24810E-05  4895   0.590E-03    0.695E-03
RMM:  12    -0.414059456233E+03   -0.16184E-05   -0.57365E-06  3177   0.351E-03    0.324E-03
RMM:  13    -0.414059458553E+03   -0.23199E-05   -0.17276E-06  2589   0.219E-03    0.152E-03
RMM:  14    -0.414059461629E+03   -0.30764E-05   -0.11502E-06  2530   0.169E-03    0.778E-04
RMM:  15    -0.414059464119E+03   -0.24897E-05   -0.63039E-07  2238   0.121E-03    0.463E-04
RMM:  16    -0.414059466262E+03   -0.21434E-05   -0.42083E-07  1885   0.958E-04    0.269E-04
RMM:  17    -0.414059468631E+03   -0.23685E-05   -0.39809E-07  1847   0.898E-04    0.195E-04
RMM:  18    -0.414059470860E+03   -0.22294E-05   -0.34303E-07  1662   0.810E-04    0.148E-04
RMM:  19    -0.414059472347E+03   -0.14867E-05   -0.21101E-07  1336   0.686E-04    0.691E-05
RMM:  20    -0.414059473699E+03   -0.13521E-05   -0.15442E-07  1207   0.643E-04    0.645E-05
RMM:  21    -0.414059474394E+03   -0.69531E-06   -0.90681E-08  1051   0.587E-04
  145 T=   241. E= -.41287809E+03 F= -.41405947E+03 E0= -.41403875E+03  EK= 0.11814E+01 SP= 0.00E+00 SK= 0.00E+00
       N       E                     dE             d eps       ncg     rms          rms(c)
RMM:   1    -0.414240052149E+03   -0.18058E+00   -0.26368E+01  4287   0.923E+00    0.138E+00
RMM:   2    -0.413951625157E+03    0.28843E+00   -0.64172E-01  5298   0.101E+00    0.120E+00
RMM:   3    -0.413956655876E+03   -0.50307E-02   -0.92262E-02  5549   0.370E-01    0.828E-01
RMM:   4    -0.414070347865E+03   -0.11369E+00   -0.15107E-01  5278   0.362E-01    0.142E+00
RMM:   5    -0.413951063665E+03    0.11928E+00   -0.84923E-02  4909   0.336E-01    0.268E-01
RMM:   6    -0.413950367599E+03    0.69607E-03   -0.17192E-02  5570   0.157E-01    0.120E-01
RMM:   7    -0.413950101669E+03    0.26593E-03   -0.37038E-03  5603   0.659E-02    0.737E-02
RMM:   8    -0.413950013211E+03    0.88458E-04   -0.76128E-04  5614   0.312E-02    0.489E-02
RMM:   9    -0.413949958288E+03    0.54923E-04   -0.30045E-04  4580   0.232E-02    0.167E-02
RMM:  10    -0.413949968496E+03   -0.10208E-04   -0.11424E-04  5853   0.123E-02    0.107E-02
RMM:  11    -0.413949969619E+03   -0.11235E-05   -0.21397E-05  4663   0.538E-03    0.647E-03
RMM:  12    -0.413949971657E+03   -0.20373E-05   -0.57429E-06  3181   0.345E-03    0.301E-03
RMM:  13    -0.413949973938E+03   -0.22813E-05   -0.15427E-06  2563   0.217E-03    0.160E-03
RMM:  14    -0.413949976279E+03   -0.23412E-05   -0.95138E-07  2522   0.156E-03    0.606E-04
RMM:  15    -0.413949977792E+03   -0.15131E-05   -0.51634E-07  2100   0.110E-03    0.371E-04
RMM:  16    -0.413949979174E+03   -0.13815E-05   -0.38231E-07  1847   0.936E-04    0.231E-04
RMM:  17    -0.413949980223E+03   -0.10492E-05   -0.28220E-07  1661   0.818E-04    0.139E-04
RMM:  18    -0.413949981211E+03   -0.98795E-06   -0.23183E-07  1551   0.757E-04
  146 T=   219. E= -.41287329E+03 F= -.41394998E+03 E0= -.41392958E+03  EK= 0.10767E+01 SP= 0.00E+00 SK= 0.00E+00
       N       E                     dE             d eps       ncg     rms          rms(c)
RMM:   1    -0.414116674016E+03   -0.16669E+00   -0.22425E+01  4292   0.848E+00    0.993E-01
RMM:   2    -0.413868269760E+03    0.24840E+00   -0.48873E-01  5227   0.915E-01    0.923E-01
RMM:   3    -0.413896542672E+03   -0.28273E-01   -0.98920E-02  5703   0.345E-01    0.107E+00
RMM:   4    -0.413860798812E+03    0.35744E-01   -0.36907E-02  5177   0.221E-01    0.567E-01
RMM:   5    -0.413860050890E+03    0.74792E-03   -0.20037E-02  4692   0.192E-01    0.303E-01
RMM:   6    -0.413860293753E+03   -0.24286E-03   -0.13834E-02  4955   0.147E-01    0.145E-01
RMM:   7    -0.413859333813E+03    0.95994E-03   -0.30566E-03  5170   0.720E-02    0.861E-02
RMM:   8    -0.413859185713E+03    0.14810E-03   -0.71266E-04  5609   0.322E-02    0.514E-02
RMM:   9    -0.413859122390E+03    0.63322E-04   -0.44053E-04  4506   0.261E-02    0.159E-02
RMM:  10    -0.413859130317E+03   -0.79270E-05   -0.93710E-05  5714   0.113E-02    0.101E-02
RMM:  11    -0.413859132068E+03   -0.17504E-05   -0.19818E-05  4618   0.581E-03    0.578E-03
RMM:  12    -0.413859134119E+03   -0.20513E-05   -0.53684E-06  3083   0.331E-03    0.271E-03
RMM:  13    -0.413859135224E+03   -0.11048E-05   -0.16804E-06  2581   0.214E-03    0.152E-03
RMM:  14    -0.413859135802E+03   -0.57870E-06   -0.90362E-07  2491   0.157E-03
  147 T=   202. E= -.41286610E+03 F= -.41385914E+03 E0= -.41383876E+03  EK= 0.99303E+00 SP= 0.00E+00 SK= 0.00E+00
       N       E                     dE             d eps       ncg     rms          rms(c)
RMM:   1    -0.414088336626E+03   -0.22920E+00   -0.20818E+01  4292   0.836E+00    0.101E+00
RMM:   2    -0.413929599960E+03    0.15874E+00   -0.50132E-01  5273   0.911E-01    0.111E+00
RMM:   3    -0.413904835980E+03    0.24764E-01   -0.10362E-01  5543   0.367E-01    0.921E-01
RMM:   4    -0.413886628097E+03    0.18208E-01   -0.38513E-02  5329   0.234E-01    0.526E-01
RMM:   5    -0.413886961350E+03   -0.33325E-03   -0.26533E-02  4965   0.206E-01    0.326E-01
RMM:   6    -0.413886354490E+03    0.60686E-03   -0.19969E-02  5030   0.173E-01    0.186E-01
RMM:   7    -0.413884797089E+03    0.15574E-02   -0.34888E-03  4785   0.843E-02    0.783E-02
RMM:   8    -0.413884765967E+03    0.31122E-04   -0.15127E-03  5861   0.428E-02    0.478E-02
RMM:   9    -0.413884707329E+03    0.58638E-04   -0.33221E-04  4738   0.230E-02    0.211E-02
RMM:  10    -0.413884706237E+03    0.10924E-05   -0.11314E-04  5736   0.129E-02    0.103E-02
RMM:  11    -0.413884708425E+03   -0.21880E-05   -0.21876E-05  4844   0.571E-03    0.652E-03
RMM:  12    -0.413884710122E+03   -0.16973E-05   -0.57458E-06  3162   0.345E-03    0.255E-03
RMM:  13    -0.413884710454E+03   -0.33242E-06   -0.13453E-06  2555   0.200E-03
  148 T=   206. E= -.41287481E+03 F= -.41388471E+03 E0= -.41386409E+03  EK= 0.10099E+01 SP= 0.00E+00 SK= 0.00E+00
       N       E                     dE             d eps       ncg     rms          rms(c)
RMM:   1    -0.414083441260E+03   -0.19873E+00   -0.21522E+01  4293   0.864E+00    0.132E+00
RMM:   2    -0.413998742987E+03    0.84698E-01   -0.61670E-01  5358   0.981E-01    0.146E+00
RMM:   3    -0.413942307948E+03    0.56435E-01   -0.14479E-01  5450   0.436E-01    0.112E+00
RMM:   4    -0.413921966327E+03    0.20342E-01   -0.70674E-02  5387   0.312E-01    0.623E-01
RMM:   5    -0.413920996835E+03    0.96949E-03   -0.50862E-02  4992   0.279E-01    0.354E-01
RMM:   6    -0.413918361901E+03    0.26349E-02   -0.25193E-02  5078   0.195E-01    0.204E-01
RMM:   7    -0.413916577827E+03    0.17841E-02   -0.30569E-03  4493   0.857E-02    0.775E-02
RMM:   8    -0.413916598138E+03   -0.20311E-04   -0.20386E-03  5780   0.498E-02    0.478E-02
RMM:   9    -0.413916556449E+03    0.41689E-04   -0.37332E-04  5217   0.238E-02    0.282E-02
RMM:  10    -0.413916541568E+03    0.14881E-04   -0.13103E-04  5652   0.141E-02    0.115E-02
RMM:  11    -0.413916544160E+03   -0.25923E-05   -0.36162E-05  5465   0.679E-03    0.723E-03
RMM:  12    -0.413916545530E+03   -0.13703E-05   -0.78131E-06  3591   0.379E-03    0.304E-03
RMM:  13    -0.413916545589E+03   -0.58895E-07   -0.15974E-06  2609   0.209E-03
  149 T=   212. E= -.41287720E+03 F= -.41391655E+03 E0= -.41389551E+03  EK= 0.10393E+01 SP= 0.00E+00 SK= 0.00E+00
       N       E                     dE             d eps       ncg     rms          rms(c)
RMM:   1    -0.414048846147E+03   -0.13230E+00   -0.21376E+01  4292   0.855E+00    0.116E+00
RMM:   2    -0.413965449464E+03    0.83397E-01   -0.63746E-01  5401   0.974E-01    0.135E+00
RMM:   3    -0.413915172367E+03    0.50277E-01   -0.13010E-01  5510   0.413E-01    0.102E+00
RMM:   4    -0.413898331928E+03    0.16840E-01   -0.53905E-02  5401   0.278E-01    0.589E-01
RMM:   5    -0.413898285454E+03    0.46474E-04   -0.38923E-02  4943   0.247E-01    0.338E-01
RMM:   6    -0.413896103641E+03    0.21818E-02   -0.23825E-02  5012   0.187E-01    0.191E-01
RMM:   7    -0.413894437700E+03    0.16659E-02   -0.31297E-03  4572   0.853E-02    0.732E-02
RMM:   8    -0.413894466936E+03   -0.29237E-04   -0.17686E-03  5812   0.469E-02    0.486E-02
RMM:   9    -0.413894428122E+03    0.38815E-04   -0.37288E-04  5092   0.244E-02    0.273E-02
RMM:  10    -0.413894414942E+03    0.13180E-04   -0.13460E-04  5697   0.143E-02    0.120E-02
RMM:  11    -0.413894416985E+03   -0.20438E-05   -0.38167E-05  5447   0.706E-03    0.863E-03
RMM:  12    -0.413894417785E+03   -0.79974E-06   -0.98976E-06  3942   0.431E-03
  150 T=   208. E= -.41287310E+03 F= -.41389442E+03 E0= -.41387284E+03  EK= 0.10213E+01 SP= 0.00E+00 SK= 0.00E+00
