       N       E                     dE             d eps       ncg     rms          rms(c)
RMM:   1     0.220076734900E+04    0.22008E+04   -0.52443E+04  2132   0.654E+02
RMM:   2     0.705125199734E+03   -0.14956E+04   -0.16262E+04  2132   0.177E+02
RMM:   3     0.137502935939E+03   -0.56762E+03   -0.65711E+03  2132   0.117E+02
RMM:   4    -0.159155107651E+03   -0.29666E+03   -0.27853E+03  2132   0.936E+01
RMM:   5    -0.287332793274E+03   -0.12818E+03   -0.11428E+03  2132   0.595E+01
RMM:   6    -0.349776968772E+03   -0.62444E+02   -0.55182E+02  2132   0.423E+01
RMM:   7    -0.382730732112E+03   -0.32954E+02   -0.30442E+02  2132   0.293E+01
RMM:   8    -0.404237833160E+03   -0.21507E+02   -0.18433E+02  2132   0.233E+01
RMM:   9    -0.436050395062E+03   -0.31813E+02   -0.30706E+02  6106   0.173E+01
RMM:  10    -0.441331788505E+03   -0.52814E+01   -0.63141E+01  6388   0.539E+00
RMM:  11    -0.442518455001E+03   -0.11867E+01   -0.11061E+01  6225   0.172E+00
RMM:  12    -0.442880842467E+03   -0.36239E+00   -0.25247E+00  6377   0.591E-01    0.134E+02
RMM:  13    -0.425652600573E+03    0.17228E+02   -0.81306E+01  4676   0.120E+01    0.712E+01
RMM:  14    -0.500399624367E+03   -0.74747E+02   -0.54571E+02  5419   0.233E+01    0.308E+01
RMM:  15    -0.415779396627E+03    0.84620E+02   -0.19964E+02  5083   0.164E+01    0.695E+00
RMM:  16    -0.414003579243E+03    0.17758E+01   -0.39953E+01  6084   0.613E+00    0.425E+00
RMM:  17    -0.413213111620E+03    0.79047E+00   -0.25357E+00  5397   0.187E+00    0.244E+00
RMM:  18    -0.413173824890E+03    0.39287E-01   -0.78442E-01  5970   0.904E-01    0.167E+00
RMM:  19    -0.413167104531E+03    0.67204E-02   -0.29641E-01  5686   0.584E-01    0.864E-01
RMM:  20    -0.413186433301E+03   -0.19329E-01   -0.25172E-01  5555   0.528E-01    0.597E-01
RMM:  21    -0.413167339245E+03    0.19094E-01   -0.36728E-02  5000   0.240E-01    0.267E-01
RMM:  22    -0.413165225159E+03    0.21141E-02   -0.18090E-02  6036   0.121E-01    0.140E-01
RMM:  23    -0.413164166064E+03    0.10591E-02   -0.56205E-03  5952   0.681E-02    0.862E-02
RMM:  24    -0.413163036474E+03    0.11296E-02   -0.15868E-03  5363   0.413E-02    0.475E-02
RMM:  25    -0.413162688617E+03    0.34786E-03   -0.83757E-04  5360   0.282E-02    0.377E-02
RMM:  26    -0.413162847247E+03   -0.15863E-03   -0.86099E-04  5824   0.305E-02    0.329E-02
RMM:  27    -0.413163294517E+03   -0.44727E-03   -0.17902E-04  4556   0.200E-02    0.200E-02
RMM:  28    -0.413163735395E+03   -0.44088E-03   -0.15985E-04  5249   0.180E-02    0.983E-03
RMM:  29    -0.413164148123E+03   -0.41273E-03   -0.10959E-04  4503   0.162E-02    0.417E-03
RMM:  30    -0.413164384734E+03   -0.23661E-03   -0.81664E-05  4418   0.106E-02    0.418E-03
RMM:  31    -0.413164507176E+03   -0.12244E-03   -0.48649E-05  3189   0.660E-03    0.367E-03
RMM:  32    -0.413164532239E+03   -0.25063E-04   -0.19040E-05  2969   0.307E-03    0.176E-03
RMM:  33    -0.413164545492E+03   -0.13253E-04   -0.83390E-06  2810   0.235E-03    0.623E-04
RMM:  34    -0.413164548458E+03   -0.29657E-05   -0.48175E-06  2649   0.173E-03    0.848E-04
RMM:  35    -0.413164548855E+03   -0.39747E-06   -0.21084E-06  2358   0.124E-03
    1 T=    61. E= -.41286674E+03 F= -.41316455E+03 E0= -.41314205E+03  EK= 0.29781E+00 SP= 0.00E+00 SK= 0.00E+00
       N       E                     dE             d eps       ncg     rms          rms(c)
RMM:   1    -0.413155159028E+03    0.93894E-02   -0.11034E+01  4003   0.696E-01    0.886E-01
RMM:   2    -0.413165841082E+03   -0.10682E-01   -0.13599E-01  3967   0.999E-02    0.641E-01
RMM:   3    -0.413164240184E+03    0.16009E-02   -0.67272E-03  4671   0.364E-02    0.148E-01
RMM:   4    -0.413180286162E+03   -0.16046E-01   -0.16745E-02  5225   0.108E-01    0.531E-01
RMM:   5    -0.413163974236E+03    0.16312E-01   -0.81060E-03  4858   0.887E-02    0.293E-02
RMM:   6    -0.413164074519E+03   -0.10028E-03   -0.13035E-03  5845   0.348E-02    0.176E-02
RMM:   7    -0.413164086566E+03   -0.12047E-04   -0.17446E-04  5742   0.114E-02    0.119E-02
RMM:   8    -0.413164093508E+03   -0.69422E-05   -0.23117E-05  4133   0.479E-03    0.572E-03
RMM:   9    -0.413164099567E+03   -0.60586E-05   -0.49603E-06  2870   0.261E-03    0.398E-03
RMM:  10    -0.413164105480E+03   -0.59130E-05   -0.13469E-06  2531   0.167E-03    0.253E-03
RMM:  11    -0.413164113321E+03   -0.78418E-05   -0.12795E-06  2527   0.155E-03    0.107E-03
RMM:  12    -0.413164118261E+03   -0.49398E-05   -0.77407E-07  2347   0.120E-03    0.395E-04
RMM:  13    -0.413164119123E+03   -0.86181E-06   -0.35457E-07  1681   0.826E-04
    2 T=    61. E= -.41286639E+03 F= -.41316412E+03 E0= -.41314162E+03  EK= 0.29773E+00 SP= 0.00E+00 SK= 0.00E+00
       N       E                     dE             d eps       ncg     rms          rms(c)
RMM:   1    -0.413160217713E+03    0.39005E-02   -0.11108E+01  4195   0.724E-01    0.911E-01
RMM:   2    -0.413165872075E+03   -0.56544E-02   -0.13095E-01  4008   0.973E-02    0.634E-01
RMM:   3    -0.413164934514E+03    0.93756E-03   -0.72009E-03  4803   0.385E-02    0.157E-01
RMM:   4    -0.413189142746E+03   -0.24208E-01   -0.24440E-02  5192   0.131E-01    0.649E-01
RMM:   5    -0.413164622314E+03    0.24520E-01   -0.11933E-02  4837   0.108E-01    0.357E-02
RMM:   6    -0.413164777363E+03   -0.15505E-03   -0.19679E-03  5822   0.427E-02    0.205E-02
RMM:   7    -0.413164785317E+03   -0.79541E-05   -0.24703E-04  5884   0.134E-02    0.141E-02
RMM:   8    -0.413164785415E+03   -0.98542E-07   -0.35064E-05  4617   0.563E-03    0.763E-03
RMM:   9    -0.413164784873E+03    0.54250E-06   -0.69017E-06  3139   0.300E-03
    3 T=    61. E= -.41286682E+03 F= -.41316478E+03 E0= -.41314229E+03  EK= 0.29797E+00 SP= 0.00E+00 SK= 0.00E+00
       N       E                     dE             d eps       ncg     rms          rms(c)
RMM:   1    -0.413155822546E+03    0.89629E-02   -0.10981E+01  4225   0.701E-01    0.894E-01
RMM:   2    -0.413165925787E+03   -0.10103E-01   -0.13222E-01  4241   0.994E-02    0.628E-01
RMM:   3    -0.413169831332E+03   -0.39055E-02   -0.11063E-02  5191   0.757E-02    0.343E-01
RMM:   4    -0.413187560995E+03   -0.17730E-01   -0.36659E-02  5118   0.163E-01    0.634E-01
RMM:   5    -0.413164521628E+03    0.23039E-01   -0.90666E-03  4710   0.106E-01    0.536E-02
RMM:   6    -0.413164511117E+03    0.10511E-04   -0.15883E-03  5483   0.399E-02    0.194E-02
RMM:   7    -0.413164528697E+03   -0.17580E-04   -0.25056E-04  6020   0.146E-02    0.130E-02
RMM:   8    -0.413164530760E+03   -0.20632E-05   -0.37264E-05  5011   0.619E-03    0.689E-03
RMM:   9    -0.413164531987E+03   -0.12277E-05   -0.86877E-06  3423   0.379E-03    0.363E-03
RMM:  10    -0.413164533446E+03   -0.14587E-05   -0.14272E-06  2537   0.199E-03    0.219E-03
RMM:  11    -0.413164535754E+03   -0.23080E-05   -0.12255E-06  2541   0.171E-03    0.127E-03
RMM:  12    -0.413164536882E+03   -0.11278E-05   -0.55242E-07  2354   0.119E-03    0.466E-04
RMM:  13    -0.413164537951E+03   -0.10690E-05   -0.36434E-07  1652   0.856E-04    0.263E-04
RMM:  14    -0.413164538455E+03   -0.50444E-06   -0.21439E-07  1408   0.738E-04
    4 T=    61. E= -.41286658E+03 F= -.41316454E+03 E0= -.41314205E+03  EK= 0.29795E+00 SP= 0.00E+00 SK= 0.00E+00
       N       E                     dE             d eps       ncg     rms          rms(c)
RMM:   1    -0.413155649170E+03    0.88888E-02   -0.11023E+01  4238   0.706E-01    0.884E-01
RMM:   2    -0.413166247664E+03   -0.10598E-01   -0.13619E-01  4007   0.960E-02    0.640E-01
RMM:   3    -0.413164955815E+03    0.12918E-02   -0.67894E-03  4884   0.380E-02    0.159E-01
RMM:   4    -0.413194858885E+03   -0.29903E-01   -0.30593E-02  5160   0.146E-01    0.721E-01
RMM:   5    -0.413164432228E+03    0.30427E-01   -0.14792E-02  4820   0.120E-01    0.373E-02
RMM:   6    -0.413164618768E+03   -0.18654E-03   -0.23691E-03  5776   0.471E-02    0.192E-02
RMM:   7    -0.413164636445E+03   -0.17677E-04   -0.29121E-04  5896   0.142E-02    0.141E-02
RMM:   8    -0.413164641756E+03   -0.53103E-05   -0.39899E-05  4684   0.583E-03    0.793E-03
RMM:   9    -0.413164645847E+03   -0.40912E-05   -0.78249E-06  3209   0.312E-03    0.531E-03
RMM:  10    -0.413164651280E+03   -0.54334E-05   -0.18598E-06  2555   0.197E-03    0.314E-03
RMM:  11    -0.413164657507E+03   -0.62265E-05   -0.15026E-06  2551   0.179E-03    0.150E-03
RMM:  12    -0.413164661680E+03   -0.41730E-05   -0.84678E-07  2456   0.140E-03    0.482E-04
RMM:  13    -0.413164662505E+03   -0.82512E-06   -0.31987E-07  1999   0.935E-04
    5 T=    61. E= -.41286659E+03 F= -.41316466E+03 E0= -.41314219E+03  EK= 0.29808E+00 SP= 0.00E+00 SK= 0.00E+00
       N       E                     dE             d eps       ncg     rms          rms(c)
RMM:   1    -0.413156555744E+03    0.81059E-02   -0.11071E+01  4251   0.714E-01    0.906E-01
RMM:   2    -0.413166486593E+03   -0.99308E-02   -0.13340E-01  4086   0.976E-02    0.636E-01
RMM:   3    -0.413165451897E+03    0.10347E-02   -0.70054E-03  4849   0.378E-02    0.162E-01
RMM:   4    -0.413192571208E+03   -0.27119E-01   -0.27537E-02  5162   0.138E-01    0.687E-01
RMM:   5    -0.413165037802E+03    0.27533E-01   -0.13470E-02  4826   0.114E-01    0.368E-02
RMM:   6    -0.413165202553E+03   -0.16475E-03   -0.21613E-03  5804   0.446E-02    0.204E-02
RMM:   7    -0.413165211979E+03   -0.94261E-05   -0.26509E-04  5879   0.137E-02    0.144E-02
RMM:   8    -0.413165212326E+03   -0.34754E-06   -0.37725E-05  4685   0.582E-03    0.794E-03
RMM:   9    -0.413165211693E+03    0.63362E-06   -0.75882E-06  3202   0.312E-03
    6 T=    61. E= -.41286685E+03 F= -.41316521E+03 E0= -.41314275E+03  EK= 0.29837E+00 SP= 0.00E+00 SK= 0.00E+00
       N       E                     dE             d eps       ncg     rms          rms(c)
RMM:   1    -0.413156462988E+03    0.87493E-02   -0.11017E+01  4271   0.723E-01    0.901E-01
RMM:   2    -0.413165895079E+03   -0.94321E-02   -0.13269E-01  4288   0.994E-02    0.629E-01
RMM:   3    -0.413170058344E+03   -0.41633E-02   -0.11196E-02  5153   0.751E-02    0.341E-01
RMM:   4    -0.413187778750E+03   -0.17720E-01   -0.36435E-02  5106   0.162E-01    0.633E-01
RMM:   5    -0.413164837112E+03    0.22942E-01   -0.91020E-03  4706   0.105E-01    0.531E-02
RMM:   6    -0.413164832647E+03    0.44644E-05   -0.15987E-03  5480   0.398E-02    0.195E-02
RMM:   7    -0.413164849200E+03   -0.16553E-04   -0.24788E-04  6012   0.145E-02    0.131E-02
RMM:   8    -0.413164849890E+03   -0.68966E-06   -0.37088E-05  5013   0.619E-03    0.687E-03
RMM:   9    -0.413164848281E+03    0.16086E-05   -0.84073E-06  3340   0.375E-03    0.359E-03
RMM:  10    -0.413164848493E+03   -0.21161E-06   -0.13913E-06  2532   0.198E-03
    7 T=    61. E= -.41286641E+03 F= -.41316485E+03 E0= -.41314240E+03  EK= 0.29843E+00 SP= 0.00E+00 SK= 0.00E+00
       N       E                     dE             d eps       ncg     rms          rms(c)
RMM:   1    -0.413156360064E+03    0.84882E-02   -0.11014E+01  4266   0.721E-01    0.883E-01
RMM:   2    -0.413167070489E+03   -0.10710E-01   -0.13547E-01  4139   0.964E-02    0.637E-01
RMM:   3    -0.413165857918E+03    0.12126E-02   -0.68191E-03  4947   0.390E-02    0.164E-01
RMM:   4    -0.413199646591E+03   -0.33789E-01   -0.34785E-02  5160   0.155E-01    0.764E-01
RMM:   5    -0.413165317931E+03    0.34329E-01   -0.16729E-02  4816   0.128E-01    0.406E-02
RMM:   6    -0.413165515668E+03   -0.19774E-03   -0.26895E-03  5773   0.499E-02    0.194E-02
RMM:   7    -0.413165536656E+03   -0.20988E-04   -0.33215E-04  5915   0.148E-02    0.143E-02
RMM:   8    -0.413165540863E+03   -0.42064E-05   -0.40310E-05  4593   0.581E-03    0.766E-03
RMM:   9    -0.413165544107E+03   -0.32443E-05   -0.83975E-06  3228   0.311E-03    0.510E-03
RMM:  10    -0.413165548258E+03   -0.41509E-05   -0.19927E-06  2556   0.201E-03    0.299E-03
RMM:  11    -0.413165552789E+03   -0.45308E-05   -0.14709E-06  2552   0.177E-03    0.139E-03
RMM:  12    -0.413165555656E+03   -0.28678E-05   -0.84380E-07  2454   0.137E-03    0.418E-04
RMM:  13    -0.413165556330E+03   -0.67369E-06   -0.33109E-07  1989   0.930E-04
    8 T=    61. E= -.41286675E+03 F= -.41316556E+03 E0= -.41314313E+03  EK= 0.29880E+00 SP= 0.00E+00 SK= 0.00E+00
       N       E                     dE             d eps       ncg     rms          rms(c)
RMM:   1    -0.413156869654E+03    0.86860E-02   -0.11080E+01  4288   0.725E-01    0.900E-01
RMM:   2    -0.413166985752E+03   -0.10116E-01   -0.13463E-01  4179   0.101E-01    0.639E-01
RMM:   3    -0.413165881625E+03    0.11041E-02   -0.69486E-03  4804   0.385E-02    0.159E-01
RMM:   4    -0.413191445682E+03   -0.25564E-01   -0.25953E-02  5155   0.134E-01    0.668E-01
RMM:   5    -0.413165442167E+03    0.26004E-01   -0.12786E-02  4818   0.111E-01    0.351E-02
RMM:   6    -0.413165600715E+03   -0.15855E-03   -0.20356E-03  5817   0.432E-02    0.197E-02
RMM:   7    -0.413165609508E+03   -0.87925E-05   -0.24676E-04  5854   0.134E-02    0.139E-02
RMM:   8    -0.413165610140E+03   -0.63196E-06   -0.34988E-05  4614   0.569E-03    0.777E-03
RMM:   9    -0.413165609764E+03    0.37524E-06   -0.71203E-06  3155   0.311E-03
    9 T=    61. E= -.41286656E+03 F= -.41316561E+03 E0= -.41314320E+03  EK= 0.29905E+00 SP= 0.00E+00 SK= 0.00E+00
       N       E                     dE             d eps       ncg     rms          rms(c)
RMM:   1    -0.413157313520E+03    0.82966E-02   -0.11065E+01  4291   0.732E-01    0.909E-01
RMM:   2    -0.413166650614E+03   -0.93371E-02   -0.13286E-01  4304   0.983E-02    0.631E-01
RMM:   3    -0.413171097451E+03   -0.44468E-02   -0.11553E-02  5148   0.771E-02    0.348E-01
RMM:   4    -0.413187605283E+03   -0.16508E-01   -0.35729E-02  5091   0.161E-01    0.621E-01
RMM:   5    -0.413165732289E+03    0.21873E-01   -0.86195E-03  4690   0.103E-01    0.524E-02
RMM:   6    -0.413165726069E+03    0.62199E-05   -0.15279E-03  5465   0.387E-02    0.199E-02
RMM:   7    -0.413165739443E+03   -0.13374E-04   -0.23707E-04  6006   0.143E-02    0.132E-02
RMM:   8    -0.413165738148E+03    0.12947E-05   -0.35671E-05  4993   0.613E-03    0.684E-03
RMM:   9    -0.413165734071E+03    0.40771E-05   -0.80975E-06  3286   0.369E-03    0.356E-03
RMM:  10    -0.413165733325E+03    0.74612E-06   -0.13494E-06  2527   0.196E-03
   10 T=    61. E= -.41286643E+03 F= -.41316573E+03 E0= -.41314335E+03  EK= 0.29930E+00 SP= 0.00E+00 SK= 0.00E+00
       N       E                     dE             d eps       ncg     rms          rms(c)
RMM:   1    -0.413157463672E+03    0.82704E-02   -0.11015E+01  4301   0.730E-01    0.884E-01
RMM:   2    -0.413168052070E+03   -0.10588E-01   -0.13452E-01  4213   0.975E-02    0.635E-01
RMM:   3    -0.413166956564E+03    0.10955E-02   -0.67752E-03  4945   0.406E-02    0.168E-01
RMM:   4    -0.413202059545E+03   -0.35103E-01   -0.36314E-02  5151   0.158E-01    0.780E-01
RMM:   5    -0.413166267831E+03    0.35792E-01   -0.17453E-02  4808   0.130E-01    0.415E-02
RMM:   6    -0.413166467908E+03   -0.20008E-03   -0.28160E-03  5767   0.509E-02    0.200E-02
RMM:   7    -0.413166485529E+03   -0.17621E-04   -0.34660E-04  5927   0.152E-02    0.147E-02
RMM:   8    -0.413166487231E+03   -0.17027E-05   -0.42307E-05  4665   0.597E-03    0.797E-03
RMM:   9    -0.413166487859E+03   -0.62744E-06   -0.88743E-06  3263   0.320E-03
   11 T=    61. E= -.41286671E+03 F= -.41316649E+03 E0= -.41314413E+03  EK= 0.29978E+00 SP= 0.00E+00 SK= 0.00E+00
       N       E                     dE             d eps       ncg     rms          rms(c)
RMM:   1    -0.413157547320E+03    0.89399E-02   -0.11096E+01  4300   0.738E-01    0.896E-01
RMM:   2    -0.413167837187E+03   -0.10290E-01   -0.13616E-01  4297   0.984E-02    0.642E-01
RMM:   3    -0.413171484170E+03   -0.36470E-02   -0.10927E-02  5144   0.749E-02    0.337E-01
RMM:   4    -0.413193221145E+03   -0.21737E-01   -0.41134E-02  5102   0.172E-01    0.682E-01
RMM:   5    -0.413166316416E+03    0.26905E-01   -0.10891E-02  4709   0.113E-01    0.540E-02
RMM:   6    -0.413166338127E+03   -0.21711E-04   -0.18774E-03  5510   0.428E-02    0.183E-02
RMM:   7    -0.413166359603E+03   -0.21476E-04   -0.27981E-04  6035   0.150E-02    0.128E-02
RMM:   8    -0.413166362420E+03   -0.28171E-05   -0.40778E-05  5051   0.626E-03    0.700E-03
RMM:   9    -0.413166363708E+03   -0.12879E-05   -0.86491E-06  3307   0.376E-03    0.372E-03
RMM:  10    -0.413166365084E+03   -0.13764E-05   -0.16496E-06  2545   0.202E-03    0.220E-03
RMM:  11    -0.413166367034E+03   -0.19494E-05   -0.13265E-06  2549   0.174E-03    0.132E-03
RMM:  12    -0.413166367746E+03   -0.71196E-06   -0.56961E-07  2386   0.121E-03
   12 T=    61. E= -.41286632E+03 F= -.41316637E+03 E0= -.41314404E+03  EK= 0.30005E+00 SP= 0.00E+00 SK= 0.00E+00
       N       E                     dE             d eps       ncg     rms          rms(c)
RMM:   1    -0.413158588199E+03    0.77788E-02   -0.11116E+01  4296   0.747E-01    0.914E-01
RMM:   2    -0.413167998009E+03   -0.94098E-02   -0.13316E-01  4222   0.954E-02    0.633E-01
RMM:   3    -0.413167567381E+03    0.43063E-03   -0.74113E-03  5022   0.407E-02    0.181E-01
RMM:   4    -0.413206798078E+03   -0.39231E-01   -0.41220E-02  5149   0.168E-01    0.823E-01
RMM:   5    -0.413166806832E+03    0.39991E-01   -0.19366E-02  4796   0.138E-01    0.448E-02
RMM:   6    -0.413167018071E+03   -0.21124E-03   -0.30714E-03  5761   0.537E-02    0.223E-02
RMM:   7    -0.413167030818E+03   -0.12747E-04   -0.37651E-04  5944   0.160E-02    0.162E-02
RMM:   8    -0.413167027490E+03    0.33281E-05   -0.50205E-05  4932   0.652E-03    0.917E-03
RMM:   9    -0.413167022090E+03    0.54005E-05   -0.96793E-06  3362   0.335E-03    0.576E-03
RMM:  10    -0.413167018559E+03    0.35313E-05   -0.22294E-06  2560   0.211E-03    0.328E-03
RMM:  11    -0.413167015289E+03    0.32696E-05   -0.15541E-06  2538   0.187E-03    0.153E-03
RMM:  12    -0.413167012417E+03    0.28717E-05   -0.87407E-07  2471   0.147E-03    0.462E-04
RMM:  13    -0.413167011693E+03    0.72411E-06   -0.35037E-07  2101   0.994E-04
   13 T=    61. E= -.41286645E+03 F= -.41316701E+03 E0= -.41314471E+03  EK= 0.30056E+00 SP= 0.00E+00 SK= 0.00E+00
       N       E                     dE             d eps       ncg     rms          rms(c)
RMM:   1    -0.413158625265E+03    0.83872E-02   -0.11032E+01  4297   0.742E-01    0.888E-01
RMM:   2    -0.413168883534E+03   -0.10258E-01   -0.13477E-01  4237   0.958E-02    0.633E-01
RMM:   3    -0.413167936159E+03    0.94737E-03   -0.68123E-03  4894   0.382E-02    0.165E-01
RMM:   4    -0.413199173975E+03   -0.31238E-01   -0.32120E-02  5146   0.149E-01    0.736E-01
RMM:   5    -0.413167378394E+03    0.31796E-01   -0.15639E-02  4804   0.123E-01    0.379E-02
RMM:   6    -0.413167558621E+03   -0.18023E-03   -0.24315E-03  5791   0.477E-02    0.204E-02
RMM:   7    -0.413167568412E+03   -0.97910E-05   -0.29291E-04  5891   0.145E-02    0.145E-02
RMM:   8    -0.413167567702E+03    0.70980E-06   -0.42679E-05  4777   0.609E-03    0.845E-03
RMM:   9    -0.413167565337E+03    0.23658E-05   -0.85016E-06  3298   0.326E-03    0.564E-03
RMM:  10    -0.413167564867E+03    0.46919E-06   -0.18748E-06  2548   0.201E-03
   14 T=    61. E= -.41286652E+03 F= -.41316756E+03 E0= -.41314530E+03  EK= 0.30105E+00 SP= 0.00E+00 SK= 0.00E+00
       N       E                     dE             d eps       ncg     rms          rms(c)
RMM:   1    -0.413158601991E+03    0.89633E-02   -0.11121E+01  4307   0.752E-01    0.892E-01
RMM:   2    -0.413169517615E+03   -0.10916E-01   -0.13725E-01  4292   0.989E-02    0.644E-01
RMM:   3    -0.413170935428E+03   -0.14178E-02   -0.92944E-03  5128   0.638E-02    0.283E-01
RMM:   4    -0.413203750869E+03   -0.32815E-01   -0.47193E-02  5112   0.182E-01    0.785E-01
RMM:   5    -0.413167593320E+03    0.36158E-01   -0.15628E-02  4736   0.130E-01    0.518E-02
RMM:   6    -0.413167697315E+03   -0.10399E-03   -0.25379E-03  5635   0.498E-02    0.174E-02
RMM:   7    -0.413167722379E+03   -0.25064E-04   -0.33184E-04  6005   0.153E-02    0.132E-02
RMM:   8    -0.413167725507E+03   -0.31284E-05   -0.45512E-05  4996   0.642E-03    0.707E-03
RMM:   9    -0.413167725954E+03   -0.44666E-06   -0.82084E-06  3078   0.333E-03
   15 T=    61. E= -.41286629E+03 F= -.41316773E+03 E0= -.41314549E+03  EK= 0.30144E+00 SP= 0.00E+00 SK= 0.00E+00
       N       E                     dE             d eps       ncg     rms          rms(c)
RMM:   1    -0.413160579478E+03    0.71460E-02   -0.11163E+01  4296   0.765E-01    0.916E-01
RMM:   2    -0.413169788156E+03   -0.92087E-02   -0.13490E-01  4259   0.101E-01    0.636E-01
RMM:   3    -0.413168913525E+03    0.87463E-03   -0.71456E-03  4795   0.380E-02    0.163E-01
RMM:   4    -0.413191910661E+03   -0.22997E-01   -0.23226E-02  5147   0.127E-01    0.634E-01
RMM:   5    -0.413168538546E+03    0.23372E-01   -0.11504E-02  4813   0.105E-01    0.345E-02
RMM:   6    -0.413168672032E+03   -0.13349E-03   -0.18066E-03  5847   0.408E-02    0.203E-02
RMM:   7    -0.413168673467E+03   -0.14345E-05   -0.22208E-04  5869   0.132E-02    0.139E-02
RMM:   8    -0.413168668688E+03    0.47786E-05   -0.32579E-05  4560   0.564E-03    0.742E-03
RMM:   9    -0.413168663590E+03    0.50986E-05   -0.68800E-06  3123   0.308E-03    0.514E-03
RMM:  10    -0.413168660425E+03    0.31650E-05   -0.14096E-06  2531   0.186E-03    0.315E-03
RMM:  11    -0.413168656190E+03    0.42343E-05   -0.14827E-06  2542   0.183E-03    0.146E-03
RMM:  12    -0.413168652490E+03    0.36998E-05   -0.83825E-07  2450   0.139E-03    0.555E-04
RMM:  13    -0.413168651933E+03    0.55703E-06   -0.26392E-07  1888   0.874E-04
   16 T=    62. E= -.41286652E+03 F= -.41316865E+03 E0= -.41314645E+03  EK= 0.30213E+00 SP= 0.00E+00 SK= 0.00E+00
       N       E                     dE             d eps       ncg     rms          rms(c)
RMM:   1    -0.413160243940E+03    0.84086E-02   -0.11075E+01  4298   0.754E-01    0.895E-01
RMM:   2    -0.413170496482E+03   -0.10253E-01   -0.13508E-01  4260   0.993E-02    0.633E-01
RMM:   3    -0.413169444739E+03    0.10517E-02   -0.69152E-03  4887   0.424E-02    0.171E-01
RMM:   4    -0.413203682893E+03   -0.34238E-01   -0.35250E-02  5143   0.156E-01    0.769E-01
RMM:   5    -0.413168900971E+03    0.34782E-01   -0.17123E-02  4801   0.129E-01    0.400E-02
RMM:   6    -0.413169097238E+03   -0.19627E-03   -0.26984E-03  5796   0.501E-02    0.213E-02
RMM:   7    -0.413169106701E+03   -0.94626E-05   -0.32433E-04  5909   0.151E-02    0.152E-02
RMM:   8    -0.413169104051E+03    0.26499E-05   -0.45672E-05  4825   0.626E-03    0.887E-03
RMM:   9    -0.413169099396E+03    0.46545E-05   -0.92280E-06  3345   0.333E-03    0.587E-03
RMM:  10    -0.413169096637E+03    0.27597E-05   -0.19905E-06  2547   0.206E-03    0.342E-03
RMM:  11    -0.413169093728E+03    0.29091E-05   -0.16868E-06  2548   0.195E-03    0.160E-03
RMM:  12    -0.413169091334E+03    0.23936E-05   -0.85395E-07  2467   0.148E-03    0.514E-04
RMM:  13    -0.413169090812E+03    0.52245E-06   -0.32738E-07  2091   0.971E-04
   17 T=    62. E= -.41286641E+03 F= -.41316909E+03 E0= -.41314693E+03  EK= 0.30268E+00 SP= 0.00E+00 SK= 0.00E+00
       N       E                     dE             d eps       ncg     rms          rms(c)
RMM:   1    -0.413160574102E+03    0.85172E-02   -0.11153E+01  4299   0.767E-01    0.890E-01
RMM:   2    -0.413171508127E+03   -0.10934E-01   -0.13776E-01  4272   0.103E-01    0.645E-01
RMM:   3    -0.413170111847E+03    0.13963E-02   -0.68871E-03  4911   0.414E-02    0.168E-01
RMM:   4    -0.413206639190E+03   -0.36527E-01   -0.38009E-02  5140   0.162E-01    0.795E-01
RMM:   5    -0.413169406551E+03    0.37233E-01   -0.18290E-02  4798   0.133E-01    0.406E-02
RMM:   6    -0.413169612313E+03   -0.20576E-03   -0.28624E-03  5790   0.515E-02    0.208E-02
RMM:   7    -0.413169626978E+03   -0.14665E-04   -0.33898E-04  5915   0.155E-02    0.152E-02
RMM:   8    -0.413169627285E+03   -0.30725E-06   -0.47920E-05  4861   0.637E-03    0.893E-03
RMM:   9    -0.413169625464E+03    0.18215E-05   -0.95806E-06  3371   0.340E-03    0.584E-03
RMM:  10    -0.413169625780E+03   -0.31653E-06   -0.21869E-06  2553   0.212E-03
   18 T=    62. E= -.41286630E+03 F= -.41316963E+03 E0= -.41314751E+03  EK= 0.30332E+00 SP= 0.00E+00 SK= 0.00E+00
       N       E                     dE             d eps       ncg     rms          rms(c)
RMM:   1    -0.413162228816E+03    0.73966E-02   -0.11208E+01  4302   0.766E-01    0.915E-01
RMM:   2    -0.413171909493E+03   -0.96807E-02   -0.13614E-01  4304   0.993E-02    0.640E-01
RMM:   3    -0.413174666462E+03   -0.27570E-02   -0.10151E-02  5121   0.688E-02    0.306E-01
RMM:   4    -0.413200243643E+03   -0.25577E-01   -0.41571E-02  5090   0.172E-01    0.714E-01
RMM:   5    -0.413170649082E+03    0.29595E-01   -0.12359E-02  4716   0.118E-01    0.505E-02
RMM:   6    -0.413170717208E+03   -0.68126E-04   -0.20776E-03  5585   0.450E-02    0.192E-02
RMM:   7    -0.413170730969E+03   -0.13761E-04   -0.27850E-04  5994   0.145E-02    0.134E-02
RMM:   8    -0.413170727606E+03    0.33632E-05   -0.40881E-05  4982   0.628E-03    0.699E-03
RMM:   9    -0.413170719988E+03    0.76178E-05   -0.73845E-06  3005   0.331E-03    0.314E-03
RMM:  10    -0.413170717245E+03    0.27433E-05   -0.17666E-06  2543   0.192E-03    0.188E-03
RMM:  11    -0.413170713302E+03    0.39426E-05   -0.99264E-07  2511   0.152E-03    0.110E-03
RMM:  12    -0.413170710671E+03    0.26308E-05   -0.48999E-07  2155   0.111E-03    0.524E-04
RMM:  13    -0.413170708287E+03    0.23848E-05   -0.30312E-07  1834   0.894E-04    0.234E-04
RMM:  14    -0.413170706700E+03    0.15865E-05   -0.18342E-07  1448   0.740E-04    0.148E-04
RMM:  15    -0.413170703364E+03    0.33360E-05   -0.22844E-07  1670   0.773E-04    0.150E-04
RMM:  16    -0.413170701825E+03    0.15387E-05   -0.11603E-07  1240   0.630E-04    0.124E-04
RMM:  17    -0.413170699812E+03    0.20138E-05   -0.97132E-08  1215   0.614E-04    0.551E-05
RMM:  18    -0.413170698414E+03    0.13976E-05   -0.60948E-08   998   0.559E-04    0.329E-05
RMM:  19    -0.413170697657E+03    0.75731E-06   -0.35904E-08   848   0.531E-04
   19 T=    62. E= -.41286650E+03 F= -.41317070E+03 E0= -.41314862E+03  EK= 0.30420E+00 SP= 0.00E+00 SK= 0.00E+00
       N       E                     dE             d eps       ncg     rms          rms(c)
RMM:   1    -0.413166848704E+03    0.38497E-02   -0.11196E+01  4298   0.797E-01    0.904E-01
RMM:   2    -0.413172501268E+03   -0.56526E-02   -0.14395E-01  4270   0.103E-01    0.635E-01
RMM:   3    -0.413171687073E+03    0.81420E-03   -0.69745E-03  4944   0.405E-02    0.187E-01
RMM:   4    -0.413210354879E+03   -0.38668E-01   -0.40285E-02  5145   0.166E-01    0.816E-01
RMM:   5    -0.413171014275E+03    0.39341E-01   -0.19328E-02  4800   0.137E-01    0.432E-02
RMM:   6    -0.413171217413E+03   -0.20314E-03   -0.30469E-03  5784   0.531E-02    0.223E-02
RMM:   7    -0.413171227392E+03   -0.99796E-05   -0.36638E-04  5882   0.161E-02    0.160E-02
RMM:   8    -0.413171223084E+03    0.43081E-05   -0.51523E-05  4971   0.663E-03    0.928E-03
RMM:   9    -0.413171216541E+03    0.65438E-05   -0.10202E-05  3458   0.347E-03    0.601E-03
RMM:  10    -0.413171212096E+03    0.44442E-05   -0.21593E-06  2551   0.213E-03    0.347E-03
RMM:  11    -0.413171207909E+03    0.41872E-05   -0.15799E-06  2529   0.192E-03    0.165E-03
RMM:  12    -0.413171204586E+03    0.33232E-05   -0.84564E-07  2469   0.150E-03    0.497E-04
RMM:  13    -0.413171203859E+03    0.72672E-06   -0.34346E-07  2137   0.100E-03
   20 T=    62. E= -.41286634E+03 F= -.41317120E+03 E0= -.41314917E+03  EK= 0.30487E+00 SP= 0.00E+00 SK= 0.00E+00
       N       E                     dE             d eps       ncg     rms          rms(c)
RMM:   1    -0.413163166571E+03    0.80380E-02   -0.11191E+01  4300   0.777E-01    0.890E-01
RMM:   2    -0.413173943677E+03   -0.10777E-01   -0.13900E-01  4275   0.101E-01    0.645E-01
RMM:   3    -0.413172676815E+03    0.12669E-02   -0.69127E-03  4917   0.417E-02    0.169E-01
RMM:   4    -0.413208931338E+03   -0.36255E-01   -0.37738E-02  5136   0.161E-01    0.792E-01
RMM:   5    -0.413171957713E+03    0.36974E-01   -0.18211E-02  4798   0.133E-01    0.403E-02
RMM:   6    -0.413172162709E+03   -0.20500E-03   -0.28760E-03  5797   0.517E-02    0.209E-02
RMM:   7    -0.413172177485E+03   -0.14776E-04   -0.33677E-04  5902   0.156E-02    0.152E-02
RMM:   8    -0.413172176877E+03    0.60805E-06   -0.49549E-05  4897   0.651E-03    0.910E-03
RMM:   9    -0.413172173577E+03    0.32998E-05   -0.10069E-05  3442   0.350E-03    0.596E-03
RMM:  10    -0.413172172465E+03    0.11120E-05   -0.22231E-06  2562   0.215E-03    0.345E-03
RMM:  11    -0.413172171456E+03    0.10084E-05   -0.18987E-06  2567   0.204E-03    0.162E-03
RMM:  12    -0.413172170423E+03    0.10335E-05   -0.84270E-07  2465   0.149E-03    0.526E-04
RMM:  13    -0.413172170181E+03    0.24214E-06   -0.32560E-07  2091   0.970E-04
   21 T=    62. E= -.41286645E+03 F= -.41317217E+03 E0= -.41315018E+03  EK= 0.30572E+00 SP= 0.00E+00 SK= 0.00E+00
       N       E                     dE             d eps       ncg     rms          rms(c)
RMM:   1    -0.413164501187E+03    0.76692E-02   -0.11263E+01  4300   0.781E-01    0.912E-01
RMM:   2    -0.413174732390E+03   -0.10231E-01   -0.13779E-01  4284   0.999E-02    0.644E-01
RMM:   3    -0.413173790854E+03    0.94154E-03   -0.71619E-03  4913   0.413E-02    0.175E-01
RMM:   4    -0.413210410052E+03   -0.36619E-01   -0.38028E-02  5140   0.162E-01    0.795E-01
RMM:   5    -0.413173176468E+03    0.37234E-01   -0.18352E-02  4794   0.133E-01    0.413E-02
RMM:   6    -0.413173373328E+03   -0.19686E-03   -0.28762E-03  5792   0.518E-02    0.219E-02
RMM:   7    -0.413173383482E+03   -0.10154E-04   -0.34135E-04  5902   0.157E-02    0.157E-02
RMM:   8    -0.413173379448E+03    0.40341E-05   -0.50032E-05  4942   0.659E-03    0.927E-03
RMM:   9    -0.413173372814E+03    0.66338E-05   -0.99309E-06  3451   0.348E-03    0.606E-03
RMM:  10    -0.413173368365E+03    0.44488E-05   -0.21004E-06  2555   0.212E-03    0.352E-03
RMM:  11    -0.413173363641E+03    0.47244E-05   -0.17525E-06  2549   0.201E-03    0.164E-03
RMM:  12    -0.413173360073E+03    0.35675E-05   -0.82891E-07  2468   0.151E-03    0.516E-04
RMM:  13    -0.413173359310E+03    0.76358E-06   -0.32672E-07  2111   0.984E-04
   22 T=    62. E= -.41286669E+03 F= -.41317336E+03 E0= -.41315142E+03  EK= 0.30667E+00 SP= 0.00E+00 SK= 0.00E+00
       N       E                     dE             d eps       ncg     rms          rms(c)
RMM:   1    -0.413174665423E+03   -0.13053E-02   -0.11341E+01  4299   0.829E-01    0.914E-01
RMM:   2    -0.413175242844E+03   -0.57742E-03   -0.14029E-01  4283   0.107E-01    0.637E-01
RMM:   3    -0.413174434014E+03    0.80883E-03   -0.72299E-03  4870   0.432E-02    0.179E-01
RMM:   4    -0.413209074051E+03   -0.34640E-01   -0.35654E-02  5143   0.157E-01    0.774E-01
RMM:   5    -0.413173827977E+03    0.35246E-01   -0.17364E-02  4799   0.129E-01    0.410E-02
RMM:   6    -0.413174019905E+03   -0.19193E-03   -0.27949E-03  5801   0.504E-02    0.227E-02
RMM:   7    -0.413174026346E+03   -0.64407E-05   -0.32239E-04  5883   0.154E-02    0.157E-02
RMM:   8    -0.413174020397E+03    0.59491E-05   -0.49805E-05  4936   0.663E-03    0.950E-03
RMM:   9    -0.413174011707E+03    0.86900E-05   -0.10077E-05  3472   0.356E-03    0.625E-03
RMM:  10    -0.413174005336E+03    0.63701E-05   -0.20671E-06  2559   0.215E-03    0.368E-03
RMM:  11    -0.413173997887E+03    0.74490E-05   -0.19176E-06  2568   0.211E-03    0.169E-03
RMM:  12    -0.413173992369E+03    0.55180E-05   -0.84980E-07  2473   0.155E-03    0.553E-04
RMM:  13    -0.413173991334E+03    0.10358E-05   -0.32811E-07  2121   0.993E-04    0.390E-04
RMM:  14    -0.413173989921E+03    0.14124E-05   -0.16536E-07  1583   0.756E-04    0.229E-04
RMM:  15    -0.413173985239E+03    0.46819E-05   -0.20426E-07  1867   0.802E-04    0.293E-04
RMM:  16    -0.413173984797E+03    0.44188E-06   -0.63258E-08   991   0.584E-04
   23 T=    63. E= -.41286642E+03 F= -.41317398E+03 E0= -.41315209E+03  EK= 0.30757E+00 SP= 0.00E+00 SK= 0.00E+00
       N       E                     dE             d eps       ncg     rms          rms(c)
RMM:   1    -0.413166481366E+03    0.75039E-02   -0.11246E+01  4291   0.791E-01    0.893E-01
RMM:   2    -0.413177338559E+03   -0.10857E-01   -0.13967E-01  4276   0.105E-01    0.645E-01
RMM:   3    -0.413175866376E+03    0.14722E-02   -0.68681E-03  4836   0.418E-02    0.168E-01
RMM:   4    -0.413208035501E+03   -0.32169E-01   -0.33061E-02  5149   0.151E-01    0.746E-01
RMM:   5    -0.413175352261E+03    0.32683E-01   -0.16142E-02  4803   0.125E-01    0.383E-02
RMM:   6    -0.413175530148E+03   -0.17789E-03   -0.25665E-03  5803   0.482E-02    0.209E-02
RMM:   7    -0.413175539903E+03   -0.97557E-05   -0.29494E-04  5856   0.148E-02    0.146E-02
RMM:   8    -0.413175537743E+03    0.21604E-05   -0.45564E-05  4866   0.635E-03    0.883E-03
RMM:   9    -0.413175532772E+03    0.49706E-05   -0.95939E-06  3450   0.347E-03    0.585E-03
RMM:  10    -0.413175530507E+03    0.22651E-05   -0.19213E-06  2547   0.208E-03    0.348E-03
RMM:  11    -0.413175528084E+03    0.24235E-05   -0.17669E-06  2546   0.202E-03    0.162E-03
RMM:  12    -0.413175526110E+03    0.19734E-05   -0.79924E-07  2463   0.149E-03    0.533E-04
RMM:  13    -0.413175525730E+03    0.38079E-06   -0.30288E-07  2074   0.951E-04
   24 T=    63. E= -.41286669E+03 F= -.41317553E+03 E0= -.41315368E+03  EK= 0.30884E+00 SP= 0.00E+00 SK= 0.00E+00
       N       E                     dE             d eps       ncg     rms          rms(c)
RMM:   1    -0.413167591664E+03    0.79344E-02   -0.11350E+01  4298   0.796E-01    0.909E-01
RMM:   2    -0.413178308564E+03   -0.10717E-01   -0.13959E-01  4280   0.107E-01    0.650E-01
RMM:   3    -0.413176897461E+03    0.14111E-02   -0.70108E-03  4803   0.435E-02    0.167E-01
RMM:   4    -0.413207204315E+03   -0.30307E-01   -0.30873E-02  5149   0.146E-01    0.724E-01
RMM:   5    -0.413176404382E+03    0.30800E-01   -0.15224E-02  4810   0.121E-01    0.373E-02
RMM:   6    -0.413176572605E+03   -0.16822E-03   -0.24038E-03  5812   0.466E-02    0.209E-02
RMM:   7    -0.413176580093E+03   -0.74880E-05   -0.26362E-04  5849   0.143E-02    0.140E-02
RMM:   8    -0.413176577211E+03    0.28818E-05   -0.44839E-05  4881   0.632E-03    0.898E-03
RMM:   9    -0.413176570757E+03    0.64533E-05   -0.97586E-06  3535   0.355E-03    0.594E-03
RMM:  10    -0.413176567142E+03    0.36152E-05   -0.18530E-06  2544   0.211E-03    0.357E-03
RMM:  11    -0.413176562721E+03    0.44212E-05   -0.19211E-06  2563   0.211E-03    0.165E-03
RMM:  12    -0.413176559445E+03    0.32757E-05   -0.78503E-07  2461   0.150E-03    0.545E-04
RMM:  13    -0.413176558844E+03    0.60091E-06   -0.29661E-07  2064   0.943E-04
   25 T=    63. E= -.41286652E+03 F= -.41317656E+03 E0= -.41315476E+03  EK= 0.31004E+00 SP= 0.00E+00 SK= 0.00E+00
       N       E                     dE             d eps       ncg     rms          rms(c)
RMM:   1    -0.413169227230E+03    0.73322E-02   -0.11378E+01  4296   0.807E-01    0.924E-01
RMM:   2    -0.413178908149E+03   -0.96809E-02   -0.13860E-01  4275   0.108E-01    0.642E-01
RMM:   3    -0.413177994915E+03    0.91323E-03   -0.72425E-03  4767   0.424E-02    0.170E-01
RMM:   4    -0.413204954161E+03   -0.26959E-01   -0.27284E-02  5152   0.138E-01    0.684E-01
RMM:   5    -0.413177637149E+03    0.27317E-01   -0.13586E-02  4811   0.114E-01    0.370E-02
RMM:   6    -0.413177783125E+03   -0.14598E-03   -0.21472E-03  5815   0.438E-02    0.212E-02
RMM:   7    -0.413177785237E+03   -0.21125E-05   -0.22715E-04  5789   0.135E-02    0.131E-02
RMM:   8    -0.413177779392E+03    0.58453E-05   -0.41889E-05  4854   0.612E-03    0.879E-03
RMM:   9    -0.413177770510E+03    0.88818E-05   -0.96488E-06  3593   0.355E-03    0.590E-03
RMM:  10    -0.413177764314E+03    0.61963E-05   -0.16773E-06  2538   0.209E-03    0.364E-03
RMM:  11    -0.413177755473E+03    0.88409E-05   -0.19018E-06  2561   0.213E-03    0.165E-03
RMM:  12    -0.413177748957E+03    0.65154E-05   -0.75532E-07  2464   0.151E-03    0.556E-04
RMM:  13    -0.413177747965E+03    0.99261E-06   -0.27761E-07  2044   0.930E-04
   26 T=    63. E= -.41286638E+03 F= -.41317775E+03 E0= -.41315600E+03  EK= 0.31137E+00 SP= 0.00E+00 SK= 0.00E+00
       N       E                     dE             d eps       ncg     rms          rms(c)
RMM:   1    -0.413170422951E+03    0.73260E-02   -0.11340E+01  4295   0.806E-01    0.899E-01
RMM:   2    -0.413181108545E+03   -0.10686E-01   -0.14029E-01  4280   0.105E-01    0.645E-01
RMM:   3    -0.413179895753E+03    0.12128E-02   -0.68817E-03  4704   0.422E-02    0.164E-01
RMM:   4    -0.413202373531E+03   -0.22478E-01   -0.22726E-02  5152   0.126E-01    0.626E-01
RMM:   5    -0.413179560749E+03    0.22813E-01   -0.11359E-02  4811   0.104E-01    0.333E-02
RMM:   6    -0.413179683416E+03   -0.12267E-03   -0.18079E-03  5830   0.398E-02    0.193E-02
RMM:   7    -0.413179686311E+03   -0.28954E-05   -0.18342E-04  5677   0.122E-02    0.113E-02
RMM:   8    -0.413179682615E+03    0.36960E-05   -0.32866E-05  4646   0.551E-03    0.773E-03
RMM:   9    -0.413179676780E+03    0.58357E-05   -0.87642E-06  3488   0.338E-03    0.542E-03
RMM:  10    -0.413179673536E+03    0.32435E-05   -0.15141E-06  2537   0.203E-03    0.342E-03
RMM:  11    -0.413179668206E+03    0.53299E-05   -0.18078E-06  2551   0.207E-03    0.158E-03
RMM:  12    -0.413179664027E+03    0.41795E-05   -0.73529E-07  2456   0.147E-03    0.586E-04
RMM:  13    -0.413179663542E+03    0.48496E-06   -0.24209E-07  1963   0.886E-04
   27 T=    64. E= -.41286672E+03 F= -.41317966E+03 E0= -.41315797E+03  EK= 0.31294E+00 SP= 0.00E+00 SK= 0.00E+00
       N       E                     dE             d eps       ncg     rms          rms(c)
RMM:   1    -0.413171931109E+03    0.77329E-02   -0.11469E+01  4293   0.839E-01    0.908E-01
RMM:   2    -0.413182301890E+03   -0.10371E-01   -0.14330E-01  4273   0.108E-01    0.656E-01
RMM:   3    -0.413180891630E+03    0.14103E-02   -0.70375E-03  4615   0.429E-02    0.160E-01
RMM:   4    -0.413198603775E+03   -0.17712E-01   -0.18036E-02  5154   0.113E-01    0.558E-01
RMM:   5    -0.413180582420E+03    0.18021E-01   -0.89478E-03  4813   0.922E-02    0.305E-02
RMM:   6    -0.413180669169E+03   -0.86748E-04   -0.14300E-03  5851   0.350E-02    0.180E-02
RMM:   7    -0.413180670624E+03   -0.14557E-05   -0.13811E-04  5501   0.108E-02    0.950E-03
RMM:   8    -0.413180665252E+03    0.53722E-05   -0.20315E-05  3997   0.446E-03    0.583E-03
RMM:   9    -0.413180661494E+03    0.37581E-05   -0.30412E-06  2627   0.217E-03    0.366E-03
RMM:  10    -0.413180658086E+03    0.34078E-05   -0.13137E-06  2519   0.173E-03    0.216E-03
RMM:  11    -0.413180654916E+03    0.31697E-05   -0.10337E-06  2484   0.162E-03    0.101E-03
RMM:  12    -0.413180652614E+03    0.23028E-05   -0.42132E-07  2253   0.111E-03    0.447E-04
RMM:  13    -0.413180651933E+03    0.68116E-06   -0.18654E-07  1495   0.760E-04
   28 T=    64. E= -.41286632E+03 F= -.41318065E+03 E0= -.41315900E+03  EK= 0.31433E+00 SP= 0.00E+00 SK= 0.00E+00
       N       E                     dE             d eps       ncg     rms          rms(c)
RMM:   1    -0.413174818849E+03    0.58338E-02   -0.11537E+01  4292   0.843E-01    0.932E-01
RMM:   2    -0.413183938944E+03   -0.91201E-02   -0.14162E-01  4274   0.111E-01    0.648E-01
RMM:   3    -0.413182860340E+03    0.10786E-02   -0.73909E-03  4467   0.421E-02    0.164E-01
RMM:   4    -0.413191497256E+03   -0.86369E-02   -0.89273E-03  5170   0.796E-02    0.389E-01
RMM:   5    -0.413182875425E+03    0.86218E-02   -0.42886E-03  4830   0.637E-02    0.278E-02
RMM:   6    -0.413182897893E+03   -0.22468E-04   -0.72149E-04  5853   0.248E-02    0.184E-02
RMM:   7    -0.413182891893E+03    0.59996E-05   -0.11670E-04  5453   0.105E-02    0.109E-02
RMM:   8    -0.413182879701E+03    0.12192E-04   -0.15746E-05  3966   0.461E-03    0.467E-03
RMM:   9    -0.413182874612E+03    0.50890E-05   -0.30337E-06  2748   0.237E-03    0.357E-03
RMM:  10    -0.413182868941E+03    0.56708E-05   -0.77858E-07  2481   0.153E-03    0.218E-03
RMM:  11    -0.413182861113E+03    0.78281E-05   -0.67337E-07  2463   0.136E-03    0.966E-04
RMM:  12    -0.413182855476E+03    0.56377E-05   -0.35106E-07  2117   0.999E-04    0.368E-04
RMM:  13    -0.413182853704E+03    0.17714E-05   -0.14991E-07  1380   0.722E-04    0.202E-04
RMM:  14    -0.413182850884E+03    0.28203E-05   -0.99251E-08  1183   0.664E-04    0.115E-04
RMM:  15    -0.413182845986E+03    0.48981E-05   -0.10287E-07  1398   0.690E-04    0.136E-04
RMM:  16    -0.413182845292E+03    0.69429E-06   -0.43838E-08   910   0.574E-04
   29 T=    64. E= -.41286670E+03 F= -.41318285E+03 E0= -.41316125E+03  EK= 0.31614E+00 SP= 0.00E+00 SK= 0.00E+00
       N       E                     dE             d eps       ncg     rms          rms(c)
RMM:   1    -0.413175384291E+03    0.74617E-02   -0.11478E+01  4292   0.834E-01    0.909E-01
RMM:   2    -0.413186141177E+03   -0.10757E-01   -0.14322E-01  4274   0.111E-01    0.647E-01
RMM:   3    -0.413184710193E+03    0.14310E-02   -0.70754E-03  4425   0.456E-02    0.162E-01
RMM:   4    -0.413192550584E+03   -0.78404E-02   -0.83167E-03  5148   0.787E-02    0.373E-01
RMM:   5    -0.413184626930E+03    0.79237E-02   -0.39537E-03  4825   0.610E-02    0.260E-02
RMM:   6    -0.413184641419E+03   -0.14489E-04   -0.61742E-04  5830   0.235E-02    0.177E-02
RMM:   7    -0.413184636150E+03    0.52695E-05   -0.10505E-04  5398   0.101E-02    0.100E-02
RMM:   8    -0.413184626294E+03    0.98556E-05   -0.13925E-05  3893   0.445E-03    0.424E-03
RMM:   9    -0.413184623062E+03    0.32319E-05   -0.27111E-06  2707   0.228E-03    0.319E-03
RMM:  10    -0.413184619312E+03    0.37505E-05   -0.72781E-07  2464   0.145E-03    0.195E-03
RMM:  11    -0.413184614207E+03    0.51047E-05   -0.59661E-07  2424   0.126E-03    0.875E-04
RMM:  12    -0.413184610562E+03    0.36452E-05   -0.31726E-07  2003   0.935E-04    0.341E-04
RMM:  13    -0.413184609135E+03    0.14272E-05   -0.13928E-07  1294   0.697E-04    0.181E-04
RMM:  14    -0.413184606917E+03    0.22172E-05   -0.99303E-08  1143   0.656E-04    0.933E-05
RMM:  15    -0.413184603718E+03    0.31995E-05   -0.91302E-08  1243   0.666E-04    0.111E-04
RMM:  16    -0.413184602922E+03    0.79636E-06   -0.45240E-08   914   0.584E-04
   30 T=    65. E= -.41286663E+03 F= -.41318460E+03 E0= -.41316306E+03  EK= 0.31798E+00 SP= 0.00E+00 SK= 0.00E+00
       N       E                     dE             d eps       ncg     rms          rms(c)
RMM:   1    -0.413177543495E+03    0.70602E-02   -0.11618E+01  4290   0.873E-01    0.911E-01
RMM:   2    -0.413188600265E+03   -0.11057E-01   -0.14873E-01  4274   0.123E-01    0.662E-01
RMM:   3    -0.413186277548E+03    0.23227E-02   -0.70180E-03  4273   0.433E-02    0.158E-01
RMM:   4    -0.413188069517E+03   -0.17920E-02   -0.26458E-03  5096   0.432E-02    0.178E-01
RMM:   5    -0.413186290209E+03    0.17793E-02   -0.86967E-04  4795   0.295E-02    0.224E-02
RMM:   6    -0.413186285719E+03    0.44894E-05   -0.17905E-04  5636   0.137E-02    0.169E-02
RMM:   7    -0.413186278412E+03    0.73070E-05   -0.63760E-05  4906   0.791E-03    0.621E-03
RMM:   8    -0.413186274826E+03    0.35865E-05   -0.51297E-06  2974   0.308E-03    0.344E-03
RMM:   9    -0.413186273878E+03    0.94760E-06   -0.72689E-07  2478   0.159E-03
   31 T=    65. E= -.41286638E+03 F= -.41318627E+03 E0= -.41316478E+03  EK= 0.31990E+00 SP= 0.00E+00 SK= 0.00E+00
       N       E                     dE             d eps       ncg     rms          rms(c)
RMM:   1    -0.413191153723E+03   -0.48789E-02   -0.11818E+01  4292   0.936E-01    0.937E-01
RMM:   2    -0.413190297622E+03    0.85610E-03   -0.15844E-01  4290   0.127E-01    0.657E-01
RMM:   3    -0.413188915174E+03    0.13824E-02   -0.73414E-03  4247   0.476E-02    0.179E-01
RMM:   4    -0.413189022414E+03   -0.10724E-03   -0.12432E-03  4638   0.286E-02    0.264E-02
RMM:   5    -0.413189005079E+03    0.17335E-04   -0.90797E-05  4824   0.106E-02    0.217E-02
RMM:   6    -0.413189047026E+03   -0.41947E-04   -0.70422E-05  5187   0.790E-03    0.338E-02
RMM:   7    -0.413188977004E+03    0.70022E-04   -0.62975E-05  4786   0.807E-03    0.609E-03
RMM:   8    -0.413188971430E+03    0.55736E-05   -0.91203E-06  3645   0.389E-03    0.324E-03
RMM:   9    -0.413188969468E+03    0.19628E-05   -0.10556E-06  2442   0.173E-03    0.155E-03
RMM:  10    -0.413188959885E+03    0.95830E-05   -0.62847E-07  2324   0.123E-03    0.645E-04
RMM:  11    -0.413188954017E+03    0.58678E-05   -0.26287E-07  1648   0.822E-04    0.273E-04
RMM:  12    -0.413188950804E+03    0.32126E-05   -0.15319E-07  1467   0.715E-04    0.179E-04
RMM:  13    -0.413188944605E+03    0.61990E-05   -0.14708E-07  1515   0.712E-04    0.139E-04
RMM:  14    -0.413188938085E+03    0.65202E-05   -0.10535E-07  1222   0.647E-04    0.880E-05
RMM:  15    -0.413188936351E+03    0.17342E-05   -0.45239E-08   846   0.548E-04    0.538E-05
RMM:  16    -0.413188933255E+03    0.30957E-05   -0.49427E-08   970   0.561E-04    0.406E-05
RMM:  17    -0.413188932560E+03    0.69541E-06   -0.21177E-08   668   0.500E-04
   32 T=    66. E= -.41286674E+03 F= -.41318893E+03 E0= -.41316748E+03  EK= 0.32219E+00 SP= 0.00E+00 SK= 0.00E+00
       N       E                     dE             d eps       ncg     rms          rms(c)
RMM:   1    -0.413196364726E+03   -0.74315E-02   -0.11824E+01  4285   0.960E-01    0.923E-01
RMM:   2    -0.413192515727E+03    0.38490E-02   -0.16451E-01  4283   0.135E-01    0.654E-01
RMM:   3    -0.413190877202E+03    0.16385E-02   -0.68956E-03  4281   0.407E-02    0.187E-01
RMM:   4    -0.413193003735E+03   -0.21265E-02   -0.32032E-03  5102   0.492E-02    0.198E-01
RMM:   5    -0.413190839396E+03    0.21643E-02   -0.10577E-03  4787   0.328E-02    0.251E-02
RMM:   6    -0.413190826246E+03    0.13150E-04   -0.21589E-04  5633   0.154E-02    0.186E-02
RMM:   7    -0.413190812092E+03    0.14154E-04   -0.71024E-05  4986   0.838E-03    0.675E-03
RMM:   8    -0.413190805462E+03    0.66302E-05   -0.77548E-06  3385   0.359E-03    0.362E-03
RMM:   9    -0.413190803116E+03    0.23458E-05   -0.87650E-07  2492   0.172E-03    0.215E-03
RMM:  10    -0.413190796454E+03    0.66618E-05   -0.61162E-07  2374   0.124E-03    0.103E-03
RMM:  11    -0.413190791576E+03    0.48782E-05   -0.30278E-07  1937   0.907E-04    0.466E-04
RMM:  12    -0.413190787258E+03    0.43183E-05   -0.17545E-07  1451   0.760E-04    0.201E-04
RMM:  13    -0.413190784522E+03    0.27355E-05   -0.99529E-08  1095   0.655E-04    0.123E-04
RMM:  14    -0.413190781151E+03    0.33710E-05   -0.80025E-08  1113   0.636E-04    0.917E-05
RMM:  15    -0.413190776534E+03    0.46178E-05   -0.81814E-08  1246   0.641E-04    0.600E-05
RMM:  16    -0.413190775147E+03    0.13866E-05   -0.39034E-08   823   0.541E-04    0.476E-05
RMM:  17    -0.413190773160E+03    0.19873E-05   -0.30702E-08   790   0.538E-04    0.227E-05
RMM:  18    -0.413190772551E+03    0.60904E-06   -0.15743E-08   595   0.506E-04
   33 T=    66. E= -.41286645E+03 F= -.41319077E+03 E0= -.41316937E+03  EK= 0.32432E+00 SP= 0.00E+00 SK= 0.00E+00
       N       E                     dE             d eps       ncg     rms          rms(c)
RMM:   1    -0.413188826131E+03    0.19470E-02   -0.11843E+01  4293   0.956E-01    0.916E-01
RMM:   2    -0.413195167288E+03   -0.63412E-02   -0.15444E-01  4276   0.132E-01    0.667E-01
RMM:   3    -0.413193410106E+03    0.17572E-02   -0.71192E-03  4435   0.494E-02    0.167E-01
RMM:   4    -0.413201214828E+03   -0.78047E-02   -0.82487E-03  5150   0.795E-02    0.372E-01
RMM:   5    -0.413193397465E+03    0.78174E-02   -0.38315E-03  4814   0.612E-02    0.272E-02
RMM:   6    -0.413193385027E+03    0.12438E-04   -0.62516E-04  5778   0.249E-02    0.185E-02
RMM:   7    -0.413193383869E+03    0.11581E-05   -0.11004E-04  5369   0.103E-02    0.972E-03
RMM:   8    -0.413193376751E+03    0.71179E-05   -0.16925E-05  4088   0.471E-03    0.443E-03
RMM:   9    -0.413193374999E+03    0.17518E-05   -0.27972E-06  2736   0.235E-03    0.297E-03
RMM:  10    -0.413193372197E+03    0.28021E-05   -0.71309E-07  2446   0.144E-03    0.178E-03
RMM:  11    -0.413193368434E+03    0.37630E-05   -0.59579E-07  2422   0.122E-03    0.812E-04
RMM:  12    -0.413193365632E+03    0.28016E-05   -0.32297E-07  1863   0.912E-04    0.333E-04
RMM:  13    -0.413193364225E+03    0.14073E-05   -0.14936E-07  1268   0.706E-04    0.179E-04
RMM:  14    -0.413193362671E+03    0.15534E-05   -0.10122E-07  1088   0.658E-04    0.959E-05
RMM:  15    -0.413193360136E+03    0.25354E-05   -0.95716E-08  1168   0.666E-04    0.901E-05
RMM:  16    -0.413193359531E+03    0.60548E-06   -0.47350E-08   907   0.599E-04
   34 T=    67. E= -.41286660E+03 F= -.41319336E+03 E0= -.41317201E+03  EK= 0.32676E+00 SP= 0.00E+00 SK= 0.00E+00
       N       E                     dE             d eps       ncg     rms          rms(c)
RMM:   1    -0.413187320553E+03    0.60396E-02   -0.11914E+01  4300   0.924E-01    0.942E-01
RMM:   2    -0.413197764154E+03   -0.10444E-01   -0.15383E-01  4262   0.133E-01    0.666E-01
RMM:   3    -0.413196250727E+03    0.15134E-02   -0.73490E-03  4419   0.467E-02    0.172E-01
RMM:   4    -0.413201248620E+03   -0.49979E-02   -0.57223E-03  5157   0.648E-02    0.302E-01
RMM:   5    -0.413196155176E+03    0.50934E-02   -0.25542E-03  4813   0.499E-02    0.274E-02
RMM:   6    -0.413196142520E+03    0.12656E-04   -0.45414E-04  5749   0.211E-02    0.195E-02
RMM:   7    -0.413196132525E+03    0.99949E-05   -0.98611E-05  5278   0.961E-03    0.841E-03
RMM:   8    -0.413196124049E+03    0.84755E-05   -0.12814E-05  3776   0.416E-03    0.409E-03
RMM:   9    -0.413196120917E+03    0.31324E-05   -0.17502E-06  2611   0.201E-03    0.259E-03
RMM:  10    -0.413196114905E+03    0.60119E-05   -0.66002E-07  2446   0.134E-03    0.142E-03
RMM:  11    -0.413196108104E+03    0.68015E-05   -0.45506E-07  2241   0.108E-03    0.604E-04
RMM:  12    -0.413196103154E+03    0.49501E-05   -0.23643E-07  1738   0.838E-04    0.245E-04
RMM:  13    -0.413196100635E+03    0.25185E-05   -0.12297E-07  1189   0.684E-04    0.142E-04
RMM:  14    -0.413196097583E+03    0.30523E-05   -0.86267E-08  1111   0.648E-04    0.923E-05
RMM:  15    -0.413196091642E+03    0.59407E-05   -0.99321E-08  1424   0.679E-04    0.922E-05
RMM:  16    -0.413196090622E+03    0.10198E-05   -0.42222E-08   909   0.560E-04    0.718E-05
RMM:  17    -0.413196087275E+03    0.33468E-05   -0.47207E-08  1101   0.585E-04    0.351E-05
RMM:  18    -0.413196086530E+03    0.74507E-06   -0.21469E-08   754   0.515E-04
   35 T=    67. E= -.41286679E+03 F= -.41319609E+03 E0= -.41317478E+03  EK= 0.32930E+00 SP= 0.00E+00 SK= 0.00E+00
       N       E                     dE             d eps       ncg     rms          rms(c)
RMM:   1    -0.413191375605E+03    0.47117E-02   -0.11945E+01  4298   0.966E-01    0.941E-01
RMM:   2    -0.413199670631E+03   -0.82950E-02   -0.15421E-01  4259   0.124E-01    0.660E-01
RMM:   3    -0.413198474864E+03    0.11958E-02   -0.75861E-03  4801   0.466E-02    0.188E-01
RMM:   4    -0.413229412240E+03   -0.30937E-01   -0.31210E-02  5159   0.148E-01    0.733E-01
RMM:   5    -0.413198139109E+03    0.31273E-01   -0.15723E-02  4799   0.122E-01    0.405E-02
RMM:   6    -0.413198188536E+03   -0.49427E-04   -0.25126E-03  5852   0.470E-02    0.228E-02
RMM:   7    -0.413198197838E+03   -0.93020E-05   -0.27076E-04  5779   0.143E-02    0.139E-02
RMM:   8    -0.413198189144E+03    0.86941E-05   -0.43665E-05  4874   0.643E-03    0.891E-03
RMM:   9    -0.413198183960E+03    0.51834E-05   -0.14756E-05  4110   0.425E-03    0.594E-03
RMM:  10    -0.413198176215E+03    0.77458E-05   -0.23027E-06  2581   0.242E-03    0.334E-03
RMM:  11    -0.413198169984E+03    0.62301E-05   -0.14663E-06  2504   0.192E-03    0.187E-03
RMM:  12    -0.413198160290E+03    0.96940E-05   -0.10240E-06  2480   0.174E-03    0.713E-04
RMM:  13    -0.413198157410E+03    0.28801E-05   -0.37004E-07  2254   0.111E-03    0.513E-04
RMM:  14    -0.413198156569E+03    0.84117E-06   -0.15603E-07  1576   0.754E-04
   36 T=    68. E= -.41286652E+03 F= -.41319816E+03 E0= -.41317689E+03  EK= 0.33163E+00 SP= 0.00E+00 SK= 0.00E+00
       N       E                     dE             d eps       ncg     rms          rms(c)
RMM:   1    -0.413194356504E+03    0.38009E-02   -0.12014E+01  4304   0.991E-01    0.924E-01
RMM:   2    -0.413203356621E+03   -0.90001E-02   -0.16040E-01  4261   0.134E-01    0.672E-01
RMM:   3    -0.413201536507E+03    0.18201E-02   -0.72898E-03  4723   0.514E-02    0.186E-01
RMM:   4    -0.413231737935E+03   -0.30201E-01   -0.30478E-02  5164   0.147E-01    0.725E-01
RMM:   5    -0.413201146662E+03    0.30591E-01   -0.15406E-02  4799   0.121E-01    0.394E-02
RMM:   6    -0.413201194379E+03   -0.47718E-04   -0.24396E-03  5854   0.463E-02    0.218E-02
RMM:   7    -0.413201207588E+03   -0.13209E-04   -0.27223E-04  5806   0.142E-02    0.140E-02
RMM:   8    -0.413201200361E+03    0.72268E-05   -0.45784E-05  4931   0.660E-03    0.885E-03
RMM:   9    -0.413201196475E+03    0.38866E-05   -0.13556E-05  4015   0.415E-03    0.531E-03
RMM:  10    -0.413201191178E+03    0.52971E-05   -0.23303E-06  2590   0.231E-03    0.307E-03
RMM:  11    -0.413201186738E+03    0.44400E-05   -0.13543E-06  2502   0.184E-03    0.165E-03
RMM:  12    -0.413201180634E+03    0.61038E-05   -0.89375E-07  2465   0.159E-03    0.606E-04
RMM:  13    -0.413201178727E+03    0.19069E-05   -0.34172E-07  2165   0.104E-03    0.433E-04
RMM:  14    -0.413201177936E+03    0.79103E-06   -0.15208E-07  1477   0.736E-04
   37 T=    68. E= -.41286680E+03 F= -.41320118E+03 E0= -.41317996E+03  EK= 0.33438E+00 SP= 0.00E+00 SK= 0.00E+00
       N       E                     dE             d eps       ncg     rms          rms(c)
RMM:   1    -0.413195480713E+03    0.56980E-02   -0.12144E+01  4307   0.101E+00    0.945E-01
RMM:   2    -0.413205946395E+03   -0.10466E-01   -0.15966E-01  4260   0.128E-01    0.676E-01
RMM:   3    -0.413203975820E+03    0.19706E-02   -0.76365E-03  4734   0.508E-02    0.189E-01
RMM:   4    -0.413234293793E+03   -0.30318E-01   -0.30555E-02  5157   0.147E-01    0.726E-01
RMM:   5    -0.413203596124E+03    0.30698E-01   -0.15502E-02  4809   0.121E-01    0.400E-02
RMM:   6    -0.413203647633E+03   -0.51510E-04   -0.24198E-03  5836   0.463E-02    0.226E-02
RMM:   7    -0.413203660113E+03   -0.12480E-04   -0.28498E-04  5826   0.146E-02    0.147E-02
RMM:   8    -0.413203650973E+03    0.91396E-05   -0.47563E-05  4969   0.681E-03    0.876E-03
RMM:   9    -0.413203645901E+03    0.50719E-05   -0.12569E-05  3921   0.405E-03    0.521E-03
RMM:  10    -0.413203639625E+03    0.62760E-05   -0.21995E-06  2582   0.224E-03    0.307E-03
RMM:  11    -0.413203633974E+03    0.56511E-05   -0.12652E-06  2502   0.178E-03    0.162E-03
RMM:  12    -0.413203626378E+03    0.75965E-05   -0.82890E-07  2461   0.154E-03    0.586E-04
RMM:  13    -0.413203623916E+03    0.24613E-05   -0.32617E-07  2155   0.102E-03    0.424E-04
RMM:  14    -0.413203622905E+03    0.10119E-05   -0.14836E-07  1487   0.732E-04    0.269E-04
RMM:  15    -0.413203617300E+03    0.56048E-05   -0.12835E-07  1499   0.728E-04    0.204E-04
RMM:  16    -0.413203616480E+03    0.81972E-06   -0.54968E-08   977   0.596E-04
   38 T=    69. E= -.41286675E+03 F= -.41320362E+03 E0= -.41318244E+03  EK= 0.33687E+00 SP= 0.00E+00 SK= 0.00E+00
       N       E                     dE             d eps       ncg     rms          rms(c)
RMM:   1    -0.413201638776E+03    0.19785E-02   -0.12223E+01  4304   0.107E+00    0.958E-01
RMM:   2    -0.413207627061E+03   -0.59883E-02   -0.16203E-01  4267   0.126E-01    0.669E-01
RMM:   3    -0.413206896649E+03    0.73041E-03   -0.83423E-03  5005   0.551E-02    0.227E-01
RMM:   4    -0.413257798070E+03   -0.50901E-01   -0.55278E-02  5137   0.195E-01    0.937E-01
RMM:   5    -0.413205676281E+03    0.52122E-01   -0.25665E-02  4785   0.158E-01    0.517E-02
RMM:   6    -0.413205823305E+03   -0.14702E-03   -0.41059E-03  5823   0.600E-02    0.263E-02
RMM:   7    -0.413205840847E+03   -0.17542E-04   -0.43782E-04  5853   0.179E-02    0.171E-02
RMM:   8    -0.413205838330E+03    0.25169E-05   -0.74742E-05  5157   0.787E-03    0.117E-02
RMM:   9    -0.413205826025E+03    0.12305E-04   -0.20219E-05  4401   0.492E-03    0.635E-03
RMM:  10    -0.413205817695E+03    0.83298E-05   -0.40968E-06  2704   0.285E-03    0.346E-03
RMM:  11    -0.413205810977E+03    0.67186E-05   -0.16419E-06  2501   0.208E-03    0.197E-03
RMM:  12    -0.413205801765E+03    0.92113E-05   -0.93171E-07  2476   0.170E-03    0.644E-04
RMM:  13    -0.413205797621E+03    0.41440E-05   -0.40590E-07  2292   0.114E-03    0.410E-04
RMM:  14    -0.413205795028E+03    0.25928E-05   -0.19266E-07  1795   0.811E-04    0.268E-04
RMM:  15    -0.413205787696E+03    0.73329E-05   -0.14694E-07  1631   0.753E-04    0.246E-04
RMM:  16    -0.413205786854E+03    0.84147E-06   -0.66345E-08  1030   0.596E-04
   39 T=    69. E= -.41286653E+03 F= -.41320579E+03 E0= -.41318465E+03  EK= 0.33925E+00 SP= 0.00E+00 SK= 0.00E+00
       N       E                     dE             d eps       ncg     rms          rms(c)
RMM:   1    -0.413202156496E+03    0.36312E-02   -0.12209E+01  4311   0.110E+00    0.935E-01
RMM:   2    -0.413211236640E+03   -0.90801E-02   -0.16433E-01  4264   0.131E-01    0.675E-01
RMM:   3    -0.413210190584E+03    0.10461E-02   -0.81396E-03  5012   0.564E-02    0.235E-01
RMM:   4    -0.413264051056E+03   -0.53860E-01   -0.59658E-02  5136   0.203E-01    0.964E-01
RMM:   5    -0.413208729079E+03    0.55322E-01   -0.27141E-02  4784   0.162E-01    0.527E-02
RMM:   6    -0.413208886107E+03   -0.15703E-03   -0.42806E-03  5813   0.615E-02    0.258E-02
RMM:   7    -0.413208907030E+03   -0.20923E-04   -0.46681E-04  5903   0.184E-02    0.176E-02
RMM:   8    -0.413208906732E+03    0.29846E-06   -0.81202E-05  5206   0.819E-03    0.120E-02
RMM:   9    -0.413208895857E+03    0.10875E-04   -0.19341E-05  4337   0.489E-03    0.606E-03
RMM:  10    -0.413208890207E+03    0.56496E-05   -0.43338E-06  2723   0.282E-03    0.331E-03
RMM:  11    -0.413208885934E+03    0.42732E-05   -0.16073E-06  2504   0.204E-03    0.189E-03
RMM:  12    -0.413208880110E+03    0.58239E-05   -0.89084E-07  2473   0.162E-03    0.655E-04
RMM:  13    -0.413208877276E+03    0.28341E-05   -0.40362E-07  2278   0.112E-03    0.377E-04
RMM:  14    -0.413208875115E+03    0.21616E-05   -0.20214E-07  1775   0.811E-04    0.241E-04
RMM:  15    -0.413208870363E+03    0.47515E-05   -0.14603E-07  1445   0.732E-04    0.184E-04
RMM:  16    -0.413208869586E+03    0.77678E-06   -0.72644E-08  1044   0.616E-04
   40 T=    70. E= -.41286698E+03 F= -.41320887E+03 E0= -.41318777E+03  EK= 0.34189E+00 SP= 0.00E+00 SK= 0.00E+00
       N       E                     dE             d eps       ncg     rms          rms(c)
RMM:   1    -0.413223438207E+03   -0.14568E-01   -0.12552E+01  4309   0.126E+00    0.948E-01
RMM:   2    -0.413212792072E+03    0.10646E-01   -0.17341E-01  4272   0.140E-01    0.686E-01
RMM:   3    -0.413212196820E+03    0.59525E-03   -0.86343E-03  5044   0.594E-02    0.255E-01
RMM:   4    -0.413267267585E+03   -0.55071E-01   -0.62906E-02  5129   0.209E-01    0.977E-01
RMM:   5    -0.413210352124E+03    0.56915E-01   -0.27626E-02  4776   0.165E-01    0.547E-02
RMM:   6    -0.413210504554E+03   -0.15243E-03   -0.43329E-03  5810   0.623E-02    0.260E-02
RMM:   7    -0.413210526800E+03   -0.22246E-04   -0.48177E-04  5931   0.188E-02    0.183E-02
RMM:   8    -0.413210526701E+03    0.98975E-07   -0.86450E-05  5269   0.853E-03    0.121E-02
RMM:   9    -0.413210515716E+03    0.10985E-04   -0.18564E-05  4271   0.492E-03    0.560E-03
RMM:  10    -0.413210510425E+03    0.52912E-05   -0.45131E-06  2741   0.281E-03    0.310E-03
RMM:  11    -0.413210506329E+03    0.40961E-05   -0.15029E-06  2504   0.197E-03    0.172E-03
RMM:  12    -0.413210501024E+03    0.53047E-05   -0.79502E-07  2457   0.153E-03    0.633E-04
RMM:  13    -0.413210498168E+03    0.28558E-05   -0.37752E-07  2211   0.107E-03    0.336E-04
RMM:  14    -0.413210495525E+03    0.26431E-05   -0.20238E-07  1649   0.805E-04    0.209E-04
RMM:  15    -0.413210491465E+03    0.40604E-05   -0.14335E-07  1359   0.722E-04    0.127E-04
RMM:  16    -0.413210490140E+03    0.13242E-05   -0.82214E-08  1106   0.641E-04    0.670E-05
RMM:  17    -0.413210487947E+03    0.21931E-05   -0.71330E-08  1157   0.635E-04    0.509E-05
RMM:  18    -0.413210484963E+03    0.29843E-05   -0.62650E-08  1185   0.629E-04    0.340E-05
RMM:  19    -0.413210484220E+03    0.74256E-06   -0.31288E-08   875   0.566E-04
   41 T=    70. E= -.41286650E+03 F= -.41321048E+03 E0= -.41318941E+03  EK= 0.34398E+00 SP= 0.00E+00 SK= 0.00E+00
       N       E                     dE             d eps       ncg     rms          rms(c)
RMM:   1    -0.413229088987E+03   -0.18604E-01   -0.12640E+01  4309   0.130E+00    0.972E-01
RMM:   2    -0.413214578522E+03    0.14510E-01   -0.17937E-01  4284   0.146E-01    0.679E-01
RMM:   3    -0.413216621302E+03   -0.20428E-02   -0.10674E-02  5114   0.727E-02    0.326E-01
RMM:   4    -0.413252952189E+03   -0.36331E-01   -0.51974E-02  5096   0.191E-01    0.832E-01
RMM:   5    -0.413212920364E+03    0.40032E-01   -0.18144E-02  4737   0.139E-01    0.540E-02
RMM:   6    -0.413212975530E+03   -0.55167E-04   -0.30042E-03  5752   0.521E-02    0.251E-02
RMM:   7    -0.413212986545E+03   -0.11014E-04   -0.37049E-04  5882   0.168E-02    0.182E-02
RMM:   8    -0.413212982466E+03    0.40789E-05   -0.76479E-05  5185   0.831E-03    0.106E-02
RMM:   9    -0.413212968687E+03    0.13779E-04   -0.15784E-05  4054   0.482E-03    0.417E-03
RMM:  10    -0.413212962432E+03    0.62542E-05   -0.34232E-06  2679   0.245E-03    0.242E-03
RMM:  11    -0.413212955627E+03    0.68052E-05   -0.11800E-06  2502   0.174E-03    0.125E-03
RMM:  12    -0.413212949132E+03    0.64953E-05   -0.52880E-07  2387   0.127E-03    0.552E-04
RMM:  13    -0.413212944794E+03    0.43375E-05   -0.27456E-07  1801   0.900E-04    0.249E-04
RMM:  14    -0.413212940777E+03    0.40176E-05   -0.16614E-07  1368   0.750E-04    0.141E-04
RMM:  15    -0.413212934373E+03    0.64042E-05   -0.14386E-07  1477   0.732E-04    0.107E-04
RMM:  16    -0.413212932702E+03    0.16704E-05   -0.85421E-08  1158   0.636E-04    0.790E-05
RMM:  17    -0.413212928350E+03    0.43524E-05   -0.80900E-08  1330   0.647E-04    0.594E-05
RMM:  18    -0.413212925942E+03    0.24084E-05   -0.52267E-08  1082   0.584E-04    0.444E-05
RMM:  19    -0.413212925325E+03    0.61659E-06   -0.31714E-08   855   0.539E-04
   42 T=    70. E= -.41286668E+03 F= -.41321293E+03 E0= -.41319189E+03  EK= 0.34625E+00 SP= 0.00E+00 SK= 0.00E+00
       N       E                     dE             d eps       ncg     rms          rms(c)
RMM:   1    -0.413218250811E+03   -0.53249E-02   -0.12469E+01  4311   0.132E+00    0.947E-01
RMM:   2    -0.413216608957E+03    0.16419E-02   -0.17061E-01  4288   0.151E-01    0.679E-01
RMM:   3    -0.413219636881E+03   -0.30279E-02   -0.11417E-02  5098   0.802E-02    0.350E-01
RMM:   4    -0.413250822587E+03   -0.31186E-01   -0.49838E-02  5071   0.189E-01    0.789E-01
RMM:   5    -0.413214901973E+03    0.35921E-01   -0.15751E-02  4713   0.132E-01    0.521E-02
RMM:   6    -0.413214936616E+03   -0.34643E-04   -0.26351E-03  5735   0.490E-02    0.242E-02
RMM:   7    -0.413214944393E+03   -0.77769E-05   -0.31851E-04  5873   0.161E-02    0.177E-02
RMM:   8    -0.413214940555E+03    0.38376E-05   -0.68907E-05  5141   0.804E-03    0.991E-03
RMM:   9    -0.413214929076E+03    0.11479E-04   -0.14795E-05  3957   0.472E-03    0.389E-03
RMM:  10    -0.413214924718E+03    0.43580E-05   -0.30333E-06  2668   0.234E-03    0.225E-03
RMM:  11    -0.413214919538E+03    0.51808E-05   -0.11816E-06  2505   0.171E-03    0.119E-03
RMM:  12    -0.413214914998E+03    0.45398E-05   -0.52180E-07  2371   0.124E-03    0.515E-04
RMM:  13    -0.413214911842E+03    0.31559E-05   -0.27878E-07  1691   0.875E-04    0.238E-04
RMM:  14    -0.413214908996E+03    0.28457E-05   -0.17792E-07  1346   0.746E-04    0.132E-04
RMM:  15    -0.413214904070E+03    0.49260E-05   -0.16049E-07  1409   0.734E-04    0.937E-05
RMM:  16    -0.413214902656E+03    0.14144E-05   -0.92710E-08  1155   0.646E-04    0.721E-05
RMM:  17    -0.413214899865E+03    0.27913E-05   -0.78621E-08  1204   0.638E-04    0.485E-05
RMM:  18    -0.413214897263E+03    0.26013E-05   -0.63928E-08  1154   0.601E-04    0.448E-05
RMM:  19    -0.413214896838E+03    0.42535E-06   -0.31032E-08   804   0.538E-04
   43 T=    71. E= -.41286668E+03 F= -.41321490E+03 E0= -.41319389E+03  EK= 0.34821E+00 SP= 0.00E+00 SK= 0.00E+00
       N       E                     dE             d eps       ncg     rms          rms(c)
RMM:   1    -0.413252458180E+03   -0.37561E-01   -0.12923E+01  4312   0.153E+00    0.947E-01
RMM:   2    -0.413217994625E+03    0.34464E-01   -0.20908E-01  4292   0.172E-01    0.698E-01
RMM:   3    -0.413221967471E+03   -0.39728E-02   -0.12064E-02  5098   0.879E-02    0.408E-01
RMM:   4    -0.413251184141E+03   -0.29217E-01   -0.51838E-02  5060   0.193E-01    0.789E-01
RMM:   5    -0.413215907826E+03    0.35276E-01   -0.15591E-02  4696   0.134E-01    0.564E-02
RMM:   6    -0.413215920849E+03   -0.13023E-04   -0.26024E-03  5684   0.490E-02    0.250E-02
RMM:   7    -0.413215930291E+03   -0.94424E-05   -0.33206E-04  5904   0.164E-02    0.186E-02
RMM:   8    -0.413215926526E+03    0.37652E-05   -0.67548E-05  5165   0.800E-03    0.102E-02
RMM:   9    -0.413215916443E+03    0.10083E-04   -0.17251E-05  4096   0.510E-03    0.424E-03
RMM:  10    -0.413215913175E+03    0.32679E-05   -0.33168E-06  2688   0.241E-03    0.243E-03
RMM:  11    -0.413215909372E+03    0.38036E-05   -0.16527E-06  2552   0.191E-03    0.134E-03
RMM:  12    -0.413215906581E+03    0.27908E-05   -0.56698E-07  2450   0.133E-03    0.635E-04
RMM:  13    -0.413215903949E+03    0.26316E-05   -0.32783E-07  1664   0.914E-04    0.316E-04
RMM:  14    -0.413215901660E+03    0.22891E-05   -0.21696E-07  1428   0.792E-04    0.166E-04
RMM:  15    -0.413215899020E+03    0.26396E-05   -0.16402E-07  1389   0.735E-04    0.903E-05
RMM:  16    -0.413215896946E+03    0.20748E-05   -0.12028E-07  1316   0.678E-04    0.604E-05
RMM:  17    -0.413215895208E+03    0.17377E-05   -0.84535E-08  1150   0.618E-04    0.464E-05
RMM:  18    -0.413215893099E+03    0.21091E-05   -0.69015E-08  1095   0.595E-04    0.299E-05
RMM:  19    -0.413215892508E+03    0.59120E-06   -0.37838E-08   846   0.548E-04
   44 T=    71. E= -.41286639E+03 F= -.41321589E+03 E0= -.41319491E+03  EK= 0.34950E+00 SP= 0.00E+00 SK= 0.00E+00
       N       E                     dE             d eps       ncg     rms          rms(c)
RMM:   1    -0.413231643672E+03   -0.15751E-01   -0.12735E+01  4309   0.153E+00    0.978E-01
RMM:   2    -0.413218641074E+03    0.13003E-01   -0.17820E-01  4343   0.178E-01    0.687E-01
RMM:   3    -0.413229736131E+03   -0.11095E-01   -0.18761E-02  5141   0.115E-01    0.512E-01
RMM:   4    -0.413234586144E+03   -0.48500E-02   -0.39061E-02  5016   0.172E-01    0.563E-01
RMM:   5    -0.413217545560E+03    0.17041E-01   -0.64669E-03  4585   0.969E-02    0.473E-02
RMM:   6    -0.413217505135E+03    0.40425E-04   -0.12121E-03  5414   0.339E-02    0.229E-02
RMM:   7    -0.413217502843E+03    0.22919E-05   -0.15688E-04  5632   0.122E-02    0.164E-02
RMM:   8    -0.413217495614E+03    0.72294E-05   -0.63492E-05  5087   0.806E-03    0.857E-03
RMM:   9    -0.413217481002E+03    0.14611E-04   -0.13241E-05  3965   0.478E-03    0.353E-03
RMM:  10    -0.413217477009E+03    0.39928E-05   -0.19154E-06  2592   0.204E-03    0.194E-03
RMM:  11    -0.413217469644E+03    0.73648E-05   -0.11320E-06  2497   0.166E-03    0.115E-03
RMM:  12    -0.413217464279E+03    0.53658E-05   -0.45079E-07  2365   0.119E-03    0.541E-04
RMM:  13    -0.413217460275E+03    0.40039E-05   -0.22206E-07  1585   0.805E-04    0.254E-04
RMM:  14    -0.413217456548E+03    0.37266E-05   -0.13514E-07  1230   0.684E-04    0.137E-04
RMM:  15    -0.413217450585E+03    0.59634E-05   -0.12489E-07  1290   0.690E-04    0.111E-04
RMM:  16    -0.413217448110E+03    0.24745E-05   -0.72801E-08  1068   0.614E-04    0.987E-05
RMM:  17    -0.413217445505E+03    0.26053E-05   -0.56443E-08  1056   0.593E-04    0.553E-05
RMM:  18    -0.413217441802E+03    0.37033E-05   -0.58227E-08  1173   0.602E-04    0.502E-05
RMM:  19    -0.413217441519E+03    0.28317E-06   -0.21751E-08   714   0.510E-04
   45 T=    71. E= -.41286684E+03 F= -.41321744E+03 E0= -.41319648E+03  EK= 0.35060E+00 SP= 0.00E+00 SK= 0.00E+00
       N       E                     dE             d eps       ncg     rms          rms(c)
RMM:   1    -0.413231221468E+03   -0.13780E-01   -0.12622E+01  4308   0.161E+00    0.958E-01
RMM:   2    -0.413218605831E+03    0.12616E-01   -0.18258E-01  4361   0.188E-01    0.683E-01
RMM:   3    -0.413232226506E+03   -0.13621E-01   -0.20755E-02  5130   0.124E-01    0.559E-01
RMM:   4    -0.413231971842E+03    0.25466E-03   -0.38373E-02  5003   0.172E-01    0.526E-01
RMM:   5    -0.413217505129E+03    0.14467E-01   -0.55837E-03  4559   0.931E-02    0.476E-02
RMM:   6    -0.413217443697E+03    0.61432E-04   -0.94404E-04  5210   0.311E-02    0.224E-02
RMM:   7    -0.413217440778E+03    0.29187E-05   -0.12760E-04  5696   0.109E-02    0.147E-02
RMM:   8    -0.413217438365E+03    0.24128E-05   -0.72255E-05  5201   0.844E-03    0.973E-03
RMM:   9    -0.413217423084E+03    0.15281E-04   -0.18204E-05  4344   0.541E-03    0.384E-03
RMM:  10    -0.413217420019E+03    0.30650E-05   -0.24294E-06  2647   0.219E-03    0.210E-03
RMM:  11    -0.413217414210E+03    0.58091E-05   -0.13064E-06  2485   0.182E-03    0.124E-03
RMM:  12    -0.413217409789E+03    0.44215E-05   -0.50647E-07  2392   0.129E-03    0.656E-04
RMM:  13    -0.413217406063E+03    0.37252E-05   -0.23296E-07  1664   0.859E-04    0.315E-04
RMM:  14    -0.413217402422E+03    0.36412E-05   -0.13501E-07  1332   0.706E-04    0.159E-04
RMM:  15    -0.413217397589E+03    0.48327E-05   -0.11156E-07  1197   0.663E-04    0.124E-04
RMM:  16    -0.413217395476E+03    0.21137E-05   -0.60552E-08   963   0.580E-04    0.102E-04
RMM:  17    -0.413217392427E+03    0.30488E-05   -0.56006E-08   997   0.579E-04    0.625E-05
RMM:  18    -0.413217389787E+03    0.26396E-05   -0.45287E-08   975   0.569E-04    0.462E-05
RMM:  19    -0.413217389249E+03    0.53871E-06   -0.17939E-08   661   0.507E-04
   46 T=    71. E= -.41286681E+03 F= -.41321739E+03 E0= -.41319645E+03  EK= 0.35058E+00 SP= 0.00E+00 SK= 0.00E+00
       N       E                     dE             d eps       ncg     rms          rms(c)
RMM:   1    -0.413248834698E+03   -0.31445E-01   -0.12827E+01  4310   0.175E+00    0.945E-01
RMM:   2    -0.413218419997E+03    0.30415E-01   -0.20686E-01  4367   0.210E-01    0.699E-01
RMM:   3    -0.413232067432E+03   -0.13647E-01   -0.20872E-02  5132   0.127E-01    0.582E-01
RMM:   4    -0.413232639084E+03   -0.57165E-03   -0.40960E-02  5006   0.178E-01    0.556E-01
RMM:   5    -0.413216665490E+03    0.15974E-01   -0.66004E-03  4557   0.100E-01    0.514E-02
RMM:   6    -0.413216590882E+03    0.74608E-04   -0.10643E-03  5236   0.334E-02    0.237E-02
RMM:   7    -0.413216587782E+03    0.31007E-05   -0.14874E-04  5776   0.118E-02    0.167E-02
RMM:   8    -0.413216583565E+03    0.42162E-05   -0.70230E-05  5208   0.835E-03    0.985E-03
RMM:   9    -0.413216569834E+03    0.13731E-04   -0.18418E-05  4334   0.551E-03    0.415E-03
RMM:  10    -0.413216567416E+03    0.24181E-05   -0.25406E-06  2651   0.222E-03    0.224E-03
RMM:  11    -0.413216563658E+03    0.37576E-05   -0.15702E-06  2517   0.193E-03    0.142E-03
RMM:  12    -0.413216560785E+03    0.28728E-05   -0.53678E-07  2421   0.134E-03    0.719E-04
RMM:  13    -0.413216557962E+03    0.28233E-05   -0.26734E-07  1729   0.890E-04    0.317E-04
RMM:  14    -0.413216555502E+03    0.24598E-05   -0.16869E-07  1386   0.737E-04    0.166E-04
RMM:  15    -0.413216552263E+03    0.32392E-05   -0.14917E-07  1312   0.700E-04    0.109E-04
RMM:  16    -0.413216550511E+03    0.17525E-05   -0.83343E-08  1029   0.603E-04    0.811E-05
RMM:  17    -0.413216548401E+03    0.21097E-05   -0.71131E-08  1035   0.588E-04    0.498E-05
RMM:  18    -0.413216547041E+03    0.13598E-05   -0.43378E-08   847   0.550E-04    0.351E-05
RMM:  19    -0.413216546596E+03    0.44529E-06   -0.24121E-08   700   0.520E-04
   47 T=    71. E= -.41286692E+03 F= -.41321655E+03 E0= -.41319562E+03  EK= 0.34962E+00 SP= 0.00E+00 SK= 0.00E+00
       N       E                     dE             d eps       ncg     rms          rms(c)
RMM:   1    -0.413271767076E+03   -0.55220E-01   -0.13019E+01  4306   0.195E+00    0.972E-01
RMM:   2    -0.413216189287E+03    0.55578E-01   -0.20844E-01  4465   0.210E-01    0.693E-01
RMM:   3    -0.413239098956E+03   -0.22910E-01   -0.29222E-02  5147   0.152E-01    0.701E-01
RMM:   4    -0.413224056258E+03    0.15043E-01   -0.38302E-02  4962   0.176E-01    0.443E-01
RMM:   5    -0.413215152896E+03    0.89034E-02   -0.47613E-03  4560   0.908E-02    0.575E-02
RMM:   6    -0.413214988702E+03    0.16419E-03   -0.47713E-04  4730   0.286E-02    0.259E-02
RMM:   7    -0.413214990017E+03   -0.13150E-05   -0.16797E-04  5912   0.132E-02    0.182E-02
RMM:   8    -0.413214973170E+03    0.16846E-04   -0.57386E-05  5067   0.828E-03    0.997E-03
RMM:   9    -0.413214961012E+03    0.12158E-04   -0.14113E-05  3974   0.478E-03    0.487E-03
RMM:  10    -0.413214956012E+03    0.49999E-05   -0.23315E-06  2587   0.242E-03    0.244E-03
RMM:  11    -0.413214950547E+03    0.54652E-05   -0.17143E-06  2509   0.204E-03    0.172E-03
RMM:  12    -0.413214946264E+03    0.42827E-05   -0.55211E-07  2400   0.138E-03    0.856E-04
RMM:  13    -0.413214941812E+03    0.44524E-05   -0.27274E-07  1831   0.898E-04    0.422E-04
RMM:  14    -0.413214936916E+03    0.48962E-05   -0.19211E-07  1665   0.763E-04    0.255E-04
RMM:  15    -0.413214932175E+03    0.47404E-05   -0.13668E-07  1246   0.644E-04    0.130E-04
RMM:  16    -0.413214929556E+03    0.26198E-05   -0.84579E-08  1121   0.591E-04    0.990E-05
RMM:  17    -0.413214927118E+03    0.24379E-05   -0.61829E-08  1020   0.568E-04    0.506E-05
RMM:  18    -0.413214924988E+03    0.21299E-05   -0.46329E-08   964   0.556E-04    0.408E-05
RMM:  19    -0.413214924325E+03    0.66272E-06   -0.22789E-08   723   0.511E-04
   48 T=    71. E= -.41286737E+03 F= -.41321492E+03 E0= -.41319401E+03  EK= 0.34756E+00 SP= 0.00E+00 SK= 0.00E+00
       N       E                     dE             d eps       ncg     rms          rms(c)
RMM:   1    -0.413274972322E+03   -0.60047E-01   -0.12876E+01  4305   0.208E+00    0.961E-01
RMM:   2    -0.413211949597E+03    0.63023E-01   -0.20579E-01  4483   0.223E-01    0.682E-01
RMM:   3    -0.413241156434E+03   -0.29207E-01   -0.34900E-02  5157   0.167E-01    0.776E-01
RMM:   4    -0.413217127668E+03    0.24029E-01   -0.38093E-02  4928   0.178E-01    0.389E-01
RMM:   5    -0.413211032785E+03    0.60949E-02   -0.50366E-03  4783   0.925E-02    0.699E-02
RMM:   6    -0.413210761171E+03    0.27161E-03   -0.51954E-04  4655   0.319E-02    0.299E-02
RMM:   7    -0.413210757034E+03    0.41362E-05   -0.15642E-04  5745   0.135E-02    0.201E-02
RMM:   8    -0.413210738606E+03    0.18428E-04   -0.41335E-05  4939   0.709E-03    0.989E-03
RMM:   9    -0.413210725629E+03    0.12978E-04   -0.13669E-05  3521   0.436E-03    0.430E-03
RMM:  10    -0.413210719820E+03    0.58084E-05   -0.24169E-06  2618   0.243E-03    0.245E-03
RMM:  11    -0.413210712841E+03    0.69795E-05   -0.11962E-06  2500   0.177E-03    0.150E-03
RMM:  12    -0.413210708422E+03    0.44184E-05   -0.46025E-07  2412   0.121E-03    0.692E-04
RMM:  13    -0.413210703203E+03    0.52194E-05   -0.29837E-07  1769   0.887E-04    0.362E-04
RMM:  14    -0.413210698848E+03    0.43553E-05   -0.20102E-07  1497   0.769E-04    0.255E-04
RMM:  15    -0.413210693703E+03    0.51448E-05   -0.17621E-07  1386   0.725E-04    0.129E-04
RMM:  16    -0.413210691677E+03    0.20258E-05   -0.98023E-08  1197   0.634E-04    0.944E-05
RMM:  17    -0.413210688576E+03    0.31010E-05   -0.90355E-08  1265   0.632E-04    0.519E-05
RMM:  18    -0.413210687586E+03    0.99031E-06   -0.44611E-08   948   0.560E-04
   49 T=    70. E= -.41286709E+03 F= -.41321069E+03 E0= -.41318978E+03  EK= 0.34359E+00 SP= 0.00E+00 SK= 0.00E+00
       N       E                     dE             d eps       ncg     rms          rms(c)
RMM:   1    -0.413237560291E+03   -0.26872E-01   -0.12366E+01  4304   0.205E+00    0.928E-01
RMM:   2    -0.413207407459E+03    0.30153E-01   -0.21117E-01  4504   0.233E-01    0.689E-01
RMM:   3    -0.413234441331E+03   -0.27034E-01   -0.32848E-02  5160   0.165E-01    0.767E-01
RMM:   4    -0.413212815809E+03    0.21626E-01   -0.38559E-02  4935   0.179E-01    0.411E-01
RMM:   5    -0.413205810540E+03    0.70053E-02   -0.56879E-03  4758   0.969E-02    0.730E-02
RMM:   6    -0.413205518000E+03    0.29254E-03   -0.55151E-04  4647   0.331E-02    0.309E-02
RMM:   7    -0.413205514624E+03    0.33753E-05   -0.16806E-04  5791   0.138E-02    0.206E-02
RMM:   8    -0.413205496703E+03    0.17922E-04   -0.45273E-05  5006   0.726E-03    0.104E-02
RMM:   9    -0.413205485788E+03    0.10914E-04   -0.15956E-05  3687   0.467E-03    0.448E-03
RMM:  10    -0.413205481075E+03    0.47133E-05   -0.29520E-06  2666   0.262E-03    0.258E-03
RMM:  11    -0.413205476372E+03    0.47033E-05   -0.13615E-06  2500   0.190E-03    0.161E-03
RMM:  12    -0.413205473164E+03    0.32077E-05   -0.52163E-07  2455   0.128E-03    0.758E-04
RMM:  13    -0.413205469530E+03    0.36344E-05   -0.34080E-07  1848   0.925E-04    0.390E-04
RMM:  14    -0.413205466463E+03    0.30666E-05   -0.24596E-07  1643   0.800E-04    0.299E-04
RMM:  15    -0.413205463189E+03    0.32739E-05   -0.20897E-07  1409   0.730E-04    0.135E-04
RMM:  16    -0.413205461738E+03    0.14513E-05   -0.11443E-07  1211   0.639E-04    0.883E-05
RMM:  17    -0.413205460232E+03    0.15062E-05   -0.95409E-08  1189   0.622E-04    0.489E-05
RMM:  18    -0.413205459538E+03    0.69425E-06   -0.55432E-08   996   0.566E-04
   50 T=    69. E= -.41286741E+03 F= -.41320546E+03 E0= -.41318456E+03  EK= 0.33805E+00 SP= 0.00E+00 SK= 0.00E+00
       N       E                     dE             d eps       ncg     rms          rms(c)
RMM:   1    -0.413233222354E+03   -0.27762E-01   -0.12180E+01  4301   0.218E+00    0.940E-01
RMM:   2    -0.413199285116E+03    0.33937E-01   -0.20727E-01  4559   0.247E-01    0.683E-01
RMM:   3    -0.413236341808E+03   -0.37057E-01   -0.42521E-02  5165   0.188E-01    0.872E-01
RMM:   4    -0.413202033563E+03    0.34308E-01   -0.40064E-02  4909   0.186E-01    0.354E-01
RMM:   5    -0.413198046523E+03    0.39870E-02   -0.72703E-03  5128   0.105E-01    0.969E-02
RMM:   6    -0.413197496698E+03    0.54983E-03   -0.10175E-03  4714   0.431E-02    0.364E-02
RMM:   7    -0.413197490381E+03    0.63167E-05   -0.25617E-04  5746   0.173E-02    0.228E-02
RMM:   8    -0.413197471350E+03    0.19031E-04   -0.44413E-05  5042   0.743E-03    0.115E-02
RMM:   9    -0.413197458413E+03    0.12937E-04   -0.17807E-05  3865   0.494E-03    0.473E-03
RMM:  10    -0.413197451637E+03    0.67768E-05   -0.41845E-06  2799   0.299E-03    0.306E-03
RMM:  11    -0.413197444932E+03    0.67051E-05   -0.17980E-06  2553   0.221E-03    0.172E-03
RMM:  12    -0.413197441494E+03    0.34379E-05   -0.61297E-07  2461   0.140E-03    0.809E-04
RMM:  13    -0.413197437016E+03    0.44779E-05   -0.42218E-07  2139   0.102E-03    0.525E-04
RMM:  14    -0.413197433381E+03    0.36343E-05   -0.26861E-07  1621   0.823E-04    0.280E-04
RMM:  15    -0.413197429562E+03    0.38191E-05   -0.23307E-07  1576   0.786E-04    0.141E-04
RMM:  16    -0.413197428103E+03    0.14589E-05   -0.12256E-07  1293   0.665E-04    0.978E-05
RMM:  17    -0.413197425938E+03    0.21656E-05   -0.11726E-07  1322   0.663E-04    0.629E-05
RMM:  18    -0.413197425384E+03    0.55419E-06   -0.56107E-08  1010   0.578E-04
   51 T=    67. E= -.41286731E+03 F= -.41319743E+03 E0= -.41317654E+03  EK= 0.33012E+00 SP= 0.00E+00 SK= 0.00E+00
[...]
RMM:  12    -0.413185670110E+03   -0.48722E-06   -0.46941E-06  3023   0.304E-03
  139 T=    73. E= -.41282669E+03 F= -.41318567E+03 E0= -.41316568E+03  EK= 0.35899E+00 SP= 0.00E+00 SK= 0.00E+00
       N       E                     dE             d eps       ncg     rms          rms(c)
RMM:   1    -0.413182130673E+03    0.35390E-02   -0.57880E+00  4264   0.461E+00    0.510E-01
RMM:   2    -0.413180127778E+03    0.20029E-02   -0.14033E-01  5442   0.425E-01    0.430E-01
RMM:   3    -0.413186257725E+03   -0.61299E-02   -0.25128E-02  5692   0.168E-01    0.429E-01
RMM:   4    -0.413182893132E+03    0.33646E-02   -0.12701E-02  5293   0.118E-01    0.315E-01
RMM:   5    -0.413179832661E+03    0.30605E-02   -0.83705E-03  4480   0.129E-01    0.886E-02
RMM:   6    -0.413179613184E+03    0.21948E-03   -0.10417E-03  5130   0.441E-02    0.441E-02
RMM:   7    -0.413179573513E+03    0.39671E-04   -0.36571E-04  5309   0.228E-02    0.314E-02
RMM:   8    -0.413179561600E+03    0.11913E-04   -0.17449E-04  5130   0.165E-02    0.202E-02
RMM:   9    -0.413179566569E+03   -0.49690E-05   -0.54567E-05  5233   0.959E-03    0.137E-02
RMM:  10    -0.413179562941E+03    0.36277E-05   -0.27155E-05  5041   0.641E-03    0.537E-03
RMM:  11    -0.413179563850E+03   -0.90895E-06   -0.76179E-06  3424   0.332E-03
  140 T=    73. E= -.41282195E+03 F= -.41317956E+03 E0= -.41316004E+03  EK= 0.35762E+00 SP= 0.00E+00 SK= 0.00E+00
       N       E                     dE             d eps       ncg     rms          rms(c)
RMM:   1    -0.413733050552E+03   -0.55349E+00   -0.14923E+01  4297   0.724E+00    0.176E+00
RMM:   2    -0.413677406853E+03    0.55644E-01   -0.43774E-01  5361   0.857E-01    0.154E+00
RMM:   3    -0.413765393761E+03   -0.87987E-01   -0.19637E-01  5469   0.466E-01    0.178E+00
RMM:   4    -0.413661621282E+03    0.10377E+00   -0.13279E-01  5126   0.413E-01    0.713E-01
RMM:   5    -0.413652199062E+03    0.94222E-02   -0.40211E-02  4722   0.278E-01    0.193E-01
RMM:   6    -0.413651430380E+03    0.76868E-03   -0.10481E-02  5381   0.125E-01    0.124E-01
RMM:   7    -0.413650804049E+03    0.62633E-03   -0.20975E-03  4952   0.584E-02    0.660E-02
RMM:   8    -0.413650720903E+03    0.83145E-04   -0.56403E-04  5185   0.309E-02    0.372E-02
RMM:   9    -0.413650723346E+03   -0.24430E-05   -0.26270E-04  5306   0.202E-02    0.210E-02
RMM:  10    -0.413650722457E+03    0.88909E-06   -0.63564E-05  5511   0.962E-03    0.105E-02
RMM:  11    -0.413650730871E+03   -0.84141E-05   -0.38492E-05  5281   0.734E-03    0.775E-03
RMM:  12    -0.413650735663E+03   -0.47914E-05   -0.59960E-06  3171   0.365E-03    0.354E-03
RMM:  13    -0.413650739493E+03   -0.38303E-05   -0.36516E-06  2912   0.270E-03    0.151E-03
RMM:  14    -0.413650744312E+03   -0.48185E-05   -0.18192E-06  2603   0.217E-03    0.718E-04
RMM:  15    -0.413650746947E+03   -0.26355E-05   -0.94078E-07  2417   0.148E-03    0.506E-04
RMM:  16    -0.413650748923E+03   -0.19754E-05   -0.63996E-07  2207   0.118E-03    0.392E-04
RMM:  17    -0.413650750739E+03   -0.18161E-05   -0.60348E-07  2188   0.106E-03    0.257E-04
RMM:  18    -0.413650751757E+03   -0.10183E-05   -0.34402E-07  1615   0.821E-04    0.140E-04
RMM:  19    -0.413650752403E+03   -0.64578E-06   -0.22732E-07  1522   0.735E-04
  141 T=   158. E= -.41287238E+03 F= -.41365075E+03 E0= -.41363149E+03  EK= 0.77838E+00 SP= 0.00E+00 SK= 0.00E+00
       N       E                     dE             d eps       ncg     rms          rms(c)
RMM:   1    -0.414081912039E+03   -0.43116E+00   -0.25010E+01  4300   0.938E+00    0.193E+00
RMM:   2    -0.413914052685E+03    0.16786E+00   -0.73553E-01  5372   0.112E+00    0.178E+00
RMM:   3    -0.414003254224E+03   -0.89202E-01   -0.22378E-01  5582   0.512E-01    0.191E+00
RMM:   4    -0.413900285180E+03    0.10297E+00   -0.13123E-01  5102   0.404E-01    0.976E-01
RMM:   5    -0.413887576546E+03    0.12709E-01   -0.53659E-02  4447   0.324E-01    0.259E-01
RMM:   6    -0.413886103770E+03    0.14728E-02   -0.12589E-02  5185   0.145E-01    0.149E-01
RMM:   7    -0.413885295438E+03    0.80833E-03   -0.30834E-03  5116   0.705E-02    0.957E-02
RMM:   8    -0.413885088887E+03    0.20655E-03   -0.81161E-04  4764   0.382E-02    0.556E-02
RMM:   9    -0.413885053576E+03    0.35310E-04   -0.54492E-04  4576   0.299E-02    0.192E-02
RMM:  10    -0.413885067484E+03   -0.13908E-04   -0.13683E-04  5871   0.132E-02    0.137E-02
RMM:  11    -0.413885074294E+03   -0.68098E-05   -0.39490E-05  4826   0.809E-03    0.782E-03
RMM:  12    -0.413885082212E+03   -0.79177E-05   -0.98300E-06  3699   0.432E-03    0.393E-03
RMM:  13    -0.413885089678E+03   -0.74659E-05   -0.42579E-06  2975   0.302E-03    0.210E-03
RMM:  14    -0.413885095541E+03   -0.58633E-05   -0.19761E-06  2648   0.217E-03    0.109E-03
RMM:  15    -0.413885099415E+03   -0.38745E-05   -0.11632E-06  2486   0.155E-03    0.678E-04
RMM:  16    -0.413885102255E+03   -0.28395E-05   -0.84119E-07  2231   0.122E-03    0.325E-04
RMM:  17    -0.413885104436E+03   -0.21816E-05   -0.73915E-07  2171   0.112E-03    0.225E-04
RMM:  18    -0.413885105630E+03   -0.11937E-05   -0.48346E-07  1801   0.904E-04    0.151E-04
RMM:  19    -0.413885106236E+03   -0.60630E-06   -0.27758E-07  1496   0.752E-04
  142 T=   207. E= -.41287033E+03 F= -.41388511E+03 E0= -.41386598E+03  EK= 0.10148E+01 SP= 0.00E+00 SK= 0.00E+00
       N       E                     dE             d eps       ncg     rms          rms(c)
RMM:   1    -0.413960946907E+03   -0.75841E-01   -0.26362E+01  4295   0.962E+00    0.173E+00
RMM:   2    -0.413778759945E+03    0.18219E+00   -0.77789E-01  5344   0.113E+00    0.168E+00
RMM:   3    -0.413778030585E+03    0.72936E-03   -0.94738E-02  5419   0.364E-01    0.122E+00
RMM:   4    -0.414016895021E+03   -0.23886E+00   -0.28639E-01  5216   0.493E-01    0.204E+00
RMM:   5    -0.413771934745E+03    0.24496E+00   -0.16552E-01  4824   0.461E-01    0.311E-01
RMM:   6    -0.413769971655E+03    0.19631E-02   -0.35787E-02  5677   0.215E-01    0.159E-01
RMM:   7    -0.413769682763E+03    0.28889E-03   -0.62281E-03  5691   0.837E-02    0.109E-01
RMM:   8    -0.413769481109E+03    0.20165E-03   -0.15011E-03  5264   0.440E-02    0.668E-02
RMM:   9    -0.413769390196E+03    0.90913E-04   -0.73042E-04  4771   0.350E-02    0.245E-02
RMM:  10    -0.413769401942E+03   -0.11746E-04   -0.23003E-04  5849   0.178E-02    0.142E-02
RMM:  11    -0.413769406362E+03   -0.44202E-05   -0.54005E-05  5436   0.798E-03    0.865E-03
RMM:  12    -0.413769411590E+03   -0.52279E-05   -0.12682E-05  3947   0.471E-03    0.454E-03
RMM:  13    -0.413769417130E+03   -0.55402E-05   -0.35891E-06  2887   0.301E-03    0.213E-03
RMM:  14    -0.413769421874E+03   -0.47437E-05   -0.20261E-06  2655   0.213E-03    0.109E-03
RMM:  15    -0.413769424789E+03   -0.29155E-05   -0.10962E-06  2510   0.153E-03    0.676E-04
RMM:  16    -0.413769426474E+03   -0.16852E-05   -0.66969E-07  2181   0.115E-03    0.376E-04
RMM:  17    -0.413769427767E+03   -0.12929E-05   -0.56783E-07  2080   0.105E-03    0.216E-04
RMM:  18    -0.413769428521E+03   -0.75408E-06   -0.43756E-07  1839   0.912E-04
  143 T=   183. E= -.41286919E+03 F= -.41376943E+03 E0= -.41375025E+03  EK= 0.90024E+00 SP= 0.00E+00 SK= 0.00E+00
       N       E                     dE             d eps       ncg     rms          rms(c)
RMM:   1    -0.413491401360E+03    0.27803E+00   -0.19197E+01  4284   0.827E+00    0.163E+00
RMM:   2    -0.413412639584E+03    0.78762E-01   -0.60739E-01  5304   0.951E-01    0.158E+00
RMM:   3    -0.413444985296E+03   -0.32346E-01   -0.11062E-01  5743   0.356E-01    0.145E+00
RMM:   4    -0.413426331722E+03    0.18654E-01   -0.72001E-02  5128   0.282E-01    0.107E+00
RMM:   5    -0.413410864888E+03    0.15467E-01   -0.60703E-02  4423   0.334E-01    0.325E-01
RMM:   6    -0.413406232566E+03    0.46323E-02   -0.11923E-02  4678   0.152E-01    0.140E-01
RMM:   7    -0.413405579862E+03    0.65270E-03   -0.25804E-03  5317   0.675E-02    0.899E-02
RMM:   8    -0.413405397097E+03    0.18277E-03   -0.76013E-04  4586   0.365E-02    0.457E-02
RMM:   9    -0.413405383265E+03    0.13831E-04   -0.50364E-04  4793   0.282E-02    0.152E-02
RMM:  10    -0.413405393736E+03   -0.10471E-04   -0.11649E-04  5898   0.119E-02    0.127E-02
RMM:  11    -0.413405391617E+03    0.21187E-05   -0.25686E-05  4686   0.638E-03    0.616E-03
RMM:  12    -0.413405393520E+03   -0.19026E-05   -0.70204E-06  3333   0.362E-03    0.325E-03
RMM:  13    -0.413405395784E+03   -0.22639E-05   -0.18307E-06  2636   0.225E-03    0.146E-03
RMM:  14    -0.413405396831E+03   -0.10477E-05   -0.92324E-07  2500   0.151E-03    0.723E-04
RMM:  15    -0.413405397303E+03   -0.47145E-06   -0.52423E-07  2059   0.110E-03
  144 T=   117. E= -.41282988E+03 F= -.41340540E+03 E0= -.41338597E+03  EK= 0.57551E+00 SP= 0.00E+00 SK= 0.00E+00
       N       E                     dE             d eps       ncg     rms          rms(c)
RMM:   1    -0.413379430011E+03    0.25967E-01   -0.11108E+01  4268   0.645E+00    0.785E-01
RMM:   2    -0.413361014292E+03    0.18416E-01   -0.28824E-01  5419   0.602E-01    0.682E-01
RMM:   3    -0.413381477442E+03   -0.20463E-01   -0.57870E-02  5762   0.243E-01    0.795E-01
RMM:   4    -0.413360504914E+03    0.20973E-01   -0.23445E-02  5035   0.175E-01    0.385E-01
RMM:   5    -0.413359293463E+03    0.12115E-02   -0.18519E-02  4600   0.180E-01    0.156E-01
RMM:   6    -0.413358372378E+03    0.92109E-03   -0.21109E-03  4663   0.694E-02    0.738E-02
RMM:   7    -0.413358338459E+03    0.33919E-04   -0.13072E-03  5522   0.428E-02    0.457E-02
RMM:   8    -0.413358325195E+03    0.13264E-04   -0.36510E-04  5341   0.228E-02    0.297E-02
RMM:   9    -0.413358315744E+03    0.94515E-05   -0.14656E-04  5630   0.139E-02    0.155E-02
RMM:  10    -0.413358312618E+03    0.31260E-05   -0.42855E-05  5466   0.739E-03    0.945E-03
RMM:  11    -0.413358313332E+03   -0.71367E-06   -0.11803E-05  4153   0.483E-03    0.368E-03
RMM:  12    -0.413358314407E+03   -0.10759E-05   -0.31269E-06  2787   0.264E-03    0.271E-03
RMM:  13    -0.413358315094E+03   -0.68611E-06   -0.13506E-06  2539   0.196E-03
  145 T=   109. E= -.41282318E+03 F= -.41335832E+03 E0= -.41333858E+03  EK= 0.53513E+00 SP= 0.00E+00 SK= 0.00E+00
       N       E                     dE             d eps       ncg     rms          rms(c)
RMM:   1    -0.413796677559E+03   -0.43836E+00   -0.17473E+01  4297   0.787E+00    0.168E+00
RMM:   2    -0.413743031275E+03    0.53646E-01   -0.56225E-01  5460   0.879E-01    0.140E+00
RMM:   3    -0.413810274301E+03   -0.67243E-01   -0.22736E-01  5483   0.494E-01    0.167E+00
RMM:   4    -0.413712025708E+03    0.98249E-01   -0.15800E-01  5123   0.452E-01    0.677E-01
RMM:   5    -0.413700799910E+03    0.11226E-01   -0.44453E-02  4638   0.293E-01    0.219E-01
RMM:   6    -0.413701238497E+03   -0.43859E-03   -0.19255E-02  5577   0.161E-01    0.180E-01
RMM:   7    -0.413700026483E+03    0.12120E-02   -0.38091E-03  5151   0.754E-02    0.997E-02
RMM:   8    -0.413699906159E+03    0.12032E-03   -0.14602E-03  5504   0.473E-02    0.496E-02
RMM:   9    -0.413699910881E+03   -0.47217E-05   -0.64334E-04  5514   0.297E-02    0.381E-02
RMM:  10    -0.413699874174E+03    0.36706E-04   -0.16968E-04  5318   0.165E-02    0.139E-02
RMM:  11    -0.413699884513E+03   -0.10339E-04   -0.11756E-04  5821   0.116E-02    0.133E-02
RMM:  12    -0.413699884039E+03    0.47464E-06   -0.14940E-05  4232   0.538E-03    0.575E-03
RMM:  13    -0.413699886696E+03   -0.26573E-05   -0.64365E-06  3336   0.318E-03    0.239E-03
RMM:  14    -0.413699890331E+03   -0.36353E-05   -0.20186E-06  2593   0.233E-03    0.118E-03
RMM:  15    -0.413699892575E+03   -0.22436E-05   -0.12975E-06  2471   0.185E-03    0.577E-04
RMM:  16    -0.413699894535E+03   -0.19606E-05   -0.10369E-06  2447   0.160E-03    0.548E-04
RMM:  17    -0.413699895311E+03   -0.77585E-06   -0.52092E-07  2275   0.118E-03
  146 T=   169. E= -.41286789E+03 F= -.41369990E+03 E0= -.41368002E+03  EK= 0.83200E+00 SP= 0.00E+00 SK= 0.00E+00
       N       E                     dE             d eps       ncg     rms          rms(c)
RMM:   1    -0.414010492360E+03   -0.31060E+00   -0.24729E+01  4298   0.921E+00    0.175E+00
RMM:   2    -0.413850900914E+03    0.15959E+00   -0.73693E-01  5458   0.103E+00    0.142E+00
RMM:   3    -0.413974832545E+03   -0.12393E+00   -0.28204E-01  5619   0.549E-01    0.189E+00
RMM:   4    -0.413834744614E+03    0.14009E+00   -0.15828E-01  5121   0.452E-01    0.764E-01
RMM:   5    -0.413823695372E+03    0.11049E-01   -0.59188E-02  4720   0.328E-01    0.238E-01
RMM:   6    -0.413824068747E+03   -0.37337E-03   -0.16831E-02  5665   0.153E-01    0.179E-01
RMM:   7    -0.413822980708E+03    0.10880E-02   -0.40841E-03  5090   0.770E-02    0.104E-01
RMM:   8    -0.413822787047E+03    0.19366E-03   -0.17868E-03  5406   0.533E-02    0.576E-02
RMM:   9    -0.413822777517E+03    0.95296E-05   -0.71575E-04  5485   0.319E-02    0.421E-02
RMM:  10    -0.413822743948E+03    0.33569E-04   -0.23533E-04  5431   0.196E-02    0.154E-02
RMM:  11    -0.413822758048E+03   -0.14101E-04   -0.11575E-04  5871   0.117E-02    0.145E-02
RMM:  12    -0.413822760677E+03   -0.26291E-05   -0.22775E-05  4635   0.654E-03    0.485E-03
RMM:  13    -0.413822767357E+03   -0.66795E-05   -0.10150E-05  3847   0.376E-03    0.260E-03
RMM:  14    -0.413822775006E+03   -0.76495E-05   -0.18694E-06  2604   0.239E-03    0.117E-03
RMM:  15    -0.413822779674E+03   -0.46681E-05   -0.10347E-06  2498   0.160E-03    0.753E-04
RMM:  16    -0.413822784460E+03   -0.47859E-05   -0.86441E-07  2423   0.137E-03    0.528E-04
RMM:  17    -0.413822787306E+03   -0.28459E-05   -0.49746E-07  2030   0.988E-04    0.396E-04
RMM:  18    -0.413822790744E+03   -0.34375E-05   -0.55843E-07  2075   0.103E-03    0.210E-04
RMM:  19    -0.413822793040E+03   -0.22964E-05   -0.37038E-07  1658   0.826E-04    0.110E-04
RMM:  20    -0.413822794285E+03   -0.12447E-05   -0.19191E-07  1378   0.680E-04    0.944E-05
RMM:  21    -0.413822795207E+03   -0.92217E-06   -0.10578E-07  1152   0.594E-04
  147 T=   194. E= -.41286795E+03 F= -.41382280E+03 E0= -.41380307E+03  EK= 0.95484E+00 SP= 0.00E+00 SK= 0.00E+00
       N       E                     dE             d eps       ncg     rms          rms(c)
RMM:   1    -0.413781686468E+03    0.41108E-01   -0.23256E+01  4294   0.900E+00    0.145E+00
RMM:   2    -0.413639211858E+03    0.14247E+00   -0.63434E-01  5470   0.954E-01    0.120E+00
RMM:   3    -0.413636407015E+03    0.28048E-02   -0.10503E-01  5467   0.384E-01    0.713E-01
RMM:   4    -0.413639231518E+03   -0.28245E-02   -0.61165E-02  4741   0.318E-01    0.368E-01
RMM:   5    -0.413665473928E+03   -0.26242E-01   -0.47473E-02  5350   0.216E-01    0.749E-01
RMM:   6    -0.413631865252E+03    0.33609E-01   -0.17193E-02  4957   0.153E-01    0.111E-01
RMM:   7    -0.413631977269E+03   -0.11202E-03   -0.49953E-03  5991   0.770E-02    0.783E-02
RMM:   8    -0.413631948459E+03    0.28809E-04   -0.14042E-03  5480   0.410E-02    0.502E-02
RMM:   9    -0.413631889144E+03    0.59315E-04   -0.38591E-04  5247   0.250E-02    0.220E-02
RMM:  10    -0.413631901612E+03   -0.12468E-04   -0.13506E-04  5962   0.134E-02    0.125E-02
RMM:  11    -0.413631909755E+03   -0.81427E-05   -0.25394E-05  4885   0.643E-03    0.744E-03
RMM:  12    -0.413631921111E+03   -0.11356E-04   -0.12431E-05  4158   0.495E-03    0.401E-03
RMM:  13    -0.413631930689E+03   -0.95776E-05   -0.35322E-06  2850   0.289E-03    0.257E-03
RMM:  14    -0.413631937493E+03   -0.68041E-05   -0.15341E-06  2599   0.193E-03    0.122E-03
RMM:  15    -0.413631942197E+03   -0.47040E-05   -0.91063E-07  2446   0.138E-03    0.729E-04
RMM:  16    -0.413631948411E+03   -0.62145E-05   -0.10412E-06  2475   0.135E-03    0.449E-04
RMM:  17    -0.413631952132E+03   -0.37210E-05   -0.57313E-07  1842   0.977E-04    0.236E-04
RMM:  18    -0.413631955189E+03   -0.30563E-05   -0.45938E-07  1837   0.918E-04    0.167E-04
RMM:  19    -0.413631958052E+03   -0.28632E-05   -0.40226E-07  1812   0.850E-04    0.127E-04
RMM:  20    -0.413631960177E+03   -0.21255E-05   -0.23610E-07  1334   0.698E-04    0.687E-05
RMM:  21    -0.413631961206E+03   -0.10283E-05   -0.12247E-07  1161   0.609E-04    0.467E-05
RMM:  22    -0.413631962063E+03   -0.85723E-06   -0.72658E-08  1044   0.568E-04
  148 T=   159. E= -.41285223E+03 F= -.41363196E+03 E0= -.41361263E+03  EK= 0.77974E+00 SP= 0.00E+00 SK= 0.00E+00
       N       E                     dE             d eps       ncg     rms          rms(c)
RMM:   1    -0.413444855635E+03    0.18711E+00   -0.15814E+01  4288   0.752E+00    0.106E+00
RMM:   2    -0.413379999263E+03    0.64856E-01   -0.41384E-01  5498   0.767E-01    0.958E-01
RMM:   3    -0.413409393430E+03   -0.29394E-01   -0.10073E-01  5886   0.313E-01    0.104E+00
RMM:   4    -0.413376946245E+03    0.32447E-01   -0.35952E-02  5044   0.216E-01    0.558E-01
RMM:   5    -0.413375106696E+03    0.18395E-02   -0.41694E-02  4463   0.265E-01    0.224E-01
RMM:   6    -0.413372894021E+03    0.22127E-02   -0.52404E-03  4705   0.106E-01    0.114E-01
RMM:   7    -0.413372640046E+03    0.25397E-03   -0.14963E-03  5554   0.486E-02    0.868E-02
RMM:   8    -0.413372477771E+03    0.16228E-03   -0.61386E-04  4649   0.318E-02    0.448E-02
RMM:   9    -0.413372485753E+03   -0.79825E-05   -0.44982E-04  4615   0.275E-02    0.159E-02
RMM:  10    -0.413372496060E+03   -0.10307E-04   -0.93757E-05  5763   0.113E-02    0.132E-02
RMM:  11    -0.413372496266E+03   -0.20569E-06   -0.17781E-05  4407   0.548E-03    0.660E-03
RMM:  12    -0.413372503790E+03   -0.75243E-05   -0.10188E-05  3858   0.446E-03    0.341E-03
RMM:  13    -0.413372510023E+03   -0.62324E-05   -0.21793E-06  2675   0.244E-03    0.200E-03
RMM:  14    -0.413372514642E+03   -0.46196E-05   -0.14870E-06  2597   0.176E-03    0.962E-04
RMM:  15    -0.413372517607E+03   -0.29651E-05   -0.85210E-07  2350   0.132E-03    0.586E-04
RMM:  16    -0.413372520538E+03   -0.29310E-05   -0.67005E-07  2202   0.112E-03    0.369E-04
RMM:  17    -0.413372522079E+03   -0.15402E-05   -0.35720E-07  1598   0.845E-04    0.197E-04
RMM:  18    -0.413372523915E+03   -0.18361E-05   -0.39678E-07  1936   0.893E-04    0.133E-04
RMM:  19    -0.413372524649E+03   -0.73488E-06   -0.18348E-07  1307   0.659E-04
  149 T=   111. E= -.41282776E+03 F= -.41337252E+03 E0= -.41335345E+03  EK= 0.54477E+00 SP= 0.00E+00 SK= 0.00E+00
       N       E                     dE             d eps       ncg     rms          rms(c)
RMM:   1    -0.413389715903E+03   -0.17192E-01   -0.11685E+01  4292   0.661E+00    0.101E+00
RMM:   2    -0.413355508227E+03    0.34208E-01   -0.28500E-01  5446   0.647E-01    0.877E-01
RMM:   3    -0.413366950856E+03   -0.11443E-01   -0.60609E-02  5722   0.264E-01    0.727E-01
RMM:   4    -0.413377005349E+03   -0.10054E-01   -0.55777E-02  5259   0.229E-01    0.734E-01
RMM:   5    -0.413352426253E+03    0.24579E-01   -0.31383E-02  4614   0.231E-01    0.165E-01
RMM:   6    -0.413351552858E+03    0.87339E-03   -0.44709E-03  5252   0.874E-02    0.937E-02
RMM:   7    -0.413351447494E+03    0.10536E-03   -0.10378E-03  5540   0.369E-02    0.675E-02
RMM:   8    -0.413351379361E+03    0.68133E-04   -0.57846E-04  5049   0.293E-02    0.395E-02
RMM:   9    -0.413351384105E+03   -0.47437E-05   -0.32325E-04  4763   0.221E-02    0.179E-02
RMM:  10    -0.413351392699E+03   -0.85937E-05   -0.76502E-05  5784   0.105E-02    0.115E-02
RMM:  11    -0.413351396690E+03   -0.39915E-05   -0.21825E-05  4720   0.589E-03    0.564E-03
RMM:  12    -0.413351402694E+03   -0.60043E-05   -0.58863E-06  3196   0.361E-03    0.304E-03
RMM:  13    -0.413351407665E+03   -0.49709E-05   -0.24603E-06  2701   0.250E-03    0.185E-03
RMM:  14    -0.413351410866E+03   -0.32004E-05   -0.14174E-06  2572   0.183E-03    0.101E-03
RMM:  15    -0.413351412407E+03   -0.15416E-05   -0.90719E-07  2345   0.135E-03    0.598E-04
RMM:  16    -0.413351413101E+03   -0.69394E-06   -0.79508E-07  2304   0.122E-03
  150 T=   104. E= -.41284302E+03 F= -.41335141E+03 E0= -.41333220E+03  EK= 0.50839E+00 SP= 0.00E+00 SK= 0.00E+00
