       N       E                     dE             d eps       ncg     rms          rms(c)
RMM:   1     0.220135245656E+04    0.22014E+04   -0.52442E+04  2132   0.654E+02
RMM:   2     0.705375834658E+03   -0.14960E+04   -0.16263E+04  2132   0.177E+02
RMM:   3     0.137342111200E+03   -0.56803E+03   -0.65771E+03  2132   0.117E+02
RMM:   4    -0.159375578161E+03   -0.29672E+03   -0.27851E+03  2132   0.936E+01
RMM:   5    -0.287568407116E+03   -0.12819E+03   -0.11445E+03  2132   0.595E+01
RMM:   6    -0.349790064309E+03   -0.62222E+02   -0.55086E+02  2132   0.423E+01
RMM:   7    -0.382609488307E+03   -0.32819E+02   -0.30383E+02  2132   0.293E+01
RMM:   8    -0.404072030403E+03   -0.21463E+02   -0.18424E+02  2132   0.233E+01
RMM:   9    -0.436022925924E+03   -0.31951E+02   -0.30864E+02  6109   0.173E+01
RMM:  10    -0.441297622388E+03   -0.52747E+01   -0.63082E+01  6396   0.540E+00
RMM:  11    -0.442505126499E+03   -0.12075E+01   -0.10994E+01  6211   0.173E+00
RMM:  12    -0.442883120739E+03   -0.37799E+00   -0.26834E+00  6363   0.601E-01    0.134E+02
RMM:  13    -0.425620437970E+03    0.17263E+02   -0.81204E+01  4677   0.119E+01    0.712E+01
RMM:  14    -0.499759463049E+03   -0.74139E+02   -0.54297E+02  5422   0.233E+01    0.307E+01
RMM:  15    -0.415552927500E+03    0.84207E+02   -0.19873E+02  5078   0.163E+01    0.680E+00
RMM:  16    -0.414007389890E+03    0.15455E+01   -0.39683E+01  6079   0.610E+00    0.424E+00
RMM:  17    -0.413212725995E+03    0.79466E+00   -0.24818E+00  5395   0.186E+00    0.243E+00
RMM:  18    -0.413171050102E+03    0.41676E-01   -0.81491E-01  5965   0.922E-01    0.163E+00
RMM:  19    -0.413168031796E+03    0.30183E-02   -0.27884E-01  5705   0.565E-01    0.854E-01
RMM:  20    -0.413184733779E+03   -0.16702E-01   -0.23078E-01  5510   0.510E-01    0.567E-01
RMM:  21    -0.413167218698E+03    0.17515E-01   -0.33664E-02  5014   0.230E-01    0.256E-01
RMM:  22    -0.413165300129E+03    0.19186E-02   -0.16530E-02  6019   0.113E-01    0.135E-01
RMM:  23    -0.413164238483E+03    0.10616E-02   -0.51525E-03  5964   0.640E-02    0.817E-02
RMM:  24    -0.413163051064E+03    0.11874E-02   -0.15471E-03  5291   0.393E-02    0.442E-02
RMM:  25    -0.413162751083E+03    0.29998E-03   -0.87458E-04  5482   0.268E-02    0.354E-02
RMM:  26    -0.413162955647E+03   -0.20456E-03   -0.91295E-04  5830   0.304E-02    0.355E-02
RMM:  27    -0.413163377867E+03   -0.42222E-03   -0.19953E-04  4583   0.199E-02    0.197E-02
RMM:  28    -0.413163832941E+03   -0.45507E-03   -0.19713E-04  5328   0.189E-02    0.855E-03
RMM:  29    -0.413164214260E+03   -0.38132E-03   -0.10849E-04  4422   0.148E-02    0.451E-03
RMM:  30    -0.413164434703E+03   -0.22044E-03   -0.76830E-05  4156   0.980E-03    0.366E-03
RMM:  31    -0.413164569005E+03   -0.13430E-03   -0.54662E-05  3187   0.694E-03    0.325E-03
RMM:  32    -0.413164594073E+03   -0.25067E-04   -0.20806E-05  2984   0.299E-03    0.165E-03
RMM:  33    -0.413164608097E+03   -0.14025E-04   -0.89469E-06  2790   0.232E-03    0.530E-04
RMM:  34    -0.413164611936E+03   -0.38382E-05   -0.49075E-06  2656   0.168E-03    0.811E-04
RMM:  35    -0.413164612285E+03   -0.34932E-06   -0.24225E-06  2333   0.122E-03
    1 T=    61. E= -.41286678E+03 F= -.41316461E+03 E0= -.41314211E+03  EK= 0.29784E+00 SP= 0.00E+00 SK= 0.00E+00
       N       E                     dE             d eps       ncg     rms          rms(c)
RMM:   1    -0.413154748683E+03    0.98633E-02   -0.11140E+01  3993   0.697E-01    0.886E-01
RMM:   2    -0.413165726029E+03   -0.10977E-01   -0.13750E-01  3842   0.101E-01    0.641E-01
RMM:   3    -0.413164154986E+03    0.15710E-02   -0.63977E-03  4632   0.349E-02    0.151E-01
RMM:   4    -0.413177750215E+03   -0.13595E-01   -0.14270E-02  5225   0.996E-02    0.488E-01
RMM:   5    -0.413163977251E+03    0.13773E-01   -0.68639E-03  4867   0.814E-02    0.260E-02
RMM:   6    -0.413164059827E+03   -0.82576E-04   -0.11038E-03  5828   0.319E-02    0.151E-02
RMM:   7    -0.413164072504E+03   -0.12677E-04   -0.14184E-04  5634   0.102E-02    0.107E-02
RMM:   8    -0.413164079857E+03   -0.73536E-05   -0.17521E-05  3709   0.412E-03    0.557E-03
RMM:   9    -0.413164087119E+03   -0.72616E-05   -0.37214E-06  2722   0.237E-03    0.358E-03
RMM:  10    -0.413164094015E+03   -0.68964E-05   -0.14305E-06  2533   0.168E-03    0.211E-03
RMM:  11    -0.413164101858E+03   -0.78422E-05   -0.12172E-06  2524   0.148E-03    0.821E-04
RMM:  12    -0.413164105561E+03   -0.37035E-05   -0.64034E-07  2222   0.108E-03    0.318E-04
RMM:  13    -0.413164106939E+03   -0.13784E-05   -0.36232E-07  1591   0.803E-04    0.205E-04
RMM:  14    -0.413164109336E+03   -0.23967E-05   -0.30581E-07  1397   0.749E-04    0.127E-04
RMM:  15    -0.413164110926E+03   -0.15902E-05   -0.23935E-07  1257   0.687E-04    0.695E-05
RMM:  16    -0.413164111522E+03   -0.59584E-06   -0.17263E-07  1139   0.634E-04
    2 T=    61. E= -.41286641E+03 F= -.41316411E+03 E0= -.41314161E+03  EK= 0.29770E+00 SP= 0.00E+00 SK= 0.00E+00
       N       E                     dE             d eps       ncg     rms          rms(c)
RMM:   1    -0.413155889077E+03    0.82218E-02   -0.11171E+01  4194   0.702E-01    0.911E-01
RMM:   2    -0.413165749025E+03   -0.98599E-02   -0.13477E-01  3863   0.960E-02    0.633E-01
RMM:   3    -0.413165114617E+03    0.63441E-03   -0.69033E-03  4845   0.385E-02    0.167E-01
RMM:   4    -0.413193319111E+03   -0.28204E-01   -0.28610E-02  5181   0.141E-01    0.700E-01
RMM:   5    -0.413164695734E+03    0.28623E-01   -0.13936E-02  4831   0.117E-01    0.366E-02
RMM:   6    -0.413164873571E+03   -0.17784E-03   -0.22374E-03  5801   0.461E-02    0.192E-02
RMM:   7    -0.413164884928E+03   -0.11357E-04   -0.26973E-04  5883   0.137E-02    0.139E-02
RMM:   8    -0.413164885534E+03   -0.60527E-06   -0.35732E-05  4463   0.536E-03    0.829E-03
RMM:   9    -0.413164884870E+03    0.66329E-06   -0.61664E-06  3028   0.282E-03
    3 T=    61. E= -.41286695E+03 F= -.41316488E+03 E0= -.41314239E+03  EK= 0.29793E+00 SP= 0.00E+00 SK= 0.00E+00
       N       E                     dE             d eps       ncg     rms          rms(c)
RMM:   1    -0.413155485487E+03    0.94000E-02   -0.11087E+01  4227   0.704E-01    0.894E-01
RMM:   2    -0.413165948310E+03   -0.10463E-01   -0.13349E-01  4201   0.992E-02    0.628E-01
RMM:   3    -0.413168653417E+03   -0.27051E-02   -0.96995E-03  5171   0.689E-02    0.310E-01
RMM:   4    -0.413192020897E+03   -0.23367E-01   -0.39207E-02  5132   0.168E-01    0.690E-01
RMM:   5    -0.413164527695E+03    0.27493E-01   -0.11373E-02  4732   0.115E-01    0.534E-02
RMM:   6    -0.413164562176E+03   -0.34481E-04   -0.19499E-03  5561   0.442E-02    0.172E-02
RMM:   7    -0.413164583846E+03   -0.21671E-04   -0.28615E-04  6036   0.148E-02    0.122E-02
RMM:   8    -0.413164586449E+03   -0.26027E-05   -0.37747E-05  4808   0.572E-03    0.723E-03
RMM:   9    -0.413164588234E+03   -0.17855E-05   -0.76126E-06  3197   0.370E-03    0.360E-03
RMM:  10    -0.413164589936E+03   -0.17019E-05   -0.17213E-06  2554   0.210E-03    0.218E-03
RMM:  11    -0.413164592170E+03   -0.22341E-05   -0.10725E-06  2544   0.161E-03    0.111E-03
RMM:  12    -0.413164593311E+03   -0.11410E-05   -0.50319E-07  2273   0.111E-03    0.467E-04
RMM:  13    -0.413164594517E+03   -0.12056E-05   -0.38149E-07  1721   0.876E-04    0.219E-04
RMM:  14    -0.413164595069E+03   -0.55235E-06   -0.21602E-07  1377   0.735E-04
    4 T=    61. E= -.41286663E+03 F= -.41316460E+03 E0= -.41314211E+03  EK= 0.29796E+00 SP= 0.00E+00 SK= 0.00E+00
       N       E                     dE             d eps       ncg     rms          rms(c)
RMM:   1    -0.413155239893E+03    0.93546E-02   -0.11127E+01  4236   0.710E-01    0.884E-01
RMM:   2    -0.413166163234E+03   -0.10923E-01   -0.13759E-01  3928   0.958E-02    0.640E-01
RMM:   3    -0.413164985506E+03    0.11777E-02   -0.64664E-03  4922   0.364E-02    0.162E-01
RMM:   4    -0.413194889056E+03   -0.29904E-01   -0.30535E-02  5166   0.146E-01    0.721E-01
RMM:   5    -0.413164464901E+03    0.30424E-01   -0.14727E-02  4818   0.120E-01    0.360E-02
RMM:   6    -0.413164654844E+03   -0.18994E-03   -0.23612E-03  5785   0.471E-02    0.173E-02
RMM:   7    -0.413164673170E+03   -0.18326E-04   -0.28206E-04  5889   0.138E-02    0.133E-02
RMM:   8    -0.413164678177E+03   -0.50074E-05   -0.35770E-05  4451   0.535E-03    0.807E-03
RMM:   9    -0.413164682518E+03   -0.43411E-05   -0.61083E-06  2997   0.284E-03    0.539E-03
RMM:  10    -0.413164688706E+03   -0.61877E-05   -0.19997E-06  2557   0.205E-03    0.285E-03
RMM:  11    -0.413164694627E+03   -0.59208E-05   -0.14355E-06  2544   0.176E-03    0.141E-03
RMM:  12    -0.413164698399E+03   -0.37725E-05   -0.75160E-07  2434   0.133E-03    0.474E-04
RMM:  13    -0.413164699601E+03   -0.12022E-05   -0.32250E-07  1989   0.923E-04    0.294E-04
RMM:  14    -0.413164700912E+03   -0.13101E-05   -0.20159E-07  1479   0.762E-04    0.172E-04
RMM:  15    -0.413164702830E+03   -0.19183E-05   -0.23402E-07  1529   0.759E-04    0.136E-04
RMM:  16    -0.413164703098E+03   -0.26849E-06   -0.92457E-08  1071   0.629E-04
    5 T=    61. E= -.41286659E+03 F= -.41316470E+03 E0= -.41314223E+03  EK= 0.29812E+00 SP= 0.00E+00 SK= 0.00E+00
       N       E                     dE             d eps       ncg     rms          rms(c)
RMM:   1    -0.413156256106E+03    0.84467E-02   -0.11181E+01  4248   0.715E-01    0.907E-01
RMM:   2    -0.413166418643E+03   -0.10163E-01   -0.13465E-01  3972   0.965E-02    0.635E-01
RMM:   3    -0.413165530557E+03    0.88809E-03   -0.67048E-03  4839   0.367E-02    0.166E-01
RMM:   4    -0.413193643603E+03   -0.28113E-01   -0.28497E-02  5160   0.141E-01    0.699E-01
RMM:   5    -0.413165121824E+03    0.28522E-01   -0.13927E-02  4817   0.116E-01    0.361E-02
RMM:   6    -0.413165297428E+03   -0.17560E-03   -0.22133E-03  5782   0.456E-02    0.187E-02
RMM:   7    -0.413165308478E+03   -0.11050E-04   -0.26707E-04  5869   0.135E-02    0.137E-02
RMM:   8    -0.413165308953E+03   -0.47549E-06   -0.34333E-05  4434   0.532E-03    0.819E-03
RMM:   9    -0.413165308390E+03    0.56340E-06   -0.60985E-06  2979   0.284E-03
    6 T=    61. E= -.41286684E+03 F= -.41316531E+03 E0= -.41314284E+03  EK= 0.29847E+00 SP= 0.00E+00 SK= 0.00E+00
       N       E                     dE             d eps       ncg     rms          rms(c)
RMM:   1    -0.413156115538E+03    0.91934E-02   -0.11126E+01  4272   0.726E-01    0.902E-01
RMM:   2    -0.413165674459E+03   -0.95589E-02   -0.13399E-01  4248   0.100E-01    0.628E-01
RMM:   3    -0.413168694878E+03   -0.30204E-02   -0.97708E-03  5157   0.674E-02    0.305E-01
RMM:   4    -0.413192550200E+03   -0.23855E-01   -0.39195E-02  5117   0.167E-01    0.694E-01
RMM:   5    -0.413164776049E+03    0.27774E-01   -0.11509E-02  4730   0.115E-01    0.532E-02
RMM:   6    -0.413164818873E+03   -0.42824E-04   -0.19782E-03  5565   0.442E-02    0.174E-02
RMM:   7    -0.413164839020E+03   -0.20146E-04   -0.28347E-04  6033   0.147E-02    0.123E-02
RMM:   8    -0.413164840535E+03   -0.15148E-05   -0.37611E-05  4780   0.570E-03    0.721E-03
RMM:   9    -0.413164839123E+03    0.14115E-05   -0.73104E-06  3114   0.364E-03    0.355E-03
RMM:  10    -0.413164839246E+03   -0.12294E-06   -0.17368E-06  2547   0.209E-03
    7 T=    61. E= -.41286626E+03 F= -.41316484E+03 E0= -.41314239E+03  EK= 0.29858E+00 SP= 0.00E+00 SK= 0.00E+00
       N       E                     dE             d eps       ncg     rms          rms(c)
RMM:   1    -0.413156710167E+03    0.81290E-02   -0.11134E+01  4279   0.735E-01    0.883E-01
RMM:   2    -0.413166944980E+03   -0.10235E-01   -0.13710E-01  4077   0.963E-02    0.637E-01
RMM:   3    -0.413166090710E+03    0.85427E-03   -0.66109E-03  4984   0.401E-02    0.174E-01
RMM:   4    -0.413204755048E+03   -0.38664E-01   -0.40242E-02  5152   0.166E-01    0.817E-01
RMM:   5    -0.413165382816E+03    0.39372E-01   -0.19038E-02  4807   0.137E-01    0.426E-02
RMM:   6    -0.413165600082E+03   -0.21727E-03   -0.30260E-03  5766   0.536E-02    0.176E-02
RMM:   7    -0.413165626319E+03   -0.26237E-04   -0.37267E-04  5934   0.154E-02    0.140E-02
RMM:   8    -0.413165630978E+03   -0.46590E-05   -0.43344E-05  4488   0.568E-03    0.829E-03
RMM:   9    -0.413165634480E+03   -0.35020E-05   -0.74901E-06  3062   0.293E-03    0.549E-03
RMM:  10    -0.413165639478E+03   -0.49978E-05   -0.23991E-06  2568   0.218E-03    0.282E-03
RMM:  11    -0.413165643875E+03   -0.43973E-05   -0.14756E-06  2538   0.178E-03    0.135E-03
RMM:  12    -0.413165646493E+03   -0.26183E-05   -0.81245E-07  2449   0.137E-03    0.435E-04
RMM:  13    -0.413165647594E+03   -0.11011E-05   -0.38169E-07  2031   0.964E-04    0.279E-04
RMM:  14    -0.413165648647E+03   -0.10532E-05   -0.27485E-07  1646   0.815E-04    0.183E-04
RMM:  15    -0.413165649483E+03   -0.83569E-06   -0.23976E-07  1447   0.751E-04
    8 T=    61. E= -.41286668E+03 F= -.41316565E+03 E0= -.41314322E+03  EK= 0.29897E+00 SP= 0.00E+00 SK= 0.00E+00
       N       E                     dE             d eps       ncg     rms          rms(c)
RMM:   1    -0.413156533814E+03    0.91148E-02   -0.11193E+01  4285   0.728E-01    0.901E-01
RMM:   2    -0.413166927578E+03   -0.10394E-01   -0.13609E-01  4146   0.100E-01    0.639E-01
RMM:   3    -0.413165999292E+03    0.92829E-03   -0.66929E-03  4835   0.400E-02    0.166E-01
RMM:   4    -0.413195869910E+03   -0.29871E-01   -0.30453E-02  5158   0.145E-01    0.721E-01
RMM:   5    -0.413165450444E+03    0.30419E-01   -0.14914E-02  4812   0.120E-01    0.364E-02
RMM:   6    -0.413165637968E+03   -0.18752E-03   -0.23628E-03  5787   0.470E-02    0.184E-02
RMM:   7    -0.413165650497E+03   -0.12529E-04   -0.28306E-04  5870   0.139E-02    0.138E-02
RMM:   8    -0.413165651506E+03   -0.10091E-05   -0.36130E-05  4469   0.544E-03    0.842E-03
RMM:   9    -0.413165650848E+03    0.65795E-06   -0.63578E-06  3019   0.289E-03
    9 T=    61. E= -.41286652E+03 F= -.41316565E+03 E0= -.41314324E+03  EK= 0.29913E+00 SP= 0.00E+00 SK= 0.00E+00
       N       E                     dE             d eps       ncg     rms          rms(c)
RMM:   1    -0.413156975835E+03    0.86757E-02   -0.11174E+01  4298   0.732E-01    0.909E-01
RMM:   2    -0.413166573242E+03   -0.95974E-02   -0.13422E-01  4288   0.972E-02    0.630E-01
RMM:   3    -0.413169904999E+03   -0.33318E-02   -0.10133E-02  5154   0.697E-02    0.315E-01
RMM:   4    -0.413191899547E+03   -0.21995E-01   -0.38059E-02  5109   0.165E-01    0.676E-01
RMM:   5    -0.413165783541E+03    0.26116E-01   -0.10745E-02  4723   0.112E-01    0.524E-02
RMM:   6    -0.413165815776E+03   -0.32236E-04   -0.18388E-03  5561   0.426E-02    0.180E-02
RMM:   7    -0.413165832900E+03   -0.17124E-04   -0.26475E-04  6027   0.145E-02    0.124E-02
RMM:   8    -0.413165833076E+03   -0.17556E-06   -0.35724E-05  4767   0.568E-03    0.720E-03
RMM:   9    -0.413165829306E+03    0.37692E-05   -0.74166E-06  3128   0.369E-03    0.358E-03
RMM:  10    -0.413165828326E+03    0.97997E-06   -0.16800E-06  2548   0.207E-03
   10 T=    61. E= -.41286648E+03 F= -.41316583E+03 E0= -.41314344E+03  EK= 0.29935E+00 SP= 0.00E+00 SK= 0.00E+00
       N       E                     dE             d eps       ncg     rms          rms(c)
RMM:   1    -0.413157131592E+03    0.86977E-02   -0.11125E+01  4295   0.734E-01    0.884E-01
RMM:   2    -0.413167996612E+03   -0.10865E-01   -0.13599E-01  4172   0.954E-02    0.634E-01
RMM:   3    -0.413167106614E+03    0.89000E-03   -0.65218E-03  4969   0.421E-02    0.176E-01
RMM:   4    -0.413205640831E+03   -0.38534E-01   -0.40054E-02  5149   0.166E-01    0.816E-01
RMM:   5    -0.413166326008E+03    0.39315E-01   -0.19200E-02  4803   0.137E-01    0.418E-02
RMM:   6    -0.413166537576E+03   -0.21157E-03   -0.29480E-03  5763   0.534E-02    0.181E-02
RMM:   7    -0.413166558239E+03   -0.20663E-04   -0.36191E-04  5932   0.155E-02    0.141E-02
RMM:   8    -0.413166560561E+03   -0.23213E-05   -0.42605E-05  4504   0.570E-03    0.838E-03
RMM:   9    -0.413166561638E+03   -0.10777E-05   -0.75383E-06  3065   0.298E-03    0.554E-03
RMM:  10    -0.413166564142E+03   -0.25038E-05   -0.24244E-06  2567   0.221E-03    0.282E-03
RMM:  11    -0.413166566499E+03   -0.23574E-05   -0.15291E-06  2539   0.180E-03    0.133E-03
RMM:  12    -0.413166567624E+03   -0.11245E-05   -0.80135E-07  2443   0.136E-03    0.443E-04
RMM:  13    -0.413166568028E+03   -0.40378E-06   -0.36646E-07  2028   0.958E-04
   11 T=    61. E= -.41286678E+03 F= -.41316657E+03 E0= -.41314421E+03  EK= 0.29979E+00 SP= 0.00E+00 SK= 0.00E+00
       N       E                     dE             d eps       ncg     rms          rms(c)
RMM:   1    -0.413157226293E+03    0.93413E-02   -0.11206E+01  4289   0.743E-01    0.896E-01
RMM:   2    -0.413167646137E+03   -0.10420E-01   -0.13769E-01  4212   0.987E-02    0.641E-01
RMM:   3    -0.413166597742E+03    0.10484E-02   -0.65218E-03  4779   0.384E-02    0.161E-01
RMM:   4    -0.413190911078E+03   -0.24313E-01   -0.24604E-02  5151   0.130E-01    0.651E-01
RMM:   5    -0.413166217315E+03    0.24694E-01   -0.12229E-02  4814   0.108E-01    0.322E-02
RMM:   6    -0.413166369113E+03   -0.15180E-03   -0.18778E-03  5795   0.419E-02    0.173E-02
RMM:   7    -0.413166379551E+03   -0.10438E-04   -0.22233E-04  5811   0.126E-02    0.127E-02
RMM:   8    -0.413166380877E+03   -0.13256E-05   -0.30142E-05  4379   0.509E-03    0.777E-03
RMM:   9    -0.413166380868E+03    0.84838E-08   -0.55279E-06  2935   0.278E-03
   12 T=    61. E= -.41286631E+03 F= -.41316638E+03 E0= -.41314405E+03  EK= 0.30007E+00 SP= 0.00E+00 SK= 0.00E+00
       N       E                     dE             d eps       ncg     rms          rms(c)
RMM:   1    -0.413158163413E+03    0.82175E-02   -0.11229E+01  4300   0.746E-01    0.914E-01
RMM:   2    -0.413167875125E+03   -0.97117E-02   -0.13450E-01  4281   0.957E-02    0.632E-01
RMM:   3    -0.413171065819E+03   -0.31907E-02   -0.10049E-02  5171   0.675E-02    0.311E-01
RMM:   4    -0.413194116027E+03   -0.23050E-01   -0.38817E-02  5100   0.166E-01    0.686E-01
RMM:   5    -0.413167057509E+03    0.27059E-01   -0.11201E-02  4718   0.113E-01    0.520E-02
RMM:   6    -0.413167097831E+03   -0.40322E-04   -0.18937E-03  5574   0.430E-02    0.181E-02
RMM:   7    -0.413167111599E+03   -0.13768E-04   -0.26449E-04  6015   0.144E-02    0.126E-02
RMM:   8    -0.413167110242E+03    0.13563E-05   -0.36544E-05  4800   0.568E-03    0.731E-03
RMM:   9    -0.413167104114E+03    0.61288E-05   -0.71984E-06  3015   0.356E-03    0.357E-03
RMM:  10    -0.413167102147E+03    0.19665E-05   -0.17117E-06  2538   0.205E-03    0.202E-03
RMM:  11    -0.413167099679E+03    0.24679E-05   -0.10143E-06  2529   0.155E-03    0.105E-03
RMM:  12    -0.413167098011E+03    0.16679E-05   -0.48100E-07  2185   0.108E-03    0.503E-04
RMM:  13    -0.413167096008E+03    0.20034E-05   -0.35681E-07  1766   0.885E-04    0.230E-04
RMM:  14    -0.413167094613E+03    0.13951E-05   -0.21689E-07  1482   0.754E-04    0.141E-04
RMM:  15    -0.413167092585E+03    0.20277E-05   -0.24018E-07  1556   0.748E-04    0.112E-04
RMM:  16    -0.413167091398E+03    0.11873E-05   -0.12839E-07  1274   0.640E-04    0.113E-04
RMM:  17    -0.413167089839E+03    0.15591E-05   -0.11810E-07  1237   0.620E-04    0.423E-05
RMM:  18    -0.413167088751E+03    0.10875E-05   -0.76375E-08  1047   0.565E-04    0.288E-05
RMM:  19    -0.413167088121E+03    0.62980E-06   -0.38811E-08   832   0.522E-04
   13 T=    61. E= -.41286644E+03 F= -.41316709E+03 E0= -.41314479E+03  EK= 0.30065E+00 SP= 0.00E+00 SK= 0.00E+00
       N       E                     dE             d eps       ncg     rms          rms(c)
RMM:   1    -0.413158197701E+03    0.88910E-02   -0.11149E+01  4292   0.746E-01    0.889E-01
RMM:   2    -0.413168759024E+03   -0.10561E-01   -0.13639E-01  4217   0.952E-02    0.633E-01
RMM:   3    -0.413168000530E+03    0.75849E-03   -0.65593E-03  4909   0.396E-02    0.173E-01
RMM:   4    -0.413203017836E+03   -0.35017E-01   -0.36148E-02  5145   0.158E-01    0.778E-01
RMM:   5    -0.413167366032E+03    0.35652E-01   -0.17402E-02  4797   0.130E-01    0.393E-02
RMM:   6    -0.413167575467E+03   -0.20943E-03   -0.27858E-03  5768   0.507E-02    0.188E-02
RMM:   7    -0.413167590628E+03   -0.15162E-04   -0.32817E-04  5856   0.149E-02    0.143E-02
RMM:   8    -0.413167590921E+03   -0.29318E-06   -0.41897E-05  4599   0.573E-03    0.890E-03
RMM:   9    -0.413167589306E+03    0.16157E-05   -0.71656E-06  3066   0.298E-03    0.601E-03
RMM:  10    -0.413167589002E+03    0.30392E-06   -0.22036E-06  2557   0.217E-03
   14 T=    61. E= -.41286645E+03 F= -.41316759E+03 E0= -.41314532E+03  EK= 0.30114E+00 SP= 0.00E+00 SK= 0.00E+00
       N       E                     dE             d eps       ncg     rms          rms(c)
RMM:   1    -0.413158275401E+03    0.93139E-02   -0.11237E+01  4302   0.756E-01    0.893E-01
RMM:   2    -0.413169532744E+03   -0.11257E-01   -0.13870E-01  4291   0.100E-01    0.644E-01
RMM:   3    -0.413171570647E+03   -0.20379E-02   -0.93963E-03  5115   0.676E-02    0.301E-01
RMM:   4    -0.413201232818E+03   -0.29662E-01   -0.45404E-02  5098   0.179E-01    0.757E-01
RMM:   5    -0.413167711189E+03    0.33522E-01   -0.14164E-02  4721   0.125E-01    0.511E-02
RMM:   6    -0.413167801350E+03   -0.90161E-04   -0.23551E-03  5626   0.478E-02    0.152E-02
RMM:   7    -0.413167827527E+03   -0.26177E-04   -0.31130E-04  6015   0.149E-02    0.118E-02
RMM:   8    -0.413167831058E+03   -0.35306E-05   -0.39339E-05  4734   0.569E-03    0.683E-03
RMM:   9    -0.413167832810E+03   -0.17526E-05   -0.66392E-06  2916   0.327E-03    0.333E-03
RMM:  10    -0.413167834384E+03   -0.15734E-05   -0.20939E-06  2551   0.204E-03    0.195E-03
RMM:  11    -0.413167835748E+03   -0.13639E-05   -0.10766E-06  2534   0.149E-03    0.958E-04
RMM:  12    -0.413167836381E+03   -0.63290E-06   -0.51189E-07  2025   0.106E-03
   15 T=    61. E= -.41286637E+03 F= -.41316784E+03 E0= -.41314560E+03  EK= 0.30146E+00 SP= 0.00E+00 SK= 0.00E+00
       N       E                     dE             d eps       ncg     rms          rms(c)
RMM:   1    -0.413159963920E+03    0.78718E-02   -0.11277E+01  4305   0.764E-01    0.916E-01
RMM:   2    -0.413169709932E+03   -0.97460E-02   -0.13584E-01  4242   0.101E-01    0.635E-01
RMM:   3    -0.413169094876E+03    0.61506E-03   -0.70099E-03  4937   0.399E-02    0.177E-01
RMM:   4    -0.413204449093E+03   -0.35354E-01   -0.36435E-02  5146   0.159E-01    0.782E-01
RMM:   5    -0.413168496393E+03    0.35953E-01   -0.17550E-02  4799   0.131E-01    0.405E-02
RMM:   6    -0.413168702633E+03   -0.20624E-03   -0.28305E-03  5800   0.511E-02    0.203E-02
RMM:   7    -0.413168713031E+03   -0.10398E-04   -0.33236E-04  5903   0.151E-02    0.151E-02
RMM:   8    -0.413168709827E+03    0.32045E-05   -0.43573E-05  4681   0.590E-03    0.953E-03
RMM:   9    -0.413168704128E+03    0.56986E-05   -0.75867E-06  3128   0.306E-03    0.636E-03
RMM:  10    -0.413168699167E+03    0.49610E-05   -0.21972E-06  2550   0.219E-03    0.333E-03
RMM:  11    -0.413168695019E+03    0.41487E-05   -0.16967E-06  2545   0.195E-03    0.160E-03
RMM:  12    -0.413168691759E+03    0.32595E-05   -0.83077E-07  2464   0.147E-03    0.513E-04
RMM:  13    -0.413168690784E+03    0.97525E-06   -0.34340E-07  2121   0.987E-04
   16 T=    61. E= -.41286677E+03 F= -.41316869E+03 E0= -.41314649E+03  EK= 0.30192E+00 SP= 0.00E+00 SK= 0.00E+00
       N       E                     dE             d eps       ncg     rms          rms(c)
RMM:   1    -0.413159720877E+03    0.89709E-02   -0.11180E+01  4295   0.758E-01    0.895E-01
RMM:   2    -0.413170332760E+03   -0.10612E-01   -0.13664E-01  4253   0.985E-02    0.632E-01
RMM:   3    -0.413169470172E+03    0.86259E-03   -0.65614E-03  4883   0.403E-02    0.173E-01
RMM:   4    -0.413202421400E+03   -0.32951E-01   -0.33768E-02  5143   0.152E-01    0.755E-01
RMM:   5    -0.413168952201E+03    0.33469E-01   -0.16440E-02  4804   0.126E-01    0.381E-02
RMM:   6    -0.413169143919E+03   -0.19172E-03   -0.26043E-03  5784   0.493E-02    0.192E-02
RMM:   7    -0.413169154136E+03   -0.10217E-04   -0.30600E-04  5887   0.145E-02    0.142E-02
RMM:   8    -0.413169152267E+03    0.18694E-05   -0.40369E-05  4585   0.566E-03    0.895E-03
RMM:   9    -0.413169147984E+03    0.42831E-05   -0.71718E-06  3086   0.297E-03    0.601E-03
RMM:  10    -0.413169144746E+03    0.32374E-05   -0.20631E-06  2546   0.211E-03    0.317E-03
RMM:  11    -0.413169141958E+03    0.27886E-05   -0.15918E-06  2538   0.189E-03    0.155E-03
RMM:  12    -0.413169139680E+03    0.22774E-05   -0.79536E-07  2447   0.143E-03    0.508E-04
RMM:  13    -0.413169138949E+03    0.73068E-06   -0.33156E-07  2112   0.963E-04
   17 T=    62. E= -.41286677E+03 F= -.41316914E+03 E0= -.41314698E+03  EK= 0.30237E+00 SP= 0.00E+00 SK= 0.00E+00
       N       E                     dE             d eps       ncg     rms          rms(c)
RMM:   1    -0.413160105250E+03    0.90344E-02   -0.11264E+01  4297   0.768E-01    0.890E-01
RMM:   2    -0.413171397907E+03   -0.11293E-01   -0.13907E-01  4260   0.101E-01    0.644E-01
RMM:   3    -0.413170093887E+03    0.13040E-02   -0.64900E-03  4887   0.403E-02    0.170E-01
RMM:   4    -0.413204414549E+03   -0.34321E-01   -0.35384E-02  5148   0.156E-01    0.771E-01
RMM:   5    -0.413169454161E+03    0.34960E-01   -0.17154E-02  4799   0.129E-01    0.382E-02
RMM:   6    -0.413169654389E+03   -0.20023E-03   -0.27300E-03  5794   0.504E-02    0.186E-02
RMM:   7    -0.413169668569E+03   -0.14180E-04   -0.31347E-04  5888   0.148E-02    0.141E-02
RMM:   8    -0.413169669341E+03   -0.77196E-06   -0.41586E-05  4607   0.574E-03    0.890E-03
RMM:   9    -0.413169668021E+03    0.13199E-05   -0.73979E-06  3119   0.303E-03    0.600E-03
RMM:  10    -0.413169668357E+03   -0.33564E-06   -0.22441E-06  2559   0.218E-03
   18 T=    62. E= -.41286664E+03 F= -.41316967E+03 E0= -.41314755E+03  EK= 0.30303E+00 SP= 0.00E+00 SK= 0.00E+00
       N       E                     dE             d eps       ncg     rms          rms(c)
RMM:   1    -0.413161822501E+03    0.78455E-02   -0.11320E+01  4304   0.771E-01    0.915E-01
RMM:   2    -0.413171783951E+03   -0.99615E-02   -0.13742E-01  4305   0.100E-01    0.639E-01
RMM:   3    -0.413174838106E+03   -0.30542E-02   -0.99407E-03  5132   0.688E-02    0.312E-01
RMM:   4    -0.413199424436E+03   -0.24586E-01   -0.40924E-02  5091   0.170E-01    0.705E-01
RMM:   5    -0.413170709787E+03    0.28715E-01   -0.11991E-02  4706   0.117E-01    0.497E-02
RMM:   6    -0.413170769213E+03   -0.59426E-04   -0.20140E-03  5587   0.441E-02    0.171E-02
RMM:   7    -0.413170783286E+03   -0.14073E-04   -0.26722E-04  5989   0.141E-02    0.121E-02
RMM:   8    -0.413170780704E+03    0.25821E-05   -0.35119E-05  4691   0.555E-03    0.691E-03
RMM:   9    -0.413170772877E+03    0.78264E-05   -0.62370E-06  2873   0.328E-03    0.321E-03
RMM:  10    -0.413170769553E+03    0.33241E-05   -0.17866E-06  2541   0.196E-03    0.184E-03
RMM:  11    -0.413170765681E+03    0.38724E-05   -0.89672E-07  2513   0.145E-03    0.953E-04
RMM:  12    -0.413170763190E+03    0.24907E-05   -0.45694E-07  2039   0.105E-03    0.472E-04
RMM:  13    -0.413170760376E+03    0.28138E-05   -0.32990E-07  1833   0.897E-04    0.224E-04
RMM:  14    -0.413170758743E+03    0.16338E-05   -0.18675E-07  1407   0.729E-04    0.136E-04
RMM:  15    -0.413170755721E+03    0.30215E-05   -0.21269E-07  1647   0.758E-04    0.118E-04
RMM:  16    -0.413170754143E+03    0.15778E-05   -0.11663E-07  1236   0.632E-04    0.105E-04
RMM:  17    -0.413170752061E+03    0.20827E-05   -0.10383E-07  1244   0.621E-04    0.429E-05
RMM:  18    -0.413170750636E+03    0.14251E-05   -0.64700E-08  1019   0.562E-04    0.270E-05
RMM:  19    -0.413170749904E+03    0.73139E-06   -0.36740E-08   842   0.528E-04
   19 T=    62. E= -.41286686E+03 F= -.41317075E+03 E0= -.41314867E+03  EK= 0.30389E+00 SP= 0.00E+00 SK= 0.00E+00
       N       E                     dE             d eps       ncg     rms          rms(c)
RMM:   1    -0.413171348478E+03   -0.59784E-03   -0.11359E+01  4298   0.827E-01    0.904E-01
RMM:   2    -0.413172402851E+03   -0.10544E-02   -0.14573E-01  4249   0.103E-01    0.634E-01
RMM:   3    -0.413171780932E+03    0.62192E-03   -0.66280E-03  4944   0.395E-02    0.190E-01
RMM:   4    -0.413210278375E+03   -0.38497E-01   -0.40035E-02  5149   0.166E-01    0.815E-01
RMM:   5    -0.413171124793E+03    0.39154E-01   -0.19229E-02  4793   0.137E-01    0.421E-02
RMM:   6    -0.413171337714E+03   -0.21292E-03   -0.31129E-03  5761   0.537E-02    0.202E-02
RMM:   7    -0.413171350309E+03   -0.12595E-04   -0.36464E-04  5868   0.157E-02    0.152E-02
RMM:   8    -0.413171347102E+03    0.32070E-05   -0.47455E-05  4747   0.607E-03    0.958E-03
RMM:   9    -0.413171340962E+03    0.61396E-05   -0.81824E-06  3164   0.310E-03    0.643E-03
RMM:  10    -0.413171335654E+03    0.53081E-05   -0.22818E-06  2545   0.223E-03    0.334E-03
RMM:  11    -0.413171331553E+03    0.41004E-05   -0.16486E-06  2535   0.195E-03    0.164E-03
RMM:  12    -0.413171328504E+03    0.30498E-05   -0.81188E-07  2460   0.148E-03    0.523E-04
RMM:  13    -0.413171327601E+03    0.90256E-06   -0.34663E-07  2140   0.100E-03
   20 T=    62. E= -.41286664E+03 F= -.41317133E+03 E0= -.41314929E+03  EK= 0.30469E+00 SP= 0.00E+00 SK= 0.00E+00
       N       E                     dE             d eps       ncg     rms          rms(c)
RMM:   1    -0.413162963644E+03    0.83649E-02   -0.11319E+01  4297   0.790E-01    0.890E-01
RMM:   2    -0.413173715035E+03   -0.10751E-01   -0.14077E-01  4268   0.104E-01    0.644E-01
RMM:   3    -0.413172538536E+03    0.11765E-02   -0.65521E-03  4902   0.410E-02    0.173E-01
RMM:   4    -0.413208931419E+03   -0.36393E-01   -0.37750E-02  5143   0.161E-01    0.793E-01
RMM:   5    -0.413171855885E+03    0.37076E-01   -0.18224E-02  4794   0.133E-01    0.395E-02
RMM:   6    -0.413172066750E+03   -0.21086E-03   -0.29748E-03  5786   0.524E-02    0.189E-02
RMM:   7    -0.413172083037E+03   -0.16287E-04   -0.34338E-04  5905   0.152E-02    0.144E-02
RMM:   8    -0.413172082701E+03    0.33652E-06   -0.45357E-05  4699   0.594E-03    0.933E-03
RMM:   9    -0.413172079784E+03    0.29169E-05   -0.79113E-06  3151   0.310E-03    0.633E-03
RMM:  10    -0.413172078371E+03    0.14128E-05   -0.23219E-06  2557   0.224E-03    0.333E-03
RMM:  11    -0.413172077381E+03    0.98972E-06   -0.18080E-06  2560   0.199E-03
   21 T=    62. E= -.41286647E+03 F= -.41317208E+03 E0= -.41315009E+03  EK= 0.30561E+00 SP= 0.00E+00 SK= 0.00E+00
       N       E                     dE             d eps       ncg     rms          rms(c)
RMM:   1    -0.413163855569E+03    0.82228E-02   -0.11394E+01  4301   0.785E-01    0.913E-01
RMM:   2    -0.413174482440E+03   -0.10627E-01   -0.13957E-01  4290   0.101E-01    0.643E-01
RMM:   3    -0.413174508598E+03   -0.26158E-04   -0.74179E-03  5019   0.504E-02    0.213E-01
RMM:   4    -0.413219590771E+03   -0.45082E-01   -0.50664E-02  5126   0.187E-01    0.885E-01
RMM:   5    -0.413173129659E+03    0.46461E-01   -0.22108E-02  4785   0.149E-01    0.472E-02
RMM:   6    -0.413173342946E+03   -0.21329E-03   -0.34948E-03  5755   0.581E-02    0.197E-02
RMM:   7    -0.413173361272E+03   -0.18325E-04   -0.42291E-04  5953   0.169E-02    0.156E-02
RMM:   8    -0.413173358544E+03    0.27281E-05   -0.53379E-05  4881   0.639E-03    0.965E-03
RMM:   9    -0.413173352079E+03    0.64645E-05   -0.86807E-06  3157   0.315E-03    0.589E-03
RMM:  10    -0.413173346547E+03    0.55319E-05   -0.26335E-06  2569   0.231E-03    0.293E-03
RMM:  11    -0.413173342211E+03    0.43367E-05   -0.14042E-06  2516   0.182E-03    0.142E-03
RMM:  12    -0.413173338724E+03    0.34862E-05   -0.76558E-07  2456   0.139E-03    0.455E-04
RMM:  13    -0.413173336984E+03    0.17406E-05   -0.33798E-07  2097   0.973E-04    0.295E-04
RMM:  14    -0.413173334560E+03    0.24235E-05   -0.21749E-07  1633   0.796E-04    0.180E-04
RMM:  15    -0.413173332035E+03    0.25254E-05   -0.16074E-07  1480   0.726E-04    0.114E-04
RMM:  16    -0.413173331123E+03    0.91151E-06   -0.84423E-08  1135   0.628E-04
   22 T=    62. E= -.41286679E+03 F= -.41317333E+03 E0= -.41315139E+03  EK= 0.30654E+00 SP= 0.00E+00 SK= 0.00E+00
       N       E                     dE             d eps       ncg     rms          rms(c)
RMM:   1    -0.413164894442E+03    0.84376E-02   -0.11380E+01  4297   0.791E-01    0.914E-01
RMM:   2    -0.413175057647E+03   -0.10163E-01   -0.13795E-01  4270   0.106E-01    0.636E-01
RMM:   3    -0.413174491803E+03    0.56584E-03   -0.69288E-03  4880   0.445E-02    0.182E-01
RMM:   4    -0.413211665559E+03   -0.37174E-01   -0.38519E-02  5145   0.163E-01    0.801E-01
RMM:   5    -0.413173755877E+03    0.37910E-01   -0.18647E-02  4793   0.135E-01    0.413E-02
RMM:   6    -0.413173961134E+03   -0.20526E-03   -0.30413E-03  5782   0.531E-02    0.209E-02
RMM:   7    -0.413173970688E+03   -0.95538E-05   -0.35287E-04  5879   0.156E-02    0.154E-02
RMM:   8    -0.413173965735E+03    0.49532E-05   -0.46995E-05  4766   0.616E-03    0.985E-03
RMM:   9    -0.413173957806E+03    0.79289E-05   -0.82983E-06  3185   0.320E-03    0.660E-03
RMM:  10    -0.413173950299E+03    0.75064E-05   -0.22344E-06  2545   0.226E-03    0.349E-03
RMM:  11    -0.413173943700E+03    0.65993E-05   -0.17129E-06  2537   0.201E-03    0.170E-03
RMM:  12    -0.413173938909E+03    0.47906E-05   -0.82243E-07  2464   0.151E-03    0.539E-04
RMM:  13    -0.413173937496E+03    0.14131E-05   -0.34914E-07  2146   0.101E-03    0.350E-04
RMM:  14    -0.413173935769E+03    0.17269E-05   -0.18437E-07  1638   0.779E-04    0.198E-04
RMM:  15    -0.413173931721E+03    0.40489E-05   -0.18861E-07  1712   0.778E-04    0.184E-04
RMM:  16    -0.413173931084E+03    0.63692E-06   -0.70307E-08  1056   0.606E-04
   23 T=    63. E= -.41286645E+03 F= -.41317393E+03 E0= -.41315204E+03  EK= 0.30748E+00 SP= 0.00E+00 SK= 0.00E+00
       N       E                     dE             d eps       ncg     rms          rms(c)
RMM:   1    -0.413165839137E+03    0.80926E-02   -0.11384E+01  4291   0.793E-01    0.893E-01
RMM:   2    -0.413177242815E+03   -0.11404E-01   -0.14149E-01  4271   0.105E-01    0.644E-01
RMM:   3    -0.413175887449E+03    0.13554E-02   -0.64468E-03  4833   0.420E-02    0.171E-01
RMM:   4    -0.413207320860E+03   -0.31433E-01   -0.32151E-02  5152   0.149E-01    0.737E-01
RMM:   5    -0.413175383024E+03    0.31938E-01   -0.15832E-02  4802   0.124E-01    0.361E-02
RMM:   6    -0.413175555322E+03   -0.17230E-03   -0.25062E-03  5784   0.483E-02    0.185E-02
RMM:   7    -0.413175567443E+03   -0.12121E-04   -0.28226E-04  5838   0.142E-02    0.135E-02
RMM:   8    -0.413175566156E+03    0.12872E-05   -0.39993E-05  4670   0.572E-03    0.900E-03
RMM:   9    -0.413175561667E+03    0.44889E-05   -0.72721E-06  3144   0.308E-03    0.607E-03
RMM:  10    -0.413175558934E+03    0.27330E-05   -0.20233E-06  2552   0.215E-03    0.328E-03
RMM:  11    -0.413175556589E+03    0.23448E-05   -0.16430E-06  2536   0.195E-03    0.161E-03
RMM:  12    -0.413175554713E+03    0.18761E-05   -0.75819E-07  2448   0.143E-03    0.537E-04
RMM:  13    -0.413175554163E+03    0.54994E-06   -0.30992E-07  2104   0.952E-04
   24 T=    63. E= -.41286673E+03 F= -.41317555E+03 E0= -.41315371E+03  EK= 0.30883E+00 SP= 0.00E+00 SK= 0.00E+00
       N       E                     dE             d eps       ncg     rms          rms(c)
RMM:   1    -0.413167217334E+03    0.83374E-02   -0.11496E+01  4296   0.805E-01    0.910E-01
RMM:   2    -0.413178168219E+03   -0.10951E-01   -0.14132E-01  4275   0.107E-01    0.649E-01
RMM:   3    -0.413176866770E+03    0.13014E-02   -0.66129E-03  4822   0.424E-02    0.172E-01
RMM:   4    -0.413207207415E+03   -0.30341E-01   -0.30787E-02  5149   0.146E-01    0.724E-01
RMM:   5    -0.413176435077E+03    0.30772E-01   -0.15295E-02  4806   0.121E-01    0.354E-02
RMM:   6    -0.413176594740E+03   -0.15966E-03   -0.23571E-03  5789   0.473E-02    0.188E-02
RMM:   7    -0.413176604693E+03   -0.99534E-05   -0.26005E-04  5818   0.139E-02    0.132E-02
RMM:   8    -0.413176602507E+03    0.21858E-05   -0.38920E-05  4671   0.568E-03    0.901E-03
RMM:   9    -0.413176596517E+03    0.59901E-05   -0.74753E-06  3188   0.317E-03    0.599E-03
RMM:  10    -0.413176592107E+03    0.44106E-05   -0.20047E-06  2552   0.219E-03    0.324E-03
RMM:  11    -0.413176587844E+03    0.42623E-05   -0.16861E-06  2545   0.197E-03    0.157E-03
RMM:  12    -0.413176584734E+03    0.31103E-05   -0.72671E-07  2437   0.142E-03    0.521E-04
RMM:  13    -0.413176583816E+03    0.91760E-06   -0.29692E-07  2050   0.935E-04
   25 T=    63. E= -.41286668E+03 F= -.41317658E+03 E0= -.41315479E+03  EK= 0.30990E+00 SP= 0.00E+00 SK= 0.00E+00
       N       E                     dE             d eps       ncg     rms          rms(c)
RMM:   1    -0.413168421509E+03    0.81632E-02   -0.11518E+01  4293   0.811E-01    0.924E-01
RMM:   2    -0.413178511785E+03   -0.10090E-01   -0.14053E-01  4269   0.110E-01    0.641E-01
RMM:   3    -0.413177752681E+03    0.75910E-03   -0.68403E-03  4671   0.400E-02    0.170E-01
RMM:   4    -0.413196864375E+03   -0.19112E-01   -0.19287E-02  5144   0.116E-01    0.579E-01
RMM:   5    -0.413177492690E+03    0.19372E-01   -0.96684E-03  4811   0.959E-02    0.308E-02
RMM:   6    -0.413177584227E+03   -0.91537E-04   -0.15197E-03  5812   0.369E-02    0.173E-02
RMM:   7    -0.413177585083E+03   -0.85564E-06   -0.14898E-04  5495   0.108E-02    0.102E-02
RMM:   8    -0.413177576163E+03    0.89198E-05   -0.19085E-05  3751   0.414E-03    0.648E-03
RMM:   9    -0.413177569563E+03    0.65997E-05   -0.51402E-06  2890   0.274E-03    0.452E-03
RMM:  10    -0.413177564659E+03    0.49038E-05   -0.12328E-06  2529   0.181E-03    0.288E-03
RMM:  11    -0.413177555348E+03    0.93113E-05   -0.12978E-06  2519   0.181E-03    0.137E-03
RMM:  12    -0.413177550494E+03    0.48539E-05   -0.54129E-07  2361   0.126E-03    0.553E-04
RMM:  13    -0.413177549101E+03    0.13937E-05   -0.20983E-07  1809   0.834E-04    0.314E-04
RMM:  14    -0.413177546216E+03    0.28843E-05   -0.13732E-07  1525   0.721E-04    0.151E-04
RMM:  15    -0.413177541878E+03    0.43382E-05   -0.13182E-07  1581   0.708E-04    0.213E-04
RMM:  16    -0.413177541259E+03    0.61942E-06   -0.43627E-08   891   0.555E-04
   26 T=    63. E= -.41286644E+03 F= -.41317754E+03 E0= -.41315579E+03  EK= 0.31110E+00 SP= 0.00E+00 SK= 0.00E+00
       N       E                     dE             d eps       ncg     rms          rms(c)
RMM:   1    -0.413169673443E+03    0.78684E-02   -0.11488E+01  4293   0.815E-01    0.900E-01
RMM:   2    -0.413180754055E+03   -0.11081E-01   -0.14217E-01  4271   0.104E-01    0.644E-01
RMM:   3    -0.413179736595E+03    0.10175E-02   -0.64943E-03  4678   0.410E-02    0.169E-01
RMM:   4    -0.413200962267E+03   -0.21226E-01   -0.21429E-02  5154   0.122E-01    0.609E-01
RMM:   5    -0.413179448820E+03    0.21513E-01   -0.10710E-02  4809   0.101E-01    0.305E-02
RMM:   6    -0.413179558645E+03   -0.10982E-03   -0.16978E-03  5818   0.389E-02    0.168E-02
RMM:   7    -0.413179563685E+03   -0.50397E-05   -0.16649E-04  5572   0.113E-02    0.105E-02
RMM:   8    -0.413179560484E+03    0.32003E-05   -0.24905E-05  4205   0.468E-03    0.736E-03
RMM:   9    -0.413179555400E+03    0.50847E-05   -0.64918E-06  3126   0.299E-03    0.511E-03
RMM:  10    -0.413179552261E+03    0.31381E-05   -0.15079E-06  2528   0.201E-03    0.302E-03
RMM:  11    -0.413179547961E+03    0.43008E-05   -0.15095E-06  2534   0.188E-03    0.148E-03
RMM:  12    -0.413179544899E+03    0.30622E-05   -0.62024E-07  2417   0.134E-03    0.533E-04
RMM:  13    -0.413179544165E+03    0.73361E-06   -0.22933E-07  1929   0.862E-04
   27 T=    64. E= -.41286680E+03 F= -.41317954E+03 E0= -.41315785E+03  EK= 0.31274E+00 SP= 0.00E+00 SK= 0.00E+00
       N       E                     dE             d eps       ncg     rms          rms(c)
RMM:   1    -0.413171537876E+03    0.80070E-02   -0.11627E+01  4292   0.836E-01    0.909E-01
RMM:   2    -0.413181905403E+03   -0.10368E-01   -0.14543E-01  4267   0.108E-01    0.655E-01
RMM:   3    -0.413180688805E+03    0.12166E-02   -0.66174E-03  4551   0.423E-02    0.165E-01
RMM:   4    -0.413194775301E+03   -0.14086E-01   -0.14420E-02  5157   0.103E-01    0.499E-01
RMM:   5    -0.413180430236E+03    0.14345E-01   -0.70840E-03  4816   0.820E-02    0.257E-02
RMM:   6    -0.413180485132E+03   -0.54896E-04   -0.10807E-03  5843   0.312E-02    0.150E-02
RMM:   7    -0.413180488586E+03   -0.34535E-05   -0.10819E-04  5404   0.951E-03    0.922E-03
RMM:   8    -0.413180483425E+03    0.51611E-05   -0.18222E-05  4051   0.429E-03    0.612E-03
RMM:   9    -0.413180480903E+03    0.25213E-05   -0.48337E-06  2929   0.283E-03    0.428E-03
RMM:  10    -0.413180477468E+03    0.34355E-05   -0.10324E-06  2510   0.177E-03    0.252E-03
RMM:  11    -0.413180473220E+03    0.42482E-05   -0.10775E-06  2507   0.162E-03    0.123E-03
RMM:  12    -0.413180469926E+03    0.32935E-05   -0.51486E-07  2332   0.119E-03    0.425E-04
RMM:  13    -0.413180469220E+03    0.70561E-06   -0.18143E-07  1617   0.774E-04
   28 T=    64. E= -.41286623E+03 F= -.41318047E+03 E0= -.41315882E+03  EK= 0.31424E+00 SP= 0.00E+00 SK= 0.00E+00
       N       E                     dE             d eps       ncg     rms          rms(c)
RMM:   1    -0.413173515473E+03    0.69545E-02   -0.11697E+01  4290   0.840E-01    0.933E-01
RMM:   2    -0.413183682815E+03   -0.10167E-01   -0.14328E-01  4267   0.113E-01    0.647E-01
RMM:   3    -0.413182798434E+03    0.88438E-03   -0.69724E-03  4323   0.416E-02    0.168E-01
RMM:   4    -0.413186376704E+03   -0.35783E-02   -0.41346E-03  5155   0.548E-02    0.251E-01
RMM:   5    -0.413182822881E+03    0.35538E-02   -0.17432E-03  4824   0.411E-02    0.221E-02
RMM:   6    -0.413182822307E+03    0.57388E-06   -0.30395E-04  5756   0.172E-02    0.158E-02
RMM:   7    -0.413182812061E+03    0.10247E-04   -0.57787E-05  5075   0.775E-03    0.695E-03
RMM:   8    -0.413182802580E+03    0.94808E-05   -0.62360E-06  2975   0.316E-03    0.325E-03
RMM:   9    -0.413182798070E+03    0.45101E-05   -0.11059E-06  2519   0.174E-03    0.220E-03
RMM:  10    -0.413182790847E+03    0.72223E-05   -0.64328E-07  2418   0.129E-03    0.118E-03
RMM:  11    -0.413182784672E+03    0.61750E-05   -0.39675E-07  2092   0.101E-03    0.454E-04
RMM:  12    -0.413182780066E+03    0.46060E-05   -0.21498E-07  1616   0.810E-04    0.194E-04
RMM:  13    -0.413182776705E+03    0.33615E-05   -0.13146E-07  1317   0.704E-04    0.109E-04
RMM:  14    -0.413182772138E+03    0.45664E-05   -0.11532E-07  1411   0.693E-04    0.924E-05
RMM:  15    -0.413182768076E+03    0.40620E-05   -0.93758E-08  1356   0.648E-04    0.912E-05
RMM:  16    -0.413182766204E+03    0.18728E-05   -0.52295E-08  1006   0.557E-04    0.422E-05
RMM:  17    -0.413182764215E+03    0.19890E-05   -0.43669E-08   961   0.547E-04    0.261E-05
RMM:  18    -0.413182763822E+03    0.39239E-06   -0.20362E-08   729   0.506E-04
   29 T=    64. E= -.41286660E+03 F= -.41318276E+03 E0= -.41316117E+03  EK= 0.31617E+00 SP= 0.00E+00 SK= 0.00E+00
       N       E                     dE             d eps       ncg     rms          rms(c)
RMM:   1    -0.413174770685E+03    0.79935E-02   -0.11654E+01  4287   0.843E-01    0.910E-01
RMM:   2    -0.413185777771E+03   -0.11007E-01   -0.14576E-01  4265   0.110E-01    0.647E-01
RMM:   3    -0.413184582370E+03    0.11954E-02   -0.65922E-03  4453   0.431E-02    0.169E-01
RMM:   4    -0.413193428003E+03   -0.88456E-02   -0.93166E-03  5157   0.833E-02    0.397E-01
RMM:   5    -0.413184428740E+03    0.89993E-02   -0.44632E-03  4821   0.651E-02    0.236E-02
RMM:   6    -0.413184453838E+03   -0.25097E-04   -0.71635E-04  5837   0.250E-02    0.154E-02
RMM:   7    -0.413184452367E+03    0.14706E-05   -0.92849E-05  5415   0.908E-03    0.983E-03
RMM:   8    -0.413184443775E+03    0.85926E-05   -0.12736E-05  3710   0.409E-03    0.470E-03
RMM:   9    -0.413184439398E+03    0.43768E-05   -0.27292E-06  2675   0.233E-03    0.319E-03
RMM:  10    -0.413184435238E+03    0.41598E-05   -0.75545E-07  2479   0.147E-03    0.193E-03
RMM:  11    -0.413184430158E+03    0.50803E-05   -0.61646E-07  2442   0.126E-03    0.866E-04
RMM:  12    -0.413184426497E+03    0.36611E-05   -0.32897E-07  2031   0.946E-04    0.320E-04
RMM:  13    -0.413184425164E+03    0.13327E-05   -0.14102E-07  1323   0.705E-04    0.179E-04
RMM:  14    -0.413184422844E+03    0.23199E-05   -0.10264E-07  1192   0.668E-04    0.987E-05
RMM:  15    -0.413184420067E+03    0.27775E-05   -0.85546E-08  1207   0.656E-04    0.918E-05
RMM:  16    -0.413184419382E+03    0.68436E-06   -0.42823E-08   909   0.585E-04
   30 T=    65. E= -.41286657E+03 F= -.41318442E+03 E0= -.41316287E+03  EK= 0.31785E+00 SP= 0.00E+00 SK= 0.00E+00
       N       E                     dE             d eps       ncg     rms          rms(c)
RMM:   1    -0.413177130162E+03    0.72899E-02   -0.11792E+01  4290   0.885E-01    0.911E-01
RMM:   2    -0.413188197503E+03   -0.11067E-01   -0.15107E-01  4266   0.122E-01    0.661E-01
RMM:   3    -0.413186178668E+03    0.20188E-02   -0.64603E-03  4349   0.397E-02    0.166E-01
RMM:   4    -0.413189326679E+03   -0.31480E-02   -0.39002E-03  5136   0.533E-02    0.236E-01
RMM:   5    -0.413186181068E+03    0.31456E-02   -0.15507E-03  4814   0.387E-02    0.194E-02
RMM:   6    -0.413186180371E+03    0.69783E-06   -0.26174E-04  5730   0.161E-02    0.142E-02
RMM:   7    -0.413186176327E+03    0.40436E-05   -0.48076E-05  4922   0.708E-03    0.629E-03
RMM:   8    -0.413186171326E+03    0.50010E-05   -0.65418E-06  3044   0.322E-03    0.308E-03
RMM:   9    -0.413186169758E+03    0.15677E-05   -0.10177E-06  2515   0.171E-03    0.200E-03
RMM:  10    -0.413186166648E+03    0.31102E-05   -0.59384E-07  2299   0.118E-03    0.108E-03
RMM:  11    -0.413186163945E+03    0.27032E-05   -0.36645E-07  1934   0.944E-04    0.417E-04
RMM:  12    -0.413186161750E+03    0.21944E-05   -0.21291E-07  1548   0.781E-04    0.193E-04
RMM:  13    -0.413186160075E+03    0.16753E-05   -0.12851E-07  1251   0.683E-04    0.111E-04
RMM:  14    -0.413186158283E+03    0.17915E-05   -0.96222E-08  1194   0.644E-04    0.647E-05
RMM:  15    -0.413186155880E+03    0.24031E-05   -0.90616E-08  1246   0.638E-04    0.618E-05
RMM:  16    -0.413186154921E+03    0.95932E-06   -0.40501E-08   850   0.556E-04
   31 T=    65. E= -.41286659E+03 F= -.41318615E+03 E0= -.41316466E+03  EK= 0.31957E+00 SP= 0.00E+00 SK= 0.00E+00
       N       E                     dE             d eps       ncg     rms          rms(c)
RMM:   1    -0.413182516067E+03    0.36398E-02   -0.11919E+01  4292   0.912E-01    0.938E-01
RMM:   2    -0.413189875744E+03   -0.73597E-02   -0.15056E-01  4264   0.119E-01    0.655E-01
RMM:   3    -0.413188893090E+03    0.98265E-03   -0.70343E-03  4311   0.499E-02    0.174E-01
RMM:   4    -0.413191996423E+03   -0.31033E-02   -0.38161E-03  5124   0.546E-02    0.235E-01
RMM:   5    -0.413188888356E+03    0.31081E-02   -0.15106E-03  4809   0.385E-02    0.222E-02
RMM:   6    -0.413188885752E+03    0.26043E-05   -0.27963E-04  5729   0.165E-02    0.162E-02
RMM:   7    -0.413188874079E+03    0.11673E-04   -0.53537E-05  4944   0.753E-03    0.630E-03
RMM:   8    -0.413188865247E+03    0.88318E-05   -0.64432E-06  3032   0.320E-03    0.319E-03
RMM:   9    -0.413188861503E+03    0.37436E-05   -0.99049E-07  2507   0.170E-03    0.208E-03
RMM:  10    -0.413188854145E+03    0.73587E-05   -0.57791E-07  2379   0.123E-03    0.108E-03
RMM:  11    -0.413188848819E+03    0.53255E-05   -0.32427E-07  1920   0.928E-04    0.438E-04
RMM:  12    -0.413188843926E+03    0.48935E-05   -0.19836E-07  1593   0.792E-04    0.181E-04
RMM:  13    -0.413188840398E+03    0.35275E-05   -0.11997E-07  1298   0.687E-04    0.105E-04
RMM:  14    -0.413188836986E+03    0.34118E-05   -0.88531E-08  1244   0.646E-04    0.713E-05
RMM:  15    -0.413188831795E+03    0.51913E-05   -0.93475E-08  1344   0.662E-04    0.745E-05
RMM:  16    -0.413188830535E+03    0.12603E-05   -0.40599E-08   890   0.556E-04    0.472E-05
RMM:  17    -0.413188828378E+03    0.21564E-05   -0.40121E-08   955   0.563E-04    0.228E-05
RMM:  18    -0.413188827967E+03    0.41096E-06   -0.18085E-08   704   0.514E-04
   32 T=    66. E= -.41286695E+03 F= -.41318883E+03 E0= -.41316738E+03  EK= 0.32188E+00 SP= 0.00E+00 SK= 0.00E+00
       N       E                     dE             d eps       ncg     rms          rms(c)
RMM:   1    -0.413189657559E+03   -0.82918E-03   -0.11950E+01  4291   0.950E-01    0.924E-01
RMM:   2    -0.413192260618E+03   -0.26031E-02   -0.15030E-01  4271   0.131E-01    0.651E-01
RMM:   3    -0.413190806253E+03    0.14544E-02   -0.66468E-03  4140   0.412E-02    0.170E-01
RMM:   4    -0.413190826184E+03   -0.19931E-04   -0.10095E-03  4648   0.233E-02    0.236E-02
RMM:   5    -0.413190845893E+03   -0.19709E-04   -0.66075E-05  4858   0.817E-03    0.304E-02
RMM:   6    -0.413190806754E+03    0.39139E-04   -0.49380E-05  5058   0.725E-03    0.152E-02
RMM:   7    -0.413190789560E+03    0.17194E-04   -0.29389E-05  4268   0.597E-03    0.409E-03
RMM:   8    -0.413190784154E+03    0.54067E-05   -0.30112E-06  2673   0.261E-03    0.256E-03
RMM:   9    -0.413190782075E+03    0.20781E-05   -0.48919E-07  2310   0.137E-03    0.149E-03
RMM:  10    -0.413190776426E+03    0.56497E-05   -0.26276E-07  1614   0.833E-04    0.651E-04
RMM:  11    -0.413190769568E+03    0.68583E-05   -0.19797E-07  1463   0.744E-04    0.283E-04
RMM:  12    -0.413190767365E+03    0.22025E-05   -0.59550E-08   988   0.566E-04    0.163E-04
RMM:  13    -0.413190761695E+03    0.56704E-05   -0.81654E-08  1136   0.620E-04    0.104E-04
RMM:  14    -0.413190757333E+03    0.43614E-05   -0.52328E-08   987   0.578E-04    0.857E-05
RMM:  15    -0.413190756515E+03    0.81810E-06   -0.15249E-08   595   0.487E-04
   33 T=    66. E= -.41286670E+03 F= -.41319076E+03 E0= -.41316936E+03  EK= 0.32406E+00 SP= 0.00E+00 SK= 0.00E+00
       N       E                     dE             d eps       ncg     rms          rms(c)
RMM:   1    -0.413186057979E+03    0.46994E-02   -0.12018E+01  4287   0.926E-01    0.916E-01
RMM:   2    -0.413195029647E+03   -0.89717E-02   -0.15660E-01  4256   0.128E-01    0.665E-01
RMM:   3    -0.413193300947E+03    0.17287E-02   -0.64972E-03  4396   0.441E-02    0.174E-01
RMM:   4    -0.413198236358E+03   -0.49354E-02   -0.56120E-03  5149   0.660E-02    0.297E-01
RMM:   5    -0.413193286998E+03    0.49494E-02   -0.24137E-03  4798   0.487E-02    0.219E-02
RMM:   6    -0.413193276753E+03    0.10245E-04   -0.39543E-04  5747   0.202E-02    0.151E-02
RMM:   7    -0.413193274397E+03    0.23557E-05   -0.63127E-05  5118   0.807E-03    0.755E-03
RMM:   8    -0.413193268612E+03    0.57856E-05   -0.98872E-06  3407   0.377E-03    0.360E-03
RMM:   9    -0.413193266384E+03    0.22274E-05   -0.16315E-06  2570   0.200E-03    0.219E-03
RMM:  10    -0.413193263110E+03    0.32745E-05   -0.62516E-07  2372   0.127E-03    0.126E-03
RMM:  11    -0.413193259333E+03    0.37768E-05   -0.45175E-07  2187   0.105E-03    0.505E-04
RMM:  12    -0.413193256549E+03    0.27835E-05   -0.24843E-07  1682   0.827E-04    0.215E-04
RMM:  13    -0.413193254888E+03    0.16618E-05   -0.12776E-07  1146   0.681E-04    0.128E-04
RMM:  14    -0.413193253170E+03    0.17173E-05   -0.96735E-08  1125   0.654E-04    0.690E-05
RMM:  15    -0.413193250506E+03    0.26648E-05   -0.92506E-08  1238   0.661E-04    0.673E-05
RMM:  16    -0.413193249992E+03    0.51408E-06   -0.41887E-08   855   0.576E-04
   34 T=    66. E= -.41286680E+03 F= -.41319325E+03 E0= -.41317190E+03  EK= 0.32645E+00 SP= 0.00E+00 SK= 0.00E+00
       N       E                     dE             d eps       ncg     rms          rms(c)
RMM:   1    -0.413186767367E+03    0.64831E-02   -0.12122E+01  4298   0.939E-01    0.942E-01
RMM:   2    -0.413197251003E+03   -0.10484E-01   -0.15766E-01  4255   0.135E-01    0.665E-01
RMM:   3    -0.413196005575E+03    0.12454E-02   -0.67890E-03  4500   0.442E-02    0.181E-01
RMM:   4    -0.413204677977E+03   -0.86724E-02   -0.92453E-03  5158   0.822E-02    0.396E-01
RMM:   5    -0.413195816078E+03    0.88619E-02   -0.44919E-03  4814   0.654E-02    0.259E-02
RMM:   6    -0.413195808891E+03    0.71877E-05   -0.72496E-04  5785   0.261E-02    0.167E-02
RMM:   7    -0.413195805954E+03    0.29366E-05   -0.10389E-04  5404   0.941E-03    0.953E-03
RMM:   8    -0.413195796752E+03    0.92016E-05   -0.14577E-05  3779   0.422E-03    0.457E-03
RMM:   9    -0.413195791443E+03    0.53092E-05   -0.26828E-06  2688   0.231E-03    0.277E-03
RMM:  10    -0.413195785375E+03    0.60680E-05   -0.77224E-07  2477   0.144E-03    0.163E-03
RMM:  11    -0.413195778266E+03    0.71095E-05   -0.55181E-07  2384   0.119E-03    0.720E-04
RMM:  12    -0.413195772588E+03    0.56771E-05   -0.31949E-07  2025   0.935E-04    0.273E-04
RMM:  13    -0.413195770286E+03    0.23027E-05   -0.14612E-07  1304   0.712E-04    0.171E-04
RMM:  14    -0.413195766970E+03    0.33152E-05   -0.10295E-07  1153   0.667E-04    0.969E-05
RMM:  15    -0.413195762385E+03    0.45855E-05   -0.91252E-08  1236   0.670E-04    0.833E-05
RMM:  16    -0.413195761184E+03    0.12005E-05   -0.50989E-08   969   0.601E-04    0.645E-05
RMM:  17    -0.413195757074E+03    0.41105E-05   -0.63326E-08  1254   0.629E-04    0.500E-05
RMM:  18    -0.413195755870E+03    0.12043E-05   -0.29697E-08   839   0.541E-04    0.257E-05
RMM:  19    -0.413195755656E+03    0.21380E-06   -0.16858E-08   685   0.518E-04
   35 T=    67. E= -.41286674E+03 F= -.41319576E+03 E0= -.41317445E+03  EK= 0.32902E+00 SP= 0.00E+00 SK= 0.00E+00
       N       E                     dE             d eps       ncg     rms          rms(c)
RMM:   1    -0.413189325378E+03    0.64305E-02   -0.12153E+01  4297   0.962E-01    0.941E-01
RMM:   2    -0.413199112141E+03   -0.97868E-02   -0.15639E-01  4251   0.121E-01    0.658E-01
RMM:   3    -0.413198259470E+03    0.85267E-03   -0.70524E-03  4831   0.456E-02    0.194E-01
RMM:   4    -0.413230276365E+03   -0.32017E-01   -0.32407E-02  5158   0.151E-01    0.746E-01
RMM:   5    -0.413197855434E+03    0.32421E-01   -0.16306E-02  4802   0.124E-01    0.387E-02
RMM:   6    -0.413197918947E+03   -0.63512E-04   -0.25655E-03  5865   0.472E-02    0.201E-02
RMM:   7    -0.413197929705E+03   -0.10758E-04   -0.26384E-04  5771   0.140E-02    0.134E-02
RMM:   8    -0.413197922028E+03    0.76767E-05   -0.36811E-05  4660   0.565E-03    0.886E-03
RMM:   9    -0.413197916258E+03    0.57700E-05   -0.11344E-05  3756   0.378E-03    0.589E-03
RMM:  10    -0.413197907113E+03    0.91452E-05   -0.22810E-06  2559   0.246E-03    0.297E-03
RMM:  11    -0.413197900120E+03    0.69922E-05   -0.15240E-06  2513   0.193E-03    0.166E-03
RMM:  12    -0.413197891679E+03    0.84410E-05   -0.81894E-07  2466   0.158E-03    0.617E-04
RMM:  13    -0.413197889050E+03    0.26292E-05   -0.31959E-07  2190   0.102E-03    0.440E-04
RMM:  14    -0.413197887488E+03    0.15621E-05   -0.13710E-07  1483   0.730E-04    0.272E-04
RMM:  15    -0.413197880741E+03    0.67468E-05   -0.15196E-07  1887   0.772E-04    0.345E-04
RMM:  16    -0.413197879934E+03    0.80737E-06   -0.44871E-08   926   0.560E-04
   36 T=    67. E= -.41286650E+03 F= -.41319788E+03 E0= -.41317662E+03  EK= 0.33138E+00 SP= 0.00E+00 SK= 0.00E+00
       N       E                     dE             d eps       ncg     rms          rms(c)
RMM:   1    -0.413191304849E+03    0.65759E-02   -0.12218E+01  4303   0.988E-01    0.924E-01
RMM:   2    -0.413202652196E+03   -0.11347E-01   -0.16300E-01  4250   0.136E-01    0.670E-01
RMM:   3    -0.413201332476E+03    0.13197E-02   -0.68046E-03  4790   0.522E-02    0.199E-01
RMM:   4    -0.413240046358E+03   -0.38714E-01   -0.39388E-02  5159   0.166E-01    0.818E-01
RMM:   5    -0.413200746236E+03    0.39300E-01   -0.19924E-02  4804   0.137E-01    0.399E-02
RMM:   6    -0.413200834252E+03   -0.88016E-04   -0.29720E-03  5865   0.514E-02    0.201E-02
RMM:   7    -0.413200847824E+03   -0.13571E-04   -0.29592E-04  5743   0.147E-02    0.132E-02
RMM:   8    -0.413200842557E+03    0.52669E-05   -0.35054E-05  4204   0.523E-03    0.831E-03
RMM:   9    -0.413200839378E+03    0.31789E-05   -0.12378E-05  3826   0.379E-03    0.577E-03
RMM:  10    -0.413200833503E+03    0.58750E-05   -0.29390E-06  2650   0.257E-03    0.289E-03
RMM:  11    -0.413200828076E+03    0.54271E-05   -0.19649E-06  2560   0.212E-03    0.163E-03
RMM:  12    -0.413200823559E+03    0.45168E-05   -0.78595E-07  2466   0.154E-03    0.673E-04
RMM:  13    -0.413200822318E+03    0.12406E-05   -0.30850E-07  2176   0.993E-04    0.471E-04
RMM:  14    -0.413200821022E+03    0.12961E-05   -0.13759E-07  1479   0.730E-04    0.259E-04
RMM:  15    -0.413200816423E+03    0.45990E-05   -0.18443E-07  1959   0.796E-04    0.402E-04
RMM:  16    -0.413200815915E+03    0.50780E-06   -0.49164E-08   946   0.570E-04
   37 T=    68. E= -.41286666E+03 F= -.41320082E+03 E0= -.41317960E+03  EK= 0.33416E+00 SP= 0.00E+00 SK= 0.00E+00
       N       E                     dE             d eps       ncg     rms          rms(c)
RMM:   1    -0.413194637438E+03    0.61790E-02   -0.12385E+01  4308   0.103E+00    0.946E-01
RMM:   2    -0.413205602263E+03   -0.10965E-01   -0.16263E-01  4247   0.132E-01    0.674E-01
RMM:   3    -0.413203990064E+03    0.16122E-02   -0.70360E-03  4726   0.509E-02    0.197E-01
RMM:   4    -0.413234977159E+03   -0.30987E-01   -0.31201E-02  5155   0.148E-01    0.734E-01
RMM:   5    -0.413203582424E+03    0.31395E-01   -0.15991E-02  4812   0.122E-01    0.370E-02
RMM:   6    -0.413203638935E+03   -0.56511E-04   -0.23972E-03  5848   0.460E-02    0.196E-02
RMM:   7    -0.413203649501E+03   -0.10566E-04   -0.25137E-04  5795   0.137E-02    0.132E-02
RMM:   8    -0.413203642695E+03    0.68056E-05   -0.36526E-05  4685   0.562E-03    0.860E-03
RMM:   9    -0.413203637992E+03    0.47034E-05   -0.10671E-05  3668   0.365E-03    0.554E-03
RMM:  10    -0.413203630594E+03    0.73973E-05   -0.21354E-06  2548   0.232E-03    0.282E-03
RMM:  11    -0.413203624671E+03    0.59232E-05   -0.14459E-06  2514   0.186E-03    0.154E-03
RMM:  12    -0.413203618055E+03    0.66160E-05   -0.73381E-07  2452   0.148E-03    0.572E-04
RMM:  13    -0.413203615931E+03    0.21236E-05   -0.30183E-07  2148   0.982E-04    0.406E-04
RMM:  14    -0.413203614496E+03    0.14358E-05   -0.13610E-07  1455   0.719E-04    0.248E-04
RMM:  15    -0.413203608707E+03    0.57884E-05   -0.14284E-07  1733   0.752E-04    0.273E-04
RMM:  16    -0.413203607839E+03    0.86807E-06   -0.48497E-08   934   0.577E-04
   38 T=    69. E= -.41286692E+03 F= -.41320361E+03 E0= -.41318243E+03  EK= 0.33669E+00 SP= 0.00E+00 SK= 0.00E+00
       N       E                     dE             d eps       ncg     rms          rms(c)
RMM:   1    -0.413200474997E+03    0.31337E-02   -0.12466E+01  4304   0.107E+00    0.958E-01
RMM:   2    -0.413207111190E+03   -0.66362E-02   -0.16514E-01  4257   0.125E-01    0.668E-01
RMM:   3    -0.413206405747E+03    0.70544E-03   -0.75879E-03  4943   0.550E-02    0.223E-01
RMM:   4    -0.413256239292E+03   -0.49834E-01   -0.52608E-02  5139   0.190E-01    0.926E-01
RMM:   5    -0.413205374542E+03    0.50865E-01   -0.25372E-02  4794   0.156E-01    0.478E-02
RMM:   6    -0.413205532326E+03   -0.15778E-03   -0.39989E-03  5839   0.586E-02    0.232E-02
RMM:   7    -0.413205550092E+03   -0.17766E-04   -0.40376E-04  5814   0.169E-02    0.154E-02
RMM:   8    -0.413205545691E+03    0.44017E-05   -0.54698E-05  4796   0.630E-03    0.107E-02
RMM:   9    -0.413205535708E+03    0.99828E-05   -0.15398E-05  4072   0.414E-03    0.670E-03
RMM:  10    -0.413205526388E+03    0.93194E-05   -0.38838E-06  2702   0.287E-03    0.329E-03
RMM:  11    -0.413205519132E+03    0.72561E-05   -0.17843E-06  2520   0.211E-03    0.194E-03
RMM:  12    -0.413205510295E+03    0.88375E-05   -0.88177E-07  2468   0.165E-03    0.672E-04
RMM:  13    -0.413205506182E+03    0.41131E-05   -0.37197E-07  2298   0.110E-03    0.425E-04
RMM:  14    -0.413205503385E+03    0.27967E-05   -0.17177E-07  1740   0.788E-04    0.267E-04
RMM:  15    -0.413205495442E+03    0.79430E-05   -0.14534E-07  1744   0.759E-04    0.255E-04
RMM:  16    -0.413205494588E+03    0.85410E-06   -0.54208E-08   999   0.579E-04
   39 T=    69. E= -.41286660E+03 F= -.41320549E+03 E0= -.41318435E+03  EK= 0.33890E+00 SP= 0.00E+00 SK= 0.00E+00
       N       E                     dE             d eps       ncg     rms          rms(c)
RMM:   1    -0.413205280422E+03    0.21502E-03   -0.12505E+01  4308   0.112E+00    0.935E-01
RMM:   2    -0.413210571791E+03   -0.52914E-02   -0.16710E-01  4256   0.134E-01    0.673E-01
RMM:   3    -0.413209617550E+03    0.95424E-03   -0.73272E-03  4985   0.537E-02    0.230E-01
RMM:   4    -0.413263238986E+03   -0.53621E-01   -0.57834E-02  5135   0.199E-01    0.960E-01
RMM:   5    -0.413208354235E+03    0.54885E-01   -0.27013E-02  4787   0.161E-01    0.499E-02
RMM:   6    -0.413208546643E+03   -0.19241E-03   -0.44340E-03  5829   0.609E-02    0.228E-02
RMM:   7    -0.413208569685E+03   -0.23043E-04   -0.44341E-04  5858   0.176E-02    0.158E-02
RMM:   8    -0.413208569006E+03    0.67950E-06   -0.64226E-05  4993   0.684E-03    0.114E-02
RMM:   9    -0.413208560415E+03    0.85905E-05   -0.15462E-05  4062   0.422E-03    0.678E-03
RMM:  10    -0.413208553791E+03    0.66248E-05   -0.40186E-06  2685   0.290E-03    0.331E-03
RMM:  11    -0.413208549100E+03    0.46902E-05   -0.17978E-06  2521   0.212E-03    0.196E-03
RMM:  12    -0.413208543363E+03    0.57369E-05   -0.91601E-07  2471   0.166E-03    0.705E-04
RMM:  13    -0.413208540624E+03    0.27394E-05   -0.39216E-07  2292   0.112E-03    0.432E-04
RMM:  14    -0.413208538494E+03    0.21306E-05   -0.19243E-07  1779   0.807E-04    0.261E-04
RMM:  15    -0.413208532916E+03    0.55772E-05   -0.16723E-07  1718   0.768E-04    0.248E-04
RMM:  16    -0.413208532364E+03    0.55268E-06   -0.62234E-08  1021   0.593E-04
   40 T=    70. E= -.41286709E+03 F= -.41320853E+03 E0= -.41318743E+03  EK= 0.34144E+00 SP= 0.00E+00 SK= 0.00E+00
       N       E                     dE             d eps       ncg     rms          rms(c)
RMM:   1    -0.413206243399E+03    0.22895E-02   -0.12654E+01  4304   0.118E+00    0.948E-01
RMM:   2    -0.413211799302E+03   -0.55559E-02   -0.17365E-01  4268   0.140E-01    0.684E-01
RMM:   3    -0.413211506129E+03    0.29317E-03   -0.79020E-03  5045   0.577E-02    0.258E-01
RMM:   4    -0.413266918440E+03   -0.55412E-01   -0.62881E-02  5124   0.208E-01    0.980E-01
RMM:   5    -0.413209699553E+03    0.57219E-01   -0.27862E-02  4775   0.165E-01    0.523E-02
RMM:   6    -0.413209871652E+03   -0.17210E-03   -0.43043E-03  5820   0.616E-02    0.225E-02
RMM:   7    -0.413209894597E+03   -0.22945E-04   -0.45603E-04  5919   0.182E-02    0.165E-02
RMM:   8    -0.413209894532E+03    0.65222E-07   -0.71992E-05  5158   0.736E-03    0.116E-02
RMM:   9    -0.413209884952E+03    0.95800E-05   -0.13328E-05  3828   0.418E-03    0.598E-03
RMM:  10    -0.413209878172E+03    0.67795E-05   -0.41206E-06  2678   0.287E-03    0.292E-03
RMM:  11    -0.413209873508E+03    0.46641E-05   -0.15465E-06  2513   0.199E-03    0.156E-03
RMM:  12    -0.413209868297E+03    0.52109E-05   -0.76357E-07  2452   0.150E-03    0.628E-04
RMM:  13    -0.413209865419E+03    0.28788E-05   -0.34782E-07  2196   0.103E-03    0.373E-04
RMM:  14    -0.413209862259E+03    0.31596E-05   -0.19198E-07  1608   0.793E-04    0.225E-04
RMM:  15    -0.413209858112E+03    0.41469E-05   -0.13968E-07  1424   0.718E-04    0.138E-04
RMM:  16    -0.413209856518E+03    0.15944E-05   -0.77414E-08  1106   0.628E-04    0.667E-05
RMM:  17    -0.413209854082E+03    0.24353E-05   -0.65042E-08  1122   0.621E-04    0.439E-05
RMM:  18    -0.413209850821E+03    0.32614E-05   -0.64683E-08  1227   0.632E-04    0.410E-05
RMM:  19    -0.413209850426E+03    0.39449E-06   -0.27000E-08   828   0.556E-04
   41 T=    70. E= -.41286657E+03 F= -.41320985E+03 E0= -.41318878E+03  EK= 0.34328E+00 SP= 0.00E+00 SK= 0.00E+00
       N       E                     dE             d eps       ncg     rms          rms(c)
RMM:   1    -0.413214800761E+03   -0.49499E-02   -0.12776E+01  4308   0.126E+00    0.971E-01
RMM:   2    -0.413213428940E+03    0.13718E-02   -0.17673E-01  4291   0.146E-01    0.676E-01
RMM:   3    -0.413216124053E+03   -0.26951E-02   -0.10245E-02  5119   0.735E-02    0.333E-01
RMM:   4    -0.413250136667E+03   -0.34013E-01   -0.50126E-02  5092   0.188E-01    0.811E-01
RMM:   5    -0.413212280509E+03    0.37856E-01   -0.17044E-02  4729   0.135E-01    0.507E-02
RMM:   6    -0.413212335755E+03   -0.55246E-04   -0.28039E-03  5758   0.500E-02    0.209E-02
RMM:   7    -0.413212347441E+03   -0.11686E-04   -0.33194E-04  5884   0.158E-02    0.158E-02
RMM:   8    -0.413212344150E+03    0.32918E-05   -0.56518E-05  5068   0.685E-03    0.986E-03
RMM:   9    -0.413212331130E+03    0.13020E-04   -0.10782E-05  3514   0.418E-03    0.422E-03
RMM:  10    -0.413212323354E+03    0.77762E-05   -0.28610E-06  2603   0.241E-03    0.224E-03
RMM:  11    -0.413212316232E+03    0.71214E-05   -0.10582E-06  2504   0.164E-03    0.106E-03
RMM:  12    -0.413212310385E+03    0.58474E-05   -0.44524E-07  2343   0.116E-03    0.502E-04
RMM:  13    -0.413212305584E+03    0.48011E-05   -0.24568E-07  1642   0.846E-04    0.243E-04
RMM:  14    -0.413212301836E+03    0.37483E-05   -0.15622E-07  1333   0.733E-04    0.142E-04
RMM:  15    -0.413212295688E+03    0.61478E-05   -0.13603E-07  1453   0.726E-04    0.877E-05
RMM:  16    -0.413212292980E+03    0.27082E-05   -0.87377E-08  1229   0.643E-04    0.601E-05
RMM:  17    -0.413212288764E+03    0.42153E-05   -0.76942E-08  1304   0.634E-04    0.469E-05
RMM:  18    -0.413212286761E+03    0.20033E-05   -0.49156E-08  1038   0.569E-04    0.328E-05
RMM:  19    -0.413212286188E+03    0.57337E-06   -0.28666E-08   815   0.531E-04
   42 T=    70. E= -.41286705E+03 F= -.41321229E+03 E0= -.41319125E+03  EK= 0.34524E+00 SP= 0.00E+00 SK= 0.00E+00
       N       E                     dE             d eps       ncg     rms          rms(c)
RMM:   1    -0.413223771321E+03   -0.11485E-01   -0.12811E+01  4310   0.135E+00    0.947E-01
RMM:   2    -0.413215312558E+03    0.84588E-02   -0.17318E-01  4300   0.152E-01    0.676E-01
RMM:   3    -0.413219193777E+03   -0.38812E-02   -0.11207E-02  5105   0.826E-02    0.366E-01
RMM:   4    -0.413246997668E+03   -0.27804E-01   -0.47514E-02  5059   0.184E-01    0.759E-01
RMM:   5    -0.413214071555E+03    0.32926E-01   -0.14266E-02  4707   0.127E-01    0.488E-02
RMM:   6    -0.413214097484E+03   -0.25929E-04   -0.23868E-03  5739   0.463E-02    0.199E-02
RMM:   7    -0.413214105209E+03   -0.77248E-05   -0.27742E-04  5867   0.149E-02    0.152E-02
RMM:   8    -0.413214101964E+03    0.32443E-05   -0.49423E-05  4997   0.657E-03    0.910E-03
RMM:   9    -0.413214091272E+03    0.10693E-04   -0.10398E-05  3468   0.419E-03    0.398E-03
RMM:  10    -0.413214085786E+03    0.54855E-05   -0.24823E-06  2580   0.232E-03    0.215E-03
RMM:  11    -0.413214080612E+03    0.51739E-05   -0.10928E-06  2509   0.161E-03    0.106E-03
RMM:  12    -0.413214076497E+03    0.41147E-05   -0.45832E-07  2317   0.114E-03    0.496E-04
RMM:  13    -0.413214072760E+03    0.37378E-05   -0.27324E-07  1601   0.850E-04    0.243E-04
RMM:  14    -0.413214070210E+03    0.25500E-05   -0.17307E-07  1317   0.735E-04    0.140E-04
RMM:  15    -0.413214065671E+03    0.45385E-05   -0.15268E-07  1353   0.722E-04    0.750E-05
RMM:  16    -0.413214063416E+03    0.22546E-05   -0.98507E-08  1166   0.653E-04    0.543E-05
RMM:  17    -0.413214060446E+03    0.29703E-05   -0.85888E-08  1292   0.643E-04    0.483E-05
RMM:  18    -0.413214058311E+03    0.21348E-05   -0.58882E-08  1066   0.584E-04    0.384E-05
RMM:  19    -0.413214057720E+03    0.59102E-06   -0.33313E-08   811   0.534E-04
   43 T=    71. E= -.41286716E+03 F= -.41321406E+03 E0= -.41319305E+03  EK= 0.34690E+00 SP= 0.00E+00 SK= 0.00E+00
       N       E                     dE             d eps       ncg     rms          rms(c)
RMM:   1    -0.413240600197E+03   -0.26542E-01   -0.13092E+01  4311   0.150E+00    0.948E-01
RMM:   2    -0.413216244254E+03    0.24356E-01   -0.20067E-01  4308   0.174E-01    0.694E-01
RMM:   3    -0.413221430209E+03   -0.51860E-02   -0.12320E-02  5101   0.922E-02    0.418E-01
RMM:   4    -0.413246274383E+03   -0.24844E-01   -0.48798E-02  5055   0.187E-01    0.749E-01
RMM:   5    -0.413214710785E+03    0.31564E-01   -0.13584E-02  4683   0.127E-01    0.518E-02
RMM:   6    -0.413214717508E+03   -0.67224E-05   -0.23241E-03  5684   0.458E-02    0.204E-02
RMM:   7    -0.413214725139E+03   -0.76313E-05   -0.27715E-04  5895   0.151E-02    0.158E-02
RMM:   8    -0.413214721744E+03    0.33949E-05   -0.47762E-05  4999   0.653E-03    0.929E-03
RMM:   9    -0.413214712582E+03    0.91616E-05   -0.11862E-05  3600   0.455E-03    0.428E-03
RMM:  10    -0.413214708222E+03    0.43606E-05   -0.26602E-06  2599   0.241E-03    0.243E-03
RMM:  11    -0.413214704316E+03    0.39055E-05   -0.13873E-06  2540   0.177E-03    0.116E-03
RMM:  12    -0.413214701459E+03    0.28569E-05   -0.53873E-07  2424   0.124E-03    0.584E-04
RMM:  13    -0.413214698260E+03    0.31997E-05   -0.34144E-07  1689   0.918E-04    0.321E-04
RMM:  14    -0.413214696197E+03    0.20629E-05   -0.20775E-07  1370   0.776E-04    0.175E-04
RMM:  15    -0.413214693603E+03    0.25941E-05   -0.16044E-07  1297   0.727E-04    0.904E-05
RMM:  16    -0.413214690656E+03    0.29471E-05   -0.13480E-07  1349   0.699E-04    0.609E-05
RMM:  17    -0.413214689303E+03    0.13531E-05   -0.81511E-08  1074   0.614E-04    0.502E-05
RMM:  18    -0.413214687048E+03    0.22550E-05   -0.72962E-08  1123   0.607E-04    0.305E-05
RMM:  19    -0.413214686280E+03    0.76739E-06   -0.42089E-08   877   0.555E-04
   44 T=    71. E= -.41286680E+03 F= -.41321469E+03 E0= -.41319370E+03  EK= 0.34789E+00 SP= 0.00E+00 SK= 0.00E+00
       N       E                     dE             d eps       ncg     rms          rms(c)
RMM:   1    -0.413238089957E+03   -0.23403E-01   -0.13107E+01  4307   0.156E+00    0.977E-01
RMM:   2    -0.413216637923E+03    0.21452E-01   -0.18278E-01  4352   0.179E-01    0.683E-01
RMM:   3    -0.413228976998E+03   -0.12339E-01   -0.18781E-02  5142   0.117E-01    0.528E-01
RMM:   4    -0.413231572657E+03   -0.25957E-02   -0.37732E-02  5018   0.169E-01    0.542E-01
RMM:   5    -0.413216067757E+03    0.15505E-01   -0.58899E-03  4569   0.944E-02    0.436E-02
RMM:   6    -0.413216022330E+03    0.45427E-04   -0.10451E-03  5354   0.317E-02    0.186E-02
RMM:   7    -0.413216020994E+03    0.13355E-05   -0.12022E-04  5664   0.106E-02    0.136E-02
RMM:   8    -0.413216015846E+03    0.51481E-05   -0.40143E-05  5048   0.634E-03    0.810E-03
RMM:   9    -0.413216000414E+03    0.15433E-04   -0.10688E-05  3682   0.444E-03    0.369E-03
RMM:  10    -0.413215995676E+03    0.47383E-05   -0.15560E-06  2549   0.200E-03    0.184E-03
RMM:  11    -0.413215988972E+03    0.67036E-05   -0.99106E-07  2499   0.154E-03    0.102E-03
RMM:  12    -0.413215983215E+03    0.57566E-05   -0.40020E-07  2335   0.111E-03    0.483E-04
RMM:  13    -0.413215978814E+03    0.44010E-05   -0.20402E-07  1453   0.765E-04    0.222E-04
RMM:  14    -0.413215975331E+03    0.34835E-05   -0.12618E-07  1183   0.671E-04    0.136E-04
RMM:  15    -0.413215968319E+03    0.70120E-05   -0.13790E-07  1408   0.709E-04    0.107E-04
RMM:  16    -0.413215966427E+03    0.18923E-05   -0.64931E-08   983   0.592E-04    0.882E-05
RMM:  17    -0.413215963237E+03    0.31895E-05   -0.56180E-08  1027   0.586E-04    0.470E-05
RMM:  18    -0.413215960607E+03    0.26301E-05   -0.46367E-08  1002   0.568E-04    0.300E-05
RMM:  19    -0.413215959974E+03    0.63288E-06   -0.21923E-08   728   0.517E-04
   45 T=    71. E= -.41286708E+03 F= -.41321596E+03 E0= -.41319500E+03  EK= 0.34888E+00 SP= 0.00E+00 SK= 0.00E+00
       N       E                     dE             d eps       ncg     rms          rms(c)
RMM:   1    -0.413233756920E+03   -0.17796E-01   -0.12969E+01  4307   0.164E+00    0.957E-01
RMM:   2    -0.413216415791E+03    0.17341E-01   -0.18319E-01  4379   0.189E-01    0.680E-01
RMM:   3    -0.413230724268E+03   -0.14308E-01   -0.20356E-02  5133   0.125E-01    0.563E-01
RMM:   4    -0.413229530448E+03    0.11938E-02   -0.37379E-02  4996   0.170E-01    0.515E-01
RMM:   5    -0.413215826722E+03    0.13704E-01   -0.53188E-03  4550   0.924E-02    0.440E-02
RMM:   6    -0.413215764623E+03    0.62099E-04   -0.86203E-04  5154   0.297E-02    0.183E-02
RMM:   7    -0.413215763626E+03    0.99751E-06   -0.10385E-04  5652   0.968E-03    0.118E-02
RMM:   8    -0.413215760822E+03    0.28036E-05   -0.42568E-05  5159   0.657E-03    0.845E-03
RMM:   9    -0.413215747126E+03    0.13696E-04   -0.15936E-05  4206   0.489E-03    0.409E-03
RMM:  10    -0.413215743543E+03    0.35826E-05   -0.18904E-06  2544   0.217E-03    0.196E-03
RMM:  11    -0.413215738249E+03    0.52938E-05   -0.12689E-06  2480   0.179E-03    0.114E-03
RMM:  12    -0.413215733205E+03    0.50447E-05   -0.49889E-07  2378   0.128E-03    0.615E-04
RMM:  13    -0.413215729434E+03    0.37708E-05   -0.22394E-07  1640   0.836E-04    0.302E-04
RMM:  14    -0.413215725715E+03    0.37187E-05   -0.12863E-07  1215   0.693E-04    0.148E-04
RMM:  15    -0.413215719911E+03    0.58043E-05   -0.13634E-07  1409   0.705E-04    0.159E-04
RMM:  16    -0.413215718152E+03    0.17584E-05   -0.57991E-08   863   0.556E-04    0.118E-04
RMM:  17    -0.413215714408E+03    0.37449E-05   -0.63093E-08   991   0.583E-04    0.626E-05
RMM:  18    -0.413215712289E+03    0.21182E-05   -0.43215E-08   929   0.554E-04    0.507E-05
RMM:  19    -0.413215711527E+03    0.76199E-06   -0.22090E-08   679   0.505E-04
   46 T=    71. E= -.41286689E+03 F= -.41321571E+03 E0= -.41319477E+03  EK= 0.34882E+00 SP= 0.00E+00 SK= 0.00E+00
       N       E                     dE             d eps       ncg     rms          rms(c)
RMM:   1    -0.413255962599E+03   -0.40250E-01   -0.13237E+01  4310   0.179E+00    0.944E-01
RMM:   2    -0.413215828389E+03    0.40134E-01   -0.21713E-01  4396   0.209E-01    0.696E-01
RMM:   3    -0.413229367117E+03   -0.13539E-01   -0.19721E-02  5136   0.125E-01    0.582E-01
RMM:   4    -0.413230221394E+03   -0.85428E-03   -0.39821E-02  5005   0.175E-01    0.558E-01
RMM:   5    -0.413214561106E+03    0.15660E-01   -0.66540E-03  4557   0.100E-01    0.487E-02
RMM:   6    -0.413214488318E+03    0.72789E-04   -0.10350E-03  5224   0.329E-02    0.200E-02
RMM:   7    -0.413214487539E+03    0.77820E-06   -0.13100E-04  5796   0.110E-02    0.144E-02
RMM:   8    -0.413214484586E+03    0.29532E-05   -0.43310E-05  5129   0.651E-03    0.922E-03
RMM:   9    -0.413214471944E+03    0.12642E-04   -0.15044E-05  4088   0.509E-03    0.454E-03
RMM:  10    -0.413214468728E+03    0.32163E-05   -0.21770E-06  2581   0.222E-03    0.225E-03
RMM:  11    -0.413214465141E+03    0.35864E-05   -0.15474E-06  2529   0.191E-03    0.131E-03
RMM:  12    -0.413214462071E+03    0.30702E-05   -0.51440E-07  2426   0.132E-03    0.693E-04
RMM:  13    -0.413214459157E+03    0.29143E-05   -0.26545E-07  1717   0.872E-04    0.316E-04
RMM:  14    -0.413214456742E+03    0.24146E-05   -0.16670E-07  1316   0.722E-04    0.174E-04
RMM:  15    -0.413214453319E+03    0.34237E-05   -0.15496E-07  1322   0.707E-04    0.960E-05
RMM:  16    -0.413214451609E+03    0.17092E-05   -0.89235E-08  1072   0.610E-04    0.777E-05
RMM:  17    -0.413214449522E+03    0.20877E-05   -0.72508E-08  1030   0.591E-04    0.413E-05
RMM:  18    -0.413214448313E+03    0.12086E-05   -0.46003E-08   870   0.547E-04    0.264E-05
RMM:  19    -0.413214447781E+03    0.53160E-06   -0.26607E-08   720   0.517E-04
   47 T=    71. E= -.41286686E+03 F= -.41321445E+03 E0= -.41319352E+03  EK= 0.34759E+00 SP= 0.00E+00 SK= 0.00E+00
       N       E                     dE             d eps       ncg     rms          rms(c)
RMM:   1    -0.413260765413E+03   -0.46317E-01   -0.13260E+01  4306   0.193E+00    0.970E-01
RMM:   2    -0.413212555658E+03    0.48210E-01   -0.20650E-01  4504   0.209E-01    0.689E-01
RMM:   3    -0.413236251755E+03   -0.23696E-01   -0.28962E-02  5156   0.152E-01    0.704E-01
RMM:   4    -0.413220548219E+03    0.15704E-01   -0.37554E-02  4965   0.174E-01    0.435E-01
RMM:   5    -0.413212108727E+03    0.84395E-02   -0.45213E-03  4563   0.891E-02    0.539E-02
RMM:   6    -0.413211945472E+03    0.16325E-03   -0.45281E-04  4712   0.278E-02    0.225E-02
RMM:   7    -0.413211946515E+03   -0.10428E-05   -0.12773E-04  5890   0.112E-02    0.156E-02
RMM:   8    -0.413211934884E+03    0.11631E-04   -0.31273E-05  4872   0.608E-03    0.981E-03
RMM:   9    -0.413211920529E+03    0.14355E-04   -0.10732E-05  3439   0.431E-03    0.473E-03
RMM:  10    -0.413211914715E+03    0.58148E-05   -0.22155E-06  2573   0.244E-03    0.225E-03
RMM:  11    -0.413211909040E+03    0.56747E-05   -0.14941E-06  2497   0.193E-03    0.145E-03
RMM:  12    -0.413211903600E+03    0.54398E-05   -0.60446E-07  2426   0.136E-03    0.714E-04
RMM:  13    -0.413211899145E+03    0.44556E-05   -0.29712E-07  1903   0.909E-04    0.368E-04
RMM:  14    -0.413211894867E+03    0.42776E-05   -0.18058E-07  1436   0.733E-04    0.193E-04
RMM:  15    -0.413211889291E+03    0.55761E-05   -0.16221E-07  1477   0.715E-04    0.157E-04
RMM:  16    -0.413211886855E+03    0.24359E-05   -0.86441E-08  1076   0.597E-04    0.121E-04
RMM:  17    -0.413211883885E+03    0.29697E-05   -0.70614E-08  1063   0.589E-04    0.509E-05
RMM:  18    -0.413211881867E+03    0.20179E-05   -0.50111E-08   995   0.567E-04    0.407E-05
RMM:  19    -0.413211881088E+03    0.77952E-06   -0.28332E-08   802   0.526E-04
   48 T=    70. E= -.41286700E+03 F= -.41321188E+03 E0= -.41319097E+03  EK= 0.34488E+00 SP= 0.00E+00 SK= 0.00E+00
       N       E                     dE             d eps       ncg     rms          rms(c)
RMM:   1    -0.413260320053E+03   -0.48438E-01   -0.13079E+01  4306   0.206E+00    0.957E-01
RMM:   2    -0.413207064577E+03    0.53255E-01   -0.20424E-01  4539   0.221E-01    0.677E-01
RMM:   3    -0.413236508488E+03   -0.29444E-01   -0.34138E-02  5166   0.166E-01    0.773E-01
RMM:   4    -0.413212575416E+03    0.23933E-01   -0.37194E-02  4928   0.176E-01    0.386E-01
RMM:   5    -0.413206774850E+03    0.58006E-02   -0.48171E-03  4792   0.912E-02    0.663E-02
RMM:   6    -0.413206503536E+03    0.27131E-03   -0.51261E-04  4669   0.314E-02    0.264E-02
RMM:   7    -0.413206498529E+03    0.50064E-05   -0.12717E-04  5705   0.121E-02    0.172E-02
RMM:   8    -0.413206486427E+03    0.12103E-04   -0.23727E-05  4470   0.541E-03    0.102E-02
RMM:   9    -0.413206471390E+03    0.15036E-04   -0.11783E-05  3417   0.431E-03    0.428E-03
RMM:  10    -0.413206464607E+03    0.67829E-05   -0.28262E-06  2639   0.263E-03    0.241E-03
RMM:  11    -0.413206457371E+03    0.72364E-05   -0.16087E-06  2530   0.203E-03    0.147E-03
RMM:  12    -0.413206452545E+03    0.48254E-05   -0.57473E-07  2435   0.135E-03    0.692E-04
RMM:  13    -0.413206447913E+03    0.46322E-05   -0.31747E-07  1997   0.932E-04    0.393E-04
RMM:  14    -0.413206443016E+03    0.48968E-05   -0.21531E-07  1587   0.781E-04    0.234E-04
RMM:  15    -0.413206437975E+03    0.50418E-05   -0.16934E-07  1459   0.726E-04    0.142E-04
RMM:  16    -0.413206435944E+03    0.20310E-05   -0.93976E-08  1163   0.623E-04    0.902E-05
RMM:  17    -0.413206432407E+03    0.35370E-05   -0.90241E-08  1264   0.632E-04    0.480E-05
RMM:  18    -0.413206431162E+03    0.12441E-05   -0.45619E-08   945   0.565E-04    0.394E-05
RMM:  19    -0.413206430263E+03    0.89954E-06   -0.29417E-08   837   0.548E-04
   49 T=    69. E= -.41286676E+03 F= -.41320643E+03 E0= -.41318553E+03  EK= 0.33967E+00 SP= 0.00E+00 SK= 0.00E+00
       N       E                     dE             d eps       ncg     rms          rms(c)
RMM:   1    -0.413245840732E+03   -0.39410E-01   -0.12770E+01  4305   0.211E+00    0.922E-01
RMM:   2    -0.413200519466E+03    0.45321E-01   -0.23103E-01  4540   0.235E-01    0.686E-01
RMM:   3    -0.413225467769E+03   -0.24948E-01   -0.29891E-02  5156   0.159E-01    0.746E-01
RMM:   4    -0.413206722258E+03    0.18746E-01   -0.36418E-02  4940   0.174E-01    0.431E-01
RMM:   5    -0.413199491286E+03    0.72310E-02   -0.56905E-03  4679   0.958E-02    0.674E-02
[...]
RMM:  11    -0.413161279790E+03   -0.53463E-05   -0.10114E-06  2484   0.151E-03    0.834E-04
RMM:  12    -0.413161283603E+03   -0.38130E-05   -0.57402E-07  2296   0.115E-03    0.321E-04
RMM:  13    -0.413161285656E+03   -0.20530E-05   -0.29118E-07  1774   0.878E-04    0.249E-04
RMM:  14    -0.413161288674E+03   -0.30179E-05   -0.27581E-07  1554   0.821E-04    0.134E-04
RMM:  15    -0.413161289999E+03   -0.13249E-05   -0.15116E-07  1382   0.712E-04    0.730E-05
RMM:  16    -0.413161291178E+03   -0.11798E-05   -0.13038E-07  1363   0.679E-04    0.553E-05
RMM:  17    -0.413161291964E+03   -0.78514E-06   -0.84970E-08  1145   0.612E-04
  138 T=    60. E= -.41286660E+03 F= -.41316129E+03 E0= -.41314058E+03  EK= 0.29469E+00 SP= 0.00E+00 SK= 0.00E+00
       N       E                     dE             d eps       ncg     rms          rms(c)
RMM:   1    -0.413151986571E+03    0.93046E-02   -0.10653E+01  4264   0.863E-01    0.858E-01
RMM:   2    -0.413162698114E+03   -0.10712E-01   -0.12873E-01  4308   0.101E-01    0.621E-01
RMM:   3    -0.413161199012E+03    0.14991E-02   -0.61015E-03  4903   0.405E-02    0.153E-01
RMM:   4    -0.413187905623E+03   -0.26707E-01   -0.27585E-02  5150   0.138E-01    0.682E-01
RMM:   5    -0.413160847273E+03    0.27058E-01   -0.13529E-02  4819   0.114E-01    0.396E-02
RMM:   6    -0.413160886176E+03   -0.38903E-04   -0.21779E-03  5756   0.438E-02    0.130E-02
RMM:   7    -0.413160918078E+03   -0.31902E-04   -0.25389E-04  5754   0.129E-02    0.106E-02
RMM:   8    -0.413160928060E+03   -0.99817E-05   -0.28850E-05  4047   0.481E-03    0.674E-03
RMM:   9    -0.413160938790E+03   -0.10730E-04   -0.43599E-06  2759   0.260E-03    0.341E-03
RMM:  10    -0.413160949986E+03   -0.11196E-04   -0.19231E-06  2546   0.192E-03    0.174E-03
RMM:  11    -0.413160957935E+03   -0.79486E-05   -0.91904E-07  2468   0.142E-03    0.779E-04
RMM:  12    -0.413160963811E+03   -0.58768E-05   -0.54017E-07  2233   0.110E-03    0.319E-04
RMM:  13    -0.413160967491E+03   -0.36797E-05   -0.29891E-07  1730   0.863E-04    0.224E-04
RMM:  14    -0.413160972280E+03   -0.47885E-05   -0.31595E-07  1661   0.832E-04    0.139E-04
RMM:  15    -0.413160974274E+03   -0.19947E-05   -0.16236E-07  1393   0.703E-04    0.759E-05
RMM:  16    -0.413160975948E+03   -0.16733E-05   -0.14104E-07  1337   0.667E-04    0.565E-05
RMM:  17    -0.413160976663E+03   -0.71533E-06   -0.83908E-08  1102   0.594E-04
  139 T=    60. E= -.41286626E+03 F= -.41316098E+03 E0= -.41314028E+03  EK= 0.29471E+00 SP= 0.00E+00 SK= 0.00E+00
       N       E                     dE             d eps       ncg     rms          rms(c)
RMM:   1    -0.413152995597E+03    0.79804E-02   -0.10689E+01  4264   0.859E-01    0.885E-01
RMM:   2    -0.413162386868E+03   -0.93913E-02   -0.12542E-01  4307   0.989E-02    0.613E-01
RMM:   3    -0.413161675146E+03    0.71172E-03   -0.63777E-03  4984   0.357E-02    0.156E-01
RMM:   4    -0.413182412479E+03   -0.20737E-01   -0.21309E-02  5152   0.122E-01    0.602E-01
RMM:   5    -0.413161496030E+03    0.20916E-01   -0.10514E-02  4818   0.999E-02    0.382E-02
RMM:   6    -0.413161509441E+03   -0.13411E-04   -0.17079E-03  5741   0.391E-02    0.152E-02
RMM:   7    -0.413161530908E+03   -0.21467E-04   -0.20424E-04  5664   0.117E-02    0.106E-02
RMM:   8    -0.413161535897E+03   -0.49893E-05   -0.23976E-05  3933   0.453E-03    0.647E-03
RMM:   9    -0.413161540070E+03   -0.41727E-05   -0.36607E-06  2692   0.248E-03    0.298E-03
RMM:  10    -0.413161544539E+03   -0.44694E-05   -0.16008E-06  2521   0.179E-03    0.155E-03
RMM:  11    -0.413161547676E+03   -0.31364E-05   -0.77221E-07  2419   0.133E-03    0.728E-04
RMM:  12    -0.413161550140E+03   -0.24642E-05   -0.45722E-07  2115   0.103E-03    0.277E-04
RMM:  13    -0.413161551819E+03   -0.16794E-05   -0.26273E-07  1628   0.833E-04    0.181E-04
RMM:  14    -0.413161553747E+03   -0.19275E-05   -0.24233E-07  1528   0.789E-04    0.103E-04
RMM:  15    -0.413161554756E+03   -0.10091E-05   -0.14466E-07  1369   0.699E-04    0.627E-05
RMM:  16    -0.413161555665E+03   -0.90880E-06   -0.12239E-07  1311   0.658E-04
  140 T=    60. E= -.41286671E+03 F= -.41316156E+03 E0= -.41314087E+03  EK= 0.29485E+00 SP= 0.00E+00 SK= 0.00E+00
       N       E                     dE             d eps       ncg     rms          rms(c)
RMM:   1    -0.413152412636E+03    0.91421E-02   -0.10586E+01  4264   0.861E-01    0.870E-01
RMM:   2    -0.413162335640E+03   -0.99230E-02   -0.12430E-01  4316   0.984E-02    0.606E-01
RMM:   3    -0.413161126370E+03    0.12093E-02   -0.60688E-03  4856   0.350E-02    0.150E-01
RMM:   4    -0.413171378030E+03   -0.10252E-01   -0.10671E-02  5175   0.873E-02    0.425E-01
RMM:   5    -0.413161086622E+03    0.10291E-01   -0.52195E-03  4828   0.706E-02    0.310E-02
RMM:   6    -0.413161079919E+03    0.67027E-05   -0.85170E-04  5694   0.288E-02    0.142E-02
RMM:   7    -0.413161095521E+03   -0.15602E-04   -0.10750E-04  5337   0.898E-03    0.898E-03
RMM:   8    -0.413161101790E+03   -0.62689E-05   -0.14559E-05  3701   0.399E-03    0.481E-03
RMM:   9    -0.413161107368E+03   -0.55775E-05   -0.24867E-06  2573   0.226E-03    0.205E-03
RMM:  10    -0.413161111789E+03   -0.44215E-05   -0.10377E-06  2499   0.152E-03    0.118E-03
RMM:  11    -0.413161115328E+03   -0.35394E-05   -0.58165E-07  2309   0.116E-03    0.598E-04
RMM:  12    -0.413161118114E+03   -0.27854E-05   -0.36494E-07  1862   0.923E-04    0.216E-04
RMM:  13    -0.413161119756E+03   -0.16424E-05   -0.21551E-07  1521   0.780E-04    0.146E-04
RMM:  14    -0.413161121827E+03   -0.20703E-05   -0.22778E-07  1522   0.771E-04    0.927E-05
RMM:  15    -0.413161122912E+03   -0.10856E-05   -0.13861E-07  1330   0.680E-04    0.633E-05
RMM:  16    -0.413161123589E+03   -0.67660E-06   -0.94886E-08  1149   0.622E-04
  141 T=    60. E= -.41286647E+03 F= -.41316112E+03 E0= -.41314045E+03  EK= 0.29465E+00 SP= 0.00E+00 SK= 0.00E+00
       N       E                     dE             d eps       ncg     rms          rms(c)
RMM:   1    -0.413152457463E+03    0.86654E-02   -0.10600E+01  4264   0.869E-01    0.854E-01
RMM:   2    -0.413162944035E+03   -0.10487E-01   -0.12803E-01  4302   0.104E-01    0.618E-01
RMM:   3    -0.413161263988E+03    0.16800E-02   -0.58964E-03  4674   0.350E-02    0.137E-01
RMM:   4    -0.413162732249E+03   -0.14683E-02   -0.22292E-03  5192   0.398E-02    0.164E-01
RMM:   5    -0.413161234893E+03    0.14974E-02   -0.78432E-04  4830   0.282E-02    0.224E-02
RMM:   6    -0.413161224859E+03    0.10035E-04   -0.18123E-04  5467   0.142E-02    0.106E-02
RMM:   7    -0.413161245831E+03   -0.20972E-04   -0.29515E-05  4710   0.579E-03    0.667E-03
RMM:   8    -0.413161258531E+03   -0.12700E-04   -0.68830E-06  3219   0.340E-03    0.250E-03
RMM:   9    -0.413161266593E+03   -0.80626E-05   -0.12070E-06  2512   0.182E-03    0.136E-03
RMM:  10    -0.413161272688E+03   -0.60950E-05   -0.54475E-07  2350   0.121E-03    0.833E-04
RMM:  11    -0.413161281300E+03   -0.86121E-05   -0.52876E-07  2143   0.103E-03    0.436E-04
RMM:  12    -0.413161285601E+03   -0.43005E-05   -0.25187E-07  1512   0.782E-04    0.222E-04
RMM:  13    -0.413161289439E+03   -0.38384E-05   -0.21680E-07  1550   0.753E-04    0.137E-04
RMM:  14    -0.413161292815E+03   -0.33758E-05   -0.18952E-07  1477   0.706E-04    0.970E-05
RMM:  15    -0.413161294822E+03   -0.20073E-05   -0.12651E-07  1191   0.625E-04    0.659E-05
RMM:  16    -0.413161295599E+03   -0.77705E-06   -0.73384E-08   937   0.562E-04
  142 T=    60. E= -.41286637E+03 F= -.41316130E+03 E0= -.41314063E+03  EK= 0.29493E+00 SP= 0.00E+00 SK= 0.00E+00
       N       E                     dE             d eps       ncg     rms          rms(c)
RMM:   1    -0.413153087223E+03    0.82076E-02   -0.10621E+01  4264   0.863E-01    0.877E-01
RMM:   2    -0.413162481742E+03   -0.93945E-02   -0.12565E-01  4308   0.990E-02    0.616E-01
RMM:   3    -0.413161675978E+03    0.80576E-03   -0.62503E-03  4622   0.354E-02    0.142E-01
RMM:   4    -0.413161696595E+03   -0.20617E-04   -0.85701E-04  5054   0.231E-02    0.295E-02
RMM:   5    -0.413161697410E+03   -0.81444E-06   -0.11448E-04  4911   0.119E-02    0.295E-02
RMM:   6    -0.413161664546E+03    0.32864E-04   -0.42076E-05  5159   0.680E-03    0.138E-02
RMM:   7    -0.413161676187E+03   -0.11641E-04   -0.17878E-05  4120   0.504E-03    0.600E-03
RMM:   8    -0.413161681264E+03   -0.50769E-05   -0.41196E-06  2798   0.286E-03    0.248E-03
RMM:   9    -0.413161684687E+03   -0.34231E-05   -0.81055E-07  2457   0.150E-03    0.145E-03
RMM:  10    -0.413161688549E+03   -0.38616E-05   -0.47705E-07  2066   0.107E-03    0.783E-04
RMM:  11    -0.413161693606E+03   -0.50577E-05   -0.45606E-07  1863   0.897E-04    0.278E-04
RMM:  12    -0.413161695522E+03   -0.19161E-05   -0.15571E-07  1272   0.670E-04    0.185E-04
RMM:  13    -0.413161698452E+03   -0.29292E-05   -0.22266E-07  1370   0.722E-04    0.105E-04
RMM:  14    -0.413161700303E+03   -0.18515E-05   -0.14804E-07  1308   0.654E-04    0.903E-05
RMM:  15    -0.413161700813E+03   -0.50968E-06   -0.54562E-08   886   0.526E-04
  143 T=    60. E= -.41286665E+03 F= -.41316170E+03 E0= -.41314105E+03  EK= 0.29505E+00 SP= 0.00E+00 SK= 0.00E+00
       N       E                     dE             d eps       ncg     rms          rms(c)
RMM:   1    -0.413152835064E+03    0.88652E-02   -0.10543E+01  4264   0.862E-01    0.877E-01
RMM:   2    -0.413162318103E+03   -0.94830E-02   -0.12359E-01  4317   0.996E-02    0.607E-01
RMM:   3    -0.413161247074E+03    0.10710E-02   -0.64350E-03  4765   0.364E-02    0.146E-01
RMM:   4    -0.413165909909E+03   -0.46628E-02   -0.51803E-03  5186   0.612E-02    0.288E-01
RMM:   5    -0.413161259418E+03    0.46505E-02   -0.23859E-03  4837   0.481E-02    0.298E-02
RMM:   6    -0.413161239816E+03    0.19602E-04   -0.43718E-04  5611   0.210E-02    0.158E-02
RMM:   7    -0.413161252013E+03   -0.12197E-04   -0.64438E-05  5003   0.747E-03    0.747E-03
RMM:   8    -0.413161256172E+03   -0.41587E-05   -0.12188E-05  3679   0.397E-03    0.374E-03
RMM:   9    -0.413161258448E+03   -0.22756E-05   -0.15361E-06  2536   0.200E-03    0.191E-03
RMM:  10    -0.413161261365E+03   -0.29170E-05   -0.77290E-07  2486   0.137E-03    0.111E-03
RMM:  11    -0.413161264384E+03   -0.30198E-05   -0.57589E-07  2264   0.111E-03    0.535E-04
RMM:  12    -0.413161266254E+03   -0.18697E-05   -0.30850E-07  1777   0.862E-04    0.202E-04
RMM:  13    -0.413161267385E+03   -0.11307E-05   -0.16890E-07  1367   0.736E-04    0.144E-04
RMM:  14    -0.413161268792E+03   -0.14069E-05   -0.18270E-07  1465   0.731E-04    0.102E-04
RMM:  15    -0.413161269717E+03   -0.92532E-06   -0.12586E-07  1304   0.663E-04
  144 T=    60. E= -.41286638E+03 F= -.41316127E+03 E0= -.41314063E+03  EK= 0.29489E+00 SP= 0.00E+00 SK= 0.00E+00
       N       E                     dE             d eps       ncg     rms          rms(c)
RMM:   1    -0.413153116024E+03    0.81528E-02   -0.10479E+01  4264   0.862E-01    0.853E-01
RMM:   2    -0.413163526297E+03   -0.10410E-01   -0.12604E-01  4306   0.102E-01    0.615E-01
RMM:   3    -0.413161930236E+03    0.15961E-02   -0.61807E-03  4943   0.365E-02    0.143E-01
RMM:   4    -0.413178308224E+03   -0.16378E-01   -0.16871E-02  5162   0.109E-01    0.535E-01
RMM:   5    -0.413161761298E+03    0.16547E-01   -0.83053E-03  4829   0.886E-02    0.368E-02
RMM:   6    -0.413161777261E+03   -0.15963E-04   -0.13662E-03  5731   0.347E-02    0.141E-02
RMM:   7    -0.413161800541E+03   -0.23281E-04   -0.16114E-04  5527   0.106E-02    0.920E-03
RMM:   8    -0.413161812438E+03   -0.11897E-04   -0.20623E-05  3986   0.459E-03    0.495E-03
RMM:   9    -0.413161819503E+03   -0.70648E-05   -0.37376E-06  2739   0.249E-03    0.247E-03
RMM:  10    -0.413161826857E+03   -0.73537E-05   -0.13755E-06  2519   0.168E-03    0.153E-03
RMM:  11    -0.413161833768E+03   -0.69113E-05   -0.75349E-07  2396   0.128E-03    0.788E-04
RMM:  12    -0.413161839292E+03   -0.55238E-05   -0.47185E-07  2078   0.102E-03    0.274E-04
RMM:  13    -0.413161842123E+03   -0.28313E-05   -0.24905E-07  1573   0.814E-04    0.188E-04
RMM:  14    -0.413161845276E+03   -0.31525E-05   -0.23112E-07  1533   0.777E-04    0.121E-04
RMM:  15    -0.413161847340E+03   -0.20645E-05   -0.16129E-07  1403   0.708E-04    0.709E-05
RMM:  16    -0.413161848503E+03   -0.11629E-05   -0.11794E-07  1243   0.648E-04    0.391E-05
RMM:  17    -0.413161848984E+03   -0.48150E-06   -0.70196E-08  1029   0.587E-04
  145 T=    60. E= -.41286666E+03 F= -.41316185E+03 E0= -.41314121E+03  EK= 0.29518E+00 SP= 0.00E+00 SK= 0.00E+00
       N       E                     dE             d eps       ncg     rms          rms(c)
RMM:   1    -0.413153410165E+03    0.84383E-02   -0.10497E+01  4264   0.865E-01    0.869E-01
RMM:   2    -0.413162914025E+03   -0.95039E-02   -0.12519E-01  4313   0.991E-02    0.618E-01
RMM:   3    -0.413161920414E+03    0.99361E-03   -0.66405E-03  4973   0.396E-02    0.149E-01
RMM:   4    -0.413185653806E+03   -0.23733E-01   -0.24506E-02  5154   0.130E-01    0.642E-01
RMM:   5    -0.413161623824E+03    0.24030E-01   -0.12038E-02  4824   0.107E-01    0.432E-02
RMM:   6    -0.413161658636E+03   -0.34812E-04   -0.19421E-03  5710   0.416E-02    0.161E-02
RMM:   7    -0.413161683226E+03   -0.24590E-04   -0.23153E-04  5699   0.125E-02    0.105E-02
RMM:   8    -0.413161692147E+03   -0.89209E-05   -0.27892E-05  4208   0.512E-03    0.542E-03
RMM:   9    -0.413161696818E+03   -0.46707E-05   -0.53179E-06  2905   0.272E-03    0.281E-03
RMM:  10    -0.413161702177E+03   -0.53593E-05   -0.16147E-06  2531   0.178E-03    0.176E-03
RMM:  11    -0.413161707166E+03   -0.49896E-05   -0.79485E-07  2430   0.133E-03    0.921E-04
RMM:  12    -0.413161711440E+03   -0.42734E-05   -0.51401E-07  2216   0.108E-03    0.299E-04
RMM:  13    -0.413161713294E+03   -0.18543E-05   -0.24522E-07  1627   0.831E-04    0.198E-04
RMM:  14    -0.413161715519E+03   -0.22252E-05   -0.20665E-07  1498   0.775E-04    0.127E-04
RMM:  15    -0.413161717210E+03   -0.16905E-05   -0.15830E-07  1401   0.714E-04    0.658E-05
RMM:  16    -0.413161718139E+03   -0.92891E-06   -0.11133E-07  1315   0.656E-04
  146 T=    60. E= -.41286649E+03 F= -.41316172E+03 E0= -.41314109E+03  EK= 0.29522E+00 SP= 0.00E+00 SK= 0.00E+00
       N       E                     dE             d eps       ncg     rms          rms(c)
RMM:   1    -0.413153791464E+03    0.79257E-02   -0.10440E+01  4264   0.864E-01    0.882E-01
RMM:   2    -0.413162790484E+03   -0.89990E-02   -0.12246E-01  4318   0.978E-02    0.609E-01
RMM:   3    -0.413161973465E+03    0.81702E-03   -0.71046E-03  5056   0.392E-02    0.160E-01
RMM:   4    -0.413191407644E+03   -0.29434E-01   -0.30670E-02  5158   0.145E-01    0.713E-01
RMM:   5    -0.413161594267E+03    0.29813E-01   -0.14961E-02  4821   0.119E-01    0.493E-02
RMM:   6    -0.413161645121E+03   -0.50854E-04   -0.23537E-03  5707   0.465E-02    0.193E-02
RMM:   7    -0.413161671320E+03   -0.26199E-04   -0.29082E-04  5833   0.139E-02    0.120E-02
RMM:   8    -0.413161675915E+03   -0.45955E-05   -0.35371E-05  4523   0.571E-03    0.584E-03
RMM:   9    -0.413161677228E+03   -0.13125E-05   -0.66503E-06  3017   0.287E-03    0.302E-03
RMM:  10    -0.413161679377E+03   -0.21489E-05   -0.17922E-06  2532   0.186E-03    0.196E-03
RMM:  11    -0.413161681399E+03   -0.20228E-05   -0.86666E-07  2467   0.140E-03    0.106E-03
RMM:  12    -0.413161682985E+03   -0.15859E-05   -0.54717E-07  2276   0.112E-03    0.340E-04
RMM:  13    -0.413161683697E+03   -0.71138E-06   -0.26136E-07  1756   0.849E-04
  147 T=    60. E= -.41286650E+03 F= -.41316168E+03 E0= -.41314106E+03  EK= 0.29518E+00 SP= 0.00E+00 SK= 0.00E+00
       N       E                     dE             d eps       ncg     rms          rms(c)
RMM:   1    -0.413155505545E+03    0.61774E-02   -0.10323E+01  4264   0.876E-01    0.853E-01
RMM:   2    -0.413163951234E+03   -0.84457E-02   -0.12328E-01  4322   0.968E-02    0.612E-01
RMM:   3    -0.413162583614E+03    0.13676E-02   -0.68095E-03  5073   0.402E-02    0.154E-01
RMM:   4    -0.413194616472E+03   -0.32033E-01   -0.33725E-02  5155   0.152E-01    0.743E-01
RMM:   5    -0.413162082771E+03    0.32534E-01   -0.16200E-02  4819   0.124E-01    0.500E-02
RMM:   6    -0.413162142881E+03   -0.60109E-04   -0.25384E-03  5697   0.484E-02    0.178E-02
RMM:   7    -0.413162176390E+03   -0.33509E-04   -0.31492E-04  5874   0.144E-02    0.119E-02
RMM:   8    -0.413162187471E+03   -0.11082E-04   -0.37444E-05  4666   0.590E-03    0.578E-03
RMM:   9    -0.413162193076E+03   -0.56048E-05   -0.72406E-06  3059   0.290E-03    0.302E-03
RMM:  10    -0.413162199300E+03   -0.62239E-05   -0.19140E-06  2537   0.189E-03    0.199E-03
RMM:  11    -0.413162205424E+03   -0.61238E-05   -0.92014E-07  2477   0.142E-03    0.111E-03
RMM:  12    -0.413162210737E+03   -0.53132E-05   -0.58742E-07  2275   0.114E-03    0.366E-04
RMM:  13    -0.413162212792E+03   -0.20551E-05   -0.27347E-07  1814   0.859E-04    0.239E-04
RMM:  14    -0.413162215687E+03   -0.28946E-05   -0.23621E-07  1467   0.781E-04    0.144E-04
RMM:  15    -0.413162217479E+03   -0.17924E-05   -0.16738E-07  1461   0.727E-04    0.759E-05
RMM:  16    -0.413162218468E+03   -0.98890E-06   -0.11227E-07  1261   0.657E-04
  148 T=    60. E= -.41286680E+03 F= -.41316222E+03 E0= -.41314160E+03  EK= 0.29542E+00 SP= 0.00E+00 SK= 0.00E+00
       N       E                     dE             d eps       ncg     rms          rms(c)
RMM:   1    -0.413154005603E+03    0.82119E-02   -0.10328E+01  4264   0.870E-01    0.862E-01
RMM:   2    -0.413163577595E+03   -0.95720E-02   -0.12473E-01  4317   0.987E-02    0.622E-01
RMM:   3    -0.413162435788E+03    0.11418E-02   -0.74918E-03  5075   0.456E-02    0.168E-01
RMM:   4    -0.413201528227E+03   -0.39092E-01   -0.42621E-02  5141   0.171E-01    0.820E-01
RMM:   5    -0.413161614593E+03    0.39914E-01   -0.19557E-02  4812   0.138E-01    0.561E-02
RMM:   6    -0.413161696634E+03   -0.82041E-04   -0.31040E-03  5679   0.536E-02    0.185E-02
RMM:   7    -0.413161736946E+03   -0.40312E-04   -0.40136E-04  5999   0.160E-02    0.130E-02
RMM:   8    -0.413161747405E+03   -0.10459E-04   -0.48368E-05  5117   0.685E-03    0.653E-03
RMM:   9    -0.413161752986E+03   -0.55809E-05   -0.91068E-06  3182   0.318E-03    0.319E-03
RMM:  10    -0.413161759205E+03   -0.62191E-05   -0.24066E-06  2565   0.208E-03    0.214E-03
RMM:  11    -0.413161765199E+03   -0.59940E-05   -0.10759E-06  2505   0.157E-03    0.127E-03
RMM:  12    -0.413161770302E+03   -0.51027E-05   -0.62046E-07  2374   0.119E-03    0.476E-04
RMM:  13    -0.413161772448E+03   -0.21462E-05   -0.28420E-07  1794   0.868E-04    0.257E-04
RMM:  14    -0.413161775297E+03   -0.28493E-05   -0.23904E-07  1592   0.799E-04    0.167E-04
RMM:  15    -0.413161777420E+03   -0.21231E-05   -0.18182E-07  1433   0.735E-04    0.953E-05
RMM:  16    -0.413161778189E+03   -0.76831E-06   -0.10552E-07  1212   0.651E-04
  149 T=    60. E= -.41286635E+03 F= -.41316178E+03 E0= -.41314116E+03  EK= 0.29543E+00 SP= 0.00E+00 SK= 0.00E+00
       N       E                     dE             d eps       ncg     rms          rms(c)
RMM:   1    -0.413155020146E+03    0.67573E-02   -0.10276E+01  4264   0.862E-01    0.884E-01
RMM:   2    -0.413163623340E+03   -0.86032E-02   -0.12081E-01  4318   0.975E-02    0.613E-01
RMM:   3    -0.413162987903E+03    0.63544E-03   -0.80922E-03  5138   0.447E-02    0.181E-01
RMM:   4    -0.413200791115E+03   -0.37803E-01   -0.42109E-02  5145   0.170E-01    0.809E-01
RMM:   5    -0.413162110845E+03    0.38680E-01   -0.18905E-02  4811   0.136E-01    0.595E-02
RMM:   6    -0.413162166700E+03   -0.55854E-04   -0.30227E-03  5661   0.532E-02    0.220E-02
RMM:   7    -0.413162200330E+03   -0.33630E-04   -0.41042E-04  6052   0.164E-02    0.142E-02
RMM:   8    -0.413162203621E+03   -0.32910E-05   -0.52405E-05  5297   0.735E-03    0.687E-03
RMM:   9    -0.413162203877E+03   -0.25615E-06   -0.95407E-06  3256   0.329E-03
  150 T=    60. E= -.41286663E+03 F= -.41316220E+03 E0= -.41314159E+03  EK= 0.29557E+00 SP= 0.00E+00 SK= 0.00E+00
