       N       E                     dE             d eps       ncg     rms          rms(c)
RMM:   1     0.220097709212E+04    0.22010E+04   -0.52444E+04  2132   0.654E+02
RMM:   2     0.705424942612E+03   -0.14956E+04   -0.16261E+04  2132   0.177E+02
RMM:   3     0.137766109032E+03   -0.56766E+03   -0.65673E+03  2132   0.117E+02
RMM:   4    -0.159299742826E+03   -0.29707E+03   -0.27828E+03  2132   0.936E+01
RMM:   5    -0.287482970890E+03   -0.12818E+03   -0.11439E+03  2132   0.595E+01
RMM:   6    -0.349900255393E+03   -0.62417E+02   -0.55129E+02  2132   0.423E+01
RMM:   7    -0.382729440406E+03   -0.32829E+02   -0.30390E+02  2132   0.293E+01
RMM:   8    -0.404235576589E+03   -0.21506E+02   -0.18433E+02  2132   0.233E+01
RMM:   9    -0.436041416393E+03   -0.31806E+02   -0.30640E+02  6108   0.173E+01
RMM:  10    -0.441309805309E+03   -0.52684E+01   -0.62945E+01  6401   0.538E+00
RMM:  11    -0.442505310598E+03   -0.11955E+01   -0.11072E+01  6215   0.172E+00
RMM:  12    -0.442869292057E+03   -0.36398E+00   -0.26587E+00  6374   0.596E-01    0.134E+02
RMM:  13    -0.425564426533E+03    0.17305E+02   -0.80980E+01  4675   0.119E+01    0.712E+01
RMM:  14    -0.498734656968E+03   -0.73170E+02   -0.53927E+02  5418   0.232E+01    0.305E+01
RMM:  15    -0.412697197882E+03    0.86037E+02   -0.18939E+02  5035   0.161E+01    0.499E+00
RMM:  16    -0.414152883615E+03   -0.14557E+01   -0.38387E+01  6075   0.593E+00    0.435E+00
RMM:  17    -0.413279816556E+03    0.87307E+00   -0.20588E+00  5317   0.170E+00    0.261E+00
RMM:  18    -0.413150503400E+03    0.12931E+00   -0.12394E+00  5839   0.117E+00    0.151E+00
RMM:  19    -0.413168945664E+03   -0.18442E-01   -0.29770E-01  5866   0.555E-01    0.898E-01
RMM:  20    -0.413183224248E+03   -0.14279E-01   -0.15436E-01  5042   0.471E-01    0.558E-01
RMM:  21    -0.413167679531E+03    0.15545E-01   -0.35371E-02  4980   0.224E-01    0.284E-01
RMM:  22    -0.413166320112E+03    0.13594E-02   -0.13483E-02  6121   0.985E-02    0.191E-01
RMM:  23    -0.413163800768E+03    0.25193E-02   -0.76381E-03  5835   0.840E-02    0.781E-02
RMM:  24    -0.413162704630E+03    0.10961E-02   -0.31260E-03  5972   0.520E-02    0.358E-02
RMM:  25    -0.413162606770E+03    0.97860E-04   -0.70448E-04  5704   0.215E-02    0.245E-02
RMM:  26    -0.413162849861E+03   -0.24309E-03   -0.29005E-04  5186   0.195E-02    0.168E-02
RMM:  27    -0.413163310765E+03   -0.46090E-03   -0.16306E-04  4469   0.169E-02    0.121E-02
RMM:  28    -0.413163798819E+03   -0.48805E-03   -0.12342E-04  4471   0.171E-02    0.102E-02
RMM:  29    -0.413164192362E+03   -0.39354E-03   -0.13813E-04  4523   0.164E-02    0.455E-03
RMM:  30    -0.413164335576E+03   -0.14321E-03   -0.61790E-05  3629   0.757E-03    0.244E-03
RMM:  31    -0.413164409252E+03   -0.73675E-04   -0.29746E-05  3015   0.470E-03    0.155E-03
RMM:  32    -0.413164435165E+03   -0.25914E-04   -0.15787E-05  2959   0.290E-03    0.116E-03
RMM:  33    -0.413164441536E+03   -0.63707E-05   -0.69801E-06  2677   0.166E-03    0.662E-04
RMM:  34    -0.413164444682E+03   -0.31461E-05   -0.30577E-06  1978   0.118E-03    0.668E-04
RMM:  35    -0.413164444895E+03   -0.21355E-06   -0.17760E-06  2032   0.102E-03
    1 T=    61. E= -.41286664E+03 F= -.41316444E+03 E0= -.41314195E+03  EK= 0.29781E+00 SP= 0.00E+00 SK= 0.00E+00
       N       E                     dE             d eps       ncg     rms          rms(c)
RMM:   1    -0.413155703937E+03    0.87407E-02   -0.10877E+01  4004   0.693E-01    0.886E-01
RMM:   2    -0.413165996769E+03   -0.10293E-01   -0.13387E-01  3973   0.997E-02    0.642E-01
RMM:   3    -0.413164367794E+03    0.16290E-02   -0.73135E-03  4889   0.400E-02    0.153E-01
RMM:   4    -0.413193784394E+03   -0.29417E-01   -0.30997E-02  5217   0.146E-01    0.714E-01
RMM:   5    -0.413163844803E+03    0.29940E-01   -0.14736E-02  4842   0.120E-01    0.381E-02
RMM:   6    -0.413164034819E+03   -0.19002E-03   -0.24190E-03  5847   0.473E-02    0.216E-02
RMM:   7    -0.413164054628E+03   -0.19810E-04   -0.29619E-04  5926   0.147E-02    0.150E-02
RMM:   8    -0.413164061258E+03   -0.66300E-05   -0.51523E-05  4982   0.675E-03    0.883E-03
RMM:   9    -0.413164064177E+03   -0.29183E-05   -0.10997E-05  3627   0.367E-03    0.588E-03
RMM:  10    -0.413164070004E+03   -0.58274E-05   -0.21975E-06  2597   0.205E-03    0.372E-03
RMM:  11    -0.413164077840E+03   -0.78362E-05   -0.20357E-06  2581   0.204E-03    0.176E-03
RMM:  12    -0.413164083640E+03   -0.57999E-05   -0.11702E-06  2496   0.159E-03    0.596E-04
RMM:  13    -0.413164084549E+03   -0.90897E-06   -0.47029E-07  2116   0.101E-03
    2 T=    61. E= -.41286633E+03 F= -.41316408E+03 E0= -.41314158E+03  EK= 0.29776E+00 SP= 0.00E+00 SK= 0.00E+00
       N       E                     dE             d eps       ncg     rms          rms(c)
RMM:   1    -0.413156858408E+03    0.72252E-02   -0.10908E+01  4192   0.692E-01    0.910E-01
RMM:   2    -0.413166082305E+03   -0.92239E-02   -0.13123E-01  4008   0.963E-02    0.635E-01
RMM:   3    -0.413164856190E+03    0.12261E-02   -0.75668E-03  4856   0.381E-02    0.158E-01
RMM:   4    -0.413191017184E+03   -0.26161E-01   -0.26621E-02  5185   0.136E-01    0.674E-01
RMM:   5    -0.413164513168E+03    0.26504E-01   -0.12886E-02  4833   0.113E-01    0.384E-02
RMM:   6    -0.413164679858E+03   -0.16669E-03   -0.21365E-03  5816   0.444E-02    0.228E-02
RMM:   7    -0.413164689174E+03   -0.93165E-05   -0.27756E-04  5891   0.145E-02    0.153E-02
RMM:   8    -0.413164688702E+03    0.47219E-06   -0.42262E-05  4850   0.637E-03    0.780E-03
RMM:   9    -0.413164687789E+03    0.91302E-06   -0.88294E-06  3410   0.335E-03
    3 T=    61. E= -.41286667E+03 F= -.41316469E+03 E0= -.41314219E+03  EK= 0.29802E+00 SP= 0.00E+00 SK= 0.00E+00
       N       E                     dE             d eps       ncg     rms          rms(c)
RMM:   1    -0.413156304780E+03    0.83839E-02   -0.10821E+01  4228   0.693E-01    0.893E-01
RMM:   2    -0.413166035321E+03   -0.97305E-02   -0.13030E-01  4294   0.982E-02    0.629E-01
RMM:   3    -0.413171240669E+03   -0.52053E-02   -0.12748E-02  5196   0.832E-02    0.378E-01
RMM:   4    -0.413183843354E+03   -0.12603E-01   -0.34835E-02  5105   0.161E-01    0.583E-01
RMM:   5    -0.413164476696E+03    0.19367E-01   -0.72397E-03  4674   0.975E-02    0.539E-02
RMM:   6    -0.413164429933E+03    0.46764E-04   -0.12938E-03  5389   0.367E-02    0.217E-02
RMM:   7    -0.413164447277E+03   -0.17345E-04   -0.23914E-04  5991   0.147E-02    0.141E-02
RMM:   8    -0.413164448538E+03   -0.12610E-05   -0.40066E-05  5164   0.678E-03    0.666E-03
RMM:   9    -0.413164448914E+03   -0.37527E-06   -0.95310E-06  3630   0.389E-03
    4 T=    61. E= -.41286641E+03 F= -.41316445E+03 E0= -.41314196E+03  EK= 0.29804E+00 SP= 0.00E+00 SK= 0.00E+00
       N       E                     dE             d eps       ncg     rms          rms(c)
RMM:   1    -0.413156226255E+03    0.82223E-02   -0.10866E+01  4235   0.704E-01    0.883E-01
RMM:   2    -0.413166417869E+03   -0.10192E-01   -0.13403E-01  4137   0.959E-02    0.641E-01
RMM:   3    -0.413164773515E+03    0.16444E-02   -0.71644E-03  4837   0.359E-02    0.147E-01
RMM:   4    -0.413186141561E+03   -0.21368E-01   -0.21716E-02  5166   0.123E-01    0.612E-01
RMM:   5    -0.413164456587E+03    0.21685E-01   -0.10635E-02  4831   0.102E-01    0.331E-02
RMM:   6    -0.413164584591E+03   -0.12800E-03   -0.16690E-03  5856   0.393E-02    0.185E-02
RMM:   7    -0.413164601663E+03   -0.17072E-04   -0.16996E-04  5695   0.116E-02    0.998E-03
RMM:   8    -0.413164609812E+03   -0.81488E-05   -0.32657E-05  4730   0.546E-03    0.716E-03
RMM:   9    -0.413164612193E+03   -0.23815E-05   -0.77998E-06  3368   0.317E-03    0.519E-03
RMM:  10    -0.413164616012E+03   -0.38191E-05   -0.15013E-06  2560   0.194E-03    0.350E-03
RMM:  11    -0.413164623476E+03   -0.74638E-05   -0.21306E-06  2603   0.213E-03    0.170E-03
RMM:  12    -0.413164627948E+03   -0.44722E-05   -0.10516E-06  2491   0.157E-03    0.762E-04
RMM:  13    -0.413164628214E+03   -0.26574E-06   -0.28702E-07  2014   0.924E-04
    5 T=    61. E= -.41286647E+03 F= -.41316463E+03 E0= -.41314215E+03  EK= 0.29816E+00 SP= 0.00E+00 SK= 0.00E+00
       N       E                     dE             d eps       ncg     rms          rms(c)
RMM:   1    -0.413157122955E+03    0.75050E-02   -0.10907E+01  4247   0.705E-01    0.905E-01
RMM:   2    -0.413166642862E+03   -0.95199E-02   -0.13138E-01  4013   0.954E-02    0.637E-01
RMM:   3    -0.413165352197E+03    0.12907E-02   -0.74104E-03  4801   0.380E-02    0.155E-01
RMM:   4    -0.413190057331E+03   -0.24705E-01   -0.25062E-02  5160   0.132E-01    0.657E-01
RMM:   5    -0.413164956604E+03    0.25101E-01   -0.12276E-02  4823   0.109E-01    0.373E-02
RMM:   6    -0.413165115492E+03   -0.15889E-03   -0.19982E-03  5793   0.430E-02    0.223E-02
RMM:   7    -0.413165122282E+03   -0.67896E-05   -0.26205E-04  5841   0.140E-02    0.149E-02
RMM:   8    -0.413165121455E+03    0.82651E-06   -0.38703E-05  4748   0.618E-03    0.742E-03
RMM:   9    -0.413165120690E+03    0.76506E-06   -0.83242E-06  3349   0.327E-03
    6 T=    61. E= -.41286675E+03 F= -.41316512E+03 E0= -.41314266E+03  EK= 0.29837E+00 SP= 0.00E+00 SK= 0.00E+00
       N       E                     dE             d eps       ncg     rms          rms(c)
RMM:   1    -0.413156861638E+03    0.82598E-02   -0.10848E+01  4270   0.708E-01    0.901E-01
RMM:   2    -0.413166133903E+03   -0.92723E-02   -0.13058E-01  4297   0.976E-02    0.630E-01
RMM:   3    -0.413171223680E+03   -0.50898E-02   -0.12642E-02  5176   0.810E-02    0.370E-01
RMM:   4    -0.413184665068E+03   -0.13441E-01   -0.34828E-02  5085   0.160E-01    0.590E-01
RMM:   5    -0.413164843573E+03    0.19821E-01   -0.74863E-03  4672   0.980E-02    0.538E-02
RMM:   6    -0.413164803941E+03    0.39632E-04   -0.13469E-03  5402   0.369E-02    0.219E-02
RMM:   7    -0.413164818365E+03   -0.14424E-04   -0.24053E-04  6000   0.147E-02    0.141E-02
RMM:   8    -0.413164818019E+03    0.34610E-06   -0.40371E-05  5148   0.684E-03    0.665E-03
RMM:   9    -0.413164815823E+03    0.21951E-05   -0.89667E-06  3507   0.379E-03    0.356E-03
RMM:  10    -0.413164816027E+03   -0.20349E-06   -0.12382E-06  2528   0.193E-03
    7 T=    61. E= -.41286639E+03 F= -.41316482E+03 E0= -.41314237E+03  EK= 0.29843E+00 SP= 0.00E+00 SK= 0.00E+00
       N       E                     dE             d eps       ncg     rms          rms(c)
RMM:   1    -0.413157002287E+03    0.78135E-02   -0.10847E+01  4271   0.713E-01    0.882E-01
RMM:   2    -0.413167201490E+03   -0.10199E-01   -0.13318E-01  4061   0.948E-02    0.638E-01
RMM:   3    -0.413165680232E+03    0.15213E-02   -0.72370E-03  4913   0.387E-02    0.155E-01
RMM:   4    -0.413195364028E+03   -0.29684E-01   -0.30366E-02  5148   0.145E-01    0.717E-01
RMM:   5    -0.413165228392E+03    0.30136E-01   -0.14654E-02  4815   0.120E-01    0.398E-02
RMM:   6    -0.413165410659E+03   -0.18227E-03   -0.23806E-03  5774   0.469E-02    0.216E-02
RMM:   7    -0.413165426638E+03   -0.15980E-04   -0.30686E-04  5910   0.146E-02    0.148E-02
RMM:   8    -0.413165430537E+03   -0.38987E-05   -0.40115E-05  4729   0.610E-03    0.720E-03
RMM:   9    -0.413165433130E+03   -0.25934E-05   -0.89686E-06  3329   0.324E-03    0.500E-03
RMM:  10    -0.413165436421E+03   -0.32907E-05   -0.17155E-06  2552   0.191E-03    0.320E-03
RMM:  11    -0.413165440891E+03   -0.44696E-05   -0.15132E-06  2560   0.180E-03    0.141E-03
RMM:  12    -0.413165443811E+03   -0.29204E-05   -0.94099E-07  2459   0.143E-03    0.505E-04
RMM:  13    -0.413165444115E+03   -0.30461E-06   -0.30390E-07  1951   0.915E-04
    8 T=    61. E= -.41286663E+03 F= -.41316544E+03 E0= -.41314301E+03  EK= 0.29881E+00 SP= 0.00E+00 SK= 0.00E+00
       N       E                     dE             d eps       ncg     rms          rms(c)
RMM:   1    -0.413157436794E+03    0.80070E-02   -0.10908E+01  4285   0.718E-01    0.900E-01
RMM:   2    -0.413167160290E+03   -0.97235E-02   -0.13244E-01  4172   0.100E-01    0.640E-01
RMM:   3    -0.413165822062E+03    0.13382E-02   -0.74124E-03  4807   0.388E-02    0.154E-01
RMM:   4    -0.413191461282E+03   -0.25639E-01   -0.26106E-02  5150   0.134E-01    0.669E-01
RMM:   5    -0.413165384651E+03    0.26077E-01   -0.12786E-02  4813   0.111E-01    0.371E-02
RMM:   6    -0.413165544257E+03   -0.15961E-03   -0.20786E-03  5808   0.435E-02    0.219E-02
RMM:   7    -0.413165552815E+03   -0.85576E-05   -0.26229E-04  5843   0.141E-02    0.148E-02
RMM:   8    -0.413165553208E+03   -0.39320E-06   -0.41556E-05  4821   0.637E-03    0.779E-03
RMM:   9    -0.413165552306E+03    0.90228E-06   -0.88517E-06  3416   0.340E-03
    9 T=    61. E= -.41286649E+03 F= -.41316555E+03 E0= -.41314314E+03  EK= 0.29906E+00 SP= 0.00E+00 SK= 0.00E+00
       N       E                     dE             d eps       ncg     rms          rms(c)
RMM:   1    -0.413157920882E+03    0.76323E-02   -0.10891E+01  4291   0.728E-01    0.908E-01
RMM:   2    -0.413166939003E+03   -0.90181E-02   -0.13077E-01  4302   0.979E-02    0.632E-01
RMM:   3    -0.413172466288E+03   -0.55273E-02   -0.13186E-02  5154   0.836E-02    0.381E-01
RMM:   4    -0.413184274966E+03   -0.11809E-01   -0.34130E-02  5076   0.158E-01    0.574E-01
RMM:   5    -0.413165705320E+03    0.18570E-01   -0.69466E-03  4659   0.956E-02    0.527E-02
RMM:   6    -0.413165663921E+03    0.41399E-04   -0.12692E-03  5384   0.355E-02    0.222E-02
RMM:   7    -0.413165675913E+03   -0.11992E-04   -0.22344E-04  5996   0.144E-02    0.142E-02
RMM:   8    -0.413165673860E+03    0.20535E-05   -0.38844E-05  5133   0.677E-03    0.651E-03
RMM:   9    -0.413165669641E+03    0.42187E-05   -0.84338E-06  3426   0.371E-03    0.350E-03
RMM:  10    -0.413165669003E+03    0.63792E-06   -0.11872E-06  2517   0.190E-03
   10 T=    61. E= -.41286634E+03 F= -.41316567E+03 E0= -.41314328E+03  EK= 0.29933E+00 SP= 0.00E+00 SK= 0.00E+00
       N       E                     dE             d eps       ncg     rms          rms(c)
RMM:   1    -0.413158030105E+03    0.76395E-02   -0.10840E+01  4296   0.725E-01    0.884E-01
RMM:   2    -0.413168172211E+03   -0.10142E-01   -0.13237E-01  4198   0.967E-02    0.635E-01
RMM:   3    -0.413166799725E+03    0.13725E-02   -0.72187E-03  4893   0.413E-02    0.159E-01
RMM:   4    -0.413198746052E+03   -0.31946E-01   -0.32883E-02  5147   0.151E-01    0.745E-01
RMM:   5    -0.413166209876E+03    0.32536E-01   -0.15943E-02  4810   0.124E-01    0.410E-02
RMM:   6    -0.413166399261E+03   -0.18939E-03   -0.25158E-03  5769   0.487E-02    0.225E-02
RMM:   7    -0.413166411895E+03   -0.12633E-04   -0.32632E-04  5931   0.152E-02    0.154E-02
RMM:   8    -0.413166413038E+03   -0.11427E-05   -0.44128E-05  4837   0.640E-03    0.765E-03
RMM:   9    -0.413166413214E+03   -0.17639E-06   -0.99410E-06  3437   0.342E-03
   11 T=    61. E= -.41286658E+03 F= -.41316641E+03 E0= -.41314405E+03  EK= 0.29983E+00 SP= 0.00E+00 SK= 0.00E+00
       N       E                     dE             d eps       ncg     rms          rms(c)
RMM:   1    -0.413158111132E+03    0.83019E-02   -0.10920E+01  4303   0.731E-01    0.895E-01
RMM:   2    -0.413168036986E+03   -0.99259E-02   -0.13384E-01  4299   0.989E-02    0.643E-01
RMM:   3    -0.413172551534E+03   -0.45145E-02   -0.12373E-02  5154   0.804E-02    0.363E-01
RMM:   4    -0.413190011917E+03   -0.17460E-01   -0.39466E-02  5083   0.169E-01    0.641E-01
RMM:   5    -0.413166301932E+03    0.23710E-01   -0.91854E-03  4688   0.106E-01    0.547E-02
RMM:   6    -0.413166291760E+03    0.10172E-04   -0.16347E-03  5456   0.399E-02    0.209E-02
RMM:   7    -0.413166311281E+03   -0.19521E-04   -0.26495E-04  6015   0.151E-02    0.140E-02
RMM:   8    -0.413166313671E+03   -0.23895E-05   -0.44081E-05  5196   0.696E-03    0.687E-03
RMM:   9    -0.413166314327E+03   -0.65672E-06   -0.95577E-06  3497   0.385E-03
   12 T=    61. E= -.41286627E+03 F= -.41316631E+03 E0= -.41314398E+03  EK= 0.30005E+00 SP= 0.00E+00 SK= 0.00E+00
       N       E                     dE             d eps       ncg     rms          rms(c)
RMM:   1    -0.413159633641E+03    0.66800E-02   -0.10935E+01  4302   0.748E-01    0.913E-01
RMM:   2    -0.413168194756E+03   -0.85611E-02   -0.13162E-01  4223   0.949E-02    0.634E-01
RMM:   3    -0.413167108614E+03    0.10861E-02   -0.75422E-03  4794   0.354E-02    0.156E-01
RMM:   4    -0.413186414250E+03   -0.19306E-01   -0.19593E-02  5145   0.117E-01    0.582E-01
RMM:   5    -0.413166830645E+03    0.19584E-01   -0.97078E-03  4826   0.963E-02    0.345E-02
RMM:   6    -0.413166936599E+03   -0.10595E-03   -0.15139E-03  5865   0.371E-02    0.195E-02
RMM:   7    -0.413166940978E+03   -0.43789E-05   -0.15404E-04  5573   0.112E-02    0.959E-03
RMM:   8    -0.413166936404E+03    0.45741E-05   -0.27137E-05  4520   0.505E-03    0.663E-03
RMM:   9    -0.413166935371E+03    0.10331E-05   -0.67852E-06  3200   0.299E-03    0.522E-03
RMM:  10    -0.413166933074E+03    0.22974E-05   -0.11841E-06  2536   0.181E-03    0.347E-03
RMM:  11    -0.413166928912E+03    0.41622E-05   -0.19835E-06  2586   0.212E-03    0.167E-03
RMM:  12    -0.413166926148E+03    0.27636E-05   -0.82293E-07  2464   0.147E-03    0.781E-04
RMM:  13    -0.413166925800E+03    0.34774E-06   -0.23965E-07  1898   0.863E-04
   13 T=    61. E= -.41286644E+03 F= -.41316693E+03 E0= -.41314462E+03  EK= 0.30049E+00 SP= 0.00E+00 SK= 0.00E+00
       N       E                     dE             d eps       ncg     rms          rms(c)
RMM:   1    -0.413159263574E+03    0.76626E-02   -0.10846E+01  4299   0.735E-01    0.887E-01
RMM:   2    -0.413169109574E+03   -0.98460E-02   -0.13231E-01  4219   0.947E-02    0.634E-01
RMM:   3    -0.413167822095E+03    0.12875E-02   -0.72477E-03  4845   0.381E-02    0.155E-01
RMM:   4    -0.413194378440E+03   -0.26556E-01   -0.27157E-02  5142   0.137E-01    0.680E-01
RMM:   5    -0.413167378890E+03    0.27000E-01   -0.13245E-02  4807   0.113E-01    0.376E-02
RMM:   6    -0.413167541757E+03   -0.16287E-03   -0.21443E-03  5812   0.440E-02    0.221E-02
RMM:   7    -0.413167549033E+03   -0.72758E-05   -0.26774E-04  5845   0.143E-02    0.149E-02
RMM:   8    -0.413167547268E+03    0.17645E-05   -0.43620E-05  4866   0.651E-03    0.790E-03
RMM:   9    -0.413167544616E+03    0.26516E-05   -0.93469E-06  3461   0.348E-03    0.553E-03
RMM:  10    -0.413167544165E+03    0.45115E-06   -0.15743E-06  2547   0.192E-03
   14 T=    61. E= -.41286652E+03 F= -.41316754E+03 E0= -.41314528E+03  EK= 0.30103E+00 SP= 0.00E+00 SK= 0.00E+00
       N       E                     dE             d eps       ncg     rms          rms(c)
RMM:   1    -0.413159678451E+03    0.78662E-02   -0.10938E+01  4303   0.759E-01    0.891E-01
RMM:   2    -0.413169672891E+03   -0.99944E-02   -0.13527E-01  4274   0.992E-02    0.645E-01
RMM:   3    -0.413170004889E+03   -0.33200E-03   -0.90887E-03  5098   0.588E-02    0.250E-01
RMM:   4    -0.413208747311E+03   -0.38742E-01   -0.50120E-02  5126   0.187E-01    0.836E-01
RMM:   5    -0.413167456629E+03    0.41291E-01   -0.18508E-02  4765   0.139E-01    0.526E-02
RMM:   6    -0.413167606309E+03   -0.14968E-03   -0.29728E-03  5671   0.536E-02    0.207E-02
RMM:   7    -0.413167631999E+03   -0.25690E-04   -0.38508E-04  6012   0.163E-02    0.152E-02
RMM:   8    -0.413167634865E+03   -0.28659E-05   -0.56307E-05  5176   0.726E-03    0.770E-03
RMM:   9    -0.413167634074E+03    0.79129E-06   -0.10700E-05  3377   0.357E-03    0.355E-03
RMM:  10    -0.413167635414E+03   -0.13398E-05   -0.25621E-06  2590   0.212E-03    0.235E-03
RMM:  11    -0.413167636674E+03   -0.12607E-05   -0.11598E-06  2520   0.158E-03    0.121E-03
RMM:  12    -0.413167637355E+03   -0.68034E-06   -0.69567E-07  2315   0.123E-03
   15 T=    61. E= -.41286621E+03 F= -.41316764E+03 E0= -.41314540E+03  EK= 0.30142E+00 SP= 0.00E+00 SK= 0.00E+00
       N       E                     dE             d eps       ncg     rms          rms(c)
RMM:   1    -0.413160916400E+03    0.67203E-02   -0.10966E+01  4299   0.749E-01    0.915E-01
RMM:   2    -0.413170053383E+03   -0.91370E-02   -0.13190E-01  4247   0.100E-01    0.637E-01
RMM:   3    -0.413169090695E+03    0.96269E-03   -0.78512E-03  4937   0.422E-02    0.170E-01
RMM:   4    -0.413205236162E+03   -0.36145E-01   -0.37627E-02  5144   0.161E-01    0.791E-01
RMM:   5    -0.413168398941E+03    0.36837E-01   -0.17924E-02  4796   0.132E-01    0.441E-02
RMM:   6    -0.413168612409E+03   -0.21347E-03   -0.29637E-03  5800   0.519E-02    0.250E-02
RMM:   7    -0.413168619290E+03   -0.68816E-05   -0.36142E-04  5877   0.164E-02    0.171E-02
RMM:   8    -0.413168613973E+03    0.53171E-05   -0.55605E-05  5030   0.721E-03    0.939E-03
RMM:   9    -0.413168607533E+03    0.64400E-05   -0.11748E-05  3685   0.380E-03    0.624E-03
RMM:  10    -0.413168603735E+03    0.37987E-05   -0.21376E-06  2575   0.212E-03    0.389E-03
RMM:  11    -0.413168599290E+03    0.44449E-05   -0.18076E-06  2559   0.205E-03    0.175E-03
RMM:  12    -0.413168595298E+03    0.39921E-05   -0.10436E-06  2488   0.164E-03    0.584E-04
RMM:  13    -0.413168594660E+03    0.63724E-06   -0.36503E-07  2161   0.104E-03
   16 T=    62. E= -.41286649E+03 F= -.41316859E+03 E0= -.41314640E+03  EK= 0.30211E+00 SP= 0.00E+00 SK= 0.00E+00
       N       E                     dE             d eps       ncg     rms          rms(c)
RMM:   1    -0.413160862923E+03    0.77324E-02   -0.10879E+01  4298   0.747E-01    0.894E-01
RMM:   2    -0.413170692244E+03   -0.98293E-02   -0.13249E-01  4250   0.983E-02    0.633E-01
RMM:   3    -0.413169329573E+03    0.13627E-02   -0.74255E-03  4888   0.423E-02    0.164E-01
RMM:   4    -0.413201948819E+03   -0.32619E-01   -0.33548E-02  5135   0.152E-01    0.751E-01
RMM:   5    -0.413168804770E+03    0.33144E-01   -0.16174E-02  4801   0.125E-01    0.413E-02
RMM:   6    -0.413169005762E+03   -0.20099E-03   -0.26826E-03  5804   0.489E-02    0.237E-02
RMM:   7    -0.413169013167E+03   -0.74047E-05   -0.32321E-04  5870   0.155E-02    0.162E-02
RMM:   8    -0.413169009404E+03    0.37628E-05   -0.51171E-05  4949   0.693E-03    0.889E-03
RMM:   9    -0.413169004537E+03    0.48672E-05   -0.11282E-05  3650   0.373E-03    0.606E-03
RMM:  10    -0.413169002183E+03    0.23538E-05   -0.19324E-06  2561   0.207E-03    0.382E-03
RMM:  11    -0.413168998997E+03    0.31857E-05   -0.19381E-06  2565   0.211E-03    0.172E-03
RMM:  12    -0.413168996264E+03    0.27335E-05   -0.98899E-07  2487   0.160E-03    0.604E-04
RMM:  13    -0.413168995881E+03    0.38234E-06   -0.33454E-07  2109   0.992E-04
   17 T=    62. E= -.41286634E+03 F= -.41316900E+03 E0= -.41314684E+03  EK= 0.30266E+00 SP= 0.00E+00 SK= 0.00E+00
       N       E                     dE             d eps       ncg     rms          rms(c)
RMM:   1    -0.413165254361E+03    0.37419E-02   -0.10994E+01  4301   0.790E-01    0.888E-01
RMM:   2    -0.413171661004E+03   -0.64066E-02   -0.14596E-01  4257   0.105E-01    0.647E-01
RMM:   3    -0.413169877491E+03    0.17835E-02   -0.71082E-03  4823   0.406E-02    0.168E-01
RMM:   4    -0.413200456393E+03   -0.30579E-01   -0.31448E-02  5145   0.147E-01    0.728E-01
RMM:   5    -0.413169329340E+03    0.31127E-01   -0.15288E-02  4802   0.122E-01    0.395E-02
RMM:   6    -0.413169518585E+03   -0.18924E-03   -0.24921E-03  5803   0.474E-02    0.225E-02
RMM:   7    -0.413169529778E+03   -0.11193E-04   -0.30280E-04  5856   0.150E-02    0.154E-02
RMM:   8    -0.413169529335E+03    0.44276E-06   -0.49698E-05  4924   0.687E-03    0.851E-03
RMM:   9    -0.413169527030E+03    0.23055E-05   -0.10973E-05  3629   0.374E-03    0.576E-03
RMM:  10    -0.413169527355E+03   -0.32482E-06   -0.18748E-06  2554   0.205E-03
   18 T=    62. E= -.41286622E+03 F= -.41316953E+03 E0= -.41314741E+03  EK= 0.30331E+00 SP= 0.00E+00 SK= 0.00E+00
       N       E                     dE             d eps       ncg     rms          rms(c)
RMM:   1    -0.413162882178E+03    0.66449E-02   -0.11003E+01  4304   0.759E-01    0.914E-01
RMM:   2    -0.413172215041E+03   -0.93329E-02   -0.13350E-01  4296   0.989E-02    0.641E-01
RMM:   3    -0.413173826341E+03   -0.16113E-02   -0.99779E-03  5109   0.643E-02    0.278E-01
RMM:   4    -0.413204593511E+03   -0.30767E-01   -0.44414E-02  5105   0.177E-01    0.762E-01
RMM:   5    -0.413170617531E+03    0.33976E-01   -0.14723E-02  4739   0.126E-01    0.517E-02
RMM:   6    -0.413170721858E+03   -0.10433E-03   -0.24265E-03  5640   0.484E-02    0.222E-02
RMM:   7    -0.413170735832E+03   -0.13975E-04   -0.32475E-04  5996   0.154E-02    0.152E-02
RMM:   8    -0.413170732279E+03    0.35535E-05   -0.51325E-05  5168   0.720E-03    0.739E-03
RMM:   9    -0.413170725234E+03    0.70447E-05   -0.93820E-06  3288   0.350E-03    0.326E-03
RMM:  10    -0.413170722543E+03    0.26914E-05   -0.21337E-06  2561   0.204E-03    0.215E-03
RMM:  11    -0.413170718650E+03    0.38927E-05   -0.10552E-06  2508   0.158E-03    0.116E-03
RMM:  12    -0.413170715358E+03    0.32916E-05   -0.57534E-07  2302   0.120E-03    0.407E-04
RMM:  13    -0.413170713542E+03    0.18161E-05   -0.29010E-07  1856   0.886E-04    0.219E-04
RMM:  14    -0.413170711911E+03    0.16310E-05   -0.18569E-07  1446   0.751E-04    0.142E-04
RMM:  15    -0.413170708621E+03    0.32900E-05   -0.21967E-07  1574   0.769E-04    0.112E-04
RMM:  16    -0.413170707468E+03    0.11533E-05   -0.10277E-07  1196   0.636E-04    0.862E-05
RMM:  17    -0.413170704804E+03    0.26635E-05   -0.11660E-07  1376   0.658E-04    0.530E-05
RMM:  18    -0.413170703538E+03    0.12662E-05   -0.60348E-08   989   0.565E-04    0.370E-05
RMM:  19    -0.413170703189E+03    0.34917E-06   -0.30326E-08   816   0.530E-04
   19 T=    62. E= -.41286654E+03 F= -.41317070E+03 E0= -.41314863E+03  EK= 0.30416E+00 SP= 0.00E+00 SK= 0.00E+00
       N       E                     dE             d eps       ncg     rms          rms(c)
RMM:   1    -0.413163182577E+03    0.75210E-02   -0.10941E+01  4299   0.763E-01    0.903E-01
RMM:   2    -0.413172672980E+03   -0.94904E-02   -0.13255E-01  4251   0.987E-02    0.635E-01
RMM:   3    -0.413171727673E+03    0.94531E-03   -0.76974E-03  4963   0.427E-02    0.177E-01
RMM:   4    -0.413211021423E+03   -0.39294E-01   -0.41643E-02  5147   0.169E-01    0.824E-01
RMM:   5    -0.413170919462E+03    0.40102E-01   -0.19524E-02  4794   0.138E-01    0.461E-02
RMM:   6    -0.413171144852E+03   -0.22539E-03   -0.32133E-03  5772   0.540E-02    0.252E-02
RMM:   7    -0.413171153039E+03   -0.81871E-05   -0.39875E-04  5861   0.169E-02    0.175E-02
RMM:   8    -0.413171147287E+03    0.57520E-05   -0.59139E-05  5100   0.742E-03    0.943E-03
RMM:   9    -0.413171140351E+03    0.69359E-05   -0.12741E-05  3777   0.391E-03    0.609E-03
RMM:  10    -0.413171136356E+03    0.39958E-05   -0.23255E-06  2581   0.216E-03    0.382E-03
RMM:  11    -0.413171132160E+03    0.41956E-05   -0.15899E-06  2531   0.196E-03    0.176E-03
RMM:  12    -0.413171128328E+03    0.38315E-05   -0.98301E-07  2483   0.161E-03    0.515E-04
RMM:  13    -0.413171127591E+03    0.73716E-06   -0.36673E-07  2159   0.105E-03
   20 T=    62. E= -.41286633E+03 F= -.41317113E+03 E0= -.41314909E+03  EK= 0.30480E+00 SP= 0.00E+00 SK= 0.00E+00
       N       E                     dE             d eps       ncg     rms          rms(c)
RMM:   1    -0.413164086605E+03    0.70417E-02   -0.10980E+01  4301   0.776E-01    0.889E-01
RMM:   2    -0.413174193673E+03   -0.10107E-01   -0.13628E-01  4268   0.100E-01    0.646E-01
RMM:   3    -0.413172604366E+03    0.15893E-02   -0.75283E-03  4929   0.418E-02    0.162E-01
RMM:   4    -0.413208226368E+03   -0.35622E-01   -0.37106E-02  5140   0.160E-01    0.784E-01
RMM:   5    -0.413171940037E+03    0.36286E-01   -0.17821E-02  4799   0.131E-01    0.422E-02
RMM:   6    -0.413172145543E+03   -0.20551E-03   -0.28749E-03  5808   0.510E-02    0.236E-02
RMM:   7    -0.413172158462E+03   -0.12919E-04   -0.34704E-04  5859   0.160E-02    0.163E-02
RMM:   8    -0.413172157192E+03    0.12695E-05   -0.56190E-05  5028   0.723E-03    0.921E-03
RMM:   9    -0.413172153313E+03    0.38792E-05   -0.12397E-05  3778   0.391E-03    0.608E-03
RMM:  10    -0.413172152409E+03    0.90420E-06   -0.22078E-06  2579   0.215E-03
   21 T=    62. E= -.41286641E+03 F= -.41317215E+03 E0= -.41315016E+03  EK= 0.30575E+00 SP= 0.00E+00 SK= 0.00E+00
       N       E                     dE             d eps       ncg     rms          rms(c)
RMM:   1    -0.413165346085E+03    0.68072E-02   -0.11049E+01  4302   0.772E-01    0.911E-01
RMM:   2    -0.413174978404E+03   -0.96323E-02   -0.13494E-01  4308   0.989E-02    0.646E-01
RMM:   3    -0.413176855099E+03   -0.18767E-02   -0.10411E-02  5102   0.679E-02    0.293E-01
RMM:   4    -0.413206110592E+03   -0.29255E-01   -0.44684E-02  5098   0.177E-01    0.751E-01
RMM:   5    -0.413173155741E+03    0.32955E-01   -0.14024E-02  4716   0.124E-01    0.518E-02
RMM:   6    -0.413173246982E+03   -0.91241E-04   -0.23718E-03  5633   0.478E-02    0.220E-02
RMM:   7    -0.413173258949E+03   -0.11966E-04   -0.31509E-04  5994   0.153E-02    0.151E-02
RMM:   8    -0.413173255250E+03    0.36983E-05   -0.50965E-05  5162   0.724E-03    0.736E-03
RMM:   9    -0.413173248010E+03    0.72406E-05   -0.94308E-06  3296   0.353E-03    0.322E-03
RMM:  10    -0.413173245467E+03    0.25428E-05   -0.20654E-06  2559   0.203E-03    0.211E-03
RMM:  11    -0.413173241513E+03    0.39545E-05   -0.10715E-06  2508   0.160E-03    0.117E-03
RMM:  12    -0.413173238321E+03    0.31918E-05   -0.55461E-07  2296   0.120E-03    0.425E-04
RMM:  13    -0.413173236360E+03    0.19605E-05   -0.28365E-07  1849   0.885E-04    0.215E-04
RMM:  14    -0.413173234279E+03    0.20816E-05   -0.19112E-07  1462   0.758E-04    0.130E-04
RMM:  15    -0.413173231369E+03    0.29099E-05   -0.17797E-07  1510   0.738E-04    0.111E-04
RMM:  16    -0.413173230021E+03    0.13477E-05   -0.10063E-07  1201   0.634E-04    0.841E-05
RMM:  17    -0.413173227383E+03    0.26380E-05   -0.10464E-07  1335   0.641E-04    0.457E-05
RMM:  18    -0.413173226076E+03    0.13074E-05   -0.54406E-08   976   0.561E-04    0.362E-05
RMM:  19    -0.413173225581E+03    0.49453E-06   -0.28335E-08   810   0.529E-04
   22 T=    62. E= -.41286646E+03 F= -.41317323E+03 E0= -.41315128E+03  EK= 0.30676E+00 SP= 0.00E+00 SK= 0.00E+00
       N       E                     dE             d eps       ncg     rms          rms(c)
RMM:   1    -0.413167043985E+03    0.61821E-02   -0.11040E+01  4294   0.797E-01    0.914E-01
RMM:   2    -0.413175488964E+03   -0.84450E-02   -0.13418E-01  4270   0.107E-01    0.638E-01
RMM:   3    -0.413174406837E+03    0.10821E-02   -0.78742E-03  4886   0.449E-02    0.172E-01
RMM:   4    -0.413210490302E+03   -0.36083E-01   -0.37552E-02  5149   0.161E-01    0.789E-01
RMM:   5    -0.413173737870E+03    0.36752E-01   -0.18040E-02  4793   0.132E-01    0.442E-02
RMM:   6    -0.413173942735E+03   -0.20487E-03   -0.30027E-03  5798   0.519E-02    0.257E-02
RMM:   7    -0.413173947388E+03   -0.46529E-05   -0.35821E-04  5817   0.164E-02    0.172E-02
RMM:   8    -0.413173940674E+03    0.67144E-05   -0.58958E-05  5057   0.746E-03    0.967E-03
RMM:   9    -0.413173932239E+03    0.84349E-05   -0.12772E-05  3842   0.398E-03    0.644E-03
RMM:  10    -0.413173926951E+03    0.52881E-05   -0.21770E-06  2581   0.216E-03    0.406E-03
RMM:  11    -0.413173920691E+03    0.62597E-05   -0.18319E-06  2553   0.209E-03    0.184E-03
RMM:  12    -0.413173915223E+03    0.54679E-05   -0.10149E-06  2478   0.167E-03    0.602E-04
RMM:  13    -0.413173914325E+03    0.89829E-06   -0.36986E-07  2190   0.107E-03
   23 T=    63. E= -.41286617E+03 F= -.41317391E+03 E0= -.41315202E+03  EK= 0.30774E+00 SP= 0.00E+00 SK= 0.00E+00
       N       E                     dE             d eps       ncg     rms          rms(c)
RMM:   1    -0.413167259295E+03    0.66559E-02   -0.11026E+01  4296   0.788E-01    0.893E-01
RMM:   2    -0.413177624133E+03   -0.10365E-01   -0.13667E-01  4270   0.103E-01    0.646E-01
RMM:   3    -0.413175747885E+03    0.18762E-02   -0.74846E-03  4793   0.427E-02    0.156E-01
RMM:   4    -0.413203474100E+03   -0.27726E-01   -0.28356E-02  5149   0.140E-01    0.694E-01
RMM:   5    -0.413175325403E+03    0.28149E-01   -0.13970E-02  4807   0.116E-01    0.381E-02
RMM:   6    -0.413175480994E+03   -0.15559E-03   -0.22599E-03  5816   0.448E-02    0.222E-02
RMM:   7    -0.413175487533E+03   -0.65396E-05   -0.24912E-04  5819   0.141E-02    0.135E-02
RMM:   8    -0.413175485831E+03    0.17028E-05   -0.50185E-05  4981   0.681E-03    0.886E-03
RMM:   9    -0.413175480130E+03    0.57009E-05   -0.11837E-05  3889   0.389E-03    0.605E-03
RMM:  10    -0.413175478087E+03    0.20422E-05   -0.17782E-06  2545   0.211E-03    0.390E-03
RMM:  11    -0.413175475092E+03    0.29956E-05   -0.21464E-06  2600   0.220E-03    0.179E-03
RMM:  12    -0.413175472314E+03    0.27778E-05   -0.91616E-07  2479   0.160E-03    0.626E-04
RMM:  13    -0.413175471898E+03    0.41620E-06   -0.31463E-07  2097   0.980E-04
   24 T=    63. E= -.41286639E+03 F= -.41317547E+03 E0= -.41315363E+03  EK= 0.30908E+00 SP= 0.00E+00 SK= 0.00E+00
       N       E                     dE             d eps       ncg     rms          rms(c)
RMM:   1    -0.413168420329E+03    0.70520E-02   -0.11125E+01  4297   0.799E-01    0.908E-01
RMM:   2    -0.413178554954E+03   -0.10135E-01   -0.13695E-01  4276   0.107E-01    0.651E-01
RMM:   3    -0.413176758648E+03    0.17963E-02   -0.76274E-03  4749   0.432E-02    0.156E-01
RMM:   4    -0.413202288933E+03   -0.25530E-01   -0.26025E-02  5146   0.135E-01    0.667E-01
RMM:   5    -0.413176333508E+03    0.25955E-01   -0.12810E-02  4808   0.111E-01    0.375E-02
RMM:   6    -0.413176472256E+03   -0.13875E-03   -0.20748E-03  5824   0.429E-02    0.221E-02
RMM:   7    -0.413176475895E+03   -0.36390E-05   -0.22182E-04  5783   0.135E-02    0.127E-02
RMM:   8    -0.413176473126E+03    0.27689E-05   -0.46620E-05  4956   0.660E-03    0.856E-03
RMM:   9    -0.413176466992E+03    0.61335E-05   -0.11395E-05  3873   0.382E-03    0.597E-03
RMM:  10    -0.413176464250E+03    0.27421E-05   -0.16525E-06  2543   0.207E-03    0.387E-03
RMM:  11    -0.413176460117E+03    0.41338E-05   -0.19259E-06  2564   0.213E-03    0.181E-03
RMM:  12    -0.413176456214E+03    0.39021E-05   -0.90445E-07  2477   0.159E-03    0.611E-04
RMM:  13    -0.413176455649E+03    0.56536E-06   -0.30751E-07  2090   0.970E-04
   25 T=    63. E= -.41286620E+03 F= -.41317646E+03 E0= -.41315466E+03  EK= 0.31026E+00 SP= 0.00E+00 SK= 0.00E+00
       N       E                     dE             d eps       ncg     rms          rms(c)
RMM:   1    -0.413170593262E+03    0.58630E-02   -0.11151E+01  4297   0.815E-01    0.924E-01
RMM:   2    -0.413179201980E+03   -0.86087E-02   -0.13578E-01  4275   0.108E-01    0.644E-01
RMM:   3    -0.413177901035E+03    0.13009E-02   -0.78922E-03  4719   0.435E-02    0.161E-01
RMM:   4    -0.413201245520E+03   -0.23344E-01   -0.23635E-02  5146   0.129E-01    0.637E-01
RMM:   5    -0.413177608345E+03    0.23637E-01   -0.11722E-02  4810   0.106E-01    0.378E-02
RMM:   6    -0.413177728897E+03   -0.12055E-03   -0.19000E-03  5817   0.410E-02    0.225E-02
RMM:   7    -0.413177726726E+03    0.21708E-05   -0.19672E-04  5704   0.130E-02    0.117E-02
RMM:   8    -0.413177719922E+03    0.68042E-05   -0.37537E-05  4825   0.600E-03    0.795E-03
RMM:   9    -0.413177713155E+03    0.67667E-05   -0.96441E-06  3651   0.347E-03    0.594E-03
RMM:  10    -0.413177708660E+03    0.44945E-05   -0.15790E-06  2551   0.205E-03    0.389E-03
RMM:  11    -0.413177700361E+03    0.82996E-05   -0.19164E-06  2562   0.214E-03    0.179E-03
RMM:  12    -0.413177692481E+03    0.78793E-05   -0.89954E-07  2474   0.162E-03    0.711E-04
RMM:  13    -0.413177691809E+03    0.67234E-06   -0.28342E-07  2096   0.956E-04
   26 T=    63. E= -.41286612E+03 F= -.41317769E+03 E0= -.41315594E+03  EK= 0.31157E+00 SP= 0.00E+00 SK= 0.00E+00
       N       E                     dE             d eps       ncg     rms          rms(c)
RMM:   1    -0.413171224066E+03    0.64684E-02   -0.11101E+01  4297   0.798E-01    0.899E-01
RMM:   2    -0.413181314497E+03   -0.10090E-01   -0.13706E-01  4272   0.103E-01    0.646E-01
RMM:   3    -0.413179743285E+03    0.15712E-02   -0.75358E-03  4647   0.423E-02    0.153E-01
RMM:   4    -0.413198438269E+03   -0.18695E-01   -0.19020E-02  5149   0.115E-01    0.572E-01
RMM:   5    -0.413179488660E+03    0.18950E-01   -0.94988E-03  4814   0.946E-02    0.341E-02
RMM:   6    -0.413179572569E+03   -0.83910E-04   -0.14827E-03  5839   0.363E-02    0.203E-02
RMM:   7    -0.413179571055E+03    0.15145E-05   -0.15538E-04  5598   0.117E-02    0.992E-03
RMM:   8    -0.413179566222E+03    0.48332E-05   -0.28675E-05  4621   0.534E-03    0.663E-03
RMM:   9    -0.413179562001E+03    0.42210E-05   -0.65835E-06  3205   0.297E-03    0.508E-03
RMM:  10    -0.413179559974E+03    0.20269E-05   -0.12718E-06  2534   0.185E-03    0.345E-03
RMM:  11    -0.413179554338E+03    0.56357E-05   -0.17357E-06  2549   0.207E-03    0.159E-03
RMM:  12    -0.413179550426E+03    0.39116E-05   -0.75956E-07  2436   0.146E-03    0.807E-04
RMM:  13    -0.413179549921E+03    0.50514E-06   -0.22104E-07  1930   0.868E-04
   27 T=    64. E= -.41286642E+03 F= -.41317955E+03 E0= -.41315785E+03  EK= 0.31313E+00 SP= 0.00E+00 SK= 0.00E+00
       N       E                     dE             d eps       ncg     rms          rms(c)
RMM:   1    -0.413173171022E+03    0.63794E-02   -0.11227E+01  4296   0.832E-01    0.907E-01
RMM:   2    -0.413182627880E+03   -0.94569E-02   -0.14075E-01  4273   0.108E-01    0.657E-01
RMM:   3    -0.413180810197E+03    0.18177E-02   -0.77461E-03  4562   0.439E-02    0.150E-01
RMM:   4    -0.413195683395E+03   -0.14873E-01   -0.15217E-02  5152   0.104E-01    0.512E-01
RMM:   5    -0.413180608822E+03    0.15075E-01   -0.75324E-03  4821   0.843E-02    0.320E-02
RMM:   6    -0.413180661748E+03   -0.52926E-04   -0.11621E-03  5851   0.322E-02    0.192E-02
RMM:   7    -0.413180661824E+03   -0.75459E-07   -0.12902E-04  5579   0.109E-02    0.924E-03
RMM:   8    -0.413180655717E+03    0.61072E-05   -0.24521E-05  4533   0.506E-03    0.603E-03
RMM:   9    -0.413180654527E+03    0.11895E-05   -0.66682E-06  3254   0.305E-03    0.504E-03
RMM:  10    -0.413180651686E+03    0.28414E-05   -0.95922E-07  2509   0.177E-03    0.319E-03
RMM:  11    -0.413180647501E+03    0.41846E-05   -0.12930E-06  2512   0.180E-03    0.153E-03
RMM:  12    -0.413180644215E+03    0.32866E-05   -0.64182E-07  2363   0.131E-03    0.573E-04
RMM:  13    -0.413180643470E+03    0.74421E-06   -0.19837E-07  1745   0.806E-04
   28 T=    64. E= -.41286606E+03 F= -.41318064E+03 E0= -.41315900E+03  EK= 0.31459E+00 SP= 0.00E+00 SK= 0.00E+00
       N       E                     dE             d eps       ncg     rms          rms(c)
RMM:   1    -0.413181897239E+03   -0.12530E-02   -0.11345E+01  4291   0.877E-01    0.931E-01
RMM:   2    -0.413184321525E+03   -0.24243E-02   -0.14414E-01  4273   0.111E-01    0.651E-01
RMM:   3    -0.413182793091E+03    0.15284E-02   -0.80149E-03  4412   0.433E-02    0.161E-01
RMM:   4    -0.413188841552E+03   -0.60485E-02   -0.65882E-03  5167   0.680E-02    0.327E-01
RMM:   5    -0.413182815619E+03    0.60259E-02   -0.30382E-03  4832   0.537E-02    0.301E-02
RMM:   6    -0.413182823565E+03   -0.79462E-05   -0.53678E-04  5816   0.219E-02    0.200E-02
RMM:   7    -0.413182813566E+03    0.99997E-05   -0.13765E-04  5358   0.116E-02    0.112E-02
RMM:   8    -0.413182801451E+03    0.12115E-04   -0.12663E-05  3859   0.454E-03    0.470E-03
RMM:   9    -0.413182797183E+03    0.42682E-05   -0.24341E-06  2691   0.221E-03    0.339E-03
RMM:  10    -0.413182791290E+03    0.58924E-05   -0.98903E-07  2479   0.165E-03    0.192E-03
RMM:  11    -0.413182784287E+03    0.70033E-05   -0.62648E-07  2415   0.134E-03    0.836E-04
RMM:  12    -0.413182779302E+03    0.49846E-05   -0.31274E-07  2041   0.961E-04    0.342E-04
RMM:  13    -0.413182776911E+03    0.23915E-05   -0.15401E-07  1373   0.723E-04    0.186E-04
RMM:  14    -0.413182772996E+03    0.39154E-05   -0.11255E-07  1240   0.686E-04    0.108E-04
RMM:  15    -0.413182768749E+03    0.42465E-05   -0.10097E-07  1349   0.677E-04    0.921E-05
RMM:  16    -0.413182766148E+03    0.26015E-05   -0.65930E-08  1140   0.604E-04    0.566E-05
RMM:  17    -0.413182762345E+03    0.38024E-05   -0.71834E-08  1220   0.607E-04    0.424E-05
RMM:  18    -0.413182761866E+03    0.47894E-06   -0.25934E-08   778   0.518E-04
   29 T=    64. E= -.41286634E+03 F= -.41318276E+03 E0= -.41316116E+03  EK= 0.31642E+00 SP= 0.00E+00 SK= 0.00E+00
       N       E                     dE             d eps       ncg     rms          rms(c)
RMM:   1    -0.413179068438E+03    0.36939E-02   -0.11249E+01  4290   0.852E-01    0.909E-01
RMM:   2    -0.413186445496E+03   -0.73771E-02   -0.13948E-01  4270   0.111E-01    0.649E-01
RMM:   3    -0.413184657847E+03    0.17876E-02   -0.78350E-03  4474   0.460E-02    0.153E-01
RMM:   4    -0.413195318090E+03   -0.10660E-01   -0.11056E-02  5157   0.893E-02    0.434E-01
RMM:   5    -0.413184551476E+03    0.10767E-01   -0.54270E-03  4824   0.714E-02    0.314E-02
RMM:   6    -0.413184581577E+03   -0.30101E-04   -0.86021E-04  5845   0.276E-02    0.201E-02
RMM:   7    -0.413184581126E+03    0.45087E-06   -0.15269E-04  5525   0.120E-02    0.123E-02
RMM:   8    -0.413184568602E+03    0.12524E-04   -0.24189E-05  4492   0.561E-03    0.533E-03
RMM:   9    -0.413184565786E+03    0.28161E-05   -0.46784E-06  2962   0.277E-03    0.418E-03
RMM:  10    -0.413184562153E+03    0.36336E-05   -0.88856E-07  2494   0.167E-03    0.259E-03
RMM:  11    -0.413184557471E+03    0.46814E-05   -0.67549E-07  2457   0.138E-03    0.126E-03
RMM:  12    -0.413184553214E+03    0.42571E-05   -0.44429E-07  2241   0.109E-03    0.501E-04
RMM:  13    -0.413184551676E+03    0.15383E-05   -0.17517E-07  1590   0.765E-04    0.232E-04
RMM:  14    -0.413184550161E+03    0.15150E-05   -0.95300E-08  1140   0.651E-04    0.141E-04
RMM:  15    -0.413184546459E+03    0.37018E-05   -0.98058E-08  1242   0.674E-04    0.126E-04
RMM:  16    -0.413184546025E+03    0.43456E-06   -0.39679E-08   848   0.584E-04
   30 T=    65. E= -.41286627E+03 F= -.41318455E+03 E0= -.41316300E+03  EK= 0.31828E+00 SP= 0.00E+00 SK= 0.00E+00
       N       E                     dE             d eps       ncg     rms          rms(c)
RMM:   1    -0.413185293381E+03   -0.74692E-03   -0.11423E+01  4290   0.905E-01    0.910E-01
RMM:   2    -0.413188848884E+03   -0.35555E-02   -0.15221E-01  4273   0.125E-01    0.664E-01
RMM:   3    -0.413186187298E+03    0.26616E-02   -0.76849E-03  4299   0.443E-02    0.157E-01
RMM:   4    -0.413188765302E+03   -0.25780E-02   -0.35029E-03  5118   0.500E-02    0.214E-01
RMM:   5    -0.413186190869E+03    0.25744E-02   -0.12757E-03  4811   0.355E-02    0.273E-02
RMM:   6    -0.413186189933E+03    0.93575E-06   -0.26318E-04  5701   0.163E-02    0.200E-02
RMM:   7    -0.413186182290E+03    0.76431E-05   -0.10822E-04  5084   0.101E-02    0.892E-03
RMM:   8    -0.413186177268E+03    0.50219E-05   -0.81410E-06  3424   0.381E-03    0.433E-03
RMM:   9    -0.413186176205E+03    0.10632E-05   -0.11257E-06  2508   0.177E-03    0.270E-03
RMM:  10    -0.413186172732E+03    0.34729E-05   -0.91472E-07  2459   0.146E-03    0.125E-03
RMM:  11    -0.413186170863E+03    0.18691E-05   -0.37719E-07  2131   0.100E-03    0.585E-04
RMM:  12    -0.413186168689E+03    0.21738E-05   -0.22858E-07  1632   0.813E-04    0.231E-04
RMM:  13    -0.413186167219E+03    0.14708E-05   -0.11919E-07  1143   0.673E-04    0.148E-04
RMM:  14    -0.413186165248E+03    0.19702E-05   -0.10152E-07  1153   0.660E-04    0.100E-04
RMM:  15    -0.413186163052E+03    0.21964E-05   -0.88189E-08  1204   0.638E-04    0.651E-05
RMM:  16    -0.413186161941E+03    0.11109E-05   -0.50398E-08   942   0.569E-04    0.497E-05
RMM:  17    -0.413186160687E+03    0.12543E-05   -0.35999E-08   845   0.546E-04    0.201E-05
RMM:  18    -0.413186160041E+03    0.64615E-06   -0.19502E-08   710   0.524E-04
   31 T=    65. E= -.41286593E+03 F= -.41318616E+03 E0= -.41316466E+03  EK= 0.32023E+00 SP= 0.00E+00 SK= 0.00E+00
       N       E                     dE             d eps       ncg     rms          rms(c)
RMM:   1    -0.413181431865E+03    0.47288E-02   -0.11436E+01  4287   0.863E-01    0.937E-01
RMM:   2    -0.413190645708E+03   -0.92138E-02   -0.14328E-01  4280   0.122E-01    0.658E-01
RMM:   3    -0.413188860419E+03    0.17853E-02   -0.83112E-03  4243   0.508E-02    0.155E-01
RMM:   4    -0.413189869545E+03   -0.10091E-02   -0.18989E-03  5053   0.375E-02    0.132E-01
RMM:   5    -0.413188911113E+03    0.95843E-03   -0.48836E-04  4778   0.226E-02    0.296E-02
RMM:   6    -0.413188904366E+03    0.67467E-05   -0.17526E-04  5468   0.137E-02    0.218E-02
RMM:   7    -0.413188882783E+03    0.21583E-04   -0.10565E-04  4857   0.101E-02    0.948E-03
RMM:   8    -0.413188879208E+03    0.35746E-05   -0.69607E-06  3261   0.357E-03    0.417E-03
RMM:   9    -0.413188877359E+03    0.18489E-05   -0.12481E-06  2457   0.173E-03    0.228E-03
RMM:  10    -0.413188868367E+03    0.89922E-05   -0.75517E-07  2360   0.137E-03    0.925E-04
RMM:  11    -0.413188864416E+03    0.39506E-05   -0.27351E-07  1859   0.867E-04    0.345E-04
RMM:  12    -0.413188860447E+03    0.39691E-05   -0.15933E-07  1515   0.744E-04    0.195E-04
RMM:  13    -0.413188857312E+03    0.31357E-05   -0.89100E-08  1139   0.654E-04    0.105E-04
RMM:  14    -0.413188852426E+03    0.48855E-05   -0.88546E-08  1273   0.661E-04    0.104E-04
RMM:  15    -0.413188849042E+03    0.33840E-05   -0.55899E-08  1071   0.589E-04    0.730E-05
RMM:  16    -0.413188845922E+03    0.31201E-05   -0.47778E-08  1001   0.564E-04    0.415E-05
RMM:  17    -0.413188845153E+03    0.76890E-06   -0.19038E-08   682   0.503E-04
   32 T=    66. E= -.41286624E+03 F= -.41318885E+03 E0= -.41316740E+03  EK= 0.32260E+00 SP= 0.00E+00 SK= 0.00E+00
       N       E                     dE             d eps       ncg     rms          rms(c)
RMM:   1    -0.413183904360E+03    0.49416E-02   -0.11414E+01  4287   0.892E-01    0.924E-01
RMM:   2    -0.413192871340E+03   -0.89670E-02   -0.14501E-01  4280   0.130E-01    0.655E-01
RMM:   3    -0.413190752444E+03    0.21189E-02   -0.79784E-03  4271   0.434E-02    0.157E-01
RMM:   4    -0.413192251846E+03   -0.14994E-02   -0.23718E-03  5101   0.419E-02    0.163E-01
RMM:   5    -0.413190795083E+03    0.14568E-02   -0.72685E-04  4780   0.274E-02    0.293E-02
RMM:   6    -0.413190784974E+03    0.10109E-04   -0.20629E-04  5558   0.149E-02    0.217E-02
RMM:   7    -0.413190767401E+03    0.17573E-04   -0.11117E-04  4955   0.997E-03    0.982E-03
RMM:   8    -0.413190762365E+03    0.50356E-05   -0.85113E-06  3509   0.388E-03    0.454E-03
RMM:   9    -0.413190760566E+03    0.17996E-05   -0.13219E-06  2466   0.176E-03    0.237E-03
RMM:  10    -0.413190753114E+03    0.74518E-05   -0.71372E-07  2382   0.137E-03    0.107E-03
RMM:  11    -0.413190749352E+03    0.37622E-05   -0.28870E-07  1934   0.912E-04    0.566E-04
RMM:  12    -0.413190744747E+03    0.46044E-05   -0.18780E-07  1514   0.779E-04    0.191E-04
RMM:  13    -0.413190741786E+03    0.29614E-05   -0.88686E-08  1000   0.646E-04    0.129E-04
RMM:  14    -0.413190737688E+03    0.40976E-05   -0.80558E-08  1075   0.643E-04    0.927E-05
RMM:  15    -0.413190732905E+03    0.47832E-05   -0.78541E-08  1195   0.635E-04    0.620E-05
RMM:  16    -0.413190731336E+03    0.15694E-05   -0.35084E-08   754   0.534E-04    0.468E-05
RMM:  17    -0.413190729570E+03    0.17658E-05   -0.27204E-08   722   0.527E-04    0.218E-05
RMM:  18    -0.413190728784E+03    0.78626E-06   -0.16401E-08   600   0.505E-04
   33 T=    66. E= -.41286594E+03 F= -.41319073E+03 E0= -.41316933E+03  EK= 0.32479E+00 SP= 0.00E+00 SK= 0.00E+00
       N       E                     dE             d eps       ncg     rms          rms(c)
RMM:   1    -0.413189528565E+03    0.12010E-02   -0.11552E+01  4295   0.945E-01    0.915E-01
RMM:   2    -0.413195488815E+03   -0.59603E-02   -0.15408E-01  4277   0.134E-01    0.669E-01
RMM:   3    -0.413193296317E+03    0.21925E-02   -0.78938E-03  4350   0.506E-02    0.158E-01
RMM:   4    -0.413197242165E+03   -0.39458E-02   -0.47028E-03  5133   0.610E-02    0.265E-01
RMM:   5    -0.413193331812E+03    0.39104E-02   -0.19003E-03  4799   0.436E-02    0.294E-02
RMM:   6    -0.413193320978E+03    0.10834E-04   -0.36030E-04  5725   0.195E-02    0.213E-02
RMM:   7    -0.413193315351E+03    0.56274E-05   -0.12589E-04  5152   0.108E-02    0.990E-03
RMM:   8    -0.413193308970E+03    0.63809E-05   -0.12283E-05  3913   0.441E-03    0.472E-03
RMM:   9    -0.413193307779E+03    0.11909E-05   -0.16295E-06  2576   0.196E-03    0.278E-03
RMM:  10    -0.413193304472E+03    0.33077E-05   -0.82904E-07  2454   0.146E-03    0.138E-03
RMM:  11    -0.413193301240E+03    0.32313E-05   -0.48479E-07  2223   0.110E-03    0.636E-04
RMM:  12    -0.413193298838E+03    0.24025E-05   -0.25741E-07  1747   0.845E-04    0.273E-04
RMM:  13    -0.413193297238E+03    0.15996E-05   -0.13370E-07  1172   0.685E-04    0.156E-04
RMM:  14    -0.413193295470E+03    0.17680E-05   -0.95973E-08  1075   0.646E-04    0.112E-04
RMM:  15    -0.413193292689E+03    0.27817E-05   -0.93121E-08  1152   0.647E-04    0.589E-05
RMM:  16    -0.413193291949E+03    0.73940E-06   -0.45652E-08   893   0.578E-04
   34 T=    67. E= -.41286609E+03 F= -.41319329E+03 E0= -.41317194E+03  EK= 0.32720E+00 SP= 0.00E+00 SK= 0.00E+00
       N       E                     dE             d eps       ncg     rms          rms(c)
RMM:   1    -0.413188518444E+03    0.47742E-02   -0.11615E+01  4300   0.917E-01    0.941E-01
RMM:   2    -0.413198077502E+03   -0.95591E-02   -0.14939E-01  4262   0.132E-01    0.668E-01
RMM:   3    -0.413196072801E+03    0.20047E-02   -0.82232E-03  4384   0.480E-02    0.160E-01
RMM:   4    -0.413199620106E+03   -0.35473E-02   -0.43535E-03  5158   0.558E-02    0.254E-01
RMM:   5    -0.413196031820E+03    0.35883E-02   -0.18052E-03  4818   0.422E-02    0.310E-02
RMM:   6    -0.413196021022E+03    0.10798E-04   -0.37121E-04  5714   0.193E-02    0.227E-02
RMM:   7    -0.413196007501E+03    0.13522E-04   -0.13367E-04  5162   0.110E-02    0.101E-02
RMM:   8    -0.413196000362E+03    0.71390E-05   -0.11989E-05  3812   0.427E-03    0.473E-03
RMM:   9    -0.413195997948E+03    0.24138E-05   -0.15941E-06  2553   0.193E-03    0.275E-03
RMM:  10    -0.413195991289E+03    0.66588E-05   -0.81597E-07  2469   0.147E-03    0.135E-03
RMM:  11    -0.413195985936E+03    0.53529E-05   -0.42409E-07  2210   0.106E-03    0.686E-04
RMM:  12    -0.413195981316E+03    0.46201E-05   -0.23932E-07  1742   0.843E-04    0.260E-04
RMM:  13    -0.413195978553E+03    0.27634E-05   -0.12576E-07  1181   0.690E-04    0.154E-04
RMM:  14    -0.413195975013E+03    0.35401E-05   -0.89784E-08  1118   0.653E-04    0.121E-04
RMM:  15    -0.413195969766E+03    0.52465E-05   -0.91048E-08  1258   0.659E-04    0.692E-05
RMM:  16    -0.413195968215E+03    0.15512E-05   -0.48772E-08   980   0.578E-04    0.569E-05
RMM:  17    -0.413195965144E+03    0.30704E-05   -0.44776E-08  1025   0.577E-04    0.267E-05
RMM:  18    -0.413195964112E+03    0.10320E-05   -0.24572E-08   775   0.527E-04    0.153E-05
RMM:  19    -0.413195963863E+03    0.24897E-06   -0.12731E-08   635   0.508E-04
   35 T=    67. E= -.41286628E+03 F= -.41319596E+03 E0= -.41317466E+03  EK= 0.32969E+00 SP= 0.00E+00 SK= 0.00E+00
       N       E                     dE             d eps       ncg     rms          rms(c)
RMM:   1    -0.413202604313E+03   -0.66402E-02   -0.11737E+01  4298   0.101E+00    0.941E-01
RMM:   2    -0.413199907335E+03    0.26970E-02   -0.15756E-01  4254   0.130E-01    0.663E-01
RMM:   3    -0.413198288620E+03    0.16187E-02   -0.83342E-03  4747   0.495E-02    0.185E-01
RMM:   4    -0.413228043424E+03   -0.29755E-01   -0.30105E-02  5164   0.146E-01    0.719E-01
RMM:   5    -0.413197984348E+03    0.30059E-01   -0.15250E-02  4801   0.120E-01    0.426E-02
RMM:   6    -0.413198022151E+03   -0.37803E-04   -0.23768E-03  5849   0.463E-02    0.255E-02
RMM:   7    -0.413198028587E+03   -0.64357E-05   -0.27660E-04  5750   0.151E-02    0.143E-02
RMM:   8    -0.413198019348E+03    0.92395E-05   -0.50636E-05  4992   0.716E-03    0.894E-03
RMM:   9    -0.413198015084E+03    0.42640E-05   -0.16463E-05  4313   0.452E-03    0.616E-03
RMM:  10    -0.413198008059E+03    0.70242E-05   -0.22185E-06  2595   0.238E-03    0.362E-03
RMM:  11    -0.413198002707E+03    0.53527E-05   -0.13080E-06  2499   0.183E-03    0.210E-03
RMM:  12    -0.413197992420E+03    0.10286E-04   -0.12127E-06  2484   0.188E-03    0.878E-04
RMM:  13    -0.413197988959E+03    0.34616E-05   -0.42698E-07  2283   0.119E-03    0.582E-04
RMM:  14    -0.413197988534E+03    0.42437E-06   -0.18011E-07  1691   0.788E-04
   36 T=    68. E= -.41286601E+03 F= -.41319799E+03 E0= -.41317673E+03  EK= 0.33198E+00 SP= 0.00E+00 SK= 0.00E+00
       N       E                     dE             d eps       ncg     rms          rms(c)
RMM:   1    -0.413200578727E+03   -0.25898E-02   -0.11744E+01  4305   0.103E+00    0.924E-01
RMM:   2    -0.413203628866E+03   -0.30501E-02   -0.15734E-01  4257   0.137E-01    0.673E-01
RMM:   3    -0.413201323358E+03    0.23055E-02   -0.81757E-03  4659   0.534E-02    0.172E-01
RMM:   4    -0.413225205745E+03   -0.23882E-01   -0.24168E-02  5156   0.131E-01    0.647E-01
RMM:   5    -0.413201065674E+03    0.24140E-01   -0.12227E-02  4802   0.108E-01    0.398E-02
RMM:   6    -0.413201086104E+03   -0.20429E-04   -0.19554E-03  5843   0.417E-02    0.244E-02
RMM:   7    -0.413201095737E+03   -0.96339E-05   -0.26207E-04  5755   0.145E-02    0.147E-02
RMM:   8    -0.413201085850E+03    0.98876E-05   -0.51088E-05  5002   0.736E-03    0.812E-03
RMM:   9    -0.413201082592E+03    0.32575E-05   -0.11529E-05  3882   0.406E-03    0.499E-03
RMM:  10    -0.413201078103E+03    0.44896E-05   -0.18144E-06  2566   0.208E-03    0.313E-03
RMM:  11    -0.413201073624E+03    0.44788E-05   -0.11018E-06  2495   0.167E-03    0.162E-03
RMM:  12    -0.413201067429E+03    0.61946E-05   -0.88330E-07  2439   0.152E-03    0.645E-04
RMM:  13    -0.413201065431E+03    0.19981E-05   -0.33268E-07  2088   0.101E-03    0.423E-04
RMM:  14    -0.413201064709E+03    0.72207E-06   -0.15649E-07  1443   0.729E-04
   37 T=    68. E= -.41286637E+03 F= -.41320106E+03 E0= -.41317985E+03  EK= 0.33470E+00 SP= 0.00E+00 SK= 0.00E+00
       N       E                     dE             d eps       ncg     rms          rms(c)
RMM:   1    -0.413197680591E+03    0.33848E-02   -0.11817E+01  4308   0.101E+00    0.944E-01
RMM:   2    -0.413206261663E+03   -0.85811E-02   -0.15603E-01  4258   0.129E-01    0.678E-01
RMM:   3    -0.413203789088E+03    0.24726E-02   -0.85928E-03  4762   0.526E-02    0.180E-01
RMM:   4    -0.413236776788E+03   -0.32988E-01   -0.33510E-02  5153   0.153E-01    0.757E-01
RMM:   5    -0.413203385238E+03    0.33392E-01   -0.16986E-02  4806   0.126E-01    0.439E-02
RMM:   6    -0.413203434262E+03   -0.49024E-04   -0.26006E-03  5837   0.484E-02    0.260E-02
RMM:   7    -0.413203445863E+03   -0.11600E-04   -0.32131E-04  5801   0.160E-02    0.156E-02
RMM:   8    -0.413203436364E+03    0.94990E-05   -0.59407E-05  5062   0.773E-03    0.935E-03
RMM:   9    -0.413203432036E+03    0.43273E-05   -0.16747E-05  4319   0.462E-03    0.579E-03
RMM:  10    -0.413203426096E+03    0.59401E-05   -0.24436E-06  2617   0.234E-03    0.351E-03
RMM:  11    -0.413203421352E+03    0.47442E-05   -0.12770E-06  2498   0.180E-03    0.197E-03
RMM:  12    -0.413203412982E+03    0.83704E-05   -0.10949E-06  2482   0.175E-03    0.776E-04
RMM:  13    -0.413203409828E+03    0.31534E-05   -0.41227E-07  2274   0.115E-03    0.544E-04
RMM:  14    -0.413203409413E+03    0.41478E-06   -0.18268E-07  1666   0.778E-04
   38 T=    69. E= -.41286621E+03 F= -.41320341E+03 E0= -.41318223E+03  EK= 0.33720E+00 SP= 0.00E+00 SK= 0.00E+00
       N       E                     dE             d eps       ncg     rms          rms(c)
RMM:   1    -0.413216999775E+03   -0.13590E-01   -0.12019E+01  4305   0.112E+00    0.957E-01
RMM:   2    -0.413208177213E+03    0.88226E-02   -0.16587E-01  4259   0.128E-01    0.673E-01
RMM:   3    -0.413206683966E+03    0.14932E-02   -0.89650E-03  4980   0.543E-02    0.217E-01
RMM:   4    -0.413256975994E+03   -0.50292E-01   -0.53685E-02  5144   0.193E-01    0.930E-01
RMM:   5    -0.413205705375E+03    0.51271E-01   -0.25536E-02  4787   0.157E-01    0.535E-02
RMM:   6    -0.413205838796E+03   -0.13342E-03   -0.40934E-03  5821   0.600E-02    0.295E-02
RMM:   7    -0.413205854600E+03   -0.15803E-04   -0.44323E-04  5789   0.183E-02    0.173E-02
RMM:   8    -0.413205849406E+03    0.51934E-05   -0.69699E-05  5096   0.777E-03    0.105E-02
RMM:   9    -0.413205839551E+03    0.98555E-05   -0.23846E-05  4572   0.509E-03    0.680E-03
RMM:  10    -0.413205832668E+03    0.68829E-05   -0.46293E-06  2847   0.297E-03    0.387E-03
RMM:  11    -0.413205826231E+03    0.64366E-05   -0.18568E-06  2532   0.218E-03    0.227E-03
RMM:  12    -0.413205815325E+03    0.10906E-04   -0.11798E-06  2487   0.189E-03    0.682E-04
RMM:  13    -0.413205811048E+03    0.42777E-05   -0.48003E-07  2355   0.125E-03    0.546E-04
RMM:  14    -0.413205809641E+03    0.14068E-05   -0.21206E-07  1908   0.845E-04    0.344E-04
RMM:  15    -0.413205804322E+03    0.53186E-05   -0.12251E-07  1448   0.719E-04    0.167E-04
RMM:  16    -0.413205801553E+03    0.27691E-05   -0.68571E-08  1084   0.628E-04    0.117E-04
RMM:  17    -0.413205798515E+03    0.30380E-05   -0.53386E-08  1073   0.615E-04    0.877E-05
RMM:  18    -0.413205794356E+03    0.41597E-05   -0.55338E-08  1235   0.629E-04    0.819E-05
RMM:  19    -0.413205792691E+03    0.16648E-05   -0.30512E-08   968   0.563E-04    0.614E-05
RMM:  20    -0.413205791939E+03    0.75145E-06   -0.19175E-08   826   0.534E-04
   39 T=    69. E= -.41286607E+03 F= -.41320579E+03 E0= -.41318465E+03  EK= 0.33972E+00 SP= 0.00E+00 SK= 0.00E+00
       N       E                     dE             d eps       ncg     rms          rms(c)
RMM:   1    -0.413205132529E+03    0.66016E-03   -0.11879E+01  4311   0.110E+00    0.935E-01
RMM:   2    -0.413211546570E+03   -0.64140E-02   -0.16075E-01  4261   0.130E-01    0.677E-01
RMM:   3    -0.413209989103E+03    0.15575E-02   -0.91139E-03  5016   0.574E-02    0.226E-01
RMM:   4    -0.413263212524E+03   -0.53223E-01   -0.59184E-02  5134   0.202E-01    0.958E-01
RMM:   5    -0.413208551236E+03    0.54661E-01   -0.26781E-02  4782   0.161E-01    0.550E-02
RMM:   6    -0.413208702111E+03   -0.15087E-03   -0.42888E-03  5812   0.616E-02    0.292E-02
RMM:   7    -0.413208721285E+03   -0.19174E-04   -0.48751E-04  5880   0.190E-02    0.189E-02
RMM:   8    -0.413208721938E+03   -0.65328E-06   -0.97133E-05  5245   0.922E-03    0.126E-02
RMM:   9    -0.413208710300E+03    0.11638E-04   -0.23737E-05  4559   0.546E-03    0.618E-03
RMM:  10    -0.413208705654E+03    0.46462E-05   -0.46721E-06  2803   0.285E-03    0.365E-03
RMM:  11    -0.413208701939E+03    0.37156E-05   -0.15881E-06  2503   0.205E-03    0.210E-03
RMM:  12    -0.413208695975E+03    0.59635E-05   -0.10375E-06  2482   0.174E-03    0.660E-04
RMM:  13    -0.413208693049E+03    0.29264E-05   -0.46163E-07  2326   0.120E-03    0.421E-04
RMM:  14    -0.413208691788E+03    0.12604E-05   -0.21830E-07  1836   0.839E-04    0.278E-04
RMM:  15    -0.413208688084E+03    0.37044E-05   -0.13813E-07  1400   0.726E-04    0.167E-04
RMM:  16    -0.413208686711E+03    0.13727E-05   -0.75410E-08  1068   0.633E-04    0.100E-04
RMM:  17    -0.413208684845E+03    0.18661E-05   -0.58746E-08  1038   0.617E-04    0.666E-05
RMM:  18    -0.413208682271E+03    0.25739E-05   -0.49947E-08  1053   0.619E-04    0.369E-05
RMM:  19    -0.413208680704E+03    0.15669E-05   -0.35583E-08   967   0.590E-04    0.283E-05
RMM:  20    -0.413208679937E+03    0.76686E-06   -0.19823E-08   805   0.563E-04
   40 T=    70. E= -.41286632E+03 F= -.41320868E+03 E0= -.41318758E+03  EK= 0.34236E+00 SP= 0.00E+00 SK= 0.00E+00
       N       E                     dE             d eps       ncg     rms          rms(c)
RMM:   1    -0.413223942587E+03   -0.15262E-01   -0.12183E+01  4307   0.126E+00    0.946E-01
RMM:   2    -0.413213320248E+03    0.10622E-01   -0.18000E-01  4266   0.142E-01    0.690E-01
RMM:   3    -0.413212351713E+03    0.96854E-03   -0.94347E-03  5047   0.612E-02    0.263E-01
RMM:   4    -0.413268315043E+03   -0.55963E-01   -0.64917E-02  5126   0.212E-01    0.987E-01
RMM:   5    -0.413210307038E+03    0.58008E-01   -0.28073E-02  4774   0.167E-01    0.585E-02
RMM:   6    -0.413210462641E+03   -0.15560E-03   -0.44626E-03  5809   0.632E-02    0.296E-02
RMM:   7    -0.413210483781E+03   -0.21140E-04   -0.52170E-04  5917   0.197E-02    0.203E-02
RMM:   8    -0.413210483827E+03   -0.45809E-07   -0.10672E-04  5285   0.980E-03    0.127E-02
RMM:   9    -0.413210471975E+03    0.11852E-04   -0.22809E-05  4506   0.549E-03    0.547E-03
RMM:  10    -0.413210467722E+03    0.42535E-05   -0.51942E-06  2870   0.284E-03    0.333E-03
RMM:  11    -0.413210464157E+03    0.35645E-05   -0.14221E-06  2504   0.194E-03    0.186E-03
RMM:  12    -0.413210458990E+03    0.51668E-05   -0.82028E-07  2467   0.155E-03    0.631E-04
RMM:  13    -0.413210456184E+03    0.28064E-05   -0.39963E-07  2251   0.109E-03    0.320E-04
RMM:  14    -0.413210454292E+03    0.18916E-05   -0.20784E-07  1726   0.811E-04    0.216E-04
RMM:  15    -0.413210451057E+03    0.32352E-05   -0.13369E-07  1309   0.703E-04    0.108E-04
RMM:  16    -0.413210449592E+03    0.14651E-05   -0.80220E-08  1100   0.641E-04    0.674E-05
RMM:  17    -0.413210447680E+03    0.19119E-05   -0.63646E-08  1086   0.630E-04    0.547E-05
RMM:  18    -0.413210445497E+03    0.21827E-05   -0.51839E-08  1067   0.619E-04    0.273E-05
RMM:  19    -0.413210444230E+03    0.12670E-05   -0.33203E-08   930   0.588E-04    0.251E-05
RMM:  20    -0.413210443696E+03    0.53406E-06   -0.19861E-08   800   0.565E-04
   41 T=    70. E= -.41286592E+03 F= -.41321044E+03 E0= -.41318938E+03  EK= 0.34452E+00 SP= 0.00E+00 SK= 0.00E+00
       N       E                     dE             d eps       ncg     rms          rms(c)
RMM:   1    -0.413232315117E+03   -0.21871E-01   -0.12287E+01  4310   0.130E+00    0.971E-01
RMM:   2    -0.413215118841E+03    0.17196E-01   -0.17129E-01  4282   0.143E-01    0.682E-01
RMM:   3    -0.413216426010E+03   -0.13072E-02   -0.11531E-02  5092   0.725E-02    0.312E-01
RMM:   4    -0.413254218763E+03   -0.37793E-01   -0.53139E-02  5098   0.194E-01    0.842E-01
RMM:   5    -0.413212852719E+03    0.41366E-01   -0.18765E-02  4741   0.141E-01    0.563E-02
RMM:   6    -0.413212920382E+03   -0.67664E-04   -0.31436E-03  5761   0.532E-02    0.292E-02
RMM:   7    -0.413212928418E+03   -0.80357E-05   -0.40127E-04  5838   0.178E-02    0.200E-02
RMM:   8    -0.413212923869E+03    0.45491E-05   -0.96238E-05  5201   0.966E-03    0.113E-02
RMM:   9    -0.413212909843E+03    0.14026E-04   -0.18868E-05  4340   0.526E-03    0.442E-03
RMM:  10    -0.413212904171E+03    0.56721E-05   -0.39023E-06  2758   0.254E-03    0.274E-03
RMM:  11    -0.413212897853E+03    0.63184E-05   -0.12038E-06  2500   0.180E-03    0.146E-03
RMM:  12    -0.413212890356E+03    0.74966E-05   -0.61698E-07  2423   0.138E-03    0.546E-04
RMM:  13    -0.413212886178E+03    0.41784E-05   -0.30741E-07  1994   0.962E-04    0.262E-04
RMM:  14    -0.413212882761E+03    0.34173E-05   -0.17031E-07  1464   0.759E-04    0.155E-04
RMM:  15    -0.413212876733E+03    0.60277E-05   -0.13201E-07  1369   0.723E-04    0.115E-04
RMM:  16    -0.413212874477E+03    0.22562E-05   -0.84909E-08  1218   0.658E-04    0.759E-05
RMM:  17    -0.413212870523E+03    0.39537E-05   -0.76592E-08  1329   0.652E-04    0.661E-05
RMM:  18    -0.413212867826E+03    0.26972E-05   -0.51541E-08  1111   0.593E-04    0.407E-05
RMM:  19    -0.413212867123E+03    0.70251E-06   -0.28471E-08   843   0.543E-04
   42 T=    71. E= -.41286610E+03 F= -.41321287E+03 E0= -.41319183E+03  EK= 0.34677E+00 SP= 0.00E+00 SK= 0.00E+00
       N       E                     dE             d eps       ncg     rms          rms(c)
RMM:   1    -0.413216591501E+03   -0.37237E-02   -0.12058E+01  4311   0.130E+00    0.947E-01
RMM:   2    -0.413217049551E+03   -0.45805E-03   -0.16711E-01  4286   0.150E-01    0.682E-01
RMM:   3    -0.413219374985E+03   -0.23254E-02   -0.12233E-02  5094   0.801E-02    0.340E-01
RMM:   4    -0.413252273966E+03   -0.32899E-01   -0.51441E-02  5081   0.191E-01    0.803E-01
RMM:   5    -0.413214769172E+03    0.37505E-01   -0.16500E-02  4716   0.134E-01    0.552E-02
RMM:   6    -0.413214808654E+03   -0.39482E-04   -0.28036E-03  5756   0.503E-02    0.282E-02
RMM:   7    -0.413214814453E+03   -0.57987E-05   -0.36348E-04  5826   0.171E-02    0.197E-02
RMM:   8    -0.413214810343E+03    0.41094E-05   -0.89249E-05  5160   0.941E-03    0.106E-02
RMM:   9    -0.413214798398E+03    0.11945E-04   -0.18010E-05  4268   0.517E-03    0.405E-03
RMM:  10    -0.413214794415E+03    0.39832E-05   -0.35077E-06  2735   0.243E-03    0.247E-03
RMM:  11    -0.413214789413E+03    0.50014E-05   -0.12296E-06  2500   0.178E-03    0.131E-03
RMM:  12    -0.413214784281E+03    0.51323E-05   -0.58874E-07  2404   0.133E-03    0.537E-04
RMM:  13    -0.413214781272E+03    0.30086E-05   -0.29597E-07  1862   0.923E-04    0.247E-04
RMM:  14    -0.413214778452E+03    0.28200E-05   -0.17601E-07  1428   0.753E-04    0.138E-04
RMM:  15    -0.413214773825E+03    0.46271E-05   -0.14164E-07  1304   0.719E-04    0.103E-04
RMM:  16    -0.413214772257E+03    0.15683E-05   -0.86470E-08  1147   0.652E-04    0.727E-05
RMM:  17    -0.413214768950E+03    0.33071E-05   -0.78713E-08  1248   0.651E-04    0.591E-05
RMM:  18    -0.413214766741E+03    0.22087E-05   -0.54767E-08  1103   0.601E-04    0.426E-05
RMM:  19    -0.413214766133E+03    0.60786E-06   -0.28929E-08   824   0.549E-04
   43 T=    71. E= -.41286615E+03 F= -.41321477E+03 E0= -.41319376E+03  EK= 0.34862E+00 SP= 0.00E+00 SK= 0.00E+00
       N       E                     dE             d eps       ncg     rms          rms(c)
RMM:   1    -0.413249001536E+03   -0.34235E-01   -0.12480E+01  4312   0.150E+00    0.946E-01
RMM:   2    -0.413218451776E+03    0.30550E-01   -0.20788E-01  4284   0.175E-01    0.700E-01
RMM:   3    -0.413221453490E+03   -0.30017E-02   -0.12418E-02  5094   0.874E-02    0.396E-01
RMM:   4    -0.413253964195E+03   -0.32511E-01   -0.54499E-02  5069   0.198E-01    0.817E-01
RMM:   5    -0.413215769631E+03    0.38195E-01   -0.17082E-02  4708   0.138E-01    0.598E-02
RMM:   6    -0.413215787459E+03   -0.17829E-04   -0.28121E-03  5714   0.509E-02    0.290E-02
RMM:   7    -0.413215793783E+03   -0.63239E-05   -0.37004E-04  5887   0.174E-02    0.208E-02
RMM:   8    -0.413215788954E+03    0.48290E-05   -0.89371E-05  5201   0.942E-03    0.108E-02
RMM:   9    -0.413215777882E+03    0.11073E-04   -0.21035E-05  4370   0.554E-03    0.419E-03
RMM:  10    -0.413215775071E+03    0.28108E-05   -0.37770E-06  2750   0.247E-03    0.244E-03
RMM:  11    -0.413215771242E+03    0.38287E-05   -0.17117E-06  2545   0.197E-03    0.142E-03
RMM:  12    -0.413215768127E+03    0.31153E-05   -0.61557E-07  2454   0.139E-03    0.646E-04
RMM:  13    -0.413215765711E+03    0.24155E-05   -0.32221E-07  1760   0.928E-04    0.299E-04
RMM:  14    -0.413215763347E+03    0.23640E-05   -0.20897E-07  1434   0.786E-04    0.155E-04
RMM:  15    -0.413215760627E+03    0.27203E-05   -0.15703E-07  1334   0.727E-04    0.919E-05
RMM:  16    -0.413215758645E+03    0.19824E-05   -0.11059E-07  1253   0.672E-04    0.635E-05
RMM:  17    -0.413215756882E+03    0.17628E-05   -0.80137E-08  1160   0.628E-04    0.466E-05
RMM:  18    -0.413215754530E+03    0.23514E-05   -0.65844E-08  1106   0.603E-04    0.384E-05
RMM:  19    -0.413215754127E+03    0.40305E-06   -0.33369E-08   818   0.547E-04
   44 T=    71. E= -.41286589E+03 F= -.41321575E+03 E0= -.41319478E+03  EK= 0.34987E+00 SP= 0.00E+00 SK= 0.00E+00
       N       E                     dE             d eps       ncg     rms          rms(c)
RMM:   1    -0.413228025218E+03   -0.12271E-01   -0.12270E+01  4310   0.149E+00    0.976E-01
RMM:   2    -0.413219004037E+03    0.90212E-02   -0.17263E-01  4325   0.176E-01    0.690E-01
RMM:   3    -0.413228287456E+03   -0.92834E-02   -0.18684E-02  5130   0.111E-01    0.487E-01
RMM:   4    -0.413236614868E+03   -0.83274E-02   -0.40871E-02  5025   0.175E-01    0.593E-01
RMM:   5    -0.413217204893E+03    0.19410E-01   -0.73581E-03  4600   0.101E-01    0.509E-02
RMM:   6    -0.413217171534E+03    0.33359E-04   -0.14286E-03  5511   0.365E-02    0.268E-02
RMM:   7    -0.413217167584E+03    0.39499E-05   -0.20856E-04  5636   0.140E-02    0.186E-02
RMM:   8    -0.413217158816E+03    0.87677E-05   -0.85925E-05  5079   0.948E-03    0.902E-03
RMM:   9    -0.413217144605E+03    0.14211E-04   -0.14281E-05  4142   0.505E-03    0.364E-03
RMM:  10    -0.413217140700E+03    0.39052E-05   -0.22687E-06  2641   0.211E-03    0.207E-03
RMM:  11    -0.413217133394E+03    0.73055E-05   -0.11252E-06  2485   0.171E-03    0.118E-03
RMM:  12    -0.413217127650E+03    0.57445E-05   -0.48995E-07  2404   0.124E-03    0.566E-04
RMM:  13    -0.413217123979E+03    0.36712E-05   -0.22724E-07  1673   0.826E-04    0.276E-04
RMM:  14    -0.413217120314E+03    0.36643E-05   -0.13174E-07  1241   0.687E-04    0.143E-04
RMM:  15    -0.413217114969E+03    0.53455E-05   -0.11443E-07  1254   0.679E-04    0.116E-04
RMM:  16    -0.413217112580E+03    0.23884E-05   -0.68742E-08  1075   0.614E-04    0.103E-04
RMM:  17    -0.413217109228E+03    0.33526E-05   -0.59249E-08  1129   0.605E-04    0.555E-05
RMM:  18    -0.413217105783E+03    0.34444E-05   -0.52342E-08  1139   0.594E-04    0.516E-05
RMM:  19    -0.413217105354E+03    0.42989E-06   -0.21079E-08   733   0.515E-04
   45 T=    71. E= -.41286624E+03 F= -.41321711E+03 E0= -.41319615E+03  EK= 0.35087E+00 SP= 0.00E+00 SK= 0.00E+00
       N       E                     dE             d eps       ncg     rms          rms(c)
RMM:   1    -0.413237080568E+03   -0.19975E-01   -0.12247E+01  4309   0.161E+00    0.958E-01
RMM:   2    -0.413218818301E+03    0.18262E-01   -0.18084E-01  4337   0.187E-01    0.686E-01
RMM:   3    -0.413230487086E+03   -0.11669E-01   -0.20422E-02  5127   0.120E-01    0.535E-01
RMM:   4    -0.413233466113E+03   -0.29790E-02   -0.40010E-02  5014   0.175E-01    0.554E-01
RMM:   5    -0.413216997156E+03    0.16469E-01   -0.62799E-03  4569   0.967E-02    0.509E-02
RMM:   6    -0.413216945667E+03    0.51489E-04   -0.11617E-03  5340   0.337E-02    0.263E-02
RMM:   7    -0.413216941073E+03    0.45935E-05   -0.17126E-04  5629   0.128E-02    0.177E-02
RMM:   8    -0.413216934864E+03    0.62093E-05   -0.95459E-05  5129   0.986E-03    0.974E-03
RMM:   9    -0.413216920127E+03    0.14737E-04   -0.16775E-05  4322   0.543E-03    0.382E-03
RMM:  10    -0.413216917052E+03    0.30744E-05   -0.26374E-06  2686   0.218E-03    0.216E-03
RMM:  11    -0.413216910719E+03    0.63328E-05   -0.12807E-06  2490   0.180E-03    0.124E-03
RMM:  12    -0.413216906195E+03    0.45249E-05   -0.51430E-07  2411   0.128E-03    0.652E-04
RMM:  13    -0.413216902592E+03    0.36025E-05   -0.23580E-07  1714   0.857E-04    0.318E-04
RMM:  14    -0.413216899137E+03    0.34555E-05   -0.12851E-07  1271   0.690E-04    0.161E-04
RMM:  15    -0.413216894889E+03    0.42476E-05   -0.10131E-07  1180   0.660E-04    0.110E-04
RMM:  16    -0.413216892623E+03    0.22659E-05   -0.61006E-08   998   0.604E-04    0.985E-05
RMM:  17    -0.413216889815E+03    0.28083E-05   -0.50401E-08  1026   0.595E-04    0.572E-05
RMM:  18    -0.413216886659E+03    0.31561E-05   -0.49889E-08  1075   0.590E-04    0.427E-05
RMM:  19    -0.413216886191E+03    0.46781E-06   -0.17792E-08   694   0.513E-04
   46 T=    71. E= -.41286611E+03 F= -.41321689E+03 E0= -.41319595E+03  EK= 0.35078E+00 SP= 0.00E+00 SK= 0.00E+00
       N       E                     dE             d eps       ncg     rms          rms(c)
RMM:   1    -0.413240158390E+03   -0.23272E-01   -0.12293E+01  4310   0.170E+00    0.945E-01
RMM:   2    -0.413218471072E+03    0.21687E-01   -0.19514E-01  4334   0.206E-01    0.700E-01
RMM:   3    -0.413230281620E+03   -0.11811E-01   -0.20676E-02  5133   0.125E-01    0.554E-01
RMM:   4    -0.413234065791E+03   -0.37842E-02   -0.42783E-02  5006   0.181E-01    0.579E-01
RMM:   5    -0.413216018953E+03    0.18047E-01   -0.70863E-03  4576   0.102E-01    0.537E-02
RMM:   6    -0.413215956394E+03    0.62559E-04   -0.12624E-03  5349   0.355E-02    0.271E-02
RMM:   7    -0.413215951543E+03    0.48513E-05   -0.18712E-04  5672   0.133E-02    0.191E-02
RMM:   8    -0.413215944056E+03    0.74862E-05   -0.95663E-05  5155   0.986E-03    0.994E-03
RMM:   9    -0.413215930468E+03    0.13588E-04   -0.18240E-05  4339   0.562E-03    0.394E-03
RMM:  10    -0.413215928212E+03    0.22562E-05   -0.28119E-06  2697   0.223E-03    0.224E-03
RMM:  11    -0.413215923940E+03    0.42726E-05   -0.14701E-06  2512   0.188E-03    0.136E-03
RMM:  12    -0.413215920928E+03    0.30115E-05   -0.55142E-07  2424   0.133E-03    0.687E-04
RMM:  13    -0.413215918232E+03    0.26966E-05   -0.27462E-07  1769   0.902E-04    0.320E-04
RMM:  14    -0.413215915802E+03    0.24300E-05   -0.16139E-07  1385   0.733E-04    0.171E-04
RMM:  15    -0.413215912850E+03    0.29511E-05   -0.12750E-07  1277   0.687E-04    0.110E-04
RMM:  16    -0.413215911125E+03    0.17255E-05   -0.78722E-08  1086   0.614E-04    0.941E-05
RMM:  17    -0.413215909203E+03    0.19217E-05   -0.60775E-08  1021   0.592E-04    0.520E-05
RMM:  18    -0.413215907180E+03    0.20228E-05   -0.52374E-08  1006   0.584E-04    0.406E-05
RMM:  19    -0.413215906822E+03    0.35880E-06   -0.22521E-08   711   0.525E-04
   47 T=    71. E= -.41286617E+03 F= -.41321591E+03 E0= -.41319499E+03  EK= 0.34974E+00 SP= 0.00E+00 SK= 0.00E+00
       N       E                     dE             d eps       ncg     rms          rms(c)
RMM:   1    -0.413261900709E+03   -0.45994E-01   -0.12458E+01  4306   0.189E+00    0.969E-01
RMM:   2    -0.413216064011E+03    0.45837E-01   -0.20412E-01  4410   0.211E-01    0.695E-01
RMM:   3    -0.413235028774E+03   -0.18965E-01   -0.26896E-02  5145   0.145E-01    0.658E-01
RMM:   4    -0.413225087056E+03    0.99417E-02   -0.39086E-02  4972   0.177E-01    0.475E-01
RMM:   5    -0.413214162861E+03    0.10924E-01   -0.50042E-03  4525   0.913E-02    0.558E-02
RMM:   6    -0.413214038089E+03    0.12477E-03   -0.60126E-04  4852   0.291E-02    0.277E-02
RMM:   7    -0.413214030449E+03    0.76398E-05   -0.17202E-04  5948   0.131E-02    0.154E-02
RMM:   8    -0.413214022152E+03    0.82974E-05   -0.94343E-05  5189   0.105E-02    0.125E-02
RMM:   9    -0.413214008724E+03    0.13428E-04   -0.19740E-05  4442   0.557E-03    0.476E-03
RMM:  10    -0.413214004788E+03    0.39365E-05   -0.34767E-06  2750   0.279E-03    0.229E-03
RMM:  11    -0.413213999467E+03    0.53207E-05   -0.21898E-06  2537   0.233E-03    0.155E-03
RMM:  12    -0.413213994726E+03    0.47412E-05   -0.82661E-07  2419   0.164E-03    0.919E-04
RMM:  13    -0.413213991066E+03    0.36601E-05   -0.35850E-07  2188   0.105E-03    0.579E-04
RMM:  14    -0.413213985793E+03    0.52726E-05   -0.21031E-07  1778   0.821E-04    0.320E-04
RMM:  15    -0.413213981679E+03    0.41137E-05   -0.12598E-07  1294   0.662E-04    0.195E-04
RMM:  16    -0.413213979675E+03    0.20044E-05   -0.72435E-08   994   0.577E-04    0.100E-04
RMM:  17    -0.413213976648E+03    0.30272E-05   -0.63433E-08  1002   0.587E-04    0.726E-05
RMM:  18    -0.413213975050E+03    0.15974E-05   -0.37596E-08   860   0.562E-04    0.556E-05
RMM:  19    -0.413213974405E+03    0.64546E-06   -0.20875E-08   725   0.536E-04
   48 T=    71. E= -.41286652E+03 F= -.41321397E+03 E0= -.41319307E+03  EK= 0.34746E+00 SP= 0.00E+00 SK= 0.00E+00
       N       E                     dE             d eps       ncg     rms          rms(c)
RMM:   1    -0.413260279069E+03   -0.46304E-01   -0.12260E+01  4306   0.201E+00    0.959E-01
RMM:   2    -0.413211339980E+03    0.48939E-01   -0.19811E-01  4446   0.221E-01    0.684E-01
RMM:   3    -0.413236553908E+03   -0.25214E-01   -0.32446E-02  5157   0.160E-01    0.734E-01
RMM:   4    -0.413217099067E+03    0.19455E-01   -0.38273E-02  4950   0.177E-01    0.410E-01
RMM:   5    -0.413209580179E+03    0.75189E-02   -0.46620E-03  4629   0.901E-02    0.633E-02
RMM:   6    -0.413209382474E+03    0.19771E-03   -0.46991E-04  4665   0.295E-02    0.308E-02
RMM:   7    -0.413209381853E+03    0.62042E-06   -0.20071E-04  5784   0.149E-02    0.216E-02
RMM:   8    -0.413209355649E+03    0.26204E-04   -0.69365E-05  5006   0.931E-03    0.896E-03
RMM:   9    -0.413209345219E+03    0.10430E-04   -0.13934E-05  3930   0.466E-03    0.428E-03
RMM:  10    -0.413209340199E+03    0.50200E-05   -0.20640E-06  2589   0.226E-03    0.243E-03
RMM:  11    -0.413209333353E+03    0.68464E-05   -0.10351E-06  2490   0.166E-03    0.158E-03
RMM:  12    -0.413209329486E+03    0.38662E-05   -0.37980E-07  2344   0.111E-03    0.775E-04
RMM:  13    -0.413209323933E+03    0.55537E-05   -0.29276E-07  1757   0.892E-04    0.373E-04
RMM:  14    -0.413209319126E+03    0.48067E-05   -0.21844E-07  1767   0.789E-04    0.398E-04
RMM:  15    -0.413209315323E+03    0.38025E-05   -0.12779E-07  1152   0.644E-04    0.179E-04
RMM:  16    -0.413209312548E+03    0.27753E-05   -0.91179E-08  1170   0.624E-04    0.101E-04
RMM:  17    -0.413209310444E+03    0.21044E-05   -0.60371E-08  1031   0.587E-04    0.634E-05
RMM:  18    -0.413209308432E+03    0.20120E-05   -0.48820E-08  1008   0.580E-04    0.643E-05
RMM:  19    -0.413209307363E+03    0.10688E-05   -0.31653E-08   891   0.552E-04    0.451E-05
RMM:  20    -0.413209306785E+03    0.57784E-06   -0.21823E-08   793   0.534E-04
   49 T=    70. E= -.41286616E+03 F= -.41320931E+03 E0= -.41318841E+03  EK= 0.34315E+00 SP= 0.00E+00 SK= 0.00E+00
       N       E                     dE             d eps       ncg     rms          rms(c)
RMM:   1    -0.413230597662E+03   -0.21290E-01   -0.11819E+01  4306   0.200E+00    0.928E-01
RMM:   2    -0.413206099792E+03    0.24498E-01   -0.19715E-01  4473   0.229E-01    0.689E-01
RMM:   3    -0.413230261565E+03   -0.24162E-01   -0.31439E-02  5158   0.160E-01    0.731E-01
RMM:   4    -0.413212118549E+03    0.18143E-01   -0.39351E-02  4953   0.180E-01    0.424E-01
RMM:   5    -0.413203760005E+03    0.83585E-02   -0.51172E-03  4633   0.939E-02    0.659E-02
RMM:   6    -0.413203542342E+03    0.21766E-03   -0.51283E-04  4687   0.307E-02    0.313E-02
RMM:   7    -0.413203542803E+03   -0.46040E-06   -0.21204E-04  5806   0.152E-02    0.216E-02
RMM:   8    -0.413203518039E+03    0.24764E-04   -0.72244E-05  5061   0.934E-03    0.944E-03
RMM:   9    -0.413203509486E+03    0.85525E-05   -0.15572E-05  4111   0.494E-03    0.440E-03
RMM:  10    -0.413203505469E+03    0.40175E-05   -0.23606E-06  2607   0.237E-03    0.251E-03
RMM:  11    -0.413203500658E+03    0.48108E-05   -0.11203E-06  2495   0.174E-03    0.166E-03
RMM:  12    -0.413203497821E+03    0.28367E-05   -0.41620E-07  2393   0.117E-03    0.835E-04
RMM:  13    -0.413203493941E+03    0.38809E-05   -0.33115E-07  1863   0.928E-04    0.409E-04
RMM:  14    -0.413203490526E+03    0.34141E-05   -0.25113E-07  1775   0.808E-04    0.410E-04
RMM:  15    -0.413203487942E+03    0.25843E-05   -0.15243E-07  1211   0.665E-04    0.170E-04
RMM:  16    -0.413203486219E+03    0.17229E-05   -0.10541E-07  1166   0.630E-04    0.105E-04
RMM:  17    -0.413203485007E+03    0.12124E-05   -0.68746E-08  1059   0.593E-04    0.710E-05
RMM:  18    -0.413203483995E+03    0.10114E-05   -0.57030E-08  1053   0.580E-04    0.642E-05
RMM:  19    -0.413203483422E+03    0.57339E-06   -0.33721E-08   855   0.547E-04
   50 T=    69. E= -.41286648E+03 F= -.41320348E+03 E0= -.41318260E+03  EK= 0.33701E+00 SP= 0.00E+00 SK= 0.00E+00
       N       E                     dE             d eps       ncg     rms          rms(c)
RMM:   1    -0.413231507172E+03   -0.28023E-01   -0.11664E+01  4301   0.217E+00    0.938E-01
RMM:   2    -0.413197156042E+03    0.34351E-01   -0.19814E-01  4538   0.243E-01    0.683E-01
RMM:   3    -0.413229433219E+03   -0.32277E-01   -0.39160E-02  5170   0.180E-01    0.824E-01
[...]
       N       E                     dE             d eps       ncg     rms          rms(c)
RMM:   1    -0.413427235152E+03   -0.27743E-01   -0.10260E+01  4283   0.562E+00    0.876E-01
RMM:   2    -0.413388350980E+03    0.38884E-01   -0.30649E-01  5415   0.587E-01    0.753E-01
RMM:   3    -0.413417445433E+03   -0.29094E-01   -0.64375E-02  5680   0.267E-01    0.894E-01
RMM:   4    -0.413391025728E+03    0.26420E-01   -0.34676E-02  5096   0.206E-01    0.424E-01
RMM:   5    -0.413388402986E+03    0.26227E-02   -0.24863E-02  4875   0.203E-01    0.172E-01
RMM:   6    -0.413386965115E+03    0.14379E-02   -0.38801E-03  4847   0.860E-02    0.782E-02
RMM:   7    -0.413386750863E+03    0.21425E-03   -0.74816E-04  5130   0.370E-02    0.434E-02
RMM:   8    -0.413386733127E+03    0.17736E-04   -0.39527E-04  5661   0.235E-02    0.283E-02
RMM:   9    -0.413386736215E+03   -0.30879E-05   -0.12589E-04  5123   0.142E-02    0.171E-02
RMM:  10    -0.413386732840E+03    0.33749E-05   -0.35073E-05  5324   0.740E-03    0.787E-03
RMM:  11    -0.413386735231E+03   -0.23904E-05   -0.12765E-05  4158   0.429E-03    0.408E-03
RMM:  12    -0.413386737609E+03   -0.23785E-05   -0.21170E-06  2639   0.249E-03    0.199E-03
RMM:  13    -0.413386739037E+03   -0.14273E-05   -0.70485E-07  2470   0.149E-03    0.983E-04
RMM:  14    -0.413386740690E+03   -0.16538E-05   -0.48450E-07  2303   0.112E-03    0.391E-04
RMM:  15    -0.413386742101E+03   -0.14109E-05   -0.30603E-07  1688   0.879E-04    0.253E-04
RMM:  16    -0.413386743444E+03   -0.13430E-05   -0.24393E-07  1595   0.810E-04    0.151E-04
RMM:  17    -0.413386744351E+03   -0.90695E-06   -0.16947E-07  1427   0.716E-04
  139 T=   107. E= -.41285878E+03 F= -.41338674E+03 E0= -.41336621E+03  EK= 0.52796E+00 SP= 0.00E+00 SK= 0.00E+00
       N       E                     dE             d eps       ncg     rms          rms(c)
RMM:   1    -0.413666380076E+03   -0.27964E+00   -0.13400E+01  4298   0.669E+00    0.138E+00
RMM:   2    -0.413619333407E+03    0.47047E-01   -0.34555E-01  5367   0.700E-01    0.121E+00
RMM:   3    -0.413637147921E+03   -0.17815E-01   -0.12186E-01  5446   0.377E-01    0.127E+00
RMM:   4    -0.413596176444E+03    0.40971E-01   -0.80669E-02  5226   0.333E-01    0.471E-01
RMM:   5    -0.413591505303E+03    0.46711E-02   -0.49682E-02  5024   0.275E-01    0.223E-01
RMM:   6    -0.413589098815E+03    0.24065E-02   -0.11699E-02  5161   0.139E-01    0.115E-01
RMM:   7    -0.413588680217E+03    0.41860E-03   -0.12959E-03  4712   0.522E-02    0.500E-02
RMM:   8    -0.413588653243E+03    0.26974E-04   -0.37673E-04  5464   0.240E-02    0.286E-02
RMM:   9    -0.413588666254E+03   -0.13011E-04   -0.18454E-04  5460   0.167E-02    0.178E-02
RMM:  10    -0.413588667190E+03   -0.93551E-06   -0.41365E-05  5164   0.824E-03    0.801E-03
RMM:  11    -0.413588673007E+03   -0.58170E-05   -0.24537E-05  5058   0.569E-03    0.552E-03
RMM:  12    -0.413588678207E+03   -0.52006E-05   -0.46853E-06  2965   0.326E-03    0.347E-03
RMM:  13    -0.413588680470E+03   -0.22626E-05   -0.19957E-06  2629   0.221E-03    0.171E-03
RMM:  14    -0.413588682440E+03   -0.19704E-05   -0.10711E-06  2496   0.163E-03    0.670E-04
RMM:  15    -0.413588683751E+03   -0.13107E-05   -0.70076E-07  2245   0.123E-03    0.432E-04
RMM:  16    -0.413588684816E+03   -0.10651E-05   -0.58176E-07  2120   0.108E-03    0.272E-04
RMM:  17    -0.413588685149E+03   -0.33222E-06   -0.38985E-07  1758   0.873E-04
  140 T=   143. E= -.41288477E+03 F= -.41358869E+03 E0= -.41356837E+03  EK= 0.70391E+00 SP= 0.00E+00 SK= 0.00E+00
       N       E                     dE             d eps       ncg     rms          rms(c)
RMM:   1    -0.413786660536E+03   -0.19798E+00   -0.17375E+01  4298   0.771E+00    0.153E+00
RMM:   2    -0.413733626941E+03    0.53034E-01   -0.48305E-01  5382   0.864E-01    0.151E+00
RMM:   3    -0.413716930794E+03    0.16696E-01   -0.14113E-01  5491   0.418E-01    0.138E+00
RMM:   4    -0.413681615448E+03    0.35315E-01   -0.78765E-02  5241   0.334E-01    0.637E-01
RMM:   5    -0.413681806302E+03   -0.19085E-03   -0.66750E-02  5047   0.318E-01    0.347E-01
RMM:   6    -0.413676127805E+03    0.56785E-02   -0.22729E-02  4999   0.189E-01    0.146E-01
RMM:   7    -0.413675401961E+03    0.72584E-03   -0.24985E-03  4968   0.734E-02    0.675E-02
RMM:   8    -0.413675354769E+03    0.47192E-04   -0.56718E-04  5418   0.303E-02    0.446E-02
RMM:   9    -0.413675362639E+03   -0.78700E-05   -0.24750E-04  4561   0.207E-02    0.176E-02
RMM:  10    -0.413675375897E+03   -0.13257E-04   -0.76485E-05  5528   0.106E-02    0.961E-03
RMM:  11    -0.413675383008E+03   -0.71114E-05   -0.23934E-05  4893   0.590E-03    0.598E-03
RMM:  12    -0.413675391636E+03   -0.86283E-05   -0.83421E-06  3532   0.415E-03    0.389E-03
RMM:  13    -0.413675395996E+03   -0.43599E-05   -0.32848E-06  2798   0.271E-03    0.223E-03
RMM:  14    -0.413675398017E+03   -0.20206E-05   -0.18538E-06  2621   0.196E-03    0.103E-03
RMM:  15    -0.413675398641E+03   -0.62434E-06   -0.10967E-06  2480   0.148E-03
  141 T=   161. E= -.41288418E+03 F= -.41367540E+03 E0= -.41365519E+03  EK= 0.79121E+00 SP= 0.00E+00 SK= 0.00E+00
       N       E                     dE             d eps       ncg     rms          rms(c)
RMM:   1    -0.413675201387E+03    0.19663E-03   -0.16391E+01  4297   0.756E+00    0.108E+00
RMM:   2    -0.413639506053E+03    0.35695E-01   -0.44671E-01  5391   0.817E-01    0.117E+00
RMM:   3    -0.413622042915E+03    0.17463E-01   -0.94941E-02  5624   0.344E-01    0.103E+00
RMM:   4    -0.413601858202E+03    0.20185E-01   -0.30786E-02  5198   0.218E-01    0.573E-01
RMM:   5    -0.413603887464E+03   -0.20293E-02   -0.37862E-02  4978   0.242E-01    0.327E-01
RMM:   6    -0.413600244923E+03    0.36425E-02   -0.20848E-02  5038   0.173E-01    0.140E-01
RMM:   7    -0.413599537243E+03    0.70768E-03   -0.27367E-03  5272   0.730E-02    0.807E-02
RMM:   8    -0.413599450579E+03    0.86663E-04   -0.51142E-04  5267   0.293E-02    0.544E-02
RMM:   9    -0.413599436037E+03    0.14542E-04   -0.44568E-04  4429   0.271E-02    0.149E-02
RMM:  10    -0.413599455127E+03   -0.19090E-04   -0.10321E-04  5715   0.118E-02    0.106E-02
RMM:  11    -0.413599461569E+03   -0.64425E-05   -0.22906E-05  4466   0.587E-03    0.561E-03
RMM:  12    -0.413599471170E+03   -0.96010E-05   -0.93557E-06  3439   0.415E-03    0.306E-03
RMM:  13    -0.413599476327E+03   -0.51567E-05   -0.30765E-06  2770   0.248E-03    0.167E-03
RMM:  14    -0.413599479465E+03   -0.31379E-05   -0.30765E-06  2774   0.233E-03    0.924E-04
RMM:  15    -0.413599479037E+03    0.42775E-06   -0.14904E-06  2408   0.143E-03
  142 T=   148. E= -.41287421E+03 F= -.41359948E+03 E0= -.41357925E+03  EK= 0.72527E+00 SP= 0.00E+00 SK= 0.00E+00
       N       E                     dE             d eps       ncg     rms          rms(c)
RMM:   1    -0.413528331336E+03    0.71148E-01   -0.13435E+01  4292   0.686E+00    0.851E-01
RMM:   2    -0.413500425721E+03    0.27906E-01   -0.34915E-01  5401   0.710E-01    0.866E-01
RMM:   3    -0.413504414722E+03   -0.39890E-02   -0.67837E-02  5706   0.281E-01    0.874E-01
RMM:   4    -0.413486700221E+03    0.17715E-01   -0.19317E-02  5078   0.174E-01    0.487E-01
RMM:   5    -0.413486681104E+03    0.19117E-04   -0.21749E-02  4671   0.193E-01    0.222E-01
RMM:   6    -0.413485505632E+03    0.11755E-02   -0.11346E-02  5105   0.128E-01    0.110E-01
RMM:   7    -0.413484995177E+03    0.51046E-03   -0.17901E-03  5328   0.565E-02    0.717E-02
RMM:   8    -0.413484912034E+03    0.83142E-04   -0.37741E-04  4894   0.255E-02    0.451E-02
RMM:   9    -0.413484911319E+03    0.71540E-06   -0.40417E-04  4520   0.251E-02    0.137E-02
RMM:  10    -0.413484924184E+03   -0.12865E-04   -0.78474E-05  5688   0.102E-02    0.105E-02
RMM:  11    -0.413484926382E+03   -0.21984E-05   -0.21164E-05  4383   0.576E-03    0.494E-03
RMM:  12    -0.413484931603E+03   -0.52203E-05   -0.69328E-06  3235   0.363E-03    0.270E-03
RMM:  13    -0.413484934572E+03   -0.29696E-05   -0.23933E-06  2705   0.229E-03    0.154E-03
RMM:  14    -0.413484935329E+03   -0.75634E-06   -0.20657E-06  2642   0.197E-03
  143 T=   125. E= -.41286992E+03 F= -.41348494E+03 E0= -.41346452E+03  EK= 0.61502E+00 SP= 0.00E+00 SK= 0.00E+00
       N       E                     dE             d eps       ncg     rms          rms(c)
RMM:   1    -0.413427267462E+03    0.57667E-01   -0.10861E+01  4264   0.612E+00    0.837E-01
RMM:   2    -0.413403606933E+03    0.23661E-01   -0.29598E-01  5404   0.636E-01    0.759E-01
RMM:   3    -0.413424255503E+03   -0.20649E-01   -0.57625E-02  5674   0.254E-01    0.861E-01
RMM:   4    -0.413402815151E+03    0.21440E-01   -0.24282E-02  5134   0.178E-01    0.458E-01
RMM:   5    -0.413401005147E+03    0.18100E-02   -0.17243E-02  4479   0.178E-01    0.148E-01
RMM:   6    -0.413400181555E+03    0.82359E-03   -0.29482E-03  4824   0.764E-02    0.651E-02
RMM:   7    -0.413400111616E+03    0.69939E-04   -0.58086E-04  5521   0.304E-02    0.415E-02
RMM:   8    -0.413400092611E+03    0.19005E-04   -0.24033E-04  4589   0.197E-02    0.189E-02
RMM:   9    -0.413400100834E+03   -0.82234E-05   -0.10502E-04  5287   0.123E-02    0.122E-02
RMM:  10    -0.413400101499E+03   -0.66484E-06   -0.25708E-05  4852   0.603E-03    0.648E-03
RMM:  11    -0.413400100155E+03    0.13444E-05   -0.84961E-06  3572   0.360E-03    0.365E-03
RMM:  12    -0.413400101372E+03   -0.12177E-05   -0.24940E-06  2689   0.256E-03    0.208E-03
RMM:  13    -0.413400101492E+03   -0.11975E-06   -0.13029E-06  2539   0.186E-03
  144 T=   108. E= -.41286897E+03 F= -.41340010E+03 E0= -.41337922E+03  EK= 0.53113E+00 SP= 0.00E+00 SK= 0.00E+00
       N       E                     dE             d eps       ncg     rms          rms(c)
RMM:   1    -0.413384529891E+03    0.15571E-01   -0.92720E+00  4264   0.566E+00    0.867E-01
RMM:   2    -0.413369301583E+03    0.15228E-01   -0.24110E-01  5384   0.572E-01    0.733E-01
RMM:   3    -0.413374867311E+03   -0.55657E-02   -0.37368E-02  5466   0.225E-01    0.520E-01
RMM:   4    -0.413406299053E+03   -0.31432E-01   -0.54384E-02  5279   0.220E-01    0.804E-01
RMM:   5    -0.413370142251E+03    0.36157E-01   -0.30014E-02  4938   0.204E-01    0.162E-01
RMM:   6    -0.413369109707E+03    0.10325E-02   -0.78265E-03  5361   0.103E-01    0.738E-02
RMM:   7    -0.413368866019E+03    0.24369E-03   -0.14627E-03  5388   0.445E-02    0.387E-02
RMM:   8    -0.413368857162E+03    0.88576E-05   -0.33938E-04  5738   0.212E-02    0.267E-02
RMM:   9    -0.413368848243E+03    0.89186E-05   -0.83716E-05  4884   0.118E-02    0.125E-02
RMM:  10    -0.413368847712E+03    0.53125E-06   -0.31669E-05  5204   0.659E-03    0.715E-03
RMM:  11    -0.413368846492E+03    0.12196E-05   -0.69137E-06  3298   0.338E-03    0.399E-03
RMM:  12    -0.413368845655E+03    0.83705E-06   -0.20996E-06  2606   0.247E-03
  145 T=   102. E= -.41286599E+03 F= -.41336885E+03 E0= -.41334744E+03  EK= 0.50286E+00 SP= 0.00E+00 SK= 0.00E+00
       N       E                     dE             d eps       ncg     rms          rms(c)
RMM:   1    -0.413447165653E+03   -0.78319E-01   -0.93442E+00  4264   0.583E+00    0.707E-01
RMM:   2    -0.413436827512E+03    0.10338E-01   -0.23359E-01  5344   0.568E-01    0.582E-01
RMM:   3    -0.413437961160E+03   -0.11336E-02   -0.28323E-02  5470   0.199E-01    0.362E-01
RMM:   4    -0.413438484433E+03   -0.52327E-03   -0.15563E-02  4808   0.163E-01    0.145E-01
RMM:   5    -0.413437798816E+03    0.68562E-03   -0.54219E-03  5024   0.895E-02    0.887E-02
RMM:   6    -0.413438357596E+03   -0.55878E-03   -0.19683E-03  5640   0.466E-02    0.136E-01
RMM:   7    -0.413437311634E+03    0.10460E-02   -0.80460E-04  5219   0.322E-02    0.334E-02
RMM:   8    -0.413437296850E+03    0.14784E-04   -0.22943E-04  5611   0.189E-02    0.236E-02
RMM:   9    -0.413437286192E+03    0.10658E-04   -0.63489E-05  4831   0.104E-02    0.103E-02
RMM:  10    -0.413437286398E+03   -0.20629E-06   -0.23697E-05  4984   0.570E-03    0.616E-03
RMM:  11    -0.413437287157E+03   -0.75870E-06   -0.44215E-06  2998   0.312E-03
  146 T=   117. E= -.41286402E+03 F= -.41343729E+03 E0= -.41341564E+03  EK= 0.57327E+00 SP= 0.00E+00 SK= 0.00E+00
       N       E                     dE             d eps       ncg     rms          rms(c)
RMM:   1    -0.413661558756E+03   -0.22427E+00   -0.12823E+01  4265   0.679E+00    0.813E-01
RMM:   2    -0.413623640665E+03    0.37918E-01   -0.34131E-01  5342   0.715E-01    0.708E-01
RMM:   3    -0.413633683157E+03   -0.10042E-01   -0.45937E-02  5590   0.249E-01    0.631E-01
RMM:   4    -0.413634629955E+03   -0.94680E-03   -0.29769E-02  5327   0.178E-01    0.568E-01
RMM:   5    -0.413623909241E+03    0.10721E-01   -0.19109E-02  4719   0.188E-01    0.163E-01
RMM:   6    -0.413623136961E+03    0.77228E-03   -0.37668E-03  5066   0.819E-02    0.697E-02
RMM:   7    -0.413622954328E+03    0.18263E-03   -0.11269E-03  5344   0.402E-02    0.404E-02
RMM:   8    -0.413622903654E+03    0.50675E-04   -0.33772E-04  5492   0.226E-02    0.257E-02
RMM:   9    -0.413622887138E+03    0.16515E-04   -0.11219E-04  4915   0.135E-02    0.130E-02
RMM:  10    -0.413622887776E+03   -0.63803E-06   -0.34029E-05  5240   0.704E-03    0.741E-03
RMM:  11    -0.413622891365E+03   -0.35886E-05   -0.88741E-06  3724   0.402E-03    0.412E-03
RMM:  12    -0.413622898862E+03   -0.74971E-05   -0.29768E-06  2768   0.291E-03    0.229E-03
RMM:  13    -0.413622907012E+03   -0.81504E-05   -0.17521E-06  2604   0.209E-03    0.132E-03
RMM:  14    -0.413622914465E+03   -0.74530E-05   -0.11798E-06  2560   0.157E-03    0.773E-04
RMM:  15    -0.413622921398E+03   -0.69322E-05   -0.10366E-06  2479   0.133E-03    0.545E-04
RMM:  16    -0.413622929745E+03   -0.83477E-05   -0.15085E-06  2546   0.144E-03    0.343E-04
RMM:  17    -0.413622935267E+03   -0.55221E-05   -0.99098E-07  2030   0.110E-03    0.236E-04
RMM:  18    -0.413622939542E+03   -0.42751E-05   -0.70942E-07  2031   0.999E-04    0.155E-04
RMM:  19    -0.413622942335E+03   -0.27926E-05   -0.37516E-07  1608   0.770E-04    0.944E-05
RMM:  20    -0.413622944487E+03   -0.21522E-05   -0.20879E-07  1254   0.647E-04    0.675E-05
RMM:  21    -0.413622945808E+03   -0.13208E-05   -0.11946E-07  1098   0.593E-04    0.454E-05
RMM:  22    -0.413622946432E+03   -0.62449E-06   -0.64555E-08   986   0.556E-04
  147 T=   152. E= -.41287545E+03 F= -.41362295E+03 E0= -.41360130E+03  EK= 0.74750E+00 SP= 0.00E+00 SK= 0.00E+00
       N       E                     dE             d eps       ncg     rms          rms(c)
RMM:   1    -0.413863952000E+03   -0.24101E+00   -0.18507E+01  4271   0.798E+00    0.142E+00
RMM:   2    -0.413769974951E+03    0.93977E-01   -0.58421E-01  5374   0.925E-01    0.124E+00
RMM:   3    -0.413789365964E+03   -0.19391E-01   -0.93727E-02  5449   0.369E-01    0.964E-01
RMM:   4    -0.413837910737E+03   -0.48545E-01   -0.12192E-01  5277   0.341E-01    0.115E+00
RMM:   5    -0.413769556077E+03    0.68355E-01   -0.65971E-02  4897   0.323E-01    0.259E-01
RMM:   6    -0.413767633649E+03    0.19224E-02   -0.12860E-02  5379   0.141E-01    0.111E-01
RMM:   7    -0.413767287207E+03    0.34644E-03   -0.31625E-03  5406   0.633E-02    0.611E-02
RMM:   8    -0.413767194940E+03    0.92267E-04   -0.91542E-04  5627   0.351E-02    0.361E-02
RMM:   9    -0.413767162770E+03    0.32171E-04   -0.26451E-04  5218   0.201E-02    0.195E-02
RMM:  10    -0.413767159309E+03    0.34610E-05   -0.73434E-05  5633   0.103E-02    0.112E-02
RMM:  11    -0.413767160310E+03   -0.10010E-05   -0.21980E-05  4840   0.574E-03    0.637E-03
RMM:  12    -0.413767164823E+03   -0.45135E-05   -0.53695E-06  3092   0.364E-03    0.366E-03
RMM:  13    -0.413767170112E+03   -0.52890E-05   -0.24281E-06  2690   0.254E-03    0.195E-03
RMM:  14    -0.413767175572E+03   -0.54595E-05   -0.12985E-06  2569   0.183E-03    0.932E-04
RMM:  15    -0.413767180890E+03   -0.53181E-05   -0.99976E-07  2538   0.147E-03    0.672E-04
RMM:  16    -0.413767186502E+03   -0.56124E-05   -0.98011E-07  2417   0.131E-03    0.365E-04
RMM:  17    -0.413767190396E+03   -0.38941E-05   -0.67908E-07  1992   0.103E-03    0.258E-04
RMM:  18    -0.413767194879E+03   -0.44830E-05   -0.83756E-07  2296   0.111E-03    0.195E-04
RMM:  19    -0.413767196826E+03   -0.19467E-05   -0.33859E-07  1412   0.732E-04    0.942E-05
RMM:  20    -0.413767198422E+03   -0.15965E-05   -0.20373E-07  1260   0.671E-04    0.857E-05
RMM:  21    -0.413767199605E+03   -0.11824E-05   -0.13558E-07  1171   0.627E-04    0.550E-05
RMM:  22    -0.413767200060E+03   -0.45530E-06   -0.74210E-08  1017   0.578E-04
  148 T=   178. E= -.41289215E+03 F= -.41376720E+03 E0= -.41374567E+03  EK= 0.87506E+00 SP= 0.00E+00 SK= 0.00E+00
       N       E                     dE             d eps       ncg     rms          rms(c)
RMM:   1    -0.413782365140E+03   -0.15166E-01   -0.19839E+01  4266   0.803E+00    0.167E+00
RMM:   2    -0.413692326368E+03    0.90039E-01   -0.74140E-01  5388   0.963E-01    0.143E+00
RMM:   3    -0.413708233492E+03   -0.15907E-01   -0.12059E-01  5345   0.425E-01    0.979E-01
RMM:   4    -0.413862579287E+03   -0.15435E+00   -0.23073E-01  5275   0.453E-01    0.164E+00
RMM:   5    -0.413692620202E+03    0.16996E+00   -0.12457E-01  4956   0.407E-01    0.300E-01
RMM:   6    -0.413690818318E+03    0.18019E-02   -0.23495E-02  5575   0.179E-01    0.126E-01
RMM:   7    -0.413690467593E+03    0.35072E-03   -0.51221E-03  5494   0.768E-02    0.676E-02
RMM:   8    -0.413690396072E+03    0.71522E-04   -0.12603E-03  5759   0.398E-02    0.402E-02
RMM:   9    -0.413690366053E+03    0.30018E-04   -0.29417E-04  5272   0.207E-02    0.216E-02
RMM:  10    -0.413690362451E+03    0.36022E-05   -0.85872E-05  5627   0.110E-02    0.122E-02
RMM:  11    -0.413690362157E+03    0.29450E-06   -0.25390E-05  4977   0.585E-03    0.701E-03
RMM:  12    -0.413690364476E+03   -0.23195E-05   -0.67096E-06  3433   0.389E-03    0.381E-03
RMM:  13    -0.413690367525E+03   -0.30490E-05   -0.24166E-06  2684   0.255E-03    0.204E-03
RMM:  14    -0.413690370812E+03   -0.32869E-05   -0.12633E-06  2569   0.180E-03    0.849E-04
RMM:  15    -0.413690373510E+03   -0.26978E-05   -0.80076E-07  2495   0.133E-03    0.619E-04
RMM:  16    -0.413690376610E+03   -0.31001E-05   -0.78223E-07  2248   0.118E-03    0.347E-04
RMM:  17    -0.413690378485E+03   -0.18750E-05   -0.46277E-07  1817   0.926E-04    0.212E-04
RMM:  18    -0.413690380647E+03   -0.21621E-05   -0.57826E-07  2113   0.994E-04    0.185E-04
RMM:  19    -0.413690381587E+03   -0.94016E-06   -0.25361E-07  1320   0.706E-04
  149 T=   166. E= -.41287467E+03 F= -.41369038E+03 E0= -.41366888E+03  EK= 0.81571E+00 SP= 0.00E+00 SK= 0.00E+00
       N       E                     dE             d eps       ncg     rms          rms(c)
RMM:   1    -0.413714771729E+03   -0.24391E-01   -0.16541E+01  4264   0.718E+00    0.111E+00
RMM:   2    -0.413662854034E+03    0.51918E-01   -0.59068E-01  5433   0.817E-01    0.955E-01
RMM:   3    -0.413703293204E+03   -0.40439E-01   -0.11372E-01  5526   0.363E-01    0.118E+00
RMM:   4    -0.413657858863E+03    0.45434E-01   -0.59615E-02  5133   0.288E-01    0.571E-01
RMM:   5    -0.413653382783E+03    0.44761E-02   -0.21926E-02  4411   0.216E-01    0.138E-01
RMM:   6    -0.413653392367E+03   -0.95840E-05   -0.48690E-03  5560   0.832E-02    0.848E-02
RMM:   7    -0.413653290065E+03    0.10230E-03   -0.16904E-03  5335   0.476E-02    0.576E-02
RMM:   8    -0.413653180795E+03    0.10927E-03   -0.50011E-04  5249   0.281E-02    0.306E-02
RMM:   9    -0.413653182653E+03   -0.18576E-05   -0.22771E-04  5594   0.185E-02    0.220E-02
RMM:  10    -0.413653171050E+03    0.11603E-04   -0.44201E-05  4982   0.892E-03    0.870E-03
RMM:  11    -0.413653174538E+03   -0.34882E-05   -0.31321E-05  5193   0.599E-03    0.661E-03
RMM:  12    -0.413653174133E+03    0.40527E-06   -0.45743E-06  2977   0.319E-03
  150 T=   162. E= -.41285801E+03 F= -.41365317E+03 E0= -.41363144E+03  EK= 0.79516E+00 SP= 0.00E+00 SK= 0.00E+00
