       N       E                     dE             d eps       ncg     rms          rms(c)
RMM:   1     0.220146070510E+04    0.22015E+04   -0.52439E+04  2132   0.654E+02
RMM:   2     0.705360270968E+03   -0.14961E+04   -0.16263E+04  2132   0.177E+02
RMM:   3     0.137416546631E+03   -0.56794E+03   -0.65741E+03  2132   0.117E+02
RMM:   4    -0.159170132012E+03   -0.29659E+03   -0.27853E+03  2132   0.936E+01
RMM:   5    -0.287489610546E+03   -0.12832E+03   -0.11451E+03  2132   0.595E+01
RMM:   6    -0.349778933230E+03   -0.62289E+02   -0.55124E+02  2132   0.423E+01
RMM:   7    -0.382710931591E+03   -0.32932E+02   -0.30440E+02  2132   0.293E+01
RMM:   8    -0.404138340890E+03   -0.21427E+02   -0.18419E+02  2132   0.233E+01
RMM:   9    -0.435999439343E+03   -0.31861E+02   -0.30790E+02  6107   0.173E+01
RMM:  10    -0.441336734782E+03   -0.53373E+01   -0.63176E+01  6394   0.540E+00
RMM:  11    -0.442525685788E+03   -0.11890E+01   -0.10916E+01  6218   0.172E+00
RMM:  12    -0.442892816231E+03   -0.36713E+00   -0.26879E+00  6362   0.596E-01    0.134E+02
RMM:  13    -0.425635576955E+03    0.17257E+02   -0.80998E+01  4677   0.119E+01    0.712E+01
RMM:  14    -0.500507376010E+03   -0.74872E+02   -0.54399E+02  5417   0.233E+01    0.309E+01
RMM:  15    -0.418367220833E+03    0.82140E+02   -0.20664E+02  5114   0.165E+01    0.878E+00
RMM:  16    -0.414019450623E+03    0.43478E+01   -0.41203E+01  6095   0.627E+00    0.432E+00
RMM:  17    -0.413207895789E+03    0.81155E+00   -0.27952E+00  5437   0.197E+00    0.243E+00
RMM:  18    -0.413179840908E+03    0.28055E-01   -0.73233E-01  5994   0.873E-01    0.172E+00
RMM:  19    -0.413179969327E+03   -0.12842E-03   -0.23155E-01  5653   0.537E-01    0.971E-01
RMM:  20    -0.413199069503E+03   -0.19100E-01   -0.38493E-01  5590   0.629E-01    0.732E-01
RMM:  21    -0.413170801230E+03    0.28268E-01   -0.38534E-02  4971   0.265E-01    0.355E-01
RMM:  22    -0.413165205441E+03    0.55958E-02   -0.34423E-02  5755   0.186E-01    0.146E-01
RMM:  23    -0.413164533527E+03    0.67191E-03   -0.54853E-03  5851   0.690E-02    0.871E-02
RMM:  24    -0.413163422403E+03    0.11111E-02   -0.17348E-03  5359   0.418E-02    0.576E-02
RMM:  25    -0.413162631087E+03    0.79132E-03   -0.88993E-04  4963   0.307E-02    0.415E-02
RMM:  26    -0.413162715016E+03   -0.83930E-04   -0.12558E-03  5800   0.357E-02    0.353E-02
RMM:  27    -0.413163136541E+03   -0.42152E-03   -0.21038E-04  4561   0.206E-02    0.207E-02
RMM:  28    -0.413163539926E+03   -0.40339E-03   -0.15123E-04  5078   0.165E-02    0.989E-03
RMM:  29    -0.413163931293E+03   -0.39137E-03   -0.10877E-04  4723   0.155E-02    0.457E-03
RMM:  30    -0.413164217355E+03   -0.28606E-03   -0.92960E-05  4421   0.122E-02    0.461E-03
RMM:  31    -0.413164360012E+03   -0.14266E-03   -0.61900E-05  3419   0.758E-03    0.395E-03
RMM:  32    -0.413164391156E+03   -0.31144E-04   -0.23041E-05  2968   0.338E-03    0.235E-03
RMM:  33    -0.413164404955E+03   -0.13799E-04   -0.97063E-06  2834   0.238E-03    0.838E-04
RMM:  34    -0.413164407143E+03   -0.21881E-05   -0.52031E-06  2605   0.157E-03    0.449E-04
RMM:  35    -0.413164408516E+03   -0.13730E-05   -0.21421E-06  2455   0.139E-03    0.731E-04
RMM:  36    -0.413164408179E+03    0.33697E-06   -0.36880E-06  1972   0.100E-03
    1 T=    61. E= -.41286661E+03 F= -.41316441E+03 E0= -.41314191E+03  EK= 0.29780E+00 SP= 0.00E+00 SK= 0.00E+00
       N       E                     dE             d eps       ncg     rms          rms(c)
RMM:   1    -0.413159113312E+03    0.52952E-02   -0.99911E+00  3974   0.654E-01    0.885E-01
RMM:   2    -0.413167222432E+03   -0.81091E-02   -0.12242E-01  3868   0.922E-02    0.646E-01
RMM:   3    -0.413164296036E+03    0.29264E-02   -0.10737E-02  4704   0.409E-02    0.107E-01
RMM:   4    -0.413181102732E+03   -0.16807E-01   -0.17616E-02  5202   0.110E-01    0.543E-01
RMM:   5    -0.413164027126E+03    0.17076E-01   -0.84789E-03  4845   0.910E-02    0.401E-02
RMM:   6    -0.413164148180E+03   -0.12105E-03   -0.15013E-03  5789   0.375E-02    0.278E-02
RMM:   7    -0.413164151333E+03   -0.31530E-05   -0.29130E-04  5629   0.158E-02    0.165E-02
RMM:   8    -0.413164151087E+03    0.24590E-06   -0.35212E-05  4727   0.656E-03    0.715E-03
RMM:   9    -0.413164154327E+03   -0.32399E-05   -0.75514E-06  3206   0.298E-03    0.558E-03
RMM:  10    -0.413164159094E+03   -0.47668E-05   -0.15821E-06  2545   0.192E-03    0.341E-03
RMM:  11    -0.413164164731E+03   -0.56376E-05   -0.12905E-06  2530   0.167E-03    0.161E-03
RMM:  12    -0.413164170928E+03   -0.61963E-05   -0.11714E-06  2497   0.153E-03    0.679E-04
RMM:  13    -0.413164172100E+03   -0.11726E-05   -0.44828E-07  2104   0.101E-03    0.362E-04
RMM:  14    -0.413164172688E+03   -0.58806E-06   -0.26537E-07  1528   0.742E-04
    2 T=    61. E= -.41286646E+03 F= -.41316417E+03 E0= -.41314167E+03  EK= 0.29772E+00 SP= 0.00E+00 SK= 0.00E+00
       N       E                     dE             d eps       ncg     rms          rms(c)
RMM:   1    -0.413160186009E+03    0.39861E-02   -0.10003E+01  4185   0.659E-01    0.906E-01
RMM:   2    -0.413167313380E+03   -0.71274E-02   -0.12051E-01  3859   0.907E-02    0.640E-01
RMM:   3    -0.413164992567E+03    0.23208E-02   -0.10662E-02  4863   0.415E-02    0.130E-01
RMM:   4    -0.413191071160E+03   -0.26079E-01   -0.26974E-02  5176   0.137E-01    0.674E-01
RMM:   5    -0.413164528237E+03    0.26543E-01   -0.12790E-02  4827   0.113E-01    0.457E-02
RMM:   6    -0.413164708979E+03   -0.18074E-03   -0.22962E-03  5778   0.462E-02    0.306E-02
RMM:   7    -0.413164707340E+03    0.16383E-05   -0.37460E-04  5735   0.176E-02    0.190E-02
RMM:   8    -0.413164701248E+03    0.60917E-05   -0.53330E-05  5032   0.782E-03    0.866E-03
RMM:   9    -0.413164699712E+03    0.15369E-05   -0.10939E-05  3683   0.368E-03    0.662E-03
RMM:  10    -0.413164699835E+03   -0.12387E-06   -0.16585E-06  2556   0.207E-03
    3 T=    61. E= -.41286681E+03 F= -.41316470E+03 E0= -.41314220E+03  EK= 0.29789E+00 SP= 0.00E+00 SK= 0.00E+00
       N       E                     dE             d eps       ncg     rms          rms(c)
RMM:   1    -0.413159635864E+03    0.50638E-02   -0.99238E+00  4223   0.661E-01    0.891E-01
RMM:   2    -0.413167146185E+03   -0.75103E-02   -0.11993E-01  4202   0.940E-02    0.635E-01
RMM:   3    -0.413168319013E+03   -0.11728E-02   -0.13229E-02  5154   0.704E-02    0.284E-01
RMM:   4    -0.413194147153E+03   -0.25828E-01   -0.41493E-02  5128   0.173E-01    0.712E-01
RMM:   5    -0.413164407013E+03    0.29740E-01   -0.12226E-02  4733   0.118E-01    0.590E-02
RMM:   6    -0.413164466105E+03   -0.59091E-04   -0.22136E-03  5516   0.472E-02    0.287E-02
RMM:   7    -0.413164489740E+03   -0.23636E-04   -0.37834E-04  6045   0.170E-02    0.180E-02
RMM:   8    -0.413164488934E+03    0.80654E-06   -0.67569E-05  5254   0.897E-03    0.785E-03
RMM:   9    -0.413164486731E+03    0.22033E-05   -0.95924E-06  3517   0.373E-03    0.387E-03
RMM:  10    -0.413164487839E+03   -0.11080E-05   -0.20570E-06  2587   0.216E-03    0.258E-03
RMM:  11    -0.413164489517E+03   -0.16783E-05   -0.14632E-06  2538   0.187E-03    0.154E-03
RMM:  12    -0.413164490390E+03   -0.87304E-06   -0.74113E-07  2481   0.142E-03
    4 T=    61. E= -.41286660E+03 F= -.41316449E+03 E0= -.41314200E+03  EK= 0.29789E+00 SP= 0.00E+00 SK= 0.00E+00
       N       E                     dE             d eps       ncg     rms          rms(c)
RMM:   1    -0.413159644519E+03    0.48450E-02   -0.99761E+00  4237   0.666E-01    0.883E-01
RMM:   2    -0.413167686216E+03   -0.80417E-02   -0.12228E-01  4094   0.937E-02    0.645E-01
RMM:   3    -0.413165024567E+03    0.26616E-02   -0.10802E-02  4904   0.440E-02    0.125E-01
RMM:   4    -0.413195015515E+03   -0.29991E-01   -0.31199E-02  5155   0.147E-01    0.722E-01
RMM:   5    -0.413164451482E+03    0.30564E-01   -0.14771E-02  4822   0.120E-01    0.456E-02
RMM:   6    -0.413164645669E+03   -0.19419E-03   -0.24590E-03  5769   0.486E-02    0.292E-02
RMM:   7    -0.413164654563E+03   -0.88941E-05   -0.37997E-04  5779   0.176E-02    0.186E-02
RMM:   8    -0.413164655061E+03   -0.49804E-06   -0.61019E-05  5051   0.814E-03    0.880E-03
RMM:   9    -0.413164656315E+03   -0.12545E-05   -0.12213E-05  3839   0.394E-03    0.648E-03
RMM:  10    -0.413164660425E+03   -0.41092E-05   -0.17683E-06  2568   0.206E-03    0.418E-03
RMM:  11    -0.413164665246E+03   -0.48215E-05   -0.14089E-06  2541   0.184E-03    0.204E-03
RMM:  12    -0.413164670939E+03   -0.56934E-05   -0.16219E-06  2573   0.182E-03    0.889E-04
RMM:  13    -0.413164671727E+03   -0.78704E-06   -0.43045E-07  2270   0.114E-03
    5 T=    61. E= -.41286664E+03 F= -.41316467E+03 E0= -.41314219E+03  EK= 0.29804E+00 SP= 0.00E+00 SK= 0.00E+00
       N       E                     dE             d eps       ncg     rms          rms(c)
RMM:   1    -0.413160797397E+03    0.38735E-02   -0.10006E+01  4252   0.683E-01    0.902E-01
RMM:   2    -0.413167694577E+03   -0.68972E-02   -0.12076E-01  4024   0.925E-02    0.642E-01
RMM:   3    -0.413165273058E+03    0.24215E-02   -0.10626E-02  4744   0.404E-02    0.120E-01
RMM:   4    -0.413184756287E+03   -0.19483E-01   -0.19816E-02  5158   0.117E-01    0.585E-01
RMM:   5    -0.413164978273E+03    0.19778E-01   -0.97621E-03  4834   0.970E-02    0.413E-02
RMM:   6    -0.413165102136E+03   -0.12386E-03   -0.16206E-03  5804   0.391E-02    0.265E-02
RMM:   7    -0.413165104175E+03   -0.20389E-05   -0.28236E-04  5676   0.160E-02    0.169E-02
RMM:   8    -0.413165097223E+03    0.69514E-05   -0.48156E-05  4878   0.755E-03    0.807E-03
RMM:   9    -0.413165096169E+03    0.10538E-05   -0.95331E-06  3586   0.354E-03    0.634E-03
RMM:  10    -0.413165096565E+03   -0.39555E-06   -0.14931E-06  2537   0.206E-03
    6 T=    61. E= -.41286679E+03 F= -.41316510E+03 E0= -.41314263E+03  EK= 0.29830E+00 SP= 0.00E+00 SK= 0.00E+00
       N       E                     dE             d eps       ncg     rms          rms(c)
RMM:   1    -0.413160181865E+03    0.49143E-02   -0.99512E+00  4259   0.674E-01    0.898E-01
RMM:   2    -0.413167383453E+03   -0.72016E-02   -0.12010E-01  4181   0.908E-02    0.636E-01
RMM:   3    -0.413167558828E+03   -0.17538E-03   -0.12423E-02  5117   0.621E-02    0.246E-01
RMM:   4    -0.413199602791E+03   -0.32044E-01   -0.44071E-02  5125   0.176E-01    0.769E-01
RMM:   5    -0.413164771090E+03    0.34832E-01   -0.15059E-02  4764   0.127E-01    0.586E-02
RMM:   6    -0.413164878917E+03   -0.10783E-03   -0.25914E-03  5608   0.509E-02    0.294E-02
RMM:   7    -0.413164898768E+03   -0.19851E-04   -0.41056E-04  6030   0.173E-02    0.184E-02
RMM:   8    -0.413164895691E+03    0.30766E-05   -0.70672E-05  5252   0.897E-03    0.816E-03
RMM:   9    -0.413164891689E+03    0.40026E-05   -0.10608E-05  3551   0.379E-03    0.412E-03
RMM:  10    -0.413164891433E+03    0.25554E-06   -0.25382E-06  2624   0.226E-03
    7 T=    61. E= -.41286643E+03 F= -.41316489E+03 E0= -.41314244E+03  EK= 0.29846E+00 SP= 0.00E+00 SK= 0.00E+00
       N       E                     dE             d eps       ncg     rms          rms(c)
RMM:   1    -0.413160377213E+03    0.45145E-02   -0.99643E+00  4264   0.681E-01    0.882E-01
RMM:   2    -0.413168356154E+03   -0.79789E-02   -0.12194E-01  4127   0.928E-02    0.643E-01
RMM:   3    -0.413166375145E+03    0.19810E-02   -0.11176E-02  5008   0.512E-02    0.162E-01
RMM:   4    -0.413207229770E+03   -0.40855E-01   -0.45182E-02  5137   0.177E-01    0.842E-01
RMM:   5    -0.413165187876E+03    0.42042E-01   -0.19735E-02  4804   0.141E-01    0.526E-02
RMM:   6    -0.413165409600E+03   -0.22172E-03   -0.32622E-03  5747   0.563E-02    0.304E-02
RMM:   7    -0.413165425802E+03   -0.16202E-04   -0.47511E-04  5935   0.188E-02    0.201E-02
RMM:   8    -0.413165425947E+03   -0.14440E-06   -0.74968E-05  5237   0.883E-03    0.948E-03
RMM:   9    -0.413165425157E+03    0.78932E-06   -0.14624E-05  3992   0.421E-03    0.601E-03
RMM:  10    -0.413165428044E+03   -0.28865E-05   -0.25055E-06  2626   0.221E-03    0.397E-03
RMM:  11    -0.413165430836E+03   -0.27923E-05   -0.12108E-06  2523   0.172E-03    0.208E-03
RMM:  12    -0.413165434550E+03   -0.37137E-05   -0.15218E-06  2556   0.178E-03    0.744E-04
RMM:  13    -0.413165435810E+03   -0.12604E-05   -0.56643E-07  2312   0.121E-03    0.594E-04
RMM:  14    -0.413165435665E+03    0.14525E-06   -0.23132E-07  1782   0.829E-04
    8 T=    61. E= -.41286659E+03 F= -.41316544E+03 E0= -.41314301E+03  EK= 0.29885E+00 SP= 0.00E+00 SK= 0.00E+00
       N       E                     dE             d eps       ncg     rms          rms(c)
RMM:   1    -0.413160899242E+03    0.45366E-02   -0.10013E+01  4281   0.692E-01    0.898E-01
RMM:   2    -0.413168588251E+03   -0.76890E-02   -0.12167E-01  4190   0.959E-02    0.645E-01
RMM:   3    -0.413165909212E+03    0.26790E-02   -0.10727E-02  4785   0.428E-02    0.122E-01
RMM:   4    -0.413189840490E+03   -0.23931E-01   -0.24538E-02  5147   0.130E-01    0.647E-01
RMM:   5    -0.413165493886E+03    0.24347E-01   -0.11863E-02  4813   0.107E-01    0.435E-02
RMM:   6    -0.413165656615E+03   -0.16273E-03   -0.20603E-03  5778   0.435E-02    0.288E-02
RMM:   7    -0.413165658696E+03   -0.20809E-05   -0.33593E-04  5688   0.170E-02    0.181E-02
RMM:   8    -0.413165653068E+03    0.56285E-05   -0.52742E-05  4961   0.781E-03    0.860E-03
RMM:   9    -0.413165651547E+03    0.15204E-05   -0.10608E-05  3664   0.370E-03    0.663E-03
RMM:  10    -0.413165652081E+03   -0.53397E-06   -0.15312E-06  2544   0.204E-03
    9 T=    61. E= -.41286656E+03 F= -.41316565E+03 E0= -.41314324E+03  EK= 0.29909E+00 SP= 0.00E+00 SK= 0.00E+00
       N       E                     dE             d eps       ncg     rms          rms(c)
RMM:   1    -0.413161241197E+03    0.44104E-02   -0.99881E+00  4294   0.689E-01    0.904E-01
RMM:   2    -0.413168310501E+03   -0.70693E-02   -0.12023E-01  4261   0.929E-02    0.638E-01
RMM:   3    -0.413168932740E+03   -0.62224E-03   -0.12933E-02  5100   0.673E-02    0.265E-01
RMM:   4    -0.413197677117E+03   -0.28744E-01   -0.42515E-02  5118   0.174E-01    0.739E-01
RMM:   5    -0.413165620849E+03    0.32056E-01   -0.13601E-02  4745   0.122E-01    0.583E-02
RMM:   6    -0.413165710126E+03   -0.89278E-04   -0.24083E-03  5584   0.488E-02    0.296E-02
RMM:   7    -0.413165724557E+03   -0.14431E-04   -0.38285E-04  6001   0.170E-02    0.182E-02
RMM:   8    -0.413165720080E+03    0.44775E-05   -0.67451E-05  5221   0.889E-03    0.798E-03
RMM:   9    -0.413165715109E+03    0.49706E-05   -0.98935E-06  3483   0.372E-03    0.401E-03
RMM:  10    -0.413165713912E+03    0.11967E-05   -0.22727E-06  2596   0.221E-03    0.272E-03
RMM:  11    -0.413165711981E+03    0.19312E-05   -0.13032E-06  2518   0.181E-03    0.147E-03
RMM:  12    -0.413165710131E+03    0.18501E-05   -0.74671E-07  2475   0.140E-03    0.501E-04
RMM:  13    -0.413165709224E+03    0.90652E-06   -0.36398E-07  2057   0.987E-04
   10 T=    61. E= -.41286640E+03 F= -.41316571E+03 E0= -.41314332E+03  EK= 0.29931E+00 SP= 0.00E+00 SK= 0.00E+00
       N       E                     dE             d eps       ncg     rms          rms(c)
RMM:   1    -0.413161511242E+03    0.41989E-02   -0.99503E+00  4290   0.697E-01    0.882E-01
RMM:   2    -0.413169293290E+03   -0.77820E-02   -0.12152E-01  4207   0.934E-02    0.640E-01
RMM:   3    -0.413166847874E+03    0.24454E-02   -0.10676E-02  4880   0.446E-02    0.130E-01
RMM:   4    -0.413198019963E+03   -0.31172E-01   -0.32604E-02  5144   0.150E-01    0.736E-01
RMM:   5    -0.413166221898E+03    0.31798E-01   -0.15342E-02  4797   0.123E-01    0.468E-02
RMM:   6    -0.413166429837E+03   -0.20794E-03   -0.26759E-03  5760   0.495E-02    0.301E-02
RMM:   7    -0.413166436911E+03   -0.70741E-05   -0.39800E-04  5755   0.180E-02    0.193E-02
RMM:   8    -0.413166433460E+03    0.34513E-05   -0.62722E-05  5059   0.829E-03    0.924E-03
RMM:   9    -0.413166431670E+03    0.17902E-05   -0.12940E-05  3914   0.405E-03    0.682E-03
RMM:  10    -0.413166432666E+03   -0.99575E-06   -0.18119E-06  2567   0.210E-03
   11 T=    61. E= -.41286667E+03 F= -.41316643E+03 E0= -.41314407E+03  EK= 0.29977E+00 SP= 0.00E+00 SK= 0.00E+00
       N       E                     dE             d eps       ncg     rms          rms(c)
RMM:   1    -0.413161564731E+03    0.48669E-02   -0.10023E+01  4297   0.699E-01    0.894E-01
RMM:   2    -0.413169321087E+03   -0.77564E-02   -0.12239E-01  4292   0.948E-02    0.647E-01
RMM:   3    -0.413170830615E+03   -0.15095E-02   -0.14102E-02  5129   0.739E-02    0.299E-01
RMM:   4    -0.413196818388E+03   -0.25988E-01   -0.43806E-02  5096   0.177E-01    0.720E-01
RMM:   5    -0.413166327954E+03    0.30490E-01   -0.12339E-02  4713   0.118E-01    0.579E-02
RMM:   6    -0.413166397630E+03   -0.69676E-04   -0.22422E-03  5531   0.468E-02    0.280E-02
RMM:   7    -0.413166418820E+03   -0.21191E-04   -0.36401E-04  6009   0.168E-02    0.178E-02
RMM:   8    -0.413166419581E+03   -0.76031E-06   -0.67913E-05  5231   0.889E-03    0.786E-03
RMM:   9    -0.413166417297E+03    0.22835E-05   -0.97590E-06  3485   0.377E-03    0.379E-03
RMM:  10    -0.413166418470E+03   -0.11729E-05   -0.21055E-06  2576   0.215E-03    0.253E-03
RMM:  11    -0.413166420076E+03   -0.16060E-05   -0.14264E-06  2527   0.184E-03    0.150E-03
RMM:  12    -0.413166420764E+03   -0.68745E-06   -0.73339E-07  2473   0.140E-03
   12 T=    61. E= -.41286639E+03 F= -.41316642E+03 E0= -.41314409E+03  EK= 0.30004E+00 SP= 0.00E+00 SK= 0.00E+00
       N       E                     dE             d eps       ncg     rms          rms(c)
RMM:   1    -0.413164617398E+03    0.18027E-02   -0.10043E+01  4290   0.724E-01    0.909E-01
RMM:   2    -0.413169402995E+03   -0.47856E-02   -0.12061E-01  4232   0.928E-02    0.640E-01
RMM:   3    -0.413167477531E+03    0.19255E-02   -0.10944E-02  4926   0.452E-02    0.144E-01
RMM:   4    -0.413201119226E+03   -0.33642E-01   -0.35427E-02  5141   0.156E-01    0.764E-01
RMM:   5    -0.413166786271E+03    0.34333E-01   -0.16592E-02  4800   0.127E-01    0.488E-02
RMM:   6    -0.413166994266E+03   -0.20799E-03   -0.28239E-03  5778   0.517E-02    0.319E-02
RMM:   7    -0.413166992385E+03    0.18805E-05   -0.42292E-04  5763   0.188E-02    0.203E-02
RMM:   8    -0.413166982782E+03    0.96035E-05   -0.68385E-05  5117   0.870E-03    0.991E-03
RMM:   9    -0.413166976904E+03    0.58774E-05   -0.13704E-05  4000   0.418E-03    0.713E-03
RMM:  10    -0.413166973545E+03    0.33591E-05   -0.19564E-06  2573   0.216E-03    0.453E-03
RMM:  11    -0.413166970572E+03    0.29733E-05   -0.13617E-06  2532   0.183E-03    0.238E-03
RMM:  12    -0.413166966004E+03    0.45684E-05   -0.17103E-06  2568   0.194E-03    0.936E-04
RMM:  13    -0.413166964741E+03    0.12626E-05   -0.50266E-07  2337   0.125E-03    0.648E-04
RMM:  14    -0.413166964743E+03   -0.14952E-08   -0.22590E-07  1851   0.838E-04
   13 T=    61. E= -.41286645E+03 F= -.41316696E+03 E0= -.41314466E+03  EK= 0.30052E+00 SP= 0.00E+00 SK= 0.00E+00
       N       E                     dE             d eps       ncg     rms          rms(c)
RMM:   1    -0.413162695438E+03    0.42693E-02   -0.99550E+00  4295   0.706E-01    0.886E-01
RMM:   2    -0.413170415098E+03   -0.77197E-02   -0.12135E-01  4228   0.944E-02    0.639E-01
RMM:   3    -0.413167962427E+03    0.24527E-02   -0.10542E-02  4812   0.427E-02    0.124E-01
RMM:   4    -0.413193313353E+03   -0.25351E-01   -0.26186E-02  5137   0.134E-01    0.665E-01
RMM:   5    -0.413167515862E+03    0.25797E-01   -0.12577E-02  4808   0.110E-01    0.443E-02
RMM:   6    -0.413167685947E+03   -0.17008E-03   -0.21906E-03  5792   0.445E-02    0.290E-02
RMM:   7    -0.413167686355E+03   -0.40779E-06   -0.33970E-04  5675   0.171E-02    0.183E-02
RMM:   8    -0.413167679434E+03    0.69202E-05   -0.56341E-05  4972   0.803E-03    0.883E-03
RMM:   9    -0.413167676500E+03    0.29347E-05   -0.11347E-05  3751   0.385E-03    0.673E-03
RMM:  10    -0.413167675902E+03    0.59802E-06   -0.15753E-06  2544   0.205E-03
   14 T=    61. E= -.41286659E+03 F= -.41316768E+03 E0= -.41314541E+03  EK= 0.30108E+00 SP= 0.00E+00 SK= 0.00E+00
       N       E                     dE             d eps       ncg     rms          rms(c)
RMM:   1    -0.413162872158E+03    0.48043E-02   -0.10041E+01  4305   0.710E-01    0.891E-01
RMM:   2    -0.413170809611E+03   -0.79375E-02   -0.12305E-01  4283   0.946E-02    0.649E-01
RMM:   3    -0.413171299020E+03   -0.48941E-03   -0.13516E-02  5103   0.698E-02    0.272E-01
RMM:   4    -0.413202300065E+03   -0.31001E-01   -0.46461E-02  5101   0.181E-01    0.766E-01
RMM:   5    -0.413167564619E+03    0.34735E-01   -0.14627E-02  4730   0.126E-01    0.581E-02
RMM:   6    -0.413167662402E+03   -0.97783E-04   -0.25349E-03  5598   0.501E-02    0.282E-02
RMM:   7    -0.413167683886E+03   -0.21485E-04   -0.39121E-04  6005   0.171E-02    0.180E-02
RMM:   8    -0.413167684760E+03   -0.87384E-06   -0.71268E-05  5229   0.899E-03    0.809E-03
RMM:   9    -0.413167682217E+03    0.25433E-05   -0.10855E-05  3563   0.386E-03    0.388E-03
RMM:  10    -0.413167683259E+03   -0.10417E-05   -0.24136E-06  2602   0.222E-03    0.265E-03
RMM:  11    -0.413167684458E+03   -0.11998E-05   -0.13797E-06  2521   0.182E-03    0.145E-03
RMM:  12    -0.413167684974E+03   -0.51565E-06   -0.77022E-07  2474   0.140E-03
   15 T=    61. E= -.41286626E+03 F= -.41316768E+03 E0= -.41314545E+03  EK= 0.30143E+00 SP= 0.00E+00 SK= 0.00E+00
       N       E                     dE             d eps       ncg     rms          rms(c)
RMM:   1    -0.413164247629E+03    0.34368E-02   -0.10053E+01  4300   0.713E-01    0.911E-01
RMM:   2    -0.413171404230E+03   -0.71566E-02   -0.12144E-01  4249   0.938E-02    0.643E-01
RMM:   3    -0.413169247091E+03    0.21571E-02   -0.11066E-02  4916   0.467E-02    0.148E-01
RMM:   4    -0.413204578029E+03   -0.35331E-01   -0.37410E-02  5137   0.161E-01    0.783E-01
RMM:   5    -0.413168482625E+03    0.36095E-01   -0.17421E-02  4800   0.131E-01    0.496E-02
RMM:   6    -0.413168697043E+03   -0.21442E-03   -0.29945E-03  5775   0.527E-02    0.322E-02
RMM:   7    -0.413168695340E+03    0.17034E-05   -0.43837E-04  5768   0.190E-02    0.206E-02
RMM:   8    -0.413168685767E+03    0.95731E-05   -0.71034E-05  5126   0.886E-03    0.101E-02
RMM:   9    -0.413168679291E+03    0.64761E-05   -0.14462E-05  4056   0.428E-03    0.720E-03
RMM:  10    -0.413168675368E+03    0.39230E-05   -0.20500E-06  2576   0.219E-03    0.459E-03
RMM:  11    -0.413168671957E+03    0.34106E-05   -0.13664E-06  2528   0.183E-03    0.244E-03
RMM:  12    -0.413168666558E+03    0.53990E-05   -0.16878E-06  2558   0.198E-03    0.927E-04
RMM:  13    -0.413168664830E+03    0.17280E-05   -0.52036E-07  2355   0.127E-03    0.675E-04
RMM:  14    -0.413168664947E+03   -0.11715E-06   -0.23409E-07  1880   0.847E-04
   16 T=    61. E= -.41286660E+03 F= -.41316866E+03 E0= -.41314647E+03  EK= 0.30206E+00 SP= 0.00E+00 SK= 0.00E+00
       N       E                     dE             d eps       ncg     rms          rms(c)
RMM:   1    -0.413164360645E+03    0.43042E-02   -0.99776E+00  4297   0.714E-01    0.892E-01
RMM:   2    -0.413171949118E+03   -0.75885E-02   -0.12136E-01  4255   0.934E-02    0.639E-01
RMM:   3    -0.413169496745E+03    0.24524E-02   -0.10588E-02  4845   0.429E-02    0.130E-01
RMM:   4    -0.413197035641E+03   -0.27539E-01   -0.28607E-02  5138   0.140E-01    0.693E-01
RMM:   5    -0.413168979878E+03    0.28056E-01   -0.13696E-02  4804   0.115E-01    0.454E-02
RMM:   6    -0.413169149577E+03   -0.16970E-03   -0.23523E-03  5809   0.462E-02    0.296E-02
RMM:   7    -0.413169149051E+03    0.52599E-06   -0.35140E-04  5688   0.175E-02    0.186E-02
RMM:   8    -0.413169140392E+03    0.86588E-05   -0.61816E-05  5007   0.833E-03    0.929E-03
RMM:   9    -0.413169135549E+03    0.48430E-05   -0.12484E-05  3928   0.404E-03    0.697E-03
RMM:  10    -0.413169133144E+03    0.24048E-05   -0.16422E-06  2544   0.208E-03    0.442E-03
RMM:  11    -0.413169130539E+03    0.26050E-05   -0.14673E-06  2535   0.190E-03    0.215E-03
RMM:  12    -0.413169127293E+03    0.32459E-05   -0.13677E-06  2523   0.180E-03    0.807E-04
RMM:  13    -0.413169126573E+03    0.71980E-06   -0.41277E-07  2238   0.113E-03
   17 T=    62. E= -.41286653E+03 F= -.41316913E+03 E0= -.41314697E+03  EK= 0.30260E+00 SP= 0.00E+00 SK= 0.00E+00
       N       E                     dE             d eps       ncg     rms          rms(c)
RMM:   1    -0.413164778417E+03    0.43489E-02   -0.10054E+01  4298   0.723E-01    0.889E-01
RMM:   2    -0.413172706995E+03   -0.79286E-02   -0.12369E-01  4255   0.959E-02    0.650E-01
RMM:   3    -0.413169992054E+03    0.27149E-02   -0.11052E-02  4836   0.439E-02    0.121E-01
RMM:   4    -0.413197577437E+03   -0.27585E-01   -0.28657E-02  5133   0.140E-01    0.693E-01
RMM:   5    -0.413169485375E+03    0.28092E-01   -0.13668E-02  4800   0.115E-01    0.448E-02
RMM:   6    -0.413169654283E+03   -0.16891E-03   -0.23693E-03  5813   0.462E-02    0.285E-02
RMM:   7    -0.413169659417E+03   -0.51334E-05   -0.33969E-04  5728   0.171E-02    0.181E-02
RMM:   8    -0.413169654048E+03    0.53686E-05   -0.63953E-05  5006   0.833E-03    0.932E-03
RMM:   9    -0.413169650940E+03    0.31082E-05   -0.12878E-05  3996   0.410E-03    0.699E-03
RMM:  10    -0.413169650846E+03    0.93598E-07   -0.16648E-06  2548   0.208E-03
   18 T=    62. E= -.41286642E+03 F= -.41316965E+03 E0= -.41314753E+03  EK= 0.30323E+00 SP= 0.00E+00 SK= 0.00E+00
       N       E                     dE             d eps       ncg     rms          rms(c)
RMM:   1    -0.413166437605E+03    0.32133E-02   -0.10085E+01  4301   0.726E-01    0.910E-01
RMM:   2    -0.413173591823E+03   -0.71542E-02   -0.12235E-01  4300   0.975E-02    0.647E-01
RMM:   3    -0.413175045774E+03   -0.14540E-02   -0.13944E-02  5105   0.733E-02    0.294E-01
RMM:   4    -0.413200859669E+03   -0.25814E-01   -0.42576E-02  5088   0.174E-01    0.715E-01
RMM:   5    -0.413170819366E+03    0.30040E-01   -0.12317E-02  4716   0.118E-01    0.571E-02
RMM:   6    -0.413170880187E+03   -0.60821E-04   -0.22185E-03  5555   0.468E-02    0.295E-02
RMM:   7    -0.413170884925E+03   -0.47382E-05   -0.36042E-04  5985   0.167E-02    0.183E-02
RMM:   8    -0.413170878264E+03    0.66610E-05   -0.66517E-05  5194   0.888E-03    0.797E-03
RMM:   9    -0.413170871325E+03    0.69386E-05   -0.97391E-06  3489   0.376E-03    0.393E-03
RMM:  10    -0.413170868821E+03    0.25038E-05   -0.21102E-06  2573   0.217E-03    0.263E-03
RMM:  11    -0.413170864843E+03    0.39783E-05   -0.12311E-06  2511   0.178E-03    0.145E-03
RMM:  12    -0.413170861333E+03    0.35098E-05   -0.67110E-07  2452   0.137E-03    0.477E-04
RMM:  13    -0.413170859465E+03    0.18685E-05   -0.32676E-07  2021   0.963E-04    0.287E-04
RMM:  14    -0.413170857785E+03    0.16797E-05   -0.19092E-07  1529   0.774E-04    0.197E-04
RMM:  15    -0.413170855267E+03    0.25184E-05   -0.15336E-07  1352   0.719E-04    0.101E-04
RMM:  16    -0.413170852896E+03    0.23707E-05   -0.12705E-07  1337   0.686E-04    0.108E-04
RMM:  17    -0.413170850179E+03    0.27169E-05   -0.11577E-07  1366   0.662E-04    0.603E-05
RMM:  18    -0.413170848527E+03    0.16519E-05   -0.65175E-08  1013   0.580E-04    0.292E-05
RMM:  19    -0.413170847751E+03    0.77634E-06   -0.35081E-08   842   0.543E-04
   19 T=    62. E= -.41286674E+03 F= -.41317085E+03 E0= -.41314877E+03  EK= 0.30411E+00 SP= 0.00E+00 SK= 0.00E+00
       N       E                     dE             d eps       ncg     rms          rms(c)
RMM:   1    -0.413166682830E+03    0.41657E-02   -0.10029E+01  4296   0.728E-01    0.900E-01
RMM:   2    -0.413173730897E+03   -0.70481E-02   -0.12187E-01  4265   0.970E-02    0.641E-01
RMM:   3    -0.413171752460E+03    0.19784E-02   -0.10918E-02  4914   0.474E-02    0.148E-01
RMM:   4    -0.413207738697E+03   -0.35986E-01   -0.38342E-02  5132   0.162E-01    0.789E-01
RMM:   5    -0.413170985203E+03    0.36753E-01   -0.17891E-02  4794   0.132E-01    0.498E-02
RMM:   6    -0.413171179333E+03   -0.19413E-03   -0.29711E-03  5749   0.533E-02    0.321E-02
RMM:   7    -0.413171178050E+03    0.12829E-05   -0.44580E-04  5740   0.190E-02    0.205E-02
RMM:   8    -0.413171169737E+03    0.83131E-05   -0.72908E-05  5171   0.891E-03    0.100E-02
RMM:   9    -0.413171163169E+03    0.65681E-05   -0.14985E-05  4125   0.434E-03    0.704E-03
RMM:  10    -0.413171159462E+03    0.37070E-05   -0.20666E-06  2575   0.217E-03    0.452E-03
RMM:  11    -0.413171156337E+03    0.31256E-05   -0.12402E-06  2514   0.177E-03    0.244E-03
RMM:  12    -0.413171151428E+03    0.49083E-05   -0.15837E-06  2539   0.193E-03    0.912E-04
RMM:  13    -0.413171149658E+03    0.17702E-05   -0.50932E-07  2342   0.127E-03    0.678E-04
RMM:  14    -0.413171149835E+03   -0.17627E-06   -0.23334E-07  1871   0.847E-04
   20 T=    62. E= -.41286643E+03 F= -.41317115E+03 E0= -.41314912E+03  EK= 0.30472E+00 SP= 0.00E+00 SK= 0.00E+00
       N       E                     dE             d eps       ncg     rms          rms(c)
RMM:   1    -0.413167394022E+03    0.37556E-02   -0.10075E+01  4295   0.740E-01    0.889E-01
RMM:   2    -0.413175358486E+03   -0.79645E-02   -0.12472E-01  4273   0.963E-02    0.650E-01
RMM:   3    -0.413172573767E+03    0.27847E-02   -0.11083E-02  4824   0.460E-02    0.122E-01
RMM:   4    -0.413200066736E+03   -0.27493E-01   -0.28539E-02  5136   0.140E-01    0.692E-01
RMM:   5    -0.413172080232E+03    0.27987E-01   -0.13750E-02  4806   0.115E-01    0.448E-02
RMM:   6    -0.413172239604E+03   -0.15937E-03   -0.23386E-03  5802   0.465E-02    0.283E-02
RMM:   7    -0.413172246614E+03   -0.70100E-05   -0.33378E-04  5713   0.171E-02    0.176E-02
RMM:   8    -0.413172241204E+03    0.54098E-05   -0.66107E-05  5011   0.845E-03    0.946E-03
RMM:   9    -0.413172237070E+03    0.41339E-05   -0.13227E-05  4048   0.418E-03    0.704E-03
RMM:  10    -0.413172236160E+03    0.91003E-06   -0.17136E-06  2554   0.209E-03
   21 T=    62. E= -.41286655E+03 F= -.41317224E+03 E0= -.41315025E+03  EK= 0.30568E+00 SP= 0.00E+00 SK= 0.00E+00
       N       E                     dE             d eps       ncg     rms          rms(c)
RMM:   1    -0.413168848103E+03    0.33890E-02   -0.10129E+01  4294   0.744E-01    0.908E-01
RMM:   2    -0.413176258328E+03   -0.74102E-02   -0.12378E-01  4312   0.971E-02    0.651E-01
RMM:   3    -0.413177507533E+03   -0.12492E-02   -0.14089E-02  5098   0.742E-02    0.294E-01
RMM:   4    -0.413204536402E+03   -0.27029E-01   -0.44102E-02  5090   0.177E-01    0.728E-01
RMM:   5    -0.413173270904E+03    0.31265E-01   -0.12893E-02  4714   0.120E-01    0.571E-02
RMM:   6    -0.413173336978E+03   -0.66074E-04   -0.22989E-03  5562   0.481E-02    0.294E-02
RMM:   7    -0.413173346067E+03   -0.90894E-05   -0.36848E-04  5978   0.170E-02    0.185E-02
RMM:   8    -0.413173339963E+03    0.61039E-05   -0.69029E-05  5184   0.901E-03    0.811E-03
RMM:   9    -0.413173332871E+03    0.70920E-05   -0.10387E-05  3585   0.387E-03    0.395E-03
RMM:  10    -0.413173330397E+03    0.24738E-05   -0.21457E-06  2577   0.218E-03    0.268E-03
RMM:  11    -0.413173326473E+03    0.39243E-05   -0.12148E-06  2507   0.177E-03    0.146E-03
RMM:  12    -0.413173322940E+03    0.35330E-05   -0.66917E-07  2454   0.137E-03    0.458E-04
RMM:  13    -0.413173321071E+03    0.18688E-05   -0.31978E-07  2009   0.955E-04    0.270E-04
RMM:  14    -0.413173319236E+03    0.18356E-05   -0.18813E-07  1511   0.769E-04    0.175E-04
RMM:  15    -0.413173316761E+03    0.24752E-05   -0.14397E-07  1327   0.709E-04    0.979E-05
RMM:  16    -0.413173314454E+03    0.23066E-05   -0.11425E-07  1304   0.674E-04    0.104E-04
RMM:  17    -0.413173311640E+03    0.28140E-05   -0.10658E-07  1339   0.654E-04    0.580E-05
RMM:  18    -0.413173309892E+03    0.17475E-05   -0.60072E-08  1017   0.580E-04    0.265E-05
RMM:  19    -0.413173309145E+03    0.74718E-06   -0.30845E-08   827   0.543E-04
   22 T=    62. E= -.41286658E+03 F= -.41317331E+03 E0= -.41315137E+03  EK= 0.30673E+00 SP= 0.00E+00 SK= 0.00E+00
       N       E                     dE             d eps       ncg     rms          rms(c)
RMM:   1    -0.413169588966E+03    0.37209E-02   -0.10105E+01  4296   0.744E-01    0.910E-01
RMM:   2    -0.413177019291E+03   -0.74303E-02   -0.12306E-01  4278   0.984E-02    0.644E-01
RMM:   3    -0.413174679878E+03    0.23394E-02   -0.11109E-02  4873   0.492E-02    0.149E-01
RMM:   4    -0.413210691811E+03   -0.36012E-01   -0.38224E-02  5135   0.162E-01    0.789E-01
RMM:   5    -0.413173911881E+03    0.36780E-01   -0.17855E-02  4791   0.132E-01    0.504E-02
RMM:   6    -0.413174113076E+03   -0.20119E-03   -0.31162E-03  5756   0.539E-02    0.326E-02
RMM:   7    -0.413174111384E+03    0.16919E-05   -0.45207E-04  5740   0.192E-02    0.209E-02
RMM:   8    -0.413174100351E+03    0.11033E-04   -0.76808E-05  5164   0.914E-03    0.106E-02
RMM:   9    -0.413174092227E+03    0.81243E-05   -0.15460E-05  4184   0.446E-03    0.750E-03
RMM:  10    -0.413174087207E+03    0.50194E-05   -0.21252E-06  2583   0.223E-03    0.482E-03
RMM:  11    -0.413174082969E+03    0.42385E-05   -0.13347E-06  2517   0.184E-03    0.263E-03
RMM:  12    -0.413174076281E+03    0.66881E-05   -0.16688E-06  2539   0.202E-03    0.934E-04
RMM:  13    -0.413174073821E+03    0.24602E-05   -0.54164E-07  2353   0.131E-03    0.716E-04
RMM:  14    -0.413174074099E+03   -0.27892E-06   -0.24920E-07  1931   0.874E-04
   23 T=    63. E= -.41286640E+03 F= -.41317407E+03 E0= -.41315218E+03  EK= 0.30767E+00 SP= 0.00E+00 SK= 0.00E+00
       N       E                     dE             d eps       ncg     rms          rms(c)
RMM:   1    -0.413171453248E+03    0.26206E-02   -0.10119E+01  4293   0.769E-01    0.892E-01
RMM:   2    -0.413178969462E+03   -0.75162E-02   -0.12565E-01  4279   0.101E-01    0.650E-01
RMM:   3    -0.413175835577E+03    0.31339E-02   -0.10903E-02  4716   0.455E-02    0.117E-01
RMM:   4    -0.413196790235E+03   -0.20955E-01   -0.21492E-02  5140   0.122E-01    0.606E-01
RMM:   5    -0.413175474895E+03    0.21315E-01   -0.10560E-02  4812   0.101E-01    0.422E-02
RMM:   6    -0.413175588060E+03   -0.11316E-03   -0.18099E-03  5818   0.403E-02    0.256E-02
RMM:   7    -0.413175589649E+03   -0.15894E-05   -0.21441E-04  5640   0.143E-02    0.126E-02
RMM:   8    -0.413175586432E+03    0.32175E-05   -0.42621E-05  4900   0.667E-03    0.865E-03
RMM:   9    -0.413175582749E+03    0.36823E-05   -0.98534E-06  3711   0.354E-03    0.670E-03
RMM:  10    -0.413175581277E+03    0.14722E-05   -0.15097E-06  2538   0.209E-03    0.431E-03
RMM:  11    -0.413175578978E+03    0.22987E-05   -0.17392E-06  2550   0.206E-03    0.209E-03
RMM:  12    -0.413175575985E+03    0.29937E-05   -0.11779E-06  2491   0.174E-03    0.809E-04
RMM:  13    -0.413175575494E+03    0.49068E-06   -0.36826E-07  2175   0.107E-03
   24 T=    63. E= -.41286669E+03 F= -.41317558E+03 E0= -.41315373E+03  EK= 0.30888E+00 SP= 0.00E+00 SK= 0.00E+00
       N       E                     dE             d eps       ncg     rms          rms(c)
RMM:   1    -0.413172374698E+03    0.32013E-02   -0.10194E+01  4295   0.777E-01    0.907E-01
RMM:   2    -0.413179749341E+03   -0.73746E-02   -0.12587E-01  4281   0.103E-01    0.656E-01
RMM:   3    -0.413176669635E+03    0.30797E-02   -0.11131E-02  4654   0.460E-02    0.115E-01
RMM:   4    -0.413194394897E+03   -0.17725E-01   -0.18099E-02  5144   0.112E-01    0.558E-01
RMM:   5    -0.413176404622E+03    0.17990E-01   -0.89172E-03  4818   0.927E-02    0.411E-02
RMM:   6    -0.413176494480E+03   -0.89858E-04   -0.15533E-03  5824   0.370E-02    0.245E-02
RMM:   7    -0.413176492459E+03    0.20208E-05   -0.18062E-04  5618   0.134E-02    0.118E-02
RMM:   8    -0.413176488454E+03    0.40043E-05   -0.36038E-05  4837   0.618E-03    0.829E-03
RMM:   9    -0.413176484513E+03    0.39410E-05   -0.78031E-06  3417   0.323E-03    0.640E-03
RMM:  10    -0.413176482366E+03    0.21472E-05   -0.13183E-06  2527   0.199E-03    0.409E-03
RMM:  11    -0.413176478449E+03    0.39171E-05   -0.17468E-06  2544   0.209E-03    0.194E-03
RMM:  12    -0.413176474426E+03    0.40226E-05   -0.98687E-07  2459   0.162E-03    0.835E-04
RMM:  13    -0.413176473928E+03    0.49827E-06   -0.32035E-07  2137   0.100E-03
   25 T=    63. E= -.41286650E+03 F= -.41317647E+03 E0= -.41315468E+03  EK= 0.30997E+00 SP= 0.00E+00 SK= 0.00E+00
       N       E                     dE             d eps       ncg     rms          rms(c)
RMM:   1    -0.413173500137E+03    0.29743E-02   -0.10198E+01  4294   0.762E-01    0.919E-01
RMM:   2    -0.413180546223E+03   -0.70461E-02   -0.12438E-01  4274   0.102E-01    0.649E-01
RMM:   3    -0.413177919094E+03    0.26271E-02   -0.11085E-02  4498   0.451E-02    0.118E-01
RMM:   4    -0.413187456621E+03   -0.95375E-02   -0.98844E-03  5145   0.832E-02    0.412E-01
RMM:   5    -0.413177822727E+03    0.96339E-02   -0.48841E-03  4837   0.681E-02    0.391E-02
RMM:   6    -0.413177845939E+03   -0.23213E-04   -0.87595E-04  5815   0.278E-02    0.222E-02
RMM:   7    -0.413177844904E+03    0.10351E-05   -0.19220E-04  5467   0.139E-02    0.154E-02
RMM:   8    -0.413177827302E+03    0.17602E-04   -0.25606E-05  4514   0.609E-03    0.680E-03
RMM:   9    -0.413177823693E+03    0.36085E-05   -0.55316E-06  3088   0.287E-03    0.510E-03
RMM:  10    -0.413177818494E+03    0.51987E-05   -0.13483E-06  2491   0.200E-03    0.290E-03
RMM:  11    -0.413177811803E+03    0.66911E-05   -0.95161E-07  2474   0.166E-03    0.141E-03
RMM:  12    -0.413177806321E+03    0.54825E-05   -0.47886E-07  2321   0.119E-03    0.627E-04
RMM:  13    -0.413177804355E+03    0.19657E-05   -0.23723E-07  1888   0.848E-04    0.301E-04
RMM:  14    -0.413177801714E+03    0.26411E-05   -0.14216E-07  1478   0.720E-04    0.209E-04
RMM:  15    -0.413177796551E+03    0.51632E-05   -0.12885E-07  1454   0.707E-04    0.123E-04
RMM:  16    -0.413177795377E+03    0.11742E-05   -0.50573E-08   959   0.595E-04    0.954E-05
RMM:  17    -0.413177791676E+03    0.37007E-05   -0.66940E-08  1157   0.623E-04    0.591E-05
RMM:  18    -0.413177789155E+03    0.25211E-05   -0.48721E-08  1031   0.582E-04    0.273E-05
RMM:  19    -0.413177788728E+03    0.42709E-06   -0.16795E-08   728   0.523E-04
   26 T=    63. E= -.41286649E+03 F= -.41317779E+03 E0= -.41315604E+03  EK= 0.31130E+00 SP= 0.00E+00 SK= 0.00E+00
       N       E                     dE             d eps       ncg     rms          rms(c)
RMM:   1    -0.413175108563E+03    0.26806E-02   -0.10173E+01  4290   0.785E-01    0.897E-01
RMM:   2    -0.413182451289E+03   -0.73427E-02   -0.12627E-01  4272   0.104E-01    0.651E-01
RMM:   3    -0.413179690817E+03    0.27605E-02   -0.11112E-02  4566   0.490E-02    0.114E-01
RMM:   4    -0.413194442719E+03   -0.14752E-01   -0.15004E-02  5142   0.102E-01    0.510E-01
RMM:   5    -0.413179522766E+03    0.14920E-01   -0.75056E-03  4824   0.844E-02    0.399E-02
RMM:   6    -0.413179581464E+03   -0.58697E-04   -0.12466E-03  5820   0.333E-02    0.234E-02
RMM:   7    -0.413179583203E+03   -0.17395E-05   -0.16740E-04  5560   0.131E-02    0.118E-02
RMM:   8    -0.413179575068E+03    0.81355E-05   -0.29608E-05  4695   0.580E-03    0.735E-03
RMM:   9    -0.413179574185E+03    0.88268E-06   -0.73346E-06  3414   0.321E-03
   27 T=    64. E= -.41286665E+03 F= -.41317957E+03 E0= -.41315788E+03  EK= 0.31293E+00 SP= 0.00E+00 SK= 0.00E+00
       N       E                     dE             d eps       ncg     rms          rms(c)
RMM:   1    -0.413178615818E+03    0.95925E-03   -0.10308E+01  4296   0.810E-01    0.906E-01
RMM:   2    -0.413183844366E+03   -0.52285E-02   -0.13358E-01  4317   0.110E-01    0.662E-01
RMM:   3    -0.413185596992E+03   -0.17526E-02   -0.14729E-02  5101   0.807E-02    0.313E-01
RMM:   4    -0.413213703262E+03   -0.28106E-01   -0.46813E-02  5084   0.183E-01    0.746E-01
RMM:   5    -0.413180718929E+03    0.32984E-01   -0.13417E-02  4715   0.123E-01    0.581E-02
RMM:   6    -0.413180781843E+03   -0.62914E-04   -0.24626E-03  5657   0.482E-02    0.296E-02
RMM:   7    -0.413180794104E+03   -0.12260E-04   -0.38542E-04  5973   0.176E-02    0.194E-02
RMM:   8    -0.413180789520E+03    0.45835E-05   -0.78326E-05  5157   0.954E-03    0.874E-03
RMM:   9    -0.413180781809E+03    0.77112E-05   -0.12204E-05  3871   0.426E-03    0.404E-03
RMM:  10    -0.413180779865E+03    0.19438E-05   -0.23113E-06  2606   0.218E-03    0.272E-03
RMM:  11    -0.413180776401E+03    0.34635E-05   -0.13477E-06  2517   0.181E-03    0.153E-03
RMM:  12    -0.413180773314E+03    0.30872E-05   -0.69548E-07  2452   0.139E-03    0.523E-04
RMM:  13    -0.413180771664E+03    0.16505E-05   -0.33397E-07  2003   0.964E-04    0.285E-04
RMM:  14    -0.413180770259E+03    0.14049E-05   -0.18972E-07  1471   0.770E-04    0.200E-04
RMM:  15    -0.413180767342E+03    0.29173E-05   -0.16062E-07  1297   0.721E-04    0.107E-04
RMM:  16    -0.413180765155E+03    0.21869E-05   -0.11336E-07  1214   0.672E-04    0.986E-05
RMM:  17    -0.413180762342E+03    0.28123E-05   -0.10285E-07  1290   0.661E-04    0.632E-05
RMM:  18    -0.413180760842E+03    0.14998E-05   -0.57579E-08   976   0.587E-04    0.375E-05
RMM:  19    -0.413180760008E+03    0.83455E-06   -0.34086E-08   847   0.558E-04
   28 T=    64. E= -.41286635E+03 F= -.41318076E+03 E0= -.41315911E+03  EK= 0.31441E+00 SP= 0.00E+00 SK= 0.00E+00
       N       E                     dE             d eps       ncg     rms          rms(c)
RMM:   1    -0.413178496210E+03    0.22646E-02   -0.10315E+01  4285   0.783E-01    0.927E-01
RMM:   2    -0.413185581395E+03   -0.70852E-02   -0.12668E-01  4267   0.107E-01    0.656E-01
RMM:   3    -0.413182865828E+03    0.27156E-02   -0.11438E-02  4578   0.486E-02    0.124E-01
RMM:   4    -0.413197445281E+03   -0.14579E-01   -0.14816E-02  5151   0.102E-01    0.507E-01
RMM:   5    -0.413182731101E+03    0.14714E-01   -0.74077E-03  4820   0.836E-02    0.413E-02
RMM:   6    -0.413182783763E+03   -0.52662E-04   -0.12649E-03  5850   0.331E-02    0.248E-02
RMM:   7    -0.413182783101E+03    0.66268E-06   -0.20052E-04  5543   0.143E-02    0.143E-02
RMM:   8    -0.413182768984E+03    0.14117E-04   -0.34851E-05  4778   0.653E-03    0.767E-03
RMM:   9    -0.413182765986E+03    0.29982E-05   -0.74044E-06  3382   0.330E-03    0.602E-03
RMM:  10    -0.413182760548E+03    0.54374E-05   -0.12549E-06  2505   0.200E-03    0.346E-03
RMM:  11    -0.413182755021E+03    0.55266E-05   -0.97375E-07  2492   0.164E-03    0.177E-03
RMM:  12    -0.413182748904E+03    0.61178E-05   -0.78073E-07  2448   0.143E-03    0.835E-04
RMM:  13    -0.413182746938E+03    0.19658E-05   -0.30006E-07  2090   0.970E-04    0.411E-04
RMM:  14    -0.413182745531E+03    0.14068E-05   -0.14299E-07  1456   0.718E-04    0.306E-04
RMM:  15    -0.413182741962E+03    0.35686E-05   -0.11516E-07  1450   0.701E-04    0.129E-04
RMM:  16    -0.413182739522E+03    0.24407E-05   -0.65378E-08  1114   0.624E-04    0.132E-04
RMM:  17    -0.413182737409E+03    0.21123E-05   -0.42768E-08   926   0.584E-04    0.101E-04
RMM:  18    -0.413182733778E+03    0.36317E-05   -0.61530E-08  1128   0.610E-04    0.450E-05
RMM:  19    -0.413182733006E+03    0.77219E-06   -0.19335E-08   738   0.537E-04
   29 T=    64. E= -.41286652E+03 F= -.41318273E+03 E0= -.41316114E+03  EK= 0.31621E+00 SP= 0.00E+00 SK= 0.00E+00
       N       E                     dE             d eps       ncg     rms          rms(c)
RMM:   1    -0.413180809532E+03    0.19242E-02   -0.10283E+01  4287   0.800E-01    0.907E-01
RMM:   2    -0.413187819433E+03   -0.70099E-02   -0.12810E-01  4265   0.113E-01    0.654E-01
RMM:   3    -0.413184783247E+03    0.30362E-02   -0.11332E-02  4516   0.500E-02    0.116E-01
RMM:   4    -0.413196441478E+03   -0.11658E-01   -0.11989E-02  5149   0.921E-02    0.455E-01
RMM:   5    -0.413184637768E+03    0.11804E-01   -0.59901E-03  4830   0.748E-02    0.395E-02
RMM:   6    -0.413184674198E+03   -0.36429E-04   -0.10272E-03  5843   0.299E-02    0.239E-02
RMM:   7    -0.413184675940E+03   -0.17420E-05   -0.20990E-04  5468   0.145E-02    0.154E-02
RMM:   8    -0.413184659977E+03    0.15963E-04   -0.31272E-05  4675   0.651E-03    0.715E-03
RMM:   9    -0.413184657772E+03    0.22045E-05   -0.59331E-06  3112   0.303E-03    0.539E-03
RMM:  10    -0.413184654067E+03    0.37051E-05   -0.13464E-06  2500   0.199E-03    0.305E-03
RMM:  11    -0.413184650263E+03    0.38045E-05   -0.87291E-07  2478   0.158E-03    0.155E-03
RMM:  12    -0.413184646323E+03    0.39402E-05   -0.62783E-07  2394   0.130E-03    0.790E-04
RMM:  13    -0.413184644815E+03    0.15079E-05   -0.26057E-07  1983   0.905E-04    0.342E-04
RMM:  14    -0.413184643403E+03    0.14114E-05   -0.13466E-07  1361   0.704E-04    0.221E-04
RMM:  15    -0.413184640791E+03    0.26127E-05   -0.10087E-07  1279   0.667E-04    0.931E-05
RMM:  16    -0.413184638953E+03    0.18375E-05   -0.58269E-08   981   0.617E-04    0.811E-05
RMM:  17    -0.413184637352E+03    0.16007E-05   -0.42231E-08   914   0.595E-04    0.586E-05
RMM:  18    -0.413184634501E+03    0.28515E-05   -0.53616E-08  1059   0.610E-04    0.294E-05
RMM:  19    -0.413184633871E+03    0.62950E-06   -0.20286E-08   751   0.550E-04
   30 T=    65. E= -.41286652E+03 F= -.41318463E+03 E0= -.41316309E+03  EK= 0.31811E+00 SP= 0.00E+00 SK= 0.00E+00
       N       E                     dE             d eps       ncg     rms          rms(c)
RMM:   1    -0.413182901979E+03    0.17325E-02   -0.10409E+01  4291   0.827E-01    0.909E-01
RMM:   2    -0.413190052235E+03   -0.71503E-02   -0.13300E-01  4267   0.117E-01    0.667E-01
RMM:   3    -0.413186462767E+03    0.35895E-02   -0.11820E-02  4536   0.560E-02    0.113E-01
RMM:   4    -0.413200884763E+03   -0.14422E-01   -0.14628E-02  5144   0.101E-01    0.504E-01
RMM:   5    -0.413186314086E+03    0.14571E-01   -0.73567E-03  4824   0.829E-02    0.399E-02
RMM:   6    -0.413186364226E+03   -0.50141E-04   -0.12236E-03  5864   0.325E-02    0.240E-02
RMM:   7    -0.413186367914E+03   -0.36874E-05   -0.19207E-04  5557   0.139E-02    0.137E-02
RMM:   8    -0.413186356700E+03    0.11214E-04   -0.34458E-05  4786   0.642E-03    0.743E-03
RMM:   9    -0.413186355651E+03    0.10483E-05   -0.74162E-06  3401   0.332E-03    0.582E-03
RMM:  10    -0.413186353334E+03    0.23177E-05   -0.12143E-06  2508   0.196E-03    0.336E-03
RMM:  11    -0.413186351101E+03    0.22329E-05   -0.94190E-07  2491   0.160E-03    0.171E-03
RMM:  12    -0.413186348476E+03    0.26251E-05   -0.80312E-07  2439   0.141E-03    0.830E-04
RMM:  13    -0.413186347538E+03    0.93756E-06   -0.28669E-07  2058   0.951E-04
   31 T=    65. E= -.41286628E+03 F= -.41318635E+03 E0= -.41316485E+03  EK= 0.32006E+00 SP= 0.00E+00 SK= 0.00E+00
       N       E                     dE             d eps       ncg     rms          rms(c)
RMM:   1    -0.413184834593E+03    0.15139E-02   -0.10456E+01  4293   0.813E-01    0.933E-01
RMM:   2    -0.413192126539E+03   -0.72919E-02   -0.13067E-01  4267   0.119E-01    0.664E-01
RMM:   3    -0.413189045000E+03    0.30815E-02   -0.11775E-02  4324   0.561E-02    0.117E-01
RMM:   4    -0.413192573914E+03   -0.35289E-02   -0.41166E-03  5150   0.539E-02    0.252E-01
RMM:   5    -0.413189042442E+03    0.35315E-02   -0.18180E-03  4826   0.417E-02    0.379E-02
RMM:   6    -0.413189052861E+03   -0.10419E-04   -0.50171E-04  5677   0.216E-02    0.257E-02
RMM:   7    -0.413189025570E+03    0.27291E-04   -0.20461E-04  5152   0.146E-02    0.149E-02
RMM:   8    -0.413189016677E+03    0.88931E-05   -0.14553E-05  3878   0.493E-03    0.589E-03
RMM:   9    -0.413189013736E+03    0.29411E-05   -0.19933E-06  2546   0.209E-03    0.379E-03
RMM:  10    -0.413189007014E+03    0.67221E-05   -0.10855E-06  2479   0.168E-03    0.191E-03
RMM:  11    -0.413189002032E+03    0.49817E-05   -0.57754E-07  2338   0.123E-03    0.899E-04
RMM:  12    -0.413188996851E+03    0.51813E-05   -0.34471E-07  2057   0.979E-04    0.332E-04
RMM:  13    -0.413188993369E+03    0.34822E-05   -0.18230E-07  1559   0.762E-04    0.230E-04
RMM:  14    -0.413188989611E+03    0.37574E-05   -0.10633E-07  1176   0.668E-04    0.157E-04
RMM:  15    -0.413188984130E+03    0.54808E-05   -0.99987E-08  1249   0.671E-04    0.832E-05
RMM:  16    -0.413188982177E+03    0.19538E-05   -0.52167E-08   990   0.596E-04    0.684E-05
RMM:  17    -0.413188977759E+03    0.44181E-05   -0.70700E-08  1282   0.625E-04    0.394E-05
RMM:  18    -0.413188976954E+03    0.80431E-06   -0.25717E-08   775   0.522E-04
   32 T=    66. E= -.41286661E+03 F= -.41318898E+03 E0= -.41316753E+03  EK= 0.32236E+00 SP= 0.00E+00 SK= 0.00E+00
       N       E                     dE             d eps       ncg     rms          rms(c)
RMM:   1    -0.413186519223E+03    0.24585E-02   -0.10428E+01  4295   0.826E-01    0.921E-01
RMM:   2    -0.413194100491E+03   -0.75813E-02   -0.13161E-01  4272   0.125E-01    0.660E-01
RMM:   3    -0.413190866528E+03    0.32340E-02   -0.11502E-02  4342   0.535E-02    0.117E-01
RMM:   4    -0.413193834006E+03   -0.29675E-02   -0.35697E-03  5140   0.509E-02    0.228E-01
RMM:   5    -0.413190938104E+03    0.28959E-02   -0.14670E-03  4818   0.379E-02    0.376E-02
RMM:   6    -0.413190950169E+03   -0.12065E-04   -0.44932E-04  5631   0.207E-02    0.268E-02
RMM:   7    -0.413190924349E+03    0.25820E-04   -0.20847E-04  5089   0.143E-02    0.153E-02
RMM:   8    -0.413190916448E+03    0.79010E-05   -0.16293E-05  3972   0.495E-03    0.590E-03
RMM:   9    -0.413190914321E+03    0.21270E-05   -0.21581E-06  2541   0.209E-03    0.361E-03
RMM:  10    -0.413190908642E+03    0.56787E-05   -0.95586E-07  2470   0.160E-03    0.185E-03
RMM:  11    -0.413190904610E+03    0.40325E-05   -0.53617E-07  2286   0.116E-03    0.830E-04
RMM:  12    -0.413190900109E+03    0.45013E-05   -0.31726E-07  2007   0.938E-04    0.288E-04
RMM:  13    -0.413190897346E+03    0.27622E-05   -0.15593E-07  1446   0.729E-04    0.205E-04
RMM:  14    -0.413190894047E+03    0.32990E-05   -0.92177E-08  1098   0.654E-04    0.142E-04
RMM:  15    -0.413190889636E+03    0.44115E-05   -0.83251E-08  1122   0.649E-04    0.736E-05
RMM:  16    -0.413190888046E+03    0.15894E-05   -0.43463E-08   901   0.593E-04    0.597E-05
RMM:  17    -0.413190884218E+03    0.38282E-05   -0.61504E-08  1180   0.620E-04    0.402E-05
RMM:  18    -0.413190883492E+03    0.72616E-06   -0.22663E-08   743   0.531E-04
   33 T=    66. E= -.41286646E+03 F= -.41319088E+03 E0= -.41316948E+03  EK= 0.32442E+00 SP= 0.00E+00 SK= 0.00E+00
       N       E                     dE             d eps       ncg     rms          rms(c)
RMM:   1    -0.413194886211E+03   -0.40020E-02   -0.10592E+01  4299   0.902E-01    0.913E-01
RMM:   2    -0.413196753483E+03   -0.18673E-02   -0.14759E-01  4265   0.134E-01    0.674E-01
RMM:   3    -0.413193137808E+03    0.36157E-02   -0.11199E-02  4215   0.540E-02    0.123E-01
RMM:   4    -0.413193229389E+03   -0.91581E-04   -0.10747E-03  4540   0.218E-02    0.366E-02
RMM:   5    -0.413193372527E+03   -0.14314E-03   -0.21578E-04  5093   0.137E-02    0.610E-02
RMM:   6    -0.413193234593E+03    0.13793E-03   -0.24533E-04  5192   0.152E-02    0.275E-02
RMM:   7    -0.413193195333E+03    0.39260E-04   -0.16717E-04  4935   0.133E-02    0.116E-02
RMM:   8    -0.413193193589E+03    0.17435E-05   -0.15049E-05  3827   0.447E-03    0.377E-03
RMM:   9    -0.413193192918E+03    0.67117E-06   -0.18136E-06  2455   0.198E-03
   34 T=    67. E= -.41286646E+03 F= -.41319319E+03 E0= -.41317184E+03  EK= 0.32674E+00 SP= 0.00E+00 SK= 0.00E+00
       N       E                     dE             d eps       ncg     rms          rms(c)
RMM:   1    -0.413194072882E+03   -0.87929E-03   -0.10637E+01  4302   0.897E-01    0.938E-01
RMM:   2    -0.413199027096E+03   -0.49542E-02   -0.13720E-01  4261   0.127E-01    0.673E-01
RMM:   3    -0.413195875738E+03    0.31514E-02   -0.11861E-02  4440   0.562E-02    0.121E-01
RMM:   4    -0.413202384056E+03   -0.65083E-02   -0.69978E-03  5176   0.711E-02    0.342E-01
RMM:   5    -0.413195882410E+03    0.65016E-02   -0.33329E-03  4823   0.569E-02    0.407E-02
RMM:   6    -0.413195873543E+03    0.88663E-05   -0.68831E-04  5714   0.264E-02    0.303E-02
RMM:   7    -0.413195855780E+03    0.17763E-04   -0.24686E-04  5252   0.151E-02    0.153E-02
RMM:   8    -0.413195845793E+03    0.99867E-05   -0.24772E-05  4596   0.581E-03    0.671E-03
RMM:   9    -0.413195843133E+03    0.26603E-05   -0.37319E-06  2745   0.237E-03    0.364E-03
RMM:  10    -0.413195836449E+03    0.66841E-05   -0.11223E-06  2488   0.175E-03    0.188E-03
RMM:  11    -0.413195830347E+03    0.61023E-05   -0.62294E-07  2412   0.127E-03    0.982E-04
RMM:  12    -0.413195824967E+03    0.53802E-05   -0.37090E-07  2088   0.101E-03    0.407E-04
RMM:  13    -0.413195821410E+03    0.35562E-05   -0.19339E-07  1535   0.776E-04    0.230E-04
RMM:  14    -0.413195817513E+03    0.38970E-05   -0.11881E-07  1161   0.684E-04    0.170E-04
RMM:  15    -0.413195811199E+03    0.63146E-05   -0.11289E-07  1246   0.685E-04    0.898E-05
RMM:  16    -0.413195808762E+03    0.24368E-05   -0.62735E-08  1037   0.609E-04    0.771E-05
RMM:  17    -0.413195805183E+03    0.35785E-05   -0.62642E-08  1178   0.616E-04    0.450E-05
RMM:  18    -0.413195802935E+03    0.22482E-05   -0.37719E-08   922   0.558E-04    0.212E-05
RMM:  19    -0.413195802516E+03    0.41922E-06   -0.16173E-08   645   0.513E-04
   35 T=    67. E= -.41286654E+03 F= -.41319580E+03 E0= -.41317450E+03  EK= 0.32926E+00 SP= 0.00E+00 SK= 0.00E+00
       N       E                     dE             d eps       ncg     rms          rms(c)
RMM:   1    -0.413194130958E+03    0.16720E-02   -0.10617E+01  4297   0.899E-01    0.937E-01
RMM:   2    -0.413200775288E+03   -0.66443E-02   -0.13664E-01  4251   0.131E-01    0.668E-01
RMM:   3    -0.413198081136E+03    0.26942E-02   -0.11918E-02  4623   0.582E-02    0.136E-01
RMM:   4    -0.413218987987E+03   -0.20907E-01   -0.21095E-02  5163   0.122E-01    0.606E-01
RMM:   5    -0.413197900760E+03    0.21087E-01   -0.10695E-02  4812   0.100E-01    0.449E-02
RMM:   6    -0.413197919845E+03   -0.19085E-04   -0.17671E-03  5842   0.403E-02    0.291E-02
RMM:   7    -0.413197926065E+03   -0.62206E-05   -0.30446E-04  5578   0.169E-02    0.174E-02
RMM:   8    -0.413197910226E+03    0.15840E-04   -0.53584E-05  4995   0.799E-03    0.882E-03
RMM:   9    -0.413197907077E+03    0.31492E-05   -0.11244E-05  3865   0.405E-03    0.624E-03
RMM:  10    -0.413197900821E+03    0.62557E-05   -0.16655E-06  2558   0.223E-03    0.351E-03
RMM:  11    -0.413197896303E+03    0.45173E-05   -0.91396E-07  2490   0.159E-03    0.203E-03
RMM:  12    -0.413197887817E+03    0.84868E-05   -0.11563E-06  2499   0.174E-03    0.103E-03
RMM:  13    -0.413197884017E+03    0.38000E-05   -0.42953E-07  2239   0.116E-03    0.561E-04
RMM:  14    -0.413197883237E+03    0.77947E-06   -0.19259E-07  1715   0.795E-04
   36 T=    68. E= -.41286618E+03 F= -.41319788E+03 E0= -.41317662E+03  EK= 0.33170E+00 SP= 0.00E+00 SK= 0.00E+00
       N       E                     dE             d eps       ncg     rms          rms(c)
RMM:   1    -0.413213639357E+03   -0.15755E-01   -0.10853E+01  4303   0.104E+00    0.921E-01
RMM:   2    -0.413204645598E+03    0.89938E-02   -0.16178E-01  4251   0.144E-01    0.680E-01
RMM:   3    -0.413201095866E+03    0.35497E-02   -0.10862E-02  4599   0.568E-02    0.154E-01
RMM:   4    -0.413219800019E+03   -0.18704E-01   -0.19165E-02  5162   0.117E-01    0.574E-01
RMM:   5    -0.413200960875E+03    0.18839E-01   -0.95185E-03  4808   0.951E-02    0.441E-02
RMM:   6    -0.413200977037E+03   -0.16163E-04   -0.16150E-03  5839   0.381E-02    0.285E-02
RMM:   7    -0.413200985400E+03   -0.83630E-05   -0.30204E-04  5557   0.165E-02    0.173E-02
RMM:   8    -0.413200969496E+03    0.15904E-04   -0.53399E-05  4977   0.804E-03    0.833E-03
RMM:   9    -0.413200967567E+03    0.19291E-05   -0.10284E-05  3745   0.393E-03    0.571E-03
RMM:  10    -0.413200963405E+03    0.41620E-05   -0.15261E-06  2543   0.212E-03    0.331E-03
RMM:  11    -0.413200959887E+03    0.35185E-05   -0.91447E-07  2495   0.156E-03    0.183E-03
RMM:  12    -0.413200954103E+03    0.57838E-05   -0.10184E-06  2481   0.158E-03    0.898E-04
RMM:  13    -0.413200951563E+03    0.25399E-05   -0.39053E-07  2174   0.107E-03    0.486E-04
RMM:  14    -0.413200950774E+03    0.78889E-06   -0.17702E-07  1529   0.758E-04
   37 T=    68. E= -.41286646E+03 F= -.41320095E+03 E0= -.41317973E+03  EK= 0.33449E+00 SP= 0.00E+00 SK= 0.00E+00
       N       E                     dE             d eps       ncg     rms          rms(c)
RMM:   1    -0.413222125558E+03   -0.21174E-01   -0.11020E+01  4305   0.108E+00    0.940E-01
RMM:   2    -0.413207340533E+03    0.14785E-01   -0.16444E-01  4250   0.136E-01    0.685E-01
RMM:   3    -0.413203809016E+03    0.35315E-02   -0.11144E-02  4762   0.561E-02    0.173E-01
RMM:   4    -0.413239091693E+03   -0.35283E-01   -0.36102E-02  5151   0.159E-01    0.782E-01
RMM:   5    -0.413203354445E+03    0.35737E-01   -0.18106E-02  4802   0.131E-01    0.502E-02
RMM:   6    -0.413203437733E+03   -0.83287E-04   -0.28726E-03  5855   0.504E-02    0.317E-02
RMM:   7    -0.413203444773E+03   -0.70407E-05   -0.35263E-04  5695   0.177E-02    0.165E-02
RMM:   8    -0.413203435602E+03    0.91710E-05   -0.58856E-05  5004   0.791E-03    0.968E-03
RMM:   9    -0.413203433780E+03    0.18223E-05   -0.21502E-05  4575   0.498E-03    0.740E-03
RMM:  10    -0.413203427441E+03    0.63390E-05   -0.27873E-06  2653   0.263E-03    0.426E-03
RMM:  11    -0.413203423962E+03    0.34789E-05   -0.13796E-06  2501   0.189E-03    0.264E-03
RMM:  12    -0.413203415206E+03    0.87561E-05   -0.18273E-06  2545   0.220E-03    0.125E-03
RMM:  13    -0.413203411643E+03    0.35626E-05   -0.65268E-07  2395   0.144E-03    0.828E-04
RMM:  14    -0.413203411462E+03    0.18135E-06   -0.25394E-07  1995   0.914E-04
   38 T=    69. E= -.41286634E+03 F= -.41320341E+03 E0= -.41318223E+03  EK= 0.33708E+00 SP= 0.00E+00 SK= 0.00E+00
       N       E                     dE             d eps       ncg     rms          rms(c)
RMM:   1    -0.413212633290E+03   -0.92216E-02   -0.10924E+01  4302   0.104E+00    0.954E-01
RMM:   2    -0.413209648391E+03    0.29849E-02   -0.14126E-01  4256   0.124E-01    0.677E-01
RMM:   3    -0.413206499685E+03    0.31487E-02   -0.12481E-02  4864   0.553E-02    0.159E-01
RMM:   4    -0.413244345718E+03   -0.37846E-01   -0.39378E-02  5138   0.166E-01    0.809E-01
RMM:   5    -0.413205910225E+03    0.38435E-01   -0.19235E-02  4805   0.135E-01    0.523E-02
RMM:   6    -0.413206006706E+03   -0.96481E-04   -0.31064E-03  5835   0.522E-02    0.327E-02
RMM:   7    -0.413206013275E+03   -0.65691E-05   -0.38312E-04  5720   0.183E-02    0.174E-02
RMM:   8    -0.413206001784E+03    0.11490E-04   -0.62778E-05  5025   0.815E-03    0.102E-02
RMM:   9    -0.413205998418E+03    0.33668E-05   -0.22152E-05  4583   0.504E-03    0.769E-03
RMM:  10    -0.413205990100E+03    0.83172E-05   -0.28991E-06  2663   0.268E-03    0.442E-03
RMM:  11    -0.413205985234E+03    0.48664E-05   -0.14193E-06  2497   0.193E-03    0.274E-03
RMM:  12    -0.413205973189E+03    0.12045E-04   -0.18211E-06  2537   0.222E-03    0.129E-03
RMM:  13    -0.413205968194E+03    0.49950E-05   -0.68362E-07  2418   0.148E-03    0.861E-04
RMM:  14    -0.413205967900E+03    0.29409E-06   -0.26760E-07  2058   0.936E-04
   39 T=    69. E= -.41286627E+03 F= -.41320597E+03 E0= -.41318483E+03  EK= 0.33970E+00 SP= 0.00E+00 SK= 0.00E+00
       N       E                     dE             d eps       ncg     rms          rms(c)
RMM:   1    -0.413228129511E+03   -0.22161E-01   -0.11069E+01  4308   0.116E+00    0.932E-01
RMM:   2    -0.413213038484E+03    0.15091E-01   -0.16703E-01  4260   0.135E-01    0.684E-01
RMM:   3    -0.413209808996E+03    0.32295E-02   -0.11379E-02  4956   0.573E-02    0.202E-01
RMM:   4    -0.413262111916E+03   -0.52303E-01   -0.56359E-02  5137   0.198E-01    0.947E-01
RMM:   5    -0.413208676852E+03    0.53435E-01   -0.26461E-02  4790   0.159E-01    0.579E-02
RMM:   6    -0.413208847069E+03   -0.17022E-03   -0.42686E-03  5833   0.609E-02    0.348E-02
RMM:   7    -0.413208857034E+03   -0.99651E-05   -0.48163E-04  5780   0.199E-02    0.194E-02
RMM:   8    -0.413208857170E+03   -0.13657E-06   -0.96950E-05  5216   0.956E-03    0.124E-02
RMM:   9    -0.413208846483E+03    0.10687E-04   -0.28885E-05  4733   0.581E-03    0.734E-03
RMM:  10    -0.413208841680E+03    0.48033E-05   -0.44743E-06  2820   0.299E-03    0.445E-03
RMM:  11    -0.413208837762E+03    0.39178E-05   -0.17305E-06  2510   0.215E-03    0.267E-03
RMM:  12    -0.413208829663E+03    0.80991E-05   -0.16325E-06  2522   0.212E-03    0.923E-04
RMM:  13    -0.413208825575E+03    0.40882E-05   -0.67305E-07  2425   0.144E-03    0.741E-04
RMM:  14    -0.413208825154E+03    0.42029E-06   -0.28304E-07  2074   0.948E-04
   40 T=    70. E= -.41286650E+03 F= -.41320883E+03 E0= -.41318773E+03  EK= 0.34232E+00 SP= 0.00E+00 SK= 0.00E+00
       N       E                     dE             d eps       ncg     rms          rms(c)
RMM:   1    -0.413227315105E+03   -0.18490E-01   -0.11165E+01  4306   0.118E+00    0.944E-01
RMM:   2    -0.413215149137E+03    0.12166E-01   -0.17304E-01  4267   0.141E-01    0.695E-01
RMM:   3    -0.413212442871E+03    0.27063E-02   -0.12064E-02  5014   0.621E-02    0.234E-01
RMM:   4    -0.413269165129E+03   -0.56722E-01   -0.64554E-02  5128   0.212E-01    0.989E-01
RMM:   5    -0.413210662725E+03    0.58502E-01   -0.28336E-02  4779   0.166E-01    0.616E-02
RMM:   6    -0.413210852504E+03   -0.18978E-03   -0.46732E-03  5819   0.638E-02    0.359E-02
RMM:   7    -0.413210866697E+03   -0.14194E-04   -0.56963E-04  5824   0.212E-02    0.226E-02
RMM:   8    -0.413210866910E+03   -0.21315E-06   -0.12852E-04  5270   0.112E-02    0.141E-02
RMM:   9    -0.413210853142E+03    0.13768E-04   -0.27813E-05  4691   0.616E-03    0.676E-03
RMM:  10    -0.413210848690E+03    0.44526E-05   -0.57669E-06  2998   0.306E-03    0.420E-03
RMM:  11    -0.413210845144E+03    0.35456E-05   -0.15801E-06  2507   0.208E-03    0.250E-03
RMM:  12    -0.413210838328E+03    0.68164E-05   -0.13686E-06  2500   0.196E-03    0.846E-04
RMM:  13    -0.413210834385E+03    0.39430E-05   -0.63118E-07  2411   0.138E-03    0.596E-04
RMM:  14    -0.413210833687E+03    0.69745E-06   -0.28325E-07  2042   0.938E-04
   41 T=    70. E= -.41286633E+03 F= -.41321083E+03 E0= -.41318977E+03  EK= 0.34451E+00 SP= 0.00E+00 SK= 0.00E+00
       N       E                     dE             d eps       ncg     rms          rms(c)
RMM:   1    -0.413215548361E+03   -0.47140E-02   -0.11044E+01  4309   0.116E+00    0.967E-01
RMM:   2    -0.413216842324E+03   -0.12940E-02   -0.14921E-01  4291   0.136E-01    0.687E-01
RMM:   3    -0.413216565351E+03    0.27697E-03   -0.14829E-02  5066   0.746E-02    0.280E-01
RMM:   4    -0.413256019788E+03   -0.39454E-01   -0.54104E-02  5091   0.196E-01    0.851E-01
RMM:   5    -0.413213212947E+03    0.42807E-01   -0.19199E-02  4745   0.141E-01    0.597E-02
RMM:   6    -0.413213308603E+03   -0.95656E-04   -0.33835E-03  5788   0.546E-02    0.350E-02
RMM:   7    -0.413213312160E+03   -0.35575E-05   -0.45791E-04  5751   0.196E-02    0.221E-02
RMM:   8    -0.413213308066E+03    0.40942E-05   -0.12428E-04  5208   0.113E-02    0.129E-02
RMM:   9    -0.413213292581E+03    0.15485E-04   -0.21669E-05  4504   0.577E-03    0.552E-03
RMM:  10    -0.413213286553E+03    0.60278E-05   -0.46668E-06  2890   0.278E-03    0.347E-03
RMM:  11    -0.413213280832E+03    0.57211E-05   -0.12689E-06  2500   0.191E-03    0.193E-03
RMM:  12    -0.413213271430E+03    0.94017E-05   -0.88653E-07  2465   0.163E-03    0.718E-04
RMM:  13    -0.413213266021E+03    0.54088E-05   -0.42544E-07  2275   0.114E-03    0.387E-04
RMM:  14    -0.413213264057E+03    0.19641E-05   -0.21737E-07  1812   0.832E-04    0.265E-04
RMM:  15    -0.413213259156E+03    0.49013E-05   -0.13053E-07  1382   0.712E-04    0.132E-04
RMM:  16    -0.413213254574E+03    0.45821E-05   -0.89444E-08  1220   0.663E-04    0.138E-04
RMM:  17    -0.413213251066E+03    0.35075E-05   -0.63812E-08  1114   0.629E-04    0.851E-05
RMM:  18    -0.413213247519E+03    0.35472E-05   -0.56532E-08  1205   0.621E-04    0.586E-05
RMM:  19    -0.413213244773E+03    0.27462E-05   -0.40252E-08  1090   0.589E-04    0.354E-05
RMM:  20    -0.413213244358E+03    0.41477E-06   -0.18845E-08   774   0.535E-04
   42 T=    71. E= -.41286657E+03 F= -.41321324E+03 E0= -.41319221E+03  EK= 0.34667E+00 SP= 0.00E+00 SK= 0.00E+00
       N       E                     dE             d eps       ncg     rms          rms(c)
RMM:   1    -0.413235248065E+03   -0.22003E-01   -0.11176E+01  4310   0.132E+00    0.944E-01
RMM:   2    -0.413218822618E+03    0.16425E-01   -0.16497E-01  4308   0.150E-01    0.688E-01
RMM:   3    -0.413220091368E+03   -0.12687E-02   -0.15354E-02  5085   0.841E-02    0.335E-01
RMM:   4    -0.413253793572E+03   -0.33702E-01   -0.53490E-02  5086   0.196E-01    0.811E-01
RMM:   5    -0.413215144816E+03    0.38649E-01   -0.16642E-02  4719   0.135E-01    0.604E-02
RMM:   6    -0.413215200569E+03   -0.55753E-04   -0.29929E-03  5742   0.518E-02    0.343E-02
RMM:   7    -0.413215201539E+03   -0.97021E-06   -0.43695E-04  5778   0.191E-02    0.227E-02
RMM:   8    -0.413215196467E+03    0.50720E-05   -0.11797E-04  5171   0.112E-02    0.117E-02
RMM:   9    -0.413215184113E+03    0.12354E-04   -0.20058E-05  4452   0.562E-03    0.465E-03
RMM:  10    -0.413215180557E+03    0.35560E-05   -0.40042E-06  2793   0.257E-03    0.291E-03
RMM:  11    -0.413215176219E+03    0.43373E-05   -0.12850E-06  2494   0.187E-03    0.157E-03
RMM:  12    -0.413215170685E+03    0.55348E-05   -0.73247E-07  2430   0.146E-03    0.620E-04
RMM:  13    -0.413215167562E+03    0.31230E-05   -0.36641E-07  2077   0.103E-03    0.292E-04
RMM:  14    -0.413215165280E+03    0.22817E-05   -0.20355E-07  1587   0.796E-04    0.183E-04
RMM:  15    -0.413215161010E+03    0.42699E-05   -0.14625E-07  1334   0.725E-04    0.114E-04
RMM:  16    -0.413215158974E+03    0.20362E-05   -0.89950E-08  1124   0.661E-04    0.827E-05
RMM:  17    -0.413215156188E+03    0.27861E-05   -0.74199E-08  1174   0.652E-04    0.488E-05
RMM:  18    -0.413215153717E+03    0.24707E-05   -0.58534E-08  1130   0.621E-04    0.374E-05
RMM:  19    -0.413215152080E+03    0.16373E-05   -0.36055E-08   920   0.575E-04    0.229E-05
RMM:  20    -0.413215151549E+03    0.53065E-06   -0.22352E-08   790   0.551E-04
   43 T=    71. E= -.41286666E+03 F= -.41321515E+03 E0= -.41319415E+03  EK= 0.34850E+00 SP= 0.00E+00 SK= 0.00E+00
       N       E                     dE             d eps       ncg     rms          rms(c)
RMM:   1    -0.413233380380E+03   -0.18228E-01   -0.11247E+01  4312   0.135E+00    0.947E-01
RMM:   2    -0.413220258283E+03    0.13122E-01   -0.16711E-01  4311   0.162E-01    0.701E-01
RMM:   3    -0.413222393283E+03   -0.21350E-02   -0.16832E-02  5075   0.923E-02    0.361E-01
RMM:   4    -0.413253924287E+03   -0.31531E-01   -0.54304E-02  5062   0.198E-01    0.799E-01
RMM:   5    -0.413216365559E+03    0.37559E-01   -0.15703E-02  4711   0.133E-01    0.603E-02
RMM:   6    -0.413216404308E+03   -0.38748E-04   -0.28512E-03  5716   0.505E-02    0.336E-02
RMM:   7    -0.413216404339E+03   -0.31763E-07   -0.41105E-04  5776   0.188E-02    0.224E-02
RMM:   8    -0.413216399852E+03    0.44878E-05   -0.11204E-04  5152   0.110E-02    0.113E-02
RMM:   9    -0.413216388972E+03    0.10880E-04   -0.19594E-05  4417   0.560E-03    0.442E-03
RMM:  10    -0.413216386362E+03    0.26096E-05   -0.37432E-06  2773   0.250E-03    0.272E-03
RMM:  11    -0.413216382881E+03    0.34808E-05   -0.13104E-06  2506   0.185E-03    0.149E-03
RMM:  12    -0.413216378802E+03    0.40794E-05   -0.70809E-07  2434   0.142E-03    0.611E-04
RMM:  13    -0.413216376381E+03    0.24207E-05   -0.35565E-07  1999   0.992E-04    0.283E-04
RMM:  14    -0.413216374327E+03    0.20545E-05   -0.20435E-07  1522   0.784E-04    0.169E-04
RMM:  15    -0.413216370934E+03    0.33932E-05   -0.15238E-07  1305   0.720E-04    0.101E-04
RMM:  16    -0.413216369127E+03    0.18064E-05   -0.94322E-08  1127   0.661E-04    0.785E-05
RMM:  17    -0.413216366444E+03    0.26830E-05   -0.78990E-08  1165   0.650E-04    0.448E-05
RMM:  18    -0.413216364595E+03    0.18488E-05   -0.54505E-08  1036   0.612E-04    0.375E-05
RMM:  19    -0.413216363255E+03    0.13408E-05   -0.36906E-08   936   0.583E-04    0.216E-05
RMM:  20    -0.413216362730E+03    0.52432E-06   -0.21692E-08   773   0.553E-04
   44 T=    71. E= -.41286648E+03 F= -.41321636E+03 E0= -.41319539E+03  EK= 0.34988E+00 SP= 0.00E+00 SK= 0.00E+00
       N       E                     dE             d eps       ncg     rms          rms(c)
RMM:   1    -0.413248175293E+03   -0.31812E-01   -0.11372E+01  4311   0.150E+00    0.972E-01
RMM:   2    -0.413221136560E+03    0.27039E-01   -0.16705E-01  4338   0.168E-01    0.696E-01
RMM:   3    -0.413227472893E+03   -0.63363E-02   -0.20195E-02  5118   0.108E-01    0.447E-01
RMM:   4    -0.413241824630E+03   -0.14352E-01   -0.44862E-02  5043   0.183E-01    0.647E-01
RMM:   5    -0.413217814954E+03    0.24010E-01   -0.90685E-03  4642   0.109E-01    0.574E-02
RMM:   6    -0.413217793622E+03    0.21332E-04   -0.18632E-03  5576   0.415E-02    0.328E-02
RMM:   7    -0.413217785854E+03    0.77675E-05   -0.31716E-04  5636   0.172E-02    0.218E-02
RMM:   8    -0.413217774559E+03    0.11295E-04   -0.11408E-04  5070   0.112E-02    0.102E-02
RMM:   9    -0.413217761263E+03    0.13296E-04   -0.15411E-05  4264   0.537E-03    0.418E-03
RMM:  10    -0.413217757337E+03    0.39254E-05   -0.27566E-06  2690   0.227E-03    0.244E-03
RMM:  11    -0.413217751122E+03    0.62156E-05   -0.11671E-06  2481   0.177E-03    0.133E-03
RMM:  12    -0.413217744979E+03    0.61430E-05   -0.59832E-07  2413   0.134E-03    0.638E-04
RMM:  13    -0.413217741278E+03    0.37006E-05   -0.28334E-07  1873   0.920E-04    0.299E-04
RMM:  14    -0.413217737802E+03    0.34762E-05   -0.15917E-07  1389   0.731E-04    0.161E-04
RMM:  15    -0.413217732700E+03    0.51024E-05   -0.12398E-07  1288   0.699E-04    0.122E-04
RMM:  16    -0.413217729912E+03    0.27873E-05   -0.79218E-08  1118   0.640E-04    0.988E-05
RMM:  17    -0.413217725029E+03    0.48833E-05   -0.79793E-08  1330   0.653E-04    0.688E-05
RMM:  18    -0.413217722915E+03    0.21135E-05   -0.43823E-08   990   0.569E-04    0.457E-05
RMM:  19    -0.413217721619E+03    0.12960E-05   -0.28184E-08   832   0.540E-04    0.247E-05
RMM:  20    -0.413217720992E+03    0.62784E-06   -0.19086E-08   749   0.528E-04
   45 T=    71. E= -.41286680E+03 F= -.41321772E+03 E0= -.41319677E+03  EK= 0.35092E+00 SP= 0.00E+00 SK= 0.00E+00
       N       E                     dE             d eps       ncg     rms          rms(c)
RMM:   1    -0.413252745748E+03   -0.35024E-01   -0.11308E+01  4310   0.158E+00    0.954E-01
RMM:   2    -0.413221001243E+03    0.31745E-01   -0.17593E-01  4357   0.182E-01    0.692E-01
RMM:   3    -0.413229523748E+03   -0.85225E-02   -0.21304E-02  5116   0.116E-01    0.497E-01
RMM:   4    -0.413237971566E+03   -0.84478E-02   -0.43355E-02  5029   0.181E-01    0.602E-01
RMM:   5    -0.413217606339E+03    0.20365E-01   -0.75729E-03  4609   0.103E-01    0.570E-02
RMM:   6    -0.413217564195E+03    0.42144E-04   -0.15384E-03  5460   0.383E-02    0.317E-02
RMM:   7    -0.413217558650E+03    0.55445E-05   -0.27053E-04  5612   0.161E-02    0.213E-02
RMM:   8    -0.413217547626E+03    0.11024E-04   -0.12292E-04  5076   0.115E-02    0.102E-02
RMM:   9    -0.413217533955E+03    0.13671E-04   -0.16094E-05  4311   0.554E-03    0.410E-03
RMM:  10    -0.413217530717E+03    0.32372E-05   -0.28558E-06  2716   0.224E-03    0.236E-03
RMM:  11    -0.413217524812E+03    0.59056E-05   -0.12099E-06  2480   0.180E-03    0.129E-03
RMM:  12    -0.413217519974E+03    0.48383E-05   -0.56827E-07  2418   0.132E-03    0.684E-04
RMM:  13    -0.413217516382E+03    0.35917E-05   -0.26897E-07  1827   0.904E-04    0.324E-04
RMM:  14    -0.413217512833E+03    0.35483E-05   -0.14787E-07  1364   0.716E-04    0.169E-04
RMM:  15    -0.413217508739E+03    0.40946E-05   -0.10738E-07  1213   0.670E-04    0.115E-04
RMM:  16    -0.413217505999E+03    0.27395E-05   -0.71493E-08  1108   0.628E-04    0.102E-04
RMM:  17    -0.413217501952E+03    0.40476E-05   -0.68790E-08  1263   0.639E-04    0.638E-05
RMM:  18    -0.413217499461E+03    0.24907E-05   -0.41944E-08  1021   0.572E-04    0.478E-05
RMM:  19    -0.413217498500E+03    0.96143E-06   -0.20671E-08   765   0.525E-04
   46 T=    71. E= -.41286670E+03 F= -.41321750E+03 E0= -.41319656E+03  EK= 0.35079E+00 SP= 0.00E+00 SK= 0.00E+00
       N       E                     dE             d eps       ncg     rms          rms(c)
RMM:   1    -0.413237983515E+03   -0.20484E-01   -0.11170E+01  4310   0.161E+00    0.942E-01
RMM:   2    -0.413220207663E+03    0.17776E-01   -0.17926E-01  4378   0.192E-01    0.703E-01
RMM:   3    -0.413229907830E+03   -0.97002E-02   -0.22712E-02  5114   0.124E-01    0.526E-01
RMM:   4    -0.413237029074E+03   -0.71212E-02   -0.45767E-02  5019   0.187E-01    0.605E-01
RMM:   5    -0.413216274262E+03    0.20755E-01   -0.75699E-03  4603   0.105E-01    0.580E-02
RMM:   6    -0.413216217183E+03    0.57079E-04   -0.14945E-03  5432   0.382E-02    0.312E-02
RMM:   7    -0.413216211855E+03    0.53285E-05   -0.25898E-04  5646   0.158E-02    0.213E-02
RMM:   8    -0.413216201277E+03    0.10577E-04   -0.12647E-04  5102   0.116E-02    0.103E-02
RMM:   9    -0.413216188595E+03    0.12683E-04   -0.16966E-05  4340   0.568E-03    0.409E-03
RMM:  10    -0.413216186377E+03    0.22182E-05   -0.29625E-06  2731   0.227E-03    0.235E-03
RMM:  11    -0.413216182145E+03    0.42314E-05   -0.13273E-06  2496   0.185E-03    0.129E-03
RMM:  12    -0.413216178873E+03    0.32717E-05   -0.59492E-07  2426   0.135E-03    0.711E-04
RMM:  13    -0.413216176032E+03    0.28410E-05   -0.29445E-07  1842   0.932E-04    0.340E-04
RMM:  14    -0.413216173347E+03    0.26857E-05   -0.16228E-07  1377   0.734E-04    0.168E-04
RMM:  15    -0.413216170459E+03    0.28874E-05   -0.11727E-07  1217   0.679E-04    0.105E-04
RMM:  16    -0.413216168312E+03    0.21479E-05   -0.77945E-08  1124   0.633E-04    0.926E-05
RMM:  17    -0.413216165629E+03    0.26829E-05   -0.66783E-08  1158   0.623E-04    0.499E-05
RMM:  18    -0.413216163282E+03    0.23468E-05   -0.47967E-08  1036   0.588E-04    0.472E-05
RMM:  19    -0.413216162653E+03    0.62854E-06   -0.21493E-08   744   0.533E-04
   47 T=    71. E= -.41286668E+03 F= -.41321616E+03 E0= -.41319524E+03  EK= 0.34948E+00 SP= 0.00E+00 SK= 0.00E+00
       N       E                     dE             d eps       ncg     rms          rms(c)
RMM:   1    -0.413244964130E+03   -0.28801E-01   -0.11156E+01  4305   0.173E+00    0.962E-01
RMM:   2    -0.413217259789E+03    0.27704E-01   -0.17706E-01  4444   0.201E-01    0.698E-01
RMM:   3    -0.413234519469E+03   -0.17260E-01   -0.29217E-02  5144   0.145E-01    0.636E-01
RMM:   4    -0.413226151361E+03    0.83681E-02   -0.41514E-02  4983   0.182E-01    0.480E-01
RMM:   5    -0.413213728703E+03    0.12423E-01   -0.46677E-03  4536   0.900E-02    0.572E-02
RMM:   6    -0.413213617385E+03    0.11132E-03   -0.68958E-04  4888   0.299E-02    0.300E-02
RMM:   7    -0.413213599117E+03    0.18268E-04   -0.17321E-04  5864   0.130E-02    0.124E-02
RMM:   8    -0.413213589721E+03    0.93962E-05   -0.45104E-05  5148   0.821E-03    0.805E-03
RMM:   9    -0.413213585590E+03    0.41317E-05   -0.98347E-06  3689   0.388E-03    0.355E-03
RMM:  10    -0.413213582096E+03    0.34940E-05   -0.19544E-06  2545   0.222E-03    0.232E-03
RMM:  11    -0.413213576497E+03    0.55983E-05   -0.14050E-06  2463   0.197E-03    0.148E-03
RMM:  12    -0.413213572823E+03    0.36743E-05   -0.51332E-07  2376   0.134E-03    0.864E-04
RMM:  13    -0.413213568729E+03    0.40945E-05   -0.25041E-07  1940   0.902E-04    0.452E-04
RMM:  14    -0.413213563054E+03    0.56742E-05   -0.19017E-07  1648   0.782E-04    0.379E-04
RMM:  15    -0.413213559340E+03    0.37145E-05   -0.87117E-08   992   0.598E-04    0.155E-04
RMM:  16    -0.413213557035E+03    0.23043E-05   -0.58846E-08   950   0.576E-04    0.853E-05
RMM:  17    -0.413213552706E+03    0.43293E-05   -0.69536E-08  1176   0.612E-04    0.121E-04
RMM:  18    -0.413213551377E+03    0.13291E-05   -0.28041E-08   789   0.527E-04    0.855E-05
RMM:  19    -0.413213550513E+03    0.86374E-06   -0.16799E-08   690   0.509E-04
   48 T=    71. E= -.41286688E+03 F= -.41321355E+03 E0= -.41319265E+03  EK= 0.34667E+00 SP= 0.00E+00 SK= 0.00E+00
       N       E                     dE             d eps       ncg     rms          rms(c)
RMM:   1    -0.413244446944E+03   -0.30896E-01   -0.10956E+01  4305   0.184E+00    0.950E-01
RMM:   2    -0.413211874442E+03    0.32573E-01   -0.17560E-01  4508   0.211E-01    0.687E-01
RMM:   3    -0.413236128881E+03   -0.24254E-01   -0.34791E-02  5162   0.161E-01    0.725E-01
RMM:   4    -0.413216991586E+03    0.19137E-01   -0.40411E-02  4957   0.183E-01    0.406E-01
RMM:   5    -0.413208678078E+03    0.83135E-02   -0.41861E-03  4594   0.876E-02    0.624E-02
RMM:   6    -0.413208500278E+03    0.17780E-03   -0.44476E-04  4667   0.288E-02    0.324E-02
RMM:   7    -0.413208504035E+03   -0.37571E-05   -0.28634E-04  5759   0.176E-02    0.240E-02
RMM:   8    -0.413208467920E+03    0.36115E-04   -0.97171E-05  4988   0.113E-02    0.910E-03
RMM:   9    -0.413208460551E+03    0.73698E-05   -0.18586E-05  4696   0.551E-03    0.468E-03
RMM:  10    -0.413208456358E+03    0.41923E-05   -0.22521E-06  2623   0.239E-03    0.260E-03
RMM:  11    -0.413208450065E+03    0.62932E-05   -0.12746E-06  2496   0.187E-03    0.175E-03
RMM:  12    -0.413208446280E+03    0.37847E-05   -0.40887E-07  2383   0.119E-03    0.900E-04
RMM:  13    -0.413208441440E+03    0.48402E-05   -0.27969E-07  2008   0.899E-04    0.425E-04
RMM:  14    -0.413208436199E+03    0.52408E-05   -0.20345E-07  1736   0.781E-04    0.344E-04
RMM:  15    -0.413208431412E+03    0.47877E-05   -0.11283E-07  1138   0.638E-04    0.138E-04
RMM:  16    -0.413208428739E+03    0.26724E-05   -0.68298E-08  1045   0.595E-04    0.854E-05
RMM:  17    -0.413208424898E+03    0.38417E-05   -0.68818E-08  1190   0.616E-04    0.781E-05
RMM:  18    -0.413208423651E+03    0.12468E-05   -0.35135E-08   933   0.552E-04    0.649E-05
RMM:  19    -0.413208421398E+03    0.22527E-05   -0.31527E-08   971   0.548E-04    0.303E-05
RMM:  20    -0.413208420517E+03    0.88139E-06   -0.17616E-08   756   0.505E-04
   49 T=    70. E= -.41286666E+03 F= -.41320842E+03 E0= -.41318753E+03  EK= 0.34176E+00 SP= 0.00E+00 SK= 0.00E+00
       N       E                     dE             d eps       ncg     rms          rms(c)
RMM:   1    -0.413224655636E+03   -0.16234E-01   -0.10608E+01  4304   0.187E+00    0.921E-01
RMM:   2    -0.413205715231E+03    0.18940E-01   -0.17298E-01  4530   0.222E-01    0.688E-01
RMM:   3    -0.413230868657E+03   -0.25153E-01   -0.35675E-02  5153   0.166E-01    0.743E-01
RMM:   4    -0.413210272095E+03    0.20597E-01   -0.41547E-02  4947   0.186E-01    0.402E-01
RMM:   5    -0.413201974602E+03    0.82975E-02   -0.44329E-03  4656   0.901E-02    0.653E-02
RMM:   6    -0.413201767268E+03    0.20733E-03   -0.47180E-04  4653   0.299E-02    0.325E-02
RMM:   7    -0.413201771180E+03   -0.39116E-05   -0.27496E-04  5742   0.175E-02    0.240E-02
RMM:   8    -0.413201737937E+03    0.33243E-04   -0.90278E-05  5007   0.109E-02    0.967E-03
RMM:   9    -0.413201732011E+03    0.59258E-05   -0.19094E-05  4701   0.560E-03    0.457E-03
RMM:  10    -0.413201728599E+03    0.34123E-05   -0.25426E-06  2654   0.245E-03    0.266E-03
RMM:  11    -0.413201723982E+03    0.46167E-05   -0.10825E-06  2483   0.178E-03    0.169E-03
RMM:  12    -0.413201721110E+03    0.28722E-05   -0.39243E-07  2352   0.114E-03    0.874E-04
RMM:  13    -0.413201717314E+03    0.37956E-05   -0.33661E-07  2148   0.954E-04    0.447E-04
RMM:  14    -0.413201713895E+03    0.34192E-05   -0.19348E-07  1582   0.759E-04    0.306E-04
RMM:  15    -0.413201710371E+03    0.35240E-05   -0.13331E-07  1213   0.677E-04    0.138E-04
RMM:  16    -0.413201708323E+03    0.20486E-05   -0.80540E-08  1126   0.623E-04    0.831E-05
RMM:  17    -0.413201705288E+03    0.30350E-05   -0.83946E-08  1271   0.633E-04    0.794E-05
[...]
RMM:  18    -0.413160763332E+03   -0.54313E-06   -0.91444E-08  1038   0.563E-04
  136 T=    60. E= -.41286674E+03 F= -.41316076E+03 E0= -.41314002E+03  EK= 0.29403E+00 SP= 0.00E+00 SK= 0.00E+00
       N       E                     dE             d eps       ncg     rms          rms(c)
RMM:   1    -0.413158077920E+03    0.26849E-02   -0.90110E+00  4264   0.766E-01    0.861E-01
RMM:   2    -0.413163896242E+03   -0.58183E-02   -0.10416E-01  4300   0.916E-02    0.619E-01
RMM:   3    -0.413161930929E+03    0.19653E-02   -0.13481E-02  5012   0.550E-02    0.160E-01
RMM:   4    -0.413196009502E+03   -0.34079E-01   -0.39918E-02  5128   0.167E-01    0.774E-01
RMM:   5    -0.413160720238E+03    0.35289E-01   -0.16635E-02  4789   0.129E-01    0.582E-02
RMM:   6    -0.413160743678E+03   -0.23440E-04   -0.28392E-03  5657   0.511E-02    0.307E-02
RMM:   7    -0.413160778507E+03   -0.34829E-04   -0.41802E-04  5975   0.174E-02    0.177E-02
RMM:   8    -0.413160785916E+03   -0.74091E-05   -0.67561E-05  5318   0.864E-03    0.870E-03
RMM:   9    -0.413160787887E+03   -0.19713E-05   -0.10461E-05  3499   0.377E-03    0.441E-03
RMM:  10    -0.413160793823E+03   -0.59361E-05   -0.28352E-06  2642   0.230E-03    0.294E-03
RMM:  11    -0.413160800280E+03   -0.64564E-05   -0.13437E-06  2513   0.179E-03    0.151E-03
RMM:  12    -0.413160806644E+03   -0.63649E-05   -0.95363E-07  2490   0.145E-03    0.591E-04
RMM:  13    -0.413160809222E+03   -0.25777E-05   -0.41154E-07  2085   0.102E-03    0.370E-04
RMM:  14    -0.413160811498E+03   -0.22763E-05   -0.25671E-07  1650   0.829E-04    0.232E-04
RMM:  15    -0.413160814640E+03   -0.31418E-05   -0.26074E-07  1610   0.794E-04    0.158E-04
RMM:  16    -0.413160816823E+03   -0.21828E-05   -0.20377E-07  1519   0.731E-04    0.133E-04
RMM:  17    -0.413160817896E+03   -0.10734E-05   -0.12272E-07  1210   0.636E-04    0.861E-05
RMM:  18    -0.413160818822E+03   -0.92580E-06   -0.10166E-07  1173   0.616E-04
  137 T=    60. E= -.41286650E+03 F= -.41316082E+03 E0= -.41314008E+03  EK= 0.29432E+00 SP= 0.00E+00 SK= 0.00E+00
       N       E                     dE             d eps       ncg     rms          rms(c)
RMM:   1    -0.413157308399E+03    0.35095E-02   -0.92976E+00  4264   0.781E-01    0.874E-01
RMM:   2    -0.413163086569E+03   -0.57782E-02   -0.10615E-01  4296   0.918E-02    0.611E-01
RMM:   3    -0.413161475659E+03    0.16109E-02   -0.11495E-02  4996   0.485E-02    0.146E-01
RMM:   4    -0.413194162977E+03   -0.32687E-01   -0.36224E-02  5137   0.158E-01    0.755E-01
RMM:   5    -0.413160712138E+03    0.33451E-01   -0.16120E-02  4795   0.126E-01    0.568E-02
RMM:   6    -0.413160744051E+03   -0.31913E-04   -0.28380E-03  5676   0.503E-02    0.311E-02
RMM:   7    -0.413160770167E+03   -0.26116E-04   -0.41123E-04  5952   0.171E-02    0.173E-02
RMM:   8    -0.413160771476E+03   -0.13095E-05   -0.61750E-05  5266   0.821E-03    0.856E-03
RMM:   9    -0.413160770940E+03    0.53676E-06   -0.98895E-06  3438   0.362E-03
  138 T=    60. E= -.41286650E+03 F= -.41316077E+03 E0= -.41314005E+03  EK= 0.29427E+00 SP= 0.00E+00 SK= 0.00E+00
       N       E                     dE             d eps       ncg     rms          rms(c)
RMM:   1    -0.413156421575E+03    0.43499E-02   -0.95011E+00  4268   0.795E-01    0.852E-01
RMM:   2    -0.413163538726E+03   -0.71172E-02   -0.11009E-01  4313   0.942E-02    0.609E-01
RMM:   3    -0.413165065450E+03   -0.15267E-02   -0.12582E-02  5139   0.695E-02    0.275E-01
RMM:   4    -0.413187517188E+03   -0.22452E-01   -0.37731E-02  5090   0.164E-01    0.670E-01
RMM:   5    -0.413161489076E+03    0.26028E-01   -0.11232E-02  4748   0.113E-01    0.647E-02
RMM:   6    -0.413161346896E+03    0.14218E-03   -0.19796E-03  5385   0.445E-02    0.274E-02
RMM:   7    -0.413161393216E+03   -0.46320E-04   -0.39799E-04  6048   0.182E-02    0.181E-02
RMM:   8    -0.413161397583E+03   -0.43672E-05   -0.73907E-05  5415   0.933E-03    0.880E-03
RMM:   9    -0.413161400860E+03   -0.32769E-05   -0.15419E-05  4362   0.469E-03    0.417E-03
RMM:  10    -0.413161404327E+03   -0.34670E-05   -0.17614E-06  2574   0.205E-03    0.274E-03
RMM:  11    -0.413161411785E+03   -0.74578E-05   -0.16418E-06  2539   0.197E-03    0.154E-03
RMM:  12    -0.413161418339E+03   -0.65543E-05   -0.93530E-07  2501   0.145E-03    0.685E-04
RMM:  13    -0.413161421291E+03   -0.29523E-05   -0.38694E-07  1906   0.944E-04    0.390E-04
RMM:  14    -0.413161424524E+03   -0.32332E-05   -0.30003E-07  1548   0.816E-04    0.223E-04
RMM:  15    -0.413161427793E+03   -0.32690E-05   -0.31820E-07  1666   0.803E-04    0.180E-04
RMM:  16    -0.413161429952E+03   -0.21585E-05   -0.23964E-07  1465   0.730E-04    0.122E-04
RMM:  17    -0.413161431642E+03   -0.16899E-05   -0.23557E-07  1479   0.711E-04    0.690E-05
RMM:  18    -0.413161432220E+03   -0.57864E-06   -0.10560E-07  1100   0.584E-04
  139 T=    60. E= -.41286668E+03 F= -.41316143E+03 E0= -.41314072E+03  EK= 0.29475E+00 SP= 0.00E+00 SK= 0.00E+00
       N       E                     dE             d eps       ncg     rms          rms(c)
RMM:   1    -0.413155675730E+03    0.57559E-02   -0.98170E+00  4264   0.807E-01    0.857E-01
RMM:   2    -0.413163621168E+03   -0.79454E-02   -0.11436E-01  4286   0.979E-02    0.616E-01
RMM:   3    -0.413161714144E+03    0.19070E-02   -0.90230E-03  4873   0.429E-02    0.122E-01
RMM:   4    -0.413184997911E+03   -0.23284E-01   -0.24325E-02  5143   0.130E-01    0.638E-01
RMM:   5    -0.413161414983E+03    0.23583E-01   -0.11702E-02  4809   0.106E-01    0.468E-02
RMM:   6    -0.413161431143E+03   -0.16161E-04   -0.19976E-03  5687   0.424E-02    0.259E-02
RMM:   7    -0.413161458535E+03   -0.27392E-04   -0.28441E-04  5841   0.142E-02    0.135E-02
RMM:   8    -0.413161466980E+03   -0.84448E-05   -0.44541E-05  5021   0.687E-03    0.714E-03
RMM:   9    -0.413161469723E+03   -0.27425E-05   -0.68723E-06  3163   0.310E-03    0.378E-03
RMM:  10    -0.413161476069E+03   -0.63462E-05   -0.20603E-06  2549   0.208E-03    0.244E-03
RMM:  11    -0.413161482425E+03   -0.63566E-05   -0.11284E-06  2497   0.161E-03    0.108E-03
RMM:  12    -0.413161487804E+03   -0.53785E-05   -0.72115E-07  2352   0.125E-03    0.476E-04
RMM:  13    -0.413161490678E+03   -0.28740E-05   -0.35402E-07  1897   0.924E-04    0.298E-04
RMM:  14    -0.413161492767E+03   -0.20896E-05   -0.21341E-07  1422   0.768E-04    0.160E-04
RMM:  15    -0.413161495638E+03   -0.28706E-05   -0.24608E-07  1577   0.779E-04    0.122E-04
RMM:  16    -0.413161497252E+03   -0.16134E-05   -0.16894E-07  1417   0.699E-04    0.101E-04
RMM:  17    -0.413161497602E+03   -0.35074E-06   -0.82527E-08  1056   0.591E-04
  140 T=    60. E= -.41286631E+03 F= -.41316150E+03 E0= -.41314080E+03  EK= 0.29519E+00 SP= 0.00E+00 SK= 0.00E+00
       N       E                     dE             d eps       ncg     rms          rms(c)
RMM:   1    -0.413155699644E+03    0.57976E-02   -0.10052E+01  4264   0.821E-01    0.877E-01
RMM:   2    -0.413163449790E+03   -0.77501E-02   -0.11515E-01  4289   0.973E-02    0.608E-01
RMM:   3    -0.413162053275E+03    0.13965E-02   -0.82285E-03  4781   0.390E-02    0.129E-01
RMM:   4    -0.413174735177E+03   -0.12682E-01   -0.13187E-02  5159   0.966E-02    0.473E-01
RMM:   5    -0.413161953121E+03    0.12782E-01   -0.64964E-03  4827   0.790E-02    0.412E-02
RMM:   6    -0.413161944128E+03    0.89933E-05   -0.11557E-03  5651   0.330E-02    0.250E-02
RMM:   7    -0.413161953714E+03   -0.95863E-05   -0.18766E-04  5674   0.119E-02    0.111E-02
RMM:   8    -0.413161954646E+03   -0.93203E-06   -0.32787E-05  4838   0.608E-03    0.623E-03
RMM:   9    -0.413161954516E+03    0.12998E-06   -0.35459E-06  2802   0.247E-03
  141 T=    60. E= -.41286655E+03 F= -.41316195E+03 E0= -.41314126E+03  EK= 0.29541E+00 SP= 0.00E+00 SK= 0.00E+00
       N       E                     dE             d eps       ncg     rms          rms(c)
RMM:   1    -0.413154781351E+03    0.71733E-02   -0.10151E+01  4268   0.826E-01    0.857E-01
RMM:   2    -0.413163462963E+03   -0.86816E-02   -0.11791E-01  4294   0.974E-02    0.604E-01
RMM:   3    -0.413162573595E+03    0.88937E-03   -0.75201E-03  5012   0.433E-02    0.156E-01
RMM:   4    -0.413195346390E+03   -0.32773E-01   -0.34869E-02  5145   0.155E-01    0.753E-01
RMM:   5    -0.413162080926E+03    0.33265E-01   -0.16492E-02  4823   0.126E-01    0.538E-02
RMM:   6    -0.413162076716E+03    0.42098E-05   -0.26626E-03  5681   0.495E-02    0.221E-02
RMM:   7    -0.413162112110E+03   -0.35394E-04   -0.35579E-04  6016   0.156E-02    0.139E-02
RMM:   8    -0.413162119560E+03   -0.74497E-05   -0.55784E-05  5175   0.737E-03    0.786E-03
RMM:   9    -0.413162121710E+03   -0.21506E-05   -0.89182E-06  3274   0.342E-03    0.346E-03
RMM:  10    -0.413162125606E+03   -0.38956E-05   -0.26300E-06  2601   0.219E-03    0.234E-03
RMM:  11    -0.413162129867E+03   -0.42613E-05   -0.13825E-06  2521   0.174E-03    0.123E-03
RMM:  12    -0.413162133005E+03   -0.31377E-05   -0.77914E-07  2387   0.129E-03    0.457E-04
RMM:  13    -0.413162134530E+03   -0.15254E-05   -0.37709E-07  1907   0.933E-04    0.302E-04
RMM:  14    -0.413162136402E+03   -0.18717E-05   -0.32761E-07  1524   0.839E-04    0.167E-04
RMM:  15    -0.413162137770E+03   -0.13682E-05   -0.27484E-07  1606   0.791E-04    0.125E-04
RMM:  16    -0.413162138649E+03   -0.87886E-06   -0.21466E-07  1433   0.719E-04
  142 T=    60. E= -.41286638E+03 F= -.41316214E+03 E0= -.41314146E+03  EK= 0.29576E+00 SP= 0.00E+00 SK= 0.00E+00
       N       E                     dE             d eps       ncg     rms          rms(c)
RMM:   1    -0.413154444767E+03    0.76930E-02   -0.10363E+01  4265   0.840E-01    0.854E-01
RMM:   2    -0.413164252204E+03   -0.98074E-02   -0.12248E-01  4288   0.102E-01    0.614E-01
RMM:   3    -0.413162544533E+03    0.17077E-02   -0.67145E-03  4570   0.387E-02    0.125E-01
RMM:   4    -0.413162718067E+03   -0.17353E-03   -0.10084E-03  5116   0.262E-02    0.615E-02
RMM:   5    -0.413162563876E+03    0.15419E-03   -0.18897E-04  4927   0.144E-02    0.359E-02
RMM:   6    -0.413162521472E+03    0.42404E-04   -0.12252E-04  5120   0.118E-02    0.171E-02
RMM:   7    -0.413162543436E+03   -0.21964E-04   -0.58584E-05  5090   0.753E-03    0.915E-03
RMM:   8    -0.413162545478E+03   -0.20418E-05   -0.92352E-06  3605   0.400E-03    0.473E-03
RMM:   9    -0.413162547540E+03   -0.20624E-05   -0.15091E-06  2488   0.196E-03    0.239E-03
RMM:  10    -0.413162553131E+03   -0.55909E-05   -0.12433E-06  2450   0.164E-03    0.118E-03
RMM:  11    -0.413162560025E+03   -0.68940E-05   -0.11168E-06  2379   0.141E-03    0.542E-04
RMM:  12    -0.413162562579E+03   -0.25539E-05   -0.36981E-07  1882   0.940E-04    0.349E-04
RMM:  13    -0.413162565184E+03   -0.26045E-05   -0.23905E-07  1511   0.758E-04    0.258E-04
RMM:  14    -0.413162568414E+03   -0.32302E-05   -0.29624E-07  1512   0.760E-04    0.107E-04
RMM:  15    -0.413162569246E+03   -0.83176E-06   -0.90467E-08  1013   0.585E-04
  143 T=    60. E= -.41286621E+03 F= -.41316257E+03 E0= -.41314190E+03  EK= 0.29636E+00 SP= 0.00E+00 SK= 0.00E+00
       N       E                     dE             d eps       ncg     rms          rms(c)
RMM:   1    -0.413157628826E+03    0.49396E-02   -0.10535E+01  4264   0.868E-01    0.876E-01
RMM:   2    -0.413164103488E+03   -0.64747E-02   -0.12172E-01  4287   0.102E-01    0.608E-01
RMM:   3    -0.413163164309E+03    0.93918E-03   -0.66297E-03  4628   0.369E-02    0.139E-01
RMM:   4    -0.413164350637E+03   -0.11863E-02   -0.19148E-03  5190   0.380E-02    0.146E-01
RMM:   5    -0.413163194116E+03    0.11565E-02   -0.65678E-04  4842   0.261E-02    0.303E-02
RMM:   6    -0.413163166662E+03    0.27454E-04   -0.20382E-04  5307   0.152E-02    0.167E-02
RMM:   7    -0.413163173750E+03   -0.70878E-05   -0.52358E-05  5123   0.732E-03    0.784E-03
RMM:   8    -0.413163173366E+03    0.38349E-06   -0.10497E-05  3707   0.396E-03    0.387E-03
RMM:   9    -0.413163174444E+03   -0.10779E-05   -0.12533E-06  2512   0.191E-03    0.202E-03
RMM:  10    -0.413163175842E+03   -0.13981E-05   -0.11196E-06  2478   0.156E-03    0.923E-04
RMM:  11    -0.413163177135E+03   -0.12926E-05   -0.79256E-07  2259   0.124E-03    0.477E-04
RMM:  12    -0.413163177566E+03   -0.43151E-06   -0.29175E-07  1847   0.857E-04
  144 T=    60. E= -.41286652E+03 F= -.41316318E+03 E0= -.41314252E+03  EK= 0.29666E+00 SP= 0.00E+00 SK= 0.00E+00
       N       E                     dE             d eps       ncg     rms          rms(c)
RMM:   1    -0.413154491620E+03    0.86855E-02   -0.10511E+01  4264   0.848E-01    0.864E-01
RMM:   2    -0.413164066044E+03   -0.95744E-02   -0.12265E-01  4288   0.999E-02    0.602E-01
RMM:   3    -0.413163110967E+03    0.95508E-03   -0.61805E-03  4734   0.363E-02    0.145E-01
RMM:   4    -0.413168120341E+03   -0.50094E-02   -0.55477E-03  5184   0.639E-02    0.299E-01
RMM:   5    -0.413163118030E+03    0.50023E-02   -0.25744E-03  4836   0.499E-02    0.316E-02
RMM:   6    -0.413163088998E+03    0.29031E-04   -0.49107E-04  5573   0.222E-02    0.149E-02
RMM:   7    -0.413163098235E+03   -0.92367E-05   -0.74901E-05  5219   0.816E-03    0.802E-03
RMM:   8    -0.413163100072E+03   -0.18367E-05   -0.13909E-05  3865   0.418E-03    0.406E-03
RMM:   9    -0.413163101191E+03   -0.11187E-05   -0.19069E-06  2560   0.213E-03    0.193E-03
RMM:  10    -0.413163102789E+03   -0.15988E-05   -0.10453E-06  2507   0.151E-03    0.997E-04
RMM:  11    -0.413163104236E+03   -0.14467E-05   -0.79162E-07  2313   0.120E-03    0.468E-04
RMM:  12    -0.413163104664E+03   -0.42803E-06   -0.34199E-07  1792   0.878E-04
  145 T=    60. E= -.41286625E+03 F= -.41316310E+03 E0= -.41314245E+03  EK= 0.29686E+00 SP= 0.00E+00 SK= 0.00E+00
       N       E                     dE             d eps       ncg     rms          rms(c)
RMM:   1    -0.413154833502E+03    0.82707E-02   -0.10573E+01  4264   0.855E-01    0.851E-01
RMM:   2    -0.413164933487E+03   -0.10100E-01   -0.12710E-01  4287   0.100E-01    0.613E-01
RMM:   3    -0.413163929887E+03    0.10036E-02   -0.59775E-03  4858   0.376E-02    0.145E-01
RMM:   4    -0.413177917253E+03   -0.13987E-01   -0.14484E-02  5162   0.102E-01    0.497E-01
RMM:   5    -0.413163743528E+03    0.14174E-01   -0.71295E-03  4833   0.821E-02    0.361E-02
RMM:   6    -0.413163737444E+03    0.60848E-05   -0.12081E-03  5714   0.327E-02    0.114E-02
RMM:   7    -0.413163757263E+03   -0.19819E-04   -0.14474E-04  5518   0.102E-02    0.842E-03
RMM:   8    -0.413163764392E+03   -0.71286E-05   -0.17918E-05  3852   0.429E-03    0.514E-03
RMM:   9    -0.413163770845E+03   -0.64539E-05   -0.31864E-06  2637   0.250E-03    0.226E-03
RMM:  10    -0.413163775919E+03   -0.50733E-05   -0.14930E-06  2546   0.168E-03    0.113E-03
RMM:  11    -0.413163779920E+03   -0.40010E-05   -0.87796E-07  2393   0.127E-03    0.570E-04
RMM:  12    -0.413163782387E+03   -0.24676E-05   -0.51640E-07  1932   0.986E-04    0.235E-04
RMM:  13    -0.413163783901E+03   -0.15133E-05   -0.33181E-07  1621   0.848E-04    0.160E-04
RMM:  14    -0.413163785157E+03   -0.12560E-05   -0.31123E-07  1679   0.809E-04    0.995E-05
RMM:  15    -0.413163785631E+03   -0.47468E-06   -0.17338E-07  1353   0.694E-04
  146 T=    61. E= -.41286618E+03 F= -.41316379E+03 E0= -.41314314E+03  EK= 0.29760E+00 SP= 0.00E+00 SK= 0.00E+00
       N       E                     dE             d eps       ncg     rms          rms(c)
RMM:   1    -0.413155655041E+03    0.81301E-02   -0.10614E+01  4264   0.857E-01    0.870E-01
RMM:   2    -0.413165400387E+03   -0.97453E-02   -0.12594E-01  4292   0.100E-01    0.612E-01
RMM:   3    -0.413164797271E+03    0.60312E-03   -0.62359E-03  4979   0.382E-02    0.158E-01
RMM:   4    -0.413189341351E+03   -0.24544E-01   -0.25255E-02  5158   0.132E-01    0.653E-01
RMM:   5    -0.413164530786E+03    0.24811E-01   -0.12460E-02  4828   0.109E-01    0.455E-02
RMM:   6    -0.413164551270E+03   -0.20485E-04   -0.20252E-03  5710   0.425E-02    0.138E-02
RMM:   7    -0.413164573691E+03   -0.22421E-04   -0.24752E-04  5779   0.128E-02    0.101E-02
RMM:   8    -0.413164576896E+03   -0.32051E-05   -0.28450E-05  4086   0.485E-03    0.633E-03
RMM:   9    -0.413164578321E+03   -0.14250E-05   -0.44956E-06  2763   0.270E-03    0.289E-03
RMM:  10    -0.413164579856E+03   -0.15349E-05   -0.18077E-06  2550   0.183E-03    0.145E-03
RMM:  11    -0.413164580813E+03   -0.95692E-06   -0.92262E-07  2449   0.136E-03
  147 T=    61. E= -.41286652E+03 F= -.41316458E+03 E0= -.41314394E+03  EK= 0.29807E+00 SP= 0.00E+00 SK= 0.00E+00
       N       E                     dE             d eps       ncg     rms          rms(c)
RMM:   1    -0.413159615225E+03    0.49646E-02   -0.10573E+01  4268   0.877E-01    0.870E-01
RMM:   2    -0.413165177296E+03   -0.55621E-02   -0.12199E-01  4291   0.985E-02    0.605E-01
RMM:   3    -0.413164877902E+03    0.29939E-03   -0.64930E-03  5014   0.411E-02    0.162E-01
RMM:   4    -0.413195464286E+03   -0.30586E-01   -0.31998E-02  5151   0.149E-01    0.729E-01
RMM:   5    -0.413164334646E+03    0.31130E-01   -0.15520E-02  4824   0.122E-01    0.509E-02
RMM:   6    -0.413164368515E+03   -0.33869E-04   -0.24959E-03  5672   0.477E-02    0.158E-02
RMM:   7    -0.413164390310E+03   -0.21795E-04   -0.31584E-04  5921   0.144E-02    0.114E-02
RMM:   8    -0.413164390845E+03   -0.53465E-06   -0.36518E-05  4411   0.555E-03    0.686E-03
RMM:   9    -0.413164389374E+03    0.14705E-05   -0.60327E-06  2895   0.299E-03    0.318E-03
RMM:  10    -0.413164388956E+03    0.41791E-06   -0.20553E-06  2559   0.194E-03
  148 T=    61. E= -.41286605E+03 F= -.41316439E+03 E0= -.41314375E+03  EK= 0.29834E+00 SP= 0.00E+00 SK= 0.00E+00
       N       E                     dE             d eps       ncg     rms          rms(c)
RMM:   1    -0.413157813474E+03    0.65759E-02   -0.10444E+01  4279   0.874E-01    0.850E-01
RMM:   2    -0.413167030575E+03   -0.92171E-02   -0.12720E-01  4287   0.102E-01    0.613E-01
RMM:   3    -0.413166736698E+03    0.29388E-03   -0.70460E-03  5112   0.494E-02    0.201E-01
RMM:   4    -0.413207469720E+03   -0.40733E-01   -0.46968E-02  5127   0.180E-01    0.842E-01
RMM:   5    -0.413165489154E+03    0.41981E-01   -0.20151E-02  4810   0.142E-01    0.629E-02
RMM:   6    -0.413165519005E+03   -0.29851E-04   -0.33433E-03  5628   0.553E-02    0.159E-02
RMM:   7    -0.413165560342E+03   -0.41338E-04   -0.45561E-04  6097   0.172E-02    0.126E-02
RMM:   8    -0.413165565043E+03   -0.47009E-05   -0.53243E-05  5117   0.669E-03    0.769E-03
RMM:   9    -0.413165568209E+03   -0.31655E-05   -0.95927E-06  3230   0.364E-03    0.377E-03
RMM:  10    -0.413165570635E+03   -0.24257E-05   -0.23491E-06  2572   0.213E-03    0.205E-03
RMM:  11    -0.413165573115E+03   -0.24800E-05   -0.13553E-06  2538   0.163E-03    0.123E-03
RMM:  12    -0.413165574113E+03   -0.99875E-06   -0.71352E-07  2306   0.119E-03
  149 T=    61. E= -.41286616E+03 F= -.41316557E+03 E0= -.41314495E+03  EK= 0.29942E+00 SP= 0.00E+00 SK= 0.00E+00
       N       E                     dE             d eps       ncg     rms          rms(c)
RMM:   1    -0.413159161198E+03    0.64119E-02   -0.10399E+01  4268   0.880E-01    0.863E-01
RMM:   2    -0.413167817633E+03   -0.86564E-02   -0.12514E-01  4292   0.992E-02    0.618E-01
RMM:   3    -0.413166803889E+03    0.10137E-02   -0.70266E-03  5082   0.440E-02    0.173E-01
RMM:   4    -0.413205612473E+03   -0.38809E-01   -0.41887E-02  5141   0.170E-01    0.818E-01
RMM:   5    -0.413166051272E+03    0.39561E-01   -0.19471E-02  4817   0.137E-01    0.579E-02
RMM:   6    -0.413166108676E+03   -0.57403E-04   -0.31434E-03  5666   0.538E-02    0.181E-02
RMM:   7    -0.413166142402E+03   -0.33726E-04   -0.40761E-04  6038   0.162E-02    0.132E-02
RMM:   8    -0.413166146037E+03   -0.36356E-05   -0.52989E-05  5269   0.706E-03    0.752E-03
RMM:   9    -0.413166146416E+03   -0.37865E-06   -0.96102E-06  3243   0.344E-03
  150 T=    61. E= -.41286593E+03 F= -.41316615E+03 E0= -.41314552E+03  EK= 0.30022E+00 SP= 0.00E+00 SK= 0.00E+00
