       N       E                     dE             d eps       ncg     rms          rms(c)
RMM:   1     0.220115903340E+04    0.22012E+04   -0.52442E+04  2132   0.654E+02
RMM:   2     0.705542034582E+03   -0.14956E+04   -0.16261E+04  2132   0.177E+02
RMM:   3     0.137689949663E+03   -0.56785E+03   -0.65697E+03  2132   0.117E+02
RMM:   4    -0.159363547953E+03   -0.29705E+03   -0.27823E+03  2132   0.936E+01
RMM:   5    -0.287522875611E+03   -0.12816E+03   -0.11434E+03  2132   0.595E+01
RMM:   6    -0.349907603708E+03   -0.62385E+02   -0.55137E+02  2132   0.423E+01
RMM:   7    -0.382770934754E+03   -0.32863E+02   -0.30394E+02  2132   0.293E+01
RMM:   8    -0.404258971749E+03   -0.21488E+02   -0.18429E+02  2132   0.233E+01
RMM:   9    -0.436006791159E+03   -0.31748E+02   -0.30601E+02  6107   0.173E+01
RMM:  10    -0.441309477741E+03   -0.53027E+01   -0.63395E+01  6393   0.539E+00
RMM:  11    -0.442509393730E+03   -0.11999E+01   -0.11214E+01  6209   0.173E+00
RMM:  12    -0.442873076245E+03   -0.36368E+00   -0.25143E+00  6373   0.594E-01    0.134E+02
RMM:  13    -0.425493739838E+03    0.17379E+02   -0.80596E+01  4666   0.119E+01    0.712E+01
RMM:  14    -0.497005287450E+03   -0.71512E+02   -0.52963E+02  5418   0.230E+01    0.303E+01
RMM:  15    -0.412097976490E+03    0.84907E+02   -0.18692E+02  5048   0.160E+01    0.437E+00
RMM:  16    -0.414303788650E+03   -0.22058E+01   -0.38050E+01  6068   0.587E+00    0.451E+00
RMM:  17    -0.413350422084E+03    0.95337E+00   -0.20374E+00  5297   0.166E+00    0.281E+00
RMM:  18    -0.413151139571E+03    0.19928E+00   -0.13097E+00  5796   0.121E+00    0.163E+00
RMM:  19    -0.413171696223E+03   -0.20557E-01   -0.30222E-01  5848   0.560E-01    0.100E+00
RMM:  20    -0.413217593011E+03   -0.45897E-01   -0.39354E-01  5496   0.672E-01    0.982E-01
RMM:  21    -0.413181892355E+03    0.35701E-01   -0.44976E-02  4815   0.292E-01    0.612E-01
RMM:  22    -0.413166819774E+03    0.15073E-01   -0.46333E-02  5589   0.228E-01    0.270E-01
RMM:  23    -0.413163953748E+03    0.28660E-02   -0.23030E-02  6137   0.144E-01    0.880E-02
RMM:  24    -0.413162969425E+03    0.98432E-03   -0.40607E-03  6069   0.636E-02    0.506E-02
RMM:  25    -0.413162682873E+03    0.28655E-03   -0.74187E-04  5298   0.270E-02    0.298E-02
RMM:  26    -0.413162701280E+03   -0.18407E-04   -0.54531E-04  5791   0.245E-02    0.258E-02
RMM:  27    -0.413163214938E+03   -0.51366E-03   -0.29617E-04  5003   0.229E-02    0.226E-02
RMM:  28    -0.413163506852E+03   -0.29191E-03   -0.12415E-04  4938   0.128E-02    0.126E-02
RMM:  29    -0.413164031651E+03   -0.52480E-03   -0.13711E-04  4436   0.197E-02    0.460E-03
RMM:  30    -0.413164269555E+03   -0.23790E-03   -0.93768E-05  4545   0.110E-02    0.273E-03
RMM:  31    -0.413164373540E+03   -0.10399E-03   -0.44514E-05  3153   0.598E-03    0.171E-03
RMM:  32    -0.413164402614E+03   -0.29074E-04   -0.16795E-05  2916   0.280E-03    0.117E-03
RMM:  33    -0.413164419441E+03   -0.16827E-04   -0.75636E-06  2778   0.211E-03    0.632E-04
RMM:  34    -0.413164422552E+03   -0.31113E-05   -0.44421E-06  2390   0.131E-03    0.605E-04
RMM:  35    -0.413164423696E+03   -0.11444E-05   -0.20991E-06  1616   0.959E-04    0.454E-04
RMM:  36    -0.413164423690E+03    0.61482E-08   -0.13066E-06  1540   0.843E-04
    1 T=    61. E= -.41286661E+03 F= -.41316442E+03 E0= -.41314193E+03  EK= 0.29781E+00 SP= 0.00E+00 SK= 0.00E+00
       N       E                     dE             d eps       ncg     rms          rms(c)
RMM:   1    -0.413155047469E+03    0.93762E-02   -0.11017E+01  3990   0.693E-01    0.886E-01
RMM:   2    -0.413165797847E+03   -0.10750E-01   -0.13572E-01  3813   0.100E-01    0.641E-01
RMM:   3    -0.413164155560E+03    0.16423E-02   -0.68691E-03  4822   0.380E-02    0.154E-01
RMM:   4    -0.413189151862E+03   -0.24996E-01   -0.25998E-02  5215   0.134E-01    0.658E-01
RMM:   5    -0.413163786865E+03    0.25365E-01   -0.12495E-02  4848   0.111E-01    0.344E-02
RMM:   6    -0.413163955578E+03   -0.16871E-03   -0.20227E-03  5838   0.436E-02    0.190E-02
RMM:   7    -0.413163972171E+03   -0.16593E-04   -0.25454E-04  5915   0.135E-02    0.139E-02
RMM:   8    -0.413163977990E+03   -0.58185E-05   -0.37744E-05  4689   0.579E-03    0.772E-03
RMM:   9    -0.413163982782E+03   -0.47929E-05   -0.77677E-06  3207   0.312E-03    0.516E-03
RMM:  10    -0.413163988983E+03   -0.62003E-05   -0.18612E-06  2569   0.191E-03    0.316E-03
RMM:  11    -0.413163996533E+03   -0.75497E-05   -0.16143E-06  2552   0.179E-03    0.153E-03
RMM:  12    -0.413164002119E+03   -0.55863E-05   -0.10003E-06  2457   0.143E-03    0.507E-04
RMM:  13    -0.413164003043E+03   -0.92409E-06   -0.40903E-07  1990   0.931E-04
    2 T=    61. E= -.41286629E+03 F= -.41316400E+03 E0= -.41314150E+03  EK= 0.29771E+00 SP= 0.00E+00 SK= 0.00E+00
       N       E                     dE             d eps       ncg     rms          rms(c)
RMM:   1    -0.413156203187E+03    0.77989E-02   -0.11048E+01  4193   0.698E-01    0.910E-01
RMM:   2    -0.413165891541E+03   -0.96884E-02   -0.13316E-01  3873   0.963E-02    0.634E-01
RMM:   3    -0.413164901342E+03    0.99020E-03   -0.71901E-03  4838   0.384E-02    0.162E-01
RMM:   4    -0.413191137459E+03   -0.26236E-01   -0.26594E-02  5183   0.136E-01    0.676E-01
RMM:   5    -0.413164517604E+03    0.26620E-01   -0.12903E-02  4834   0.113E-01    0.371E-02
RMM:   6    -0.413164691436E+03   -0.17383E-03   -0.21598E-03  5823   0.447E-02    0.210E-02
RMM:   7    -0.413164700808E+03   -0.93721E-05   -0.26504E-04  5906   0.139E-02    0.146E-02
RMM:   8    -0.413164701060E+03   -0.25276E-06   -0.37660E-05  4684   0.586E-03    0.793E-03
RMM:   9    -0.413164700586E+03    0.47481E-06   -0.75352E-06  3230   0.313E-03
    3 T=    61. E= -.41286679E+03 F= -.41316470E+03 E0= -.41314221E+03  EK= 0.29791E+00 SP= 0.00E+00 SK= 0.00E+00
       N       E                     dE             d eps       ncg     rms          rms(c)
RMM:   1    -0.413155790375E+03    0.89107E-02   -0.10962E+01  4228   0.699E-01    0.894E-01
RMM:   2    -0.413165992315E+03   -0.10202E-01   -0.13191E-01  4255   0.992E-02    0.628E-01
RMM:   3    -0.413170144750E+03   -0.41524E-02   -0.11452E-02  5186   0.779E-02    0.353E-01
RMM:   4    -0.413186257853E+03   -0.16113E-01   -0.35907E-02  5113   0.162E-01    0.618E-01
RMM:   5    -0.413164437946E+03    0.21820E-01   -0.84499E-03  4698   0.103E-01    0.533E-02
RMM:   6    -0.413164417793E+03    0.20153E-04   -0.14875E-03  5450   0.390E-02    0.198E-02
RMM:   7    -0.413164436243E+03   -0.18450E-04   -0.24664E-04  6009   0.146E-02    0.131E-02
RMM:   8    -0.413164438684E+03   -0.24406E-05   -0.37117E-05  5046   0.625E-03    0.685E-03
RMM:   9    -0.413164440073E+03   -0.13899E-05   -0.88714E-06  3482   0.382E-03    0.366E-03
RMM:  10    -0.413164441486E+03   -0.14129E-05   -0.13564E-06  2534   0.196E-03    0.220E-03
RMM:  11    -0.413164443730E+03   -0.22435E-05   -0.12242E-06  2543   0.171E-03    0.126E-03
RMM:  12    -0.413164444830E+03   -0.11006E-05   -0.54747E-07  2357   0.119E-03    0.444E-04
RMM:  13    -0.413164445905E+03   -0.10743E-05   -0.36244E-07  1657   0.859E-04    0.249E-04
RMM:  14    -0.413164446439E+03   -0.53428E-06   -0.21837E-07  1434   0.740E-04
    4 T=    61. E= -.41286658E+03 F= -.41316445E+03 E0= -.41314196E+03  EK= 0.29787E+00 SP= 0.00E+00 SK= 0.00E+00
       N       E                     dE             d eps       ncg     rms          rms(c)
RMM:   1    -0.413155561520E+03    0.88844E-02   -0.11000E+01  4238   0.705E-01    0.884E-01
RMM:   2    -0.413166301460E+03   -0.10740E-01   -0.13570E-01  4019   0.970E-02    0.640E-01
RMM:   3    -0.413164824250E+03    0.14772E-02   -0.68360E-03  4892   0.383E-02    0.158E-01
RMM:   4    -0.413194803989E+03   -0.29980E-01   -0.30567E-02  5169   0.146E-01    0.721E-01
RMM:   5    -0.413164345676E+03    0.30458E-01   -0.14777E-02  4820   0.121E-01    0.375E-02
RMM:   6    -0.413164534992E+03   -0.18932E-03   -0.23765E-03  5792   0.473E-02    0.196E-02
RMM:   7    -0.413164552286E+03   -0.17294E-04   -0.29325E-04  5903   0.143E-02    0.142E-02
RMM:   8    -0.413164557569E+03   -0.52824E-05   -0.40049E-05  4714   0.591E-03    0.790E-03
RMM:   9    -0.413164561508E+03   -0.39396E-05   -0.80093E-06  3241   0.316E-03    0.530E-03
RMM:  10    -0.413164566723E+03   -0.52147E-05   -0.18352E-06  2555   0.196E-03    0.316E-03
RMM:  11    -0.413164572828E+03   -0.61047E-05   -0.15088E-06  2553   0.180E-03    0.152E-03
RMM:  12    -0.413164577119E+03   -0.42916E-05   -0.89077E-07  2469   0.142E-03    0.475E-04
RMM:  13    -0.413164577938E+03   -0.81884E-06   -0.31615E-07  2000   0.930E-04
    5 T=    61. E= -.41286663E+03 F= -.41316458E+03 E0= -.41314210E+03  EK= 0.29795E+00 SP= 0.00E+00 SK= 0.00E+00
       N       E                     dE             d eps       ncg     rms          rms(c)
RMM:   1    -0.413156987953E+03    0.75892E-02   -0.11052E+01  4253   0.721E-01    0.906E-01
RMM:   2    -0.413166465232E+03   -0.94773E-02   -0.13291E-01  3998   0.962E-02    0.636E-01
RMM:   3    -0.413165296351E+03    0.11689E-02   -0.70265E-03  4824   0.369E-02    0.160E-01
RMM:   4    -0.413191473833E+03   -0.26177E-01   -0.26465E-02  5161   0.136E-01    0.675E-01
RMM:   5    -0.413164927662E+03    0.26546E-01   -0.12900E-02  4818   0.112E-01    0.366E-02
RMM:   6    -0.413165096801E+03   -0.16914E-03   -0.21105E-03  5804   0.443E-02    0.206E-02
RMM:   7    -0.413165106274E+03   -0.94736E-05   -0.25924E-04  5892   0.137E-02    0.144E-02
RMM:   8    -0.413165106510E+03   -0.23547E-06   -0.36977E-05  4676   0.583E-03    0.785E-03
RMM:   9    -0.413165105817E+03    0.69255E-06   -0.74987E-06  3225   0.315E-03
    6 T=    61. E= -.41286686E+03 F= -.41316511E+03 E0= -.41314264E+03  EK= 0.29824E+00 SP= 0.00E+00 SK= 0.00E+00
       N       E                     dE             d eps       ncg     rms          rms(c)
RMM:   1    -0.413156362588E+03    0.87439E-02   -0.10993E+01  4274   0.720E-01    0.901E-01
RMM:   2    -0.413165822204E+03   -0.94596E-02   -0.13236E-01  4288   0.982E-02    0.629E-01
RMM:   3    -0.413170112568E+03   -0.42904E-02   -0.11411E-02  5170   0.756E-02    0.346E-01
RMM:   4    -0.413187035365E+03   -0.16923E-01   -0.35989E-02  5096   0.162E-01    0.625E-01
RMM:   5    -0.413164735348E+03    0.22300E-01   -0.86796E-03  4696   0.104E-01    0.532E-02
RMM:   6    -0.413164726017E+03    0.93306E-05   -0.15439E-03  5460   0.393E-02    0.199E-02
RMM:   7    -0.413164741429E+03   -0.15411E-04   -0.24569E-04  6009   0.145E-02    0.132E-02
RMM:   8    -0.413164741855E+03   -0.42567E-06   -0.37529E-05  5034   0.630E-03    0.685E-03
RMM:   9    -0.413164740011E+03    0.18438E-05   -0.85969E-06  3386   0.381E-03    0.362E-03
RMM:  10    -0.413164740239E+03   -0.22867E-06   -0.13806E-06  2535   0.197E-03
    7 T=    61. E= -.41286637E+03 F= -.41316474E+03 E0= -.41314229E+03  EK= 0.29837E+00 SP= 0.00E+00 SK= 0.00E+00
       N       E                     dE             d eps       ncg     rms          rms(c)
RMM:   1    -0.413156936428E+03    0.78036E-02   -0.10999E+01  4274   0.728E-01    0.883E-01
RMM:   2    -0.413167004238E+03   -0.10068E-01   -0.13494E-01  4062   0.965E-02    0.637E-01
RMM:   3    -0.413165777826E+03    0.12264E-02   -0.68704E-03  4904   0.395E-02    0.162E-01
RMM:   4    -0.413198481996E+03   -0.32704E-01   -0.33497E-02  5147   0.152E-01    0.752E-01
RMM:   5    -0.413165231865E+03    0.33250E-01   -0.16115E-02  4808   0.126E-01    0.402E-02
RMM:   6    -0.413165431992E+03   -0.20013E-03   -0.26077E-03  5765   0.496E-02    0.197E-02
RMM:   7    -0.413165452183E+03   -0.20191E-04   -0.32822E-04  5907   0.148E-02    0.143E-02
RMM:   8    -0.413165456667E+03   -0.44837E-05   -0.39868E-05  4615   0.584E-03    0.759E-03
RMM:   9    -0.413165460058E+03   -0.33912E-05   -0.84749E-06  3232   0.313E-03    0.507E-03
RMM:  10    -0.413165464048E+03   -0.39901E-05   -0.19737E-06  2561   0.199E-03    0.303E-03
RMM:  11    -0.413165468542E+03   -0.44934E-05   -0.14798E-06  2552   0.177E-03    0.140E-03
RMM:  12    -0.413165471329E+03   -0.27869E-05   -0.86162E-07  2456   0.139E-03    0.423E-04
RMM:  13    -0.413165471901E+03   -0.57232E-06   -0.32648E-07  1985   0.929E-04
    8 T=    61. E= -.41286668E+03 F= -.41316547E+03 E0= -.41314304E+03  EK= 0.29879E+00 SP= 0.00E+00 SK= 0.00E+00
       N       E                     dE             d eps       ncg     rms          rms(c)
RMM:   1    -0.413156859388E+03    0.86119E-02   -0.11059E+01  4283   0.723E-01    0.900E-01
RMM:   2    -0.413167052705E+03   -0.10193E-01   -0.13424E-01  4146   0.996E-02    0.639E-01
RMM:   3    -0.413165808466E+03    0.12442E-02   -0.70006E-03  4785   0.402E-02    0.159E-01
RMM:   4    -0.413191917490E+03   -0.26109E-01   -0.26455E-02  5147   0.136E-01    0.675E-01
RMM:   5    -0.413165343532E+03    0.26574E-01   -0.13005E-02  4812   0.112E-01    0.358E-02
RMM:   6    -0.413165512484E+03   -0.16895E-03   -0.21017E-03  5786   0.440E-02    0.201E-02
RMM:   7    -0.413165521998E+03   -0.95148E-05   -0.25594E-04  5854   0.136E-02    0.141E-02
RMM:   8    -0.413165522416E+03   -0.41773E-06   -0.36824E-05  4668   0.583E-03    0.785E-03
RMM:   9    -0.413165521718E+03    0.69770E-06   -0.75627E-06  3210   0.317E-03
    9 T=    61. E= -.41286647E+03 F= -.41316552E+03 E0= -.41314311E+03  EK= 0.29905E+00 SP= 0.00E+00 SK= 0.00E+00
       N       E                     dE             d eps       ncg     rms          rms(c)
RMM:   1    -0.413157215232E+03    0.83072E-02   -0.11043E+01  4294   0.729E-01    0.908E-01
RMM:   2    -0.413166739537E+03   -0.95243E-02   -0.13257E-01  4303   0.974E-02    0.631E-01
RMM:   3    -0.413171098319E+03   -0.43588E-02   -0.11624E-02  5157   0.772E-02    0.350E-01
RMM:   4    -0.413187336119E+03   -0.16238E-01   -0.35575E-02  5082   0.161E-01    0.618E-01
RMM:   5    -0.413165664665E+03    0.21671E-01   -0.84186E-03  4688   0.102E-01    0.525E-02
RMM:   6    -0.413165657660E+03    0.70059E-05   -0.15152E-03  5479   0.386E-02    0.203E-02
RMM:   7    -0.413165671493E+03   -0.13834E-04   -0.23612E-04  6011   0.143E-02    0.133E-02
RMM:   8    -0.413165670810E+03    0.68391E-06   -0.37174E-05  5026   0.628E-03    0.680E-03
RMM:   9    -0.413165667037E+03    0.37722E-05   -0.82252E-06  3295   0.372E-03    0.355E-03
RMM:  10    -0.413165666392E+03    0.64524E-06   -0.13434E-06  2530   0.195E-03
   10 T=    61. E= -.41286639E+03 F= -.41316567E+03 E0= -.41314328E+03  EK= 0.29928E+00 SP= 0.00E+00 SK= 0.00E+00
       N       E                     dE             d eps       ncg     rms          rms(c)
RMM:   1    -0.413157455381E+03    0.82117E-02   -0.10992E+01  4299   0.729E-01    0.884E-01
RMM:   2    -0.413168035726E+03   -0.10580E-01   -0.13418E-01  4171   0.956E-02    0.635E-01
RMM:   3    -0.413166795120E+03    0.12406E-02   -0.68060E-03  4915   0.411E-02    0.165E-01
RMM:   4    -0.413200329840E+03   -0.33535E-01   -0.34414E-02  5145   0.154E-01    0.762E-01
RMM:   5    -0.413166193898E+03    0.34136E-01   -0.16720E-02  4810   0.127E-01    0.401E-02
RMM:   6    -0.413166388575E+03   -0.19468E-03   -0.25981E-03  5758   0.499E-02    0.204E-02
RMM:   7    -0.413166403639E+03   -0.15064E-04   -0.32605E-04  5909   0.151E-02    0.146E-02
RMM:   8    -0.413166405580E+03   -0.19407E-05   -0.41613E-05  4681   0.600E-03    0.781E-03
RMM:   9    -0.413166406320E+03   -0.74061E-06   -0.88871E-06  3279   0.324E-03
   11 T=    61. E= -.41286667E+03 F= -.41316641E+03 E0= -.41314405E+03  EK= 0.29973E+00 SP= 0.00E+00 SK= 0.00E+00
       N       E                     dE             d eps       ncg     rms          rms(c)
RMM:   1    -0.413157522741E+03    0.88828E-02   -0.11073E+01  4296   0.739E-01    0.895E-01
RMM:   2    -0.413167790263E+03   -0.10268E-01   -0.13590E-01  4300   0.989E-02    0.642E-01
RMM:   3    -0.413171085961E+03   -0.32957E-02   -0.10740E-02  5160   0.742E-02    0.329E-01
RMM:   4    -0.413194110817E+03   -0.23025E-01   -0.41457E-02  5095   0.172E-01    0.694E-01
RMM:   5    -0.413166209484E+03    0.27901E-01   -0.11279E-02  4710   0.115E-01    0.540E-02
RMM:   6    -0.413166243514E+03   -0.34030E-04   -0.19801E-03  5544   0.438E-02    0.184E-02
RMM:   7    -0.413166265130E+03   -0.21616E-04   -0.28238E-04  6028   0.150E-02    0.130E-02
RMM:   8    -0.413166268337E+03   -0.32072E-05   -0.42567E-05  5073   0.640E-03    0.698E-03
RMM:   9    -0.413166269757E+03   -0.14194E-05   -0.85851E-06  3215   0.366E-03    0.364E-03
RMM:  10    -0.413166271178E+03   -0.14209E-05   -0.16993E-06  2545   0.202E-03    0.214E-03
RMM:  11    -0.413166273086E+03   -0.19084E-05   -0.13193E-06  2547   0.172E-03    0.132E-03
RMM:  12    -0.413166273770E+03   -0.68361E-06   -0.59283E-07  2374   0.121E-03
   12 T=    61. E= -.41286625E+03 F= -.41316627E+03 E0= -.41314394E+03  EK= 0.30003E+00 SP= 0.00E+00 SK= 0.00E+00
       N       E                     dE             d eps       ncg     rms          rms(c)
RMM:   1    -0.413158525374E+03    0.77477E-02   -0.11093E+01  4295   0.744E-01    0.914E-01
RMM:   2    -0.413168002740E+03   -0.94774E-02   -0.13290E-01  4215   0.968E-02    0.633E-01
RMM:   3    -0.413167452267E+03    0.55047E-03   -0.74604E-03  5002   0.409E-02    0.179E-01
RMM:   4    -0.413205639642E+03   -0.38187E-01   -0.39960E-02  5144   0.166E-01    0.813E-01
RMM:   5    -0.413166722564E+03    0.38917E-01   -0.18810E-02  4796   0.136E-01    0.446E-02
RMM:   6    -0.413166944654E+03   -0.22209E-03   -0.30980E-03  5765   0.536E-02    0.227E-02
RMM:   7    -0.413166956374E+03   -0.11720E-04   -0.38224E-04  5936   0.161E-02    0.165E-02
RMM:   8    -0.413166952676E+03    0.36983E-05   -0.50969E-05  4962   0.663E-03    0.932E-03
RMM:   9    -0.413166947012E+03    0.56638E-05   -0.99643E-06  3406   0.342E-03    0.599E-03
RMM:  10    -0.413166943379E+03    0.36332E-05   -0.21908E-06  2563   0.212E-03    0.349E-03
RMM:  11    -0.413166939929E+03    0.34495E-05   -0.16394E-06  2546   0.192E-03    0.164E-03
RMM:  12    -0.413166936771E+03    0.31581E-05   -0.95491E-07  2485   0.153E-03    0.485E-04
RMM:  13    -0.413166936067E+03    0.70442E-06   -0.36188E-07  2130   0.101E-03
   13 T=    61. E= -.41286636E+03 F= -.41316694E+03 E0= -.41314463E+03  EK= 0.30058E+00 SP= 0.00E+00 SK= 0.00E+00
       N       E                     dE             d eps       ncg     rms          rms(c)
RMM:   1    -0.413158622968E+03    0.83138E-02   -0.11012E+01  4295   0.743E-01    0.888E-01
RMM:   2    -0.413168923463E+03   -0.10300E-01   -0.13441E-01  4225   0.947E-02    0.633E-01
RMM:   3    -0.413167827605E+03    0.10959E-02   -0.68750E-03  4878   0.396E-02    0.165E-01
RMM:   4    -0.413199736199E+03   -0.31909E-01   -0.32766E-02  5140   0.150E-01    0.744E-01
RMM:   5    -0.413167286860E+03    0.32449E-01   -0.15837E-02  4801   0.124E-01    0.390E-02
RMM:   6    -0.413167484735E+03   -0.19787E-03   -0.25836E-03  5792   0.486E-02    0.209E-02
RMM:   7    -0.413167496580E+03   -0.11845E-04   -0.30804E-04  5899   0.148E-02    0.150E-02
RMM:   8    -0.413167496141E+03    0.43907E-06   -0.43945E-05  4805   0.624E-03    0.863E-03
RMM:   9    -0.413167493873E+03    0.22682E-05   -0.89671E-06  3346   0.335E-03    0.578E-03
RMM:  10    -0.413167493336E+03    0.53699E-06   -0.19257E-06  2551   0.205E-03
   14 T=    61. E= -.41286636E+03 F= -.41316749E+03 E0= -.41314522E+03  EK= 0.30114E+00 SP= 0.00E+00 SK= 0.00E+00
       N       E                     dE             d eps       ncg     rms          rms(c)
RMM:   1    -0.413158686605E+03    0.88073E-02   -0.11103E+01  4304   0.752E-01    0.892E-01
RMM:   2    -0.413169610299E+03   -0.10924E-01   -0.13681E-01  4285   0.101E-01    0.644E-01
RMM:   3    -0.413171112810E+03   -0.15025E-02   -0.95668E-03  5118   0.663E-02    0.290E-01
RMM:   4    -0.413202484658E+03   -0.31372E-01   -0.46414E-02  5103   0.181E-01    0.772E-01
RMM:   5    -0.413167532746E+03    0.34952E-01   -0.14922E-02  4729   0.128E-01    0.518E-02
RMM:   6    -0.413167638777E+03   -0.10603E-03   -0.24943E-03  5630   0.492E-02    0.177E-02
RMM:   7    -0.413167663154E+03   -0.24377E-04   -0.32447E-04  6009   0.152E-02    0.132E-02
RMM:   8    -0.413167666527E+03   -0.33733E-05   -0.45307E-05  4999   0.645E-03    0.702E-03
RMM:   9    -0.413167667055E+03   -0.52777E-06   -0.82055E-06  3080   0.335E-03
   15 T=    61. E= -.41286609E+03 F= -.41316767E+03 E0= -.41314543E+03  EK= 0.30158E+00 SP= 0.00E+00 SK= 0.00E+00
       N       E                     dE             d eps       ncg     rms          rms(c)
RMM:   1    -0.413165187282E+03    0.24792E-02   -0.11191E+01  4293   0.778E-01    0.915E-01
RMM:   2    -0.413169821740E+03   -0.46345E-02   -0.14361E-01  4256   0.103E-01    0.637E-01
RMM:   3    -0.413168721437E+03    0.11003E-02   -0.71012E-03  4774   0.362E-02    0.171E-01
RMM:   4    -0.413189470670E+03   -0.20749E-01   -0.20941E-02  5148   0.121E-01    0.602E-01
RMM:   5    -0.413168444154E+03    0.21027E-01   -0.10390E-02  4818   0.996E-02    0.337E-02
RMM:   6    -0.413168565937E+03   -0.12178E-03   -0.16832E-03  5858   0.387E-02    0.200E-02
RMM:   7    -0.413168566698E+03   -0.76095E-06   -0.20208E-04  5856   0.127E-02    0.135E-02
RMM:   8    -0.413168561986E+03    0.47115E-05   -0.32575E-05  4602   0.565E-03    0.724E-03
RMM:   9    -0.413168557113E+03    0.48733E-05   -0.66652E-06  3109   0.309E-03    0.512E-03
RMM:  10    -0.413168554282E+03    0.28309E-05   -0.13254E-06  2528   0.184E-03    0.321E-03
RMM:  11    -0.413168550066E+03    0.42167E-05   -0.14602E-06  2540   0.184E-03    0.151E-03
RMM:  12    -0.413168546228E+03    0.38379E-05   -0.85909E-07  2454   0.140E-03    0.561E-04
RMM:  13    -0.413168545788E+03    0.43965E-06   -0.25487E-07  1834   0.858E-04
   16 T=    62. E= -.41286635E+03 F= -.41316855E+03 E0= -.41314635E+03  EK= 0.30220E+00 SP= 0.00E+00 SK= 0.00E+00
       N       E                     dE             d eps       ncg     rms          rms(c)
RMM:   1    -0.413160153891E+03    0.83923E-02   -0.11053E+01  4298   0.753E-01    0.895E-01
RMM:   2    -0.413170445177E+03   -0.10291E-01   -0.13492E-01  4254   0.979E-02    0.633E-01
RMM:   3    -0.413169325643E+03    0.11195E-02   -0.69230E-03  4884   0.399E-02    0.168E-01
RMM:   4    -0.413201111796E+03   -0.31786E-01   -0.32636E-02  5139   0.150E-01    0.742E-01
RMM:   5    -0.413168794886E+03    0.32317E-01   -0.15795E-02  4799   0.124E-01    0.394E-02
RMM:   6    -0.413168985801E+03   -0.19091E-03   -0.25958E-03  5801   0.485E-02    0.214E-02
RMM:   7    -0.413168995517E+03   -0.97157E-05   -0.30954E-04  5885   0.149E-02    0.152E-02
RMM:   8    -0.413168992746E+03    0.27708E-05   -0.44185E-05  4815   0.626E-03    0.872E-03
RMM:   9    -0.413168988249E+03    0.44971E-05   -0.91468E-06  3370   0.337E-03    0.583E-03
RMM:  10    -0.413168985657E+03    0.25915E-05   -0.19138E-06  2545   0.204E-03    0.348E-03
RMM:  11    -0.413168982600E+03    0.30575E-05   -0.17500E-06  2551   0.199E-03    0.162E-03
RMM:  12    -0.413168980031E+03    0.25685E-05   -0.90923E-07  2482   0.151E-03    0.531E-04
RMM:  13    -0.413168979578E+03    0.45288E-06   -0.31973E-07  2078   0.962E-04
   17 T=    62. E= -.41286631E+03 F= -.41316898E+03 E0= -.41314682E+03  EK= 0.30267E+00 SP= 0.00E+00 SK= 0.00E+00
       N       E                     dE             d eps       ncg     rms          rms(c)
RMM:   1    -0.413160540065E+03    0.84400E-02   -0.11131E+01  4300   0.766E-01    0.890E-01
RMM:   2    -0.413171455486E+03   -0.10915E-01   -0.13742E-01  4256   0.102E-01    0.645E-01
RMM:   3    -0.413169949248E+03    0.15062E-02   -0.69378E-03  4899   0.410E-02    0.165E-01
RMM:   4    -0.413204581313E+03   -0.34632E-01   -0.35841E-02  5143   0.157E-01    0.774E-01
RMM:   5    -0.413169307621E+03    0.35274E-01   -0.17235E-02  4794   0.129E-01    0.402E-02
RMM:   6    -0.413169512919E+03   -0.20530E-03   -0.28263E-03  5804   0.509E-02    0.210E-02
RMM:   7    -0.413169526489E+03   -0.13570E-04   -0.32812E-04  5923   0.152E-02    0.153E-02
RMM:   8    -0.413169526804E+03   -0.31478E-06   -0.47301E-05  4874   0.642E-03    0.895E-03
RMM:   9    -0.413169524983E+03    0.18204E-05   -0.96825E-06  3418   0.346E-03    0.589E-03
RMM:  10    -0.413169525268E+03   -0.28445E-06   -0.21433E-06  2559   0.212E-03
   18 T=    62. E= -.41286623E+03 F= -.41316953E+03 E0= -.41314741E+03  EK= 0.30329E+00 SP= 0.00E+00 SK= 0.00E+00
       N       E                     dE             d eps       ncg     rms          rms(c)
RMM:   1    -0.413162202325E+03    0.73227E-02   -0.11184E+01  4305   0.765E-01    0.914E-01
RMM:   2    -0.413171980695E+03   -0.97784E-02   -0.13567E-01  4306   0.101E-01    0.640E-01
RMM:   3    -0.413174637873E+03   -0.26572E-02   -0.10249E-02  5126   0.693E-02    0.307E-01
RMM:   4    -0.413200029542E+03   -0.25392E-01   -0.41422E-02  5093   0.171E-01    0.712E-01
RMM:   5    -0.413170624008E+03    0.29406E-01   -0.12285E-02  4714   0.118E-01    0.501E-02
RMM:   6    -0.413170689603E+03   -0.65594E-04   -0.20635E-03  5609   0.449E-02    0.196E-02
RMM:   7    -0.413170701452E+03   -0.11850E-04   -0.27486E-04  5983   0.143E-02    0.135E-02
RMM:   8    -0.413170698193E+03    0.32599E-05   -0.41710E-05  4991   0.638E-03    0.695E-03
RMM:   9    -0.413170690671E+03    0.75211E-05   -0.75521E-06  3018   0.332E-03    0.309E-03
RMM:  10    -0.413170687936E+03    0.27350E-05   -0.18247E-06  2549   0.192E-03    0.187E-03
RMM:  11    -0.413170684014E+03    0.39220E-05   -0.10158E-06  2517   0.153E-03    0.109E-03
RMM:  12    -0.413170681213E+03    0.28018E-05   -0.50505E-07  2166   0.112E-03    0.485E-04
RMM:  13    -0.413170678842E+03    0.23708E-05   -0.30142E-07  1831   0.890E-04    0.217E-04
RMM:  14    -0.413170676948E+03    0.18941E-05   -0.19577E-07  1480   0.754E-04    0.133E-04
RMM:  15    -0.413170673820E+03    0.31275E-05   -0.21896E-07  1660   0.764E-04    0.145E-04
RMM:  16    -0.413170672363E+03    0.14576E-05   -0.11540E-07  1255   0.624E-04    0.117E-04
RMM:  17    -0.413170670344E+03    0.20186E-05   -0.98252E-08  1219   0.606E-04    0.440E-05
RMM:  18    -0.413170668999E+03    0.13454E-05   -0.60394E-08   997   0.554E-04    0.354E-05
RMM:  19    -0.413170668305E+03    0.69369E-06   -0.33790E-08   834   0.522E-04
   19 T=    62. E= -.41286653E+03 F= -.41317067E+03 E0= -.41314859E+03  EK= 0.30413E+00 SP= 0.00E+00 SK= 0.00E+00
       N       E                     dE             d eps       ncg     rms          rms(c)
RMM:   1    -0.413162964542E+03    0.77045E-02   -0.11131E+01  4298   0.778E-01    0.904E-01
RMM:   2    -0.413172465920E+03   -0.95014E-02   -0.13602E-01  4254   0.101E-01    0.634E-01
RMM:   3    -0.413171671594E+03    0.79433E-03   -0.71451E-03  4956   0.419E-02    0.180E-01
RMM:   4    -0.413210446442E+03   -0.38775E-01   -0.40743E-02  5147   0.167E-01    0.818E-01
RMM:   5    -0.413170954179E+03    0.39492E-01   -0.19307E-02  4787   0.137E-01    0.441E-02
RMM:   6    -0.413171170301E+03   -0.21612E-03   -0.31773E-03  5763   0.542E-02    0.227E-02
RMM:   7    -0.413171181198E+03   -0.10897E-04   -0.38072E-04  5883   0.162E-02    0.164E-02
RMM:   8    -0.413171176981E+03    0.42167E-05   -0.52760E-05  4999   0.675E-03    0.946E-03
RMM:   9    -0.413171170341E+03    0.66402E-05   -0.10766E-05  3509   0.357E-03    0.615E-03
RMM:  10    -0.413171165959E+03    0.43816E-05   -0.22349E-06  2556   0.217E-03    0.358E-03
RMM:  11    -0.413171161643E+03    0.43163E-05   -0.17145E-06  2545   0.199E-03    0.170E-03
RMM:  12    -0.413171158158E+03    0.34848E-05   -0.89145E-07  2475   0.154E-03    0.503E-04
RMM:  13    -0.413171157457E+03    0.70077E-06   -0.34717E-07  2141   0.101E-03
   20 T=    62. E= -.41286633E+03 F= -.41317116E+03 E0= -.41314912E+03  EK= 0.30483E+00 SP= 0.00E+00 SK= 0.00E+00
       N       E                     dE             d eps       ncg     rms          rms(c)
RMM:   1    -0.413163141596E+03    0.80166E-02   -0.11169E+01  4301   0.778E-01    0.890E-01
RMM:   2    -0.413173881285E+03   -0.10740E-01   -0.13879E-01  4275   0.102E-01    0.645E-01
RMM:   3    -0.413172482027E+03    0.13993E-02   -0.69987E-03  4910   0.428E-02    0.170E-01
RMM:   4    -0.413209399363E+03   -0.36917E-01   -0.38459E-02  5139   0.162E-01    0.798E-01
RMM:   5    -0.413171793708E+03    0.37606E-01   -0.18500E-02  4791   0.134E-01    0.413E-02
RMM:   6    -0.413172003912E+03   -0.21020E-03   -0.30005E-03  5791   0.528E-02    0.213E-02
RMM:   7    -0.413172018760E+03   -0.14848E-04   -0.35328E-04  5922   0.157E-02    0.155E-02
RMM:   8    -0.413172018179E+03    0.58179E-06   -0.51214E-05  4940   0.667E-03    0.924E-03
RMM:   9    -0.413172014810E+03    0.33684E-05   -0.10624E-05  3497   0.360E-03    0.606E-03
RMM:  10    -0.413172013802E+03    0.10079E-05   -0.22949E-06  2568   0.219E-03    0.355E-03
RMM:  11    -0.413172012749E+03    0.10534E-05   -0.19739E-06  2572   0.208E-03    0.167E-03
RMM:  12    -0.413172011638E+03    0.11103E-05   -0.89362E-07  2476   0.153E-03    0.538E-04
RMM:  13    -0.413172011396E+03    0.24259E-06   -0.33239E-07  2114   0.981E-04
   21 T=    62. E= -.41286627E+03 F= -.41317201E+03 E0= -.41315002E+03  EK= 0.30574E+00 SP= 0.00E+00 SK= 0.00E+00
       N       E                     dE             d eps       ncg     rms          rms(c)
RMM:   1    -0.413164550110E+03    0.74615E-02   -0.11245E+01  4300   0.786E-01    0.912E-01
RMM:   2    -0.413174632875E+03   -0.10083E-01   -0.13761E-01  4279   0.101E-01    0.644E-01
RMM:   3    -0.413173628770E+03    0.10041E-02   -0.72716E-03  4892   0.442E-02    0.175E-01
RMM:   4    -0.413211102521E+03   -0.37474E-01   -0.38967E-02  5142   0.163E-01    0.804E-01
RMM:   5    -0.413172970638E+03    0.38132E-01   -0.18705E-02  4787   0.135E-01    0.427E-02
RMM:   6    -0.413173184982E+03   -0.21434E-03   -0.31153E-03  5786   0.535E-02    0.225E-02
RMM:   7    -0.413173197338E+03   -0.12356E-04   -0.36996E-04  5903   0.160E-02    0.162E-02
RMM:   8    -0.413173193414E+03    0.39236E-05   -0.52390E-05  4979   0.675E-03    0.962E-03
RMM:   9    -0.413173186757E+03    0.66572E-05   -0.10743E-05  3515   0.359E-03    0.632E-03
RMM:  10    -0.413173182450E+03    0.43076E-05   -0.22492E-06  2567   0.218E-03    0.373E-03
RMM:  11    -0.413173177674E+03    0.47759E-05   -0.18819E-06  2565   0.207E-03    0.176E-03
RMM:  12    -0.413173173809E+03    0.38647E-05   -0.91034E-07  2475   0.157E-03    0.545E-04
RMM:  13    -0.413173173014E+03    0.79485E-06   -0.34669E-07  2144   0.102E-03
   22 T=    62. E= -.41286643E+03 F= -.41317317E+03 E0= -.41315123E+03  EK= 0.30674E+00 SP= 0.00E+00 SK= 0.00E+00
       N       E                     dE             d eps       ncg     rms          rms(c)
RMM:   1    -0.413166250659E+03    0.69231E-02   -0.11240E+01  4299   0.801E-01    0.914E-01
RMM:   2    -0.413175269543E+03   -0.90189E-02   -0.13644E-01  4276   0.105E-01    0.637E-01
RMM:   3    -0.413174383389E+03    0.88615E-03   -0.73382E-03  4877   0.451E-02    0.177E-01
RMM:   4    -0.413210755914E+03   -0.36373E-01   -0.37776E-02  5144   0.161E-01    0.793E-01
RMM:   5    -0.413173667590E+03    0.37088E-01   -0.18240E-02  4790   0.133E-01    0.426E-02
RMM:   6    -0.413173871197E+03   -0.20361E-03   -0.30231E-03  5788   0.529E-02    0.232E-02
RMM:   7    -0.413173878724E+03   -0.75266E-05   -0.35371E-04  5897   0.160E-02    0.163E-02
RMM:   8    -0.413173872104E+03    0.66195E-05   -0.53149E-05  4995   0.686E-03    0.978E-03
RMM:   9    -0.413173862962E+03    0.91425E-05   -0.10769E-05  3543   0.366E-03    0.643E-03
RMM:  10    -0.413173856335E+03    0.66266E-05   -0.22013E-06  2568   0.220E-03    0.382E-03
RMM:  11    -0.413173848860E+03    0.74748E-05   -0.19577E-06  2566   0.213E-03    0.177E-03
RMM:  12    -0.413173843057E+03    0.58036E-05   -0.92284E-07  2481   0.160E-03    0.560E-04
RMM:  13    -0.413173841997E+03    0.10591E-05   -0.34906E-07  2148   0.102E-03    0.400E-04
RMM:  14    -0.413173840802E+03    0.11957E-05   -0.17241E-07  1608   0.764E-04    0.249E-04
RMM:  15    -0.413173836040E+03    0.47619E-05   -0.21563E-07  1886   0.814E-04    0.297E-04
RMM:  16    -0.413173835580E+03    0.45950E-06   -0.67331E-08  1006   0.590E-04
   23 T=    63. E= -.41286614E+03 F= -.41317384E+03 E0= -.41315194E+03  EK= 0.30770E+00 SP= 0.00E+00 SK= 0.00E+00
       N       E                     dE             d eps       ncg     rms          rms(c)
RMM:   1    -0.413166393861E+03    0.74422E-02   -0.11229E+01  4293   0.791E-01    0.893E-01
RMM:   2    -0.413177396805E+03   -0.11003E-01   -0.13935E-01  4274   0.105E-01    0.645E-01
RMM:   3    -0.413175780312E+03    0.16165E-02   -0.69619E-03  4854   0.437E-02    0.169E-01
RMM:   4    -0.413209712707E+03   -0.33932E-01   -0.34912E-02  5149   0.155E-01    0.765E-01
RMM:   5    -0.413175245028E+03    0.34468E-01   -0.17070E-02  4795   0.129E-01    0.394E-02
RMM:   6    -0.413175428525E+03   -0.18350E-03   -0.27008E-03  5784   0.505E-02    0.213E-02
RMM:   7    -0.413175440388E+03   -0.11863E-04   -0.31852E-04  5880   0.153E-02    0.150E-02
RMM:   8    -0.413175438372E+03    0.20162E-05   -0.48608E-05  4927   0.658E-03    0.906E-03
RMM:   9    -0.413175433402E+03    0.49699E-05   -0.10141E-05  3506   0.356E-03    0.598E-03
RMM:  10    -0.413175431081E+03    0.23207E-05   -0.20421E-06  2553   0.211E-03    0.357E-03
RMM:  11    -0.413175428556E+03    0.25259E-05   -0.18737E-06  2563   0.206E-03    0.167E-03
RMM:  12    -0.413175426473E+03    0.20822E-05   -0.84266E-07  2469   0.152E-03    0.548E-04
RMM:  13    -0.413175426055E+03    0.41823E-06   -0.31814E-07  2104   0.973E-04
   24 T=    63. E= -.41286646E+03 F= -.41317543E+03 E0= -.41315358E+03  EK= 0.30896E+00 SP= 0.00E+00 SK= 0.00E+00
       N       E                     dE             d eps       ncg     rms          rms(c)
RMM:   1    -0.413167584112E+03    0.78424E-02   -0.11331E+01  4296   0.797E-01    0.909E-01
RMM:   2    -0.413178272794E+03   -0.10689E-01   -0.13929E-01  4276   0.106E-01    0.650E-01
RMM:   3    -0.413176742294E+03    0.15305E-02   -0.70861E-03  4824   0.432E-02    0.167E-01
RMM:   4    -0.413207116894E+03   -0.30375E-01   -0.30979E-02  5150   0.146E-01    0.725E-01
RMM:   5    -0.413176276142E+03    0.30841E-01   -0.15295E-02  4805   0.122E-01    0.376E-02
RMM:   6    -0.413176436444E+03   -0.16030E-03   -0.24254E-03  5810   0.477E-02    0.211E-02
RMM:   7    -0.413176445561E+03   -0.91164E-05   -0.27067E-04  5831   0.144E-02    0.138E-02
RMM:   8    -0.413176442956E+03    0.26045E-05   -0.46528E-05  4905   0.644E-03    0.910E-03
RMM:   9    -0.413176436438E+03    0.65185E-05   -0.10452E-05  3654   0.367E-03    0.601E-03
RMM:  10    -0.413176432883E+03    0.35544E-05   -0.19362E-06  2555   0.215E-03    0.366E-03
RMM:  11    -0.413176428447E+03    0.44359E-05   -0.19604E-06  2563   0.213E-03    0.170E-03
RMM:  12    -0.413176424990E+03    0.34576E-05   -0.81329E-07  2469   0.153E-03    0.547E-04
RMM:  13    -0.413176424361E+03    0.62893E-06   -0.30705E-07  2077   0.960E-04
   25 T=    63. E= -.41286638E+03 F= -.41317642E+03 E0= -.41315463E+03  EK= 0.31005E+00 SP= 0.00E+00 SK= 0.00E+00
       N       E                     dE             d eps       ncg     rms          rms(c)
RMM:   1    -0.413169108308E+03    0.73167E-02   -0.11355E+01  4296   0.808E-01    0.924E-01
RMM:   2    -0.413178743730E+03   -0.96354E-02   -0.13835E-01  4271   0.109E-01    0.642E-01
RMM:   3    -0.413177733362E+03    0.10104E-02   -0.73538E-03  4718   0.424E-02    0.168E-01
RMM:   4    -0.413202017634E+03   -0.24284E-01   -0.24580E-02  5149   0.131E-01    0.650E-01
RMM:   5    -0.413177401931E+03    0.24616E-01   -0.12286E-02  4809   0.109E-01    0.359E-02
RMM:   6    -0.413177524253E+03   -0.12232E-03   -0.19691E-03  5812   0.422E-02    0.207E-02
RMM:   7    -0.413177525626E+03   -0.13733E-05   -0.20048E-04  5656   0.127E-02    0.116E-02
RMM:   8    -0.413177518500E+03    0.71259E-05   -0.31564E-05  4538   0.536E-03    0.770E-03
RMM:   9    -0.413177511326E+03    0.71744E-05   -0.85935E-06  3436   0.327E-03    0.562E-03
RMM:  10    -0.413177506694E+03    0.46318E-05   -0.17082E-06  2555   0.207E-03    0.365E-03
RMM:  11    -0.413177497468E+03    0.92262E-05   -0.19826E-06  2581   0.216E-03    0.165E-03
RMM:  12    -0.413177490736E+03    0.67316E-05   -0.79650E-07  2465   0.154E-03    0.688E-04
RMM:  13    -0.413177489983E+03    0.75387E-06   -0.26128E-07  2061   0.932E-04
   26 T=    63. E= -.41286618E+03 F= -.41317749E+03 E0= -.41315574E+03  EK= 0.31131E+00 SP= 0.00E+00 SK= 0.00E+00
       N       E                     dE             d eps       ncg     rms          rms(c)
RMM:   1    -0.413170142672E+03    0.73481E-02   -0.11318E+01  4293   0.806E-01    0.899E-01
RMM:   2    -0.413180907961E+03   -0.10765E-01   -0.13992E-01  4270   0.105E-01    0.645E-01
RMM:   3    -0.413179515988E+03    0.13920E-02   -0.69433E-03  4594   0.410E-02    0.160E-01
RMM:   4    -0.413195462511E+03   -0.15947E-01   -0.16196E-02  5152   0.107E-01    0.529E-01
RMM:   5    -0.413179341392E+03    0.16121E-01   -0.80937E-03  4820   0.875E-02    0.299E-02
RMM:   6    -0.413179408501E+03   -0.67109E-04   -0.12467E-03  5838   0.334E-02    0.176E-02
RMM:   7    -0.413179409162E+03   -0.66088E-06   -0.12498E-04  5485   0.104E-02    0.901E-03
RMM:   8    -0.413179402862E+03    0.62996E-05   -0.20293E-05  4141   0.448E-03    0.573E-03
RMM:   9    -0.413179400259E+03    0.26031E-05   -0.50645E-06  2930   0.271E-03    0.452E-03
RMM:  10    -0.413179397402E+03    0.28567E-05   -0.98577E-07  2503   0.169E-03    0.302E-03
RMM:  11    -0.413179391212E+03    0.61900E-05   -0.14516E-06  2530   0.190E-03    0.146E-03
RMM:  12    -0.413179388248E+03    0.29640E-05   -0.57515E-07  2376   0.128E-03    0.685E-04
RMM:  13    -0.413179387541E+03    0.70716E-06   -0.18600E-07  1682   0.794E-04
   27 T=    64. E= -.41286649E+03 F= -.41317939E+03 E0= -.41315769E+03  EK= 0.31289E+00 SP= 0.00E+00 SK= 0.00E+00
       N       E                     dE             d eps       ncg     rms          rms(c)
RMM:   1    -0.413171998152E+03    0.73901E-02   -0.11450E+01  4291   0.843E-01    0.908E-01
RMM:   2    -0.413182177328E+03   -0.10179E-01   -0.14274E-01  4268   0.109E-01    0.656E-01
RMM:   3    -0.413180566563E+03    0.16108E-02   -0.71042E-03  4446   0.426E-02    0.155E-01
RMM:   4    -0.413188660444E+03   -0.80939E-02   -0.85807E-03  5144   0.806E-02    0.379E-01
RMM:   5    -0.413180459211E+03    0.82012E-02   -0.40327E-03  4829   0.619E-02    0.253E-02
RMM:   6    -0.413180478733E+03   -0.19522E-04   -0.62316E-04  5837   0.239E-02    0.163E-02
RMM:   7    -0.413180478628E+03    0.10485E-06   -0.99349E-05  5445   0.980E-03    0.101E-02
RMM:   8    -0.413180469649E+03    0.89789E-05   -0.15745E-05  4065   0.459E-03    0.442E-03
RMM:   9    -0.413180467385E+03    0.22641E-05   -0.29561E-06  2734   0.239E-03    0.342E-03
RMM:  10    -0.413180464730E+03    0.26543E-05   -0.76319E-07  2477   0.151E-03    0.214E-03
RMM:  11    -0.413180460913E+03    0.38177E-05   -0.67248E-07  2457   0.132E-03    0.961E-04
RMM:  12    -0.413180457902E+03    0.30113E-05   -0.36416E-07  2018   0.967E-04    0.344E-04
RMM:  13    -0.413180456824E+03    0.10775E-05   -0.15272E-07  1317   0.708E-04    0.193E-04
RMM:  14    -0.413180455411E+03    0.14129E-05   -0.10322E-07  1149   0.657E-04    0.119E-04
RMM:  15    -0.413180452196E+03    0.32154E-05   -0.12282E-07  1347   0.695E-04    0.144E-04
RMM:  16    -0.413180451923E+03    0.27230E-06   -0.45105E-08   870   0.577E-04
   28 T=    64. E= -.41286607E+03 F= -.41318045E+03 E0= -.41315880E+03  EK= 0.31439E+00 SP= 0.00E+00 SK= 0.00E+00
       N       E                     dE             d eps       ncg     rms          rms(c)
RMM:   1    -0.413175558396E+03    0.48938E-02   -0.11530E+01  4290   0.852E-01    0.932E-01
RMM:   2    -0.413183892044E+03   -0.83336E-02   -0.14160E-01  4267   0.112E-01    0.648E-01
RMM:   3    -0.413182718580E+03    0.11735E-02   -0.74987E-03  4420   0.423E-02    0.163E-01
RMM:   4    -0.413188888847E+03   -0.61703E-02   -0.66714E-03  5169   0.691E-02    0.331E-01
RMM:   5    -0.413182689097E+03    0.61997E-02   -0.30975E-03  4831   0.543E-02    0.270E-02
RMM:   6    -0.413182700377E+03   -0.11280E-04   -0.53306E-04  5807   0.219E-02    0.187E-02
RMM:   7    -0.413182690722E+03    0.96553E-05   -0.10521E-04  5336   0.100E-02    0.962E-03
RMM:   8    -0.413182680102E+03    0.10620E-04   -0.11595E-05  3609   0.411E-03    0.421E-03
RMM:   9    -0.413182675920E+03    0.41819E-05   -0.19949E-06  2628   0.209E-03    0.308E-03
RMM:  10    -0.413182670124E+03    0.57961E-05   -0.77032E-07  2467   0.147E-03    0.177E-03
RMM:  11    -0.413182663513E+03    0.66107E-05   -0.56359E-07  2380   0.124E-03    0.751E-04
RMM:  12    -0.413182658757E+03    0.47555E-05   -0.29377E-07  1978   0.922E-04    0.286E-04
RMM:  13    -0.413182656856E+03    0.19018E-05   -0.13604E-07  1287   0.697E-04    0.162E-04
RMM:  14    -0.413182653377E+03    0.34786E-05   -0.10591E-07  1238   0.677E-04    0.923E-05
RMM:  15    -0.413182649724E+03    0.36535E-05   -0.91523E-08  1308   0.666E-04    0.939E-05
RMM:  16    -0.413182647869E+03    0.18543E-05   -0.54820E-08  1069   0.594E-04    0.594E-05
RMM:  17    -0.413182644613E+03    0.32565E-05   -0.65916E-08  1242   0.611E-04    0.413E-05
RMM:  18    -0.413182644275E+03    0.33828E-06   -0.22815E-08   756   0.512E-04
   29 T=    64. E= -.41286634E+03 F= -.41318264E+03 E0= -.41316105E+03  EK= 0.31630E+00 SP= 0.00E+00 SK= 0.00E+00
       N       E                     dE             d eps       ncg     rms          rms(c)
RMM:   1    -0.413175274221E+03    0.73704E-02   -0.11467E+01  4290   0.834E-01    0.910E-01
RMM:   2    -0.413185997716E+03   -0.10723E-01   -0.14299E-01  4265   0.111E-01    0.648E-01
RMM:   3    -0.413184511075E+03    0.14866E-02   -0.71265E-03  4464   0.438E-02    0.162E-01
RMM:   4    -0.413193724894E+03   -0.92138E-02   -0.97062E-03  5160   0.841E-02    0.405E-01
RMM:   5    -0.413184375757E+03    0.93491E-02   -0.47062E-03  4825   0.667E-02    0.273E-02
RMM:   6    -0.413184400905E+03   -0.25148E-04   -0.74580E-04  5833   0.258E-02    0.180E-02
RMM:   7    -0.413184398859E+03    0.20458E-05   -0.12020E-04  5484   0.105E-02    0.108E-02
RMM:   8    -0.413184388463E+03    0.10397E-04   -0.17992E-05  4119   0.482E-03    0.469E-03
RMM:   9    -0.413184385144E+03    0.33185E-05   -0.34107E-06  2783   0.248E-03    0.356E-03
RMM:  10    -0.413184381411E+03    0.37332E-05   -0.76249E-07  2482   0.152E-03    0.223E-03
RMM:  11    -0.413184376196E+03    0.52152E-05   -0.65384E-07  2455   0.132E-03    0.103E-03
RMM:  12    -0.413184372336E+03    0.38596E-05   -0.36422E-07  2096   0.991E-04    0.396E-04
RMM:  13    -0.413184370938E+03    0.13982E-05   -0.15079E-07  1380   0.717E-04    0.200E-04
RMM:  14    -0.413184368958E+03    0.19799E-05   -0.97721E-08  1125   0.657E-04    0.106E-04
RMM:  15    -0.413184365750E+03    0.32084E-05   -0.92480E-08  1225   0.669E-04    0.115E-04
RMM:  16    -0.413184365172E+03    0.57776E-06   -0.42884E-08   877   0.587E-04
   30 T=    65. E= -.41286625E+03 F= -.41318437E+03 E0= -.41316282E+03  EK= 0.31812E+00 SP= 0.00E+00 SK= 0.00E+00
       N       E                     dE             d eps       ncg     rms          rms(c)
RMM:   1    -0.413177419220E+03    0.69465E-02   -0.11603E+01  4291   0.872E-01    0.911E-01
RMM:   2    -0.413188355435E+03   -0.10936E-01   -0.14865E-01  4264   0.120E-01    0.662E-01
RMM:   3    -0.413186048034E+03    0.23074E-02   -0.70307E-03  4379   0.409E-02    0.159E-01
RMM:   4    -0.413190139528E+03   -0.40915E-02   -0.48168E-03  5139   0.590E-02    0.270E-01
RMM:   5    -0.413186041567E+03    0.40980E-02   -0.20488E-03  4825   0.443E-02    0.240E-02
RMM:   6    -0.413186044155E+03   -0.25874E-05   -0.34487E-04  5757   0.183E-02    0.174E-02
RMM:   7    -0.413186040196E+03    0.39582E-05   -0.82309E-05  5204   0.897E-03    0.769E-03
RMM:   8    -0.413186034569E+03    0.56279E-05   -0.90336E-06  3363   0.370E-03    0.370E-03
RMM:   9    -0.413186033136E+03    0.14328E-05   -0.12840E-06  2540   0.186E-03    0.254E-03
RMM:  10    -0.413186030121E+03    0.30152E-05   -0.72389E-07  2422   0.133E-03    0.134E-03
RMM:  11    -0.413186027186E+03    0.29350E-05   -0.45557E-07  2162   0.105E-03    0.528E-04
RMM:  12    -0.413186025023E+03    0.21622E-05   -0.23813E-07  1632   0.818E-04    0.216E-04
RMM:  13    -0.413186023735E+03    0.12885E-05   -0.12724E-07  1158   0.681E-04    0.135E-04
RMM:  14    -0.413186021891E+03    0.18435E-05   -0.10714E-07  1224   0.672E-04    0.811E-05
RMM:  15    -0.413186019510E+03    0.23814E-05   -0.10004E-07  1309   0.657E-04    0.679E-05
RMM:  16    -0.413186018529E+03    0.98130E-06   -0.49415E-08   933   0.566E-04
   31 T=    65. E= -.41286603E+03 F= -.41318602E+03 E0= -.41316452E+03  EK= 0.31999E+00 SP= 0.00E+00 SK= 0.00E+00
       N       E                     dE             d eps       ncg     rms          rms(c)
RMM:   1    -0.413186893174E+03   -0.87366E-03   -0.11762E+01  4294   0.921E-01    0.937E-01
RMM:   2    -0.413190099430E+03   -0.32063E-02   -0.15443E-01  4263   0.121E-01    0.657E-01
RMM:   3    -0.413188800032E+03    0.12994E-02   -0.74506E-03  4306   0.499E-02    0.174E-01
RMM:   4    -0.413191996463E+03   -0.31964E-02   -0.40358E-03  5119   0.558E-02    0.238E-01
RMM:   5    -0.413188800187E+03    0.31963E-02   -0.15646E-03  4815   0.393E-02    0.261E-02
RMM:   6    -0.413188797465E+03    0.27223E-05   -0.30580E-04  5716   0.173E-02    0.191E-02
RMM:   7    -0.413188782198E+03    0.15267E-04   -0.84869E-05  5118   0.914E-03    0.735E-03
RMM:   8    -0.413188774409E+03    0.77891E-05   -0.72178E-06  3183   0.346E-03    0.373E-03
RMM:   9    -0.413188771254E+03    0.31551E-05   -0.10231E-06  2506   0.176E-03    0.248E-03
RMM:  10    -0.413188763551E+03    0.77027E-05   -0.72937E-07  2446   0.136E-03    0.121E-03
RMM:  11    -0.413188758646E+03    0.49054E-05   -0.34944E-07  2048   0.970E-04    0.523E-04
RMM:  12    -0.413188753825E+03    0.48209E-05   -0.20425E-07  1599   0.800E-04    0.203E-04
RMM:  13    -0.413188750626E+03    0.31982E-05   -0.11778E-07  1259   0.687E-04    0.124E-04
RMM:  14    -0.413188747109E+03    0.35177E-05   -0.87997E-08  1210   0.653E-04    0.865E-05
RMM:  15    -0.413188742161E+03    0.49477E-05   -0.94273E-08  1415   0.664E-04    0.778E-05
RMM:  16    -0.413188740644E+03    0.15174E-05   -0.45314E-08   966   0.548E-04    0.529E-05
RMM:  17    -0.413188738310E+03    0.23338E-05   -0.39411E-08   942   0.544E-04    0.255E-05
RMM:  18    -0.413188737750E+03    0.56016E-06   -0.18806E-08   715   0.506E-04
   32 T=    66. E= -.41286644E+03 F= -.41318874E+03 E0= -.41316729E+03  EK= 0.32230E+00 SP= 0.00E+00 SK= 0.00E+00
       N       E                     dE             d eps       ncg     rms          rms(c)
RMM:   1    -0.413195403820E+03   -0.66655E-02   -0.11805E+01  4291   0.956E-01    0.924E-01
RMM:   2    -0.413192487214E+03    0.29166E-02   -0.16301E-01  4271   0.135E-01    0.654E-01
RMM:   3    -0.413190686825E+03    0.18004E-02   -0.69673E-03  4137   0.413E-02    0.185E-01
RMM:   4    -0.413190850645E+03   -0.16382E-03   -0.14185E-03  4879   0.285E-02    0.576E-02
RMM:   5    -0.413190699067E+03    0.15158E-03   -0.11446E-04  4667   0.113E-02    0.263E-02
RMM:   6    -0.413190684200E+03    0.14868E-04   -0.85467E-05  5203   0.976E-03    0.185E-02
RMM:   7    -0.413190665494E+03    0.18705E-04   -0.56735E-05  4458   0.754E-03    0.592E-03
RMM:   8    -0.413190661818E+03    0.36767E-05   -0.34485E-06  2770   0.284E-03    0.317E-03
RMM:   9    -0.413190659998E+03    0.18203E-05   -0.61726E-07  2295   0.145E-03    0.174E-03
RMM:  10    -0.413190652309E+03    0.76882E-05   -0.42698E-07  1874   0.989E-04    0.631E-04
RMM:  11    -0.413190647101E+03    0.52088E-05   -0.16958E-07  1378   0.718E-04    0.258E-04
RMM:  12    -0.413190643810E+03    0.32900E-05   -0.86133E-08  1158   0.625E-04    0.159E-04
RMM:  13    -0.413190638732E+03    0.50784E-05   -0.77348E-08  1048   0.612E-04    0.969E-05
RMM:  14    -0.413190635651E+03    0.30813E-05   -0.35668E-08   783   0.546E-04    0.637E-05
RMM:  15    -0.413190633034E+03    0.26172E-05   -0.26610E-08   757   0.532E-04    0.540E-05
RMM:  16    -0.413190629915E+03    0.31183E-05   -0.31867E-08   856   0.547E-04    0.482E-05
RMM:  17    -0.413190629444E+03    0.47104E-06   -0.71407E-09   492   0.473E-04
   33 T=    66. E= -.41286621E+03 F= -.41319063E+03 E0= -.41316923E+03  EK= 0.32442E+00 SP= 0.00E+00 SK= 0.00E+00
       N       E                     dE             d eps       ncg     rms          rms(c)
RMM:   1    -0.413194688927E+03   -0.40590E-02   -0.11889E+01  4290   0.970E-01    0.916E-01
RMM:   2    -0.413195247236E+03   -0.55831E-03   -0.15451E-01  4261   0.131E-01    0.666E-01
RMM:   3    -0.413193124270E+03    0.21230E-02   -0.71416E-03  4393   0.464E-02    0.165E-01
RMM:   4    -0.413197776747E+03   -0.46525E-02   -0.53222E-03  5144   0.646E-02    0.287E-01
RMM:   5    -0.413193151614E+03    0.46251E-02   -0.22659E-03  4799   0.473E-02    0.260E-02
RMM:   6    -0.413193142341E+03    0.92729E-05   -0.38959E-04  5730   0.201E-02    0.187E-02
RMM:   7    -0.413193138378E+03    0.39624E-05   -0.90351E-05  5207   0.946E-03    0.818E-03
RMM:   8    -0.413193132425E+03    0.59534E-05   -0.12149E-05  3785   0.417E-03    0.405E-03
RMM:   9    -0.413193130918E+03    0.15066E-05   -0.16037E-06  2589   0.199E-03    0.254E-03
RMM:  10    -0.413193127632E+03    0.32863E-05   -0.68844E-07  2430   0.135E-03    0.137E-03
RMM:  11    -0.413193123941E+03    0.36907E-05   -0.47710E-07  2224   0.108E-03    0.572E-04
RMM:  12    -0.413193121350E+03    0.25913E-05   -0.24621E-07  1643   0.824E-04    0.242E-04
RMM:  13    -0.413193119814E+03    0.15362E-05   -0.12899E-07  1138   0.681E-04    0.136E-04
RMM:  14    -0.413193118169E+03    0.16446E-05   -0.97088E-08  1120   0.651E-04    0.859E-05
RMM:  15    -0.413193115230E+03    0.29398E-05   -0.99568E-08  1248   0.661E-04    0.646E-05
RMM:  16    -0.413193114694E+03    0.53590E-06   -0.44258E-08   870   0.569E-04
   34 T=    67. E= -.41286639E+03 F= -.41319311E+03 E0= -.41317176E+03  EK= 0.32672E+00 SP= 0.00E+00 SK= 0.00E+00
       N       E                     dE             d eps       ncg     rms          rms(c)
RMM:   1    -0.413186809421E+03    0.63058E-02   -0.11895E+01  4300   0.919E-01    0.941E-01
RMM:   2    -0.413197532348E+03   -0.10723E-01   -0.15358E-01  4256   0.132E-01    0.666E-01
RMM:   3    -0.413195888754E+03    0.16436E-02   -0.73898E-03  4472   0.455E-02    0.172E-01
RMM:   4    -0.413202827992E+03   -0.69392E-02   -0.76031E-03  5161   0.742E-02    0.355E-01
RMM:   5    -0.413195762980E+03    0.70650E-02   -0.36067E-03  4818   0.587E-02    0.287E-02
RMM:   6    -0.413195753045E+03    0.99344E-05   -0.60048E-04  5759   0.241E-02    0.200E-02
RMM:   7    -0.413195745835E+03    0.72103E-05   -0.11504E-04  5366   0.103E-02    0.944E-03
RMM:   8    -0.413195736481E+03    0.93540E-05   -0.16860E-05  4074   0.463E-03    0.444E-03
RMM:   9    -0.413195733088E+03    0.33934E-05   -0.25452E-06  2716   0.224E-03    0.285E-03
RMM:  10    -0.413195727356E+03    0.57319E-05   -0.69579E-07  2457   0.140E-03    0.166E-03
RMM:  11    -0.413195720188E+03    0.71681E-05   -0.52055E-07  2366   0.116E-03    0.729E-04
RMM:  12    -0.413195714858E+03    0.53296E-05   -0.27711E-07  1848   0.885E-04    0.292E-04
RMM:  13    -0.413195712470E+03    0.23878E-05   -0.13480E-07  1255   0.700E-04    0.162E-04
RMM:  14    -0.413195709714E+03    0.27567E-05   -0.89624E-08  1082   0.651E-04    0.981E-05
RMM:  15    -0.413195704134E+03    0.55800E-05   -0.97759E-08  1320   0.681E-04    0.998E-05
RMM:  16    -0.413195702924E+03    0.12093E-05   -0.47903E-08   977   0.589E-04    0.788E-05
RMM:  17    -0.413195699431E+03    0.34939E-05   -0.51137E-08  1137   0.603E-04    0.469E-05
RMM:  18    -0.413195698316E+03    0.11146E-05   -0.26887E-08   833   0.538E-04    0.277E-05
RMM:  19    -0.413195698063E+03    0.25331E-06   -0.14277E-08   684   0.514E-04
   35 T=    67. E= -.41286652E+03 F= -.41319570E+03 E0= -.41317439E+03  EK= 0.32918E+00 SP= 0.00E+00 SK= 0.00E+00
       N       E                     dE             d eps       ncg     rms          rms(c)
RMM:   1    -0.413191032588E+03    0.46657E-02   -0.11932E+01  4297   0.965E-01    0.941E-01
RMM:   2    -0.413199335420E+03   -0.83028E-02   -0.15416E-01  4250   0.123E-01    0.660E-01
RMM:   3    -0.413198110008E+03    0.12254E-02   -0.76634E-03  4811   0.468E-02    0.188E-01
RMM:   4    -0.413230106237E+03   -0.31996E-01   -0.32487E-02  5159   0.151E-01    0.745E-01
RMM:   5    -0.413197722791E+03    0.32383E-01   -0.16367E-02  4801   0.124E-01    0.410E-02
RMM:   6    -0.413197781239E+03   -0.58447E-04   -0.25221E-03  5856   0.473E-02    0.230E-02
RMM:   7    -0.413197790265E+03   -0.90268E-05   -0.27205E-04  5779   0.147E-02    0.140E-02
RMM:   8    -0.413197781855E+03    0.84107E-05   -0.44812E-05  4898   0.650E-03    0.887E-03
RMM:   9    -0.413197776885E+03    0.49698E-05   -0.15271E-05  4152   0.430E-03    0.597E-03
RMM:  10    -0.413197769024E+03    0.78609E-05   -0.23459E-06  2588   0.242E-03    0.333E-03
RMM:  11    -0.413197762884E+03    0.61404E-05   -0.14249E-06  2505   0.189E-03    0.188E-03
RMM:  12    -0.413197752936E+03    0.99479E-05   -0.10401E-06  2478   0.176E-03    0.728E-04
RMM:  13    -0.413197749815E+03    0.31211E-05   -0.37573E-07  2255   0.112E-03    0.518E-04
RMM:  14    -0.413197749047E+03    0.76742E-06   -0.15845E-07  1591   0.758E-04
   36 T=    67. E= -.41286626E+03 F= -.41319775E+03 E0= -.41317649E+03  EK= 0.33149E+00 SP= 0.00E+00 SK= 0.00E+00
       N       E                     dE             d eps       ncg     rms          rms(c)
RMM:   1    -0.413193521678E+03    0.42281E-02   -0.11994E+01  4304   0.988E-01    0.924E-01
RMM:   2    -0.413202992732E+03   -0.94711E-02   -0.16003E-01  4250   0.136E-01    0.671E-01
RMM:   3    -0.413201160175E+03    0.18326E-02   -0.73253E-03  4723   0.525E-02    0.185E-01
RMM:   4    -0.413231258583E+03   -0.30098E-01   -0.30463E-02  5163   0.146E-01    0.724E-01
RMM:   5    -0.413200783674E+03    0.30475E-01   -0.15479E-02  4805   0.120E-01    0.391E-02
RMM:   6    -0.413200834426E+03   -0.50752E-04   -0.23658E-03  5861   0.458E-02    0.219E-02
RMM:   7    -0.413200845137E+03   -0.10712E-04   -0.26425E-04  5807   0.143E-02    0.139E-02
RMM:   8    -0.413200837603E+03    0.75340E-05   -0.45136E-05  4928   0.659E-03    0.868E-03
RMM:   9    -0.413200833827E+03    0.37769E-05   -0.13667E-05  4035   0.417E-03    0.532E-03
RMM:  10    -0.413200828351E+03    0.54756E-05   -0.22362E-06  2584   0.228E-03    0.305E-03
RMM:  11    -0.413200823864E+03    0.44868E-05   -0.13333E-06  2504   0.181E-03    0.166E-03
RMM:  12    -0.413200817441E+03    0.64230E-05   -0.88098E-07  2465   0.158E-03    0.608E-04
RMM:  13    -0.413200815468E+03    0.19731E-05   -0.33504E-07  2165   0.103E-03    0.428E-04
RMM:  14    -0.413200814709E+03    0.75862E-06   -0.14813E-07  1458   0.728E-04
   37 T=    68. E= -.41286654E+03 F= -.41320081E+03 E0= -.41317960E+03  EK= 0.33427E+00 SP= 0.00E+00 SK= 0.00E+00
       N       E                     dE             d eps       ncg     rms          rms(c)
RMM:   1    -0.413195118928E+03    0.56965E-02   -0.12132E+01  4306   0.101E+00    0.944E-01
RMM:   2    -0.413205733102E+03   -0.10614E-01   -0.15949E-01  4247   0.132E-01    0.676E-01
RMM:   3    -0.413203669326E+03    0.20638E-02   -0.76353E-03  4716   0.515E-02    0.187E-01
RMM:   4    -0.413231914826E+03   -0.28246E-01   -0.28518E-02  5152   0.141E-01    0.702E-01
RMM:   5    -0.413203343468E+03    0.28571E-01   -0.14592E-02  4814   0.117E-01    0.388E-02
RMM:   6    -0.413203383145E+03   -0.39677E-04   -0.21834E-03  5846   0.443E-02    0.225E-02
RMM:   7    -0.413203392026E+03   -0.88812E-05   -0.26502E-04  5823   0.144E-02    0.145E-02
RMM:   8    -0.413203382233E+03    0.97930E-05   -0.45036E-05  4946   0.671E-03    0.824E-03
RMM:   9    -0.413203377389E+03    0.48442E-05   -0.11276E-05  3785   0.389E-03    0.493E-03
RMM:  10    -0.413203371331E+03    0.60585E-05   -0.19255E-06  2562   0.212E-03    0.291E-03
RMM:  11    -0.413203365425E+03    0.59057E-05   -0.11864E-06  2504   0.171E-03    0.150E-03
RMM:  12    -0.413203357845E+03    0.75799E-05   -0.76929E-07  2441   0.147E-03    0.568E-04
RMM:  13    -0.413203355594E+03    0.22507E-05   -0.30241E-07  2100   0.981E-04    0.405E-04
RMM:  14    -0.413203354523E+03    0.10712E-05   -0.14069E-07  1414   0.717E-04    0.260E-04
RMM:  15    -0.413203349144E+03    0.53793E-05   -0.11945E-07  1400   0.715E-04    0.164E-04
RMM:  16    -0.413203348202E+03    0.94222E-06   -0.55821E-08   976   0.604E-04
   38 T=    69. E= -.41286648E+03 F= -.41320335E+03 E0= -.41318217E+03  EK= 0.33687E+00 SP= 0.00E+00 SK= 0.00E+00
       N       E                     dE             d eps       ncg     rms          rms(c)
RMM:   1    -0.413201219638E+03    0.21295E-02   -0.12216E+01  4305   0.107E+00    0.958E-01
RMM:   2    -0.413207458785E+03   -0.62391E-02   -0.16172E-01  4256   0.125E-01    0.669E-01
RMM:   3    -0.413206418639E+03    0.10401E-02   -0.82520E-03  4954   0.556E-02    0.219E-01
RMM:   4    -0.413256152066E+03   -0.49733E-01   -0.52943E-02  5140   0.191E-01    0.925E-01
RMM:   5    -0.413205389401E+03    0.50763E-01   -0.25333E-02  4797   0.155E-01    0.500E-02
RMM:   6    -0.413205538568E+03   -0.14917E-03   -0.39514E-03  5838   0.586E-02    0.263E-02
RMM:   7    -0.413205552899E+03   -0.14330E-04   -0.41009E-04  5811   0.174E-02    0.164E-02
RMM:   8    -0.413205547881E+03    0.50177E-05   -0.62369E-05  5045   0.710E-03    0.105E-02
RMM:   9    -0.413205537739E+03    0.10142E-04   -0.20695E-05  4433   0.475E-03    0.658E-03
RMM:  10    -0.413205530075E+03    0.76642E-05   -0.42403E-06  2765   0.288E-03    0.353E-03
RMM:  11    -0.413205523474E+03    0.66008E-05   -0.17846E-06  2518   0.213E-03    0.206E-03
RMM:  12    -0.413205513683E+03    0.97908E-05   -0.10006E-06  2477   0.174E-03    0.643E-04
RMM:  13    -0.413205509456E+03    0.42275E-05   -0.41869E-07  2311   0.117E-03    0.454E-04
RMM:  14    -0.413205507450E+03    0.20056E-05   -0.18592E-07  1798   0.811E-04    0.291E-04
RMM:  15    -0.413205500386E+03    0.70641E-05   -0.14033E-07  1670   0.753E-04    0.253E-04
RMM:  16    -0.413205499183E+03    0.12032E-05   -0.59102E-08  1012   0.587E-04    0.150E-04
RMM:  17    -0.413205496222E+03    0.29605E-05   -0.48159E-08   993   0.593E-04    0.815E-05
RMM:  18    -0.413205492646E+03    0.35766E-05   -0.48521E-08  1145   0.614E-04    0.459E-05
RMM:  19    -0.413205491196E+03    0.14494E-05   -0.30220E-08   947   0.569E-04    0.281E-05
RMM:  20    -0.413205490186E+03    0.10102E-05   -0.19221E-08   846   0.551E-04    0.408E-05
RMM:  21    -0.413205490174E+03    0.12446E-07   -0.93055E-09   674   0.522E-04
   39 T=    69. E= -.41286623E+03 F= -.41320549E+03 E0= -.41318435E+03  EK= 0.33926E+00 SP= 0.00E+00 SK= 0.00E+00
       N       E                     dE             d eps       ncg     rms          rms(c)
RMM:   1    -0.413201421397E+03    0.40688E-02   -0.12201E+01  4307   0.110E+00    0.935E-01
RMM:   2    -0.413210807894E+03   -0.93865E-02   -0.16399E-01  4258   0.133E-01    0.675E-01
RMM:   3    -0.413209530649E+03    0.12772E-02   -0.80469E-03  4989   0.554E-02    0.227E-01
RMM:   4    -0.413263030227E+03   -0.53500E-01   -0.58426E-02  5136   0.201E-01    0.959E-01
RMM:   5    -0.413208210479E+03    0.54820E-01   -0.27082E-02  4790   0.161E-01    0.516E-02
RMM:   6    -0.413208381863E+03   -0.17138E-03   -0.42422E-03  5825   0.607E-02    0.260E-02
RMM:   7    -0.413208401365E+03   -0.19502E-04   -0.44906E-04  5880   0.181E-02    0.172E-02
RMM:   8    -0.413208401581E+03   -0.21631E-06   -0.77605E-05  5168   0.796E-03    0.118E-02
RMM:   9    -0.413208391669E+03    0.99122E-05   -0.20185E-05  4389   0.491E-03    0.632E-03
RMM:  10    -0.413208386440E+03    0.52288E-05   -0.42112E-06  2710   0.284E-03    0.342E-03
RMM:  11    -0.413208382410E+03    0.40296E-05   -0.16957E-06  2511   0.208E-03    0.197E-03
RMM:  12    -0.413208376618E+03    0.57927E-05   -0.95136E-07  2475   0.168E-03    0.654E-04
RMM:  13    -0.413208373896E+03    0.27222E-05   -0.42102E-07  2300   0.115E-03    0.403E-04
RMM:  14    -0.413208372228E+03    0.16675E-05   -0.20405E-07  1807   0.816E-04    0.258E-04
RMM:  15    -0.413208367587E+03    0.46413E-05   -0.15309E-07  1518   0.745E-04    0.213E-04
RMM:  16    -0.413208366880E+03    0.70687E-06   -0.70907E-08  1033   0.607E-04
   40 T=    70. E= -.41286657E+03 F= -.41320837E+03 E0= -.41318727E+03  EK= 0.34179E+00 SP= 0.00E+00 SK= 0.00E+00
       N       E                     dE             d eps       ncg     rms          rms(c)
RMM:   1    -0.413219097404E+03   -0.10730E-01   -0.12507E+01  4309   0.124E+00    0.947E-01
RMM:   2    -0.413212255270E+03    0.68421E-02   -0.17263E-01  4267   0.141E-01    0.686E-01
RMM:   3    -0.413211687976E+03    0.56729E-03   -0.87439E-03  5048   0.604E-02    0.258E-01
RMM:   4    -0.413265985684E+03   -0.54298E-01   -0.62828E-02  5124   0.208E-01    0.972E-01
RMM:   5    -0.413209722378E+03    0.56263E-01   -0.27230E-02  4776   0.164E-01    0.546E-02
RMM:   6    -0.413209885658E+03   -0.16328E-03   -0.42593E-03  5806   0.613E-02    0.258E-02
RMM:   7    -0.413209905353E+03   -0.19695E-04   -0.47297E-04  5919   0.187E-02    0.183E-02
RMM:   8    -0.413209904761E+03    0.59273E-06   -0.86363E-05  5277   0.851E-03    0.120E-02
RMM:   9    -0.413209893688E+03    0.11072E-04   -0.18027E-05  4237   0.488E-03    0.552E-03
RMM:  10    -0.413209888230E+03    0.54580E-05   -0.44377E-06  2737   0.279E-03    0.305E-03
RMM:  11    -0.413209884103E+03    0.41269E-05   -0.14748E-06  2507   0.195E-03    0.168E-03
RMM:  12    -0.413209878607E+03    0.54961E-05   -0.78820E-07  2454   0.152E-03    0.616E-04
RMM:  13    -0.413209875613E+03    0.29936E-05   -0.37140E-07  2208   0.106E-03    0.330E-04
RMM:  14    -0.413209873016E+03    0.25977E-05   -0.19717E-07  1632   0.798E-04    0.206E-04
RMM:  15    -0.413209868969E+03    0.40472E-05   -0.14170E-07  1395   0.720E-04    0.126E-04
RMM:  16    -0.413209867425E+03    0.15431E-05   -0.82587E-08  1127   0.638E-04    0.694E-05
RMM:  17    -0.413209865170E+03    0.22558E-05   -0.68783E-08  1137   0.628E-04    0.480E-05
RMM:  18    -0.413209862105E+03    0.30645E-05   -0.60893E-08  1174   0.625E-04    0.355E-05
RMM:  19    -0.413209861581E+03    0.52385E-06   -0.28997E-08   848   0.560E-04
   41 T=    70. E= -.41286611E+03 F= -.41320986E+03 E0= -.41318879E+03  EK= 0.34375E+00 SP= 0.00E+00 SK= 0.00E+00
       N       E                     dE             d eps       ncg     rms          rms(c)
RMM:   1    -0.413226652763E+03   -0.16791E-01   -0.12614E+01  4308   0.129E+00    0.971E-01
RMM:   2    -0.413213829445E+03    0.12823E-01   -0.17890E-01  4295   0.146E-01    0.679E-01
RMM:   3    -0.413215996456E+03   -0.21670E-02   -0.10805E-02  5122   0.736E-02    0.330E-01
RMM:   4    -0.413251393352E+03   -0.35397E-01   -0.51532E-02  5093   0.191E-01    0.824E-01
RMM:   5    -0.413212206983E+03    0.39186E-01   -0.17693E-02  4736   0.138E-01    0.537E-02
RMM:   6    -0.413212267560E+03   -0.60577E-04   -0.29341E-03  5758   0.512E-02    0.251E-02
RMM:   7    -0.413212277040E+03   -0.94792E-05   -0.36139E-04  5873   0.167E-02    0.181E-02
RMM:   8    -0.413212272704E+03    0.43352E-05   -0.75254E-05  5185   0.827E-03    0.106E-02
RMM:   9    -0.413212258948E+03    0.13756E-04   -0.15574E-05  4038   0.480E-03    0.412E-03
RMM:  10    -0.413212252696E+03    0.62521E-05   -0.33489E-06  2675   0.243E-03    0.238E-03
RMM:  11    -0.413212245892E+03    0.68037E-05   -0.11669E-06  2503   0.173E-03    0.123E-03
RMM:  12    -0.413212239385E+03    0.65071E-05   -0.52630E-07  2384   0.127E-03    0.538E-04
RMM:  13    -0.413212235081E+03    0.43042E-05   -0.27207E-07  1792   0.896E-04    0.245E-04
RMM:  14    -0.413212231139E+03    0.39424E-05   -0.16653E-07  1395   0.751E-04    0.140E-04
RMM:  15    -0.413212224625E+03    0.65138E-05   -0.14382E-07  1488   0.735E-04    0.113E-04
RMM:  16    -0.413212223100E+03    0.15253E-05   -0.83442E-08  1147   0.632E-04    0.800E-05
RMM:  17    -0.413212218769E+03    0.43304E-05   -0.78951E-08  1311   0.642E-04    0.549E-05
RMM:  18    -0.413212216265E+03    0.25042E-05   -0.53436E-08  1103   0.585E-04    0.464E-05
RMM:  19    -0.413212215746E+03    0.51906E-06   -0.29910E-08   830   0.533E-04
   42 T=    70. E= -.41286638E+03 F= -.41321222E+03 E0= -.41319118E+03  EK= 0.34584E+00 SP= 0.00E+00 SK= 0.00E+00
       N       E                     dE             d eps       ncg     rms          rms(c)
RMM:   1    -0.413217561323E+03   -0.53451E-02   -0.12459E+01  4311   0.132E+00    0.946E-01
RMM:   2    -0.413215648830E+03    0.19125E-02   -0.16983E-01  4305   0.150E-01    0.678E-01
RMM:   3    -0.413219071069E+03   -0.34222E-02   -0.11821E-02  5107   0.827E-02    0.360E-01
RMM:   4    -0.413247686062E+03   -0.28615E-01   -0.48445E-02  5059   0.186E-01    0.766E-01
RMM:   5    -0.413213960426E+03    0.33726E-01   -0.14568E-02  4704   0.128E-01    0.515E-02
RMM:   6    -0.413213988139E+03   -0.27714E-04   -0.24741E-03  5738   0.472E-02    0.241E-02
RMM:   7    -0.413213993478E+03   -0.53390E-05   -0.29974E-04  5843   0.157E-02    0.176E-02
RMM:   8    -0.413213989436E+03    0.40425E-05   -0.66675E-05  5131   0.796E-03    0.975E-03
RMM:   9    -0.413213977967E+03    0.11468E-04   -0.14477E-05  3940   0.471E-03    0.382E-03
RMM:  10    -0.413213973600E+03    0.43676E-05   -0.28755E-06  2655   0.231E-03    0.217E-03
RMM:  11    -0.413213968265E+03    0.53351E-05   -0.11963E-06  2503   0.171E-03    0.118E-03
RMM:  12    -0.413213963695E+03    0.45699E-05   -0.51591E-07  2376   0.124E-03    0.515E-04
RMM:  13    -0.413213960563E+03    0.31313E-05   -0.27089E-07  1673   0.865E-04    0.239E-04
RMM:  14    -0.413213957681E+03    0.28828E-05   -0.17116E-07  1325   0.737E-04    0.130E-04
RMM:  15    -0.413213952700E+03    0.49807E-05   -0.15438E-07  1376   0.729E-04    0.965E-05
RMM:  16    -0.413213951224E+03    0.14758E-05   -0.88272E-08  1112   0.643E-04    0.723E-05
RMM:  17    -0.413213948207E+03    0.30166E-05   -0.78791E-08  1214   0.640E-04    0.496E-05
RMM:  18    -0.413213945826E+03    0.23811E-05   -0.58613E-08  1102   0.600E-04    0.464E-05
RMM:  19    -0.413213945391E+03    0.43485E-06   -0.29503E-08   796   0.540E-04
   43 T=    71. E= -.41286638E+03 F= -.41321395E+03 E0= -.41319294E+03  EK= 0.34757E+00 SP= 0.00E+00 SK= 0.00E+00
       N       E                     dE             d eps       ncg     rms          rms(c)
RMM:   1    -0.413248233805E+03   -0.34288E-01   -0.12873E+01  4312   0.151E+00    0.946E-01
RMM:   2    -0.413216732977E+03    0.31501E-01   -0.20654E-01  4318   0.171E-01    0.697E-01
RMM:   3    -0.413221130228E+03   -0.43973E-02   -0.12485E-02  5104   0.904E-02    0.415E-01
RMM:   4    -0.413248236635E+03   -0.27106E-01   -0.50688E-02  5056   0.191E-01    0.770E-01
RMM:   5    -0.413214679857E+03    0.33557E-01   -0.14648E-02  4691   0.131E-01    0.556E-02
RMM:   6    -0.413214689276E+03   -0.94183E-05   -0.24866E-03  5684   0.476E-02    0.248E-02
RMM:   7    -0.413214695645E+03   -0.63693E-05   -0.31474E-04  5882   0.161E-02    0.185E-02
RMM:   8    -0.413214690981E+03    0.46638E-05   -0.65315E-05  5143   0.791E-03    0.101E-02
RMM:   9    -0.413214680707E+03    0.10274E-04   -0.16649E-05  4049   0.506E-03    0.417E-03
RMM:  10    -0.413214677405E+03    0.33013E-05   -0.31668E-06  2684   0.238E-03    0.237E-03
RMM:  11    -0.413214673479E+03    0.39264E-05   -0.16039E-06  2550   0.189E-03    0.132E-03
RMM:  12    -0.413214670517E+03    0.29624E-05   -0.55782E-07  2441   0.132E-03    0.624E-04
RMM:  13    -0.413214667818E+03    0.26984E-05   -0.31694E-07  1662   0.906E-04    0.309E-04
RMM:  14    -0.413214665459E+03    0.23597E-05   -0.20821E-07  1408   0.784E-04    0.159E-04
RMM:  15    -0.413214662602E+03    0.28567E-05   -0.16275E-07  1378   0.733E-04    0.881E-05
RMM:  16    -0.413214660478E+03    0.21235E-05   -0.11421E-07  1239   0.670E-04    0.569E-05
RMM:  17    -0.413214658484E+03    0.19940E-05   -0.86466E-08  1189   0.632E-04    0.502E-05
RMM:  18    -0.413214656527E+03    0.19577E-05   -0.65577E-08  1078   0.592E-04    0.338E-05
RMM:  19    -0.413214655770E+03    0.75707E-06   -0.38908E-08   874   0.549E-04
   44 T=    71. E= -.41286605E+03 F= -.41321466E+03 E0= -.41319367E+03  EK= 0.34861E+00 SP= 0.00E+00 SK= 0.00E+00
       N       E                     dE             d eps       ncg     rms          rms(c)
RMM:   1    -0.413226575961E+03   -0.11919E-01   -0.12674E+01  4310   0.151E+00    0.976E-01
RMM:   2    -0.413217193327E+03    0.93826E-02   -0.17800E-01  4358   0.177E-01    0.686E-01
RMM:   3    -0.413227979773E+03   -0.10786E-01   -0.18492E-02  5137   0.114E-01    0.508E-01
RMM:   4    -0.413233306923E+03   -0.53271E-02   -0.39095E-02  5019   0.172E-01    0.566E-01
RMM:   5    -0.413215993504E+03    0.17313E-01   -0.65532E-03  4587   0.977E-02    0.471E-02
RMM:   6    -0.413215955539E+03    0.37965E-04   -0.12344E-03  5430   0.341E-02    0.226E-02
RMM:   7    -0.413215953866E+03    0.16737E-05   -0.15613E-04  5672   0.121E-02    0.160E-02
RMM:   8    -0.413215947492E+03    0.63733E-05   -0.63768E-05  5090   0.808E-03    0.864E-03
RMM:   9    -0.413215932689E+03    0.14804E-04   -0.13473E-05  3989   0.483E-03    0.355E-03
RMM:  10    -0.413215928617E+03    0.40713E-05   -0.19521E-06  2593   0.206E-03    0.192E-03
RMM:  11    -0.413215921232E+03    0.73852E-05   -0.11301E-06  2497   0.166E-03    0.113E-03
RMM:  12    -0.413215915543E+03    0.56888E-05   -0.45731E-07  2376   0.120E-03    0.535E-04
RMM:  13    -0.413215911572E+03    0.39718E-05   -0.22116E-07  1586   0.802E-04    0.256E-04
RMM:  14    -0.413215907746E+03    0.38252E-05   -0.13358E-07  1222   0.683E-04    0.137E-04
RMM:  15    -0.413215901385E+03    0.63611E-05   -0.12896E-07  1330   0.698E-04    0.121E-04
RMM:  16    -0.413215899243E+03    0.21419E-05   -0.69569E-08  1049   0.607E-04    0.105E-04
RMM:  17    -0.413215896369E+03    0.28739E-05   -0.56711E-08  1067   0.589E-04    0.566E-05
RMM:  18    -0.413215892789E+03    0.35801E-05   -0.55455E-08  1137   0.591E-04    0.505E-05
RMM:  19    -0.413215892426E+03    0.36343E-06   -0.22048E-08   725   0.507E-04
   45 T=    71. E= -.41286648E+03 F= -.41321589E+03 E0= -.41319493E+03  EK= 0.34942E+00 SP= 0.00E+00 SK= 0.00E+00
       N       E                     dE             d eps       ncg     rms          rms(c)
RMM:   1    -0.413227775540E+03   -0.11883E-01   -0.12576E+01  4308   0.160E+00    0.956E-01
RMM:   2    -0.413216857441E+03    0.10918E-01   -0.18027E-01  4386   0.189E-01    0.682E-01
RMM:   3    -0.413229830349E+03   -0.12973E-01   -0.20267E-02  5138   0.123E-01    0.549E-01
RMM:   4    -0.413230489955E+03   -0.65961E-03   -0.38380E-02  5007   0.172E-01    0.531E-01
RMM:   5    -0.413215643207E+03    0.14847E-01   -0.57105E-03  4560   0.942E-02    0.470E-02
RMM:   6    -0.413215583744E+03    0.59462E-04   -0.96732E-04  5233   0.313E-02    0.221E-02
RMM:   7    -0.413215580852E+03    0.28921E-05   -0.12314E-04  5698   0.108E-02    0.141E-02
RMM:   8    -0.413215579185E+03    0.16670E-05   -0.70571E-05  5211   0.839E-03    0.975E-03
RMM:   9    -0.413215564073E+03    0.15112E-04   -0.18685E-05  4357   0.542E-03    0.384E-03
RMM:  10    -0.413215561030E+03    0.30430E-05   -0.24275E-06  2649   0.223E-03    0.208E-03
RMM:  11    -0.413215555194E+03    0.58356E-05   -0.13056E-06  2486   0.184E-03    0.120E-03
RMM:  12    -0.413215550340E+03    0.48542E-05   -0.52748E-07  2406   0.131E-03    0.648E-04
RMM:  13    -0.413215546611E+03    0.37294E-05   -0.23541E-07  1673   0.867E-04    0.324E-04
RMM:  14    -0.413215542863E+03    0.37478E-05   -0.13193E-07  1324   0.708E-04    0.155E-04
RMM:  15    -0.413215537767E+03    0.50959E-05   -0.11317E-07  1252   0.674E-04    0.140E-04
RMM:  16    -0.413215535927E+03    0.18401E-05   -0.55451E-08   900   0.572E-04    0.109E-04
RMM:  17    -0.413215532461E+03    0.34666E-05   -0.58038E-08  1027   0.588E-04    0.690E-05
RMM:  18    -0.413215529748E+03    0.27128E-05   -0.44920E-08   994   0.568E-04    0.475E-05
RMM:  19    -0.413215529127E+03    0.62080E-06   -0.18199E-08   671   0.507E-04
   46 T=    71. E= -.41286647E+03 F= -.41321553E+03 E0= -.41319459E+03  EK= 0.34906E+00 SP= 0.00E+00 SK= 0.00E+00
       N       E                     dE             d eps       ncg     rms          rms(c)
RMM:   1    -0.413247651215E+03   -0.32121E-01   -0.12796E+01  4310   0.174E+00    0.942E-01
RMM:   2    -0.413216162828E+03    0.31488E-01   -0.20601E-01  4392   0.205E-01    0.697E-01
RMM:   3    -0.413228793312E+03   -0.12630E-01   -0.19924E-02  5144   0.125E-01    0.568E-01
RMM:   4    -0.413230987530E+03   -0.21942E-02   -0.41116E-02  5012   0.177E-01    0.566E-01
RMM:   5    -0.413214259116E+03    0.16728E-01   -0.68276E-03  4572   0.101E-01    0.507E-02
RMM:   6    -0.413214190278E+03    0.68838E-04   -0.11213E-03  5282   0.339E-02    0.234E-02
RMM:   7    -0.413214188223E+03    0.20554E-05   -0.14974E-04  5761   0.118E-02    0.164E-02
RMM:   8    -0.413214185212E+03    0.30108E-05   -0.70276E-05  5193   0.839E-03    0.981E-03
RMM:   9    -0.413214171666E+03    0.13546E-04   -0.18177E-05  4315   0.549E-03    0.408E-03
RMM:  10    -0.413214169299E+03    0.23671E-05   -0.26055E-06  2666   0.222E-03    0.219E-03
RMM:  11    -0.413214165392E+03    0.39073E-05   -0.15125E-06  2517   0.190E-03    0.135E-03
RMM:  12    -0.413214162310E+03    0.30813E-05   -0.53021E-07  2432   0.133E-03    0.686E-04
RMM:  13    -0.413214159507E+03    0.28033E-05   -0.26137E-07  1710   0.881E-04    0.308E-04
RMM:  14    -0.413214157003E+03    0.25040E-05   -0.16071E-07  1346   0.732E-04    0.157E-04
RMM:  15    -0.413214153569E+03    0.34347E-05   -0.14824E-07  1323   0.706E-04    0.109E-04
RMM:  16    -0.413214152049E+03    0.15193E-05   -0.75461E-08   981   0.599E-04    0.849E-05
RMM:  17    -0.413214149786E+03    0.22635E-05   -0.68966E-08  1051   0.593E-04    0.514E-05
RMM:  18    -0.413214148298E+03    0.14872E-05   -0.43846E-08   881   0.556E-04    0.338E-05
RMM:  19    -0.413214147792E+03    0.50676E-06   -0.24134E-08   726   0.522E-04
   47 T=    71. E= -.41286661E+03 F= -.41321415E+03 E0= -.41319322E+03  EK= 0.34754E+00 SP= 0.00E+00 SK= 0.00E+00
       N       E                     dE             d eps       ncg     rms          rms(c)
RMM:   1    -0.413262245419E+03   -0.48097E-01   -0.12894E+01  4306   0.191E+00    0.967E-01
RMM:   2    -0.413212805752E+03    0.49440E-01   -0.20413E-01  4496   0.208E-01    0.690E-01
RMM:   3    -0.413234368205E+03   -0.21562E-01   -0.28036E-02  5155   0.149E-01    0.684E-01
RMM:   4    -0.413221043635E+03    0.13325E-01   -0.38013E-02  4970   0.175E-01    0.449E-01
RMM:   5    -0.413211680461E+03    0.93632E-02   -0.46553E-03  4536   0.896E-02    0.543E-02
RMM:   6    -0.413211534613E+03    0.14585E-03   -0.49978E-04  4762   0.282E-02    0.251E-02
RMM:   7    -0.413211537180E+03   -0.25668E-05   -0.16262E-04  5911   0.128E-02    0.177E-02
RMM:   8    -0.413211521198E+03    0.15982E-04   -0.56465E-05  5065   0.823E-03    0.964E-03
RMM:   9    -0.413211509334E+03    0.11864E-04   -0.12782E-05  3810   0.462E-03    0.469E-03
RMM:  10    -0.413211504613E+03    0.47208E-05   -0.20744E-06  2552   0.232E-03    0.234E-03
RMM:  11    -0.413211498896E+03    0.57171E-05   -0.15227E-06  2487   0.194E-03    0.162E-03
RMM:  12    -0.413211494510E+03    0.43863E-05   -0.53356E-07  2392   0.134E-03    0.798E-04
RMM:  13    -0.413211489866E+03    0.46440E-05   -0.27192E-07  1750   0.883E-04    0.397E-04
RMM:  14    -0.413211484997E+03    0.48690E-05   -0.18552E-07  1614   0.757E-04    0.236E-04
RMM:  15    -0.413211479898E+03    0.50987E-05   -0.14071E-07  1261   0.655E-04    0.140E-04
RMM:  16    -0.413211477544E+03    0.23539E-05   -0.81421E-08  1059   0.582E-04    0.101E-04
RMM:  17    -0.413211474610E+03    0.29342E-05   -0.66751E-08  1019   0.575E-04    0.503E-05
RMM:  18    -0.413211472510E+03    0.20996E-05   -0.47860E-08   969   0.557E-04    0.445E-05
RMM:  19    -0.413211471680E+03    0.83091E-06   -0.25681E-08   751   0.514E-04
   48 T=    70. E= -.41286698E+03 F= -.41321147E+03 E0= -.41319056E+03  EK= 0.34449E+00 SP= 0.00E+00 SK= 0.00E+00
       N       E                     dE             d eps       ncg     rms          rms(c)
RMM:   1    -0.413259858844E+03   -0.48386E-01   -0.12676E+01  4305   0.203E+00    0.955E-01
RMM:   2    -0.413206971063E+03    0.52888E-01   -0.19975E-01  4544   0.219E-01    0.678E-01
RMM:   3    -0.413234864865E+03   -0.27894E-01   -0.33648E-02  5166   0.164E-01    0.759E-01
RMM:   4    -0.413212370126E+03    0.22495E-01   -0.37544E-02  4941   0.176E-01    0.391E-01
RMM:   5    -0.413206015554E+03    0.63546E-02   -0.47173E-03  4728   0.904E-02    0.648E-02
RMM:   6    -0.413205774045E+03    0.24151E-03   -0.48691E-04  4669   0.306E-02    0.287E-02
RMM:   7    -0.413205768878E+03    0.51676E-05   -0.14272E-04  5732   0.129E-02    0.194E-02
RMM:   8    -0.413205751682E+03    0.17196E-04   -0.39003E-05  4893   0.689E-03    0.947E-03
RMM:   9    -0.413205739116E+03    0.12566E-04   -0.12488E-05  3351   0.419E-03    0.416E-03
RMM:  10    -0.413205733633E+03    0.54829E-05   -0.20482E-06  2583   0.230E-03    0.232E-03
RMM:  11    -0.413205726317E+03    0.73162E-05   -0.10153E-06  2489   0.163E-03    0.136E-03
RMM:  12    -0.413205721466E+03    0.48507E-05   -0.43714E-07  2387   0.114E-03    0.626E-04
RMM:  13    -0.413205716096E+03    0.53700E-05   -0.28999E-07  1690   0.865E-04    0.333E-04
RMM:  14    -0.413205711603E+03    0.44930E-05   -0.19497E-07  1429   0.762E-04    0.235E-04
RMM:  15    -0.413205706183E+03    0.54203E-05   -0.17057E-07  1418   0.729E-04    0.136E-04
RMM:  16    -0.413205704190E+03    0.19923E-05   -0.93949E-08  1132   0.625E-04    0.954E-05
RMM:  17    -0.413205700651E+03    0.35397E-05   -0.88034E-08  1246   0.631E-04    0.538E-05
RMM:  18    -0.413205699508E+03    0.11426E-05   -0.48697E-08   966   0.558E-04    0.408E-05
RMM:  19    -0.413205698495E+03    0.10135E-05   -0.33951E-08   878   0.539E-04    0.190E-05
RMM:  20    -0.413205697762E+03    0.73308E-06   -0.25958E-08   830   0.526E-04
   49 T=    69. E= -.41286665E+03 F= -.41320570E+03 E0= -.41318479E+03  EK= 0.33905E+00 SP= 0.00E+00 SK= 0.00E+00
       N       E                     dE             d eps       ncg     rms          rms(c)
RMM:   1    -0.413231470063E+03   -0.25772E-01   -0.12216E+01  4305   0.203E+00    0.920E-01
RMM:   2    -0.413200348459E+03    0.31122E-01   -0.20864E-01  4533   0.230E-01    0.684E-01
RMM:   3    -0.413225376013E+03   -0.25028E-01   -0.30803E-02  5163   0.160E-01    0.742E-01
RMM:   4    -0.413206240359E+03    0.19136E-01   -0.37751E-02  4943   0.177E-01    0.419E-01
RMM:   5    -0.413198766727E+03    0.74736E-02   -0.52806E-03  4666   0.937E-02    0.657E-02
RMM:   6    -0.413198524992E+03    0.24173E-03   -0.50791E-04  4660   0.312E-02    0.290E-02
RMM:   7    -0.413198521281E+03    0.37114E-05   -0.15432E-04  5821   0.130E-02    0.198E-02
RMM:   8    -0.413198504726E+03    0.16554E-04   -0.43154E-05  4966   0.708E-03    0.101E-02
RMM:   9    -0.413198494040E+03    0.10686E-04   -0.14845E-05  3554   0.455E-03    0.434E-03
RMM:  10    -0.413198489666E+03    0.43739E-05   -0.25427E-06  2626   0.247E-03    0.245E-03
RMM:  11    -0.413198484733E+03    0.49334E-05   -0.11831E-06  2498   0.177E-03    0.152E-03
RMM:  12    -0.413198481221E+03    0.35114E-05   -0.48746E-07  2425   0.122E-03    0.721E-04
RMM:  13    -0.413198477554E+03    0.36676E-05   -0.31186E-07  1725   0.886E-04    0.357E-04
RMM:  14    -0.413198474262E+03    0.32913E-05   -0.23177E-07  1602   0.794E-04    0.275E-04
RMM:  15    -0.413198470760E+03    0.35022E-05   -0.19413E-07  1374   0.726E-04    0.138E-04
RMM:  16    -0.413198469324E+03    0.14357E-05   -0.10449E-07  1173   0.631E-04    0.909E-05
RMM:  17    -0.413198467509E+03    0.18156E-05   -0.88365E-08  1137   0.620E-04    0.492E-05
RMM:  18    -0.413198466736E+03    0.77277E-06   -0.50845E-08   967   0.569E-04
[...]
RMM:  14    -0.413160549340E+03   -0.68341E-06   -0.23731E-07  1650   0.808E-04
  138 T=    60. E= -.41286615E+03 F= -.41316055E+03 E0= -.41313984E+03  EK= 0.29440E+00 SP= 0.00E+00 SK= 0.00E+00
       N       E                     dE             d eps       ncg     rms          rms(c)
RMM:   1    -0.413161670938E+03   -0.11223E-02   -0.76158E+00  4265   0.730E-01    0.809E-01
RMM:   2    -0.413165517649E+03   -0.38467E-02   -0.92269E-02  4298   0.856E-02    0.597E-01
RMM:   3    -0.413162191779E+03    0.33259E-02   -0.17369E-02  4888   0.490E-02    0.983E-02
RMM:   4    -0.413181266503E+03   -0.19075E-01   -0.20468E-02  5122   0.120E-01    0.581E-01
RMM:   5    -0.413161772697E+03    0.19494E-01   -0.95666E-03  4809   0.963E-02    0.477E-02
RMM:   6    -0.413161787681E+03   -0.14983E-04   -0.16683E-03  5663   0.399E-02    0.303E-02
RMM:   7    -0.413161809552E+03   -0.21872E-04   -0.29983E-04  5706   0.151E-02    0.159E-02
RMM:   8    -0.413161817224E+03   -0.76719E-05   -0.39708E-05  5008   0.683E-03    0.752E-03
RMM:   9    -0.413161821806E+03   -0.45815E-05   -0.61003E-06  3066   0.295E-03    0.433E-03
RMM:  10    -0.413161831554E+03   -0.97481E-05   -0.20297E-06  2548   0.207E-03    0.255E-03
RMM:  11    -0.413161839929E+03   -0.83750E-05   -0.12790E-06  2497   0.161E-03    0.118E-03
RMM:  12    -0.413161847277E+03   -0.73478E-05   -0.10655E-06  2448   0.136E-03    0.593E-04
RMM:  13    -0.413161850746E+03   -0.34692E-05   -0.47320E-07  2019   0.996E-04    0.350E-04
RMM:  14    -0.413161852612E+03   -0.18667E-05   -0.23956E-07  1519   0.789E-04    0.228E-04
RMM:  15    -0.413161855954E+03   -0.33412E-05   -0.38865E-07  1780   0.849E-04    0.211E-04
RMM:  16    -0.413161857312E+03   -0.13584E-05   -0.18517E-07  1369   0.678E-04    0.153E-04
RMM:  17    -0.413161857696E+03   -0.38391E-06   -0.89331E-08  1024   0.574E-04
  139 T=    60. E= -.41286655E+03 F= -.41316186E+03 E0= -.41314117E+03  EK= 0.29531E+00 SP= 0.00E+00 SK= 0.00E+00
       N       E                     dE             d eps       ncg     rms          rms(c)
RMM:   1    -0.413162745432E+03   -0.88812E-03   -0.75000E+00  4264   0.727E-01    0.821E-01
RMM:   2    -0.413165755477E+03   -0.30100E-02   -0.90565E-02  4297   0.850E-02    0.602E-01
RMM:   3    -0.413162300289E+03    0.34552E-02   -0.18709E-02  4807   0.489E-02    0.894E-02
RMM:   4    -0.413175938017E+03   -0.13638E-01   -0.14406E-02  5131   0.101E-01    0.494E-01
RMM:   5    -0.413161988559E+03    0.13949E-01   -0.69510E-03  4818   0.819E-02    0.447E-02
RMM:   6    -0.413162006769E+03   -0.18211E-04   -0.12807E-03  5635   0.353E-02    0.306E-02
RMM:   7    -0.413162017151E+03   -0.10382E-04   -0.26240E-04  5555   0.145E-02    0.155E-02
RMM:   8    -0.413162022649E+03   -0.54973E-05   -0.32563E-05  4838   0.627E-03    0.722E-03
RMM:   9    -0.413162026315E+03   -0.36664E-05   -0.47799E-06  2916   0.267E-03    0.425E-03
RMM:  10    -0.413162034864E+03   -0.85488E-05   -0.17777E-06  2524   0.198E-03    0.237E-03
RMM:  11    -0.413162041810E+03   -0.69463E-05   -0.11696E-06  2491   0.153E-03    0.109E-03
RMM:  12    -0.413162047590E+03   -0.57800E-05   -0.89618E-07  2359   0.127E-03    0.544E-04
RMM:  13    -0.413162050901E+03   -0.33109E-05   -0.46651E-07  2029   0.980E-04    0.324E-04
RMM:  14    -0.413162052570E+03   -0.16688E-05   -0.22803E-07  1496   0.767E-04    0.223E-04
RMM:  15    -0.413162055329E+03   -0.27590E-05   -0.34481E-07  1709   0.819E-04    0.175E-04
RMM:  16    -0.413162056423E+03   -0.10939E-05   -0.15921E-07  1313   0.663E-04    0.124E-04
RMM:  17    -0.413162056765E+03   -0.34182E-06   -0.81803E-08  1004   0.571E-04
  140 T=    60. E= -.41286633E+03 F= -.41316206E+03 E0= -.41314138E+03  EK= 0.29572E+00 SP= 0.00E+00 SK= 0.00E+00
       N       E                     dE             d eps       ncg     rms          rms(c)
RMM:   1    -0.413162804546E+03   -0.74812E-03   -0.73644E+00  4264   0.724E-01    0.832E-01
RMM:   2    -0.413164974245E+03   -0.21697E-02   -0.88711E-02  4297   0.849E-02    0.597E-01
RMM:   3    -0.413161489087E+03    0.34852E-02   -0.18413E-02  4752   0.447E-02    0.719E-02
RMM:   4    -0.413168852626E+03   -0.73635E-02   -0.77557E-03  5149   0.748E-02    0.365E-01
RMM:   5    -0.413161335955E+03    0.75167E-02   -0.38276E-03  4828   0.609E-02    0.428E-02
RMM:   6    -0.413161352255E+03   -0.16299E-04   -0.84724E-04  5560   0.293E-02    0.317E-02
RMM:   7    -0.413161349372E+03    0.28825E-05   -0.22409E-04  5364   0.136E-02    0.152E-02
RMM:   8    -0.413161349463E+03   -0.90971E-07   -0.27559E-05  4783   0.578E-03    0.708E-03
RMM:   9    -0.413161351097E+03   -0.16337E-05   -0.38622E-06  2755   0.240E-03    0.393E-03
RMM:  10    -0.413161355611E+03   -0.45135E-05   -0.17306E-06  2526   0.191E-03    0.210E-03
RMM:  11    -0.413161358692E+03   -0.30810E-05   -0.99999E-07  2462   0.144E-03    0.102E-03
RMM:  12    -0.413161361189E+03   -0.24974E-05   -0.77623E-07  2278   0.120E-03    0.483E-04
RMM:  13    -0.413161363006E+03   -0.18172E-05   -0.54219E-07  2057   0.989E-04    0.313E-04
RMM:  14    -0.413161363787E+03   -0.78047E-06   -0.22553E-07  1396   0.748E-04
  141 T=    60. E= -.41286640E+03 F= -.41316136E+03 E0= -.41314070E+03  EK= 0.29496E+00 SP= 0.00E+00 SK= 0.00E+00
       N       E                     dE             d eps       ncg     rms          rms(c)
RMM:   1    -0.413163249834E+03   -0.18868E-02   -0.72762E+00  4264   0.724E-01    0.812E-01
RMM:   2    -0.413166038613E+03   -0.27888E-02   -0.87283E-02  4294   0.850E-02    0.595E-01
RMM:   3    -0.413162161902E+03    0.38767E-02   -0.19703E-02  4574   0.478E-02    0.734E-02
RMM:   4    -0.413163714729E+03   -0.15528E-02   -0.19349E-03  5150   0.402E-02    0.176E-01
RMM:   5    -0.413162036811E+03    0.16779E-02   -0.92264E-04  4835   0.303E-02    0.406E-02
RMM:   6    -0.413162051741E+03   -0.14931E-04   -0.40173E-04  5342   0.206E-02    0.297E-02
RMM:   7    -0.413162059709E+03   -0.79674E-05   -0.16975E-04  4936   0.110E-02    0.156E-02
RMM:   8    -0.413162059172E+03    0.53647E-06   -0.18270E-05  4289   0.473E-03    0.670E-03
RMM:   9    -0.413162063181E+03   -0.40088E-05   -0.47847E-06  2575   0.227E-03    0.256E-03
RMM:  10    -0.413162073869E+03   -0.10688E-04   -0.18339E-06  2510   0.180E-03    0.128E-03
RMM:  11    -0.413162080734E+03   -0.68648E-05   -0.10310E-06  2420   0.138E-03    0.563E-04
RMM:  12    -0.413162085140E+03   -0.44063E-05   -0.58335E-07  2101   0.106E-03    0.444E-04
RMM:  13    -0.413162088812E+03   -0.36714E-05   -0.44696E-07  1763   0.876E-04    0.271E-04
RMM:  14    -0.413162091357E+03   -0.25451E-05   -0.32460E-07  1579   0.783E-04    0.147E-04
RMM:  15    -0.413162093213E+03   -0.18561E-05   -0.26957E-07  1514   0.739E-04    0.873E-05
RMM:  16    -0.413162093880E+03   -0.66708E-06   -0.11509E-07  1131   0.602E-04
  142 T=    60. E= -.41286666E+03 F= -.41316209E+03 E0= -.41314144E+03  EK= 0.29544E+00 SP= 0.00E+00 SK= 0.00E+00
       N       E                     dE             d eps       ncg     rms          rms(c)
RMM:   1    -0.413163967977E+03   -0.18748E-02   -0.73463E+00  4264   0.730E-01    0.819E-01
RMM:   2    -0.413166619330E+03   -0.26514E-02   -0.87485E-02  4294   0.858E-02    0.602E-01
RMM:   3    -0.413162662374E+03    0.39570E-02   -0.20702E-02  4525   0.483E-02    0.795E-02
RMM:   4    -0.413162596314E+03    0.66060E-04   -0.40681E-04  4967   0.226E-02    0.538E-02
RMM:   5    -0.413162591495E+03    0.48189E-05   -0.19186E-04  4950   0.137E-02    0.529E-02
RMM:   6    -0.413162540014E+03    0.51481E-04   -0.27608E-04  5168   0.166E-02    0.294E-02
RMM:   7    -0.413162549435E+03   -0.94207E-05   -0.16486E-04  4711   0.110E-02    0.161E-02
RMM:   8    -0.413162547852E+03    0.15827E-05   -0.13999E-05  3733   0.413E-03    0.708E-03
RMM:   9    -0.413162553876E+03   -0.60238E-05   -0.77870E-06  2511   0.244E-03    0.184E-03
RMM:  10    -0.413162568210E+03   -0.14334E-04   -0.20467E-06  2479   0.180E-03    0.103E-03
RMM:  11    -0.413162575990E+03   -0.77798E-05   -0.97233E-07  2366   0.128E-03    0.524E-04
RMM:  12    -0.413162580327E+03   -0.43369E-05   -0.41512E-07  1860   0.905E-04    0.413E-04
RMM:  13    -0.413162585211E+03   -0.48847E-05   -0.51960E-07  1767   0.871E-04    0.375E-04
RMM:  14    -0.413162587122E+03   -0.19108E-05   -0.21857E-07  1358   0.686E-04    0.169E-04
RMM:  15    -0.413162588329E+03   -0.12070E-05   -0.14876E-07  1208   0.633E-04    0.699E-05
RMM:  16    -0.413162589006E+03   -0.67653E-06   -0.96110E-08  1012   0.576E-04
  143 T=    60. E= -.41286643E+03 F= -.41316259E+03 E0= -.41314194E+03  EK= 0.29616E+00 SP= 0.00E+00 SK= 0.00E+00
       N       E                     dE             d eps       ncg     rms          rms(c)
RMM:   1    -0.413164043079E+03   -0.14548E-02   -0.73823E+00  4264   0.734E-01    0.834E-01
RMM:   2    -0.413166129971E+03   -0.20869E-02   -0.87112E-02  4296   0.853E-02    0.598E-01
RMM:   3    -0.413162475568E+03    0.36544E-02   -0.18729E-02  4622   0.444E-02    0.634E-02
RMM:   4    -0.413164155327E+03   -0.16798E-02   -0.20375E-03  5186   0.405E-02    0.181E-01
RMM:   5    -0.413162396996E+03    0.17583E-02   -0.96924E-04  4835   0.313E-02    0.418E-02
RMM:   6    -0.413162412046E+03   -0.15049E-04   -0.44507E-04  5370   0.216E-02    0.313E-02
RMM:   7    -0.413162407013E+03    0.50326E-05   -0.17511E-04  4913   0.118E-02    0.159E-02
RMM:   8    -0.413162405292E+03    0.17209E-05   -0.19571E-05  4378   0.482E-03    0.674E-03
RMM:   9    -0.413162408140E+03   -0.28474E-05   -0.52526E-06  2611   0.244E-03    0.251E-03
RMM:  10    -0.413162413082E+03   -0.49420E-05   -0.17516E-06  2509   0.188E-03    0.143E-03
RMM:  11    -0.413162417053E+03   -0.39714E-05   -0.11936E-06  2459   0.152E-03    0.779E-04
RMM:  12    -0.413162419134E+03   -0.20805E-05   -0.62326E-07  2202   0.111E-03    0.364E-04
RMM:  13    -0.413162420478E+03   -0.13445E-05   -0.45664E-07  1911   0.913E-04    0.369E-04
RMM:  14    -0.413162421549E+03   -0.10713E-05   -0.39201E-07  1624   0.821E-04    0.194E-04
RMM:  15    -0.413162422221E+03   -0.67200E-06   -0.24609E-07  1515   0.737E-04
  144 T=    60. E= -.41286666E+03 F= -.41316242E+03 E0= -.41314179E+03  EK= 0.29576E+00 SP= 0.00E+00 SK= 0.00E+00
       N       E                     dE             d eps       ncg     rms          rms(c)
RMM:   1    -0.413163232043E+03   -0.81049E-03   -0.74354E+00  4264   0.740E-01    0.816E-01
RMM:   2    -0.413165993813E+03   -0.27618E-02   -0.87294E-02  4302   0.857E-02    0.592E-01
RMM:   3    -0.413162565143E+03    0.34287E-02   -0.18184E-02  4813   0.469E-02    0.779E-02
RMM:   4    -0.413172184843E+03   -0.96197E-02   -0.10164E-02  5146   0.856E-02    0.417E-01
RMM:   5    -0.413162363083E+03    0.98218E-02   -0.49400E-03  4829   0.686E-02    0.452E-02
RMM:   6    -0.413162367914E+03   -0.48313E-05   -0.10043E-03  5591   0.310E-02    0.312E-02
RMM:   7    -0.413162381292E+03   -0.13378E-04   -0.23911E-04  5498   0.136E-02    0.156E-02
RMM:   8    -0.413162383925E+03   -0.26323E-05   -0.29207E-05  4896   0.589E-03    0.672E-03
RMM:   9    -0.413162387197E+03   -0.32722E-05   -0.44016E-06  2842   0.259E-03    0.372E-03
RMM:  10    -0.413162394224E+03   -0.70275E-05   -0.17557E-06  2529   0.195E-03    0.205E-03
RMM:  11    -0.413162399704E+03   -0.54800E-05   -0.11109E-06  2484   0.151E-03    0.109E-03
RMM:  12    -0.413162403742E+03   -0.40374E-05   -0.79936E-07  2375   0.124E-03    0.552E-04
RMM:  13    -0.413162405918E+03   -0.21763E-05   -0.44517E-07  1969   0.954E-04    0.326E-04
RMM:  14    -0.413162407370E+03   -0.14523E-05   -0.28624E-07  1592   0.806E-04    0.262E-04
RMM:  15    -0.413162408961E+03   -0.15906E-05   -0.33063E-07  1641   0.806E-04    0.154E-04
RMM:  16    -0.413162409706E+03   -0.74537E-06   -0.19337E-07  1425   0.696E-04
  145 T=    60. E= -.41286658E+03 F= -.41316241E+03 E0= -.41314178E+03  EK= 0.29583E+00 SP= 0.00E+00 SK= 0.00E+00
       N       E                     dE             d eps       ncg     rms          rms(c)
RMM:   1    -0.413163602371E+03   -0.11934E-02   -0.76658E+00  4264   0.752E-01    0.816E-01
RMM:   2    -0.413166966429E+03   -0.33641E-02   -0.89569E-02  4303   0.869E-02    0.599E-01
RMM:   3    -0.413163592647E+03    0.33738E-02   -0.18374E-02  4886   0.487E-02    0.942E-02
RMM:   4    -0.413179066189E+03   -0.15474E-01   -0.16586E-02  5137   0.108E-01    0.525E-01
RMM:   5    -0.413163217314E+03    0.15849E-01   -0.78282E-03  4827   0.863E-02    0.481E-02
RMM:   6    -0.413163236326E+03   -0.19012E-04   -0.14180E-03  5656   0.362E-02    0.304E-02
RMM:   7    -0.413163268809E+03   -0.32483E-04   -0.27227E-04  5679   0.143E-02    0.154E-02
RMM:   8    -0.413163277925E+03   -0.91162E-05   -0.34196E-05  4992   0.629E-03    0.672E-03
RMM:   9    -0.413163283706E+03   -0.57803E-05   -0.52557E-06  2977   0.277E-03    0.393E-03
RMM:  10    -0.413163294809E+03   -0.11103E-04   -0.18309E-06  2534   0.201E-03    0.229E-03
RMM:  11    -0.413163303472E+03   -0.86634E-05   -0.11965E-06  2504   0.155E-03    0.120E-03
RMM:  12    -0.413163310948E+03   -0.74752E-05   -0.99504E-07  2457   0.133E-03    0.651E-04
RMM:  13    -0.413163314047E+03   -0.30997E-05   -0.43946E-07  1984   0.963E-04    0.358E-04
RMM:  14    -0.413163316187E+03   -0.21396E-05   -0.27161E-07  1574   0.804E-04    0.258E-04
RMM:  15    -0.413163318915E+03   -0.27278E-05   -0.36426E-07  1725   0.834E-04    0.189E-04
RMM:  16    -0.413163320191E+03   -0.12760E-05   -0.20935E-07  1405   0.700E-04    0.123E-04
RMM:  17    -0.413163320379E+03   -0.18825E-06   -0.83772E-08  1017   0.573E-04
  146 T=    60. E= -.41286643E+03 F= -.41316332E+03 E0= -.41314270E+03  EK= 0.29689E+00 SP= 0.00E+00 SK= 0.00E+00
       N       E                     dE             d eps       ncg     rms          rms(c)
RMM:   1    -0.413163515240E+03   -0.19505E-03   -0.78646E+00  4264   0.766E-01    0.832E-01
RMM:   2    -0.413166961078E+03   -0.34458E-02   -0.90368E-02  4296   0.903E-02    0.595E-01
RMM:   3    -0.413163924919E+03    0.30362E-02   -0.15926E-02  4885   0.510E-02    0.967E-02
RMM:   4    -0.413184214501E+03   -0.20290E-01   -0.21665E-02  5132   0.123E-01    0.598E-01
RMM:   5    -0.413163530871E+03    0.20684E-01   -0.10227E-02  4826   0.985E-02    0.517E-02
RMM:   6    -0.413163550468E+03   -0.19597E-04   -0.17768E-03  5662   0.406E-02    0.319E-02
RMM:   7    -0.413163568884E+03   -0.18416E-04   -0.31142E-04  5763   0.153E-02    0.161E-02
RMM:   8    -0.413163573210E+03   -0.43259E-05   -0.40536E-05  5157   0.678E-03    0.701E-03
RMM:   9    -0.413163575925E+03   -0.27148E-05   -0.65126E-06  3110   0.299E-03    0.415E-03
RMM:  10    -0.413163581812E+03   -0.58872E-05   -0.20978E-06  2552   0.212E-03    0.251E-03
RMM:  11    -0.413163585948E+03   -0.41359E-05   -0.11712E-06  2510   0.160E-03    0.134E-03
RMM:  12    -0.413163589616E+03   -0.36678E-05   -0.10743E-06  2484   0.141E-03    0.706E-04
RMM:  13    -0.413163590966E+03   -0.13508E-05   -0.45709E-07  2076   0.101E-03    0.390E-04
RMM:  14    -0.413163591808E+03   -0.84140E-06   -0.27284E-07  1647   0.824E-04
  147 T=    60. E= -.41286677E+03 F= -.41316359E+03 E0= -.41314298E+03  EK= 0.29682E+00 SP= 0.00E+00 SK= 0.00E+00
       N       E                     dE             d eps       ncg     rms          rms(c)
RMM:   1    -0.413161915387E+03    0.16756E-02   -0.80463E+00  4264   0.783E-01    0.824E-01
RMM:   2    -0.413165724100E+03   -0.38087E-02   -0.91948E-02  4297   0.907E-02    0.587E-01
RMM:   3    -0.413163288805E+03    0.24353E-02   -0.14338E-02  4957   0.494E-02    0.109E-01
RMM:   4    -0.413187495001E+03   -0.24206E-01   -0.26235E-02  5128   0.135E-01    0.651E-01
RMM:   5    -0.413162795400E+03    0.24700E-01   -0.12130E-02  4821   0.108E-01    0.548E-02
RMM:   6    -0.413162815716E+03   -0.20316E-04   -0.20679E-03  5655   0.439E-02    0.316E-02
RMM:   7    -0.413162841052E+03   -0.25336E-04   -0.34178E-04  5909   0.158E-02    0.163E-02
RMM:   8    -0.413162846664E+03   -0.56122E-05   -0.47010E-05  5258   0.734E-03    0.736E-03
RMM:   9    -0.413162849437E+03   -0.27724E-05   -0.75251E-06  3219   0.319E-03    0.411E-03
RMM:  10    -0.413162855622E+03   -0.61857E-05   -0.24353E-06  2584   0.222E-03    0.259E-03
RMM:  11    -0.413162859925E+03   -0.43029E-05   -0.12792E-06  2515   0.167E-03    0.139E-03
RMM:  12    -0.413162863653E+03   -0.37280E-05   -0.11179E-06  2509   0.143E-03    0.723E-04
RMM:  13    -0.413162865057E+03   -0.14042E-05   -0.47572E-07  2079   0.102E-03    0.408E-04
RMM:  14    -0.413162865933E+03   -0.87537E-06   -0.31687E-07  1710   0.851E-04
  148 T=    60. E= -.41286644E+03 F= -.41316287E+03 E0= -.41314226E+03  EK= 0.29642E+00 SP= 0.00E+00 SK= 0.00E+00
       N       E                     dE             d eps       ncg     rms          rms(c)
RMM:   1    -0.413162031784E+03    0.83327E-03   -0.83337E+00  4264   0.787E-01    0.814E-01
RMM:   2    -0.413167051701E+03   -0.50199E-02   -0.95588E-02  4301   0.894E-02    0.593E-01
RMM:   3    -0.413164894874E+03    0.21568E-02   -0.13796E-02  5006   0.505E-02    0.124E-01
RMM:   4    -0.413193224606E+03   -0.28330E-01   -0.31651E-02  5121   0.148E-01    0.704E-01
RMM:   5    -0.413164165218E+03    0.29059E-01   -0.14063E-02  4817   0.116E-01    0.567E-02
RMM:   6    -0.413164190588E+03   -0.25369E-04   -0.23330E-03  5649   0.467E-02    0.297E-02
RMM:   7    -0.413164231509E+03   -0.40921E-04   -0.36483E-04  5982   0.159E-02    0.160E-02
RMM:   8    -0.413164244406E+03   -0.12897E-04   -0.53604E-05  5329   0.773E-03    0.745E-03
RMM:   9    -0.413164250230E+03   -0.58240E-05   -0.86844E-06  3332   0.338E-03    0.393E-03
RMM:  10    -0.413164260282E+03   -0.10053E-04   -0.26530E-06  2597   0.230E-03    0.263E-03
RMM:  11    -0.413164268951E+03   -0.86685E-05   -0.14823E-06  2522   0.177E-03    0.144E-03
RMM:  12    -0.413164276227E+03   -0.72768E-05   -0.11711E-06  2516   0.146E-03    0.698E-04
RMM:  13    -0.413164279053E+03   -0.28257E-05   -0.49612E-07  2085   0.102E-03    0.416E-04
RMM:  14    -0.413164281284E+03   -0.22309E-05   -0.36023E-07  1704   0.868E-04    0.256E-04
RMM:  15    -0.413164282829E+03   -0.15444E-05   -0.31115E-07  1669   0.810E-04    0.176E-04
RMM:  16    -0.413164283908E+03   -0.10790E-05   -0.31350E-07  1575   0.783E-04    0.124E-04
RMM:  17    -0.413164283988E+03   -0.79937E-07   -0.10238E-07  1087   0.611E-04
  149 T=    61. E= -.41286666E+03 F= -.41316428E+03 E0= -.41314368E+03  EK= 0.29762E+00 SP= 0.00E+00 SK= 0.00E+00
       N       E                     dE             d eps       ncg     rms          rms(c)
RMM:   1    -0.413161612004E+03    0.26719E-02   -0.86374E+00  4264   0.803E-01    0.829E-01
RMM:   2    -0.413166961024E+03   -0.53490E-02   -0.97454E-02  4296   0.938E-02    0.592E-01
RMM:   3    -0.413165441828E+03    0.15192E-02   -0.12309E-02  5029   0.531E-02    0.151E-01
RMM:   4    -0.413196302248E+03   -0.30860E-01   -0.35786E-02  5117   0.158E-01    0.736E-01
RMM:   5    -0.413164434859E+03    0.31867E-01   -0.15236E-02  4814   0.122E-01    0.598E-02
RMM:   6    -0.413164451972E+03   -0.17113E-04   -0.25143E-03  5630   0.487E-02    0.297E-02
RMM:   7    -0.413164486066E+03   -0.34094E-04   -0.38862E-04  6043   0.165E-02    0.162E-02
RMM:   8    -0.413164493324E+03   -0.72580E-05   -0.58455E-05  5356   0.820E-03    0.755E-03
RMM:   9    -0.413164496557E+03   -0.32330E-05   -0.93997E-06  3388   0.350E-03    0.387E-03
RMM:  10    -0.413164502782E+03   -0.62248E-05   -0.27180E-06  2608   0.233E-03    0.266E-03
RMM:  11    -0.413164508697E+03   -0.59153E-05   -0.16106E-06  2525   0.185E-03    0.152E-03
RMM:  12    -0.413164512608E+03   -0.39108E-05   -0.10696E-06  2507   0.146E-03    0.655E-04
RMM:  13    -0.413164514077E+03   -0.14694E-05   -0.46641E-07  2053   0.101E-03    0.395E-04
RMM:  14    -0.413164515264E+03   -0.11870E-05   -0.37410E-07  1730   0.876E-04    0.257E-04
RMM:  15    -0.413164515747E+03   -0.48293E-06   -0.25454E-07  1511   0.773E-04
  150 T=    61. E= -.41286666E+03 F= -.41316452E+03 E0= -.41314391E+03  EK= 0.29786E+00 SP= 0.00E+00 SK= 0.00E+00
