       N       E                     dE             d eps       ncg     rms          rms(c)
RMM:   1     0.220173347261E+04    0.22017E+04   -0.52443E+04  2132   0.654E+02
RMM:   2     0.705899729058E+03   -0.14958E+04   -0.16263E+04  2132   0.177E+02
RMM:   3     0.137800065929E+03   -0.56810E+03   -0.65719E+03  2132   0.117E+02
RMM:   4    -0.159523733550E+03   -0.29732E+03   -0.27863E+03  2132   0.936E+01
RMM:   5    -0.287545479365E+03   -0.12802E+03   -0.11453E+03  2132   0.595E+01
RMM:   6    -0.349838195575E+03   -0.62293E+02   -0.55145E+02  2132   0.423E+01
RMM:   7    -0.382776690704E+03   -0.32938E+02   -0.30459E+02  2132   0.293E+01
RMM:   8    -0.404252731900E+03   -0.21476E+02   -0.18442E+02  2132   0.233E+01
RMM:   9    -0.435959157245E+03   -0.31706E+02   -0.30613E+02  6097   0.173E+01
RMM:  10    -0.441291461504E+03   -0.53323E+01   -0.63302E+01  6392   0.539E+00
RMM:  11    -0.442509117385E+03   -0.12177E+01   -0.11229E+01  6219   0.173E+00
RMM:  12    -0.442883954257E+03   -0.37484E+00   -0.26738E+00  6370   0.601E-01    0.134E+02
RMM:  13    -0.425563438912E+03    0.17321E+02   -0.80867E+01  4676   0.119E+01    0.712E+01
RMM:  14    -0.498481226081E+03   -0.72918E+02   -0.53514E+02  5417   0.231E+01    0.305E+01
RMM:  15    -0.415127136418E+03    0.83354E+02   -0.19586E+02  5063   0.162E+01    0.653E+00
RMM:  16    -0.414041454220E+03    0.10857E+01   -0.39141E+01  6071   0.605E+00    0.427E+00
RMM:  17    -0.413219704879E+03    0.82175E+00   -0.23681E+00  5363   0.184E+00    0.244E+00
RMM:  18    -0.413168682985E+03    0.51022E-01   -0.83872E-01  5969   0.945E-01    0.161E+00
RMM:  19    -0.413168801838E+03   -0.11885E-03   -0.27417E-01  5723   0.560E-01    0.853E-01
RMM:  20    -0.413185462160E+03   -0.16660E-01   -0.22456E-01  5460   0.509E-01    0.564E-01
RMM:  21    -0.413168185163E+03    0.17277E-01   -0.32607E-02  5001   0.228E-01    0.259E-01
RMM:  22    -0.413166071497E+03    0.21137E-02   -0.15855E-02  6049   0.111E-01    0.139E-01
RMM:  23    -0.413164682824E+03    0.13887E-02   -0.55911E-03  5938   0.691E-02    0.829E-02
RMM:  24    -0.413163256833E+03    0.14260E-02   -0.15007E-03  5309   0.402E-02    0.408E-02
RMM:  25    -0.413162887169E+03    0.36966E-03   -0.76863E-04  5417   0.253E-02    0.354E-02
RMM:  26    -0.413163035714E+03   -0.14855E-03   -0.77234E-04  5776   0.293E-02    0.319E-02
RMM:  27    -0.413163469845E+03   -0.43413E-03   -0.18385E-04  4528   0.198E-02    0.181E-02
RMM:  28    -0.413163949244E+03   -0.47940E-03   -0.17983E-04  5160   0.195E-02    0.901E-03
RMM:  29    -0.413164321331E+03   -0.37209E-03   -0.10505E-04  4398   0.151E-02    0.426E-03
RMM:  30    -0.413164541112E+03   -0.21978E-03   -0.79491E-05  4182   0.102E-02    0.321E-03
RMM:  31    -0.413164642025E+03   -0.10091E-03   -0.46685E-05  3204   0.611E-03    0.319E-03
RMM:  32    -0.413164661540E+03   -0.19515E-04   -0.18586E-05  2934   0.289E-03    0.164E-03
RMM:  33    -0.413164668609E+03   -0.70698E-05   -0.78074E-06  2764   0.201E-03    0.588E-04
RMM:  34    -0.413164669222E+03   -0.61252E-06   -0.43879E-06  2644   0.160E-03
    1 T=    61. E= -.41286685E+03 F= -.41316467E+03 E0= -.41314217E+03  EK= 0.29782E+00 SP= 0.00E+00 SK= 0.00E+00
       N       E                     dE             d eps       ncg     rms          rms(c)
RMM:   1    -0.413166525989E+03   -0.18574E-02   -0.81517E+00  4000   0.581E-01    0.889E-01
RMM:   2    -0.413169471051E+03   -0.29451E-02   -0.10082E-01  3973   0.843E-02    0.655E-01
RMM:   3    -0.413165062300E+03    0.44088E-02   -0.24281E-02  4884   0.566E-02    0.130E-01
RMM:   4    -0.413189285944E+03   -0.24224E-01   -0.27106E-02  5197   0.137E-01    0.654E-01
RMM:   5    -0.413164175821E+03    0.25110E-01   -0.12078E-02  4845   0.110E-01    0.503E-02
RMM:   6    -0.413164351571E+03   -0.17575E-03   -0.22591E-03  5736   0.466E-02    0.347E-02
RMM:   7    -0.413164351342E+03    0.22895E-06   -0.43001E-04  5747   0.185E-02    0.207E-02
RMM:   8    -0.413164348410E+03    0.29323E-05   -0.46852E-05  5101   0.748E-03    0.837E-03
RMM:   9    -0.413164351300E+03   -0.28901E-05   -0.97713E-06  3391   0.324E-03    0.617E-03
RMM:  10    -0.413164356513E+03   -0.52128E-05   -0.21853E-06  2597   0.218E-03    0.359E-03
RMM:  11    -0.413164360717E+03   -0.42039E-05   -0.12447E-06  2519   0.163E-03    0.187E-03
RMM:  12    -0.413164366747E+03   -0.60300E-05   -0.13340E-06  2525   0.164E-03    0.793E-04
RMM:  13    -0.413164369264E+03   -0.25171E-05   -0.61601E-07  2299   0.117E-03    0.556E-04
RMM:  14    -0.413164369482E+03   -0.21812E-06   -0.34163E-07  1822   0.820E-04
    2 T=    61. E= -.41286658E+03 F= -.41316437E+03 E0= -.41314187E+03  EK= 0.29779E+00 SP= 0.00E+00 SK= 0.00E+00
       N       E                     dE             d eps       ncg     rms          rms(c)
RMM:   1    -0.413167423851E+03   -0.30546E-02   -0.81350E+00  4194   0.583E-01    0.906E-01
RMM:   2    -0.413169615247E+03   -0.21914E-02   -0.10040E-01  3966   0.833E-02    0.652E-01
RMM:   3    -0.413165740814E+03    0.38744E-02   -0.22627E-02  4951   0.538E-02    0.130E-01
RMM:   4    -0.413194554018E+03   -0.28813E-01   -0.31709E-02  5157   0.149E-01    0.713E-01
RMM:   5    -0.413164756093E+03    0.29798E-01   -0.13997E-02  4820   0.119E-01    0.511E-02
RMM:   6    -0.413164964827E+03   -0.20873E-03   -0.26015E-03  5747   0.500E-02    0.368E-02
RMM:   7    -0.413164947680E+03    0.17147E-04   -0.47142E-04  5629   0.206E-02    0.229E-02
RMM:   8    -0.413164936271E+03    0.11409E-04   -0.62106E-05  5216   0.906E-03    0.105E-02
RMM:   9    -0.413164934551E+03    0.17198E-05   -0.12639E-05  3821   0.393E-03    0.759E-03
RMM:  10    -0.413164934838E+03   -0.28661E-06   -0.22913E-06  2604   0.241E-03
    3 T=    61. E= -.41286690E+03 F= -.41316493E+03 E0= -.41314244E+03  EK= 0.29804E+00 SP= 0.00E+00 SK= 0.00E+00
       N       E                     dE             d eps       ncg     rms          rms(c)
RMM:   1    -0.413167570741E+03   -0.26362E-02   -0.80859E+00  4218   0.600E-01    0.891E-01
RMM:   2    -0.413169176364E+03   -0.16056E-02   -0.10208E-01  4249   0.858E-02    0.647E-01
RMM:   3    -0.413172645761E+03   -0.34694E-02   -0.27388E-02  5173   0.942E-02    0.379E-01
RMM:   4    -0.413184192606E+03   -0.11547E-01   -0.36746E-02  5098   0.166E-01    0.578E-01
RMM:   5    -0.413164704839E+03    0.19488E-01   -0.69550E-03  4659   0.954E-02    0.582E-02
RMM:   6    -0.413164689899E+03    0.14940E-04   -0.14303E-03  5371   0.388E-02    0.323E-02
RMM:   7    -0.413164702421E+03   -0.12522E-04   -0.30819E-04  5925   0.166E-02    0.191E-02
RMM:   8    -0.413164698480E+03    0.39406E-05   -0.53786E-05  5096   0.871E-03    0.758E-03
RMM:   9    -0.413164696836E+03    0.16440E-05   -0.65419E-06  3225   0.343E-03    0.382E-03
RMM:  10    -0.413164697869E+03   -0.10323E-05   -0.15077E-06  2532   0.208E-03    0.238E-03
RMM:  11    -0.413164699215E+03   -0.13465E-05   -0.11916E-06  2524   0.172E-03    0.133E-03
RMM:  12    -0.413164699890E+03   -0.67516E-06   -0.73003E-07  2470   0.135E-03
    4 T=    61. E= -.41286667E+03 F= -.41316470E+03 E0= -.41314221E+03  EK= 0.29803E+00 SP= 0.00E+00 SK= 0.00E+00
       N       E                     dE             d eps       ncg     rms          rms(c)
RMM:   1    -0.413166854123E+03   -0.21549E-02   -0.81501E+00  4235   0.594E-01    0.887E-01
RMM:   2    -0.413169659390E+03   -0.28053E-02   -0.10112E-01  4032   0.826E-02    0.654E-01
RMM:   3    -0.413165991550E+03    0.36678E-02   -0.24456E-02  4975   0.581E-02    0.156E-01
RMM:   4    -0.413196372990E+03   -0.30381E-01   -0.34442E-02  5138   0.156E-01    0.735E-01
RMM:   5    -0.413164653533E+03    0.31719E-01   -0.14720E-02  4801   0.122E-01    0.512E-02
RMM:   6    -0.413164859814E+03   -0.20628E-03   -0.26762E-03  5745   0.509E-02    0.353E-02
RMM:   7    -0.413164857651E+03    0.21636E-05   -0.46277E-04  5701   0.201E-02    0.224E-02
RMM:   8    -0.413164851757E+03    0.58933E-05   -0.63266E-05  5180   0.903E-03    0.102E-02
RMM:   9    -0.413164852756E+03   -0.99864E-06   -0.12493E-05  3819   0.400E-03    0.726E-03
RMM:  10    -0.413164857367E+03   -0.46112E-05   -0.21568E-06  2589   0.236E-03    0.435E-03
RMM:  11    -0.413164860701E+03   -0.33341E-05   -0.11459E-06  2525   0.172E-03    0.247E-03
RMM:  12    -0.413164866427E+03   -0.57251E-05   -0.19089E-06  2595   0.200E-03    0.113E-03
RMM:  13    -0.413164868962E+03   -0.25352E-05   -0.71814E-07  2428   0.137E-03    0.892E-04
RMM:  14    -0.413164868695E+03    0.26695E-06   -0.26603E-07  1956   0.888E-04
    5 T=    61. E= -.41286673E+03 F= -.41316487E+03 E0= -.41314239E+03  EK= 0.29814E+00 SP= 0.00E+00 SK= 0.00E+00
       N       E                     dE             d eps       ncg     rms          rms(c)
RMM:   1    -0.413167688478E+03   -0.28195E-02   -0.81498E+00  4245   0.596E-01    0.903E-01
RMM:   2    -0.413169851784E+03   -0.21633E-02   -0.10077E-01  4060   0.822E-02    0.654E-01
RMM:   3    -0.413166031957E+03    0.38198E-02   -0.22752E-02  4909   0.519E-02    0.122E-01
RMM:   4    -0.413192317992E+03   -0.26286E-01   -0.28348E-02  5141   0.141E-01    0.682E-01
RMM:   5    -0.413165173675E+03    0.27144E-01   -0.12762E-02  4808   0.113E-01    0.495E-02
RMM:   6    -0.413165372059E+03   -0.19838E-03   -0.24524E-03  5741   0.475E-02    0.353E-02
RMM:   7    -0.413165362959E+03    0.90995E-05   -0.43198E-04  5603   0.200E-02    0.224E-02
RMM:   8    -0.413165352024E+03    0.10936E-04   -0.58791E-05  5057   0.875E-03    0.105E-02
RMM:   9    -0.413165349789E+03    0.22350E-05   -0.11693E-05  3743   0.384E-03    0.778E-03
RMM:  10    -0.413165349803E+03   -0.14457E-07   -0.21175E-06  2572   0.238E-03
    6 T=    61. E= -.41286696E+03 F= -.41316535E+03 E0= -.41314289E+03  EK= 0.29839E+00 SP= 0.00E+00 SK= 0.00E+00
       N       E                     dE             d eps       ncg     rms          rms(c)
RMM:   1    -0.413167441040E+03   -0.20913E-02   -0.81056E+00  4259   0.601E-01    0.898E-01
RMM:   2    -0.413169580360E+03   -0.21393E-02   -0.10029E-01  4295   0.833E-02    0.648E-01
RMM:   3    -0.413172911828E+03   -0.33315E-02   -0.27321E-02  5152   0.932E-02    0.376E-01
RMM:   4    -0.413184370811E+03   -0.11459E-01   -0.36253E-02  5085   0.165E-01    0.574E-01
RMM:   5    -0.413165108095E+03    0.19263E-01   -0.68856E-03  4654   0.944E-02    0.576E-02
RMM:   6    -0.413165099742E+03    0.83533E-05   -0.14357E-03  5381   0.386E-02    0.326E-02
RMM:   7    -0.413165101270E+03   -0.15286E-05   -0.30379E-04  5899   0.162E-02    0.190E-02
RMM:   8    -0.413165095514E+03    0.57566E-05   -0.51334E-05  5079   0.851E-03    0.752E-03
RMM:   9    -0.413165092843E+03    0.26712E-05   -0.60857E-06  3144   0.327E-03    0.385E-03
RMM:  10    -0.413165092660E+03    0.18220E-06   -0.14953E-06  2527   0.206E-03
    7 T=    61. E= -.41286665E+03 F= -.41316509E+03 E0= -.41314264E+03  EK= 0.29845E+00 SP= 0.00E+00 SK= 0.00E+00
       N       E                     dE             d eps       ncg     rms          rms(c)
RMM:   1    -0.413167623495E+03   -0.25307E-02   -0.81434E+00  4271   0.605E-01    0.885E-01
RMM:   2    -0.413170678992E+03   -0.30555E-02   -0.10080E-01  4143   0.843E-02    0.652E-01
RMM:   3    -0.413166874581E+03    0.38044E-02   -0.24093E-02  4953   0.597E-02    0.158E-01
RMM:   4    -0.413197955955E+03   -0.31081E-01   -0.35375E-02  5130   0.158E-01    0.743E-01
RMM:   5    -0.413165501128E+03    0.32455E-01   -0.15067E-02  4798   0.123E-01    0.517E-02
RMM:   6    -0.413165713534E+03   -0.21241E-03   -0.27224E-03  5729   0.514E-02    0.355E-02
RMM:   7    -0.413165706920E+03    0.66137E-05   -0.46861E-04  5695   0.201E-02    0.225E-02
RMM:   8    -0.413165701500E+03    0.54197E-05   -0.63242E-05  5212   0.886E-03    0.102E-02
RMM:   9    -0.413165700878E+03    0.62271E-06   -0.12186E-05  3820   0.392E-03    0.714E-03
RMM:  10    -0.413165703529E+03   -0.26516E-05   -0.21155E-06  2576   0.231E-03    0.427E-03
RMM:  11    -0.413165705527E+03   -0.19972E-05   -0.10982E-06  2519   0.169E-03    0.243E-03
RMM:  12    -0.413165708984E+03   -0.34578E-05   -0.18240E-06  2588   0.196E-03    0.111E-03
RMM:  13    -0.413165710408E+03   -0.14235E-05   -0.74640E-07  2435   0.137E-03    0.925E-04
RMM:  14    -0.413165710145E+03    0.26297E-06   -0.26126E-07  1946   0.884E-04
    8 T=    61. E= -.41286691E+03 F= -.41316571E+03 E0= -.41314328E+03  EK= 0.29880E+00 SP= 0.00E+00 SK= 0.00E+00
       N       E                     dE             d eps       ncg     rms          rms(c)
RMM:   1    -0.413168143934E+03   -0.24335E-02   -0.81738E+00  4280   0.609E-01    0.899E-01
RMM:   2    -0.413170770056E+03   -0.26261E-02   -0.10076E-01  4168   0.848E-02    0.655E-01
RMM:   3    -0.413166648221E+03    0.41218E-02   -0.23292E-02  4887   0.559E-02    0.130E-01
RMM:   4    -0.413194060267E+03   -0.27412E-01   -0.29825E-02  5130   0.145E-01    0.696E-01
RMM:   5    -0.413165680253E+03    0.28380E-01   -0.13374E-02  4799   0.115E-01    0.496E-02
RMM:   6    -0.413165883417E+03   -0.20316E-03   -0.25104E-03  5755   0.483E-02    0.351E-02
RMM:   7    -0.413165872942E+03    0.10475E-04   -0.43041E-04  5627   0.199E-02    0.223E-02
RMM:   8    -0.413165862573E+03    0.10369E-04   -0.60277E-05  5057   0.883E-03    0.105E-02
RMM:   9    -0.413165860555E+03    0.20181E-05   -0.11835E-05  3763   0.390E-03    0.772E-03
RMM:  10    -0.413165860924E+03   -0.36831E-06   -0.21139E-06  2570   0.238E-03
    9 T=    61. E= -.41286681E+03 F= -.41316586E+03 E0= -.41314345E+03  EK= 0.29905E+00 SP= 0.00E+00 SK= 0.00E+00
       N       E                     dE             d eps       ncg     rms          rms(c)
RMM:   1    -0.413168346084E+03   -0.24855E-02   -0.81447E+00  4291   0.620E-01    0.904E-01
RMM:   2    -0.413170575379E+03   -0.22293E-02   -0.10077E-01  4337   0.860E-02    0.650E-01
RMM:   3    -0.413173857319E+03   -0.32819E-02   -0.27401E-02  5137   0.946E-02    0.379E-01
RMM:   4    -0.413184992207E+03   -0.11135E-01   -0.36206E-02  5067   0.164E-01    0.571E-01
RMM:   5    -0.413165941089E+03    0.19051E-01   -0.67583E-03  4642   0.936E-02    0.575E-02
RMM:   6    -0.413165931371E+03    0.97178E-05   -0.14328E-03  5377   0.382E-02    0.330E-02
RMM:   7    -0.413165934634E+03   -0.32631E-05   -0.29878E-04  5855   0.163E-02    0.190E-02
RMM:   8    -0.413165928084E+03    0.65502E-05   -0.51424E-05  5067   0.856E-03    0.748E-03
RMM:   9    -0.413165924356E+03    0.37282E-05   -0.60336E-06  3118   0.329E-03    0.386E-03
RMM:  10    -0.413165923006E+03    0.13496E-05   -0.15220E-06  2526   0.206E-03    0.237E-03
RMM:  11    -0.413165920932E+03    0.20742E-05   -0.11043E-06  2500   0.167E-03    0.127E-03
RMM:  12    -0.413165918899E+03    0.20333E-05   -0.71758E-07  2450   0.133E-03    0.551E-04
RMM:  13    -0.413165917608E+03    0.12910E-05   -0.36460E-07  2058   0.977E-04    0.327E-04
RMM:  14    -0.413165916263E+03    0.13443E-05   -0.22752E-07  1554   0.783E-04    0.212E-04
RMM:  15    -0.413165913761E+03    0.25028E-05   -0.29165E-07  1697   0.796E-04    0.224E-04
RMM:  16    -0.413165911535E+03    0.22255E-05   -0.19819E-07  1324   0.688E-04    0.150E-04
RMM:  17    -0.413165909857E+03    0.16777E-05   -0.13480E-07  1222   0.639E-04    0.747E-05
RMM:  18    -0.413165908434E+03    0.14230E-05   -0.93085E-08  1047   0.594E-04    0.574E-05
RMM:  19    -0.413165908003E+03    0.43167E-06   -0.41128E-08   806   0.538E-04
   10 T=    61. E= -.41286662E+03 F= -.41316591E+03 E0= -.41314352E+03  EK= 0.29929E+00 SP= 0.00E+00 SK= 0.00E+00
       N       E                     dE             d eps       ncg     rms          rms(c)
RMM:   1    -0.413168593448E+03   -0.26850E-02   -0.81416E+00  4292   0.618E-01    0.885E-01
RMM:   2    -0.413171374520E+03   -0.27811E-02   -0.10088E-01  4201   0.833E-02    0.650E-01
RMM:   3    -0.413167919991E+03    0.34545E-02   -0.23588E-02  4963   0.584E-02    0.158E-01
RMM:   4    -0.413199746477E+03   -0.31826E-01   -0.36596E-02  5125   0.160E-01    0.752E-01
RMM:   5    -0.413166508588E+03    0.33238E-01   -0.15530E-02  4790   0.125E-01    0.521E-02
RMM:   6    -0.413166714835E+03   -0.20625E-03   -0.27176E-03  5718   0.515E-02    0.359E-02
RMM:   7    -0.413166708440E+03    0.63949E-05   -0.47098E-04  5618   0.202E-02    0.225E-02
RMM:   8    -0.413166700251E+03    0.81895E-05   -0.65004E-05  5226   0.908E-03    0.101E-02
RMM:   9    -0.413166698739E+03    0.15114E-05   -0.12822E-05  3890   0.403E-03    0.705E-03
RMM:  10    -0.413166700324E+03   -0.15842E-05   -0.21279E-06  2577   0.232E-03    0.426E-03
RMM:  11    -0.413166701473E+03   -0.11491E-05   -0.99550E-07  2498   0.162E-03    0.248E-03
RMM:  12    -0.413166703369E+03   -0.18964E-05   -0.15680E-06  2546   0.189E-03    0.112E-03
RMM:  13    -0.413166704048E+03   -0.67910E-06   -0.66717E-07  2414   0.135E-03
   11 T=    61. E= -.41286695E+03 F= -.41316670E+03 E0= -.41314434E+03  EK= 0.29976E+00 SP= 0.00E+00 SK= 0.00E+00
       N       E                     dE             d eps       ncg     rms          rms(c)
RMM:   1    -0.413168789335E+03   -0.20860E-02   -0.82081E+00  4294   0.623E-01    0.896E-01
RMM:   2    -0.413171342254E+03   -0.25529E-02   -0.10161E-01  4221   0.833E-02    0.657E-01
RMM:   3    -0.413167550559E+03    0.37917E-02   -0.23754E-02  4915   0.554E-02    0.139E-01
RMM:   4    -0.413196344689E+03   -0.28794E-01   -0.31926E-02  5121   0.149E-01    0.714E-01
RMM:   5    -0.413166459975E+03    0.29885E-01   -0.14082E-02  4794   0.118E-01    0.500E-02
RMM:   6    -0.413166656623E+03   -0.19665E-03   -0.25792E-03  5762   0.492E-02    0.346E-02
RMM:   7    -0.413166649756E+03    0.68670E-05   -0.43480E-04  5655   0.199E-02    0.222E-02
RMM:   8    -0.413166640442E+03    0.93143E-05   -0.63778E-05  5058   0.896E-03    0.106E-02
RMM:   9    -0.413166638524E+03    0.19175E-05   -0.12450E-05  3838   0.401E-03    0.769E-03
RMM:  10    -0.413166639426E+03   -0.90199E-06   -0.21117E-06  2573   0.237E-03
   12 T=    61. E= -.41286665E+03 F= -.41316664E+03 E0= -.41314431E+03  EK= 0.29999E+00 SP= 0.00E+00 SK= 0.00E+00
       N       E                     dE             d eps       ncg     rms          rms(c)
RMM:   1    -0.413170702090E+03   -0.40636E-02   -0.82005E+00  4305   0.648E-01    0.909E-01
RMM:   2    -0.413171581795E+03   -0.87971E-03   -0.10174E-01  4333   0.842E-02    0.653E-01
RMM:   3    -0.413175422454E+03   -0.38407E-02   -0.27525E-02  5140   0.941E-02    0.384E-01
RMM:   4    -0.413186215984E+03   -0.10794E-01   -0.36607E-02  5067   0.165E-01    0.569E-01
RMM:   5    -0.413167284889E+03    0.18931E-01   -0.66623E-03  4634   0.932E-02    0.576E-02
RMM:   6    -0.413167282204E+03    0.26850E-05   -0.14385E-03  5359   0.380E-02    0.331E-02
RMM:   7    -0.413167288270E+03   -0.60658E-05   -0.29860E-04  5849   0.163E-02    0.190E-02
RMM:   8    -0.413167278527E+03    0.97425E-05   -0.51763E-05  5059   0.864E-03    0.754E-03
RMM:   9    -0.413167273519E+03    0.50085E-05   -0.61631E-06  3125   0.334E-03    0.387E-03
RMM:  10    -0.413167271400E+03    0.21181E-05   -0.14554E-06  2512   0.205E-03    0.239E-03
RMM:  11    -0.413167268156E+03    0.32440E-05   -0.11036E-06  2497   0.168E-03    0.129E-03
RMM:  12    -0.413167265311E+03    0.28452E-05   -0.66146E-07  2437   0.132E-03    0.560E-04
RMM:  13    -0.413167263404E+03    0.19072E-05   -0.35128E-07  2064   0.980E-04    0.337E-04
RMM:  14    -0.413167261549E+03    0.18552E-05   -0.20853E-07  1545   0.777E-04    0.220E-04
RMM:  15    -0.413167258063E+03    0.34861E-05   -0.25201E-07  1637   0.784E-04    0.220E-04
RMM:  16    -0.413167255258E+03    0.28049E-05   -0.17122E-07  1328   0.681E-04    0.144E-04
RMM:  17    -0.413167253020E+03    0.22377E-05   -0.12212E-07  1219   0.638E-04    0.727E-05
RMM:  18    -0.413167251571E+03    0.14492E-05   -0.70495E-08   982   0.579E-04    0.519E-05
RMM:  19    -0.413167250821E+03    0.74980E-06   -0.39747E-08   841   0.545E-04
   13 T=    61. E= -.41286677E+03 F= -.41316725E+03 E0= -.41314495E+03  EK= 0.30048E+00 SP= 0.00E+00 SK= 0.00E+00
       N       E                     dE             d eps       ncg     rms          rms(c)
RMM:   1    -0.413169891289E+03   -0.26397E-02   -0.81566E+00  4294   0.631E-01    0.888E-01
RMM:   2    -0.413172504743E+03   -0.26135E-02   -0.10101E-01  4250   0.826E-02    0.649E-01
RMM:   3    -0.413169115909E+03    0.33888E-02   -0.23087E-02  4978   0.575E-02    0.158E-01
RMM:   4    -0.413201459876E+03   -0.32344E-01   -0.37422E-02  5121   0.162E-01    0.757E-01
RMM:   5    -0.413167700402E+03    0.33759E-01   -0.15784E-02  4789   0.125E-01    0.526E-02
RMM:   6    -0.413167906371E+03   -0.20597E-03   -0.27743E-03  5711   0.520E-02    0.363E-02
RMM:   7    -0.413167889487E+03    0.16884E-04   -0.47937E-04  5627   0.203E-02    0.228E-02
RMM:   8    -0.413167880288E+03    0.91993E-05   -0.66464E-05  5220   0.916E-03    0.103E-02
RMM:   9    -0.413167877476E+03    0.28113E-05   -0.12825E-05  3884   0.405E-03    0.715E-03
RMM:  10    -0.413167877368E+03    0.10816E-06   -0.21537E-06  2573   0.234E-03
   14 T=    61. E= -.41286685E+03 F= -.41316788E+03 E0= -.41314561E+03  EK= 0.30103E+00 SP= 0.00E+00 SK= 0.00E+00
       N       E                     dE             d eps       ncg     rms          rms(c)
RMM:   1    -0.413170005799E+03   -0.21283E-02   -0.82494E+00  4302   0.643E-01    0.894E-01
RMM:   2    -0.413172937875E+03   -0.29321E-02   -0.10226E-01  4324   0.858E-02    0.659E-01
RMM:   3    -0.413176383884E+03   -0.34460E-02   -0.29458E-02  5126   0.972E-02    0.391E-01
RMM:   4    -0.413188306700E+03   -0.11923E-01   -0.38740E-02  5060   0.169E-01    0.591E-01
RMM:   5    -0.413167924055E+03    0.20383E-01   -0.73738E-03  4627   0.978E-02    0.567E-02
RMM:   6    -0.413167935042E+03   -0.10987E-04   -0.15354E-03  5374   0.387E-02    0.316E-02
RMM:   7    -0.413167946472E+03   -0.11430E-04   -0.30319E-04  5871   0.161E-02    0.187E-02
RMM:   8    -0.413167943415E+03    0.30575E-05   -0.52644E-05  5072   0.853E-03    0.741E-03
RMM:   9    -0.413167941935E+03    0.14796E-05   -0.59984E-06  3071   0.332E-03    0.383E-03
RMM:  10    -0.413167943064E+03   -0.11287E-05   -0.14520E-06  2513   0.202E-03    0.237E-03
RMM:  11    -0.413167944329E+03   -0.12653E-05   -0.11036E-06  2493   0.165E-03    0.127E-03
RMM:  12    -0.413167944746E+03   -0.41648E-06   -0.66352E-07  2437   0.131E-03
   15 T=    61. E= -.41286654E+03 F= -.41316794E+03 E0= -.41314571E+03  EK= 0.30141E+00 SP= 0.00E+00 SK= 0.00E+00
       N       E                     dE             d eps       ncg     rms          rms(c)
RMM:   1    -0.413172342481E+03   -0.43982E-02   -0.82477E+00  4295   0.658E-01    0.911E-01
RMM:   2    -0.413173693818E+03   -0.13513E-02   -0.10280E-01  4272   0.869E-02    0.655E-01
RMM:   3    -0.413170157546E+03    0.35363E-02   -0.22406E-02  4975   0.580E-02    0.153E-01
RMM:   4    -0.413203605431E+03   -0.33448E-01   -0.38325E-02  5119   0.163E-01    0.768E-01
RMM:   5    -0.413168819570E+03    0.34786E-01   -0.16290E-02  4784   0.127E-01    0.534E-02
RMM:   6    -0.413169025732E+03   -0.20616E-03   -0.29197E-03  5737   0.531E-02    0.375E-02
RMM:   7    -0.413169000411E+03    0.25321E-04   -0.50160E-04  5669   0.210E-02    0.238E-02
RMM:   8    -0.413168987462E+03    0.12949E-04   -0.70375E-05  5194   0.955E-03    0.110E-02
RMM:   9    -0.413168981358E+03    0.61039E-05   -0.13705E-05  3939   0.420E-03    0.765E-03
RMM:  10    -0.413168977253E+03    0.41048E-05   -0.23574E-06  2596   0.244E-03    0.455E-03
RMM:  11    -0.413168974742E+03    0.25116E-05   -0.11444E-06  2513   0.172E-03    0.267E-03
RMM:  12    -0.413168969390E+03    0.53515E-05   -0.18382E-06  2580   0.205E-03    0.120E-03
RMM:  13    -0.413168965939E+03    0.34513E-05   -0.74900E-07  2439   0.144E-03    0.985E-04
RMM:  14    -0.413168965911E+03    0.27692E-07   -0.28269E-07  2042   0.936E-04
   16 T=    62. E= -.41286685E+03 F= -.41316897E+03 E0= -.41314677E+03  EK= 0.30211E+00 SP= 0.00E+00 SK= 0.00E+00
       N       E                     dE             d eps       ncg     rms          rms(c)
RMM:   1    -0.413171404372E+03   -0.24384E-02   -0.81920E+00  4296   0.645E-01    0.893E-01
RMM:   2    -0.413174162588E+03   -0.27582E-02   -0.10154E-01  4273   0.865E-02    0.650E-01
RMM:   3    -0.413170313700E+03    0.38489E-02   -0.22442E-02  4918   0.555E-02    0.136E-01
RMM:   4    -0.413200344183E+03   -0.30030E-01   -0.33385E-02  5120   0.152E-01    0.727E-01
RMM:   5    -0.413169258765E+03    0.31085E-01   -0.14756E-02  4781   0.120E-01    0.509E-02
RMM:   6    -0.413169449490E+03   -0.19073E-03   -0.26670E-03  5756   0.502E-02    0.356E-02
RMM:   7    -0.413169434113E+03    0.15377E-04   -0.44772E-04  5618   0.203E-02    0.226E-02
RMM:   8    -0.413169421094E+03    0.13019E-04   -0.66730E-05  5111   0.921E-03    0.109E-02
RMM:   9    -0.413169416435E+03    0.46583E-05   -0.12966E-05  3895   0.412E-03    0.781E-03
RMM:  10    -0.413169413906E+03    0.25291E-05   -0.21939E-06  2576   0.241E-03    0.462E-03
RMM:  11    -0.413169412088E+03    0.18185E-05   -0.12109E-06  2510   0.178E-03    0.262E-03
RMM:  12    -0.413169408650E+03    0.34378E-05   -0.17766E-06  2565   0.204E-03    0.117E-03
RMM:  13    -0.413169406397E+03    0.22533E-05   -0.62261E-07  2394   0.137E-03    0.905E-04
RMM:  14    -0.413169406403E+03   -0.64101E-08   -0.25822E-07  1979   0.889E-04
   17 T=    62. E= -.41286674E+03 F= -.41316941E+03 E0= -.41314725E+03  EK= 0.30266E+00 SP= 0.00E+00 SK= 0.00E+00
       N       E                     dE             d eps       ncg     rms          rms(c)
RMM:   1    -0.413171952912E+03   -0.25465E-02   -0.82893E+00  4295   0.657E-01    0.893E-01
RMM:   2    -0.413174817662E+03   -0.28647E-02   -0.10312E-01  4273   0.871E-02    0.659E-01
RMM:   3    -0.413170982636E+03    0.38350E-02   -0.24151E-02  4915   0.573E-02    0.147E-01
RMM:   4    -0.413200992609E+03   -0.30010E-01   -0.33724E-02  5116   0.154E-01    0.729E-01
RMM:   5    -0.413169795382E+03    0.31197E-01   -0.14808E-02  4780   0.121E-01    0.504E-02
RMM:   6    -0.413169976378E+03   -0.18100E-03   -0.26189E-03  5738   0.502E-02    0.346E-02
RMM:   7    -0.413169972321E+03    0.40576E-05   -0.44137E-04  5611   0.201E-02    0.222E-02
RMM:   8    -0.413169963762E+03    0.85583E-05   -0.65636E-05  5082   0.933E-03    0.105E-02
RMM:   9    -0.413169961316E+03    0.24459E-05   -0.13108E-05  3845   0.418E-03    0.749E-03
RMM:  10    -0.413169961735E+03   -0.41856E-06   -0.21728E-06  2591   0.240E-03
   18 T=    62. E= -.41286671E+03 F= -.41316996E+03 E0= -.41314784E+03  EK= 0.30325E+00 SP= 0.00E+00 SK= 0.00E+00
       N       E                     dE             d eps       ncg     rms          rms(c)
RMM:   1    -0.413173422062E+03   -0.34607E-02   -0.82928E+00  4301   0.656E-01    0.911E-01
RMM:   2    -0.413175639984E+03   -0.22179E-02   -0.10290E-01  4344   0.868E-02    0.658E-01
RMM:   3    -0.413178854433E+03   -0.32144E-02   -0.27535E-02  5126   0.939E-02    0.374E-01
RMM:   4    -0.413191665773E+03   -0.12811E-01   -0.38078E-02  5057   0.168E-01    0.592E-01
RMM:   5    -0.413171125038E+03    0.20541E-01   -0.74126E-03  4644   0.968E-02    0.571E-02
RMM:   6    -0.413171139539E+03   -0.14501E-04   -0.15886E-03  5401   0.394E-02    0.331E-02
RMM:   7    -0.413171135676E+03    0.38632E-05   -0.31375E-04  5844   0.167E-02    0.194E-02
RMM:   8    -0.413171127872E+03    0.78047E-05   -0.53460E-05  5044   0.883E-03    0.769E-03
RMM:   9    -0.413171122957E+03    0.49141E-05   -0.67895E-06  3161   0.345E-03    0.401E-03
RMM:  10    -0.413171120490E+03    0.24676E-05   -0.15311E-06  2519   0.208E-03    0.247E-03
RMM:  11    -0.413171117008E+03    0.34816E-05   -0.10211E-06  2482   0.165E-03    0.130E-03
RMM:  12    -0.413171113358E+03    0.36500E-05   -0.66857E-07  2447   0.132E-03    0.541E-04
RMM:  13    -0.413171111134E+03    0.22245E-05   -0.33960E-07  2055   0.974E-04    0.326E-04
RMM:  14    -0.413171109095E+03    0.20388E-05   -0.19237E-07  1538   0.764E-04    0.217E-04
RMM:  15    -0.413171104940E+03    0.41544E-05   -0.20135E-07  1495   0.752E-04    0.205E-04
RMM:  16    -0.413171101957E+03    0.29835E-05   -0.12378E-07  1193   0.655E-04    0.158E-04
RMM:  17    -0.413171099065E+03    0.28916E-05   -0.10683E-07  1181   0.635E-04    0.750E-05
RMM:  18    -0.413171096668E+03    0.23978E-05   -0.72298E-08  1028   0.597E-04    0.449E-05
RMM:  19    -0.413171095898E+03    0.76980E-06   -0.33726E-08   802   0.550E-04
   19 T=    62. E= -.41286702E+03 F= -.41317110E+03 E0= -.41314902E+03  EK= 0.30408E+00 SP= 0.00E+00 SK= 0.00E+00
       N       E                     dE             d eps       ncg     rms          rms(c)
RMM:   1    -0.413175060407E+03   -0.39637E-02   -0.82691E+00  4298   0.681E-01    0.901E-01
RMM:   2    -0.413175890391E+03   -0.82998E-03   -0.10431E-01  4276   0.903E-02    0.652E-01
RMM:   3    -0.413172765910E+03    0.31245E-02   -0.22080E-02  4986   0.573E-02    0.156E-01
RMM:   4    -0.413206802170E+03   -0.34036E-01   -0.39478E-02  5119   0.166E-01    0.774E-01
RMM:   5    -0.413171378984E+03    0.35423E-01   -0.16658E-02  4781   0.129E-01    0.539E-02
RMM:   6    -0.413171574729E+03   -0.19574E-03   -0.29665E-03  5711   0.538E-02    0.373E-02
RMM:   7    -0.413171557940E+03    0.16789E-04   -0.50669E-04  5635   0.210E-02    0.237E-02
RMM:   8    -0.413171545710E+03    0.12229E-04   -0.73072E-05  5227   0.967E-03    0.110E-02
RMM:   9    -0.413171540107E+03    0.56038E-05   -0.14195E-05  4012   0.428E-03    0.752E-03
RMM:  10    -0.413171536668E+03    0.34388E-05   -0.23184E-06  2592   0.242E-03    0.455E-03
RMM:  11    -0.413171534603E+03    0.20648E-05   -0.10545E-06  2501   0.168E-03    0.272E-03
RMM:  12    -0.413171530200E+03    0.44031E-05   -0.16743E-06  2545   0.201E-03    0.121E-03
RMM:  13    -0.413171527499E+03    0.27005E-05   -0.72953E-07  2413   0.144E-03    0.958E-04
RMM:  14    -0.413171527294E+03    0.20532E-06   -0.28777E-07  2053   0.944E-04
   20 T=    62. E= -.41286676E+03 F= -.41317153E+03 E0= -.41314949E+03  EK= 0.30477E+00 SP= 0.00E+00 SK= 0.00E+00
       N       E                     dE             d eps       ncg     rms          rms(c)
RMM:   1    -0.413174471643E+03   -0.29441E-02   -0.83303E+00  4295   0.663E-01    0.893E-01
RMM:   2    -0.413177477590E+03   -0.30059E-02   -0.10370E-01  4272   0.871E-02    0.659E-01
RMM:   3    -0.413173541000E+03    0.39366E-02   -0.23809E-02  4911   0.555E-02    0.138E-01
RMM:   4    -0.413202305704E+03   -0.28765E-01   -0.31957E-02  5119   0.149E-01    0.713E-01
RMM:   5    -0.413172464429E+03    0.29841E-01   -0.14234E-02  4781   0.119E-01    0.500E-02
RMM:   6    -0.413172650702E+03   -0.18627E-03   -0.26170E-03  5775   0.493E-02    0.339E-02
RMM:   7    -0.413172647004E+03    0.36981E-05   -0.41733E-04  5620   0.198E-02    0.218E-02
RMM:   8    -0.413172637291E+03    0.97129E-05   -0.68877E-05  5064   0.919E-03    0.109E-02
RMM:   9    -0.413172633864E+03    0.34272E-05   -0.13132E-05  3945   0.417E-03    0.788E-03
RMM:  10    -0.413172633421E+03    0.44239E-06   -0.20969E-06  2562   0.236E-03
   21 T=    62. E= -.41286685E+03 F= -.41317263E+03 E0= -.41315065E+03  EK= 0.30578E+00 SP= 0.00E+00 SK= 0.00E+00
       N       E                     dE             d eps       ncg     rms          rms(c)
RMM:   1    -0.413176007999E+03   -0.33741E-02   -0.83665E+00  4301   0.671E-01    0.910E-01
RMM:   2    -0.413178579377E+03   -0.25714E-02   -0.10370E-01  4352   0.864E-02    0.662E-01
RMM:   3    -0.413182300436E+03   -0.37211E-02   -0.28487E-02  5128   0.968E-02    0.392E-01
RMM:   4    -0.413193723326E+03   -0.11423E-01   -0.38568E-02  5052   0.169E-01    0.584E-01
RMM:   5    -0.413173771767E+03    0.19952E-01   -0.70455E-03  4629   0.960E-02    0.564E-02
RMM:   6    -0.413173782685E+03   -0.10918E-04   -0.15443E-03  5396   0.387E-02    0.328E-02
RMM:   7    -0.413173779535E+03    0.31505E-05   -0.30303E-04  5784   0.164E-02    0.190E-02
RMM:   8    -0.413173772604E+03    0.69309E-05   -0.52248E-05  5040   0.858E-03    0.750E-03
RMM:   9    -0.413173767779E+03    0.48244E-05   -0.61576E-06  3107   0.329E-03    0.394E-03
RMM:  10    -0.413173765450E+03    0.23299E-05   -0.14604E-06  2510   0.203E-03    0.243E-03
RMM:  11    -0.413173762215E+03    0.32347E-05   -0.96790E-07  2475   0.160E-03    0.126E-03
RMM:  12    -0.413173758577E+03    0.36377E-05   -0.63821E-07  2432   0.129E-03    0.509E-04
RMM:  13    -0.413173756385E+03    0.21922E-05   -0.31645E-07  2011   0.945E-04    0.307E-04
RMM:  14    -0.413173754176E+03    0.22094E-05   -0.18045E-07  1495   0.746E-04    0.190E-04
RMM:  15    -0.413173750180E+03    0.39955E-05   -0.16978E-07  1417   0.720E-04    0.192E-04
RMM:  16    -0.413173747353E+03    0.28268E-05   -0.10309E-07  1107   0.639E-04    0.152E-04
RMM:  17    -0.413173744474E+03    0.28796E-05   -0.90875E-08  1155   0.629E-04    0.749E-05
RMM:  18    -0.413173742277E+03    0.21970E-05   -0.59511E-08   998   0.587E-04    0.365E-05
RMM:  19    -0.413173741093E+03    0.11833E-05   -0.32493E-08   833   0.554E-04    0.282E-05
RMM:  20    -0.413173740670E+03    0.42365E-06   -0.15496E-08   690   0.535E-04
   22 T=    62. E= -.41286691E+03 F= -.41317374E+03 E0= -.41315180E+03  EK= 0.30683E+00 SP= 0.00E+00 SK= 0.00E+00
       N       E                     dE             d eps       ncg     rms          rms(c)
RMM:   1    -0.413179537296E+03   -0.57962E-02   -0.83751E+00  4294   0.711E-01    0.909E-01
RMM:   2    -0.413179210654E+03    0.32664E-03   -0.11102E-01  4288   0.916E-02    0.657E-01
RMM:   3    -0.413175404393E+03    0.38063E-02   -0.21178E-02  4944   0.559E-02    0.140E-01
RMM:   4    -0.413209777723E+03   -0.34373E-01   -0.38454E-02  5119   0.163E-01    0.775E-01
RMM:   5    -0.413174283448E+03    0.35494E-01   -0.16914E-02  4782   0.129E-01    0.536E-02
RMM:   6    -0.413174485561E+03   -0.20211E-03   -0.30219E-03  5748   0.536E-02    0.376E-02
RMM:   7    -0.413174469899E+03    0.15662E-04   -0.50638E-04  5627   0.213E-02    0.239E-02
RMM:   8    -0.413174457161E+03    0.12738E-04   -0.75515E-05  5206   0.980E-03    0.114E-02
RMM:   9    -0.413174450548E+03    0.66122E-05   -0.14658E-05  4063   0.436E-03    0.796E-03
RMM:  10    -0.413174445894E+03    0.46544E-05   -0.23699E-06  2599   0.245E-03    0.481E-03
RMM:  11    -0.413174442958E+03    0.29356E-05   -0.11408E-06  2504   0.174E-03    0.285E-03
RMM:  12    -0.413174437030E+03    0.59284E-05   -0.18737E-06  2571   0.210E-03    0.124E-03
RMM:  13    -0.413174433116E+03    0.39136E-05   -0.74002E-07  2416   0.146E-03    0.106E-03
RMM:  14    -0.413174433336E+03   -0.21966E-06   -0.28994E-07  2063   0.947E-04
   23 T=    63. E= -.41286671E+03 F= -.41317443E+03 E0= -.41315254E+03  EK= 0.30772E+00 SP= 0.00E+00 SK= 0.00E+00
       N       E                     dE             d eps       ncg     rms          rms(c)
RMM:   1    -0.413177866036E+03   -0.34329E-02   -0.83836E+00  4297   0.676E-01    0.895E-01
RMM:   2    -0.413181169161E+03   -0.33031E-02   -0.10448E-01  4287   0.894E-02    0.659E-01
RMM:   3    -0.413176719944E+03    0.44492E-02   -0.23338E-02  4829   0.572E-02    0.124E-01
RMM:   4    -0.413202374282E+03   -0.25654E-01   -0.27663E-02  5120   0.139E-01    0.673E-01
RMM:   5    -0.413175881970E+03    0.26492E-01   -0.12772E-02  4789   0.112E-01    0.484E-02
RMM:   6    -0.413176047354E+03   -0.16538E-03   -0.23419E-03  5810   0.460E-02    0.319E-02
RMM:   7    -0.413176045648E+03    0.17069E-05   -0.33762E-04  5644   0.183E-02    0.193E-02
RMM:   8    -0.413176035822E+03    0.98258E-05   -0.65564E-05  4991   0.876E-03    0.109E-02
RMM:   9    -0.413176031135E+03    0.46869E-05   -0.12553E-05  3954   0.413E-03    0.794E-03
RMM:  10    -0.413176029598E+03    0.15372E-05   -0.19862E-06  2556   0.234E-03    0.471E-03
RMM:  11    -0.413176028235E+03    0.13626E-05   -0.15216E-06  2525   0.196E-03    0.247E-03
RMM:  12    -0.413176026082E+03    0.21530E-05   -0.15690E-06  2534   0.193E-03    0.106E-03
RMM:  13    -0.413176024808E+03    0.12741E-05   -0.49616E-07  2318   0.125E-03    0.674E-04
RMM:  14    -0.413176024489E+03    0.31914E-06   -0.23158E-07  1858   0.845E-04
   24 T=    63. E= -.41286710E+03 F= -.41317602E+03 E0= -.41315418E+03  EK= 0.30893E+00 SP= 0.00E+00 SK= 0.00E+00
       N       E                     dE             d eps       ncg     rms          rms(c)
RMM:   1    -0.413179129153E+03   -0.31043E-02   -0.84542E+00  4294   0.682E-01    0.909E-01
RMM:   2    -0.413182011969E+03   -0.28828E-02   -0.10528E-01  4288   0.906E-02    0.665E-01
RMM:   3    -0.413177794455E+03    0.42175E-02   -0.23254E-02  4858   0.584E-02    0.127E-01
RMM:   4    -0.413205693382E+03   -0.27899E-01   -0.30293E-02  5122   0.146E-01    0.701E-01
RMM:   5    -0.413176897224E+03    0.28796E-01   -0.13761E-02  4791   0.117E-01    0.500E-02
RMM:   6    -0.413177073360E+03   -0.17614E-03   -0.25603E-03  5797   0.483E-02    0.348E-02
RMM:   7    -0.413177060989E+03    0.12372E-04   -0.42324E-04  5588   0.202E-02    0.221E-02
RMM:   8    -0.413177047680E+03    0.13309E-04   -0.65539E-05  5063   0.930E-03    0.109E-02
RMM:   9    -0.413177042732E+03    0.49477E-05   -0.13004E-05  3890   0.414E-03    0.791E-03
RMM:  10    -0.413177040132E+03    0.25996E-05   -0.21275E-06  2569   0.241E-03    0.471E-03
RMM:  11    -0.413177038032E+03    0.21006E-05   -0.13087E-06  2518   0.185E-03    0.257E-03
RMM:  12    -0.413177034491E+03    0.35405E-05   -0.16527E-06  2537   0.200E-03    0.110E-03
RMM:  13    -0.413177032161E+03    0.23307E-05   -0.56443E-07  2364   0.132E-03    0.808E-04
RMM:  14    -0.413177032066E+03    0.94307E-07   -0.25346E-07  1937   0.875E-04
   25 T=    63. E= -.41286700E+03 F= -.41317703E+03 E0= -.41315523E+03  EK= 0.31003E+00 SP= 0.00E+00 SK= 0.00E+00
       N       E                     dE             d eps       ncg     rms          rms(c)
RMM:   1    -0.413187294438E+03   -0.10262E-01   -0.85181E+00  4295   0.746E-01    0.919E-01
RMM:   2    -0.413182974151E+03    0.43203E-02   -0.11150E-01  4287   0.968E-02    0.661E-01
RMM:   3    -0.413178876343E+03    0.40978E-02   -0.21080E-02  4826   0.544E-02    0.109E-01
RMM:   4    -0.413205069493E+03   -0.26193E-01   -0.27577E-02  5123   0.139E-01    0.677E-01
RMM:   5    -0.413178250091E+03    0.26819E-01   -0.13091E-02  4793   0.112E-01    0.496E-02
RMM:   6    -0.413178393114E+03   -0.14302E-03   -0.23755E-03  5821   0.462E-02    0.340E-02
RMM:   7    -0.413178381056E+03    0.12057E-04   -0.35774E-04  5600   0.192E-02    0.203E-02
RMM:   8    -0.413178367869E+03    0.13187E-04   -0.66227E-05  4997   0.901E-03    0.112E-02
RMM:   9    -0.413178360736E+03    0.71327E-05   -0.12936E-05  3959   0.418E-03    0.813E-03
RMM:  10    -0.413178355332E+03    0.54041E-05   -0.21006E-06  2569   0.240E-03    0.479E-03
RMM:  11    -0.413178350449E+03    0.48836E-05   -0.14856E-06  2531   0.194E-03    0.257E-03
RMM:  12    -0.413178343209E+03    0.72393E-05   -0.16635E-06  2547   0.200E-03    0.110E-03
RMM:  13    -0.413178339422E+03    0.37872E-05   -0.54078E-07  2333   0.131E-03    0.721E-04
RMM:  14    -0.413178339179E+03    0.24312E-06   -0.25390E-07  1908   0.873E-04
   26 T=    63. E= -.41286700E+03 F= -.41317834E+03 E0= -.41315659E+03  EK= 0.31134E+00 SP= 0.00E+00 SK= 0.00E+00
       N       E                     dE             d eps       ncg     rms          rms(c)
RMM:   1    -0.413182392317E+03   -0.40529E-02   -0.84597E+00  4290   0.708E-01    0.900E-01
RMM:   2    -0.413184929220E+03   -0.25369E-02   -0.10600E-01  4287   0.945E-02    0.660E-01
RMM:   3    -0.413180811953E+03    0.41173E-02   -0.22732E-02  4828   0.564E-02    0.115E-01
RMM:   4    -0.413205402710E+03   -0.24591E-01   -0.26122E-02  5126   0.135E-01    0.659E-01
RMM:   5    -0.413180096993E+03    0.25306E-01   -0.12325E-02  4795   0.109E-01    0.483E-02
RMM:   6    -0.413180238791E+03   -0.14180E-03   -0.22446E-03  5825   0.446E-02    0.327E-02
RMM:   7    -0.413180234434E+03    0.43565E-05   -0.34918E-04  5591   0.186E-02    0.200E-02
RMM:   8    -0.413180223933E+03    0.10501E-04   -0.62156E-05  4975   0.876E-03    0.107E-02
RMM:   9    -0.413180218640E+03    0.52928E-05   -0.11853E-05  3836   0.403E-03    0.778E-03
RMM:  10    -0.413180215684E+03    0.29565E-05   -0.20167E-06  2562   0.236E-03    0.453E-03
RMM:  11    -0.413180213043E+03    0.26409E-05   -0.14408E-06  2526   0.192E-03    0.238E-03
RMM:  12    -0.413180209125E+03    0.39178E-05   -0.14514E-06  2514   0.189E-03    0.103E-03
RMM:  13    -0.413180206927E+03    0.21986E-05   -0.50444E-07  2313   0.125E-03    0.657E-04
RMM:  14    -0.413180206559E+03    0.36746E-06   -0.23612E-07  1847   0.848E-04
   27 T=    64. E= -.41286726E+03 F= -.41318021E+03 E0= -.41315851E+03  EK= 0.31294E+00 SP= 0.00E+00 SK= 0.00E+00
       N       E                     dE             d eps       ncg     rms          rms(c)
RMM:   1    -0.413183263578E+03   -0.30567E-02   -0.85677E+00  4293   0.704E-01    0.910E-01
RMM:   2    -0.413186176200E+03   -0.29126E-02   -0.10759E-01  4283   0.964E-02    0.670E-01
RMM:   3    -0.413181833095E+03    0.43431E-02   -0.23676E-02  4789   0.573E-02    0.114E-01
RMM:   4    -0.413204852791E+03   -0.23020E-01   -0.24327E-02  5135   0.131E-01    0.638E-01
RMM:   5    -0.413181133234E+03    0.23720E-01   -0.11568E-02  4797   0.105E-01    0.475E-02
RMM:   6    -0.413181265704E+03   -0.13247E-03   -0.21184E-03  5839   0.432E-02    0.319E-02
RMM:   7    -0.413181261429E+03    0.42753E-05   -0.31767E-04  5609   0.180E-02    0.191E-02
RMM:   8    -0.413181252968E+03    0.84609E-05   -0.58292E-05  4955   0.844E-03    0.106E-02
RMM:   9    -0.413181248336E+03    0.46326E-05   -0.11333E-05  3791   0.396E-03    0.764E-03
RMM:  10    -0.413181246442E+03    0.18937E-05   -0.19518E-06  2549   0.235E-03    0.440E-03
RMM:  11    -0.413181244662E+03    0.17801E-05   -0.14518E-06  2526   0.193E-03    0.229E-03
RMM:  12    -0.413181241908E+03    0.27541E-05   -0.14370E-06  2513   0.187E-03    0.102E-03
RMM:  13    -0.413181240291E+03    0.16161E-05   -0.48859E-07  2319   0.124E-03    0.648E-04
RMM:  14    -0.413181239829E+03    0.46266E-06   -0.22570E-07  1820   0.837E-04
   28 T=    64. E= -.41286687E+03 F= -.41318124E+03 E0= -.41315959E+03  EK= 0.31437E+00 SP= 0.00E+00 SK= 0.00E+00
       N       E                     dE             d eps       ncg     rms          rms(c)
RMM:   1    -0.413190683156E+03   -0.94429E-02   -0.86306E+00  4294   0.781E-01    0.926E-01
RMM:   2    -0.413188133593E+03    0.25496E-02   -0.11445E-01  4282   0.103E-01    0.668E-01
RMM:   3    -0.413183553973E+03    0.45796E-02   -0.21229E-02  4647   0.525E-02    0.843E-02
RMM:   4    -0.413198134894E+03   -0.14581E-01   -0.14878E-02  5140   0.102E-01    0.509E-01
RMM:   5    -0.413183268813E+03    0.14866E-01   -0.74467E-03  4823   0.834E-02    0.452E-02
RMM:   6    -0.413183332072E+03   -0.63259E-04   -0.13962E-03  5846   0.344E-02    0.285E-02
RMM:   7    -0.413183324079E+03    0.79926E-05   -0.15994E-04  5449   0.140E-02    0.132E-02
RMM:   8    -0.413183316866E+03    0.72135E-05   -0.21628E-05  4192   0.504E-03    0.810E-03
RMM:   9    -0.413183311095E+03    0.57708E-05   -0.41865E-06  2811   0.274E-03    0.437E-03
RMM:  10    -0.413183308365E+03    0.27301E-05   -0.11648E-06  2491   0.177E-03    0.300E-03
RMM:  11    -0.413183301241E+03    0.71237E-05   -0.16997E-06  2546   0.209E-03    0.184E-03
RMM:  12    -0.413183297915E+03    0.33260E-05   -0.70858E-07  2399   0.145E-03    0.101E-03
RMM:  13    -0.413183295929E+03    0.19864E-05   -0.30665E-07  2114   0.975E-04    0.520E-04
RMM:  14    -0.413183293743E+03    0.21862E-05   -0.16078E-07  1569   0.740E-04    0.299E-04
RMM:  15    -0.413183288663E+03    0.50793E-05   -0.19069E-07  1888   0.788E-04    0.373E-04
RMM:  16    -0.413183285980E+03    0.26831E-05   -0.75007E-08  1104   0.615E-04    0.238E-04
RMM:  17    -0.413183281756E+03    0.42247E-05   -0.63719E-08   992   0.598E-04    0.153E-04
RMM:  18    -0.413183278573E+03    0.31828E-05   -0.54870E-08  1023   0.598E-04    0.819E-05
RMM:  19    -0.413183277310E+03    0.12625E-05   -0.26187E-08   841   0.560E-04    0.983E-05
RMM:  20    -0.413183277096E+03    0.21485E-06   -0.10985E-08   680   0.531E-04
   29 T=    64. E= -.41286711E+03 F= -.41318328E+03 E0= -.41316168E+03  EK= 0.31617E+00 SP= 0.00E+00 SK= 0.00E+00
       N       E                     dE             d eps       ncg     rms          rms(c)
RMM:   1    -0.413187695148E+03   -0.44178E-02   -0.85708E+00  4289   0.740E-01    0.909E-01
RMM:   2    -0.413190305354E+03   -0.26102E-02   -0.10877E-01  4275   0.105E-01    0.664E-01
RMM:   3    -0.413185449381E+03    0.48560E-02   -0.22322E-02  4638   0.586E-02    0.904E-02
RMM:   4    -0.413201256901E+03   -0.15808E-01   -0.16174E-02  5141   0.107E-01    0.531E-01
RMM:   5    -0.413185061237E+03    0.16196E-01   -0.80730E-03  4809   0.869E-02    0.451E-02
RMM:   6    -0.413185135623E+03   -0.74387E-04   -0.14996E-03  5848   0.357E-02    0.286E-02
RMM:   7    -0.413185133065E+03    0.25578E-05   -0.18229E-04  5505   0.143E-02    0.142E-02
RMM:   8    -0.413185124689E+03    0.83763E-05   -0.25774E-05  4520   0.554E-03    0.841E-03
RMM:   9    -0.413185123926E+03    0.76331E-06   -0.77912E-06  3438   0.319E-03
   30 T=    65. E= -.41286711E+03 F= -.41318512E+03 E0= -.41316358E+03  EK= 0.31801E+00 SP= 0.00E+00 SK= 0.00E+00
       N       E                     dE             d eps       ncg     rms          rms(c)
RMM:   1    -0.413192645448E+03   -0.75208E-02   -0.87344E+00  4300   0.769E-01    0.911E-01
RMM:   2    -0.413192454003E+03    0.19145E-03   -0.11988E-01  4312   0.113E-01    0.677E-01
RMM:   3    -0.413192670755E+03   -0.21675E-03   -0.26264E-02  5067   0.962E-02    0.325E-01
RMM:   4    -0.413217561591E+03   -0.24891E-01   -0.46034E-02  5065   0.183E-01    0.721E-01
RMM:   5    -0.413186741387E+03    0.30820E-01   -0.12216E-02  4697   0.118E-01    0.585E-02
RMM:   6    -0.413186826161E+03   -0.84774E-04   -0.24212E-03  5655   0.478E-02    0.341E-02
RMM:   7    -0.413186837108E+03   -0.10947E-04   -0.41886E-04  5793   0.187E-02    0.220E-02
RMM:   8    -0.413186833334E+03    0.37739E-05   -0.76902E-05  5093   0.100E-02    0.946E-03
RMM:   9    -0.413186828439E+03    0.48944E-05   -0.11034E-05  3669   0.420E-03    0.474E-03
RMM:  10    -0.413186826608E+03    0.18315E-05   -0.22400E-06  2601   0.229E-03    0.305E-03
RMM:  11    -0.413186824097E+03    0.25107E-05   -0.12036E-06  2500   0.177E-03    0.157E-03
RMM:  12    -0.413186820681E+03    0.34162E-05   -0.86511E-07  2467   0.146E-03    0.566E-04
RMM:  13    -0.413186818878E+03    0.18029E-05   -0.41958E-07  2202   0.107E-03    0.374E-04
RMM:  14    -0.413186817408E+03    0.14697E-05   -0.22633E-07  1704   0.814E-04    0.274E-04
RMM:  15    -0.413186812635E+03    0.47737E-05   -0.22529E-07  1622   0.789E-04    0.269E-04
RMM:  16    -0.413186810390E+03    0.22443E-05   -0.10274E-07  1082   0.642E-04    0.183E-04
RMM:  17    -0.413186807284E+03    0.31066E-05   -0.97281E-08  1180   0.645E-04    0.101E-04
RMM:  18    -0.413186805300E+03    0.19835E-05   -0.59283E-08   995   0.599E-04    0.444E-05
RMM:  19    -0.413186803018E+03    0.22824E-05   -0.48916E-08   995   0.593E-04    0.460E-05
RMM:  20    -0.413186802677E+03    0.34111E-06   -0.22140E-08   754   0.551E-04
   31 T=    65. E= -.41286691E+03 F= -.41318680E+03 E0= -.41316530E+03  EK= 0.31989E+00 SP= 0.00E+00 SK= 0.00E+00
       N       E                     dE             d eps       ncg     rms          rms(c)
RMM:   1    -0.413194652768E+03   -0.78498E-02   -0.87557E+00  4294   0.795E-01    0.933E-01
RMM:   2    -0.413194621286E+03    0.31482E-04   -0.11547E-01  4277   0.115E-01    0.675E-01
RMM:   3    -0.413189525102E+03    0.50962E-02   -0.21919E-02  4468   0.636E-02    0.731E-02
RMM:   4    -0.413197267809E+03   -0.77427E-02   -0.78306E-03  5143   0.749E-02    0.374E-01
RMM:   5    -0.413189359116E+03    0.79087E-02   -0.40464E-03  4827   0.614E-02    0.432E-02
RMM:   6    -0.413189409542E+03   -0.50426E-04   -0.91875E-04  5754   0.285E-02    0.300E-02
RMM:   7    -0.413189398650E+03    0.10893E-04   -0.26140E-04  5288   0.168E-02    0.186E-02
RMM:   8    -0.413189383523E+03    0.15127E-04   -0.25780E-05  4586   0.639E-03    0.810E-03
RMM:   9    -0.413189380938E+03    0.25844E-05   -0.39590E-06  2807   0.256E-03    0.537E-03
RMM:  10    -0.413189376461E+03    0.44772E-05   -0.15799E-06  2524   0.202E-03    0.285E-03
RMM:  11    -0.413189372037E+03    0.44241E-05   -0.10438E-06  2485   0.165E-03    0.136E-03
RMM:  12    -0.413189368103E+03    0.39340E-05   -0.55112E-07  2306   0.124E-03    0.680E-04
RMM:  13    -0.413189365622E+03    0.24806E-05   -0.28924E-07  1935   0.904E-04    0.318E-04
RMM:  14    -0.413189362897E+03    0.27252E-05   -0.15215E-07  1411   0.718E-04    0.201E-04
RMM:  15    -0.413189359122E+03    0.37754E-05   -0.96073E-08  1162   0.656E-04    0.113E-04
RMM:  16    -0.413189355950E+03    0.31714E-05   -0.66608E-08  1029   0.625E-04    0.775E-05
RMM:  17    -0.413189353078E+03    0.28723E-05   -0.51811E-08  1004   0.607E-04    0.513E-05
RMM:  18    -0.413189349631E+03    0.34470E-05   -0.54171E-08  1118   0.609E-04    0.366E-05
RMM:  19    -0.413189348810E+03    0.82070E-06   -0.20103E-08   753   0.544E-04
   32 T=    66. E= -.41286723E+03 F= -.41318935E+03 E0= -.41316790E+03  EK= 0.32212E+00 SP= 0.00E+00 SK= 0.00E+00
       N       E                     dE             d eps       ncg     rms          rms(c)
RMM:   1    -0.413201096546E+03   -0.11747E-01   -0.87919E+00  4299   0.835E-01    0.921E-01
RMM:   2    -0.413196210013E+03    0.48865E-02   -0.12087E-01  4280   0.119E-01    0.671E-01
RMM:   3    -0.413191417950E+03    0.47921E-02   -0.21165E-02  4446   0.667E-02    0.722E-02
RMM:   4    -0.413198682073E+03   -0.72641E-02   -0.73918E-03  5147   0.724E-02    0.362E-01
RMM:   5    -0.413191288316E+03    0.73938E-02   -0.37971E-03  4831   0.595E-02    0.431E-02
RMM:   6    -0.413191337130E+03   -0.48814E-04   -0.91598E-04  5753   0.278E-02    0.301E-02
RMM:   7    -0.413191321542E+03    0.15589E-04   -0.26191E-04  5281   0.166E-02    0.190E-02
RMM:   8    -0.413191306541E+03    0.15001E-04   -0.23675E-05  4484   0.622E-03    0.813E-03
RMM:   9    -0.413191304242E+03    0.22987E-05   -0.37991E-06  2770   0.253E-03    0.546E-03
RMM:  10    -0.413191300462E+03    0.37808E-05   -0.15809E-06  2514   0.202E-03    0.289E-03
RMM:  11    -0.413191296666E+03    0.37961E-05   -0.10434E-06  2469   0.166E-03    0.140E-03
RMM:  12    -0.413191293095E+03    0.35706E-05   -0.56279E-07  2321   0.125E-03    0.672E-04
RMM:  13    -0.413191290890E+03    0.22050E-05   -0.29684E-07  1953   0.917E-04    0.323E-04
RMM:  14    -0.413191288238E+03    0.26520E-05   -0.15660E-07  1440   0.728E-04    0.211E-04
RMM:  15    -0.413191284593E+03    0.36448E-05   -0.96725E-08  1159   0.660E-04    0.119E-04
RMM:  16    -0.413191281592E+03    0.30011E-05   -0.64245E-08  1011   0.623E-04    0.781E-05
RMM:  17    -0.413191278491E+03    0.31013E-05   -0.55215E-08  1041   0.611E-04    0.515E-05
RMM:  18    -0.413191275320E+03    0.31707E-05   -0.49466E-08  1056   0.603E-04    0.403E-05
RMM:  19    -0.413191274551E+03    0.76905E-06   -0.19868E-08   743   0.544E-04
   33 T=    66. E= -.41286703E+03 F= -.41319127E+03 E0= -.41316987E+03  EK= 0.32425E+00 SP= 0.00E+00 SK= 0.00E+00
       N       E                     dE             d eps       ncg     rms          rms(c)
RMM:   1    -0.413195946060E+03   -0.46707E-02   -0.88420E+00  4304   0.780E-01    0.919E-01
RMM:   2    -0.413198852744E+03   -0.29067E-02   -0.11472E-01  4277   0.119E-01    0.680E-01
RMM:   3    -0.413193882045E+03    0.49707E-02   -0.24034E-02  4423   0.730E-02    0.780E-02
RMM:   4    -0.413199624147E+03   -0.57421E-02   -0.58820E-03  5150   0.656E-02    0.326E-01
RMM:   5    -0.413193670615E+03    0.59535E-02   -0.30177E-03  4823   0.533E-02    0.418E-02
RMM:   6    -0.413193724478E+03   -0.53863E-04   -0.82569E-04  5718   0.263E-02    0.299E-02
RMM:   7    -0.413193710844E+03    0.13634E-04   -0.25304E-04  5232   0.164E-02    0.190E-02
RMM:   8    -0.413193698111E+03    0.12732E-04   -0.22804E-05  4364   0.594E-03    0.782E-03
RMM:   9    -0.413193697034E+03    0.10771E-05   -0.32124E-06  2703   0.241E-03    0.511E-03
RMM:  10    -0.413193695648E+03    0.13861E-05   -0.15028E-06  2504   0.197E-03    0.264E-03
RMM:  11    -0.413193694390E+03    0.12587E-05   -0.92602E-07  2452   0.156E-03    0.128E-03
RMM:  12    -0.413193692766E+03    0.16231E-05   -0.52403E-07  2269   0.119E-03    0.582E-04
RMM:  13    -0.413193691465E+03    0.13010E-05   -0.27374E-07  1903   0.883E-04    0.306E-04
RMM:  14    -0.413193689682E+03    0.17834E-05   -0.14282E-07  1352   0.707E-04    0.216E-04
RMM:  15    -0.413193687055E+03    0.26269E-05   -0.96144E-08  1125   0.651E-04    0.108E-04
RMM:  16    -0.413193685104E+03    0.19507E-05   -0.60517E-08   966   0.612E-04    0.723E-05
RMM:  17    -0.413193682291E+03    0.28136E-05   -0.57900E-08  1031   0.612E-04    0.498E-05
RMM:  18    -0.413193680351E+03    0.19394E-05   -0.38647E-08   928   0.578E-04    0.401E-05
RMM:  19    -0.413193679597E+03    0.75440E-06   -0.15483E-08   694   0.542E-04
   34 T=    66. E= -.41286709E+03 F= -.41319368E+03 E0= -.41317233E+03  EK= 0.32659E+00 SP= 0.00E+00 SK= 0.00E+00
       N       E                     dE             d eps       ncg     rms          rms(c)
RMM:   1    -0.413204281731E+03   -0.10601E-01   -0.89513E+00  4302   0.840E-01    0.938E-01
RMM:   2    -0.413201079468E+03    0.32023E-02   -0.12003E-01  4271   0.126E-01    0.683E-01
RMM:   3    -0.413196413268E+03    0.46662E-02   -0.22373E-02  4283   0.748E-02    0.609E-02
RMM:   4    -0.413196514621E+03   -0.10135E-03   -0.38956E-04  5086   0.158E-02    0.626E-02
RMM:   5    -0.413196427657E+03    0.86964E-04   -0.20693E-04  4888   0.138E-02    0.510E-02
RMM:   6    -0.413196423753E+03    0.39049E-05   -0.47214E-04  5247   0.210E-02    0.331E-02
RMM:   7    -0.413196368201E+03    0.55552E-04   -0.19122E-04  4781   0.153E-02    0.170E-02
RMM:   8    -0.413196363713E+03    0.44880E-05   -0.31853E-05  4689   0.562E-03    0.622E-03
RMM:   9    -0.413196362521E+03    0.11921E-05   -0.51331E-06  2512   0.222E-03    0.188E-03
RMM:  10    -0.413196356964E+03    0.55567E-05   -0.10120E-06  2376   0.157E-03    0.903E-04
RMM:  11    -0.413196354164E+03    0.28001E-05   -0.25288E-07  1849   0.864E-04    0.540E-04
RMM:  12    -0.413196350421E+03    0.37423E-05   -0.15324E-07  1329   0.720E-04    0.418E-04
RMM:  13    -0.413196346580E+03    0.38411E-05   -0.12991E-07  1306   0.687E-04    0.263E-04
RMM:  14    -0.413196340420E+03    0.61603E-05   -0.13946E-07  1231   0.684E-04    0.217E-04
RMM:  15    -0.413196338468E+03    0.19519E-05   -0.37792E-08   708   0.573E-04    0.177E-04
RMM:  16    -0.413196334300E+03    0.41680E-05   -0.47944E-08   923   0.605E-04    0.832E-05
RMM:  17    -0.413196332951E+03    0.13492E-05   -0.18917E-08   647   0.537E-04    0.570E-05
RMM:  18    -0.413196332152E+03    0.79835E-06   -0.11682E-08   563   0.525E-04
   35 T=    67. E= -.41286724E+03 F= -.41319633E+03 E0= -.41317502E+03  EK= 0.32909E+00 SP= 0.00E+00 SK= 0.00E+00
       N       E                     dE             d eps       ncg     rms          rms(c)
RMM:   1    -0.413215109377E+03   -0.18776E-01   -0.90441E+00  4303   0.919E-01    0.936E-01
RMM:   2    -0.413203086631E+03    0.12023E-01   -0.13288E-01  4266   0.136E-01    0.680E-01
RMM:   3    -0.413198522039E+03    0.45646E-02   -0.20261E-02  4357   0.729E-02    0.746E-02
RMM:   4    -0.413201890138E+03   -0.33681E-02   -0.36296E-03  5180   0.511E-02    0.249E-01
RMM:   5    -0.413198522022E+03    0.33681E-02   -0.18155E-03  4833   0.417E-02    0.432E-02
RMM:   6    -0.413198560818E+03   -0.38795E-04   -0.65950E-04  5573   0.255E-02    0.333E-02
RMM:   7    -0.413198525446E+03    0.35372E-04   -0.25941E-04  5051   0.172E-02    0.191E-02
RMM:   8    -0.413198515604E+03    0.98420E-05   -0.30969E-05  4821   0.620E-03    0.772E-03
RMM:   9    -0.413198513600E+03    0.20031E-05   -0.39755E-06  2706   0.243E-03    0.418E-03
RMM:  10    -0.413198509014E+03    0.45859E-05   -0.11734E-06  2490   0.182E-03    0.231E-03
RMM:  11    -0.413198504447E+03    0.45680E-05   -0.69921E-07  2412   0.133E-03    0.989E-04
RMM:  12    -0.413198500107E+03    0.43397E-05   -0.37766E-07  2127   0.102E-03    0.423E-04
RMM:  13    -0.413198496202E+03    0.39044E-05   -0.20701E-07  1628   0.801E-04    0.264E-04
RMM:  14    -0.413198492713E+03    0.34890E-05   -0.10211E-07  1129   0.666E-04    0.198E-04
RMM:  15    -0.413198487731E+03    0.49828E-05   -0.75952E-08  1012   0.638E-04    0.929E-05
RMM:  16    -0.413198483991E+03    0.37400E-05   -0.62025E-08  1062   0.624E-04    0.828E-05
RMM:  17    -0.413198481261E+03    0.27298E-05   -0.38898E-08   927   0.587E-04    0.461E-05
RMM:  18    -0.413198478174E+03    0.30864E-05   -0.36686E-08   937   0.579E-04    0.331E-05
RMM:  19    -0.413198477732E+03    0.44259E-06   -0.11241E-08   598   0.521E-04
   36 T=    67. E= -.41286697E+03 F= -.41319848E+03 E0= -.41317721E+03  EK= 0.33151E+00 SP= 0.00E+00 SK= 0.00E+00
       N       E                     dE             d eps       ncg     rms          rms(c)
RMM:   1    -0.413204108415E+03   -0.56302E-02   -0.89987E+00  4311   0.848E-01    0.927E-01
RMM:   2    -0.413206675335E+03   -0.25669E-02   -0.11871E-01  4265   0.127E-01    0.685E-01
RMM:   3    -0.413201567419E+03    0.51079E-02   -0.23747E-02  4461   0.732E-02    0.767E-02
RMM:   4    -0.413209218672E+03   -0.76513E-02   -0.78078E-03  5160   0.752E-02    0.375E-01
RMM:   5    -0.413201363936E+03    0.78547E-02   -0.40041E-03  4821   0.618E-02    0.434E-02
RMM:   6    -0.413201394086E+03   -0.30151E-04   -0.96857E-04  5689   0.300E-02    0.320E-02
RMM:   7    -0.413201382591E+03    0.11496E-04   -0.30226E-04  5239   0.178E-02    0.198E-02
RMM:   8    -0.413201369436E+03    0.13155E-04   -0.33488E-05  4931   0.683E-03    0.895E-03
RMM:   9    -0.413201368113E+03    0.13224E-05   -0.49451E-06  2870   0.275E-03    0.527E-03
RMM:  10    -0.413201366409E+03    0.17047E-05   -0.16266E-06  2522   0.211E-03    0.279E-03
RMM:  11    -0.413201364341E+03    0.20680E-05   -0.10059E-06  2472   0.163E-03    0.137E-03
RMM:  12    -0.413201362063E+03    0.22776E-05   -0.59540E-07  2366   0.126E-03    0.679E-04
RMM:  13    -0.413201360253E+03    0.18098E-05   -0.30925E-07  1952   0.921E-04    0.330E-04
RMM:  14    -0.413201358296E+03    0.19571E-05   -0.15910E-07  1427   0.726E-04    0.217E-04
RMM:  15    -0.413201355362E+03    0.29344E-05   -0.97613E-08  1114   0.656E-04    0.123E-04
RMM:  16    -0.413201352707E+03    0.26546E-05   -0.70148E-08   995   0.628E-04    0.749E-05
RMM:  17    -0.413201350736E+03    0.19711E-05   -0.43035E-08   910   0.601E-04    0.490E-05
RMM:  18    -0.413201347396E+03    0.33403E-05   -0.53137E-08  1095   0.613E-04    0.310E-05
RMM:  19    -0.413201346516E+03    0.87931E-06   -0.20974E-08   763   0.547E-04
   37 T=    68. E= -.41286713E+03 F= -.41320135E+03 E0= -.41318013E+03  EK= 0.33421E+00 SP= 0.00E+00 SK= 0.00E+00
       N       E                     dE             d eps       ncg     rms          rms(c)
RMM:   1    -0.413210453379E+03   -0.91060E-02   -0.91294E+00  4311   0.905E-01    0.944E-01
RMM:   2    -0.413209454281E+03    0.99910E-03   -0.12096E-01  4261   0.124E-01    0.691E-01
RMM:   3    -0.413204443926E+03    0.50104E-02   -0.23470E-02  4691   0.697E-02    0.104E-01
RMM:   4    -0.413228612565E+03   -0.24169E-01   -0.24971E-02  5132   0.133E-01    0.654E-01
RMM:   5    -0.413203927358E+03    0.24685E-01   -0.12314E-02  4807   0.108E-01    0.496E-02
RMM:   6    -0.413203971229E+03   -0.43871E-04   -0.21380E-03  5823   0.440E-02    0.328E-02
RMM:   7    -0.413203984962E+03   -0.13733E-04   -0.34800E-04  5564   0.183E-02    0.199E-02
RMM:   8    -0.413203970797E+03    0.14165E-04   -0.59387E-05  5063   0.841E-03    0.105E-02
RMM:   9    -0.413203969338E+03    0.14595E-05   -0.12997E-05  4008   0.432E-03    0.712E-03
RMM:  10    -0.413203965747E+03    0.35903E-05   -0.22279E-06  2617   0.247E-03    0.390E-03
RMM:  11    -0.413203963360E+03    0.23878E-05   -0.10259E-06  2490   0.170E-03    0.232E-03
RMM:  12    -0.413203958152E+03    0.52075E-05   -0.14881E-06  2519   0.193E-03    0.126E-03
RMM:  13    -0.413203955281E+03    0.28714E-05   -0.53596E-07  2352   0.129E-03    0.726E-04
RMM:  14    -0.413203954610E+03    0.67071E-06   -0.23386E-07  1897   0.854E-04
   38 T=    69. E= -.41286710E+03 F= -.41320395E+03 E0= -.41318277E+03  EK= 0.33685E+00 SP= 0.00E+00 SK= 0.00E+00
       N       E                     dE             d eps       ncg     rms          rms(c)
RMM:   1    -0.413222678065E+03   -0.18723E-01   -0.92425E+00  4309   0.101E+00    0.953E-01
RMM:   2    -0.413212038185E+03    0.10640E-01   -0.13530E-01  4266   0.128E-01    0.689E-01
RMM:   3    -0.413207178803E+03    0.48594E-02   -0.20809E-02  4854   0.636E-02    0.131E-01
RMM:   4    -0.413243753543E+03   -0.36575E-01   -0.38898E-02  5128   0.165E-01    0.797E-01
RMM:   5    -0.413206438827E+03    0.37315E-01   -0.18485E-02  4792   0.133E-01    0.550E-02
RMM:   6    -0.413206524377E+03   -0.85550E-04   -0.31181E-03  5824   0.528E-02    0.359E-02
RMM:   7    -0.413206530092E+03   -0.57147E-05   -0.40274E-04  5632   0.192E-02    0.192E-02
RMM:   8    -0.413206519620E+03    0.10472E-04   -0.52328E-05  4883   0.757E-03    0.102E-02
RMM:   9    -0.413206518630E+03    0.99008E-06   -0.21198E-05  4534   0.477E-03    0.831E-03
RMM:  10    -0.413206510984E+03    0.76453E-05   -0.36199E-06  2801   0.288E-03    0.451E-03
RMM:  11    -0.413206506832E+03    0.41521E-05   -0.15862E-06  2510   0.204E-03    0.275E-03
RMM:  12    -0.413206496921E+03    0.99115E-05   -0.20455E-06  2561   0.228E-03    0.132E-03
RMM:  13    -0.413206492755E+03    0.41663E-05   -0.67929E-07  2430   0.149E-03    0.854E-04
RMM:  14    -0.413206492220E+03    0.53460E-06   -0.27923E-07  2095   0.944E-04
   39 T=    69. E= -.41286702E+03 F= -.41320649E+03 E0= -.41318535E+03  EK= 0.33947E+00 SP= 0.00E+00 SK= 0.00E+00
       N       E                     dE             d eps       ncg     rms          rms(c)
RMM:   1    -0.413220085955E+03   -0.13593E-01   -0.92328E+00  4311   0.101E+00    0.937E-01
RMM:   2    -0.413215458120E+03    0.46278E-02   -0.12560E-01  4263   0.126E-01    0.690E-01
RMM:   3    -0.413210693422E+03    0.47647E-02   -0.23450E-02  4890   0.706E-02    0.147E-01
RMM:   4    -0.413249559119E+03   -0.38866E-01   -0.43065E-02  5131   0.173E-01    0.824E-01
RMM:   5    -0.413209496582E+03    0.40063E-01   -0.19412E-02  4796   0.137E-01    0.555E-02
RMM:   6    -0.413209601449E+03   -0.10487E-03   -0.33175E-03  5821   0.541E-02    0.352E-02
RMM:   7    -0.413209614407E+03   -0.12958E-04   -0.40354E-04  5652   0.190E-02    0.187E-02
RMM:   8    -0.413209606813E+03    0.75938E-05   -0.47244E-05  4747   0.704E-03    0.942E-03
RMM:   9    -0.413209605951E+03    0.86187E-06   -0.15356E-05  4093   0.412E-03    0.691E-03
RMM:  10    -0.413209601568E+03    0.43829E-05   -0.32143E-06  2740   0.255E-03    0.424E-03
RMM:  11    -0.413209598306E+03    0.32621E-05   -0.14275E-06  2499   0.196E-03    0.252E-03
RMM:  12    -0.413209591000E+03    0.73064E-05   -0.18171E-06  2541   0.211E-03    0.116E-03
RMM:  13    -0.413209588437E+03    0.25632E-05   -0.54715E-07  2406   0.135E-03    0.770E-04
RMM:  14    -0.413209588023E+03    0.41328E-06   -0.23065E-07  1953   0.866E-04
   40 T=    70. E= -.41286737E+03 F= -.41320959E+03 E0= -.41318848E+03  EK= 0.34222E+00 SP= 0.00E+00 SK= 0.00E+00
       N       E                     dE             d eps       ncg     rms          rms(c)
RMM:   1    -0.413218073164E+03   -0.84847E-02   -0.93161E+00  4308   0.101E+00    0.949E-01
RMM:   2    -0.413217817153E+03    0.25601E-03   -0.13106E-01  4266   0.133E-01    0.701E-01
RMM:   3    -0.413213557400E+03    0.42598E-02   -0.24033E-02  4961   0.746E-02    0.184E-01
RMM:   4    -0.413257931113E+03   -0.44374E-01   -0.52122E-02  5120   0.191E-01    0.882E-01
RMM:   5    -0.413211658534E+03    0.46273E-01   -0.21830E-02  4777   0.146E-01    0.590E-02
RMM:   6    -0.413211790998E+03   -0.13246E-03   -0.37822E-03  5814   0.576E-02    0.365E-02
RMM:   7    -0.413211802829E+03   -0.11831E-04   -0.47855E-04  5723   0.203E-02    0.211E-02
RMM:   8    -0.413211804475E+03   -0.16458E-05   -0.10291E-04  5211   0.102E-02    0.135E-02
RMM:   9    -0.413211794122E+03    0.10353E-04   -0.23341E-05  4584   0.555E-03    0.741E-03
RMM:  10    -0.413211790918E+03    0.32044E-05   -0.40671E-06  2801   0.292E-03    0.443E-03
RMM:  11    -0.413211788461E+03    0.24566E-05   -0.14024E-06  2505   0.199E-03    0.268E-03
RMM:  12    -0.413211782492E+03    0.59695E-05   -0.15969E-06  2524   0.204E-03    0.115E-03
RMM:  13    -0.413211778265E+03    0.42270E-05   -0.70811E-07  2422   0.144E-03    0.750E-04
RMM:  14    -0.413211777480E+03    0.78465E-06   -0.29864E-07  2085   0.959E-04
   41 T=    70. E= -.41286712E+03 F= -.41321178E+03 E0= -.41319071E+03  EK= 0.34466E+00 SP= 0.00E+00 SK= 0.00E+00
       N       E                     dE             d eps       ncg     rms          rms(c)
RMM:   1    -0.413242076447E+03   -0.30298E-01   -0.95412E+00  4312   0.119E+00    0.967E-01
RMM:   2    -0.413219989398E+03    0.22087E-01   -0.14967E-01  4299   0.137E-01    0.699E-01
RMM:   3    -0.413216822955E+03    0.31664E-02   -0.21174E-02  5028   0.740E-02    0.227E-01
RMM:   4    -0.413263619306E+03   -0.46796E-01   -0.58260E-02  5112   0.202E-01    0.909E-01
RMM:   5    -0.413214295011E+03    0.49324E-01   -0.22839E-02  4769   0.151E-01    0.627E-02
RMM:   6    -0.413214436972E+03   -0.14196E-03   -0.39988E-03  5793   0.595E-02    0.388E-02
RMM:   7    -0.413214445628E+03   -0.86568E-05   -0.51764E-04  5721   0.214E-02    0.236E-02
RMM:   8    -0.413214444969E+03    0.65938E-06   -0.13059E-04  5247   0.116E-02    0.147E-02
RMM:   9    -0.413214430434E+03    0.14535E-04   -0.25069E-05  4612   0.604E-03    0.697E-03
RMM:  10    -0.413214424900E+03    0.55333E-05   -0.54128E-06  3007   0.306E-03    0.428E-03
RMM:  11    -0.413214420522E+03    0.43787E-05   -0.13943E-06  2508   0.200E-03    0.252E-03
RMM:  12    -0.413214411518E+03    0.90040E-05   -0.12910E-06  2489   0.191E-03    0.102E-03
RMM:  13    -0.413214405404E+03    0.61134E-05   -0.61431E-07  2407   0.136E-03    0.635E-04
RMM:  14    -0.413214404273E+03    0.11311E-05   -0.28632E-07  2062   0.942E-04    0.425E-04
RMM:  15    -0.413214402004E+03    0.22686E-05   -0.14677E-07  1538   0.730E-04    0.277E-04
RMM:  16    -0.413214393659E+03    0.83453E-05   -0.15131E-07  1749   0.760E-04    0.371E-04
RMM:  17    -0.413214392102E+03    0.15573E-05   -0.55125E-08   976   0.578E-04    0.261E-04
RMM:  18    -0.413214386124E+03    0.59783E-05   -0.65238E-08  1209   0.623E-04    0.176E-04
RMM:  19    -0.413214384559E+03    0.15647E-05   -0.33202E-08   900   0.561E-04    0.630E-05
RMM:  20    -0.413214382510E+03    0.20492E-05   -0.40518E-08  1107   0.594E-04    0.144E-04
RMM:  21    -0.413214382437E+03    0.72490E-07   -0.13032E-08   698   0.528E-04
   42 T=    71. E= -.41286730E+03 F= -.41321438E+03 E0= -.41319334E+03  EK= 0.34708E+00 SP= 0.00E+00 SK= 0.00E+00
       N       E                     dE             d eps       ncg     rms          rms(c)
RMM:   1    -0.413233003753E+03   -0.18621E-01   -0.94194E+00  4312   0.118E+00    0.947E-01
RMM:   2    -0.413222179087E+03    0.10825E-01   -0.13829E-01  4324   0.139E-01    0.697E-01
RMM:   3    -0.413220535897E+03    0.16432E-02   -0.24281E-02  5059   0.859E-02    0.275E-01
RMM:   4    -0.413258116233E+03   -0.37580E-01   -0.54629E-02  5095   0.198E-01    0.837E-01
RMM:   5    -0.413216429340E+03    0.41687E-01   -0.18052E-02  4748   0.138E-01    0.610E-02
RMM:   6    -0.413216525706E+03   -0.96366E-04   -0.33450E-03  5766   0.545E-02    0.370E-02
RMM:   7    -0.413216531147E+03   -0.54411E-05   -0.49423E-04  5694   0.208E-02    0.237E-02
RMM:   8    -0.413216529412E+03    0.17352E-05   -0.12442E-04  5213   0.116E-02    0.133E-02
RMM:   9    -0.413216518770E+03    0.10642E-04   -0.18675E-05  4356   0.553E-03    0.602E-03
RMM:  10    -0.413216515595E+03    0.31756E-05   -0.42427E-06  2841   0.275E-03    0.371E-03
RMM:  11    -0.413216512864E+03    0.27308E-05   -0.12541E-06  2500   0.188E-03    0.209E-03
RMM:  12    -0.413216507363E+03    0.55011E-05   -0.10835E-06  2483   0.172E-03    0.875E-04
RMM:  13    -0.413216503665E+03    0.36981E-05   -0.51140E-07  2341   0.123E-03    0.471E-04
RMM:  14    -0.413216502468E+03    0.11970E-05   -0.25100E-07  1918   0.874E-04    0.321E-04
RMM:  15    -0.413216499817E+03    0.26501E-05   -0.13973E-07  1439   0.713E-04    0.155E-04
RMM:  16    -0.413216495715E+03    0.41025E-05   -0.99734E-08  1207   0.669E-04    0.147E-04
RMM:  17    -0.413216493389E+03    0.23256E-05   -0.59467E-08  1009   0.619E-04    0.931E-05
RMM:  18    -0.413216490382E+03    0.30075E-05   -0.52819E-08  1081   0.621E-04    0.675E-05
RMM:  19    -0.413216487677E+03    0.27049E-05   -0.45326E-08  1107   0.605E-04    0.343E-05
RMM:  20    -0.413216486943E+03    0.73424E-06   -0.21075E-08   798   0.549E-04
   43 T=    71. E= -.41286738E+03 F= -.41321649E+03 E0= -.41319547E+03  EK= 0.34911E+00 SP= 0.00E+00 SK= 0.00E+00
       N       E                     dE             d eps       ncg     rms          rms(c)
RMM:   1    -0.413228416455E+03   -0.11929E-01   -0.94774E+00  4315   0.119E+00    0.952E-01
RMM:   2    -0.413223747678E+03    0.46688E-02   -0.13967E-01  4331   0.148E-01    0.708E-01
RMM:   3    -0.413222805529E+03    0.94215E-03   -0.26452E-02  5057   0.938E-02    0.306E-01
RMM:   4    -0.413257815410E+03   -0.35010E-01   -0.55326E-02  5090   0.200E-01    0.822E-01
RMM:   5    -0.413217615173E+03    0.40200E-01   -0.16862E-02  4725   0.135E-01    0.609E-02
RMM:   6    -0.413217691634E+03   -0.76461E-04   -0.31606E-03  5747   0.531E-02    0.356E-02
RMM:   7    -0.413217699280E+03   -0.76458E-05   -0.47236E-04  5701   0.204E-02    0.232E-02
RMM:   8    -0.413217698814E+03    0.46557E-06   -0.12288E-04  5195   0.116E-02    0.127E-02
RMM:   9    -0.413217689874E+03    0.89401E-05   -0.17767E-05  4308   0.547E-03    0.550E-03
RMM:  10    -0.413217688010E+03    0.18641E-05   -0.39738E-06  2803   0.265E-03    0.341E-03
RMM:  11    -0.413217686007E+03    0.20032E-05   -0.12334E-06  2497   0.185E-03    0.187E-03
RMM:  12    -0.413217682070E+03    0.39371E-05   -0.10119E-06  2482   0.162E-03    0.790E-04
RMM:  13    -0.413217679320E+03    0.27501E-05   -0.47161E-07  2257   0.116E-03    0.394E-04
RMM:  14    -0.413217677987E+03    0.13324E-05   -0.23756E-07  1788   0.839E-04    0.259E-04
RMM:  15    -0.413217674501E+03    0.34859E-05   -0.16164E-07  1407   0.737E-04    0.151E-04
RMM:  16    -0.413217672187E+03    0.23148E-05   -0.99750E-08  1188   0.661E-04    0.120E-04
RMM:  17    -0.413217670065E+03    0.21216E-05   -0.69582E-08  1059   0.626E-04    0.817E-05
RMM:  18    -0.413217667254E+03    0.28107E-05   -0.60917E-08  1135   0.625E-04    0.449E-05
RMM:  19    -0.413217665031E+03    0.22234E-05   -0.45878E-08  1074   0.599E-04    0.332E-05
RMM:  20    -0.413217664437E+03    0.59390E-06   -0.21587E-08   786   0.549E-04
   44 T=    71. E= -.41286714E+03 F= -.41321766E+03 E0= -.41319668E+03  EK= 0.35053E+00 SP= 0.00E+00 SK= 0.00E+00
       N       E                     dE             d eps       ncg     rms          rms(c)
RMM:   1    -0.413242960916E+03   -0.25296E-01   -0.95824E+00  4312   0.134E+00    0.972E-01
RMM:   2    -0.413224619710E+03    0.18341E-01   -0.14856E-01  4336   0.159E-01    0.706E-01
RMM:   3    -0.413226414129E+03   -0.17944E-02   -0.26110E-02  5081   0.103E-01    0.375E-01
RMM:   4    -0.413250511355E+03   -0.24097E-01   -0.50536E-02  5065   0.193E-01    0.731E-01
RMM:   5    -0.413218951080E+03    0.31560E-01   -0.12273E-02  4692   0.120E-01    0.608E-02
RMM:   6    -0.413218970597E+03   -0.19517E-04   -0.24676E-03  5676   0.474E-02    0.361E-02
RMM:   7    -0.413218971874E+03   -0.12770E-05   -0.41860E-04  5633   0.197E-02    0.237E-02
RMM:   8    -0.413218966605E+03    0.52690E-05   -0.11989E-04  5126   0.118E-02    0.118E-02
RMM:   9    -0.413218955380E+03    0.11225E-04   -0.15136E-05  4222   0.540E-03    0.490E-03
RMM:  10    -0.413218951371E+03    0.40086E-05   -0.35211E-06  2779   0.250E-03    0.298E-03
RMM:  11    -0.413218946833E+03    0.45388E-05   -0.11354E-06  2487   0.179E-03    0.159E-03
RMM:  12    -0.413218940270E+03    0.65625E-05   -0.74387E-07  2433   0.145E-03    0.682E-04
RMM:  13    -0.413218936429E+03    0.38414E-05   -0.35697E-07  2092   0.103E-03    0.313E-04
RMM:  14    -0.413218933675E+03    0.27535E-05   -0.19348E-07  1613   0.789E-04    0.198E-04
RMM:  15    -0.413218927863E+03    0.58119E-05   -0.13827E-07  1338   0.722E-04    0.142E-04
RMM:  16    -0.413218925449E+03    0.24141E-05   -0.81912E-08  1107   0.651E-04    0.901E-05
RMM:  17    -0.413218921487E+03    0.39626E-05   -0.73591E-08  1237   0.651E-04    0.542E-05
RMM:  18    -0.413218918296E+03    0.31908E-05   -0.54888E-08  1171   0.615E-04    0.407E-05
RMM:  19    -0.413218916365E+03    0.19304E-05   -0.35142E-08   967   0.567E-04    0.240E-05
RMM:  20    -0.413218915794E+03    0.57113E-06   -0.19964E-08   772   0.536E-04
   45 T=    72. E= -.41286741E+03 F= -.41321892E+03 E0= -.41319795E+03  EK= 0.35151E+00 SP= 0.00E+00 SK= 0.00E+00
       N       E                     dE             d eps       ncg     rms          rms(c)
RMM:   1    -0.413239563595E+03   -0.20647E-01   -0.94675E+00  4312   0.140E+00    0.956E-01
RMM:   2    -0.413224283254E+03    0.15280E-01   -0.14610E-01  4352   0.168E-01    0.700E-01
RMM:   3    -0.413228876403E+03   -0.45931E-02   -0.28344E-02  5093   0.116E-01    0.436E-01
RMM:   4    -0.413243671554E+03   -0.14795E-01   -0.47174E-02  5052   0.189E-01    0.653E-01
RMM:   5    -0.413218577210E+03    0.25094E-01   -0.89248E-03  4650   0.108E-01    0.590E-02
RMM:   6    -0.413218555304E+03    0.21906E-04   -0.19073E-03  5587   0.421E-02    0.338E-02
RMM:   7    -0.413218556904E+03   -0.16004E-05   -0.34740E-04  5567   0.184E-02    0.224E-02
RMM:   8    -0.413218549065E+03    0.78389E-05   -0.12060E-04  5084   0.118E-02    0.108E-02
RMM:   9    -0.413218538299E+03    0.10766E-04   -0.13675E-05  4139   0.524E-03    0.447E-03
RMM:  10    -0.413218534871E+03    0.34283E-05   -0.27776E-06  2691   0.232E-03    0.263E-03
RMM:  11    -0.413218530385E+03    0.44857E-05   -0.11189E-06  2492   0.173E-03    0.138E-03
RMM:  12    -0.413218524818E+03    0.55678E-05   -0.66566E-07  2407   0.136E-03    0.668E-04
RMM:  13    -0.413218521250E+03    0.35674E-05   -0.31788E-07  1932   0.962E-04    0.295E-04
RMM:  14    -0.413218518185E+03    0.30655E-05   -0.17968E-07  1464   0.755E-04    0.171E-04
RMM:  15    -0.413218513109E+03    0.50756E-05   -0.13489E-07  1283   0.711E-04    0.123E-04
RMM:  16    -0.413218510487E+03    0.26226E-05   -0.86889E-08  1141   0.654E-04    0.852E-05
RMM:  17    -0.413218505398E+03    0.50884E-05   -0.91854E-08  1412   0.674E-04    0.614E-05
RMM:  18    -0.413218503404E+03    0.19941E-05   -0.48800E-08  1037   0.576E-04    0.350E-05
RMM:  19    -0.413218501784E+03    0.16205E-05   -0.35199E-08   930   0.550E-04    0.189E-05
RMM:  20    -0.413218501428E+03    0.35502E-06   -0.20020E-08   737   0.519E-04
   46 T=    72. E= -.41286715E+03 F= -.41321850E+03 E0= -.41319755E+03  EK= 0.35135E+00 SP= 0.00E+00 SK= 0.00E+00
       N       E                     dE             d eps       ncg     rms          rms(c)
RMM:   1    -0.413231545139E+03   -0.13043E-01   -0.94292E+00  4312   0.142E+00    0.947E-01
RMM:   2    -0.413223410240E+03    0.81349E-02   -0.14507E-01  4375   0.174E-01    0.708E-01
RMM:   3    -0.413230549182E+03   -0.71389E-02   -0.31845E-02  5091   0.129E-01    0.487E-01
RMM:   4    -0.413240127824E+03   -0.95786E-02   -0.47917E-02  5036   0.192E-01    0.621E-01
RMM:   5    -0.413217365277E+03    0.22763E-01   -0.76125E-03  4618   0.103E-01    0.583E-02
RMM:   6    -0.413217322781E+03    0.42497E-04   -0.16493E-03  5473   0.394E-02    0.313E-02
RMM:   7    -0.413217330656E+03   -0.78749E-05   -0.30349E-04  5577   0.173E-02    0.213E-02
RMM:   8    -0.413217324422E+03    0.62339E-05   -0.12356E-04  5077   0.118E-02    0.102E-02
RMM:   9    -0.413217314989E+03    0.94331E-05   -0.12808E-05  4049   0.517E-03    0.427E-03
RMM:  10    -0.413217312790E+03    0.21990E-05   -0.27101E-06  2687   0.227E-03    0.246E-03
RMM:  11    -0.413217309581E+03    0.32085E-05   -0.11489E-06  2487   0.174E-03    0.127E-03
RMM:  12    -0.413217306070E+03    0.35113E-05   -0.63644E-07  2371   0.131E-03    0.659E-04
RMM:  13    -0.413217303385E+03    0.26849E-05   -0.31487E-07  1838   0.938E-04    0.300E-04
RMM:  14    -0.413217300744E+03    0.26409E-05   -0.18500E-07  1408   0.750E-04    0.165E-04
RMM:  15    -0.413217297191E+03    0.35531E-05   -0.14600E-07  1338   0.714E-04    0.116E-04
RMM:  16    -0.413217295000E+03    0.21908E-05   -0.90925E-08  1158   0.649E-04    0.838E-05
RMM:  17    -0.413217290654E+03    0.43461E-05   -0.10167E-07  1395   0.673E-04    0.592E-05
RMM:  18    -0.413217289226E+03    0.14280E-05   -0.45736E-08   961   0.565E-04    0.366E-05
RMM:  19    -0.413217287949E+03    0.12767E-05   -0.31373E-08   892   0.541E-04    0.210E-05
RMM:  20    -0.413217287368E+03    0.58134E-06   -0.18661E-08   742   0.516E-04
   47 T=    71. E= -.41286715E+03 F= -.41321729E+03 E0= -.41319635E+03  EK= 0.35014E+00 SP= 0.00E+00 SK= 0.00E+00
       N       E                     dE             d eps       ncg     rms          rms(c)
RMM:   1    -0.413237910152E+03   -0.20622E-01   -0.94129E+00  4310   0.156E+00    0.961E-01
RMM:   2    -0.413220770791E+03    0.17139E-01   -0.15336E-01  4427   0.189E-01    0.706E-01
RMM:   3    -0.413234487593E+03   -0.13717E-01   -0.34964E-02  5127   0.145E-01    0.596E-01
RMM:   4    -0.413230202466E+03    0.42851E-02   -0.44891E-02  4993   0.189E-01    0.512E-01
RMM:   5    -0.413214991287E+03    0.15211E-01   -0.47505E-03  4569   0.909E-02    0.582E-02
RMM:   6    -0.413214893322E+03    0.97965E-04   -0.90071E-04  5062   0.319E-02    0.305E-02
RMM:   7    -0.413214888308E+03    0.50135E-05   -0.19404E-04  5559   0.139E-02    0.162E-02
RMM:   8    -0.413214890242E+03   -0.19342E-05   -0.11768E-04  5219   0.111E-02    0.121E-02
RMM:   9    -0.413214874905E+03    0.15338E-04   -0.19182E-05  4456   0.582E-03    0.440E-03
RMM:  10    -0.413214872222E+03    0.26824E-05   -0.34931E-06  2771   0.246E-03    0.241E-03
RMM:  11    -0.413214866743E+03    0.54793E-05   -0.13781E-06  2451   0.192E-03    0.130E-03
RMM:  12    -0.413214862925E+03    0.38183E-05   -0.61159E-07  2353   0.135E-03    0.767E-04
RMM:  13    -0.413214858670E+03    0.42552E-05   -0.29781E-07  1835   0.960E-04    0.377E-04
RMM:  14    -0.413214854331E+03    0.43386E-05   -0.15718E-07  1407   0.738E-04    0.202E-04
RMM:  15    -0.413214850358E+03    0.39734E-05   -0.10088E-07  1153   0.660E-04    0.124E-04
RMM:  16    -0.413214847335E+03    0.30232E-05   -0.75668E-08  1130   0.626E-04    0.105E-04
RMM:  17    -0.413214843094E+03    0.42405E-05   -0.70451E-08  1202   0.618E-04    0.597E-05
RMM:  18    -0.413214840502E+03    0.25917E-05   -0.39915E-08   934   0.557E-04    0.506E-05
RMM:  19    -0.413214839577E+03    0.92511E-06   -0.19367E-08   690   0.511E-04
   48 T=    71. E= -.41286724E+03 F= -.41321484E+03 E0= -.41319391E+03  EK= 0.34760E+00 SP= 0.00E+00 SK= 0.00E+00
       N       E                     dE             d eps       ncg     rms          rms(c)
RMM:   1    -0.413241241788E+03   -0.26401E-01   -0.92995E+00  4306   0.171E+00    0.949E-01
RMM:   2    -0.413215782395E+03    0.25459E-01   -0.16062E-01  4492   0.201E-01    0.696E-01
RMM:   3    -0.413236866683E+03   -0.21084E-01   -0.38942E-02  5142   0.162E-01    0.698E-01
RMM:   4    -0.413220534336E+03    0.16332E-01   -0.43717E-02  4969   0.190E-01    0.427E-01
RMM:   5    -0.413210283149E+03    0.10251E-01   -0.38613E-03  4578   0.870E-02    0.619E-02
RMM:   6    -0.413210131418E+03    0.15173E-03   -0.50085E-04  4728   0.287E-02    0.320E-02
RMM:   7    -0.413210135922E+03   -0.45037E-05   -0.26743E-04  5818   0.171E-02    0.201E-02
[...]
RMM:  14    -0.413159424858E+03   -0.18361E-05   -0.23606E-07  1402   0.746E-04    0.169E-04
RMM:  15    -0.413159427089E+03   -0.22314E-05   -0.30162E-07  1520   0.763E-04    0.135E-04
RMM:  16    -0.413159428319E+03   -0.12301E-05   -0.15122E-07  1213   0.643E-04    0.813E-05
RMM:  17    -0.413159429736E+03   -0.14163E-05   -0.16567E-07  1293   0.642E-04    0.486E-05
RMM:  18    -0.413159430119E+03   -0.38313E-06   -0.60806E-08   843   0.519E-04
  138 T=    59. E= -.41286758E+03 F= -.41315943E+03 E0= -.41313872E+03  EK= 0.29185E+00 SP= 0.00E+00 SK= 0.00E+00
       N       E                     dE             d eps       ncg     rms          rms(c)
RMM:   1    -0.413171474250E+03   -0.12045E-01   -0.51187E+00  4264   0.618E-01    0.906E-01
RMM:   2    -0.413165839770E+03    0.56345E-02   -0.68780E-02  4350   0.757E-02    0.641E-01
RMM:   3    -0.413166089513E+03   -0.24974E-03   -0.59348E-02  5110   0.984E-02    0.401E-01
RMM:   4    -0.413170206937E+03   -0.41174E-02   -0.21865E-02  5035   0.130E-01    0.470E-01
RMM:   5    -0.413158969096E+03    0.11238E-01   -0.70953E-03  4600   0.805E-02    0.411E-02
RMM:   6    -0.413158962215E+03    0.68810E-05   -0.85539E-04  5211   0.286E-02    0.236E-02
RMM:   7    -0.413158992525E+03   -0.30310E-04   -0.16095E-04  5689   0.124E-02    0.175E-02
RMM:   8    -0.413158994072E+03   -0.15474E-05   -0.39253E-05  4979   0.757E-03    0.620E-03
RMM:   9    -0.413158995393E+03   -0.13212E-05   -0.62491E-06  2857   0.303E-03    0.328E-03
RMM:  10    -0.413158996416E+03   -0.10227E-05   -0.94339E-07  2513   0.160E-03    0.229E-03
RMM:  11    -0.413158998532E+03   -0.21159E-05   -0.11437E-06  2471   0.135E-03    0.992E-04
RMM:  12    -0.413158999742E+03   -0.12101E-05   -0.40214E-07  1819   0.929E-04    0.482E-04
RMM:  13    -0.413159001532E+03   -0.17899E-05   -0.31775E-07  1613   0.838E-04    0.238E-04
RMM:  14    -0.413159002981E+03   -0.14492E-05   -0.22395E-07  1362   0.746E-04    0.170E-04
RMM:  15    -0.413159004765E+03   -0.17833E-05   -0.29335E-07  1533   0.769E-04    0.138E-04
RMM:  16    -0.413159005844E+03   -0.10790E-05   -0.16095E-07  1267   0.654E-04    0.841E-05
RMM:  17    -0.413159007058E+03   -0.12146E-05   -0.17501E-07  1307   0.649E-04    0.514E-05
RMM:  18    -0.413159007404E+03   -0.34591E-06   -0.64468E-08   865   0.523E-04
  139 T=    59. E= -.41286728E+03 F= -.41315901E+03 E0= -.41313830E+03  EK= 0.29173E+00 SP= 0.00E+00 SK= 0.00E+00
       N       E                     dE             d eps       ncg     rms          rms(c)
RMM:   1    -0.413171229350E+03   -0.12222E-01   -0.52204E+00  4264   0.632E-01    0.893E-01
RMM:   2    -0.413166431378E+03    0.47980E-02   -0.68786E-02  4335   0.774E-02    0.643E-01
RMM:   3    -0.413165797784E+03    0.63359E-03   -0.61685E-02  5062   0.976E-02    0.405E-01
RMM:   4    -0.413171659772E+03   -0.58620E-02   -0.21573E-02  5037   0.128E-01    0.496E-01
RMM:   5    -0.413159335948E+03    0.12324E-01   -0.82839E-03  4640   0.846E-02    0.414E-02
RMM:   6    -0.413159339844E+03   -0.38952E-05   -0.97422E-04  5287   0.302E-02    0.230E-02
RMM:   7    -0.413159382773E+03   -0.42930E-04   -0.17581E-04  5702   0.129E-02    0.165E-02
RMM:   8    -0.413159389854E+03   -0.70805E-05   -0.39804E-05  5007   0.740E-03    0.587E-03
RMM:   9    -0.413159395372E+03   -0.55180E-05   -0.59352E-06  2871   0.294E-03    0.341E-03
RMM:  10    -0.413159399656E+03   -0.42847E-05   -0.10074E-06  2517   0.158E-03    0.233E-03
RMM:  11    -0.413159407117E+03   -0.74601E-05   -0.12655E-06  2478   0.136E-03    0.954E-04
RMM:  12    -0.413159410548E+03   -0.34310E-05   -0.43677E-07  1851   0.956E-04    0.447E-04
RMM:  13    -0.413159414700E+03   -0.41525E-05   -0.33876E-07  1619   0.857E-04    0.218E-04
RMM:  14    -0.413159417830E+03   -0.31299E-05   -0.23732E-07  1392   0.755E-04    0.162E-04
RMM:  15    -0.413159421662E+03   -0.38320E-05   -0.31100E-07  1591   0.782E-04    0.132E-04
RMM:  16    -0.413159423560E+03   -0.18983E-05   -0.17345E-07  1299   0.658E-04    0.808E-05
RMM:  17    -0.413159425364E+03   -0.18040E-05   -0.16753E-07  1296   0.636E-04    0.574E-05
RMM:  18    -0.413159425644E+03   -0.27968E-06   -0.63487E-08   869   0.518E-04
  140 T=    59. E= -.41286749E+03 F= -.41315943E+03 E0= -.41313873E+03  EK= 0.29194E+00 SP= 0.00E+00 SK= 0.00E+00
       N       E                     dE             d eps       ncg     rms          rms(c)
RMM:   1    -0.413171497314E+03   -0.12072E-01   -0.52509E+00  4264   0.628E-01    0.905E-01
RMM:   2    -0.413166367244E+03    0.51301E-02   -0.69434E-02  4331   0.773E-02    0.646E-01
RMM:   3    -0.413164651064E+03    0.17162E-02   -0.58397E-02  5061   0.907E-02    0.365E-01
RMM:   4    -0.413173623136E+03   -0.89721E-02   -0.22472E-02  5052   0.130E-01    0.520E-01
RMM:   5    -0.413159407318E+03    0.14216E-01   -0.84834E-03  4679   0.891E-02    0.427E-02
RMM:   6    -0.413159396192E+03    0.11125E-04   -0.11053E-03  5379   0.326E-02    0.240E-02
RMM:   7    -0.413159422834E+03   -0.26642E-04   -0.19420E-04  5757   0.131E-02    0.172E-02
RMM:   8    -0.413159426554E+03   -0.37200E-05   -0.43113E-05  5073   0.759E-03    0.664E-03
RMM:   9    -0.413159429301E+03   -0.27471E-05   -0.63453E-06  2903   0.313E-03    0.339E-03
RMM:  10    -0.413159431839E+03   -0.25379E-05   -0.11589E-06  2525   0.166E-03    0.226E-03
RMM:  11    -0.413159436082E+03   -0.42427E-05   -0.12327E-06  2486   0.140E-03    0.991E-04
RMM:  12    -0.413159438368E+03   -0.22867E-05   -0.45765E-07  1918   0.101E-03    0.447E-04
RMM:  13    -0.413159440853E+03   -0.24845E-05   -0.31415E-07  1676   0.857E-04    0.230E-04
RMM:  14    -0.413159442889E+03   -0.20364E-05   -0.22622E-07  1356   0.750E-04    0.163E-04
RMM:  15    -0.413159445317E+03   -0.24279E-05   -0.28909E-07  1511   0.768E-04    0.131E-04
RMM:  16    -0.413159446706E+03   -0.13887E-05   -0.18255E-07  1338   0.678E-04    0.865E-05
RMM:  17    -0.413159447996E+03   -0.12901E-05   -0.17523E-07  1271   0.647E-04    0.536E-05
RMM:  18    -0.413159448244E+03   -0.24788E-06   -0.68520E-08   904   0.539E-04
  141 T=    59. E= -.41286748E+03 F= -.41315945E+03 E0= -.41313876E+03  EK= 0.29196E+00 SP= 0.00E+00 SK= 0.00E+00
       N       E                     dE             d eps       ncg     rms          rms(c)
RMM:   1    -0.413171238032E+03   -0.11790E-01   -0.52633E+00  4264   0.633E-01    0.905E-01
RMM:   2    -0.413166074435E+03    0.51636E-02   -0.70155E-02  4331   0.771E-02    0.641E-01
RMM:   3    -0.413163365659E+03    0.27088E-02   -0.54776E-02  5058   0.830E-02    0.323E-01
RMM:   4    -0.413175640388E+03   -0.12275E-01   -0.23541E-02  5068   0.132E-01    0.548E-01
RMM:   5    -0.413159242542E+03    0.16398E-01   -0.89644E-03  4715   0.939E-02    0.442E-02
RMM:   6    -0.413159235766E+03    0.67762E-05   -0.12832E-03  5477   0.351E-02    0.250E-02
RMM:   7    -0.413159259245E+03   -0.23479E-04   -0.21633E-04  5779   0.137E-02    0.179E-02
RMM:   8    -0.413159260174E+03   -0.92909E-06   -0.45445E-05  5092   0.769E-03    0.736E-03
RMM:   9    -0.413159260230E+03   -0.55763E-07   -0.70113E-06  2959   0.319E-03
  142 T=    59. E= -.41286737E+03 F= -.41315926E+03 E0= -.41313858E+03  EK= 0.29189E+00 SP= 0.00E+00 SK= 0.00E+00
       N       E                     dE             d eps       ncg     rms          rms(c)
RMM:   1    -0.413170719985E+03   -0.11460E-01   -0.53594E+00  4269   0.643E-01    0.885E-01
RMM:   2    -0.413166618738E+03    0.41012E-02   -0.70016E-02  4335   0.773E-02    0.639E-01
RMM:   3    -0.413165081301E+03    0.15374E-02   -0.57194E-02  5079   0.908E-02    0.371E-01
RMM:   4    -0.413174586325E+03   -0.95050E-02   -0.23258E-02  5054   0.132E-01    0.531E-01
RMM:   5    -0.413159771528E+03    0.14815E-01   -0.88542E-03  4703   0.912E-02    0.456E-02
RMM:   6    -0.413159745163E+03    0.26365E-04   -0.11470E-03  5338   0.337E-02    0.242E-02
RMM:   7    -0.413159783965E+03   -0.38802E-04   -0.21131E-04  5819   0.138E-02    0.168E-02
RMM:   8    -0.413159789665E+03   -0.56999E-05   -0.45198E-05  5132   0.776E-03    0.682E-03
RMM:   9    -0.413159794417E+03   -0.47520E-05   -0.68162E-06  2944   0.328E-03    0.349E-03
RMM:  10    -0.413159798784E+03   -0.43670E-05   -0.13895E-06  2552   0.178E-03    0.231E-03
RMM:  11    -0.413159806521E+03   -0.77371E-05   -0.14584E-06  2513   0.156E-03    0.111E-03
RMM:  12    -0.413159809976E+03   -0.34551E-05   -0.52635E-07  2065   0.109E-03    0.515E-04
RMM:  13    -0.413159814138E+03   -0.41619E-05   -0.42682E-07  1910   0.918E-04    0.282E-04
RMM:  14    -0.413159817793E+03   -0.36547E-05   -0.34270E-07  1467   0.792E-04    0.206E-04
RMM:  15    -0.413159821578E+03   -0.37859E-05   -0.43852E-07  1657   0.824E-04    0.165E-04
RMM:  16    -0.413159823619E+03   -0.20404E-05   -0.28219E-07  1402   0.714E-04    0.115E-04
RMM:  17    -0.413159825215E+03   -0.15962E-05   -0.24607E-07  1316   0.682E-04    0.786E-05
RMM:  18    -0.413159825438E+03   -0.22308E-06   -0.89617E-08   952   0.558E-04
  143 T=    59. E= -.41286763E+03 F= -.41315983E+03 E0= -.41313915E+03  EK= 0.29220E+00 SP= 0.00E+00 SK= 0.00E+00
       N       E                     dE             d eps       ncg     rms          rms(c)
RMM:   1    -0.413170791296E+03   -0.10966E-01   -0.54632E+00  4264   0.648E-01    0.894E-01
RMM:   2    -0.413166551828E+03    0.42395E-02   -0.70921E-02  4328   0.776E-02    0.645E-01
RMM:   3    -0.413162548590E+03    0.40032E-02   -0.54688E-02  4971   0.754E-02    0.306E-01
RMM:   4    -0.413177321278E+03   -0.14773E-01   -0.21996E-02  5091   0.127E-01    0.563E-01
RMM:   5    -0.413159653633E+03    0.17668E-01   -0.95056E-03  4763   0.968E-02    0.437E-02
RMM:   6    -0.413159665360E+03   -0.11727E-04   -0.14174E-03  5579   0.371E-02    0.255E-02
RMM:   7    -0.413159697814E+03   -0.32453E-04   -0.23273E-04  5741   0.141E-02    0.168E-02
RMM:   8    -0.413159703941E+03   -0.61279E-05   -0.43526E-05  5050   0.742E-03    0.697E-03
RMM:   9    -0.413159706717E+03   -0.27754E-05   -0.67065E-06  3030   0.314E-03    0.350E-03
RMM:  10    -0.413159711209E+03   -0.44926E-05   -0.16518E-06  2542   0.186E-03    0.224E-03
RMM:  11    -0.413159715807E+03   -0.45978E-05   -0.10168E-06  2444   0.141E-03    0.993E-04
RMM:  12    -0.413159719939E+03   -0.41321E-05   -0.61233E-07  2198   0.112E-03    0.430E-04
RMM:  13    -0.413159722092E+03   -0.21527E-05   -0.28263E-07  1644   0.847E-04    0.275E-04
RMM:  14    -0.413159724312E+03   -0.22203E-05   -0.23201E-07  1367   0.765E-04    0.148E-04
RMM:  15    -0.413159726821E+03   -0.25091E-05   -0.26698E-07  1486   0.772E-04    0.156E-04
RMM:  16    -0.413159728641E+03   -0.18195E-05   -0.25495E-07  1487   0.731E-04    0.106E-04
RMM:  17    -0.413159729163E+03   -0.52257E-06   -0.10723E-07  1088   0.599E-04
  144 T=    60. E= -.41286739E+03 F= -.41315973E+03 E0= -.41313906E+03  EK= 0.29234E+00 SP= 0.00E+00 SK= 0.00E+00
       N       E                     dE             d eps       ncg     rms          rms(c)
RMM:   1    -0.413170970388E+03   -0.11242E-01   -0.55044E+00  4264   0.652E-01    0.902E-01
RMM:   2    -0.413166504234E+03    0.44662E-02   -0.72250E-02  4325   0.780E-02    0.642E-01
RMM:   3    -0.413161944930E+03    0.45593E-02   -0.49701E-02  4949   0.681E-02    0.253E-01
RMM:   4    -0.413177424728E+03   -0.15480E-01   -0.20716E-02  5108   0.123E-01    0.556E-01
RMM:   5    -0.413159858511E+03    0.17566E-01   -0.90244E-03  4786   0.948E-02    0.440E-02
RMM:   6    -0.413159869437E+03   -0.10925E-04   -0.14439E-03  5632   0.375E-02    0.272E-02
RMM:   7    -0.413159891158E+03   -0.21721E-04   -0.24241E-04  5720   0.144E-02    0.176E-02
RMM:   8    -0.413159893834E+03   -0.26766E-05   -0.42493E-05  5047   0.718E-03    0.736E-03
RMM:   9    -0.413159893813E+03    0.21249E-07   -0.68690E-06  3052   0.308E-03
  145 T=    60. E= -.41286741E+03 F= -.41315989E+03 E0= -.41313923E+03  EK= 0.29248E+00 SP= 0.00E+00 SK= 0.00E+00
       N       E                     dE             d eps       ncg     rms          rms(c)
RMM:   1    -0.413170622439E+03   -0.10729E-01   -0.55950E+00  4266   0.672E-01    0.880E-01
RMM:   2    -0.413166877647E+03    0.37448E-02   -0.72812E-02  4333   0.799E-02    0.637E-01
RMM:   3    -0.413163535086E+03    0.33426E-02   -0.50720E-02  5034   0.778E-02    0.304E-01
RMM:   4    -0.413179593730E+03   -0.16059E-01   -0.25143E-02  5081   0.136E-01    0.588E-01
RMM:   5    -0.413160267225E+03    0.19327E-01   -0.10198E-02  4753   0.101E-01    0.484E-02
RMM:   6    -0.413160254379E+03    0.12846E-04   -0.15367E-03  5508   0.390E-02    0.262E-02
RMM:   7    -0.413160288005E+03   -0.33626E-04   -0.26152E-04  5849   0.147E-02    0.174E-02
RMM:   8    -0.413160293761E+03   -0.57561E-05   -0.50196E-05  5197   0.782E-03    0.761E-03
RMM:   9    -0.413160295920E+03   -0.21590E-05   -0.73196E-06  3064   0.329E-03    0.358E-03
RMM:  10    -0.413160299836E+03   -0.39159E-05   -0.17844E-06  2551   0.195E-03    0.229E-03
RMM:  11    -0.413160305120E+03   -0.52833E-05   -0.13037E-06  2496   0.159E-03    0.111E-03
RMM:  12    -0.413160308862E+03   -0.37425E-05   -0.66166E-07  2291   0.120E-03    0.457E-04
RMM:  13    -0.413160311104E+03   -0.22421E-05   -0.34966E-07  1777   0.895E-04    0.310E-04
RMM:  14    -0.413160313656E+03   -0.25522E-05   -0.32868E-07  1499   0.817E-04    0.196E-04
RMM:  15    -0.413160316071E+03   -0.24145E-05   -0.36247E-07  1627   0.819E-04    0.168E-04
RMM:  16    -0.413160317712E+03   -0.16410E-05   -0.34637E-07  1600   0.776E-04    0.121E-04
RMM:  17    -0.413160318435E+03   -0.72301E-06   -0.18731E-07  1241   0.652E-04
  146 T=    60. E= -.41286755E+03 F= -.41316032E+03 E0= -.41313966E+03  EK= 0.29277E+00 SP= 0.00E+00 SK= 0.00E+00
       N       E                     dE             d eps       ncg     rms          rms(c)
RMM:   1    -0.413169938132E+03   -0.96204E-02   -0.57581E+00  4264   0.672E-01    0.884E-01
RMM:   2    -0.413166826256E+03    0.31119E-02   -0.73424E-02  4329   0.794E-02    0.643E-01
RMM:   3    -0.413161630078E+03    0.51962E-02   -0.50237E-02  4756   0.645E-02    0.260E-01
RMM:   4    -0.413166065374E+03   -0.44353E-02   -0.85511E-03  5113   0.771E-02    0.327E-01
RMM:   5    -0.413160081098E+03    0.59843E-02   -0.30464E-03  4809   0.560E-02    0.381E-02
RMM:   6    -0.413160092946E+03   -0.11848E-04   -0.64759E-04  5529   0.260E-02    0.265E-02
RMM:   7    -0.413160108811E+03   -0.15865E-04   -0.15615E-04  5318   0.120E-02    0.151E-02
RMM:   8    -0.413160112813E+03   -0.40015E-05   -0.25465E-05  4645   0.578E-03    0.602E-03
RMM:   9    -0.413160116025E+03   -0.32119E-05   -0.40294E-06  2709   0.237E-03    0.308E-03
RMM:  10    -0.413160122452E+03   -0.64272E-05   -0.12437E-06  2509   0.167E-03    0.179E-03
RMM:  11    -0.413160127409E+03   -0.49574E-05   -0.72864E-07  2284   0.123E-03    0.719E-04
RMM:  12    -0.413160131365E+03   -0.39554E-05   -0.43424E-07  2069   0.976E-04    0.367E-04
RMM:  13    -0.413160134480E+03   -0.31151E-05   -0.27387E-07  1507   0.800E-04    0.211E-04
RMM:  14    -0.413160136934E+03   -0.24536E-05   -0.21539E-07  1390   0.746E-04    0.147E-04
RMM:  15    -0.413160139127E+03   -0.21935E-05   -0.23221E-07  1502   0.741E-04    0.130E-04
RMM:  16    -0.413160141016E+03   -0.18885E-05   -0.24924E-07  1452   0.714E-04    0.936E-05
RMM:  17    -0.413160141088E+03   -0.72534E-07   -0.75147E-08   960   0.549E-04
  147 T=    60. E= -.41286726E+03 F= -.41316014E+03 E0= -.41313948E+03  EK= 0.29288E+00 SP= 0.00E+00 SK= 0.00E+00
       N       E                     dE             d eps       ncg     rms          rms(c)
RMM:   1    -0.413170377889E+03   -0.10237E-01   -0.58192E+00  4264   0.676E-01    0.895E-01
RMM:   2    -0.413167004774E+03    0.33731E-02   -0.74878E-02  4329   0.801E-02    0.641E-01
RMM:   3    -0.413161633096E+03    0.53717E-02   -0.44569E-02  4678   0.580E-02    0.204E-01
RMM:   4    -0.413162112959E+03   -0.47986E-03   -0.33600E-03  5107   0.465E-02    0.168E-01
RMM:   5    -0.413160587325E+03    0.15256E-02   -0.87205E-04  4830   0.302E-02    0.379E-02
RMM:   6    -0.413160599695E+03   -0.12370E-04   -0.35979E-04  5318   0.196E-02    0.281E-02
RMM:   7    -0.413160598584E+03    0.11109E-05   -0.12911E-04  4876   0.114E-02    0.164E-02
RMM:   8    -0.413160596637E+03    0.19471E-05   -0.19355E-05  4333   0.501E-03    0.595E-03
RMM:   9    -0.413160598675E+03   -0.20380E-05   -0.59754E-06  2623   0.236E-03    0.255E-03
RMM:  10    -0.413160600149E+03   -0.14736E-05   -0.11179E-06  2476   0.154E-03    0.145E-03
RMM:  11    -0.413160601238E+03   -0.10894E-05   -0.79696E-07  2188   0.117E-03    0.539E-04
RMM:  12    -0.413160601987E+03   -0.74840E-06   -0.32653E-07  1773   0.872E-04
  148 T=    60. E= -.41286750E+03 F= -.41316060E+03 E0= -.41313995E+03  EK= 0.29310E+00 SP= 0.00E+00 SK= 0.00E+00
       N       E                     dE             d eps       ncg     rms          rms(c)
RMM:   1    -0.413169550575E+03   -0.89493E-02   -0.59047E+00  4264   0.686E-01    0.877E-01
RMM:   2    -0.413166945932E+03    0.26046E-02   -0.75234E-02  4331   0.807E-02    0.635E-01
RMM:   3    -0.413161765247E+03    0.51807E-02   -0.43741E-02  4607   0.584E-02    0.210E-01
RMM:   4    -0.413160773814E+03    0.99143E-03   -0.21649E-03  4870   0.308E-02    0.524E-02
RMM:   5    -0.413160777377E+03   -0.35631E-05   -0.23767E-04  4996   0.146E-02    0.489E-02
RMM:   6    -0.413160730424E+03    0.46953E-04   -0.25794E-04  5139   0.159E-02    0.284E-02
RMM:   7    -0.413160729991E+03    0.43327E-06   -0.12260E-04  4644   0.114E-02    0.166E-02
RMM:   8    -0.413160728330E+03    0.16613E-05   -0.16180E-05  3899   0.452E-03    0.564E-03
RMM:   9    -0.413160732414E+03   -0.40840E-05   -0.83128E-06  2546   0.240E-03    0.330E-03
RMM:  10    -0.413160735810E+03   -0.33960E-05   -0.11156E-06  2465   0.145E-03    0.200E-03
RMM:  11    -0.413160738510E+03   -0.27005E-05   -0.92206E-07  1975   0.104E-03    0.492E-04
RMM:  12    -0.413160740520E+03   -0.20102E-05   -0.31257E-07  1486   0.793E-04    0.274E-04
RMM:  13    -0.413160742795E+03   -0.22748E-05   -0.38243E-07  1627   0.803E-04    0.217E-04
RMM:  14    -0.413160743446E+03   -0.65125E-06   -0.14928E-07  1152   0.618E-04
  149 T=    60. E= -.41286747E+03 F= -.41316074E+03 E0= -.41314009E+03  EK= 0.29327E+00 SP= 0.00E+00 SK= 0.00E+00
       N       E                     dE             d eps       ncg     rms          rms(c)
RMM:   1    -0.413169084994E+03   -0.83422E-02   -0.61066E+00  4264   0.698E-01    0.876E-01
RMM:   2    -0.413167159218E+03    0.19258E-02   -0.76596E-02  4328   0.824E-02    0.641E-01
RMM:   3    -0.413161923707E+03    0.52355E-02   -0.44864E-02  4666   0.636E-02    0.232E-01
RMM:   4    -0.413164405938E+03   -0.24822E-02   -0.59913E-03  5130   0.636E-02    0.260E-01
RMM:   5    -0.413160685138E+03    0.37208E-02   -0.19075E-03  4815   0.446E-02    0.391E-02
RMM:   6    -0.413160698057E+03   -0.12920E-04   -0.52975E-04  5468   0.234E-02    0.277E-02
RMM:   7    -0.413160708618E+03   -0.10561E-04   -0.15525E-04  5171   0.119E-02    0.155E-02
RMM:   8    -0.413160710887E+03   -0.22686E-05   -0.22729E-05  4609   0.537E-03    0.585E-03
RMM:   9    -0.413160714528E+03   -0.36406E-05   -0.44572E-06  2691   0.247E-03    0.283E-03
RMM:  10    -0.413160720588E+03   -0.60603E-05   -0.12054E-06  2502   0.166E-03    0.145E-03
RMM:  11    -0.413160726175E+03   -0.55869E-05   -0.74570E-07  2365   0.127E-03    0.765E-04
RMM:  12    -0.413160730446E+03   -0.42717E-05   -0.41438E-07  2075   0.977E-04    0.343E-04
RMM:  13    -0.413160733247E+03   -0.28006E-05   -0.24585E-07  1535   0.789E-04    0.225E-04
RMM:  14    -0.413160735984E+03   -0.27374E-05   -0.23058E-07  1397   0.753E-04    0.176E-04
RMM:  15    -0.413160738078E+03   -0.20941E-05   -0.22031E-07  1445   0.731E-04    0.931E-05
RMM:  16    -0.413160739399E+03   -0.13205E-05   -0.17983E-07  1379   0.680E-04    0.716E-05
RMM:  17    -0.413160739466E+03   -0.67394E-07   -0.82804E-08   967   0.568E-04
  150 T=    60. E= -.41286727E+03 F= -.41316074E+03 E0= -.41314009E+03  EK= 0.29347E+00 SP= 0.00E+00 SK= 0.00E+00
