       N       E                     dE             d eps       ncg     rms          rms(c)
RMM:   1     0.220148108426E+04    0.22015E+04   -0.52439E+04  2132   0.654E+02
RMM:   2     0.705437700947E+03   -0.14960E+04   -0.16262E+04  2132   0.177E+02
RMM:   3     0.137555442782E+03   -0.56788E+03   -0.65701E+03  2132   0.117E+02
RMM:   4    -0.159289690821E+03   -0.29685E+03   -0.27848E+03  2132   0.936E+01
RMM:   5    -0.287425579818E+03   -0.12814E+03   -0.11445E+03  2132   0.595E+01
RMM:   6    -0.349741494847E+03   -0.62316E+02   -0.55123E+02  2132   0.423E+01
RMM:   7    -0.382675052606E+03   -0.32934E+02   -0.30434E+02  2132   0.293E+01
RMM:   8    -0.404150073406E+03   -0.21475E+02   -0.18454E+02  2132   0.233E+01
RMM:   9    -0.436018760096E+03   -0.31869E+02   -0.30796E+02  6106   0.173E+01
RMM:  10    -0.441333476135E+03   -0.53147E+01   -0.63038E+01  6396   0.539E+00
RMM:  11    -0.442521165169E+03   -0.11877E+01   -0.10843E+01  6217   0.172E+00
RMM:  12    -0.442895516525E+03   -0.37435E+00   -0.27155E+00  6370   0.598E-01    0.134E+02
RMM:  13    -0.425659401033E+03    0.17236E+02   -0.81092E+01  4674   0.119E+01    0.712E+01
RMM:  14    -0.500465103188E+03   -0.74806E+02   -0.54562E+02  5410   0.233E+01    0.308E+01
RMM:  15    -0.416144125663E+03    0.84321E+02   -0.20030E+02  5089   0.164E+01    0.718E+00
RMM:  16    -0.414006189623E+03    0.21379E+01   -0.39816E+01  6077   0.613E+00    0.425E+00
RMM:  17    -0.413211224645E+03    0.79496E+00   -0.25079E+00  5393   0.188E+00    0.242E+00
RMM:  18    -0.413175528830E+03    0.35696E-01   -0.77901E-01  5990   0.904E-01    0.166E+00
RMM:  19    -0.413170324273E+03    0.52046E-02   -0.26687E-01  5697   0.560E-01    0.868E-01
RMM:  20    -0.413189277486E+03   -0.18953E-01   -0.26492E-01  5550   0.541E-01    0.614E-01
RMM:  21    -0.413168451231E+03    0.20826E-01   -0.34508E-02  4986   0.241E-01    0.273E-01
RMM:  22    -0.413165776435E+03    0.26748E-02   -0.18987E-02  5959   0.128E-01    0.133E-01
RMM:  23    -0.413164662936E+03    0.11135E-02   -0.56814E-03  6053   0.679E-02    0.841E-02
RMM:  24    -0.413163368000E+03    0.12949E-02   -0.15842E-03  5261   0.413E-02    0.482E-02
RMM:  25    -0.413162836024E+03    0.53198E-03   -0.82707E-04  5233   0.275E-02    0.394E-02
RMM:  26    -0.413162940392E+03   -0.10437E-03   -0.93883E-04  5756   0.317E-02    0.320E-02
RMM:  27    -0.413163359047E+03   -0.41865E-03   -0.19244E-04  4566   0.198E-02    0.193E-02
RMM:  28    -0.413163802231E+03   -0.44318E-03   -0.15959E-04  5078   0.180E-02    0.974E-03
RMM:  29    -0.413164198618E+03   -0.39639E-03   -0.12261E-04  4557   0.161E-02    0.430E-03
RMM:  30    -0.413164413395E+03   -0.21478E-03   -0.78455E-05  4319   0.988E-03    0.379E-03
RMM:  31    -0.413164542416E+03   -0.12902E-03   -0.54642E-05  3225   0.706E-03    0.346E-03
RMM:  32    -0.413164563975E+03   -0.21560E-04   -0.20323E-05  2988   0.304E-03    0.168E-03
RMM:  33    -0.413164574831E+03   -0.10856E-04   -0.81137E-06  2774   0.218E-03    0.645E-04
RMM:  34    -0.413164577000E+03   -0.21692E-05   -0.67409E-06  2616   0.156E-03    0.584E-04
RMM:  35    -0.413164576708E+03    0.29224E-06   -0.21499E-06  2291   0.121E-03
    1 T=    61. E= -.41286678E+03 F= -.41316458E+03 E0= -.41314208E+03  EK= 0.29780E+00 SP= 0.00E+00 SK= 0.00E+00
       N       E                     dE             d eps       ncg     rms          rms(c)
RMM:   1    -0.413164531853E+03    0.45147E-04   -0.86425E+00  3990   0.600E-01    0.887E-01
RMM:   2    -0.413168849397E+03   -0.43175E-02   -0.10625E-01  3893   0.867E-02    0.653E-01
RMM:   3    -0.413164797873E+03    0.40515E-02   -0.19682E-02  4892   0.521E-02    0.111E-01
RMM:   4    -0.413190388817E+03   -0.25591E-01   -0.28145E-02  5194   0.139E-01    0.669E-01
RMM:   5    -0.413164072408E+03    0.26316E-01   -0.12757E-02  4840   0.112E-01    0.491E-02
RMM:   6    -0.413164264660E+03   -0.19225E-03   -0.23453E-03  5771   0.473E-02    0.345E-02
RMM:   7    -0.413164264118E+03    0.54266E-06   -0.44280E-04  5692   0.193E-02    0.214E-02
RMM:   8    -0.413164260572E+03    0.35458E-05   -0.54135E-05  5148   0.813E-03    0.929E-03
RMM:   9    -0.413164262880E+03   -0.23078E-05   -0.11666E-05  3609   0.358E-03    0.692E-03
RMM:  10    -0.413164267804E+03   -0.49242E-05   -0.23230E-06  2589   0.225E-03    0.413E-03
RMM:  11    -0.413164271863E+03   -0.40591E-05   -0.13044E-06  2523   0.169E-03    0.229E-03
RMM:  12    -0.413164278473E+03   -0.66105E-05   -0.17643E-06  2571   0.186E-03    0.979E-04
RMM:  13    -0.413164281319E+03   -0.28451E-05   -0.70923E-07  2395   0.128E-03    0.733E-04
RMM:  14    -0.413164281296E+03    0.22621E-07   -0.35814E-07  1881   0.853E-04
    2 T=    61. E= -.41286655E+03 F= -.41316428E+03 E0= -.41314178E+03  EK= 0.29774E+00 SP= 0.00E+00 SK= 0.00E+00
       N       E                     dE             d eps       ncg     rms          rms(c)
RMM:   1    -0.413165525709E+03   -0.12444E-02   -0.86320E+00  4188   0.610E-01    0.905E-01
RMM:   2    -0.413169067180E+03   -0.35415E-02   -0.10540E-01  3923   0.856E-02    0.649E-01
RMM:   3    -0.413165327573E+03    0.37396E-02   -0.18443E-02  4894   0.488E-02    0.107E-01
RMM:   4    -0.413190866252E+03   -0.25539E-01   -0.27109E-02  5162   0.137E-01    0.669E-01
RMM:   5    -0.413164697838E+03    0.26168E-01   -0.12527E-02  4828   0.111E-01    0.490E-02
RMM:   6    -0.413164884340E+03   -0.18650E-03   -0.23132E-03  5767   0.469E-02    0.349E-02
RMM:   7    -0.413164873706E+03    0.10634E-04   -0.43005E-04  5607   0.198E-02    0.217E-02
RMM:   8    -0.413164862349E+03    0.11357E-04   -0.57965E-05  5113   0.860E-03    0.102E-02
RMM:   9    -0.413164860396E+03    0.19535E-05   -0.11549E-05  3679   0.376E-03    0.757E-03
RMM:  10    -0.413164860519E+03   -0.12292E-06   -0.21484E-06  2583   0.235E-03
    3 T=    61. E= -.41286691E+03 F= -.41316486E+03 E0= -.41314237E+03  EK= 0.29795E+00 SP= 0.00E+00 SK= 0.00E+00
       N       E                     dE             d eps       ncg     rms          rms(c)
RMM:   1    -0.413165014109E+03   -0.15371E-03   -0.85674E+00  4222   0.615E-01    0.890E-01
RMM:   2    -0.413168634004E+03   -0.36199E-02   -0.10500E-01  4231   0.854E-02    0.643E-01
RMM:   3    -0.413171146996E+03   -0.25130E-02   -0.22742E-02  5165   0.872E-02    0.345E-01
RMM:   4    -0.413186667037E+03   -0.15520E-01   -0.37867E-02  5103   0.167E-01    0.613E-01
RMM:   5    -0.413164613034E+03    0.22054E-01   -0.81458E-03  4680   0.100E-01    0.595E-02
RMM:   6    -0.413164618979E+03   -0.59444E-05   -0.16476E-03  5426   0.413E-02    0.321E-02
RMM:   7    -0.413164637638E+03   -0.18659E-04   -0.34057E-04  5965   0.169E-02    0.193E-02
RMM:   8    -0.413164633184E+03    0.44540E-05   -0.59574E-05  5149   0.898E-03    0.787E-03
RMM:   9    -0.413164631373E+03    0.18109E-05   -0.74817E-06  3348   0.353E-03    0.399E-03
RMM:  10    -0.413164632392E+03   -0.10193E-05   -0.15927E-06  2535   0.212E-03    0.253E-03
RMM:  11    -0.413164633837E+03   -0.14442E-05   -0.12903E-06  2534   0.178E-03    0.144E-03
RMM:  12    -0.413164634587E+03   -0.75093E-06   -0.75966E-07  2483   0.139E-03
    4 T=    61. E= -.41286673E+03 F= -.41316463E+03 E0= -.41314215E+03  EK= 0.29790E+00 SP= 0.00E+00 SK= 0.00E+00
       N       E                     dE             d eps       ncg     rms          rms(c)
RMM:   1    -0.413164879388E+03   -0.24555E-03   -0.86308E+00  4235   0.612E-01    0.885E-01
RMM:   2    -0.413169119292E+03   -0.42399E-02   -0.10642E-01  3979   0.847E-02    0.652E-01
RMM:   3    -0.413165557227E+03    0.35621E-02   -0.19791E-02  4948   0.528E-02    0.129E-01
RMM:   4    -0.413196286144E+03   -0.30729E-01   -0.33649E-02  5144   0.154E-01    0.735E-01
RMM:   5    -0.413164562889E+03    0.31723E-01   -0.14949E-02  4810   0.122E-01    0.506E-02
RMM:   6    -0.413164772035E+03   -0.20915E-03   -0.26469E-03  5750   0.507E-02    0.344E-02
RMM:   7    -0.413164774755E+03   -0.27194E-05   -0.45885E-04  5722   0.200E-02    0.219E-02
RMM:   8    -0.413164770287E+03    0.44678E-05   -0.63740E-05  5148   0.892E-03    0.101E-02
RMM:   9    -0.413164771061E+03   -0.77435E-06   -0.12629E-05  3845   0.397E-03    0.728E-03
RMM:  10    -0.413164775188E+03   -0.41269E-05   -0.20900E-06  2583   0.229E-03    0.442E-03
RMM:  11    -0.413164778503E+03   -0.33145E-05   -0.11841E-06  2528   0.173E-03    0.248E-03
RMM:  12    -0.413164784053E+03   -0.55505E-05   -0.19273E-06  2607   0.200E-03    0.111E-03
RMM:  13    -0.413164786214E+03   -0.21609E-05   -0.65630E-07  2421   0.134E-03    0.832E-04
RMM:  14    -0.413164786045E+03    0.16862E-06   -0.25197E-07  1923   0.869E-04
    5 T=    61. E= -.41286676E+03 F= -.41316479E+03 E0= -.41314231E+03  EK= 0.29802E+00 SP= 0.00E+00 SK= 0.00E+00
       N       E                     dE             d eps       ncg     rms          rms(c)
RMM:   1    -0.413165739496E+03   -0.95328E-03   -0.86376E+00  4247   0.617E-01    0.902E-01
RMM:   2    -0.413169257180E+03   -0.35177E-02   -0.10579E-01  3967   0.834E-02    0.651E-01
RMM:   3    -0.413165712172E+03    0.35450E-02   -0.18627E-02  4895   0.465E-02    0.104E-01
RMM:   4    -0.413190365909E+03   -0.24654E-01   -0.25954E-02  5140   0.135E-01    0.658E-01
RMM:   5    -0.413165103899E+03    0.25262E-01   -0.12113E-02  4814   0.109E-01    0.482E-02
RMM:   6    -0.413165279664E+03   -0.17576E-03   -0.21765E-03  5754   0.457E-02    0.338E-02
RMM:   7    -0.413165271248E+03    0.84155E-05   -0.40857E-04  5611   0.194E-02    0.212E-02
RMM:   8    -0.413165261301E+03    0.99472E-05   -0.55052E-05  5009   0.845E-03    0.990E-03
RMM:   9    -0.413165259672E+03    0.16294E-05   -0.10842E-05  3624   0.370E-03    0.739E-03
RMM:  10    -0.413165259941E+03   -0.26921E-06   -0.19867E-06  2558   0.230E-03
    6 T=    61. E= -.41286692E+03 F= -.41316526E+03 E0= -.41314280E+03  EK= 0.29834E+00 SP= 0.00E+00 SK= 0.00E+00
       N       E                     dE             d eps       ncg     rms          rms(c)
RMM:   1    -0.413165480627E+03   -0.22096E-03   -0.85918E+00  4260   0.622E-01    0.897E-01
RMM:   2    -0.413168991389E+03   -0.35108E-02   -0.10529E-01  4234   0.849E-02    0.645E-01
RMM:   3    -0.413170433042E+03   -0.14417E-02   -0.21870E-02  5141   0.815E-02    0.316E-01
RMM:   4    -0.413189564528E+03   -0.19131E-01   -0.38886E-02  5097   0.168E-01    0.647E-01
RMM:   5    -0.413164977570E+03    0.24587E-01   -0.94472E-03  4698   0.105E-01    0.595E-02
RMM:   6    -0.413165010781E+03   -0.33211E-04   -0.18799E-03  5472   0.436E-02    0.327E-02
RMM:   7    -0.413165023339E+03   -0.12558E-04   -0.35948E-04  5964   0.171E-02    0.197E-02
RMM:   8    -0.413165016450E+03    0.68882E-05   -0.60687E-05  5144   0.896E-03    0.808E-03
RMM:   9    -0.413165013129E+03    0.33213E-05   -0.74320E-06  3309   0.349E-03    0.419E-03
RMM:  10    -0.413165012829E+03    0.30031E-06   -0.17975E-06  2556   0.216E-03
    7 T=    61. E= -.41286657E+03 F= -.41316501E+03 E0= -.41314256E+03  EK= 0.29844E+00 SP= 0.00E+00 SK= 0.00E+00
       N       E                     dE             d eps       ncg     rms          rms(c)
RMM:   1    -0.413165734216E+03   -0.72109E-03   -0.86226E+00  4268   0.625E-01    0.883E-01
RMM:   2    -0.413170085610E+03   -0.43514E-02   -0.10604E-01  4091   0.868E-02    0.650E-01
RMM:   3    -0.413166601446E+03    0.34842E-02   -0.19667E-02  4976   0.555E-02    0.142E-01
RMM:   4    -0.413199988157E+03   -0.33387E-01   -0.37397E-02  5141   0.162E-01    0.766E-01
RMM:   5    -0.413165406921E+03    0.34581E-01   -0.16210E-02  4802   0.127E-01    0.524E-02
RMM:   6    -0.413165620394E+03   -0.21347E-03   -0.28119E-03  5725   0.527E-02    0.349E-02
RMM:   7    -0.413165621347E+03   -0.95255E-06   -0.48219E-04  5763   0.201E-02    0.222E-02
RMM:   8    -0.413165617686E+03    0.36601E-05   -0.67393E-05  5216   0.896E-03    0.101E-02
RMM:   9    -0.413165616999E+03    0.68701E-06   -0.12630E-05  3862   0.399E-03    0.705E-03
RMM:  10    -0.413165619600E+03   -0.26005E-05   -0.21597E-06  2587   0.228E-03    0.430E-03
RMM:  11    -0.413165621688E+03   -0.20880E-05   -0.11227E-06  2521   0.169E-03    0.244E-03
RMM:  12    -0.413165625141E+03   -0.34532E-05   -0.18354E-06  2590   0.196E-03    0.108E-03
RMM:  13    -0.413165626593E+03   -0.14517E-05   -0.72626E-07  2427   0.136E-03    0.890E-04
RMM:  14    -0.413165626337E+03    0.25595E-06   -0.25964E-07  1938   0.880E-04
    8 T=    61. E= -.41286683E+03 F= -.41316563E+03 E0= -.41314320E+03  EK= 0.29880E+00 SP= 0.00E+00 SK= 0.00E+00
       N       E                     dE             d eps       ncg     rms          rms(c)
RMM:   1    -0.413166226714E+03   -0.60012E-03   -0.86576E+00  4283   0.631E-01    0.898E-01
RMM:   2    -0.413170221275E+03   -0.39946E-02   -0.10598E-01  4137   0.867E-02    0.653E-01
RMM:   3    -0.413166305412E+03    0.39159E-02   -0.18993E-02  4863   0.513E-02    0.109E-01
RMM:   4    -0.413192399739E+03   -0.26094E-01   -0.27642E-02  5132   0.139E-01    0.677E-01
RMM:   5    -0.413165621393E+03    0.26778E-01   -0.12839E-02  4807   0.112E-01    0.484E-02
RMM:   6    -0.413165805111E+03   -0.18372E-03   -0.22816E-03  5752   0.466E-02    0.334E-02
RMM:   7    -0.413165798405E+03    0.67051E-05   -0.40764E-04  5627   0.194E-02    0.212E-02
RMM:   8    -0.413165787770E+03    0.10635E-04   -0.58553E-05  5017   0.869E-03    0.101E-02
RMM:   9    -0.413165786034E+03    0.17367E-05   -0.11794E-05  3751   0.387E-03    0.750E-03
RMM:  10    -0.413165786475E+03   -0.44145E-06   -0.20072E-06  2564   0.231E-03
    9 T=    61. E= -.41286677E+03 F= -.41316579E+03 E0= -.41314338E+03  EK= 0.29902E+00 SP= 0.00E+00 SK= 0.00E+00
       N       E                     dE             d eps       ncg     rms          rms(c)
RMM:   1    -0.413166387537E+03   -0.60150E-03   -0.86272E+00  4294   0.636E-01    0.903E-01
RMM:   2    -0.413170100289E+03   -0.37128E-02   -0.10552E-01  4295   0.880E-02    0.647E-01
RMM:   3    -0.413171826754E+03   -0.17265E-02   -0.22315E-02  5138   0.848E-02    0.332E-01
RMM:   4    -0.413188879257E+03   -0.17053E-01   -0.38126E-02  5079   0.167E-01    0.627E-01
RMM:   5    -0.413165819309E+03    0.23060E-01   -0.86597E-03  4687   0.102E-01    0.591E-02
RMM:   6    -0.413165845421E+03   -0.26113E-04   -0.17642E-03  5441   0.420E-02    0.329E-02
RMM:   7    -0.413165859798E+03   -0.14377E-04   -0.34461E-04  5923   0.171E-02    0.196E-02
RMM:   8    -0.413165851738E+03    0.80600E-05   -0.58966E-05  5107   0.894E-03    0.797E-03
RMM:   9    -0.413165847420E+03    0.43175E-05   -0.72752E-06  3269   0.350E-03    0.415E-03
RMM:  10    -0.413165846102E+03    0.13180E-05   -0.17013E-06  2539   0.215E-03    0.262E-03
RMM:  11    -0.413165844098E+03    0.20045E-05   -0.12064E-06  2510   0.175E-03    0.140E-03
RMM:  12    -0.413165842078E+03    0.20203E-05   -0.76648E-07  2471   0.140E-03    0.579E-04
RMM:  13    -0.413165840883E+03    0.11942E-05   -0.38821E-07  2124   0.102E-03    0.329E-04
RMM:  14    -0.413165839726E+03    0.11570E-05   -0.23545E-07  1653   0.804E-04    0.217E-04
RMM:  15    -0.413165837797E+03    0.19293E-05   -0.23957E-07  1584   0.772E-04    0.179E-04
RMM:  16    -0.413165835875E+03    0.19217E-05   -0.18848E-07  1354   0.701E-04    0.151E-04
RMM:  17    -0.413165834234E+03    0.16414E-05   -0.13544E-07  1265   0.652E-04    0.760E-05
RMM:  18    -0.413165832889E+03    0.13450E-05   -0.94568E-08  1076   0.605E-04    0.462E-05
RMM:  19    -0.413165832285E+03    0.60422E-06   -0.47472E-08   856   0.552E-04
   10 T=    61. E= -.41286663E+03 F= -.41316583E+03 E0= -.41314345E+03  EK= 0.29920E+00 SP= 0.00E+00 SK= 0.00E+00
       N       E                     dE             d eps       ncg     rms          rms(c)
RMM:   1    -0.413166689504E+03   -0.85662E-03   -0.86144E+00  4290   0.639E-01    0.884E-01
RMM:   2    -0.413170842498E+03   -0.41530E-02   -0.10597E-01  4194   0.856E-02    0.648E-01
RMM:   3    -0.413167489384E+03    0.33531E-02   -0.19219E-02  4940   0.538E-02    0.134E-01
RMM:   4    -0.413199870692E+03   -0.32381E-01   -0.35849E-02  5135   0.158E-01    0.754E-01
RMM:   5    -0.413166421307E+03    0.33449E-01   -0.15824E-02  4795   0.125E-01    0.517E-02
RMM:   6    -0.413166635257E+03   -0.21395E-03   -0.27430E-03  5725   0.517E-02    0.352E-02
RMM:   7    -0.413166635060E+03    0.19771E-06   -0.47122E-04  5640   0.201E-02    0.221E-02
RMM:   8    -0.413166628862E+03    0.61972E-05   -0.66059E-05  5193   0.902E-03    0.101E-02
RMM:   9    -0.413166627011E+03    0.18511E-05   -0.12999E-05  3891   0.404E-03    0.717E-03
RMM:  10    -0.413166628413E+03   -0.14015E-05   -0.20800E-06  2578   0.228E-03    0.436E-03
RMM:  11    -0.413166629580E+03   -0.11676E-05   -0.10550E-06  2501   0.166E-03    0.249E-03
RMM:  12    -0.413166631544E+03   -0.19632E-05   -0.16333E-06  2555   0.193E-03    0.110E-03
RMM:  13    -0.413166632240E+03   -0.69619E-06   -0.63166E-07  2401   0.134E-03
   11 T=    61. E= -.41286699E+03 F= -.41316663E+03 E0= -.41314427E+03  EK= 0.29965E+00 SP= 0.00E+00 SK= 0.00E+00
       N       E                     dE             d eps       ncg     rms          rms(c)
RMM:   1    -0.413166854422E+03   -0.22288E-03   -0.86805E+00  4288   0.643E-01    0.895E-01
RMM:   2    -0.413170811802E+03   -0.39574E-02   -0.10670E-01  4204   0.853E-02    0.654E-01
RMM:   3    -0.413167178826E+03    0.36330E-02   -0.19359E-02  4876   0.511E-02    0.114E-01
RMM:   4    -0.413194597257E+03   -0.27418E-01   -0.29371E-02  5125   0.143E-01    0.694E-01
RMM:   5    -0.413166409913E+03    0.28187E-01   -0.13380E-02  4794   0.115E-01    0.490E-02
RMM:   6    -0.413166604738E+03   -0.19482E-03   -0.24814E-03  5768   0.477E-02    0.331E-02
RMM:   7    -0.413166605809E+03   -0.10710E-05   -0.40771E-04  5652   0.193E-02    0.214E-02
RMM:   8    -0.413166595681E+03    0.10128E-04   -0.64157E-05  5012   0.888E-03    0.105E-02
RMM:   9    -0.413166593519E+03    0.21618E-05   -0.12757E-05  3898   0.405E-03    0.781E-03
RMM:  10    -0.413166594074E+03   -0.55449E-06   -0.20386E-06  2565   0.233E-03
   12 T=    61. E= -.41286666E+03 F= -.41316659E+03 E0= -.41314426E+03  EK= 0.29994E+00 SP= 0.00E+00 SK= 0.00E+00
       N       E                     dE             d eps       ncg     rms          rms(c)
RMM:   1    -0.413167795548E+03   -0.12020E-02   -0.86689E+00  4303   0.648E-01    0.908E-01
RMM:   2    -0.413171028132E+03   -0.32326E-02   -0.10619E-01  4319   0.854E-02    0.649E-01
RMM:   3    -0.413174718104E+03   -0.36900E-02   -0.23592E-02  5143   0.902E-02    0.371E-01
RMM:   4    -0.413187168864E+03   -0.12451E-01   -0.37216E-02  5069   0.166E-01    0.584E-01
RMM:   5    -0.413167195328E+03    0.19974E-01   -0.70981E-03  4647   0.949E-02    0.585E-02
RMM:   6    -0.413167190954E+03    0.43739E-05   -0.15149E-03  5379   0.388E-02    0.328E-02
RMM:   7    -0.413167198469E+03   -0.75152E-05   -0.30567E-04  5889   0.166E-02    0.189E-02
RMM:   8    -0.413167190014E+03    0.84555E-05   -0.55161E-05  5089   0.876E-03    0.756E-03
RMM:   9    -0.413167184845E+03    0.51684E-05   -0.65446E-06  3195   0.339E-03    0.389E-03
RMM:  10    -0.413167182900E+03    0.19451E-05   -0.14781E-06  2510   0.206E-03    0.243E-03
RMM:  11    -0.413167179748E+03    0.31518E-05   -0.11434E-06  2508   0.170E-03    0.135E-03
RMM:  12    -0.413167177044E+03    0.27041E-05   -0.65956E-07  2449   0.133E-03    0.569E-04
RMM:  13    -0.413167175298E+03    0.17459E-05   -0.34115E-07  2065   0.970E-04    0.326E-04
RMM:  14    -0.413167173671E+03    0.16277E-05   -0.19946E-07  1527   0.767E-04    0.216E-04
RMM:  15    -0.413167170765E+03    0.29054E-05   -0.21624E-07  1527   0.754E-04    0.179E-04
RMM:  16    -0.413167168426E+03    0.23391E-05   -0.14603E-07  1283   0.670E-04    0.143E-04
RMM:  17    -0.413167166064E+03    0.23626E-05   -0.13206E-07  1259   0.649E-04    0.752E-05
RMM:  18    -0.413167164664E+03    0.13996E-05   -0.69072E-08   977   0.581E-04    0.449E-05
RMM:  19    -0.413167163948E+03    0.71619E-06   -0.37236E-08   822   0.546E-04
   13 T=    61. E= -.41286669E+03 F= -.41316716E+03 E0= -.41314486E+03  EK= 0.30048E+00 SP= 0.00E+00 SK= 0.00E+00
       N       E                     dE             d eps       ncg     rms          rms(c)
RMM:   1    -0.413167990838E+03   -0.82617E-03   -0.86288E+00  4291   0.651E-01    0.886E-01
RMM:   2    -0.413171937081E+03   -0.39462E-02   -0.10615E-01  4220   0.853E-02    0.647E-01
RMM:   3    -0.413168699878E+03    0.32372E-02   -0.18914E-02  4950   0.533E-02    0.137E-01
RMM:   4    -0.413201911207E+03   -0.33211E-01   -0.36991E-02  5123   0.160E-01    0.763E-01
RMM:   5    -0.413167603399E+03    0.34308E-01   -0.16215E-02  4792   0.126E-01    0.522E-02
RMM:   6    -0.413167813668E+03   -0.21027E-03   -0.28145E-03  5731   0.521E-02    0.357E-02
RMM:   7    -0.413167807923E+03    0.57456E-05   -0.48014E-04  5642   0.203E-02    0.225E-02
RMM:   8    -0.413167798671E+03    0.92520E-05   -0.68056E-05  5215   0.912E-03    0.103E-02
RMM:   9    -0.413167795565E+03    0.31051E-05   -0.13248E-05  3920   0.409E-03    0.727E-03
RMM:  10    -0.413167795371E+03    0.19433E-06   -0.21299E-06  2577   0.228E-03
   14 T=    61. E= -.41286678E+03 F= -.41316780E+03 E0= -.41314553E+03  EK= 0.30101E+00 SP= 0.00E+00 SK= 0.00E+00
       N       E                     dE             d eps       ncg     rms          rms(c)
RMM:   1    -0.413168042197E+03   -0.24663E-03   -0.87177E+00  4300   0.656E-01    0.893E-01
RMM:   2    -0.413172378223E+03   -0.43360E-02   -0.10729E-01  4301   0.881E-02    0.656E-01
RMM:   3    -0.413175484544E+03   -0.31063E-02   -0.24840E-02  5130   0.929E-02    0.372E-01
RMM:   4    -0.413189979829E+03   -0.14495E-01   -0.39955E-02  5064   0.172E-01    0.614E-01
RMM:   5    -0.413167813265E+03    0.22167E-01   -0.80673E-03  4645   0.100E-01    0.578E-02
RMM:   6    -0.413167828271E+03   -0.15006E-04   -0.16416E-03  5396   0.402E-02    0.314E-02
RMM:   7    -0.413167849251E+03   -0.20980E-04   -0.32239E-04  5920   0.165E-02    0.188E-02
RMM:   8    -0.413167846442E+03    0.28090E-05   -0.58013E-05  5101   0.879E-03    0.759E-03
RMM:   9    -0.413167844681E+03    0.17610E-05   -0.69011E-06  3217   0.347E-03    0.390E-03
RMM:  10    -0.413167845701E+03   -0.10196E-05   -0.15017E-06  2514   0.206E-03    0.246E-03
RMM:  11    -0.413167846987E+03   -0.12860E-05   -0.12082E-06  2512   0.172E-03    0.138E-03
RMM:  12    -0.413167847387E+03   -0.39980E-06   -0.66862E-07  2447   0.133E-03
   15 T=    61. E= -.41286648E+03 F= -.41316785E+03 E0= -.41314561E+03  EK= 0.30137E+00 SP= 0.00E+00 SK= 0.00E+00
       N       E                     dE             d eps       ncg     rms          rms(c)
RMM:   1    -0.413169651080E+03   -0.18041E-02   -0.87168E+00  4295   0.667E-01    0.910E-01
RMM:   2    -0.413173142142E+03   -0.34911E-02   -0.10671E-01  4245   0.882E-02    0.652E-01
RMM:   3    -0.413169794806E+03    0.33473E-02   -0.18623E-02  4963   0.536E-02    0.139E-01
RMM:   4    -0.413203868702E+03   -0.34074E-01   -0.37865E-02  5125   0.162E-01    0.772E-01
RMM:   5    -0.413168712093E+03    0.35157E-01   -0.16631E-02  4793   0.128E-01    0.530E-02
RMM:   6    -0.413168920459E+03   -0.20837E-03   -0.29303E-03  5742   0.532E-02    0.367E-02
RMM:   7    -0.413168907180E+03    0.13279E-04   -0.49453E-04  5684   0.209E-02    0.233E-02
RMM:   8    -0.413168894392E+03    0.12788E-04   -0.72617E-05  5204   0.949E-03    0.109E-02
RMM:   9    -0.413168888586E+03    0.58060E-05   -0.13827E-05  3978   0.423E-03    0.771E-03
RMM:  10    -0.413168884631E+03    0.39554E-05   -0.22740E-06  2592   0.239E-03    0.464E-03
RMM:  11    -0.413168881995E+03    0.26353E-05   -0.11629E-06  2506   0.174E-03    0.269E-03
RMM:  12    -0.413168876736E+03    0.52590E-05   -0.18838E-06  2578   0.207E-03    0.119E-03
RMM:  13    -0.413168873531E+03    0.32057E-05   -0.70577E-07  2429   0.142E-03    0.979E-04
RMM:  14    -0.413168873741E+03   -0.21086E-06   -0.27218E-07  2001   0.916E-04
   16 T=    61. E= -.41286680E+03 F= -.41316887E+03 E0= -.41314668E+03  EK= 0.30207E+00 SP= 0.00E+00 SK= 0.00E+00
       N       E                     dE             d eps       ncg     rms          rms(c)
RMM:   1    -0.413172794874E+03   -0.39213E-02   -0.86933E+00  4294   0.694E-01    0.891E-01
RMM:   2    -0.413173671422E+03   -0.87655E-03   -0.11007E-01  4248   0.909E-02    0.647E-01
RMM:   3    -0.413169980480E+03    0.36909E-02   -0.18017E-02  4890   0.511E-02    0.117E-01
RMM:   4    -0.413199777552E+03   -0.29797E-01   -0.31981E-02  5125   0.149E-01    0.722E-01
RMM:   5    -0.413169214459E+03    0.30563E-01   -0.14692E-02  4796   0.120E-01    0.502E-02
RMM:   6    -0.413169402804E+03   -0.18834E-03   -0.26044E-03  5772   0.496E-02    0.345E-02
RMM:   7    -0.413169396644E+03    0.61597E-05   -0.42875E-04  5645   0.199E-02    0.218E-02
RMM:   8    -0.413169383419E+03    0.13226E-04   -0.67763E-05  5074   0.915E-03    0.107E-02
RMM:   9    -0.413169378495E+03    0.49231E-05   -0.13325E-05  3953   0.414E-03    0.782E-03
RMM:  10    -0.413169375855E+03    0.26406E-05   -0.21109E-06  2581   0.234E-03    0.471E-03
RMM:  11    -0.413169373964E+03    0.18914E-05   -0.12522E-06  2510   0.180E-03    0.261E-03
RMM:  12    -0.413169370686E+03    0.32772E-05   -0.17746E-06  2565   0.202E-03    0.113E-03
RMM:  13    -0.413169368782E+03    0.19042E-05   -0.57743E-07  2376   0.134E-03    0.824E-04
RMM:  14    -0.413169368825E+03   -0.42652E-07   -0.24737E-07  1934   0.869E-04
   17 T=    62. E= -.41286679E+03 F= -.41316937E+03 E0= -.41314721E+03  EK= 0.30258E+00 SP= 0.00E+00 SK= 0.00E+00
       N       E                     dE             d eps       ncg     rms          rms(c)
RMM:   1    -0.413169996154E+03   -0.62737E-03   -0.87511E+00  4296   0.668E-01    0.891E-01
RMM:   2    -0.413174269902E+03   -0.42737E-02   -0.10811E-01  4248   0.885E-02    0.657E-01
RMM:   3    -0.413170611562E+03    0.36583E-02   -0.19750E-02  4893   0.535E-02    0.124E-01
RMM:   4    -0.413200806072E+03   -0.30195E-01   -0.32884E-02  5117   0.151E-01    0.728E-01
RMM:   5    -0.413169697363E+03    0.31109E-01   -0.14865E-02  4788   0.121E-01    0.501E-02
RMM:   6    -0.413169894514E+03   -0.19715E-03   -0.26324E-03  5757   0.500E-02    0.338E-02
RMM:   7    -0.413169891946E+03    0.25681E-05   -0.43697E-04  5646   0.197E-02    0.217E-02
RMM:   8    -0.413169882298E+03    0.96483E-05   -0.67069E-05  5087   0.909E-03    0.104E-02
RMM:   9    -0.413169879475E+03    0.28227E-05   -0.13248E-05  3922   0.415E-03    0.758E-03
RMM:  10    -0.413169879680E+03   -0.20511E-06   -0.20590E-06  2572   0.231E-03
   18 T=    62. E= -.41286672E+03 F= -.41316988E+03 E0= -.41314776E+03  EK= 0.30315E+00 SP= 0.00E+00 SK= 0.00E+00
       N       E                     dE             d eps       ncg     rms          rms(c)
RMM:   1    -0.413173669121E+03   -0.37896E-02   -0.87836E+00  4302   0.699E-01    0.910E-01
RMM:   2    -0.413175114896E+03   -0.14458E-02   -0.11019E-01  4328   0.903E-02    0.655E-01
RMM:   3    -0.413177982677E+03   -0.28678E-02   -0.23130E-02  5136   0.891E-02    0.357E-01
RMM:   4    -0.413193489877E+03   -0.15507E-01   -0.39354E-02  5065   0.170E-01    0.618E-01
RMM:   5    -0.413171010781E+03    0.22479E-01   -0.81856E-03  4661   0.100E-01    0.586E-02
RMM:   6    -0.413171028086E+03   -0.17304E-04   -0.17155E-03  5418   0.410E-02    0.328E-02
RMM:   7    -0.413171032712E+03   -0.46264E-05   -0.33146E-04  5904   0.169E-02    0.195E-02
RMM:   8    -0.413171023301E+03    0.94105E-05   -0.59039E-05  5107   0.896E-03    0.789E-03
RMM:   9    -0.413171017484E+03    0.58171E-05   -0.72668E-06  3280   0.355E-03    0.405E-03
RMM:  10    -0.413171015056E+03    0.24288E-05   -0.16022E-06  2522   0.212E-03    0.255E-03
RMM:  11    -0.413171011366E+03    0.36897E-05   -0.10976E-06  2492   0.172E-03    0.139E-03
RMM:  12    -0.413171007844E+03    0.35214E-05   -0.67777E-07  2455   0.136E-03    0.547E-04
RMM:  13    -0.413171005717E+03    0.21274E-05   -0.34204E-07  2078   0.981E-04    0.320E-04
RMM:  14    -0.413171003782E+03    0.19353E-05   -0.19411E-07  1564   0.771E-04    0.215E-04
RMM:  15    -0.413171000266E+03    0.35154E-05   -0.18397E-07  1448   0.739E-04    0.166E-04
RMM:  16    -0.413170997524E+03    0.27427E-05   -0.12481E-07  1256   0.665E-04    0.147E-04
RMM:  17    -0.413170994536E+03    0.29877E-05   -0.11312E-07  1252   0.650E-04    0.738E-05
RMM:  18    -0.413170992529E+03    0.20073E-05   -0.66961E-08   999   0.590E-04    0.392E-05
RMM:  19    -0.413170991621E+03    0.90753E-06   -0.35719E-08   837   0.551E-04
   19 T=    62. E= -.41286695E+03 F= -.41317099E+03 E0= -.41314891E+03  EK= 0.30404E+00 SP= 0.00E+00 SK= 0.00E+00
       N       E                     dE             d eps       ncg     rms          rms(c)
RMM:   1    -0.413175654534E+03   -0.46620E-02   -0.87600E+00  4297   0.714E-01    0.899E-01
RMM:   2    -0.413175281512E+03    0.37302E-03   -0.11042E-01  4244   0.894E-02    0.649E-01
RMM:   3    -0.413172364905E+03    0.29166E-02   -0.18198E-02  4973   0.531E-02    0.142E-01
RMM:   4    -0.413207678608E+03   -0.35314E-01   -0.39559E-02  5122   0.165E-01    0.785E-01
RMM:   5    -0.413171242069E+03    0.36437E-01   -0.17301E-02  4784   0.131E-01    0.538E-02
RMM:   6    -0.413171449063E+03   -0.20699E-03   -0.30209E-03  5732   0.542E-02    0.368E-02
RMM:   7    -0.413171437832E+03    0.11232E-04   -0.50717E-04  5668   0.209E-02    0.234E-02
RMM:   8    -0.413171424191E+03    0.13641E-04   -0.75455E-05  5226   0.963E-03    0.109E-02
RMM:   9    -0.413171418129E+03    0.60624E-05   -0.14559E-05  4059   0.433E-03    0.761E-03
RMM:  10    -0.413171414600E+03    0.35286E-05   -0.22714E-06  2585   0.237E-03    0.466E-03
RMM:  11    -0.413171412464E+03    0.21354E-05   -0.10872E-06  2500   0.170E-03    0.276E-03
RMM:  12    -0.413171408165E+03    0.42993E-05   -0.17445E-06  2553   0.204E-03    0.120E-03
RMM:  13    -0.413171405539E+03    0.26258E-05   -0.71425E-07  2413   0.143E-03    0.980E-04
RMM:  14    -0.413171405583E+03   -0.43423E-07   -0.27996E-07  2032   0.934E-04
   20 T=    62. E= -.41286666E+03 F= -.41317141E+03 E0= -.41314937E+03  EK= 0.30475E+00 SP= 0.00E+00 SK= 0.00E+00
       N       E                     dE             d eps       ncg     rms          rms(c)
RMM:   1    -0.413172579877E+03   -0.11743E-02   -0.87925E+00  4291   0.681E-01    0.891E-01
RMM:   2    -0.413176822616E+03   -0.42427E-02   -0.10889E-01  4249   0.880E-02    0.657E-01
RMM:   3    -0.413173101209E+03    0.37214E-02   -0.19560E-02  4892   0.509E-02    0.114E-01
RMM:   4    -0.413200800422E+03   -0.27699E-01   -0.29757E-02  5124   0.144E-01    0.697E-01
RMM:   5    -0.413172340460E+03    0.28460E-01   -0.13768E-02  4791   0.116E-01    0.487E-02
RMM:   6    -0.413172510637E+03   -0.17018E-03   -0.23994E-03  5798   0.475E-02    0.321E-02
RMM:   7    -0.413172514189E+03   -0.35527E-05   -0.37972E-04  5626   0.189E-02    0.203E-02
RMM:   8    -0.413172505389E+03    0.88005E-05   -0.67686E-05  5030   0.898E-03    0.104E-02
RMM:   9    -0.413172501677E+03    0.37115E-05   -0.12924E-05  3936   0.414E-03    0.766E-03
RMM:  10    -0.413172501143E+03    0.53423E-06   -0.19547E-06  2555   0.227E-03
   21 T=    62. E= -.41286679E+03 F= -.41317250E+03 E0= -.41315051E+03  EK= 0.30571E+00 SP= 0.00E+00 SK= 0.00E+00
       N       E                     dE             d eps       ncg     rms          rms(c)
RMM:   1    -0.413174190124E+03   -0.16884E-02   -0.88311E+00  4297   0.692E-01    0.909E-01
RMM:   2    -0.413177975603E+03   -0.37855E-02   -0.10873E-01  4323   0.890E-02    0.659E-01
RMM:   3    -0.413179713953E+03   -0.17384E-02   -0.22926E-02  5119   0.854E-02    0.333E-01
RMM:   4    -0.413198841193E+03   -0.19127E-01   -0.41018E-02  5076   0.173E-01    0.654E-01
RMM:   5    -0.413173616852E+03    0.25224E-01   -0.95494E-03  4672   0.107E-01    0.580E-02
RMM:   6    -0.413173662600E+03   -0.45748E-04   -0.19570E-03  5475   0.438E-02    0.328E-02
RMM:   7    -0.413173667129E+03   -0.45289E-05   -0.35974E-04  5870   0.174E-02    0.201E-02
RMM:   8    -0.413173659528E+03    0.76003E-05   -0.62261E-05  5120   0.908E-03    0.824E-03
RMM:   9    -0.413173653822E+03    0.57066E-05   -0.80292E-06  3325   0.361E-03    0.433E-03
RMM:  10    -0.413173651353E+03    0.24686E-05   -0.18236E-06  2550   0.216E-03    0.276E-03
RMM:  11    -0.413173648010E+03    0.33436E-05   -0.10699E-06  2486   0.170E-03    0.144E-03
RMM:  12    -0.413173644244E+03    0.37662E-05   -0.71533E-07  2451   0.138E-03    0.527E-04
RMM:  13    -0.413173642207E+03    0.20367E-05   -0.35483E-07  2123   0.101E-03    0.320E-04
RMM:  14    -0.413173640552E+03    0.16551E-05   -0.19553E-07  1627   0.781E-04    0.219E-04
RMM:  15    -0.413173637236E+03    0.33161E-05   -0.16055E-07  1411   0.729E-04    0.159E-04
RMM:  16    -0.413173634380E+03    0.28559E-05   -0.11727E-07  1276   0.667E-04    0.162E-04
RMM:  17    -0.413173631923E+03    0.24564E-05   -0.82127E-08  1107   0.621E-04    0.793E-05
RMM:  18    -0.413173629441E+03    0.24822E-05   -0.67720E-08  1054   0.602E-04    0.354E-05
RMM:  19    -0.413173628164E+03    0.12767E-05   -0.36035E-08   879   0.563E-04    0.299E-05
RMM:  20    -0.413173627735E+03    0.42979E-06   -0.17155E-08   735   0.540E-04
   22 T=    62. E= -.41286689E+03 F= -.41317363E+03 E0= -.41315169E+03  EK= 0.30674E+00 SP= 0.00E+00 SK= 0.00E+00
       N       E                     dE             d eps       ncg     rms          rms(c)
RMM:   1    -0.413174838766E+03   -0.12106E-02   -0.88114E+00  4295   0.695E-01    0.909E-01
RMM:   2    -0.413178629207E+03   -0.37904E-02   -0.10855E-01  4270   0.896E-02    0.653E-01
RMM:   3    -0.413175168124E+03    0.34611E-02   -0.18422E-02  4928   0.549E-02    0.137E-01
RMM:   4    -0.413209541578E+03   -0.34373E-01   -0.38104E-02  5126   0.162E-01    0.774E-01
RMM:   5    -0.413174126265E+03    0.35415E-01   -0.16948E-02  4791   0.129E-01    0.532E-02
RMM:   6    -0.413174326775E+03   -0.20051E-03   -0.29824E-03  5754   0.534E-02    0.369E-02
RMM:   7    -0.413174313239E+03    0.13536E-04   -0.49186E-04  5639   0.210E-02    0.232E-02
RMM:   8    -0.413174299303E+03    0.13936E-04   -0.76325E-05  5204   0.971E-03    0.112E-02
RMM:   9    -0.413174292354E+03    0.69482E-05   -0.14627E-05  4070   0.436E-03    0.788E-03
RMM:  10    -0.413174287736E+03    0.46184E-05   -0.23094E-06  2592   0.242E-03    0.481E-03
RMM:  11    -0.413174284769E+03    0.29665E-05   -0.11229E-06  2499   0.173E-03    0.287E-03
RMM:  12    -0.413174278804E+03    0.59652E-05   -0.18906E-06  2575   0.212E-03    0.124E-03
RMM:  13    -0.413174275327E+03    0.34777E-05   -0.71551E-07  2411   0.145E-03    0.993E-04
RMM:  14    -0.413174275409E+03   -0.82146E-07   -0.28419E-07  2051   0.940E-04
   23 T=    63. E= -.41286667E+03 F= -.41317428E+03 E0= -.41315238E+03  EK= 0.30760E+00 SP= 0.00E+00 SK= 0.00E+00
       N       E                     dE             d eps       ncg     rms          rms(c)
RMM:   1    -0.413176548791E+03   -0.22735E-02   -0.88489E+00  4295   0.711E-01    0.893E-01
RMM:   2    -0.413180626198E+03   -0.40774E-02   -0.10961E-01  4269   0.909E-02    0.657E-01
RMM:   3    -0.413176310114E+03    0.43161E-02   -0.19160E-02  4802   0.531E-02    0.103E-01
RMM:   4    -0.413200639071E+03   -0.24329E-01   -0.25594E-02  5124   0.133E-01    0.654E-01
RMM:   5    -0.413175709268E+03    0.24930E-01   -0.12152E-02  4801   0.108E-01    0.474E-02
RMM:   6    -0.413175847443E+03   -0.13817E-03   -0.21575E-03  5814   0.444E-02    0.303E-02
RMM:   7    -0.413175847925E+03   -0.48193E-06   -0.29085E-04  5651   0.172E-02    0.172E-02
RMM:   8    -0.413175841757E+03    0.61676E-05   -0.60522E-05  4997   0.820E-03    0.105E-02
RMM:   9    -0.413175836829E+03    0.49285E-05   -0.11774E-05  3912   0.400E-03    0.769E-03
RMM:  10    -0.413175835154E+03    0.16747E-05   -0.19033E-06  2554   0.228E-03    0.460E-03
RMM:  11    -0.413175833640E+03    0.15141E-05   -0.14561E-06  2518   0.193E-03    0.243E-03
RMM:  12    -0.413175831277E+03    0.23632E-05   -0.14952E-06  2522   0.190E-03    0.103E-03
RMM:  13    -0.413175830216E+03    0.10608E-05   -0.48505E-07  2311   0.124E-03    0.645E-04
RMM:  14    -0.413175829851E+03    0.36494E-06   -0.22374E-07  1837   0.838E-04
   24 T=    63. E= -.41286705E+03 F= -.41317583E+03 E0= -.41315398E+03  EK= 0.30878E+00 SP= 0.00E+00 SK= 0.00E+00
       N       E                     dE             d eps       ncg     rms          rms(c)
RMM:   1    -0.413179171325E+03   -0.33411E-02   -0.89347E+00  4293   0.731E-01    0.908E-01
RMM:   2    -0.413181430986E+03   -0.22597E-02   -0.11128E-01  4275   0.927E-02    0.663E-01
RMM:   3    -0.413177398896E+03    0.40321E-02   -0.19037E-02  4849   0.535E-02    0.110E-01
RMM:   4    -0.413205102347E+03   -0.27703E-01   -0.29377E-02  5124   0.143E-01    0.696E-01
RMM:   5    -0.413176719407E+03    0.28383E-01   -0.13731E-02  4797   0.115E-01    0.495E-02
RMM:   6    -0.413176881513E+03   -0.16211E-03   -0.24764E-03  5803   0.479E-02    0.339E-02
RMM:   7    -0.413176874980E+03    0.65334E-05   -0.40441E-04  5603   0.196E-02    0.212E-02
RMM:   8    -0.413176863003E+03    0.11977E-04   -0.66663E-05  5065   0.912E-03    0.107E-02
RMM:   9    -0.413176857577E+03    0.54262E-05   -0.12896E-05  3917   0.412E-03    0.777E-03
RMM:  10    -0.413176854631E+03    0.29457E-05   -0.20255E-06  2558   0.232E-03    0.466E-03
RMM:  11    -0.413176852390E+03    0.22411E-05   -0.12292E-06  2506   0.181E-03    0.258E-03
RMM:  12    -0.413176848567E+03    0.38228E-05   -0.16739E-06  2549   0.199E-03    0.113E-03
RMM:  13    -0.413176846509E+03    0.20585E-05   -0.55426E-07  2367   0.132E-03    0.772E-04
RMM:  14    -0.413176846309E+03    0.20022E-06   -0.24448E-07  1941   0.869E-04
   25 T=    63. E= -.41286690E+03 F= -.41317685E+03 E0= -.41315505E+03  EK= 0.30995E+00 SP= 0.00E+00 SK= 0.00E+00
       N       E                     dE             d eps       ncg     rms          rms(c)
RMM:   1    -0.413178758946E+03   -0.19124E-02   -0.89181E+00  4295   0.718E-01    0.918E-01
RMM:   2    -0.413182272089E+03   -0.35131E-02   -0.11034E-01  4273   0.935E-02    0.658E-01
RMM:   3    -0.413178531537E+03    0.37406E-02   -0.18185E-02  4769   0.512E-02    0.100E-01
RMM:   4    -0.413201472742E+03   -0.22941E-01   -0.23806E-02  5137   0.129E-01    0.634E-01
RMM:   5    -0.413178070568E+03    0.23402E-01   -0.11570E-02  4803   0.105E-01    0.479E-02
RMM:   6    -0.413178184879E+03   -0.11431E-03   -0.20638E-03  5818   0.432E-02    0.313E-02
RMM:   7    -0.413178176130E+03    0.87493E-05   -0.28355E-04  5635   0.173E-02    0.173E-02
RMM:   8    -0.413178166613E+03    0.95167E-05   -0.56784E-05  4977   0.810E-03    0.106E-02
RMM:   9    -0.413178159814E+03    0.67988E-05   -0.11290E-05  3844   0.394E-03    0.780E-03
RMM:  10    -0.413178154536E+03    0.52785E-05   -0.19484E-06  2555   0.238E-03    0.455E-03
RMM:  11    -0.413178149434E+03    0.51021E-05   -0.14676E-06  2525   0.195E-03    0.242E-03
RMM:  12    -0.413178142228E+03    0.72050E-05   -0.14699E-06  2526   0.193E-03    0.101E-03
RMM:  13    -0.413178139260E+03    0.29681E-05   -0.50204E-07  2318   0.125E-03    0.641E-04
RMM:  14    -0.413178138631E+03    0.62923E-06   -0.23668E-07  1852   0.853E-04
   26 T=    63. E= -.41286683E+03 F= -.41317814E+03 E0= -.41315639E+03  EK= 0.31131E+00 SP= 0.00E+00 SK= 0.00E+00
       N       E                     dE             d eps       ncg     rms          rms(c)
RMM:   1    -0.413184241474E+03   -0.61022E-02   -0.89600E+00  4291   0.749E-01    0.898E-01
RMM:   2    -0.413184206044E+03    0.35430E-04   -0.11427E-01  4270   0.989E-02    0.659E-01
RMM:   3    -0.413180297441E+03    0.39086E-02   -0.18445E-02  4739   0.526E-02    0.924E-02
RMM:   4    -0.413200591520E+03   -0.20294E-01   -0.20926E-02  5135   0.121E-01    0.598E-01
RMM:   5    -0.413179881966E+03    0.20710E-01   -0.10261E-02  4807   0.987E-02    0.462E-02
RMM:   6    -0.413179991784E+03   -0.10982E-03   -0.18398E-03  5828   0.406E-02    0.300E-02
RMM:   7    -0.413179989459E+03    0.23251E-05   -0.26398E-04  5608   0.168E-02    0.168E-02
RMM:   8    -0.413179982354E+03    0.71053E-05   -0.51270E-05  4938   0.785E-03    0.100E-02
RMM:   9    -0.413179977541E+03    0.48124E-05   -0.10022E-05  3684   0.376E-03    0.736E-03
RMM:  10    -0.413179974916E+03    0.26249E-05   -0.17391E-06  2527   0.229E-03    0.427E-03
RMM:  11    -0.413179972154E+03    0.27626E-05   -0.14692E-06  2528   0.194E-03    0.218E-03
RMM:  12    -0.413179968633E+03    0.35204E-05   -0.12223E-06  2493   0.177E-03    0.943E-04
RMM:  13    -0.413179967159E+03    0.14742E-05   -0.45181E-07  2265   0.118E-03    0.598E-04
RMM:  14    -0.413179966512E+03    0.64696E-06   -0.21347E-07  1772   0.820E-04
   27 T=    64. E= -.41286708E+03 F= -.41317997E+03 E0= -.41315827E+03  EK= 0.31289E+00 SP= 0.00E+00 SK= 0.00E+00
       N       E                     dE             d eps       ncg     rms          rms(c)
RMM:   1    -0.413181244004E+03   -0.12768E-02   -0.90273E+00  4292   0.724E-01    0.909E-01
RMM:   2    -0.413185456256E+03   -0.42123E-02   -0.11262E-01  4272   0.992E-02    0.668E-01
RMM:   3    -0.413181373347E+03    0.40829E-02   -0.19551E-02  4721   0.539E-02    0.921E-02
RMM:   4    -0.413201036676E+03   -0.19663E-01   -0.20258E-02  5136   0.119E-01    0.589E-01
RMM:   5    -0.413180937169E+03    0.20100E-01   -0.99324E-03  4806   0.972E-02    0.459E-02
RMM:   6    -0.413181045314E+03   -0.10815E-03   -0.17969E-03  5835   0.401E-02    0.299E-02
RMM:   7    -0.413181043880E+03    0.14346E-05   -0.26468E-04  5600   0.167E-02    0.170E-02
RMM:   8    -0.413181037149E+03    0.67311E-05   -0.50340E-05  4938   0.778E-03    0.994E-03
RMM:   9    -0.413181032693E+03    0.44560E-05   -0.95883E-06  3630   0.369E-03    0.727E-03
RMM:  10    -0.413181030657E+03    0.20351E-05   -0.17356E-06  2530   0.226E-03    0.418E-03
RMM:  11    -0.413181028445E+03    0.22122E-05   -0.14656E-06  2532   0.193E-03    0.211E-03
RMM:  12    -0.413181025665E+03    0.27800E-05   -0.11898E-06  2493   0.174E-03    0.959E-04
RMM:  13    -0.413181024470E+03    0.11951E-05   -0.44072E-07  2261   0.116E-03    0.601E-04
RMM:  14    -0.413181023815E+03    0.65532E-06   -0.20798E-07  1768   0.811E-04
   28 T=    64. E= -.41286674E+03 F= -.41318102E+03 E0= -.41315938E+03  EK= 0.31429E+00 SP= 0.00E+00 SK= 0.00E+00
       N       E                     dE             d eps       ncg     rms          rms(c)
RMM:   1    -0.413183958583E+03   -0.29341E-02   -0.90494E+00  4289   0.746E-01    0.926E-01
RMM:   2    -0.413187399812E+03   -0.34412E-02   -0.11284E-01  4268   0.101E-01    0.664E-01
RMM:   3    -0.413183280488E+03    0.41193E-02   -0.18357E-02  4635   0.501E-02    0.846E-02
RMM:   4    -0.413197231070E+03   -0.13951E-01   -0.14179E-02  5140   0.996E-02    0.497E-01
RMM:   5    -0.413183048833E+03    0.14182E-01   -0.71397E-03  4824   0.820E-02    0.448E-02
RMM:   6    -0.413183110538E+03   -0.61705E-04   -0.13145E-03  5834   0.339E-02    0.275E-02
RMM:   7    -0.413183102103E+03    0.84342E-05   -0.16648E-04  5497   0.139E-02    0.133E-02
RMM:   8    -0.413183093130E+03    0.89736E-05   -0.22082E-05  4372   0.517E-03    0.805E-03
RMM:   9    -0.413183090751E+03    0.23792E-05   -0.64809E-06  3228   0.298E-03    0.633E-03
RMM:  10    -0.413183085643E+03    0.51072E-05   -0.13834E-06  2517   0.206E-03    0.360E-03
RMM:  11    -0.413183079542E+03    0.61016E-05   -0.14927E-06  2525   0.194E-03    0.189E-03
RMM:  12    -0.413183073756E+03    0.57858E-05   -0.93586E-07  2457   0.158E-03    0.108E-03
RMM:  13    -0.413183071855E+03    0.19010E-05   -0.35072E-07  2188   0.105E-03    0.552E-04
RMM:  14    -0.413183070498E+03    0.13566E-05   -0.16229E-07  1577   0.748E-04    0.415E-04
RMM:  15    -0.413183065823E+03    0.46756E-05   -0.19325E-07  2035   0.803E-04    0.387E-04
RMM:  16    -0.413183062843E+03    0.29799E-05   -0.76577E-08  1189   0.613E-04    0.301E-04
RMM:  17    -0.413183059449E+03    0.33940E-05   -0.46798E-08   879   0.560E-04    0.193E-04
RMM:  18    -0.413183056197E+03    0.32516E-05   -0.52585E-08  1004   0.590E-04    0.666E-05
RMM:  19    -0.413183054220E+03    0.19772E-05   -0.30639E-08   888   0.568E-04    0.112E-04
RMM:  20    -0.413183054109E+03    0.11080E-06   -0.96678E-09   665   0.527E-04
   29 T=    64. E= -.41286696E+03 F= -.41318305E+03 E0= -.41316146E+03  EK= 0.31609E+00 SP= 0.00E+00 SK= 0.00E+00
       N       E                     dE             d eps       ncg     rms          rms(c)
RMM:   1    -0.413186774309E+03   -0.37201E-02   -0.90441E+00  4288   0.778E-01    0.907E-01
RMM:   2    -0.413189664642E+03   -0.28903E-02   -0.11573E-01  4272   0.111E-01    0.662E-01
RMM:   3    -0.413185195026E+03    0.44696E-02   -0.18363E-02  4600   0.568E-02    0.831E-02
RMM:   4    -0.413199849195E+03   -0.14654E-01   -0.14839E-02  5136   0.102E-01    0.510E-01
RMM:   5    -0.413184943052E+03    0.14906E-01   -0.75067E-03  4816   0.841E-02    0.442E-02
RMM:   6    -0.413185007185E+03   -0.64133E-04   -0.13577E-03  5842   0.344E-02    0.271E-02
RMM:   7    -0.413185006960E+03    0.22437E-06   -0.19183E-04  5526   0.145E-02    0.146E-02
RMM:   8    -0.413184996386E+03    0.10575E-04   -0.30280E-05  4681   0.606E-03    0.847E-03
RMM:   9    -0.413184995070E+03    0.13154E-05   -0.72086E-06  3335   0.321E-03    0.662E-03
RMM:  10    -0.413184991756E+03    0.33140E-05   -0.14354E-06  2509   0.211E-03    0.366E-03
RMM:  11    -0.413184988700E+03    0.30561E-05   -0.11706E-06  2499   0.176E-03    0.192E-03
RMM:  12    -0.413184985123E+03    0.35772E-05   -0.92595E-07  2464   0.154E-03    0.101E-03
RMM:  13    -0.413184983783E+03    0.13402E-05   -0.34936E-07  2177   0.104E-03    0.500E-04
RMM:  14    -0.413184982857E+03    0.92589E-06   -0.16453E-07  1563   0.747E-04
   30 T=    65. E= -.41286699E+03 F= -.41318498E+03 E0= -.41316344E+03  EK= 0.31799E+00 SP= 0.00E+00 SK= 0.00E+00
       N       E                     dE             d eps       ncg     rms          rms(c)
RMM:   1    -0.413186819232E+03   -0.18354E-02   -0.91604E+00  4294   0.750E-01    0.912E-01
RMM:   2    -0.413191777519E+03   -0.49583E-02   -0.11536E-01  4272   0.110E-01    0.673E-01
RMM:   3    -0.413186954822E+03    0.48227E-02   -0.19978E-02  4587   0.622E-02    0.836E-02
RMM:   4    -0.413202382523E+03   -0.15428E-01   -0.15599E-02  5136   0.105E-01    0.523E-01
RMM:   5    -0.413186628504E+03    0.15754E-01   -0.78909E-03  4818   0.862E-02    0.442E-02
RMM:   6    -0.413186704205E+03   -0.75702E-04   -0.14307E-03  5842   0.352E-02    0.275E-02
RMM:   7    -0.413186707891E+03   -0.36854E-05   -0.20030E-04  5514   0.149E-02    0.148E-02
RMM:   8    -0.413186697961E+03    0.99292E-05   -0.32363E-05  4720   0.624E-03    0.856E-03
RMM:   9    -0.413186697200E+03    0.76092E-06   -0.77591E-06  3432   0.330E-03
   31 T=    65. E= -.41286678E+03 F= -.41318670E+03 E0= -.41316520E+03  EK= 0.31992E+00 SP= 0.00E+00 SK= 0.00E+00
       N       E                     dE             d eps       ncg     rms          rms(c)
RMM:   1    -0.413201314159E+03   -0.14616E-01   -0.93143E+00  4295   0.848E-01    0.932E-01
RMM:   2    -0.413193992430E+03    0.73217E-02   -0.12940E-01  4301   0.120E-01    0.673E-01
RMM:   3    -0.413193507813E+03    0.48462E-03   -0.20381E-02  5036   0.885E-02    0.287E-01
RMM:   4    -0.413224072931E+03   -0.30565E-01   -0.47282E-02  5081   0.184E-01    0.766E-01
RMM:   5    -0.413189175380E+03    0.34898E-01   -0.14538E-02  4725   0.125E-01    0.598E-02
RMM:   6    -0.413189292930E+03   -0.11755E-03   -0.28604E-03  5713   0.513E-02    0.361E-02
RMM:   7    -0.413189297941E+03   -0.50113E-05   -0.46593E-04  5794   0.198E-02    0.234E-02
RMM:   8    -0.413189289087E+03    0.88538E-05   -0.86411E-05  5156   0.104E-02    0.104E-02
RMM:   9    -0.413189279421E+03    0.96668E-05   -0.12975E-05  3961   0.448E-03    0.528E-03
RMM:  10    -0.413189274246E+03    0.51742E-05   -0.28081E-06  2667   0.244E-03    0.350E-03
RMM:  11    -0.413189268630E+03    0.56164E-05   -0.11875E-06  2495   0.181E-03    0.183E-03
RMM:  12    -0.413189260999E+03    0.76311E-05   -0.91776E-07  2465   0.156E-03    0.637E-04
RMM:  13    -0.413189257205E+03    0.37941E-05   -0.46813E-07  2299   0.114E-03    0.394E-04
RMM:  14    -0.413189254957E+03    0.22477E-05   -0.24847E-07  1845   0.855E-04    0.303E-04
RMM:  15    -0.413189249696E+03    0.52612E-05   -0.17473E-07  1537   0.756E-04    0.188E-04
RMM:  16    -0.413189245050E+03    0.46459E-05   -0.11594E-07  1262   0.674E-04    0.197E-04
RMM:  17    -0.413189240722E+03    0.43277E-05   -0.90356E-08  1181   0.642E-04    0.125E-04
RMM:  18    -0.413189238259E+03    0.24634E-05   -0.61518E-08  1084   0.610E-04    0.524E-05
RMM:  19    -0.413189235311E+03    0.29480E-05   -0.52685E-08  1084   0.599E-04    0.418E-05
RMM:  20    -0.413189235012E+03    0.29876E-06   -0.22790E-08   777   0.543E-04
   32 T=    66. E= -.41286705E+03 F= -.41318924E+03 E0= -.41316779E+03  EK= 0.32218E+00 SP= 0.00E+00 SK= 0.00E+00
       N       E                     dE             d eps       ncg     rms          rms(c)
RMM:   1    -0.413201862827E+03   -0.12628E-01   -0.92899E+00  4298   0.860E-01    0.919E-01
RMM:   2    -0.413195633532E+03    0.62293E-02   -0.12918E-01  4279   0.122E-01    0.668E-01
RMM:   3    -0.413191190330E+03    0.44432E-02   -0.17482E-02  4397   0.629E-02    0.806E-02
RMM:   4    -0.413195990744E+03   -0.48004E-02   -0.51009E-03  5155   0.600E-02    0.294E-01
RMM:   5    -0.413191159310E+03    0.48314E-02   -0.24997E-03  4824   0.488E-02    0.422E-02
RMM:   6    -0.413191197552E+03   -0.38242E-04   -0.72600E-04  5683   0.253E-02    0.304E-02
RMM:   7    -0.413191170612E+03    0.26940E-04   -0.25560E-04  5175   0.164E-02    0.180E-02
RMM:   8    -0.413191158914E+03    0.11698E-04   -0.22913E-05  4460   0.587E-03    0.740E-03
RMM:   9    -0.413191156731E+03    0.21830E-05   -0.29667E-06  2671   0.231E-03    0.482E-03
RMM:  10    -0.413191152477E+03    0.42541E-05   -0.11835E-06  2487   0.179E-03    0.262E-03
RMM:  11    -0.413191148484E+03    0.39930E-05   -0.81681E-07  2435   0.144E-03    0.118E-03
RMM:  12    -0.413191144786E+03    0.36982E-05   -0.44592E-07  2225   0.110E-03    0.515E-04
RMM:  13    -0.413191142238E+03    0.25480E-05   -0.24421E-07  1811   0.842E-04    0.279E-04
RMM:  14    -0.413191139394E+03    0.28443E-05   -0.12219E-07  1242   0.684E-04    0.186E-04
RMM:  15    -0.413191135603E+03    0.37911E-05   -0.86567E-08  1104   0.645E-04    0.890E-05
RMM:  16    -0.413191133000E+03    0.26027E-05   -0.55438E-08   981   0.613E-04    0.682E-05
RMM:  17    -0.413191129745E+03    0.32548E-05   -0.58362E-08  1108   0.613E-04    0.513E-05
RMM:  18    -0.413191127453E+03    0.22922E-05   -0.37157E-08   956   0.574E-04    0.374E-05
RMM:  19    -0.413191126775E+03    0.67787E-06   -0.16560E-08   714   0.531E-04
   33 T=    66. E= -.41286684E+03 F= -.41319113E+03 E0= -.41316973E+03  EK= 0.32429E+00 SP= 0.00E+00 SK= 0.00E+00
       N       E                     dE             d eps       ncg     rms          rms(c)
RMM:   1    -0.413193882944E+03   -0.27555E-02   -0.93134E+00  4301   0.798E-01    0.917E-01
RMM:   2    -0.413198151444E+03   -0.42685E-02   -0.11965E-01  4274   0.123E-01    0.678E-01
RMM:   3    -0.413193527230E+03    0.46242E-02   -0.20058E-02  4335   0.706E-02    0.619E-02
RMM:   4    -0.413196557253E+03   -0.30300E-02   -0.31848E-03  5153   0.482E-02    0.237E-01
RMM:   5    -0.413193460561E+03    0.30967E-02   -0.16361E-03  4832   0.394E-02    0.409E-02
RMM:   6    -0.413193499278E+03   -0.38717E-04   -0.60502E-04  5594   0.232E-02    0.300E-02
RMM:   7    -0.413193471036E+03    0.28243E-04   -0.23017E-04  5093   0.159E-02    0.185E-02
RMM:   8    -0.413193462234E+03    0.88019E-05   -0.24322E-05  4381   0.558E-03    0.687E-03
RMM:   9    -0.413193461402E+03    0.83190E-06   -0.26322E-06  2589   0.223E-03
   34 T=    66. E= -.41286684E+03 F= -.41319346E+03 E0= -.41317211E+03  EK= 0.32662E+00 SP= 0.00E+00 SK= 0.00E+00
       N       E                     dE             d eps       ncg     rms          rms(c)
RMM:   1    -0.413203566277E+03   -0.10104E-01   -0.94422E+00  4300   0.889E-01    0.938E-01
RMM:   2    -0.413200476552E+03    0.30897E-02   -0.13206E-01  4272   0.132E-01    0.682E-01
RMM:   3    -0.413196493815E+03    0.39827E-02   -0.18164E-02  4612   0.732E-02    0.107E-01
RMM:   4    -0.413221108666E+03   -0.24615E-01   -0.25134E-02  5137   0.133E-01    0.656E-01
RMM:   5    -0.413196074633E+03    0.25034E-01   -0.12476E-02  4815   0.109E-01    0.491E-02
RMM:   6    -0.413196202342E+03   -0.12771E-03   -0.22292E-03  5832   0.439E-02    0.326E-02
RMM:   7    -0.413196208695E+03   -0.63526E-05   -0.34715E-04  5565   0.185E-02    0.196E-02
RMM:   8    -0.413196189766E+03    0.18929E-04   -0.57971E-05  5041   0.840E-03    0.103E-02
RMM:   9    -0.413196185978E+03    0.37875E-05   -0.12853E-05  3997   0.424E-03    0.753E-03
RMM:  10    -0.413196179597E+03    0.63809E-05   -0.20483E-06  2580   0.243E-03    0.438E-03
RMM:  11    -0.413196175270E+03    0.43270E-05   -0.10530E-06  2494   0.172E-03    0.258E-03
RMM:  12    -0.413196166774E+03    0.84957E-05   -0.16015E-06  2530   0.200E-03    0.124E-03
RMM:  13    -0.413196162925E+03    0.38491E-05   -0.55098E-07  2359   0.131E-03    0.705E-04
RMM:  14    -0.413196162013E+03    0.91247E-06   -0.23953E-07  1912   0.865E-04
   35 T=    67. E= -.41286699E+03 F= -.41319616E+03 E0= -.41317486E+03  EK= 0.32917E+00 SP= 0.00E+00 SK= 0.00E+00
       N       E                     dE             d eps       ncg     rms          rms(c)
RMM:   1    -0.413204806322E+03   -0.86434E-02   -0.94388E+00  4300   0.907E-01    0.936E-01
RMM:   2    -0.413202452449E+03    0.23539E-02   -0.12384E-01  4257   0.132E-01    0.675E-01
RMM:   3    -0.413198523855E+03    0.39286E-02   -0.18677E-02  4519   0.719E-02    0.870E-02
RMM:   4    -0.413211907976E+03   -0.13384E-01   -0.13495E-02  5155   0.976E-02    0.489E-01
RMM:   5    -0.413198377322E+03    0.13531E-01   -0.69108E-03  4822   0.810E-02    0.459E-02
RMM:   6    -0.413198399424E+03   -0.22102E-04   -0.13616E-03  5791   0.354E-02    0.313E-02
RMM:   7    -0.413198398031E+03    0.13934E-05   -0.32999E-04  5401   0.182E-02    0.204E-02
RMM:   8    -0.413198378088E+03    0.19943E-04   -0.38601E-05  4892   0.747E-03    0.937E-03
RMM:   9    -0.413198375014E+03    0.30742E-05   -0.70984E-06  3172   0.329E-03    0.617E-03
RMM:  10    -0.413198368802E+03    0.62116E-05   -0.17649E-06  2533   0.229E-03    0.326E-03
RMM:  11    -0.413198362748E+03    0.60542E-05   -0.11996E-06  2497   0.180E-03    0.170E-03
RMM:  12    -0.413198355986E+03    0.67622E-05   -0.79896E-07  2445   0.149E-03    0.879E-04
RMM:  13    -0.413198352593E+03    0.33933E-05   -0.36004E-07  2116   0.103E-03    0.428E-04
RMM:  14    -0.413198350084E+03    0.25085E-05   -0.18519E-07  1602   0.773E-04    0.281E-04
RMM:  15    -0.413198345072E+03    0.50124E-05   -0.11552E-07  1311   0.695E-04    0.134E-04
RMM:  16    -0.413198340718E+03    0.43534E-05   -0.75285E-08  1095   0.648E-04    0.107E-04
RMM:  17    -0.413198337419E+03    0.32996E-05   -0.48723E-08   925   0.608E-04    0.678E-05
RMM:  18    -0.413198332097E+03    0.53214E-05   -0.65364E-08  1258   0.643E-04    0.375E-05
RMM:  19    -0.413198330917E+03    0.11808E-05   -0.24286E-08   763   0.540E-04    0.261E-05
RMM:  20    -0.413198330446E+03    0.47017E-06   -0.14399E-08   629   0.518E-04
   36 T=    68. E= -.41286676E+03 F= -.41319833E+03 E0= -.41317707E+03  EK= 0.33157E+00 SP= 0.00E+00 SK= 0.00E+00
       N       E                     dE             d eps       ncg     rms          rms(c)
RMM:   1    -0.413207438777E+03   -0.91079E-02   -0.95288E+00  4302   0.905E-01    0.925E-01
RMM:   2    -0.413206097484E+03    0.13413E-02   -0.12493E-01  4256   0.131E-01    0.683E-01
RMM:   3    -0.413201412971E+03    0.46845E-02   -0.19730E-02  4498   0.688E-02    0.741E-02
RMM:   4    -0.413211416323E+03   -0.10003E-01   -0.10115E-02  5157   0.848E-02    0.425E-01
RMM:   5    -0.413201267933E+03    0.10148E-01   -0.51682E-03  4826   0.703E-02    0.442E-02
RMM:   6    -0.413201289741E+03   -0.21808E-04   -0.11101E-03  5744   0.318E-02    0.310E-02
RMM:   7    -0.413201289727E+03    0.14326E-07   -0.32179E-04  5322   0.179E-02    0.201E-02
RMM:   8    -0.413201274451E+03    0.15276E-04   -0.34477E-05  4867   0.708E-03    0.903E-03
RMM:   9    -0.413201273317E+03    0.11338E-05   -0.58318E-06  2971   0.296E-03    0.554E-03
RMM:  10    -0.413201271234E+03    0.20831E-05   -0.16646E-06  2528   0.217E-03    0.293E-03
RMM:  11    -0.413201268735E+03    0.24992E-05   -0.10881E-06  2487   0.171E-03    0.147E-03
RMM:  12    -0.413201266045E+03    0.26895E-05   -0.65690E-07  2393   0.133E-03    0.732E-04
RMM:  13    -0.413201264376E+03    0.16695E-05   -0.32480E-07  2003   0.955E-04    0.357E-04
RMM:  14    -0.413201262614E+03    0.17619E-05   -0.16828E-07  1490   0.743E-04    0.219E-04
RMM:  15    -0.413201259760E+03    0.28532E-05   -0.10431E-07  1197   0.670E-04    0.118E-04
RMM:  16    -0.413201257410E+03    0.23506E-05   -0.69204E-08  1027   0.631E-04    0.768E-05
RMM:  17    -0.413201255583E+03    0.18267E-05   -0.44292E-08   935   0.600E-04    0.494E-05
RMM:  18    -0.413201252349E+03    0.32336E-05   -0.52381E-08  1075   0.611E-04    0.284E-05
RMM:  19    -0.413201251462E+03    0.88790E-06   -0.19905E-08   756   0.549E-04
   37 T=    68. E= -.41286704E+03 F= -.41320125E+03 E0= -.41318003E+03  EK= 0.33421E+00 SP= 0.00E+00 SK= 0.00E+00
       N       E                     dE             d eps       ncg     rms          rms(c)
RMM:   1    -0.413212827469E+03   -0.11575E-01   -0.96520E+00  4307   0.949E-01    0.943E-01
RMM:   2    -0.413208930142E+03    0.38973E-02   -0.13272E-01  4257   0.128E-01    0.689E-01
RMM:   3    -0.413204287105E+03    0.46430E-02   -0.18766E-02  4718   0.639E-02    0.107E-01
RMM:   4    -0.413231079736E+03   -0.26793E-01   -0.27523E-02  5131   0.139E-01    0.685E-01
RMM:   5    -0.413203875773E+03    0.27204E-01   -0.13659E-02  4805   0.114E-01    0.503E-02
RMM:   6    -0.413203921516E+03   -0.45743E-04   -0.23151E-03  5837   0.455E-02    0.326E-02
RMM:   7    -0.413203931868E+03   -0.10352E-04   -0.34628E-04  5604   0.182E-02    0.190E-02
RMM:   8    -0.413203919056E+03    0.12812E-04   -0.61550E-05  5031   0.840E-03    0.104E-02
RMM:   9    -0.413203917265E+03    0.17909E-05   -0.15327E-05  4248   0.457E-03    0.738E-03
RMM:  10    -0.413203912798E+03    0.44667E-05   -0.22555E-06  2619   0.249E-03    0.409E-03
RMM:  11    -0.413203910190E+03    0.26079E-05   -0.11038E-06  2497   0.172E-03    0.251E-03
RMM:  12    -0.413203904028E+03    0.61623E-05   -0.16585E-06  2534   0.205E-03    0.132E-03
RMM:  13    -0.413203900945E+03    0.30827E-05   -0.60390E-07  2373   0.136E-03    0.785E-04
RMM:  14    -0.413203900350E+03    0.59538E-06   -0.25029E-07  1970   0.888E-04
   38 T=    69. E= -.41286706E+03 F= -.41320390E+03 E0= -.41318272E+03  EK= 0.33684E+00 SP= 0.00E+00 SK= 0.00E+00
       N       E                     dE             d eps       ncg     rms          rms(c)
RMM:   1    -0.413215029599E+03   -0.11129E-01   -0.96713E+00  4305   0.101E+00    0.953E-01
RMM:   2    -0.413211450049E+03    0.35796E-02   -0.12997E-01  4256   0.124E-01    0.685E-01
RMM:   3    -0.413206984662E+03    0.44654E-02   -0.18611E-02  4849   0.600E-02    0.125E-01
RMM:   4    -0.413240308823E+03   -0.33324E-01   -0.34973E-02  5132   0.156E-01    0.762E-01
RMM:   5    -0.413206380394E+03    0.33928E-01   -0.16885E-02  4802   0.127E-01    0.535E-02
RMM:   6    -0.413206452855E+03   -0.72461E-04   -0.28522E-03  5821   0.502E-02    0.348E-02
RMM:   7    -0.413206457367E+03   -0.45116E-05   -0.38615E-04  5653   0.189E-02    0.192E-02
RMM:   8    -0.413206444585E+03    0.12782E-04   -0.64005E-05  5043   0.839E-03    0.109E-02
RMM:   9    -0.413206441681E+03    0.29044E-05   -0.19580E-05  4476   0.488E-03    0.790E-03
RMM:  10    -0.413206434217E+03    0.74638E-05   -0.26468E-06  2651   0.266E-03    0.442E-03
RMM:  11    -0.413206429984E+03    0.42332E-05   -0.12745E-06  2505   0.185E-03    0.272E-03
RMM:  12    -0.413206419622E+03    0.10362E-04   -0.18280E-06  2541   0.218E-03    0.138E-03
RMM:  13    -0.413206414754E+03    0.48684E-05   -0.68921E-07  2411   0.147E-03    0.882E-04
RMM:  14    -0.413206414006E+03    0.74787E-06   -0.27603E-07  2092   0.943E-04
   39 T=    69. E= -.41286690E+03 F= -.41320641E+03 E0= -.41318528E+03  EK= 0.33952E+00 SP= 0.00E+00 SK= 0.00E+00
       N       E                     dE             d eps       ncg     rms          rms(c)
RMM:   1    -0.413219838256E+03   -0.13424E-01   -0.97394E+00  4307   0.103E+00    0.934E-01
RMM:   2    -0.413214962414E+03    0.48758E-02   -0.13699E-01  4255   0.127E-01    0.689E-01
RMM:   3    -0.413210453803E+03    0.45086E-02   -0.18817E-02  4913   0.649E-02    0.147E-01
RMM:   4    -0.413252644972E+03   -0.42191E-01   -0.45978E-02  5131   0.179E-01    0.855E-01
RMM:   5    -0.413209420491E+03    0.43224E-01   -0.21153E-02  4790   0.142E-01    0.564E-02
RMM:   6    -0.413209542457E+03   -0.12197E-03   -0.35773E-03  5820   0.558E-02    0.357E-02
RMM:   7    -0.413209551052E+03   -0.85947E-05   -0.41790E-04  5675   0.194E-02    0.187E-02
RMM:   8    -0.413209545908E+03    0.51441E-05   -0.55607E-05  4874   0.748E-03    0.997E-03
RMM:   9    -0.413209541324E+03    0.45842E-05   -0.16502E-05  4205   0.425E-03    0.698E-03
RMM:  10    -0.413209538683E+03    0.26410E-05   -0.45280E-06  2945   0.279E-03    0.445E-03
RMM:  11    -0.413209535104E+03    0.35787E-05   -0.14954E-06  2496   0.205E-03    0.268E-03
RMM:  12    -0.413209527127E+03    0.79772E-05   -0.18590E-06  2524   0.218E-03    0.113E-03
RMM:  13    -0.413209523938E+03    0.31885E-05   -0.62508E-07  2423   0.142E-03    0.856E-04
RMM:  14    -0.413209523773E+03    0.16492E-06   -0.26650E-07  2082   0.918E-04
   40 T=    70. E= -.41286715E+03 F= -.41320952E+03 E0= -.41318842E+03  EK= 0.34237E+00 SP= 0.00E+00 SK= 0.00E+00
       N       E                     dE             d eps       ncg     rms          rms(c)
RMM:   1    -0.413217902737E+03   -0.83788E-02   -0.98303E+00  4308   0.105E+00    0.949E-01
RMM:   2    -0.413217240321E+03    0.66242E-03   -0.13460E-01  4258   0.133E-01    0.698E-01
RMM:   3    -0.413213166130E+03    0.40742E-02   -0.20274E-02  4964   0.693E-02    0.175E-01
RMM:   4    -0.413259117127E+03   -0.45951E-01   -0.52616E-02  5128   0.192E-01    0.894E-01
RMM:   5    -0.413211549773E+03    0.47567E-01   -0.22728E-02  4790   0.149E-01    0.586E-02
RMM:   6    -0.413211692656E+03   -0.14288E-03   -0.38975E-03  5819   0.582E-02    0.366E-02
RMM:   7    -0.413211702449E+03   -0.97936E-05   -0.47004E-04  5731   0.203E-02    0.206E-02
RMM:   8    -0.413211702808E+03   -0.35872E-06   -0.96124E-05  5187   0.978E-03    0.131E-02
RMM:   9    -0.413211692688E+03    0.10120E-04   -0.24388E-05  4625   0.553E-03    0.769E-03
RMM:  10    -0.413211688772E+03    0.39162E-05   -0.40072E-06  2781   0.293E-03    0.457E-03
RMM:  11    -0.413211685934E+03    0.28374E-05   -0.14668E-06  2497   0.203E-03    0.280E-03
RMM:  12    -0.413211679095E+03    0.68395E-05   -0.17707E-06  2536   0.214E-03    0.117E-03
RMM:  13    -0.413211674726E+03    0.43684E-05   -0.75908E-07  2445   0.150E-03    0.816E-04
RMM:  14    -0.413211674141E+03    0.58498E-06   -0.31266E-07  2144   0.988E-04
   41 T=    70. E= -.41286680E+03 F= -.41321167E+03 E0= -.41319061E+03  EK= 0.34487E+00 SP= 0.00E+00 SK= 0.00E+00
       N       E                     dE             d eps       ncg     rms          rms(c)
RMM:   1    -0.413233600412E+03   -0.21926E-01   -0.99834E+00  4310   0.120E+00    0.967E-01
RMM:   2    -0.413219300056E+03    0.14300E-01   -0.14303E-01  4287   0.135E-01    0.695E-01
RMM:   3    -0.413217026215E+03    0.22738E-02   -0.19975E-02  5056   0.759E-02    0.243E-01
RMM:   4    -0.413260011646E+03   -0.42985E-01   -0.55942E-02  5100   0.199E-01    0.878E-01
RMM:   5    -0.413214138048E+03    0.45874E-01   -0.20879E-02  4768   0.146E-01    0.616E-02
RMM:   6    -0.413214252750E+03   -0.11470E-03   -0.36774E-03  5791   0.571E-02    0.380E-02
RMM:   7    -0.413214256561E+03   -0.38111E-05   -0.49565E-04  5706   0.210E-02    0.231E-02
RMM:   8    -0.413214253186E+03    0.33752E-05   -0.12829E-04  5245   0.116E-02    0.141E-02
RMM:   9    -0.413214238180E+03    0.15006E-04   -0.22493E-05  4521   0.586E-03    0.657E-03
RMM:  10    -0.413214232057E+03    0.61234E-05   -0.50198E-06  2969   0.295E-03    0.403E-03
RMM:  11    -0.413214227317E+03    0.47400E-05   -0.12988E-06  2499   0.196E-03    0.234E-03
RMM:  12    -0.413214217817E+03    0.94998E-05   -0.11772E-06  2484   0.184E-03    0.952E-04
RMM:  13    -0.413214211650E+03    0.61668E-05   -0.56027E-07  2387   0.131E-03    0.559E-04
RMM:  14    -0.413214210389E+03    0.12616E-05   -0.27056E-07  2017   0.915E-04    0.389E-04
RMM:  15    -0.413214207742E+03    0.26463E-05   -0.13980E-07  1477   0.722E-04    0.229E-04
RMM:  16    -0.413214200144E+03    0.75984E-05   -0.12918E-07  1560   0.734E-04    0.278E-04
RMM:  17    -0.413214198004E+03    0.21394E-05   -0.55650E-08   985   0.595E-04    0.181E-04
RMM:  18    -0.413214192322E+03    0.56822E-05   -0.68320E-08  1307   0.638E-04    0.141E-04
RMM:  19    -0.413214190271E+03    0.20517E-05   -0.35700E-08   974   0.563E-04    0.563E-05
RMM:  20    -0.413214188871E+03    0.13997E-05   -0.27540E-08   929   0.560E-04    0.584E-05
RMM:  21    -0.413214188683E+03    0.18810E-06   -0.12813E-08   701   0.523E-04
   42 T=    71. E= -.41286686E+03 F= -.41321419E+03 E0= -.41319315E+03  EK= 0.34733E+00 SP= 0.00E+00 SK= 0.00E+00
       N       E                     dE             d eps       ncg     rms          rms(c)
RMM:   1    -0.413235875981E+03   -0.21687E-01   -0.99745E+00  4310   0.123E+00    0.945E-01
RMM:   2    -0.413221574386E+03    0.14302E-01   -0.15412E-01  4305   0.144E-01    0.696E-01
RMM:   3    -0.413220767252E+03    0.80713E-03   -0.20031E-02  5070   0.844E-02    0.299E-01
RMM:   4    -0.413258880512E+03   -0.38113E-01   -0.56769E-02  5097   0.201E-01    0.846E-01
RMM:   5    -0.413216329549E+03    0.42551E-01   -0.18422E-02  4738   0.140E-01    0.624E-02
RMM:   6    -0.413216411307E+03   -0.81758E-04   -0.33803E-03  5756   0.550E-02    0.374E-02
RMM:   7    -0.413216413747E+03   -0.24398E-05   -0.51464E-04  5727   0.209E-02    0.244E-02
RMM:   8    -0.413216409503E+03    0.42433E-05   -0.12660E-04  5198   0.118E-02    0.130E-02
RMM:   9    -0.413216398200E+03    0.11303E-04   -0.19663E-05  4421   0.566E-03    0.555E-03
RMM:  10    -0.413216394793E+03    0.34070E-05   -0.44047E-06  2869   0.273E-03    0.348E-03
RMM:  11    -0.413216391632E+03    0.31615E-05   -0.12797E-06  2495   0.190E-03    0.192E-03
RMM:  12    -0.413216386170E+03    0.54619E-05   -0.96694E-07  2477   0.163E-03    0.750E-04
RMM:  13    -0.413216382683E+03    0.34866E-05   -0.46667E-07  2286   0.117E-03    0.384E-04
RMM:  14    -0.413216381231E+03    0.14520E-05   -0.24181E-07  1857   0.859E-04    0.274E-04
RMM:  15    -0.413216378327E+03    0.29048E-05   -0.14123E-07  1416   0.719E-04    0.130E-04
RMM:  16    -0.413216374886E+03    0.34408E-05   -0.96647E-08  1178   0.665E-04    0.112E-04
RMM:  17    -0.413216372595E+03    0.22904E-05   -0.63085E-08  1050   0.629E-04    0.733E-05
RMM:  18    -0.413216369779E+03    0.28167E-05   -0.56644E-08  1141   0.628E-04    0.467E-05
RMM:  19    -0.413216367548E+03    0.22305E-05   -0.40524E-08  1047   0.593E-04    0.321E-05
RMM:  20    -0.413216366779E+03    0.76878E-06   -0.21312E-08   810   0.551E-04
   43 T=    71. E= -.41286692E+03 F= -.41321637E+03 E0= -.41319536E+03  EK= 0.34945E+00 SP= 0.00E+00 SK= 0.00E+00
       N       E                     dE             d eps       ncg     rms          rms(c)
RMM:   1    -0.413233642040E+03   -0.17274E-01   -0.10059E+01  4312   0.128E+00    0.949E-01
RMM:   2    -0.413223197094E+03    0.10445E-01   -0.15671E-01  4318   0.153E-01    0.708E-01
RMM:   3    -0.413223186982E+03    0.10112E-04   -0.21683E-02  5065   0.920E-02    0.328E-01
RMM:   4    -0.413258983502E+03   -0.35797E-01   -0.57638E-02  5090   0.204E-01    0.833E-01
RMM:   5    -0.413217673092E+03    0.41310E-01   -0.17332E-02  4718   0.138E-01    0.625E-02
RMM:   6    -0.413217735870E+03   -0.62779E-04   -0.32318E-03  5733   0.538E-02    0.363E-02
RMM:   7    -0.413217739802E+03   -0.39319E-05   -0.49082E-04  5744   0.205E-02    0.240E-02
RMM:   8    -0.413217735958E+03    0.38440E-05   -0.12537E-04  5182   0.117E-02    0.126E-02
RMM:   9    -0.413217725686E+03    0.10272E-04   -0.19373E-05  4408   0.566E-03    0.514E-03
RMM:  10    -0.413217723337E+03    0.23491E-05   -0.42769E-06  2839   0.267E-03    0.322E-03
RMM:  11    -0.413217720822E+03    0.25151E-05   -0.12991E-06  2497   0.188E-03    0.174E-03
RMM:  12    -0.413217716767E+03    0.40550E-05   -0.88088E-07  2469   0.154E-03    0.713E-04
RMM:  13    -0.413217714103E+03    0.26644E-05   -0.43809E-07  2178   0.111E-03    0.334E-04
RMM:  14    -0.413217712457E+03    0.16462E-05   -0.23310E-07  1743   0.834E-04    0.219E-04
RMM:  15    -0.413217708985E+03    0.34715E-05   -0.16551E-07  1407   0.742E-04    0.130E-04
RMM:  16    -0.413217706903E+03    0.20819E-05   -0.98329E-08  1171   0.665E-04    0.959E-05
RMM:  17    -0.413217704779E+03    0.21246E-05   -0.75144E-08  1159   0.642E-04    0.616E-05
RMM:  18    -0.413217702269E+03    0.25097E-05   -0.60512E-08  1133   0.619E-04    0.350E-05
RMM:  19    -0.413217700275E+03    0.19937E-05   -0.42490E-08  1033   0.588E-04    0.260E-05
RMM:  20    -0.413217699723E+03    0.55177E-06   -0.20108E-08   778   0.545E-04
   44 T=    71. E= -.41286670E+03 F= -.41321770E+03 E0= -.41319672E+03  EK= 0.35100E+00 SP= 0.00E+00 SK= 0.00E+00
       N       E                     dE             d eps       ncg     rms          rms(c)
RMM:   1    -0.413252296089E+03   -0.34596E-01   -0.10214E+01  4310   0.143E+00    0.973E-01
RMM:   2    -0.413224223509E+03    0.28073E-01   -0.16582E-01  4320   0.164E-01    0.705E-01
RMM:   3    -0.413227091220E+03   -0.28677E-02   -0.22402E-02  5096   0.102E-01    0.398E-01
RMM:   4    -0.413250121010E+03   -0.23030E-01   -0.50576E-02  5063   0.193E-01    0.726E-01
RMM:   5    -0.413219237708E+03    0.30883E-01   -0.12106E-02  4685   0.121E-01    0.619E-02
RMM:   6    -0.413219242008E+03   -0.43003E-05   -0.24341E-03  5656   0.472E-02    0.365E-02
RMM:   7    -0.413219237888E+03    0.41205E-05   -0.41514E-04  5656   0.195E-02    0.240E-02
RMM:   8    -0.413219231141E+03    0.67464E-05   -0.12232E-04  5105   0.119E-02    0.116E-02
RMM:   9    -0.413219218743E+03    0.12398E-04   -0.16586E-05  4337   0.556E-03    0.472E-03
RMM:  10    -0.413219214693E+03    0.40507E-05   -0.35193E-06  2783   0.247E-03    0.283E-03
RMM:  11    -0.413219209376E+03    0.53170E-05   -0.12108E-06  2488   0.182E-03    0.153E-03
RMM:  12    -0.413219202972E+03    0.64040E-05   -0.69116E-07  2434   0.141E-03    0.661E-04
RMM:  13    -0.413219199197E+03    0.37748E-05   -0.33595E-07  2026   0.997E-04    0.313E-04
RMM:  14    -0.413219196015E+03    0.31814E-05   -0.18745E-07  1581   0.780E-04    0.188E-04
RMM:  15    -0.413219190687E+03    0.53282E-05   -0.13669E-07  1378   0.720E-04    0.130E-04
RMM:  16    -0.413219187830E+03    0.28573E-05   -0.82981E-08  1153   0.652E-04    0.910E-05
RMM:  17    -0.413219183477E+03    0.43529E-05   -0.79683E-08  1347   0.656E-04    0.569E-05
RMM:  18    -0.413219181019E+03    0.24579E-05   -0.45109E-08  1021   0.582E-04    0.438E-05
RMM:  19    -0.413219178967E+03    0.20521E-05   -0.34253E-08   964   0.566E-04    0.254E-05
RMM:  20    -0.413219178634E+03    0.33314E-06   -0.17069E-08   729   0.529E-04
   45 T=    72. E= -.41286704E+03 F= -.41321918E+03 E0= -.41319822E+03  EK= 0.35214E+00 SP= 0.00E+00 SK= 0.00E+00
       N       E                     dE             d eps       ncg     rms          rms(c)
RMM:   1    -0.413245470370E+03   -0.26291E-01   -0.10061E+01  4310   0.147E+00    0.954E-01
RMM:   2    -0.413224209441E+03    0.21261E-01   -0.15798E-01  4342   0.173E-01    0.699E-01
RMM:   3    -0.413229774519E+03   -0.55651E-02   -0.25069E-02  5099   0.115E-01    0.452E-01
RMM:   4    -0.413243570522E+03   -0.13796E-01   -0.46957E-02  5044   0.188E-01    0.647E-01
RMM:   5    -0.413219137483E+03    0.24433E-01   -0.87246E-03  4638   0.108E-01    0.592E-02
RMM:   6    -0.413219114841E+03    0.22642E-04   -0.19065E-03  5559   0.419E-02    0.343E-02
RMM:   7    -0.413219107857E+03    0.69847E-05   -0.35031E-04  5575   0.182E-02    0.227E-02
RMM:   8    -0.413219098251E+03    0.96058E-05   -0.12179E-04  5073   0.118E-02    0.107E-02
RMM:   9    -0.413219086397E+03    0.11854E-04   -0.14628E-05  4216   0.535E-03    0.444E-03
RMM:  10    -0.413219082895E+03    0.35019E-05   -0.28397E-06  2699   0.232E-03    0.259E-03
RMM:  11    -0.413219077930E+03    0.49647E-05   -0.11536E-06  2490   0.175E-03    0.136E-03
RMM:  12    -0.413219072405E+03    0.55254E-05   -0.64399E-07  2399   0.135E-03    0.651E-04
RMM:  13    -0.413219068933E+03    0.34718E-05   -0.30871E-07  1930   0.951E-04    0.305E-04
RMM:  14    -0.413219065833E+03    0.31006E-05   -0.17439E-07  1468   0.751E-04    0.172E-04
RMM:  15    -0.413219060963E+03    0.48702E-05   -0.13427E-07  1312   0.710E-04    0.126E-04
RMM:  16    -0.413219058411E+03    0.25518E-05   -0.83160E-08  1116   0.647E-04    0.868E-05
RMM:  17    -0.413219053698E+03    0.47123E-05   -0.90332E-08  1436   0.674E-04    0.632E-05
RMM:  18    -0.413219051815E+03    0.18832E-05   -0.44429E-08   974   0.565E-04    0.393E-05
RMM:  19    -0.413219050155E+03    0.16605E-05   -0.33012E-08   902   0.547E-04    0.217E-05
RMM:  20    -0.413219049754E+03    0.40076E-06   -0.18436E-08   728   0.521E-04
   46 T=    72. E= -.41286691E+03 F= -.41321905E+03 E0= -.41319811E+03  EK= 0.35213E+00 SP= 0.00E+00 SK= 0.00E+00
       N       E                     dE             d eps       ncg     rms          rms(c)
RMM:   1    -0.413233641291E+03   -0.14591E-01   -0.99880E+00  4312   0.148E+00    0.947E-01
RMM:   2    -0.413223483324E+03    0.10158E-01   -0.15480E-01  4362   0.179E-01    0.708E-01
RMM:   3    -0.413231376134E+03   -0.78928E-02   -0.28457E-02  5091   0.127E-01    0.497E-01
RMM:   4    -0.413240716445E+03   -0.93403E-02   -0.48016E-02  5032   0.192E-01    0.621E-01
RMM:   5    -0.413218086520E+03    0.22630E-01   -0.76026E-03  4611   0.104E-01    0.582E-02
RMM:   6    -0.413218039693E+03    0.46827E-04   -0.16657E-03  5474   0.395E-02    0.321E-02
RMM:   7    -0.413218035317E+03    0.43758E-05   -0.30520E-04  5576   0.173E-02    0.216E-02
RMM:   8    -0.413218025138E+03    0.10179E-04   -0.12430E-04  5080   0.118E-02    0.103E-02
RMM:   9    -0.413218014489E+03    0.10649E-04   -0.13905E-05  4128   0.532E-03    0.427E-03
RMM:  10    -0.413218012224E+03    0.22647E-05   -0.29339E-06  2718   0.229E-03    0.246E-03
RMM:  11    -0.413218008676E+03    0.35479E-05   -0.11711E-06  2485   0.176E-03    0.126E-03
RMM:  12    -0.413218005136E+03    0.35401E-05   -0.62521E-07  2378   0.132E-03    0.651E-04
RMM:  13    -0.413218002504E+03    0.26321E-05   -0.31163E-07  1849   0.939E-04    0.305E-04
RMM:  14    -0.413217999899E+03    0.26052E-05   -0.18206E-07  1423   0.750E-04    0.166E-04
RMM:  15    -0.413217996501E+03    0.33985E-05   -0.14214E-07  1315   0.707E-04    0.114E-04
RMM:  16    -0.413217994436E+03    0.20647E-05   -0.88352E-08  1150   0.645E-04    0.839E-05
RMM:  17    -0.413217990457E+03    0.39790E-05   -0.97024E-08  1369   0.669E-04    0.602E-05
RMM:  18    -0.413217989115E+03    0.13421E-05   -0.43767E-08   947   0.565E-04    0.381E-05
RMM:  19    -0.413217987938E+03    0.11765E-05   -0.31476E-08   897   0.545E-04    0.226E-05
RMM:  20    -0.413217987189E+03    0.74895E-06   -0.19564E-08   761   0.524E-04
   47 T=    71. E= -.41286698E+03 F= -.41321799E+03 E0= -.41319706E+03  EK= 0.35100E+00 SP= 0.00E+00 SK= 0.00E+00
       N       E                     dE             d eps       ncg     rms          rms(c)
RMM:   1    -0.413244502507E+03   -0.26515E-01   -0.10016E+01  4306   0.165E+00    0.962E-01
RMM:   2    -0.413221112290E+03    0.23390E-01   -0.16739E-01  4407   0.195E-01    0.705E-01
RMM:   3    -0.413235178458E+03   -0.14066E-01   -0.31391E-02  5132   0.142E-01    0.601E-01
RMM:   4    -0.413231085849E+03    0.40926E-02   -0.44382E-02  4995   0.187E-01    0.515E-01
RMM:   5    -0.413216005276E+03    0.15081E-01   -0.49694E-03  4555   0.922E-02    0.583E-02
RMM:   6    -0.413215909947E+03    0.95330E-04   -0.93688E-04  5088   0.324E-02    0.313E-02
RMM:   7    -0.413215898710E+03    0.11237E-04   -0.20050E-04  5550   0.142E-02    0.172E-02
RMM:   8    -0.413215896719E+03    0.19906E-05   -0.12894E-04  5198   0.117E-02    0.123E-02
RMM:   9    -0.413215880087E+03    0.16633E-04   -0.20537E-05  4499   0.606E-03    0.449E-03
RMM:  10    -0.413215877194E+03    0.28923E-05   -0.35143E-06  2768   0.247E-03    0.245E-03
RMM:  11    -0.413215871248E+03    0.59464E-05   -0.14633E-06  2457   0.196E-03    0.130E-03
RMM:  12    -0.413215867226E+03    0.40219E-05   -0.63101E-07  2357   0.138E-03    0.785E-04
RMM:  13    -0.413215862945E+03    0.42814E-05   -0.30510E-07  1847   0.974E-04    0.392E-04
RMM:  14    -0.413215858596E+03    0.43490E-05   -0.16127E-07  1443   0.749E-04    0.215E-04
RMM:  15    -0.413215854585E+03    0.40110E-05   -0.10304E-07  1163   0.661E-04    0.132E-04
RMM:  16    -0.413215851752E+03    0.28330E-05   -0.72756E-08  1082   0.616E-04    0.111E-04
RMM:  17    -0.413215847629E+03    0.41226E-05   -0.71009E-08  1186   0.619E-04    0.655E-05
RMM:  18    -0.413215845184E+03    0.24455E-05   -0.40360E-08   926   0.560E-04    0.544E-05
RMM:  19    -0.413215844245E+03    0.93830E-06   -0.19653E-08   681   0.514E-04
   48 T=    71. E= -.41286728E+03 F= -.41321584E+03 E0= -.41319493E+03  EK= 0.34857E+00 SP= 0.00E+00 SK= 0.00E+00
       N       E                     dE             d eps       ncg     rms          rms(c)
RMM:   1    -0.413242939890E+03   -0.27095E-01   -0.98446E+00  4303   0.177E+00    0.950E-01
RMM:   2    -0.413216434088E+03    0.26506E-01   -0.16607E-01  4474   0.206E-01    0.695E-01
RMM:   3    -0.413237350484E+03   -0.20916E-01   -0.36312E-02  5140   0.159E-01    0.693E-01
RMM:   4    -0.413221833151E+03    0.15517E-01   -0.42699E-02  4968   0.187E-01    0.431E-01
RMM:   5    -0.413211608719E+03    0.10224E-01   -0.38952E-03  4547   0.866E-02    0.604E-02
RMM:   6    -0.413211465018E+03    0.14370E-03   -0.51236E-04  4752   0.285E-02    0.320E-02
RMM:   7    -0.413211467021E+03   -0.20029E-05   -0.25908E-04  5830   0.166E-02    0.193E-02
RMM:   8    -0.413211448338E+03    0.18683E-04   -0.99091E-05  5117   0.111E-02    0.103E-02
RMM:   9    -0.413211440717E+03    0.76202E-05   -0.14038E-05  4310   0.517E-03    0.452E-03
RMM:  10    -0.413211436737E+03    0.39802E-05   -0.22000E-06  2633   0.233E-03    0.240E-03
RMM:  11    -0.413211430493E+03    0.62438E-05   -0.13562E-06  2494   0.188E-03    0.160E-03
RMM:  12    -0.413211426935E+03    0.35588E-05   -0.49600E-07  2391   0.127E-03    0.864E-04
RMM:  13    -0.413211422051E+03    0.48840E-05   -0.32489E-07  2069   0.969E-04    0.459E-04
RMM:  14    -0.413211416423E+03    0.56277E-05   -0.21433E-07  1749   0.801E-04    0.370E-04
RMM:  15    -0.413211412377E+03    0.40461E-05   -0.10952E-07  1119   0.634E-04    0.157E-04
RMM:  16    -0.413211409627E+03    0.27503E-05   -0.78230E-08  1115   0.609E-04    0.970E-05
RMM:  17    -0.413211405172E+03    0.44546E-05   -0.79479E-08  1241   0.625E-04    0.116E-04
RMM:  18    -0.413211404153E+03    0.10192E-05   -0.36359E-08   876   0.540E-04    0.921E-05
RMM:  19    -0.413211402410E+03    0.17429E-05   -0.31860E-08   918   0.542E-04    0.396E-05
RMM:  20    -0.413211400613E+03    0.17964E-05   -0.29196E-08   886   0.536E-04    0.369E-05
RMM:  21    -0.413211400505E+03    0.10854E-06   -0.11378E-08   636   0.487E-04
   49 T=    70. E= -.41286714E+03 F= -.41321140E+03 E0= -.41319050E+03  EK= 0.34426E+00 SP= 0.00E+00 SK= 0.00E+00
       N       E                     dE             d eps       ncg     rms          rms(c)
RMM:   1    -0.413233706700E+03   -0.22306E-01   -0.96706E+00  4303   0.188E+00    0.926E-01
[...]
RMM:   8    -0.413642363832E+03    0.12555E-03   -0.61233E-04  4575   0.325E-02    0.387E-02
RMM:   9    -0.413642376395E+03   -0.12563E-04   -0.49620E-04  4997   0.267E-02    0.189E-02
RMM:  10    -0.413642379586E+03   -0.31911E-05   -0.75531E-05  5552   0.102E-02    0.121E-02
RMM:  11    -0.413642380338E+03   -0.75196E-06   -0.22315E-05  4490   0.604E-03    0.580E-03
RMM:  12    -0.413642385532E+03   -0.51934E-05   -0.57697E-06  3157   0.344E-03    0.313E-03
RMM:  13    -0.413642391184E+03   -0.56519E-05   -0.19659E-06  2663   0.226E-03    0.174E-03
RMM:  14    -0.413642395230E+03   -0.40462E-05   -0.12449E-06  2547   0.166E-03    0.701E-04
RMM:  15    -0.413642398442E+03   -0.32118E-05   -0.75891E-07  2233   0.121E-03    0.416E-04
RMM:  16    -0.413642401698E+03   -0.32567E-05   -0.68968E-07  2250   0.112E-03    0.256E-04
RMM:  17    -0.413642403843E+03   -0.21444E-05   -0.40433E-07  1671   0.855E-04    0.146E-04
RMM:  18    -0.413642406407E+03   -0.25643E-05   -0.42206E-07  1839   0.871E-04    0.803E-05
RMM:  19    -0.413642407923E+03   -0.15158E-05   -0.22414E-07  1348   0.685E-04    0.592E-05
RMM:  20    -0.413642409164E+03   -0.12417E-05   -0.13815E-07  1169   0.625E-04    0.316E-05
RMM:  21    -0.413642410074E+03   -0.90937E-06   -0.85280E-08  1067   0.587E-04
  140 T=   157. E= -.41287337E+03 F= -.41364241E+03 E0= -.41362123E+03  EK= 0.76904E+00 SP= 0.00E+00 SK= 0.00E+00
       N       E                     dE             d eps       ncg     rms          rms(c)
RMM:   1    -0.413763686749E+03   -0.12128E+00   -0.19185E+01  4264   0.830E+00    0.139E+00
RMM:   2    -0.413678652828E+03    0.85034E-01   -0.49450E-01  5345   0.910E-01    0.136E+00
RMM:   3    -0.413702047533E+03   -0.23395E-01   -0.10660E-01  5748   0.342E-01    0.134E+00
RMM:   4    -0.413667912033E+03    0.34136E-01   -0.44884E-02  4987   0.255E-01    0.733E-01
RMM:   5    -0.413668759071E+03   -0.84704E-03   -0.51909E-02  4611   0.301E-01    0.292E-01
RMM:   6    -0.413664144770E+03    0.46143E-02   -0.12010E-02  4799   0.143E-01    0.136E-01
RMM:   7    -0.413663506803E+03    0.63797E-03   -0.16660E-03  5098   0.590E-02    0.753E-02
RMM:   8    -0.413663387805E+03    0.11900E-03   -0.69273E-04  4577   0.346E-02    0.359E-02
RMM:   9    -0.413663389980E+03   -0.21756E-05   -0.40625E-04  5188   0.241E-02    0.169E-02
RMM:  10    -0.413663395130E+03   -0.51495E-05   -0.79456E-05  5717   0.991E-03    0.116E-02
RMM:  11    -0.413663398600E+03   -0.34703E-05   -0.23842E-05  4589   0.628E-03    0.569E-03
RMM:  12    -0.413663406084E+03   -0.74837E-05   -0.55753E-06  3123   0.350E-03    0.314E-03
RMM:  13    -0.413663414664E+03   -0.85803E-05   -0.23350E-06  2710   0.240E-03    0.158E-03
RMM:  14    -0.413663421894E+03   -0.72296E-05   -0.11765E-06  2561   0.168E-03    0.736E-04
RMM:  15    -0.413663428655E+03   -0.67613E-05   -0.88659E-07  2386   0.129E-03    0.490E-04
RMM:  16    -0.413663436456E+03   -0.78004E-05   -0.10671E-06  2368   0.127E-03    0.287E-04
RMM:  17    -0.413663443242E+03   -0.67864E-05   -0.88098E-07  2068   0.110E-03    0.193E-04
RMM:  18    -0.413663449935E+03   -0.66926E-05   -0.91009E-07  2104   0.108E-03    0.157E-04
RMM:  19    -0.413663453297E+03   -0.33621E-05   -0.36932E-07  1502   0.773E-04    0.881E-05
RMM:  20    -0.413663455387E+03   -0.20906E-05   -0.18345E-07  1223   0.660E-04    0.553E-05
RMM:  21    -0.413663456927E+03   -0.15396E-05   -0.11350E-07  1153   0.616E-04    0.425E-05
RMM:  22    -0.413663457899E+03   -0.97174E-06   -0.61580E-08  1011   0.579E-04
  141 T=   159. E= -.41288074E+03 F= -.41366346E+03 E0= -.41364311E+03  EK= 0.78271E+00 SP= 0.00E+00 SK= 0.00E+00
       N       E                     dE             d eps       ncg     rms          rms(c)
RMM:   1    -0.413707048728E+03   -0.43592E-01   -0.18815E+01  4264   0.818E+00    0.138E+00
RMM:   2    -0.413618100151E+03    0.88949E-01   -0.46819E-01  5306   0.890E-01    0.134E+00
RMM:   3    -0.413635662959E+03   -0.17563E-01   -0.10123E-01  5678   0.341E-01    0.132E+00
RMM:   4    -0.413604064970E+03    0.31598E-01   -0.42490E-02  4916   0.257E-01    0.653E-01
RMM:   5    -0.413607830528E+03   -0.37656E-02   -0.54625E-02  4850   0.296E-01    0.315E-01
RMM:   6    -0.413601603563E+03    0.62270E-02   -0.13807E-02  4827   0.152E-01    0.119E-01
RMM:   7    -0.413601242000E+03    0.36156E-03   -0.22011E-03  5521   0.611E-02    0.648E-02
RMM:   8    -0.413601157380E+03    0.84621E-04   -0.62237E-04  4695   0.330E-02    0.331E-02
RMM:   9    -0.413601149923E+03    0.74569E-05   -0.26199E-04  4950   0.204E-02    0.150E-02
RMM:  10    -0.413601156212E+03   -0.62889E-05   -0.72694E-05  5795   0.926E-03    0.104E-02
RMM:  11    -0.413601160574E+03   -0.43624E-05   -0.18839E-05  4568   0.544E-03    0.566E-03
RMM:  12    -0.413601166956E+03   -0.63823E-05   -0.49584E-06  3066   0.345E-03    0.288E-03
RMM:  13    -0.413601173945E+03   -0.69888E-05   -0.19354E-06  2628   0.226E-03    0.143E-03
RMM:  14    -0.413601181705E+03   -0.77594E-05   -0.11859E-06  2556   0.168E-03    0.719E-04
RMM:  15    -0.413601188144E+03   -0.64394E-05   -0.78139E-07  2321   0.123E-03    0.495E-04
RMM:  16    -0.413601196394E+03   -0.82499E-05   -0.10170E-06  2402   0.125E-03    0.299E-04
RMM:  17    -0.413601204018E+03   -0.76239E-05   -0.93279E-07  2138   0.111E-03    0.220E-04
RMM:  18    -0.413601211350E+03   -0.73325E-05   -0.93864E-07  2151   0.109E-03    0.194E-04
RMM:  19    -0.413601214516E+03   -0.31653E-05   -0.34973E-07  1530   0.758E-04    0.109E-04
RMM:  20    -0.413601216286E+03   -0.17708E-05   -0.16411E-07  1199   0.637E-04    0.570E-05
RMM:  21    -0.413601217998E+03   -0.17114E-05   -0.10610E-07  1135   0.606E-04    0.446E-05
RMM:  22    -0.413601218713E+03   -0.71468E-06   -0.54895E-08   993   0.566E-04
  142 T=   149. E= -.41286987E+03 F= -.41360122E+03 E0= -.41358162E+03  EK= 0.73135E+00 SP= 0.00E+00 SK= 0.00E+00
       N       E                     dE             d eps       ncg     rms          rms(c)
RMM:   1    -0.413741668031E+03   -0.14045E+00   -0.17630E+01  4264   0.768E+00    0.998E-01
RMM:   2    -0.413616944740E+03    0.12472E+00   -0.40724E-01  5217   0.781E-01    0.835E-01
RMM:   3    -0.413659957122E+03   -0.43012E-01   -0.89294E-02  5653   0.319E-01    0.100E+00
RMM:   4    -0.413620568812E+03    0.39388E-01   -0.44642E-02  4980   0.241E-01    0.391E-01
RMM:   5    -0.413621377937E+03   -0.80912E-03   -0.39206E-02  5248   0.230E-01    0.249E-01
RMM:   6    -0.413616826122E+03    0.45518E-02   -0.88558E-03  4885   0.123E-01    0.776E-02
RMM:   7    -0.413616824233E+03    0.18888E-05   -0.21797E-03  5729   0.539E-02    0.486E-02
RMM:   8    -0.413616795169E+03    0.29065E-04   -0.43195E-04  5182   0.260E-02    0.246E-02
RMM:   9    -0.413616782683E+03    0.12486E-04   -0.11226E-04  4954   0.139E-02    0.113E-02
RMM:  10    -0.413616784483E+03   -0.18001E-05   -0.26621E-05  5066   0.598E-03    0.735E-03
RMM:  11    -0.413616785795E+03   -0.13118E-05   -0.56912E-06  3197   0.341E-03    0.431E-03
RMM:  12    -0.413616789224E+03   -0.34295E-05   -0.26301E-06  2727   0.277E-03    0.188E-03
RMM:  13    -0.413616791300E+03   -0.20758E-05   -0.77894E-07  2489   0.161E-03    0.938E-04
RMM:  14    -0.413616793930E+03   -0.26299E-05   -0.61760E-07  2451   0.128E-03    0.558E-04
RMM:  15    -0.413616796574E+03   -0.26436E-05   -0.45925E-07  2206   0.105E-03    0.326E-04
RMM:  16    -0.413616799139E+03   -0.25655E-05   -0.34595E-07  1896   0.908E-04    0.215E-04
RMM:  17    -0.413616801735E+03   -0.25959E-05   -0.27550E-07  1593   0.807E-04    0.117E-04
RMM:  18    -0.413616804935E+03   -0.32001E-05   -0.32174E-07  1789   0.823E-04    0.125E-04
RMM:  19    -0.413616806516E+03   -0.15809E-05   -0.15940E-07  1279   0.658E-04    0.998E-05
RMM:  20    -0.413616807912E+03   -0.13956E-05   -0.10584E-07  1164   0.613E-04    0.456E-05
RMM:  21    -0.413616809078E+03   -0.11665E-05   -0.69300E-08  1034   0.586E-04    0.249E-05
RMM:  22    -0.413616809554E+03   -0.47612E-06   -0.36070E-08   883   0.557E-04
  143 T=   152. E= -.41286897E+03 F= -.41361681E+03 E0= -.41359776E+03  EK= 0.74784E+00 SP= 0.00E+00 SK= 0.00E+00
       N       E                     dE             d eps       ncg     rms          rms(c)
RMM:   1    -0.413864421984E+03   -0.24761E+00   -0.20366E+01  4283   0.825E+00    0.125E+00
RMM:   2    -0.413727939919E+03    0.13648E+00   -0.55035E-01  5330   0.852E-01    0.100E+00
RMM:   3    -0.413785557363E+03   -0.57617E-01   -0.13338E-01  5508   0.390E-01    0.132E+00
RMM:   4    -0.413720832912E+03    0.64724E-01   -0.61459E-02  4881   0.305E-01    0.417E-01
RMM:   5    -0.413719724903E+03    0.11080E-02   -0.29556E-02  4844   0.230E-01    0.184E-01
RMM:   6    -0.413718948709E+03    0.77619E-03   -0.61530E-03  5406   0.976E-02    0.116E-01
RMM:   7    -0.413718674155E+03    0.27455E-03   -0.13920E-03  5171   0.451E-02    0.714E-02
RMM:   8    -0.413718619601E+03    0.54554E-04   -0.69790E-04  5128   0.341E-02    0.305E-02
RMM:   9    -0.413718617047E+03    0.25537E-05   -0.24001E-04  5482   0.190E-02    0.188E-02
RMM:  10    -0.413718615956E+03    0.10909E-05   -0.68340E-05  5361   0.103E-02    0.983E-03
RMM:  11    -0.413718622956E+03   -0.69999E-05   -0.26708E-05  4990   0.596E-03    0.804E-03
RMM:  12    -0.413718626127E+03   -0.31712E-05   -0.87767E-06  3733   0.424E-03    0.296E-03
RMM:  13    -0.413718627843E+03   -0.17157E-05   -0.21199E-06  2654   0.225E-03    0.149E-03
RMM:  14    -0.413718629084E+03   -0.12412E-05   -0.12697E-06  2537   0.174E-03    0.765E-04
RMM:  15    -0.413718629435E+03   -0.35030E-06   -0.71839E-07  2305   0.125E-03
  144 T=   170. E= -.41288570E+03 F= -.41371863E+03 E0= -.41369986E+03  EK= 0.83292E+00 SP= 0.00E+00 SK= 0.00E+00
       N       E                     dE             d eps       ncg     rms          rms(c)
RMM:   1    -0.413834355540E+03   -0.11573E+00   -0.21620E+01  4290   0.860E+00    0.133E+00
RMM:   2    -0.413723707774E+03    0.11065E+00   -0.62729E-01  5422   0.898E-01    0.119E+00
RMM:   3    -0.413731894826E+03   -0.81871E-02   -0.13309E-01  5493   0.400E-01    0.123E+00
RMM:   4    -0.413692735929E+03    0.39159E-01   -0.62010E-02  5029   0.303E-01    0.541E-01
RMM:   5    -0.413692807463E+03   -0.71534E-04   -0.48175E-02  4931   0.278E-01    0.275E-01
RMM:   6    -0.413689582825E+03    0.32246E-02   -0.17368E-02  5110   0.163E-01    0.163E-01
RMM:   7    -0.413688744777E+03    0.83805E-03   -0.16078E-03  4524   0.625E-02    0.848E-02
RMM:   8    -0.413688728532E+03    0.16245E-04   -0.11338E-03  5507   0.407E-02    0.366E-02
RMM:   9    -0.413688737618E+03   -0.90860E-05   -0.32271E-04  5406   0.220E-02    0.222E-02
RMM:  10    -0.413688740986E+03   -0.33686E-05   -0.91561E-05  5408   0.119E-02    0.109E-02
RMM:  11    -0.413688757783E+03   -0.16797E-04   -0.40145E-05  5346   0.753E-03    0.888E-03
RMM:  12    -0.413688767601E+03   -0.98178E-05   -0.12179E-05  4033   0.486E-03    0.378E-03
RMM:  13    -0.413688772337E+03   -0.47360E-05   -0.47711E-06  3015   0.310E-03    0.183E-03
RMM:  14    -0.413688774857E+03   -0.25205E-05   -0.25210E-06  2721   0.224E-03    0.106E-03
RMM:  15    -0.413688775176E+03   -0.31867E-06   -0.17021E-06  2522   0.174E-03
  145 T=   165. E= -.41287761E+03 F= -.41368878E+03 E0= -.41367005E+03  EK= 0.81117E+00 SP= 0.00E+00 SK= 0.00E+00
       N       E                     dE             d eps       ncg     rms          rms(c)
RMM:   1    -0.413724879667E+03   -0.36105E-01   -0.19182E+01  4291   0.803E+00    0.111E+00
RMM:   2    -0.413634284980E+03    0.90595E-01   -0.53668E-01  5414   0.832E-01    0.114E+00
RMM:   3    -0.413611172164E+03    0.23113E-01   -0.99960E-02  5499   0.354E-01    0.958E-01
RMM:   4    -0.413594908879E+03    0.16263E-01   -0.40727E-02  5205   0.246E-01    0.506E-01
RMM:   5    -0.413595908673E+03   -0.99979E-03   -0.38328E-02  4960   0.244E-01    0.279E-01
RMM:   6    -0.413593025734E+03    0.28829E-02   -0.16737E-02  5055   0.160E-01    0.153E-01
RMM:   7    -0.413592176878E+03    0.84886E-03   -0.15591E-03  4495   0.628E-02    0.745E-02
RMM:   8    -0.413592177525E+03   -0.64710E-06   -0.10399E-03  5660   0.376E-02    0.353E-02
RMM:   9    -0.413592189062E+03   -0.11537E-04   -0.24904E-04  5106   0.199E-02    0.199E-02
RMM:  10    -0.413592195489E+03   -0.64269E-05   -0.74794E-05  5499   0.107E-02    0.966E-03
RMM:  11    -0.413592207953E+03   -0.12464E-04   -0.28117E-05  5047   0.648E-03    0.693E-03
RMM:  12    -0.413592216414E+03   -0.84607E-05   -0.83016E-06  3591   0.412E-03    0.314E-03
RMM:  13    -0.413592220121E+03   -0.37072E-05   -0.36591E-06  2881   0.272E-03    0.168E-03
RMM:  14    -0.413592221972E+03   -0.18513E-05   -0.24755E-06  2719   0.213E-03    0.107E-03
RMM:  15    -0.413592221571E+03    0.40129E-06   -0.20263E-06  2521   0.176E-03
  146 T=   147. E= -.41286793E+03 F= -.41359222E+03 E0= -.41357343E+03  EK= 0.72430E+00 SP= 0.00E+00 SK= 0.00E+00
       N       E                     dE             d eps       ncg     rms          rms(c)
RMM:   1    -0.413707871427E+03   -0.11565E+00   -0.17156E+01  4294   0.733E+00    0.115E+00
RMM:   2    -0.413605555499E+03    0.10232E+00   -0.46439E-01  5353   0.780E-01    0.118E+00
RMM:   3    -0.413578989752E+03    0.26566E-01   -0.10195E-01  5431   0.359E-01    0.968E-01
RMM:   4    -0.413563265488E+03    0.15724E-01   -0.53585E-02  5316   0.274E-01    0.480E-01
RMM:   5    -0.413561967923E+03    0.12976E-02   -0.34275E-02  4954   0.233E-01    0.252E-01
RMM:   6    -0.413560288368E+03    0.16796E-02   -0.15489E-02  5161   0.153E-01    0.150E-01
RMM:   7    -0.413559308522E+03    0.97985E-03   -0.15520E-03  4428   0.629E-02    0.567E-02
RMM:   8    -0.413559316620E+03   -0.80972E-05   -0.91074E-04  5735   0.340E-02    0.284E-02
RMM:   9    -0.413559320555E+03   -0.39352E-05   -0.18503E-04  5425   0.164E-02    0.199E-02
RMM:  10    -0.413559315240E+03    0.53148E-05   -0.38738E-05  5173   0.802E-03    0.964E-03
RMM:  11    -0.413559320854E+03   -0.56137E-05   -0.36029E-05  5414   0.688E-03    0.644E-03
RMM:  12    -0.413559323758E+03   -0.29041E-05   -0.40652E-06  2918   0.315E-03    0.279E-03
RMM:  13    -0.413559324603E+03   -0.84466E-06   -0.19285E-06  2627   0.212E-03
  147 T=   140. E= -.41287012E+03 F= -.41355932E+03 E0= -.41354042E+03  EK= 0.68921E+00 SP= 0.00E+00 SK= 0.00E+00
       N       E                     dE             d eps       ncg     rms          rms(c)
RMM:   1    -0.413743369966E+03   -0.18405E+00   -0.16772E+01  4295   0.706E+00    0.120E+00
RMM:   2    -0.413627585198E+03    0.11578E+00   -0.46925E-01  5312   0.789E-01    0.123E+00
RMM:   3    -0.413602005327E+03    0.25580E-01   -0.11545E-01  5377   0.381E-01    0.103E+00
RMM:   4    -0.413581589310E+03    0.20416E-01   -0.65208E-02  5303   0.299E-01    0.500E-01
RMM:   5    -0.413579195183E+03    0.23941E-02   -0.32532E-02  4910   0.231E-01    0.252E-01
RMM:   6    -0.413578174564E+03    0.10206E-02   -0.17143E-02  5186   0.159E-01    0.166E-01
RMM:   7    -0.413576941198E+03    0.12334E-02   -0.20598E-03  4477   0.699E-02    0.574E-02
RMM:   8    -0.413576944562E+03   -0.33643E-05   -0.10198E-03  5796   0.355E-02    0.293E-02
RMM:   9    -0.413576941014E+03    0.35481E-05   -0.22017E-04  5558   0.175E-02    0.220E-02
RMM:  10    -0.413576928913E+03    0.12101E-04   -0.37542E-05  5024   0.808E-03    0.112E-02
RMM:  11    -0.413576928229E+03    0.68382E-06   -0.41382E-05  5487   0.731E-03    0.576E-03
RMM:  12    -0.413576927333E+03    0.89607E-06   -0.33158E-06  2828   0.277E-03
  148 T=   143. E= -.41287335E+03 F= -.41357693E+03 E0= -.41355779E+03  EK= 0.70358E+00 SP= 0.00E+00 SK= 0.00E+00
       N       E                     dE             d eps       ncg     rms          rms(c)
RMM:   1    -0.413743757938E+03   -0.16683E+00   -0.16777E+01  4295   0.736E+00    0.100E+00
RMM:   2    -0.413639369205E+03    0.10439E+00   -0.47110E-01  5401   0.793E-01    0.105E+00
RMM:   3    -0.413621601238E+03    0.17768E-01   -0.99521E-02  5490   0.351E-01    0.891E-01
RMM:   4    -0.413604168670E+03    0.17433E-01   -0.44560E-02  5300   0.252E-01    0.468E-01
RMM:   5    -0.413602939793E+03    0.12289E-02   -0.20032E-02  4798   0.187E-01    0.241E-01
RMM:   6    -0.413603104612E+03   -0.16482E-03   -0.15464E-02  5196   0.148E-01    0.169E-01
RMM:   7    -0.413601613118E+03    0.14915E-02   -0.28875E-03  4707   0.761E-02    0.568E-02
RMM:   8    -0.413601642587E+03   -0.29469E-04   -0.12770E-03  5940   0.389E-02    0.363E-02
RMM:   9    -0.413601622943E+03    0.19643E-04   -0.22432E-04  5334   0.182E-02    0.241E-02
RMM:  10    -0.413601609300E+03    0.13644E-04   -0.60638E-05  5298   0.101E-02    0.998E-03
RMM:  11    -0.413601612988E+03   -0.36882E-05   -0.41615E-05  5508   0.729E-03    0.676E-03
RMM:  12    -0.413601615074E+03   -0.20865E-05   -0.38509E-06  2878   0.306E-03    0.311E-03
RMM:  13    -0.413601617373E+03   -0.22985E-05   -0.21630E-06  2649   0.225E-03    0.124E-03
RMM:  14    -0.413601620314E+03   -0.29412E-05   -0.10385E-06  2429   0.168E-03    0.636E-04
RMM:  15    -0.413601622811E+03   -0.24973E-05   -0.61904E-07  2271   0.126E-03    0.381E-04
RMM:  16    -0.413601625405E+03   -0.25937E-05   -0.49225E-07  2055   0.105E-03    0.246E-04
RMM:  17    -0.413601627688E+03   -0.22832E-05   -0.42133E-07  1938   0.930E-04    0.164E-04
RMM:  18    -0.413601629469E+03   -0.17809E-05   -0.30902E-07  1720   0.810E-04    0.120E-04
RMM:  19    -0.413601630896E+03   -0.14268E-05   -0.20647E-07  1526   0.709E-04    0.670E-05
RMM:  20    -0.413601631733E+03   -0.83641E-06   -0.11006E-07  1210   0.609E-04
  149 T=   148. E= -.41287294E+03 F= -.41360163E+03 E0= -.41358210E+03  EK= 0.72870E+00 SP= 0.00E+00 SK= 0.00E+00
       N       E                     dE             d eps       ncg     rms          rms(c)
RMM:   1    -0.413729638850E+03   -0.12801E+00   -0.17364E+01  4293   0.783E+00    0.948E-01
RMM:   2    -0.413635608453E+03    0.94030E-01   -0.46480E-01  5397   0.798E-01    0.867E-01
RMM:   3    -0.413648753483E+03   -0.13145E-01   -0.91127E-02  5719   0.324E-01    0.944E-01
RMM:   4    -0.413624769137E+03    0.23984E-01   -0.33365E-02  5168   0.222E-01    0.495E-01
RMM:   5    -0.413623569026E+03    0.12001E-02   -0.18672E-02  4636   0.183E-01    0.204E-01
RMM:   6    -0.413623414519E+03    0.15451E-03   -0.92993E-03  5149   0.118E-01    0.119E-01
RMM:   7    -0.413622588229E+03    0.82629E-03   -0.23122E-03  5013   0.626E-02    0.510E-02
RMM:   8    -0.413622569926E+03    0.18303E-04   -0.74464E-04  5894   0.317E-02    0.400E-02
RMM:   9    -0.413622542696E+03    0.27230E-04   -0.17299E-04  4993   0.167E-02    0.212E-02
RMM:  10    -0.413622540560E+03    0.21356E-05   -0.93753E-05  5598   0.118E-02    0.903E-03
RMM:  11    -0.413622547853E+03   -0.72930E-05   -0.23386E-05  4847   0.561E-03    0.729E-03
RMM:  12    -0.413622555643E+03   -0.77899E-05   -0.61227E-06  3352   0.380E-03    0.301E-03
RMM:  13    -0.413622563442E+03   -0.77992E-05   -0.31202E-06  2800   0.260E-03    0.175E-03
RMM:  14    -0.413622573227E+03   -0.97848E-05   -0.16393E-06  2597   0.207E-03    0.971E-04
RMM:  15    -0.413622580640E+03   -0.74128E-05   -0.10151E-06  2445   0.149E-03    0.694E-04
RMM:  16    -0.413622589794E+03   -0.91547E-05   -0.13148E-06  2529   0.149E-03    0.413E-04
RMM:  17    -0.413622596146E+03   -0.63513E-05   -0.90541E-07  2124   0.116E-03    0.259E-04
RMM:  18    -0.413622600689E+03   -0.45435E-05   -0.64949E-07  1996   0.996E-04    0.179E-04
RMM:  19    -0.413622604728E+03   -0.40387E-05   -0.52511E-07  1949   0.896E-04    0.125E-04
RMM:  20    -0.413622606952E+03   -0.22238E-05   -0.22335E-07  1337   0.654E-04    0.789E-05
RMM:  21    -0.413622608878E+03   -0.19258E-05   -0.12960E-07  1165   0.605E-04    0.512E-05
RMM:  22    -0.413622609971E+03   -0.10935E-05   -0.71840E-08  1023   0.564E-04    0.348E-05
RMM:  23    -0.413622610709E+03   -0.73782E-06   -0.43467E-08   951   0.548E-04
  150 T=   152. E= -.41287833E+03 F= -.41362261E+03 E0= -.41360261E+03  EK= 0.74428E+00 SP= 0.00E+00 SK= 0.00E+00
