       N       E                     dE             d eps       ncg     rms          rms(c)
RMM:   1     0.220180195100E+04    0.22018E+04   -0.52441E+04  2132   0.654E+02
RMM:   2     0.705627444358E+03   -0.14962E+04   -0.16265E+04  2132   0.177E+02
RMM:   3     0.137770193593E+03   -0.56786E+03   -0.65746E+03  2132   0.117E+02
RMM:   4    -0.159383598459E+03   -0.29715E+03   -0.27876E+03  2132   0.937E+01
RMM:   5    -0.287536788544E+03   -0.12815E+03   -0.11444E+03  2132   0.595E+01
RMM:   6    -0.349803753178E+03   -0.62267E+02   -0.55131E+02  2132   0.423E+01
RMM:   7    -0.382782315033E+03   -0.32979E+02   -0.30460E+02  2132   0.293E+01
RMM:   8    -0.404217775679E+03   -0.21435E+02   -0.18440E+02  2132   0.233E+01
RMM:   9    -0.436009386552E+03   -0.31792E+02   -0.30772E+02  6100   0.173E+01
RMM:  10    -0.441262177219E+03   -0.52528E+01   -0.62675E+01  6398   0.538E+00
RMM:  11    -0.442501068026E+03   -0.12389E+01   -0.11253E+01  6229   0.173E+00
RMM:  12    -0.442886339973E+03   -0.38527E+00   -0.27609E+00  6372   0.604E-01    0.134E+02
RMM:  13    -0.425604217318E+03    0.17282E+02   -0.80868E+01  4674   0.119E+01    0.712E+01
RMM:  14    -0.499548791778E+03   -0.73945E+02   -0.53915E+02  5418   0.232E+01    0.307E+01
RMM:  15    -0.416996265832E+03    0.82553E+02   -0.20239E+02  5110   0.164E+01    0.777E+00
RMM:  16    -0.414020603682E+03    0.29757E+01   -0.39984E+01  6086   0.615E+00    0.430E+00
RMM:  17    -0.413207217611E+03    0.81339E+00   -0.26778E+00  5410   0.193E+00    0.243E+00
RMM:  18    -0.413178331338E+03    0.28886E-01   -0.74146E-01  5991   0.881E-01    0.171E+00
RMM:  19    -0.413174309596E+03    0.40217E-02   -0.25116E-01  5656   0.549E-01    0.925E-01
RMM:  20    -0.413196304488E+03   -0.21995E-01   -0.34421E-01  5574   0.603E-01    0.699E-01
RMM:  21    -0.413170181088E+03    0.26123E-01   -0.37456E-02  4974   0.257E-01    0.329E-01
RMM:  22    -0.413165619137E+03    0.45620E-02   -0.28390E-02  5815   0.166E-01    0.138E-01
RMM:  23    -0.413164802838E+03    0.81630E-03   -0.63899E-03  6079   0.719E-02    0.872E-02
RMM:  24    -0.413163669594E+03    0.11332E-02   -0.17948E-03  5277   0.435E-02    0.555E-02
RMM:  25    -0.413162958689E+03    0.71091E-03   -0.84436E-04  4939   0.297E-02    0.422E-02
RMM:  26    -0.413163032752E+03   -0.74063E-04   -0.11104E-03  5741   0.344E-02    0.330E-02
RMM:  27    -0.413163438367E+03   -0.40562E-03   -0.20636E-04  4641   0.200E-02    0.194E-02
RMM:  28    -0.413163899776E+03   -0.46141E-03   -0.15242E-04  4966   0.179E-02    0.102E-02
RMM:  29    -0.413164287846E+03   -0.38807E-03   -0.11731E-04  4730   0.156E-02    0.460E-03
RMM:  30    -0.413164535435E+03   -0.24759E-03   -0.81996E-05  4357   0.110E-02    0.436E-03
RMM:  31    -0.413164680595E+03   -0.14516E-03   -0.59985E-05  3344   0.759E-03    0.371E-03
RMM:  32    -0.413164709572E+03   -0.28976E-04   -0.24134E-05  3004   0.334E-03    0.219E-03
RMM:  33    -0.413164720942E+03   -0.11370E-04   -0.94430E-06  2816   0.227E-03    0.835E-04
RMM:  34    -0.413164722609E+03   -0.16668E-05   -0.51089E-06  2636   0.159E-03    0.444E-04
RMM:  35    -0.413164722608E+03    0.14443E-08   -0.22804E-06  2464   0.136E-03
    1 T=    61. E= -.41286685E+03 F= -.41316472E+03 E0= -.41314223E+03  EK= 0.29787E+00 SP= 0.00E+00 SK= 0.00E+00
       N       E                     dE             d eps       ncg     rms          rms(c)
RMM:   1    -0.413162961772E+03    0.17608E-02   -0.90794E+00  3974   0.618E-01    0.886E-01
RMM:   2    -0.413168435194E+03   -0.54734E-02   -0.11142E-01  3862   0.886E-02    0.651E-01
RMM:   3    -0.413164611151E+03    0.38240E-02   -0.16161E-02  4750   0.455E-02    0.834E-02
RMM:   4    -0.413181192646E+03   -0.16581E-01   -0.17474E-02  5201   0.110E-01    0.540E-01
RMM:   5    -0.413164282916E+03    0.16910E-01   -0.83031E-03  4851   0.903E-02    0.441E-02
RMM:   6    -0.413164417176E+03   -0.13426E-03   -0.16107E-03  5769   0.387E-02    0.321E-02
RMM:   7    -0.413164410049E+03    0.71267E-05   -0.35051E-04  5587   0.177E-02    0.189E-02
RMM:   8    -0.413164406924E+03    0.31250E-05   -0.36370E-05  4807   0.691E-03    0.819E-03
RMM:   9    -0.413164409845E+03   -0.29207E-05   -0.75314E-06  3209   0.295E-03    0.611E-03
RMM:  10    -0.413164414934E+03   -0.50889E-05   -0.18611E-06  2547   0.209E-03    0.352E-03
RMM:  11    -0.413164419788E+03   -0.48548E-05   -0.12925E-06  2520   0.170E-03    0.177E-03
RMM:  12    -0.413164425676E+03   -0.58872E-05   -0.12610E-06  2520   0.158E-03    0.698E-04
RMM:  13    -0.413164427746E+03   -0.20705E-05   -0.54483E-07  2229   0.110E-03    0.461E-04
RMM:  14    -0.413164428224E+03   -0.47790E-06   -0.31413E-07  1695   0.784E-04
    2 T=    61. E= -.41286649E+03 F= -.41316443E+03 E0= -.41314193E+03  EK= 0.29793E+00 SP= 0.00E+00 SK= 0.00E+00
       N       E                     dE             d eps       ncg     rms          rms(c)
RMM:   1    -0.413163906602E+03    0.52114E-03   -0.90799E+00  4187   0.625E-01    0.905E-01
RMM:   2    -0.413168571562E+03   -0.46650E-02   -0.11031E-01  3948   0.871E-02    0.647E-01
RMM:   3    -0.413165442499E+03    0.31291E-02   -0.15526E-02  4896   0.475E-02    0.115E-01
RMM:   4    -0.413194093648E+03   -0.28651E-01   -0.30266E-02  5158   0.145E-01    0.707E-01
RMM:   5    -0.413164801581E+03    0.29292E-01   -0.13898E-02  4820   0.118E-01    0.503E-02
RMM:   6    -0.413165001822E+03   -0.20024E-03   -0.25646E-03  5756   0.493E-02    0.352E-02
RMM:   7    -0.413164990555E+03    0.11267E-04   -0.45583E-04  5653   0.198E-02    0.217E-02
RMM:   8    -0.413164980338E+03    0.10216E-04   -0.61339E-05  5182   0.861E-03    0.991E-03
RMM:   9    -0.413164978314E+03    0.20240E-05   -0.12127E-05  3806   0.384E-03    0.736E-03
RMM:  10    -0.413164978369E+03   -0.54639E-07   -0.20605E-06  2584   0.228E-03
    3 T=    61. E= -.41286675E+03 F= -.41316498E+03 E0= -.41314248E+03  EK= 0.29823E+00 SP= 0.00E+00 SK= 0.00E+00
       N       E                     dE             d eps       ncg     rms          rms(c)
RMM:   1    -0.413163387484E+03    0.15908E-02   -0.90126E+00  4221   0.626E-01    0.890E-01
RMM:   2    -0.413168270370E+03   -0.48829E-02   -0.10992E-01  4263   0.888E-02    0.641E-01
RMM:   3    -0.413170992946E+03   -0.27226E-02   -0.19721E-02  5163   0.850E-02    0.341E-01
RMM:   4    -0.413187420481E+03   -0.16428E-01   -0.38067E-02  5104   0.168E-01    0.622E-01
RMM:   5    -0.413164751074E+03    0.22669E-01   -0.84074E-03  4693   0.102E-01    0.601E-02
RMM:   6    -0.413164748826E+03    0.22475E-05   -0.16738E-03  5417   0.416E-02    0.314E-02
RMM:   7    -0.413164768320E+03   -0.19493E-04   -0.34101E-04  5997   0.169E-02    0.190E-02
RMM:   8    -0.413164763222E+03    0.50977E-05   -0.62410E-05  5168   0.908E-03    0.780E-03
RMM:   9    -0.413164761345E+03    0.18773E-05   -0.80160E-06  3435   0.365E-03    0.395E-03
RMM:  10    -0.413164762370E+03   -0.10256E-05   -0.15709E-06  2537   0.212E-03    0.252E-03
RMM:  11    -0.413164764050E+03   -0.16792E-05   -0.13604E-06  2543   0.182E-03    0.150E-03
RMM:  12    -0.413164764878E+03   -0.82830E-06   -0.74507E-07  2488   0.139E-03
    4 T=    61. E= -.41286660E+03 F= -.41316476E+03 E0= -.41314228E+03  EK= 0.29816E+00 SP= 0.00E+00 SK= 0.00E+00
       N       E                     dE             d eps       ncg     rms          rms(c)
RMM:   1    -0.413163390409E+03    0.13736E-02   -0.90697E+00  4235   0.630E-01    0.884E-01
RMM:   2    -0.413168868689E+03   -0.54783E-02   -0.11152E-01  4059   0.886E-02    0.650E-01
RMM:   3    -0.413165514118E+03    0.33546E-02   -0.16355E-02  4914   0.504E-02    0.117E-01
RMM:   4    -0.413196052375E+03   -0.30538E-01   -0.32553E-02  5145   0.151E-01    0.731E-01
RMM:   5    -0.413164728708E+03    0.31324E-01   -0.14830E-02  4809   0.121E-01    0.496E-02
RMM:   6    -0.413164933456E+03   -0.20475E-03   -0.25975E-03  5749   0.501E-02    0.332E-02
RMM:   7    -0.413164936976E+03   -0.35198E-05   -0.44428E-04  5731   0.195E-02    0.211E-02
RMM:   8    -0.413164934211E+03    0.27653E-05   -0.64806E-05  5126   0.879E-03    0.981E-03
RMM:   9    -0.413164935094E+03   -0.88336E-06   -0.12619E-05  3848   0.399E-03    0.718E-03
RMM:  10    -0.413164939302E+03   -0.42079E-05   -0.19996E-06  2577   0.224E-03    0.442E-03
RMM:  11    -0.413164943023E+03   -0.37206E-05   -0.12588E-06  2534   0.177E-03    0.240E-03
RMM:  12    -0.413164948778E+03   -0.57549E-05   -0.18806E-06  2595   0.198E-03    0.106E-03
RMM:  13    -0.413164950617E+03   -0.18390E-05   -0.59597E-07  2384   0.130E-03    0.746E-04
RMM:  14    -0.413164950472E+03    0.14497E-06   -0.24439E-07  1884   0.852E-04
    5 T=    61. E= -.41286677E+03 F= -.41316495E+03 E0= -.41314247E+03  EK= 0.29818E+00 SP= 0.00E+00 SK= 0.00E+00
       N       E                     dE             d eps       ncg     rms          rms(c)
RMM:   1    -0.413164282219E+03    0.66840E-03   -0.90812E+00  4247   0.636E-01    0.902E-01
RMM:   2    -0.413168882075E+03   -0.45999E-02   -0.11062E-01  4030   0.875E-02    0.648E-01
RMM:   3    -0.413165751223E+03    0.31309E-02   -0.15571E-02  4845   0.449E-02    0.101E-01
RMM:   4    -0.413188804112E+03   -0.23053E-01   -0.23837E-02  5151   0.129E-01    0.636E-01
RMM:   5    -0.413165281029E+03    0.23523E-01   -0.11354E-02  4813   0.105E-01    0.469E-02
RMM:   6    -0.413165445790E+03   -0.16476E-03   -0.20712E-03  5773   0.440E-02    0.326E-02
RMM:   7    -0.413165438317E+03    0.74726E-05   -0.38269E-04  5617   0.187E-02    0.203E-02
RMM:   8    -0.413165428620E+03    0.96975E-05   -0.52569E-05  4966   0.822E-03    0.954E-03
RMM:   9    -0.413165427077E+03    0.15432E-05   -0.10553E-05  3631   0.365E-03    0.722E-03
RMM:  10    -0.413165427327E+03   -0.25069E-06   -0.18650E-06  2555   0.225E-03
    6 T=    61. E= -.41286705E+03 F= -.41316543E+03 E0= -.41314296E+03  EK= 0.29838E+00 SP= 0.00E+00 SK= 0.00E+00
       N       E                     dE             d eps       ncg     rms          rms(c)
RMM:   1    -0.413163964653E+03    0.14624E-02   -0.90317E+00  4257   0.640E-01    0.897E-01
RMM:   2    -0.413168554162E+03   -0.45895E-02   -0.11005E-01  4243   0.883E-02    0.642E-01
RMM:   3    -0.413169824876E+03   -0.12707E-02   -0.18485E-02  5135   0.765E-02    0.297E-01
RMM:   4    -0.413191997478E+03   -0.22173E-01   -0.39951E-02  5104   0.170E-01    0.676E-01
RMM:   5    -0.413165124491E+03    0.26873E-01   -0.10581E-02  4715   0.110E-01    0.603E-02
RMM:   6    -0.413165171945E+03   -0.47453E-04   -0.20486E-03  5494   0.453E-02    0.321E-02
RMM:   7    -0.413165184810E+03   -0.12866E-04   -0.37559E-04  5998   0.172E-02    0.195E-02
RMM:   8    -0.413165178465E+03    0.63455E-05   -0.64940E-05  5175   0.909E-03    0.809E-03
RMM:   9    -0.413165174673E+03    0.37919E-05   -0.81343E-06  3384   0.358E-03    0.417E-03
RMM:  10    -0.413165174459E+03    0.21430E-06   -0.19499E-06  2574   0.219E-03
    7 T=    61. E= -.41286671E+03 F= -.41316517E+03 E0= -.41314273E+03  EK= 0.29847E+00 SP= 0.00E+00 SK= 0.00E+00
       N       E                     dE             d eps       ncg     rms          rms(c)
RMM:   1    -0.413164179437E+03    0.99524E-03   -0.90583E+00  4269   0.645E-01    0.882E-01
RMM:   2    -0.413169659120E+03   -0.54797E-02   -0.11113E-01  4126   0.894E-02    0.648E-01
RMM:   3    -0.413166482269E+03    0.31769E-02   -0.16245E-02  4935   0.519E-02    0.128E-01
RMM:   4    -0.413199988681E+03   -0.33506E-01   -0.36282E-02  5138   0.159E-01    0.765E-01
RMM:   5    -0.413165544579E+03    0.34444E-01   -0.16225E-02  4803   0.127E-01    0.516E-02
RMM:   6    -0.413165759061E+03   -0.21448E-03   -0.28460E-03  5735   0.523E-02    0.339E-02
RMM:   7    -0.413165759980E+03   -0.91918E-06   -0.47224E-04  5772   0.197E-02    0.216E-02
RMM:   8    -0.413165754949E+03    0.50310E-05   -0.66973E-05  5178   0.884E-03    0.986E-03
RMM:   9    -0.413165754507E+03    0.44206E-06   -0.12890E-05  3879   0.402E-03    0.704E-03
RMM:  10    -0.413165757326E+03   -0.28192E-05   -0.20758E-06  2585   0.224E-03    0.434E-03
RMM:  11    -0.413165759721E+03   -0.23947E-05   -0.11794E-06  2520   0.172E-03    0.239E-03
RMM:  12    -0.413165763383E+03   -0.36617E-05   -0.19091E-06  2601   0.197E-03    0.105E-03
RMM:  13    -0.413165764608E+03   -0.12256E-05   -0.64178E-07  2408   0.132E-03    0.807E-04
RMM:  14    -0.413165764369E+03    0.23870E-06   -0.24285E-07  1889   0.855E-04
    8 T=    61. E= -.41286687E+03 F= -.41316576E+03 E0= -.41314333E+03  EK= 0.29889E+00 SP= 0.00E+00 SK= 0.00E+00
       N       E                     dE             d eps       ncg     rms          rms(c)
RMM:   1    -0.413164643570E+03    0.11210E-02   -0.91007E+00  4282   0.649E-01    0.898E-01
RMM:   2    -0.413169790066E+03   -0.51465E-02   -0.11104E-01  4166   0.896E-02    0.650E-01
RMM:   3    -0.413166268029E+03    0.35220E-02   -0.15789E-02  4819   0.475E-02    0.101E-01
RMM:   4    -0.413190332772E+03   -0.24065E-01   -0.24961E-02  5137   0.132E-01    0.650E-01
RMM:   5    -0.413165756180E+03    0.24577E-01   -0.11809E-02  4807   0.107E-01    0.470E-02
RMM:   6    -0.413165928259E+03   -0.17208E-03   -0.21756E-03  5770   0.445E-02    0.320E-02
RMM:   7    -0.413165924711E+03    0.35476E-05   -0.37842E-04  5632   0.186E-02    0.203E-02
RMM:   8    -0.413165914951E+03    0.97608E-05   -0.56996E-05  4965   0.842E-03    0.980E-03
RMM:   9    -0.413165913223E+03    0.17280E-05   -0.11306E-05  3742   0.380E-03    0.744E-03
RMM:  10    -0.413165913720E+03   -0.49698E-06   -0.18822E-06  2562   0.225E-03
    9 T=    61. E= -.41286672E+03 F= -.41316591E+03 E0= -.41314351E+03  EK= 0.29919E+00 SP= 0.00E+00 SK= 0.00E+00
       N       E                     dE             d eps       ncg     rms          rms(c)
RMM:   1    -0.413164860132E+03    0.10531E-02   -0.90754E+00  4295   0.653E-01    0.903E-01
RMM:   2    -0.413169630164E+03   -0.47700E-02   -0.11030E-01  4302   0.901E-02    0.644E-01
RMM:   3    -0.413171263958E+03   -0.16338E-02   -0.19023E-02  5123   0.804E-02    0.317E-01
RMM:   4    -0.413190746571E+03   -0.19483E-01   -0.38897E-02  5083   0.168E-01    0.650E-01
RMM:   5    -0.413165937437E+03    0.24809E-01   -0.95101E-03  4696   0.106E-01    0.596E-02
RMM:   6    -0.413165967682E+03   -0.30245E-04   -0.18916E-03  5475   0.433E-02    0.323E-02
RMM:   7    -0.413165976083E+03   -0.84012E-05   -0.35563E-04  5954   0.172E-02    0.193E-02
RMM:   8    -0.413165968523E+03    0.75597E-05   -0.62428E-05  5124   0.910E-03    0.794E-03
RMM:   9    -0.413165963883E+03    0.46403E-05   -0.77917E-06  3349   0.357E-03    0.412E-03
RMM:  10    -0.413165962686E+03    0.11972E-05   -0.18224E-06  2563   0.216E-03    0.264E-03
RMM:  11    -0.413165960739E+03    0.19470E-05   -0.12891E-06  2518   0.180E-03    0.146E-03
RMM:  12    -0.413165958829E+03    0.19103E-05   -0.76111E-07  2476   0.141E-03    0.587E-04
RMM:  13    -0.413165957736E+03    0.10929E-05   -0.38542E-07  2130   0.102E-03    0.325E-04
RMM:  14    -0.413165956681E+03    0.10547E-05   -0.23557E-07  1643   0.806E-04    0.221E-04
RMM:  15    -0.413165954900E+03    0.17813E-05   -0.23484E-07  1535   0.769E-04    0.151E-04
RMM:  16    -0.413165953161E+03    0.17391E-05   -0.18616E-07  1393   0.708E-04    0.140E-04
RMM:  17    -0.413165951392E+03    0.17684E-05   -0.15518E-07  1353   0.671E-04    0.746E-05
RMM:  18    -0.413165950194E+03    0.11984E-05   -0.90082E-08  1051   0.593E-04    0.392E-05
RMM:  19    -0.413165949674E+03    0.51955E-06   -0.44880E-08   848   0.545E-04
   10 T=    61. E= -.41286650E+03 F= -.41316595E+03 E0= -.41314356E+03  EK= 0.29945E+00 SP= 0.00E+00 SK= 0.00E+00
       N       E                     dE             d eps       ncg     rms          rms(c)
RMM:   1    -0.413165168343E+03    0.78185E-03   -0.90560E+00  4286   0.658E-01    0.883E-01
RMM:   2    -0.413170490899E+03   -0.53226E-02   -0.11108E-01  4208   0.889E-02    0.646E-01
RMM:   3    -0.413167416739E+03    0.30742E-02   -0.15933E-02  4921   0.510E-02    0.126E-01
RMM:   4    -0.413200341057E+03   -0.32924E-01   -0.35559E-02  5127   0.157E-01    0.758E-01
RMM:   5    -0.413166528244E+03    0.33813E-01   -0.15977E-02  4798   0.126E-01    0.513E-02
RMM:   6    -0.413166743717E+03   -0.21547E-03   -0.28470E-03  5740   0.516E-02    0.343E-02
RMM:   7    -0.413166743300E+03    0.41704E-06   -0.46593E-04  5665   0.197E-02    0.217E-02
RMM:   8    -0.413166737687E+03    0.56132E-05   -0.66778E-05  5163   0.892E-03    0.100E-02
RMM:   9    -0.413166736245E+03    0.14421E-05   -0.13211E-05  3919   0.408E-03    0.726E-03
RMM:  10    -0.413166737736E+03   -0.14914E-05   -0.20234E-06  2577   0.224E-03    0.450E-03
RMM:  11    -0.413166738993E+03   -0.12570E-05   -0.11158E-06  2505   0.170E-03    0.255E-03
RMM:  12    -0.413166741110E+03   -0.21168E-05   -0.17226E-06  2568   0.196E-03    0.106E-03
RMM:  13    -0.413166741765E+03   -0.65523E-06   -0.61288E-07  2393   0.133E-03
   11 T=    61. E= -.41286689E+03 F= -.41316674E+03 E0= -.41314438E+03  EK= 0.29985E+00 SP= 0.00E+00 SK= 0.00E+00
       N       E                     dE             d eps       ncg     rms          rms(c)
RMM:   1    -0.413165312163E+03    0.14289E-02   -0.91215E+00  4294   0.663E-01    0.894E-01
RMM:   2    -0.413170477717E+03   -0.51656E-02   -0.11177E-01  4214   0.885E-02    0.652E-01
RMM:   3    -0.413167147689E+03    0.33300E-02   -0.16051E-02  4850   0.476E-02    0.104E-01
RMM:   4    -0.413193343638E+03   -0.26196E-01   -0.27488E-02  5125   0.138E-01    0.677E-01
RMM:   5    -0.413166557345E+03    0.26786E-01   -0.12855E-02  4801   0.112E-01    0.475E-02
RMM:   6    -0.413166737772E+03   -0.18043E-03   -0.23060E-03  5783   0.460E-02    0.316E-02
RMM:   7    -0.413166741177E+03   -0.34046E-05   -0.37871E-04  5668   0.186E-02    0.202E-02
RMM:   8    -0.413166732254E+03    0.89230E-05   -0.62738E-05  4988   0.862E-03    0.996E-03
RMM:   9    -0.413166730374E+03    0.18795E-05   -0.12098E-05  3863   0.397E-03    0.751E-03
RMM:  10    -0.413166731046E+03   -0.67177E-06   -0.18577E-06  2552   0.224E-03
   12 T=    61. E= -.41286672E+03 F= -.41316673E+03 E0= -.41314440E+03  EK= 0.30001E+00 SP= 0.00E+00 SK= 0.00E+00
       N       E                     dE             d eps       ncg     rms          rms(c)
RMM:   1    -0.413166316774E+03    0.41360E-03   -0.91118E+00  4304   0.666E-01    0.908E-01
RMM:   2    -0.413170591797E+03   -0.42750E-02   -0.11090E-01  4305   0.894E-02    0.646E-01
RMM:   3    -0.413173237918E+03   -0.26461E-02   -0.19602E-02  5133   0.825E-02    0.333E-01
RMM:   4    -0.413190785286E+03   -0.17547E-01   -0.38545E-02  5078   0.168E-01    0.632E-01
RMM:   5    -0.413167332205E+03    0.23453E-01   -0.88307E-03  4682   0.103E-01    0.591E-02
RMM:   6    -0.413167354893E+03   -0.22688E-04   -0.17852E-03  5448   0.419E-02    0.323E-02
RMM:   7    -0.413167357536E+03   -0.26435E-05   -0.34072E-04  5932   0.169E-02    0.192E-02
RMM:   8    -0.413167349317E+03    0.82191E-05   -0.61171E-05  5122   0.901E-03    0.786E-03
RMM:   9    -0.413167343834E+03    0.54833E-05   -0.74714E-06  3329   0.355E-03    0.404E-03
RMM:  10    -0.413167341952E+03    0.18815E-05   -0.16925E-06  2539   0.213E-03    0.258E-03
RMM:  11    -0.413167338910E+03    0.30420E-05   -0.12484E-06  2514   0.177E-03    0.145E-03
RMM:  12    -0.413167336233E+03    0.26772E-05   -0.70564E-07  2464   0.138E-03    0.580E-04
RMM:  13    -0.413167334565E+03    0.16681E-05   -0.36544E-07  2111   0.998E-04    0.331E-04
RMM:  14    -0.413167333051E+03    0.15139E-05   -0.21450E-07  1611   0.789E-04    0.224E-04
RMM:  15    -0.413167330403E+03    0.26478E-05   -0.21203E-07  1506   0.760E-04    0.155E-04
RMM:  16    -0.413167328161E+03    0.22426E-05   -0.15585E-07  1341   0.688E-04    0.137E-04
RMM:  17    -0.413167325811E+03    0.23498E-05   -0.13983E-07  1317   0.664E-04    0.745E-05
RMM:  18    -0.413167324527E+03    0.12842E-05   -0.72174E-08  1004   0.583E-04    0.422E-05
RMM:  19    -0.413167323721E+03    0.80609E-06   -0.42713E-08   870   0.550E-04
   13 T=    61. E= -.41286685E+03 F= -.41316732E+03 E0= -.41314502E+03  EK= 0.30047E+00 SP= 0.00E+00 SK= 0.00E+00
       N       E                     dE             d eps       ncg     rms          rms(c)
RMM:   1    -0.413166454604E+03    0.86992E-03   -0.90619E+00  4294   0.671E-01    0.886E-01
RMM:   2    -0.413171583084E+03   -0.51285E-02   -0.11107E-01  4237   0.891E-02    0.644E-01
RMM:   3    -0.413168685194E+03    0.28979E-02   -0.15730E-02  4923   0.513E-02    0.130E-01
RMM:   4    -0.413202553386E+03   -0.33868E-01   -0.36861E-02  5122   0.160E-01    0.768E-01
RMM:   5    -0.413167752095E+03    0.34801E-01   -0.16485E-02  4789   0.127E-01    0.520E-02
RMM:   6    -0.413167972168E+03   -0.22007E-03   -0.29394E-03  5736   0.524E-02    0.348E-02
RMM:   7    -0.413167968707E+03    0.34603E-05   -0.47716E-04  5666   0.199E-02    0.221E-02
RMM:   8    -0.413167960336E+03    0.83709E-05   -0.68915E-05  5171   0.902E-03    0.103E-02
RMM:   9    -0.413167957198E+03    0.31387E-05   -0.13543E-05  3979   0.414E-03    0.736E-03
RMM:  10    -0.413167956954E+03    0.24323E-06   -0.20425E-06  2574   0.225E-03
   14 T=    61. E= -.41286692E+03 F= -.41316796E+03 E0= -.41314569E+03  EK= 0.30104E+00 SP= 0.00E+00 SK= 0.00E+00
       N       E                     dE             d eps       ncg     rms          rms(c)
RMM:   1    -0.413166512059E+03    0.14451E-02   -0.91540E+00  4303   0.674E-01    0.892E-01
RMM:   2    -0.413171974035E+03   -0.54620E-02   -0.11239E-01  4322   0.907E-02    0.654E-01
RMM:   3    -0.413175436803E+03   -0.34628E-02   -0.21596E-02  5126   0.910E-02    0.370E-01
RMM:   4    -0.413190629075E+03   -0.15192E-01   -0.40360E-02  5069   0.172E-01    0.621E-01
RMM:   5    -0.413167936987E+03    0.22692E-01   -0.82365E-03  4651   0.101E-01    0.584E-02
RMM:   6    -0.413167946778E+03   -0.97912E-05   -0.16625E-03  5400   0.405E-02    0.304E-02
RMM:   7    -0.413167966910E+03   -0.20132E-04   -0.31956E-04  5933   0.164E-02    0.184E-02
RMM:   8    -0.413167964447E+03    0.24624E-05   -0.60345E-05  5124   0.889E-03    0.750E-03
RMM:   9    -0.413167962654E+03    0.17937E-05   -0.73942E-06  3279   0.356E-03    0.382E-03
RMM:  10    -0.413167963701E+03   -0.10468E-05   -0.15247E-06  2520   0.206E-03    0.241E-03
RMM:  11    -0.413167965207E+03   -0.15060E-05   -0.12780E-06  2517   0.176E-03    0.146E-03
RMM:  12    -0.413167965626E+03   -0.41887E-06   -0.65643E-07  2454   0.134E-03
   15 T=    61. E= -.41286651E+03 F= -.41316797E+03 E0= -.41314573E+03  EK= 0.30145E+00 SP= 0.00E+00 SK= 0.00E+00
       N       E                     dE             d eps       ncg     rms          rms(c)
RMM:   1    -0.413168033605E+03   -0.68399E-04   -0.91601E+00  4295   0.683E-01    0.910E-01
RMM:   2    -0.413172624542E+03   -0.45909E-02   -0.11151E-01  4256   0.900E-02    0.649E-01
RMM:   3    -0.413169735992E+03    0.28886E-02   -0.15676E-02  4957   0.505E-02    0.135E-01
RMM:   4    -0.413204366308E+03   -0.34630E-01   -0.37703E-02  5125   0.161E-01    0.776E-01
RMM:   5    -0.413168808635E+03    0.35558E-01   -0.16936E-02  4793   0.129E-01    0.525E-02
RMM:   6    -0.413169020571E+03   -0.21194E-03   -0.29759E-03  5751   0.531E-02    0.358E-02
RMM:   7    -0.413169009199E+03    0.11372E-04   -0.48729E-04  5701   0.205E-02    0.227E-02
RMM:   8    -0.413168996406E+03    0.12793E-04   -0.72999E-05  5169   0.937E-03    0.108E-02
RMM:   9    -0.413168990403E+03    0.60025E-05   -0.14090E-05  3998   0.425E-03    0.767E-03
RMM:  10    -0.413168986560E+03    0.38435E-05   -0.21973E-06  2584   0.233E-03    0.469E-03
RMM:  11    -0.413168983794E+03    0.27658E-05   -0.11730E-06  2509   0.175E-03    0.270E-03
RMM:  12    -0.413168978498E+03    0.52960E-05   -0.19313E-06  2592   0.208E-03    0.115E-03
RMM:  13    -0.413168975574E+03    0.29235E-05   -0.66586E-07  2413   0.140E-03    0.927E-04
RMM:  14    -0.413168975795E+03   -0.22045E-06   -0.26306E-07  1978   0.904E-04
   16 T=    62. E= -.41286673E+03 F= -.41316898E+03 E0= -.41314678E+03  EK= 0.30224E+00 SP= 0.00E+00 SK= 0.00E+00
       N       E                     dE             d eps       ncg     rms          rms(c)
RMM:   1    -0.413169395772E+03   -0.42020E-03   -0.91151E+00  4295   0.705E-01    0.892E-01
RMM:   2    -0.413173216577E+03   -0.38208E-02   -0.11241E-01  4264   0.914E-02    0.645E-01
RMM:   3    -0.413169948488E+03    0.32681E-02   -0.15270E-02  4876   0.483E-02    0.114E-01
RMM:   4    -0.413198641079E+03   -0.28693E-01   -0.30343E-02  5127   0.145E-01    0.708E-01
RMM:   5    -0.413169309936E+03    0.29331E-01   -0.14115E-02  4794   0.117E-01    0.492E-02
RMM:   6    -0.413169493400E+03   -0.18346E-03   -0.25718E-03  5784   0.482E-02    0.332E-02
RMM:   7    -0.413169489816E+03    0.35838E-05   -0.41186E-04  5661   0.193E-02    0.211E-02
RMM:   8    -0.413169477577E+03    0.12239E-04   -0.67548E-05  5045   0.897E-03    0.105E-02
RMM:   9    -0.413169472653E+03    0.49239E-05   -0.13147E-05  3975   0.414E-03    0.783E-03
RMM:  10    -0.413169470098E+03    0.25553E-05   -0.19867E-06  2567   0.226E-03    0.478E-03
RMM:  11    -0.413169468039E+03    0.20589E-05   -0.12769E-06  2512   0.182E-03    0.264E-03
RMM:  12    -0.413169464641E+03    0.33977E-05   -0.17360E-06  2558   0.201E-03    0.108E-03
RMM:  13    -0.413169462943E+03    0.16981E-05   -0.56008E-07  2362   0.132E-03    0.748E-04
RMM:  14    -0.413169462916E+03    0.26972E-07   -0.24683E-07  1933   0.867E-04
   17 T=    62. E= -.41286659E+03 F= -.41316946E+03 E0= -.41314730E+03  EK= 0.30287E+00 SP= 0.00E+00 SK= 0.00E+00
       N       E                     dE             d eps       ncg     rms          rms(c)
RMM:   1    -0.413168461339E+03    0.10016E-02   -0.91922E+00  4299   0.687E-01    0.890E-01
RMM:   2    -0.413173886611E+03   -0.54253E-02   -0.11336E-01  4261   0.914E-02    0.655E-01
RMM:   3    -0.413170496852E+03    0.33898E-02   -0.16377E-02  4864   0.499E-02    0.111E-01
RMM:   4    -0.413199486246E+03   -0.28989E-01   -0.30797E-02  5122   0.146E-01    0.711E-01
RMM:   5    -0.413169810096E+03    0.29676E-01   -0.14293E-02  4788   0.118E-01    0.488E-02
RMM:   6    -0.413169995283E+03   -0.18519E-03   -0.25562E-03  5777   0.485E-02    0.326E-02
RMM:   7    -0.413169994432E+03    0.85111E-06   -0.41402E-04  5652   0.192E-02    0.208E-02
RMM:   8    -0.413169985724E+03    0.87073E-05   -0.65447E-05  5051   0.883E-03    0.101E-02
RMM:   9    -0.413169983055E+03    0.26690E-05   -0.12972E-05  3940   0.408E-03    0.750E-03
RMM:  10    -0.413169983289E+03   -0.23404E-06   -0.19003E-06  2557   0.221E-03
   18 T=    62. E= -.41286655E+03 F= -.41316998E+03 E0= -.41314786E+03  EK= 0.30344E+00 SP= 0.00E+00 SK= 0.00E+00
       N       E                     dE             d eps       ncg     rms          rms(c)
RMM:   1    -0.413171925870E+03   -0.19428E-02   -0.92254E+00  4303   0.719E-01    0.910E-01
RMM:   2    -0.413174732674E+03   -0.28068E-02   -0.11405E-01  4333   0.932E-02    0.653E-01
RMM:   3    -0.413177447078E+03   -0.27144E-02   -0.19961E-02  5121   0.852E-02    0.342E-01
RMM:   4    -0.413195075063E+03   -0.17628E-01   -0.39947E-02  5071   0.170E-01    0.638E-01
RMM:   5    -0.413171170670E+03    0.23904E-01   -0.89990E-03  4670   0.103E-01    0.589E-02
RMM:   6    -0.413171187673E+03   -0.17003E-04   -0.18215E-03  5428   0.423E-02    0.321E-02
RMM:   7    -0.413171189337E+03   -0.16642E-05   -0.34036E-04  5927   0.170E-02    0.193E-02
RMM:   8    -0.413171180668E+03    0.86688E-05   -0.62326E-05  5123   0.912E-03    0.790E-03
RMM:   9    -0.413171174546E+03    0.61228E-05   -0.77214E-06  3341   0.362E-03    0.403E-03
RMM:  10    -0.413171172233E+03    0.23130E-05   -0.16935E-06  2538   0.213E-03    0.257E-03
RMM:  11    -0.413171168446E+03    0.37866E-05   -0.11986E-06  2502   0.175E-03    0.145E-03
RMM:  12    -0.413171165086E+03    0.33599E-05   -0.66652E-07  2454   0.136E-03    0.559E-04
RMM:  13    -0.413171163020E+03    0.20662E-05   -0.33737E-07  2077   0.979E-04    0.320E-04
RMM:  14    -0.413171161168E+03    0.18520E-05   -0.19274E-07  1570   0.776E-04    0.220E-04
RMM:  15    -0.413171157890E+03    0.32782E-05   -0.17575E-07  1441   0.735E-04    0.149E-04
RMM:  16    -0.413171155106E+03    0.27838E-05   -0.12889E-07  1328   0.679E-04    0.140E-04
RMM:  17    -0.413171152054E+03    0.30516E-05   -0.11468E-07  1271   0.653E-04    0.747E-05
RMM:  18    -0.413171150373E+03    0.16813E-05   -0.63719E-08  1016   0.583E-04    0.387E-05
RMM:  19    -0.413171149411E+03    0.96232E-06   -0.34854E-08   824   0.545E-04
   19 T=    62. E= -.41286694E+03 F= -.41317115E+03 E0= -.41314907E+03  EK= 0.30421E+00 SP= 0.00E+00 SK= 0.00E+00
       N       E                     dE             d eps       ncg     rms          rms(c)
RMM:   1    -0.413170247318E+03    0.90305E-03   -0.91569E+00  4298   0.697E-01    0.899E-01
RMM:   2    -0.413174853533E+03   -0.46062E-02   -0.11223E-01  4260   0.906E-02    0.646E-01
RMM:   3    -0.413172365042E+03    0.24885E-02   -0.15544E-02  4951   0.514E-02    0.139E-01
RMM:   4    -0.413207963331E+03   -0.35598E-01   -0.39254E-02  5120   0.165E-01    0.787E-01
RMM:   5    -0.413171362261E+03    0.36601E-01   -0.17533E-02  4786   0.131E-01    0.531E-02
RMM:   6    -0.413171564053E+03   -0.20179E-03   -0.30462E-03  5739   0.542E-02    0.359E-02
RMM:   7    -0.413171557879E+03    0.61735E-05   -0.49625E-04  5666   0.205E-02    0.227E-02
RMM:   8    -0.413171546961E+03    0.10918E-04   -0.75272E-05  5216   0.949E-03    0.107E-02
RMM:   9    -0.413171540942E+03    0.60189E-05   -0.14876E-05  4085   0.434E-03    0.748E-03
RMM:  10    -0.413171537418E+03    0.35236E-05   -0.22499E-06  2588   0.232E-03    0.464E-03
RMM:  11    -0.413171535135E+03    0.22836E-05   -0.10807E-06  2503   0.168E-03    0.275E-03
RMM:  12    -0.413171530517E+03    0.46172E-05   -0.17551E-06  2566   0.204E-03    0.115E-03
RMM:  13    -0.413171527972E+03    0.25453E-05   -0.67792E-07  2407   0.141E-03    0.933E-04
RMM:  14    -0.413171528026E+03   -0.53522E-07   -0.26986E-07  2007   0.917E-04
   20 T=    62. E= -.41286670E+03 F= -.41317153E+03 E0= -.41314949E+03  EK= 0.30483E+00 SP= 0.00E+00 SK= 0.00E+00
       N       E                     dE             d eps       ncg     rms          rms(c)
RMM:   1    -0.413171372093E+03    0.15588E-03   -0.92261E+00  4296   0.709E-01    0.890E-01
RMM:   2    -0.413176474518E+03   -0.51024E-02   -0.11406E-01  4277   0.905E-02    0.655E-01
RMM:   3    -0.413173109326E+03    0.33652E-02   -0.16279E-02  4865   0.491E-02    0.108E-01
RMM:   4    -0.413201118252E+03   -0.28009E-01   -0.29668E-02  5126   0.143E-01    0.699E-01
RMM:   5    -0.413172476076E+03    0.28642E-01   -0.13867E-02  4792   0.116E-01    0.483E-02
RMM:   6    -0.413172646865E+03   -0.17079E-03   -0.24876E-03  5795   0.478E-02    0.314E-02
RMM:   7    -0.413172650147E+03   -0.32819E-05   -0.37917E-04  5662   0.185E-02    0.199E-02
RMM:   8    -0.413172640850E+03    0.92965E-05   -0.69480E-05  5019   0.891E-03    0.104E-02
RMM:   9    -0.413172636911E+03    0.39387E-05   -0.13354E-05  4034   0.421E-03    0.772E-03
RMM:  10    -0.413172636199E+03    0.71234E-06   -0.18964E-06  2559   0.223E-03
   21 T=    62. E= -.41286682E+03 F= -.41317264E+03 E0= -.41315065E+03  EK= 0.30582E+00 SP= 0.00E+00 SK= 0.00E+00
       N       E                     dE             d eps       ncg     rms          rms(c)
RMM:   1    -0.413172634463E+03    0.24485E-05   -0.92703E+00  4300   0.715E-01    0.909E-01
RMM:   2    -0.413177522289E+03   -0.48878E-02   -0.11396E-01  4356   0.925E-02    0.657E-01
RMM:   3    -0.413180210691E+03   -0.26884E-02   -0.20380E-02  5117   0.862E-02    0.346E-01
RMM:   4    -0.413198176159E+03   -0.17965E-01   -0.40917E-02  5073   0.172E-01    0.644E-01
RMM:   5    -0.413173750910E+03    0.24425E-01   -0.91149E-03  4665   0.104E-01    0.582E-02
RMM:   6    -0.413173779731E+03   -0.28821E-04   -0.18690E-03  5454   0.426E-02    0.318E-02
RMM:   7    -0.413173782071E+03   -0.23398E-05   -0.33900E-04  5895   0.169E-02    0.193E-02
RMM:   8    -0.413173774474E+03    0.75969E-05   -0.62134E-05  5121   0.901E-03    0.786E-03
RMM:   9    -0.413173768532E+03    0.59423E-05   -0.78527E-06  3337   0.359E-03    0.404E-03
RMM:  10    -0.413173766354E+03    0.21784E-05   -0.16602E-06  2534   0.210E-03    0.258E-03
RMM:  11    -0.413173762824E+03    0.35296E-05   -0.11492E-06  2500   0.172E-03    0.143E-03
RMM:  12    -0.413173759435E+03    0.33895E-05   -0.65775E-07  2446   0.135E-03    0.528E-04
RMM:  13    -0.413173757381E+03    0.20538E-05   -0.32623E-07  2062   0.965E-04    0.300E-04
RMM:  14    -0.413173755255E+03    0.21257E-05   -0.18874E-07  1558   0.766E-04    0.193E-04
RMM:  15    -0.413173752250E+03    0.30052E-05   -0.15008E-07  1361   0.709E-04    0.138E-04
RMM:  16    -0.413173749613E+03    0.26374E-05   -0.11374E-07  1281   0.666E-04    0.137E-04
RMM:  17    -0.413173746529E+03    0.30833E-05   -0.10096E-07  1250   0.644E-04    0.709E-05
RMM:  18    -0.413173744780E+03    0.17496E-05   -0.55559E-08   961   0.578E-04    0.381E-05
RMM:  19    -0.413173743687E+03    0.10921E-05   -0.34320E-08   860   0.551E-04    0.251E-05
RMM:  20    -0.413173743330E+03    0.35727E-06   -0.15743E-08   716   0.529E-04
   22 T=    62. E= -.41286686E+03 F= -.41317374E+03 E0= -.41315180E+03  EK= 0.30688E+00 SP= 0.00E+00 SK= 0.00E+00
       N       E                     dE             d eps       ncg     rms          rms(c)
RMM:   1    -0.413173275561E+03    0.46813E-03   -0.92489E+00  4295   0.710E-01    0.909E-01
RMM:   2    -0.413178153811E+03   -0.48783E-02   -0.11344E-01  4282   0.918E-02    0.650E-01
RMM:   3    -0.413175133249E+03    0.30206E-02   -0.15546E-02  4913   0.526E-02    0.136E-01
RMM:   4    -0.413210183845E+03   -0.35051E-01   -0.38155E-02  5124   0.162E-01    0.780E-01
RMM:   5    -0.413174223082E+03    0.35961E-01   -0.17312E-02  4786   0.130E-01    0.527E-02
RMM:   6    -0.413174428116E+03   -0.20503E-03   -0.30518E-03  5745   0.540E-02    0.360E-02
RMM:   7    -0.413174418314E+03    0.98018E-05   -0.49099E-04  5659   0.206E-02    0.228E-02
RMM:   8    -0.413174404599E+03    0.13715E-04   -0.77584E-05  5176   0.963E-03    0.111E-02
RMM:   9    -0.413174397256E+03    0.73434E-05   -0.14974E-05  4124   0.440E-03    0.787E-03
RMM:  10    -0.413174392449E+03    0.48069E-05   -0.22529E-06  2591   0.234E-03    0.487E-03
RMM:  11    -0.413174389218E+03    0.32306E-05   -0.11659E-06  2510   0.174E-03    0.287E-03
RMM:  12    -0.413174382912E+03    0.63066E-05   -0.18709E-06  2571   0.210E-03    0.119E-03
RMM:  13    -0.413174379314E+03    0.35975E-05   -0.68732E-07  2409   0.143E-03    0.981E-04
RMM:  14    -0.413174379640E+03   -0.32572E-06   -0.27684E-07  2016   0.925E-04
   23 T=    63. E= -.41286654E+03 F= -.41317438E+03 E0= -.41315248E+03  EK= 0.30784E+00 SP= 0.00E+00 SK= 0.00E+00
       N       E                     dE             d eps       ncg     rms          rms(c)
RMM:   1    -0.413174853908E+03   -0.47459E-03   -0.92799E+00  4295   0.726E-01    0.893E-01
RMM:   2    -0.413180237996E+03   -0.53841E-02   -0.11517E-01  4284   0.944E-02    0.655E-01
RMM:   3    -0.413176285536E+03    0.39525E-02   -0.15881E-02  4780   0.496E-02    0.987E-02
RMM:   4    -0.413199913370E+03   -0.23628E-01   -0.24581E-02  5129   0.130E-01    0.643E-01
RMM:   5    -0.413175807361E+03    0.24106E-01   -0.11824E-02  4802   0.107E-01    0.464E-02
RMM:   6    -0.413175944463E+03   -0.13710E-03   -0.20873E-03  5812   0.435E-02    0.289E-02
RMM:   7    -0.413175946335E+03   -0.18714E-05   -0.26558E-04  5645   0.162E-02    0.155E-02
RMM:   8    -0.413175942094E+03    0.42402E-05   -0.55084E-05  4987   0.768E-03    0.101E-02
RMM:   9    -0.413175937381E+03    0.47137E-05   -0.11335E-05  3895   0.388E-03    0.755E-03
RMM:  10    -0.413175935831E+03    0.15493E-05   -0.17584E-06  2551   0.221E-03    0.463E-03
RMM:  11    -0.413175934156E+03    0.16751E-05   -0.16294E-06  2535   0.202E-03    0.234E-03
RMM:  12    -0.413175931735E+03    0.24210E-05   -0.13792E-06  2505   0.185E-03    0.907E-04
RMM:  13    -0.413175930872E+03    0.86363E-06   -0.44467E-07  2266   0.118E-03
   24 T=    63. E= -.41286684E+03 F= -.41317593E+03 E0= -.41315408E+03  EK= 0.30910E+00 SP= 0.00E+00 SK= 0.00E+00
       N       E                     dE             d eps       ncg     rms          rms(c)
RMM:   1    -0.413181787324E+03   -0.58556E-02   -0.94149E+00  4294   0.761E-01    0.907E-01
RMM:   2    -0.413180982164E+03    0.80516E-03   -0.12017E-01  4281   0.971E-02    0.661E-01
RMM:   3    -0.413177132352E+03    0.38498E-02   -0.15535E-02  4709   0.488E-02    0.949E-02
RMM:   4    -0.413196545510E+03   -0.19413E-01   -0.19912E-02  5134   0.117E-01    0.584E-01
RMM:   5    -0.413176795281E+03    0.19750E-01   -0.97956E-03  4814   0.969E-02    0.449E-02
RMM:   6    -0.413176896361E+03   -0.10108E-03   -0.17166E-03  5820   0.392E-02    0.272E-02
RMM:   7    -0.413176894320E+03    0.20411E-05   -0.19798E-04  5560   0.144E-02    0.129E-02
RMM:   8    -0.413176889758E+03    0.45625E-05   -0.34623E-05  4787   0.613E-03    0.888E-03
RMM:   9    -0.413176886357E+03    0.34011E-05   -0.78358E-06  3410   0.319E-03    0.669E-03
RMM:  10    -0.413176884610E+03    0.17463E-05   -0.15243E-06  2537   0.210E-03    0.424E-03
RMM:  11    -0.413176881325E+03    0.32857E-05   -0.20377E-06  2580   0.221E-03    0.204E-03
RMM:  12    -0.413176877691E+03    0.36338E-05   -0.11309E-06  2479   0.174E-03    0.106E-03
RMM:  13    -0.413176877035E+03    0.65574E-06   -0.35284E-07  2230   0.108E-03
   25 T=    63. E= -.41286672E+03 F= -.41317688E+03 E0= -.41315508E+03  EK= 0.31016E+00 SP= 0.00E+00 SK= 0.00E+00
       N       E                     dE             d eps       ncg     rms          rms(c)
RMM:   1    -0.413177084321E+03   -0.20663E-03   -0.93550E+00  4294   0.728E-01    0.919E-01
RMM:   2    -0.413181754845E+03   -0.46705E-02   -0.11510E-01  4281   0.961E-02    0.655E-01
RMM:   3    -0.413178387054E+03    0.33678E-02   -0.15351E-02  4562   0.466E-02    0.889E-02
RMM:   4    -0.413189441964E+03   -0.11055E-01   -0.11293E-02  5142   0.887E-02    0.444E-01
RMM:   5    -0.413178235059E+03    0.11207E-01   -0.56743E-03  4828   0.733E-02    0.429E-02
RMM:   6    -0.413178269794E+03   -0.34735E-04   -0.10662E-03  5820   0.301E-02    0.241E-02
RMM:   7    -0.413178266385E+03    0.34091E-05   -0.15297E-04  5489   0.131E-02    0.139E-02
RMM:   8    -0.413178253897E+03    0.12488E-04   -0.26701E-05  4569   0.573E-03    0.779E-03
RMM:   9    -0.413178250667E+03    0.32304E-05   -0.50609E-06  3008   0.287E-03    0.591E-03
RMM:  10    -0.413178245477E+03    0.51900E-05   -0.12885E-06  2499   0.199E-03    0.327E-03
RMM:  11    -0.413178239039E+03    0.64372E-05   -0.11673E-06  2501   0.176E-03    0.171E-03
RMM:  12    -0.413178233068E+03    0.59717E-05   -0.61987E-07  2382   0.132E-03    0.753E-04
RMM:  13    -0.413178231240E+03    0.18273E-05   -0.28531E-07  1987   0.914E-04    0.415E-04
RMM:  14    -0.413178229202E+03    0.20387E-05   -0.15490E-07  1505   0.734E-04    0.279E-04
RMM:  15    -0.413178223673E+03    0.55284E-05   -0.16838E-07  1775   0.760E-04    0.244E-04
RMM:  16    -0.413178221661E+03    0.20120E-05   -0.62303E-08  1026   0.601E-04    0.186E-04
RMM:  17    -0.413178218118E+03    0.35433E-05   -0.60701E-08  1017   0.598E-04    0.112E-04
RMM:  18    -0.413178215061E+03    0.30571E-05   -0.50959E-08   972   0.590E-04    0.314E-05
RMM:  19    -0.413178214105E+03    0.95569E-06   -0.24151E-08   795   0.552E-04
   26 T=    63. E= -.41286684E+03 F= -.41317821E+03 E0= -.41315647E+03  EK= 0.31137E+00 SP= 0.00E+00 SK= 0.00E+00
       N       E                     dE             d eps       ncg     rms          rms(c)
RMM:   1    -0.413184984313E+03   -0.67693E-02   -0.94071E+00  4289   0.782E-01    0.895E-01
RMM:   2    -0.413183808641E+03    0.11757E-02   -0.12956E-01  4278   0.102E-01    0.657E-01
RMM:   3    -0.413180237484E+03    0.35712E-02   -0.14461E-02  4636   0.493E-02    0.101E-01
RMM:   4    -0.413197092023E+03   -0.16855E-01   -0.17200E-02  5143   0.110E-01    0.544E-01
RMM:   5    -0.413180009028E+03    0.17083E-01   -0.85190E-03  4819   0.900E-02    0.440E-02
RMM:   6    -0.413180086011E+03   -0.76983E-04   -0.14648E-03  5826   0.361E-02    0.263E-02
RMM:   7    -0.413180084030E+03    0.19801E-05   -0.17051E-04  5479   0.139E-02    0.121E-02
RMM:   8    -0.413180079300E+03    0.47307E-05   -0.25973E-05  4499   0.544E-03    0.788E-03
RMM:   9    -0.413180076871E+03    0.24290E-05   -0.48399E-06  2940   0.273E-03    0.521E-03
RMM:  10    -0.413180076228E+03    0.64296E-06   -0.12391E-06  2518   0.184E-03
   27 T=    64. E= -.41286721E+03 F= -.41318008E+03 E0= -.41315838E+03  EK= 0.31287E+00 SP= 0.00E+00 SK= 0.00E+00
       N       E                     dE             d eps       ncg     rms          rms(c)
RMM:   1    -0.413181553711E+03   -0.14768E-02   -0.94736E+00  4294   0.771E-01    0.908E-01
RMM:   2    -0.413185029178E+03   -0.34755E-02   -0.11767E-01  4283   0.103E-01    0.666E-01
RMM:   3    -0.413181374329E+03    0.36548E-02   -0.16438E-02  4655   0.522E-02    0.871E-02
RMM:   4    -0.413198723653E+03   -0.17349E-01   -0.17653E-02  5133   0.111E-01    0.553E-01
RMM:   5    -0.413181073138E+03    0.17651E-01   -0.88201E-03  4819   0.913E-02    0.442E-02
RMM:   6    -0.413181168414E+03   -0.95276E-04   -0.15618E-03  5835   0.369E-02    0.280E-02
RMM:   7    -0.413181167248E+03    0.11654E-05   -0.26202E-04  5588   0.164E-02    0.172E-02
RMM:   8    -0.413181158100E+03    0.91485E-05   -0.46274E-05  4839   0.768E-03    0.898E-03
RMM:   9    -0.413181154625E+03    0.34751E-05   -0.92937E-06  3540   0.359E-03    0.679E-03
RMM:  10    -0.413181152571E+03    0.20534E-05   -0.16503E-06  2520   0.221E-03    0.401E-03
RMM:  11    -0.413181150071E+03    0.25001E-05   -0.13056E-06  2517   0.188E-03    0.202E-03
RMM:  12    -0.413181147030E+03    0.30409E-05   -0.10780E-06  2492   0.166E-03    0.104E-03
RMM:  13    -0.413181145840E+03    0.11897E-05   -0.38752E-07  2224   0.111E-03    0.553E-04
RMM:  14    -0.413181144819E+03    0.10218E-05   -0.19107E-07  1705   0.788E-04    0.398E-04
RMM:  15    -0.413181142059E+03    0.27601E-05   -0.17062E-07  1759   0.769E-04    0.222E-04
RMM:  16    -0.413181139965E+03    0.20936E-05   -0.89836E-08  1217   0.642E-04    0.222E-04
RMM:  17    -0.413181138335E+03    0.16300E-05   -0.47714E-08   897   0.569E-04    0.139E-04
RMM:  18    -0.413181135102E+03    0.32326E-05   -0.63919E-08  1002   0.599E-04    0.497E-05
RMM:  19    -0.413181134269E+03    0.83322E-06   -0.25991E-08   803   0.554E-04
   28 T=    64. E= -.41286684E+03 F= -.41318113E+03 E0= -.41315949E+03  EK= 0.31429E+00 SP= 0.00E+00 SK= 0.00E+00
       N       E                     dE             d eps       ncg     rms          rms(c)
RMM:   1    -0.413182330299E+03   -0.11952E-02   -0.94845E+00  4287   0.755E-01    0.927E-01
RMM:   2    -0.413186886356E+03   -0.45561E-02   -0.11740E-01  4273   0.105E-01    0.661E-01
RMM:   3    -0.413183343741E+03    0.35426E-02   -0.15614E-02  4612   0.501E-02    0.947E-02
RMM:   4    -0.413197880637E+03   -0.14537E-01   -0.14805E-02  5145   0.102E-01    0.507E-01
RMM:   5    -0.413183151311E+03    0.14729E-01   -0.74503E-03  4826   0.835E-02    0.443E-02
RMM:   6    -0.413183212063E+03   -0.60752E-04   -0.13354E-03  5831   0.338E-02    0.270E-02
RMM:   7    -0.413183211151E+03    0.91185E-06   -0.20526E-04  5492   0.149E-02    0.153E-02
RMM:   8    -0.413183197386E+03    0.13765E-04   -0.33762E-05  4760   0.647E-03    0.845E-03
RMM:   9    -0.413183194767E+03    0.26184E-05   -0.71877E-06  3318   0.325E-03    0.652E-03
RMM:  10    -0.413183189618E+03    0.51492E-05   -0.14625E-06  2511   0.212E-03    0.361E-03
RMM:  11    -0.413183184628E+03    0.49902E-05   -0.10997E-06  2501   0.173E-03    0.189E-03
RMM:  12    -0.413183178974E+03    0.56545E-05   -0.86679E-07  2460   0.151E-03    0.954E-04
RMM:  13    -0.413183176887E+03    0.20867E-05   -0.34469E-07  2158   0.103E-03    0.462E-04
RMM:  14    -0.413183175508E+03    0.13787E-05   -0.16728E-07  1572   0.752E-04    0.337E-04
RMM:  15    -0.413183171988E+03    0.35206E-05   -0.13232E-07  1589   0.722E-04    0.169E-04
RMM:  16    -0.413183168970E+03    0.30172E-05   -0.78351E-08  1225   0.637E-04    0.181E-04
RMM:  17    -0.413183167008E+03    0.19624E-05   -0.40455E-08   877   0.568E-04    0.122E-04
RMM:  18    -0.413183163054E+03    0.39543E-05   -0.58084E-08  1049   0.601E-04    0.464E-05
RMM:  19    -0.413183162178E+03    0.87589E-06   -0.21760E-08   760   0.546E-04
   29 T=    64. E= -.41286697E+03 F= -.41318316E+03 E0= -.41316156E+03  EK= 0.31619E+00 SP= 0.00E+00 SK= 0.00E+00
       N       E                     dE             d eps       ncg     rms          rms(c)
RMM:   1    -0.413193482813E+03   -0.10320E-01   -0.95568E+00  4288   0.840E-01    0.905E-01
RMM:   2    -0.413189220714E+03    0.42621E-02   -0.13298E-01  4273   0.116E-01    0.661E-01
RMM:   3    -0.413185184673E+03    0.40360E-02   -0.14436E-02  4529   0.536E-02    0.102E-01
RMM:   4    -0.413196756370E+03   -0.11572E-01   -0.11928E-02  5146   0.913E-02    0.453E-01
RMM:   5    -0.413185053261E+03    0.11703E-01   -0.59719E-03  4828   0.747E-02    0.426E-02
RMM:   6    -0.413185096207E+03   -0.42946E-04   -0.11028E-03  5839   0.306E-02    0.260E-02
RMM:   7    -0.413185098233E+03   -0.20259E-05   -0.22264E-04  5443   0.152E-02    0.167E-02
RMM:   8    -0.413185081846E+03    0.16388E-04   -0.31514E-05  4691   0.663E-03    0.796E-03
RMM:   9    -0.413185080084E+03    0.17612E-05   -0.59056E-06  3090   0.305E-03    0.583E-03
RMM:  10    -0.413185076919E+03    0.31656E-05   -0.15243E-06  2502   0.209E-03    0.322E-03
RMM:  11    -0.413185073805E+03    0.31142E-05   -0.10081E-06  2487   0.167E-03    0.166E-03
RMM:  12    -0.413185070495E+03    0.33096E-05   -0.69188E-07  2425   0.136E-03    0.893E-04
RMM:  13    -0.413185068968E+03    0.15271E-05   -0.29871E-07  2046   0.954E-04    0.385E-04
RMM:  14    -0.413185067581E+03    0.13869E-05   -0.15719E-07  1486   0.734E-04    0.244E-04
RMM:  15    -0.413185065042E+03    0.25387E-05   -0.11304E-07  1366   0.686E-04    0.116E-04
RMM:  16    -0.413185062810E+03    0.22318E-05   -0.68182E-08  1057   0.630E-04    0.998E-05
RMM:  17    -0.413185061300E+03    0.15107E-05   -0.39548E-08   870   0.587E-04    0.658E-05
RMM:  18    -0.413185058038E+03    0.32616E-05   -0.61432E-08  1071   0.615E-04    0.258E-05
RMM:  19    -0.413185057362E+03    0.67581E-06   -0.22725E-08   767   0.553E-04
   30 T=    65. E= -.41286686E+03 F= -.41318506E+03 E0= -.41316351E+03  EK= 0.31820E+00 SP= 0.00E+00 SK= 0.00E+00
       N       E                     dE             d eps       ncg     rms          rms(c)
RMM:   1    -0.413186451863E+03   -0.13938E-02   -0.96053E+00  4298   0.786E-01    0.911E-01
RMM:   2    -0.413191353720E+03   -0.49019E-02   -0.12074E-01  4276   0.112E-01    0.671E-01
RMM:   3    -0.413187068715E+03    0.42850E-02   -0.16854E-02  4630   0.630E-02    0.936E-02
RMM:   4    -0.413208222740E+03   -0.21154E-01   -0.21550E-02  5140   0.123E-01    0.609E-01
RMM:   5    -0.413186694361E+03    0.21528E-01   -0.10782E-02  4816   0.101E-01    0.458E-02
RMM:   6    -0.413186794755E+03   -0.10039E-03   -0.18375E-03  5848   0.399E-02    0.284E-02
RMM:   7    -0.413186795612E+03   -0.85685E-06   -0.22135E-04  5548   0.152E-02    0.136E-02
RMM:   8    -0.413186791155E+03    0.44576E-05   -0.33647E-05  4705   0.614E-03    0.843E-03
RMM:   9    -0.413186788894E+03    0.22604E-05   -0.85961E-06  3507   0.325E-03    0.629E-03
RMM:  10    -0.413186787984E+03    0.91060E-06   -0.17952E-06  2564   0.215E-03
   31 T=    65. E= -.41286660E+03 F= -.41318679E+03 E0= -.41316529E+03  EK= 0.32019E+00 SP= 0.00E+00 SK= 0.00E+00
       N       E                     dE             d eps       ncg     rms          rms(c)
RMM:   1    -0.413189521413E+03   -0.27325E-02   -0.96543E+00  4300   0.815E-01    0.933E-01
RMM:   2    -0.413193482146E+03   -0.39607E-02   -0.12149E-01  4297   0.119E-01    0.669E-01
RMM:   3    -0.413190783815E+03    0.26983E-02   -0.16779E-02  4915   0.721E-02    0.176E-01
RMM:   4    -0.413232335891E+03   -0.41552E-01   -0.47322E-02  5123   0.182E-01    0.851E-01
RMM:   5    -0.413189239310E+03    0.43097E-01   -0.20409E-02  4788   0.141E-01    0.575E-02
RMM:   6    -0.413189431585E+03   -0.19227E-03   -0.35964E-03  5793   0.569E-02    0.376E-02
RMM:   7    -0.413189427713E+03    0.38717E-05   -0.53754E-04  5750   0.208E-02    0.237E-02
RMM:   8    -0.413189416958E+03    0.10755E-04   -0.82169E-05  5250   0.994E-03    0.109E-02
RMM:   9    -0.413189408378E+03    0.85799E-05   -0.16571E-05  4210   0.461E-03    0.687E-03
RMM:  10    -0.413189402200E+03    0.61779E-05   -0.28215E-06  2650   0.250E-03    0.443E-03
RMM:  11    -0.413189397885E+03    0.43153E-05   -0.11044E-06  2506   0.173E-03    0.260E-03
RMM:  12    -0.413189389360E+03    0.85244E-05   -0.14236E-06  2520   0.190E-03    0.104E-03
RMM:  13    -0.413189384636E+03    0.47240E-05   -0.69881E-07  2398   0.139E-03    0.777E-04
RMM:  14    -0.413189383591E+03    0.10453E-05   -0.30180E-07  2064   0.955E-04    0.508E-04
RMM:  15    -0.413189382127E+03    0.14637E-05   -0.14951E-07  1488   0.724E-04    0.367E-04
RMM:  16    -0.413189376465E+03    0.56621E-05   -0.15186E-07  1744   0.757E-04    0.369E-04
RMM:  17    -0.413189374417E+03    0.20487E-05   -0.66445E-08  1111   0.598E-04    0.290E-04
RMM:  18    -0.413189368536E+03    0.58811E-05   -0.91014E-08  1298   0.640E-04    0.285E-04
RMM:  19    -0.413189367507E+03    0.10287E-05   -0.34723E-08   846   0.530E-04    0.126E-04
RMM:  20    -0.413189365885E+03    0.16217E-05   -0.36052E-08   929   0.554E-04    0.709E-05
RMM:  21    -0.413189365688E+03    0.19705E-06   -0.12777E-08   701   0.524E-04
   32 T=    66. E= -.41286691E+03 F= -.41318937E+03 E0= -.41316792E+03  EK= 0.32245E+00 SP= 0.00E+00 SK= 0.00E+00
       N       E                     dE             d eps       ncg     rms          rms(c)
RMM:   1    -0.413194172252E+03   -0.48064E-02   -0.96645E+00  4299   0.848E-01    0.921E-01
RMM:   2    -0.413195207231E+03   -0.10350E-02   -0.12289E-01  4281   0.121E-01    0.665E-01
RMM:   3    -0.413191322795E+03    0.38844E-02   -0.15800E-02  4412   0.627E-02    0.847E-02
RMM:   4    -0.413197515424E+03   -0.61926E-02   -0.64479E-03  5158   0.675E-02    0.333E-01
RMM:   5    -0.413191278198E+03    0.62372E-02   -0.32017E-03  4828   0.548E-02    0.418E-02
RMM:   6    -0.413191315526E+03   -0.37329E-04   -0.78558E-04  5742   0.263E-02    0.294E-02
RMM:   7    -0.413191294981E+03    0.20545E-04   -0.26580E-04  5238   0.165E-02    0.177E-02
RMM:   8    -0.413191281812E+03    0.13169E-04   -0.21410E-05  4364   0.589E-03    0.737E-03
RMM:   9    -0.413191279135E+03    0.26769E-05   -0.30849E-06  2706   0.237E-03    0.482E-03
RMM:  10    -0.413191274487E+03    0.46475E-05   -0.13357E-06  2494   0.188E-03    0.252E-03
RMM:  11    -0.413191270346E+03    0.41413E-05   -0.82570E-07  2443   0.148E-03    0.121E-03
RMM:  12    -0.413191266433E+03    0.39126E-05   -0.46400E-07  2248   0.113E-03    0.532E-04
RMM:  13    -0.413191263972E+03    0.24617E-05   -0.25034E-07  1857   0.854E-04    0.278E-04
RMM:  14    -0.413191261139E+03    0.28329E-05   -0.12769E-07  1293   0.696E-04    0.178E-04
RMM:  15    -0.413191257105E+03    0.40341E-05   -0.90831E-08  1156   0.653E-04    0.882E-05
RMM:  16    -0.413191254758E+03    0.23464E-05   -0.55657E-08   998   0.609E-04    0.657E-05
RMM:  17    -0.413191251020E+03    0.37380E-05   -0.63848E-08  1184   0.623E-04    0.546E-05
RMM:  18    -0.413191249152E+03    0.18686E-05   -0.34697E-08   933   0.564E-04    0.353E-05
RMM:  19    -0.413191248406E+03    0.74550E-06   -0.16551E-08   721   0.528E-04
   33 T=    66. E= -.41286680E+03 F= -.41319125E+03 E0= -.41316985E+03  EK= 0.32445E+00 SP= 0.00E+00 SK= 0.00E+00
       N       E                     dE             d eps       ncg     rms          rms(c)
RMM:   1    -0.413198278633E+03   -0.70295E-02   -0.97997E+00  4301   0.865E-01    0.917E-01
RMM:   2    -0.413197793021E+03    0.48561E-03   -0.12539E-01  4275   0.126E-01    0.676E-01
RMM:   3    -0.413193592745E+03    0.42003E-02   -0.16878E-02  4297   0.676E-02    0.660E-02
RMM:   4    -0.413195102535E+03   -0.15098E-02   -0.18386E-03  5173   0.357E-02    0.167E-01
RMM:   5    -0.413193599677E+03    0.15029E-02   -0.82896E-04  4823   0.283E-02    0.402E-02
RMM:   6    -0.413193630367E+03   -0.30690E-04   -0.45723E-04  5480   0.205E-02    0.295E-02
RMM:   7    -0.413193599669E+03    0.30698E-04   -0.21331E-04  4968   0.150E-02    0.190E-02
RMM:   8    -0.413193592271E+03    0.73988E-05   -0.26751E-05  4344   0.532E-03    0.617E-03
RMM:   9    -0.413193591586E+03    0.68483E-06   -0.27932E-06  2558   0.218E-03
   34 T=    66. E= -.41286696E+03 F= -.41319359E+03 E0= -.41317224E+03  EK= 0.32663E+00 SP= 0.00E+00 SK= 0.00E+00
       N       E                     dE             d eps       ncg     rms          rms(c)
RMM:   1    -0.413211535652E+03   -0.17943E-01   -0.99709E+00  4304   0.958E-01    0.937E-01
RMM:   2    -0.413200050113E+03    0.11486E-01   -0.14137E-01  4274   0.133E-01    0.679E-01
RMM:   3    -0.413196223590E+03    0.38265E-02   -0.15076E-02  4308   0.636E-02    0.991E-02
RMM:   4    -0.413196327633E+03   -0.10404E-03   -0.87582E-04  4804   0.197E-02    0.414E-02
RMM:   5    -0.413196321358E+03    0.62749E-05   -0.28658E-04  5053   0.177E-02    0.336E-02
RMM:   6    -0.413196313219E+03    0.81394E-05   -0.23243E-04  4813   0.152E-02    0.269E-02
RMM:   7    -0.413196285134E+03    0.28085E-04   -0.34307E-05  4919   0.640E-03    0.150E-02
RMM:   8    -0.413196278434E+03    0.67004E-05   -0.11055E-05  3301   0.376E-03    0.477E-03
RMM:   9    -0.413196276530E+03    0.19033E-05   -0.32395E-06  2401   0.200E-03    0.171E-03
RMM:  10    -0.413196267997E+03    0.85336E-05   -0.99322E-07  2392   0.152E-03    0.773E-04
RMM:  11    -0.413196263008E+03    0.49882E-05   -0.32294E-07  1905   0.921E-04    0.447E-04
RMM:  12    -0.413196259167E+03    0.38417E-05   -0.12688E-07  1294   0.685E-04    0.301E-04
RMM:  13    -0.413196253340E+03    0.58264E-05   -0.10429E-07  1084   0.648E-04    0.226E-04
RMM:  14    -0.413196247849E+03    0.54913E-05   -0.79797E-08  1111   0.628E-04    0.168E-04
RMM:  15    -0.413196245183E+03    0.26659E-05   -0.34774E-08   743   0.542E-04    0.845E-05
RMM:  16    -0.413196238823E+03    0.63599E-05   -0.68009E-08  1086   0.613E-04    0.435E-05
RMM:  17    -0.413196238058E+03    0.76550E-06   -0.11872E-08   581   0.491E-04
   35 T=    67. E= -.41286719E+03 F= -.41319624E+03 E0= -.41317493E+03  EK= 0.32904E+00 SP= 0.00E+00 SK= 0.00E+00
       N       E                     dE             d eps       ncg     rms          rms(c)
RMM:   1    -0.413198296685E+03   -0.20579E-02   -0.98194E+00  4301   0.869E-01    0.936E-01
RMM:   2    -0.413201912434E+03   -0.36157E-02   -0.12733E-01  4257   0.131E-01    0.672E-01
RMM:   3    -0.413198522810E+03    0.33896E-02   -0.15947E-02  4520   0.676E-02    0.993E-02
RMM:   4    -0.413212043698E+03   -0.13521E-01   -0.13642E-02  5158   0.983E-02    0.490E-01
RMM:   5    -0.413198418509E+03    0.13625E-01   -0.69321E-03  4817   0.812E-02    0.453E-02
RMM:   6    -0.413198438942E+03   -0.20432E-04   -0.13474E-03  5796   0.353E-02    0.311E-02
RMM:   7    -0.413198436778E+03    0.21639E-05   -0.33447E-04  5407   0.181E-02    0.199E-02
RMM:   8    -0.413198417635E+03    0.19143E-04   -0.39240E-05  4902   0.748E-03    0.907E-03
RMM:   9    -0.413198414733E+03    0.29020E-05   -0.70948E-06  3188   0.327E-03    0.596E-03
RMM:  10    -0.413198409221E+03    0.55122E-05   -0.16624E-06  2522   0.224E-03    0.315E-03
RMM:  11    -0.413198403922E+03    0.52991E-05   -0.11637E-06  2500   0.176E-03    0.162E-03
RMM:  12    -0.413198397992E+03    0.59298E-05   -0.76942E-07  2441   0.146E-03    0.835E-04
RMM:  13    -0.413198395114E+03    0.28781E-05   -0.34211E-07  2112   0.101E-03    0.418E-04
RMM:  14    -0.413198393009E+03    0.21043E-05   -0.17249E-07  1586   0.759E-04    0.269E-04
RMM:  15    -0.413198388853E+03    0.41559E-05   -0.10546E-07  1280   0.683E-04    0.117E-04
RMM:  16    -0.413198385422E+03    0.34314E-05   -0.64856E-08  1037   0.636E-04    0.861E-05
RMM:  17    -0.413198382711E+03    0.27112E-05   -0.46506E-08   968   0.606E-04    0.596E-05
RMM:  18    -0.413198378197E+03    0.45137E-05   -0.54580E-08  1173   0.624E-04    0.347E-05
RMM:  19    -0.413198376983E+03    0.12139E-05   -0.24435E-08   814   0.549E-04    0.254E-05
RMM:  20    -0.413198376563E+03    0.42047E-06   -0.13024E-08   676   0.531E-04
   36 T=    67. E= -.41286702E+03 F= -.41319838E+03 E0= -.41317711E+03  EK= 0.33136E+00 SP= 0.00E+00 SK= 0.00E+00
       N       E                     dE             d eps       ncg     rms          rms(c)
RMM:   1    -0.413207639531E+03   -0.92625E-02   -0.99682E+00  4304   0.935E-01    0.923E-01
RMM:   2    -0.413205723002E+03    0.19165E-02   -0.13587E-01  4257   0.134E-01    0.681E-01
RMM:   3    -0.413201531862E+03    0.41911E-02   -0.16019E-02  4584   0.647E-02    0.987E-02
RMM:   4    -0.413218976245E+03   -0.17444E-01   -0.17678E-02  5151   0.112E-01    0.555E-01
RMM:   5    -0.413201353042E+03    0.17623E-01   -0.89458E-03  4814   0.920E-02    0.461E-02
RMM:   6    -0.413201377580E+03   -0.24538E-04   -0.16088E-03  5822   0.380E-02    0.304E-02
RMM:   7    -0.413201390346E+03   -0.12766E-04   -0.33605E-04  5473   0.179E-02    0.197E-02
RMM:   8    -0.413201372875E+03    0.17471E-04   -0.49312E-05  4958   0.804E-03    0.915E-03
RMM:   9    -0.413201371885E+03    0.98966E-06   -0.94392E-06  3551   0.375E-03
   37 T=    68. E= -.41286725E+03 F= -.41320137E+03 E0= -.41318015E+03  EK= 0.33413E+00 SP= 0.00E+00 SK= 0.00E+00
       N       E                     dE             d eps       ncg     rms          rms(c)
RMM:   1    -0.413211905016E+03   -0.10532E-01   -0.10092E+01  4308   0.984E-01    0.941E-01
RMM:   2    -0.413208537594E+03    0.33674E-02   -0.14462E-01  4290   0.133E-01    0.688E-01
RMM:   3    -0.413208861464E+03   -0.32387E-03   -0.19098E-02  5077   0.886E-02    0.312E-01
RMM:   4    -0.413241090756E+03   -0.32229E-01   -0.51691E-02  5081   0.193E-01    0.793E-01
RMM:   5    -0.413203915986E+03    0.37175E-01   -0.15475E-02  4721   0.130E-01    0.597E-02
RMM:   6    -0.413203974272E+03   -0.58286E-04   -0.30359E-03  5750   0.518E-02    0.359E-02
RMM:   7    -0.413203974971E+03   -0.69894E-06   -0.46715E-04  5729   0.199E-02    0.236E-02
RMM:   8    -0.413203969524E+03    0.54470E-05   -0.10463E-04  5159   0.110E-02    0.119E-02
RMM:   9    -0.413203958951E+03    0.10573E-04   -0.16385E-05  4233   0.517E-03    0.542E-03
RMM:  10    -0.413203954303E+03    0.46484E-05   -0.36559E-06  2774   0.262E-03    0.328E-03
RMM:  11    -0.413203949835E+03    0.44676E-05   -0.12886E-06  2496   0.189E-03    0.178E-03
RMM:  12    -0.413203942572E+03    0.72629E-05   -0.95884E-07  2469   0.162E-03    0.678E-04
RMM:  13    -0.413203938265E+03    0.43074E-05   -0.46895E-07  2267   0.115E-03    0.372E-04
RMM:  14    -0.413203936385E+03    0.18805E-05   -0.24619E-07  1857   0.857E-04    0.280E-04
RMM:  15    -0.413203931523E+03    0.48616E-05   -0.15662E-07  1427   0.737E-04    0.162E-04
RMM:  16    -0.413203927715E+03    0.38075E-05   -0.10135E-07  1199   0.668E-04    0.146E-04
RMM:  17    -0.413203923679E+03    0.40364E-05   -0.79987E-08  1211   0.651E-04    0.937E-05
RMM:  18    -0.413203921285E+03    0.23941E-05   -0.55177E-08  1091   0.606E-04    0.559E-05
RMM:  19    -0.413203918801E+03    0.24839E-05   -0.42761E-08  1037   0.585E-04    0.357E-05
RMM:  20    -0.413203918176E+03    0.62477E-06   -0.23333E-08   829   0.543E-04
   38 T=    69. E= -.41286703E+03 F= -.41320392E+03 E0= -.41318274E+03  EK= 0.33689E+00 SP= 0.00E+00 SK= 0.00E+00
       N       E                     dE             d eps       ncg     rms          rms(c)
RMM:   1    -0.413207562232E+03   -0.36434E-02   -0.10053E+01  4303   0.965E-01    0.953E-01
RMM:   2    -0.413210903737E+03   -0.33415E-02   -0.13299E-01  4259   0.124E-01    0.682E-01
RMM:   3    -0.413207315178E+03    0.35886E-02   -0.16331E-02  4927   0.604E-02    0.155E-01
RMM:   4    -0.413249093856E+03   -0.41779E-01   -0.45208E-02  5131   0.177E-01    0.850E-01
RMM:   5    -0.413206385505E+03    0.42708E-01   -0.21013E-02  4790   0.142E-01    0.562E-02
RMM:   6    -0.413206505841E+03   -0.12034E-03   -0.35334E-03  5826   0.555E-02    0.358E-02
RMM:   7    -0.413206510973E+03   -0.51328E-05   -0.41517E-04  5667   0.193E-02    0.185E-02
RMM:   8    -0.413206503251E+03    0.77222E-05   -0.52531E-05  4834   0.725E-03    0.978E-03
RMM:   9    -0.413206496966E+03    0.62849E-05   -0.13073E-05  3821   0.388E-03    0.631E-03
RMM:  10    -0.413206494099E+03    0.28668E-05   -0.35964E-06  2774   0.255E-03    0.436E-03
RMM:  11    -0.413206489064E+03    0.50350E-05   -0.13625E-06  2487   0.201E-03    0.256E-03
RMM:  12    -0.413206479380E+03    0.96846E-05   -0.16470E-06  2511   0.209E-03    0.107E-03
RMM:  13    -0.413206476042E+03    0.33383E-05   -0.57782E-07  2421   0.138E-03    0.805E-04
RMM:  14    -0.413206475798E+03    0.24358E-06   -0.25222E-07  2048   0.898E-04
   39 T=    69. E= -.41286682E+03 F= -.41320648E+03 E0= -.41318534E+03  EK= 0.33965E+00 SP= 0.00E+00 SK= 0.00E+00
       N       E                     dE             d eps       ncg     rms          rms(c)
RMM:   1    -0.413222351441E+03   -0.15875E-01   -0.10212E+01  4308   0.108E+00    0.932E-01
RMM:   2    -0.413214447627E+03    0.79038E-02   -0.15374E-01  4262   0.132E-01    0.688E-01
RMM:   3    -0.413210295315E+03    0.41523E-02   -0.14875E-02  4915   0.599E-02    0.164E-01
RMM:   4    -0.413255960996E+03   -0.45666E-01   -0.48960E-02  5133   0.184E-01    0.886E-01
RMM:   5    -0.413209382366E+03    0.46579E-01   -0.23086E-02  4792   0.148E-01    0.571E-02
RMM:   6    -0.413209521993E+03   -0.13963E-03   -0.37947E-03  5829   0.575E-02    0.357E-02
RMM:   7    -0.413209530946E+03   -0.89534E-05   -0.43959E-04  5681   0.196E-02    0.187E-02
RMM:   8    -0.413209527085E+03    0.38615E-05   -0.66482E-05  5007   0.808E-03    0.104E-02
RMM:   9    -0.413209521712E+03    0.53728E-05   -0.22078E-05  4542   0.487E-03    0.767E-03
RMM:  10    -0.413209518085E+03    0.36266E-05   -0.50606E-06  3008   0.302E-03    0.456E-03
RMM:  11    -0.413209514626E+03    0.34595E-05   -0.17241E-06  2512   0.215E-03    0.279E-03
RMM:  12    -0.413209506557E+03    0.80692E-05   -0.19821E-06  2531   0.227E-03    0.112E-03
RMM:  13    -0.413209502933E+03    0.36237E-05   -0.68405E-07  2427   0.148E-03    0.899E-04
RMM:  14    -0.413209502974E+03   -0.40400E-07   -0.28744E-07  2105   0.953E-04
   40 T=    70. E= -.41286694E+03 F= -.41320950E+03 E0= -.41318840E+03  EK= 0.34256E+00 SP= 0.00E+00 SK= 0.00E+00
       N       E                     dE             d eps       ncg     rms          rms(c)
RMM:   1    -0.413222763124E+03   -0.13260E-01   -0.10333E+01  4309   0.111E+00    0.948E-01
RMM:   2    -0.413216591294E+03    0.61718E-02   -0.14357E-01  4266   0.138E-01    0.697E-01
RMM:   3    -0.413212976437E+03    0.36149E-02   -0.17174E-02  4982   0.664E-02    0.184E-01
RMM:   4    -0.413261941653E+03   -0.48965E-01   -0.55744E-02  5132   0.197E-01    0.920E-01
RMM:   5    -0.413211397410E+03    0.50544E-01   -0.24286E-02  4789   0.153E-01    0.592E-02
RMM:   6    -0.413211555258E+03   -0.15785E-03   -0.41009E-03  5821   0.598E-02    0.366E-02
RMM:   7    -0.413211566529E+03   -0.11271E-04   -0.50516E-04  5762   0.208E-02    0.212E-02
RMM:   8    -0.413211566980E+03   -0.45090E-06   -0.10958E-04  5230   0.104E-02    0.137E-02
RMM:   9    -0.413211555182E+03    0.11798E-04   -0.25473E-05  4681   0.577E-03    0.759E-03
RMM:  10    -0.413211551199E+03    0.39824E-05   -0.44146E-06  2842   0.295E-03    0.457E-03
RMM:  11    -0.413211548238E+03    0.29612E-05   -0.14879E-06  2495   0.205E-03    0.279E-03
RMM:  12    -0.413211541507E+03    0.67308E-05   -0.17318E-06  2532   0.213E-03    0.112E-03
RMM:  13    -0.413211537188E+03    0.43197E-05   -0.75280E-07  2442   0.149E-03    0.789E-04
RMM:  14    -0.413211536706E+03    0.48149E-06   -0.31038E-07  2139   0.984E-04
   41 T=    70. E= -.41286650E+03 F= -.41321154E+03 E0= -.41319047E+03  EK= 0.34504E+00 SP= 0.00E+00 SK= 0.00E+00
       N       E                     dE             d eps       ncg     rms          rms(c)
RMM:   1    -0.413222306640E+03   -0.10769E-01   -0.10327E+01  4311   0.115E+00    0.967E-01
RMM:   2    -0.413218496813E+03    0.38098E-02   -0.14352E-01  4298   0.135E-01    0.693E-01
RMM:   3    -0.413217013296E+03    0.14835E-02   -0.17968E-02  5062   0.752E-02    0.255E-01
RMM:   4    -0.413258844796E+03   -0.41832E-01   -0.55460E-02  5103   0.198E-01    0.869E-01
RMM:   5    -0.413213964456E+03    0.44880E-01   -0.20304E-02  4763   0.144E-01    0.612E-02
RMM:   6    -0.413214069750E+03   -0.10529E-03   -0.35920E-03  5787   0.564E-02    0.371E-02
RMM:   7    -0.413214078553E+03   -0.88029E-05   -0.49195E-04  5727   0.206E-02    0.225E-02
RMM:   8    -0.413214076690E+03    0.18621E-05   -0.12955E-04  5230   0.115E-02    0.139E-02
RMM:   9    -0.413214061035E+03    0.15656E-04   -0.22942E-05  4548   0.590E-03    0.633E-03
RMM:  10    -0.413214054895E+03    0.61397E-05   -0.50029E-06  2968   0.293E-03    0.389E-03
RMM:  11    -0.413214049815E+03    0.50803E-05   -0.12864E-06  2494   0.196E-03    0.224E-03
RMM:  12    -0.413214040218E+03    0.95968E-05   -0.10958E-06  2479   0.178E-03    0.877E-04
RMM:  13    -0.413214034263E+03    0.59545E-05   -0.51480E-07  2370   0.126E-03    0.508E-04
RMM:  14    -0.413214032923E+03    0.13402E-05   -0.25346E-07  1973   0.886E-04    0.356E-04
RMM:  15    -0.413214029907E+03    0.30165E-05   -0.13388E-07  1445   0.712E-04    0.191E-04
RMM:  16    -0.413214022870E+03    0.70371E-05   -0.11521E-07  1443   0.707E-04    0.226E-04
RMM:  17    -0.413214020439E+03    0.24307E-05   -0.55940E-08  1001   0.604E-04    0.142E-04
RMM:  18    -0.413214015243E+03    0.51958E-05   -0.68072E-08  1363   0.646E-04    0.122E-04
RMM:  19    -0.413214013022E+03    0.22213E-05   -0.35629E-08   997   0.562E-04    0.582E-05
RMM:  20    -0.413214011836E+03    0.11858E-05   -0.24929E-08   894   0.546E-04    0.344E-05
RMM:  21    -0.413214011620E+03    0.21661E-06   -0.12506E-08   708   0.519E-04
   42 T=    71. E= -.41286662E+03 F= -.41321401E+03 E0= -.41319297E+03  EK= 0.34739E+00 SP= 0.00E+00 SK= 0.00E+00
       N       E                     dE             d eps       ncg     rms          rms(c)
RMM:   1    -0.413246520087E+03   -0.32508E-01   -0.10523E+01  4311   0.132E+00    0.943E-01
RMM:   2    -0.413220693759E+03    0.25826E-01   -0.17451E-01  4311   0.152E-01    0.695E-01
RMM:   3    -0.413220607606E+03    0.86153E-04   -0.16730E-02  5075   0.829E-02    0.323E-01
RMM:   4    -0.413259548615E+03   -0.38941E-01   -0.58253E-02  5094   0.204E-01    0.858E-01
RMM:   5    -0.413216012994E+03    0.43536E-01   -0.19104E-02  4731   0.143E-01    0.642E-02
RMM:   6    -0.413216087544E+03   -0.74550E-04   -0.34295E-03  5731   0.555E-02    0.370E-02
RMM:   7    -0.413216093389E+03   -0.58448E-05   -0.52374E-04  5791   0.206E-02    0.246E-02
RMM:   8    -0.413216090288E+03    0.31008E-05   -0.13327E-04  5193   0.120E-02    0.129E-02
RMM:   9    -0.413216077951E+03    0.12338E-04   -0.22079E-05  4516   0.591E-03    0.512E-03
RMM:  10    -0.413216074756E+03    0.31943E-05   -0.47274E-06  2899   0.274E-03    0.323E-03
RMM:  11    -0.413216071135E+03    0.36217E-05   -0.13471E-06  2500   0.191E-03    0.178E-03
RMM:  12    -0.413216065933E+03    0.52012E-05   -0.81768E-07  2460   0.152E-03    0.679E-04
RMM:  13    -0.413216062678E+03    0.32553E-05   -0.40528E-07  2186   0.109E-03    0.326E-04
RMM:  14    -0.413216060659E+03    0.20187E-05   -0.21777E-07  1750   0.826E-04    0.222E-04
RMM:  15    -0.413216057035E+03    0.36245E-05   -0.14065E-07  1375   0.719E-04    0.115E-04
RMM:  16    -0.413216054298E+03    0.27366E-05   -0.88872E-08  1158   0.662E-04    0.900E-05
RMM:  17    -0.413216051967E+03    0.23316E-05   -0.66122E-08  1127   0.637E-04    0.571E-05
RMM:  18    -0.413216049144E+03    0.28230E-05   -0.55460E-08  1149   0.625E-04    0.366E-05
RMM:  19    -0.413216047345E+03    0.17984E-05   -0.35440E-08   993   0.581E-04    0.236E-05
RMM:  20    -0.413216046630E+03    0.71487E-06   -0.20294E-08   827   0.550E-04
   43 T=    71. E= -.41286672E+03 F= -.41321605E+03 E0= -.41319504E+03  EK= 0.34932E+00 SP= 0.00E+00 SK= 0.00E+00
       N       E                     dE             d eps       ncg     rms          rms(c)
RMM:   1    -0.413226221837E+03   -0.10174E-01   -0.10420E+01  4311   0.127E+00    0.950E-01
RMM:   2    -0.413222189059E+03    0.40328E-02   -0.15178E-01  4323   0.154E-01    0.705E-01
RMM:   3    -0.413223450300E+03   -0.12612E-02   -0.20994E-02  5075   0.949E-02    0.345E-01
RMM:   4    -0.413254742937E+03   -0.31293E-01   -0.54503E-02  5065   0.199E-01    0.794E-01
RMM:   5    -0.413217326385E+03    0.37417E-01   -0.15305E-02  4710   0.131E-01    0.606E-02
RMM:   6    -0.413217369532E+03   -0.43147E-04   -0.28720E-03  5709   0.509E-02    0.352E-02
RMM:   7    -0.413217366499E+03    0.30334E-05   -0.43223E-04  5715   0.197E-02    0.230E-02
RMM:   8    -0.413217362734E+03    0.37645E-05   -0.11775E-04  5163   0.114E-02    0.118E-02
RMM:   9    -0.413217352392E+03    0.10343E-04   -0.17629E-05  4338   0.548E-03    0.484E-03
RMM:  10    -0.413217349980E+03    0.24116E-05   -0.38075E-06  2790   0.254E-03    0.299E-03
RMM:  11    -0.413217347285E+03    0.26954E-05   -0.12267E-06  2496   0.182E-03    0.161E-03
RMM:  12    -0.413217343180E+03    0.41044E-05   -0.80760E-07  2450   0.148E-03    0.646E-04
RMM:  13    -0.413217340696E+03    0.24838E-05   -0.39074E-07  2108   0.105E-03    0.303E-04
RMM:  14    -0.413217338940E+03    0.17566E-05   -0.21301E-07  1649   0.807E-04    0.198E-04
RMM:  15    -0.413217335290E+03    0.36498E-05   -0.15770E-07  1382   0.732E-04    0.128E-04
RMM:  16    -0.413217333496E+03    0.17943E-05   -0.91018E-08  1141   0.658E-04    0.875E-05
RMM:  17    -0.413217331103E+03    0.23928E-05   -0.74182E-08  1176   0.646E-04    0.531E-05
RMM:  18    -0.413217328852E+03    0.22510E-05   -0.57461E-08  1112   0.612E-04    0.337E-05
RMM:  19    -0.413217327002E+03    0.18502E-05   -0.37990E-08   984   0.582E-04    0.227E-05
RMM:  20    -0.413217326531E+03    0.47067E-06   -0.19375E-08   766   0.544E-04
   44 T=    71. E= -.41286667E+03 F= -.41321733E+03 E0= -.41319634E+03  EK= 0.35065E+00 SP= 0.00E+00 SK= 0.00E+00
       N       E                     dE             d eps       ncg     rms          rms(c)
RMM:   1    -0.413256439803E+03   -0.39113E-01   -0.10688E+01  4311   0.148E+00    0.972E-01
RMM:   2    -0.413223091498E+03    0.33348E-01   -0.16917E-01  4335   0.165E-01    0.702E-01
RMM:   3    -0.413227822817E+03   -0.47313E-02   -0.21718E-02  5109   0.106E-01    0.429E-01
RMM:   4    -0.413245903772E+03   -0.18081E-01   -0.47959E-02  5055   0.189E-01    0.684E-01
RMM:   5    -0.413218810991E+03    0.27093E-01   -0.10385E-02  4666   0.114E-01    0.605E-02
RMM:   6    -0.413218797886E+03    0.13104E-04   -0.21111E-03  5613   0.443E-02    0.353E-02
RMM:   7    -0.413218792941E+03    0.49453E-05   -0.36889E-04  5643   0.186E-02    0.232E-02
RMM:   8    -0.413218783593E+03    0.93486E-05   -0.12195E-04  5090   0.118E-02    0.111E-02
RMM:   9    -0.413218770086E+03    0.13507E-04   -0.16311E-05  4328   0.555E-03    0.447E-03
RMM:  10    -0.413218766171E+03    0.39149E-05   -0.31733E-06  2752   0.238E-03    0.262E-03
RMM:  11    -0.413218760551E+03    0.56194E-05   -0.11668E-06  2483   0.179E-03    0.141E-03
RMM:  12    -0.413218754381E+03    0.61700E-05   -0.63725E-07  2429   0.136E-03    0.644E-04
RMM:  13    -0.413218750610E+03    0.37710E-05   -0.30820E-07  1942   0.952E-04    0.300E-04
RMM:  14    -0.413218747276E+03    0.33344E-05   -0.17460E-07  1502   0.752E-04    0.172E-04
RMM:  15    -0.413218742008E+03    0.52678E-05   -0.13112E-07  1313   0.707E-04    0.126E-04
RMM:  16    -0.413218739105E+03    0.29035E-05   -0.82721E-08  1136   0.647E-04    0.914E-05
RMM:  17    -0.413218734307E+03    0.47981E-05   -0.82356E-08  1337   0.659E-04    0.625E-05
RMM:  18    -0.413218732243E+03    0.20636E-05   -0.45916E-08  1009   0.578E-04    0.429E-05
RMM:  19    -0.413218730408E+03    0.18345E-05   -0.32703E-08   924   0.559E-04    0.225E-05
RMM:  20    -0.413218730140E+03    0.26809E-06   -0.16931E-08   718   0.525E-04
   45 T=    72. E= -.41286718E+03 F= -.41321873E+03 E0= -.41319777E+03  EK= 0.35155E+00 SP= 0.00E+00 SK= 0.00E+00
       N       E                     dE             d eps       ncg     rms          rms(c)
RMM:   1    -0.413251974893E+03   -0.33244E-01   -0.10542E+01  4310   0.153E+00    0.953E-01
RMM:   2    -0.413222999458E+03    0.28975E-01   -0.16955E-01  4355   0.177E-01    0.696E-01
RMM:   3    -0.413230194617E+03   -0.71952E-02   -0.23397E-02  5114   0.116E-01    0.482E-01
RMM:   4    -0.413240773732E+03   -0.10579E-01   -0.45503E-02  5028   0.186E-01    0.621E-01
RMM:   5    -0.413218588306E+03    0.22185E-01   -0.80144E-03  4617   0.105E-01    0.589E-02
RMM:   6    -0.413218552725E+03    0.35582E-04   -0.16860E-03  5497   0.400E-02    0.335E-02
RMM:   7    -0.413218547920E+03    0.48042E-05   -0.31079E-04  5581   0.173E-02    0.223E-02
RMM:   8    -0.413218538493E+03    0.94271E-05   -0.12705E-04  5068   0.118E-02    0.105E-02
RMM:   9    -0.413218525586E+03    0.12907E-04   -0.15287E-05  4283   0.549E-03    0.428E-03
RMM:  10    -0.413218522290E+03    0.32963E-05   -0.28351E-06  2710   0.227E-03    0.246E-03
RMM:  11    -0.413218516949E+03    0.53405E-05   -0.11885E-06  2487   0.178E-03    0.131E-03
RMM:  12    -0.413218511881E+03    0.50688E-05   -0.59831E-07  2410   0.132E-03    0.663E-04
RMM:  13    -0.413218508406E+03    0.34748E-05   -0.28671E-07  1866   0.921E-04    0.316E-04
RMM:  14    -0.413218504950E+03    0.34558E-05   -0.16164E-07  1406   0.731E-04    0.170E-04
RMM:  15    -0.413218500608E+03    0.43422E-05   -0.12057E-07  1267   0.688E-04    0.119E-04
RMM:  16    -0.413218497748E+03    0.28602E-05   -0.79016E-08  1136   0.639E-04    0.946E-05
RMM:  17    -0.413218492942E+03    0.48053E-05   -0.83497E-08  1364   0.658E-04    0.694E-05
RMM:  18    -0.413218491181E+03    0.17609E-05   -0.40498E-08   959   0.560E-04    0.448E-05
RMM:  19    -0.413218489744E+03    0.14372E-05   -0.28685E-08   886   0.538E-04    0.246E-05
RMM:  20    -0.413218489133E+03    0.61088E-06   -0.16413E-08   733   0.517E-04
   46 T=    72. E= -.41286718E+03 F= -.41321849E+03 E0= -.41319754E+03  EK= 0.35131E+00 SP= 0.00E+00 SK= 0.00E+00
       N       E                     dE             d eps       ncg     rms          rms(c)
RMM:   1    -0.413234760053E+03   -0.16270E-01   -0.10398E+01  4311   0.153E+00    0.943E-01
RMM:   2    -0.413222233033E+03    0.12527E-01   -0.16453E-01  4380   0.185E-01    0.706E-01
RMM:   3    -0.413231630976E+03   -0.93979E-02   -0.26625E-02  5102   0.128E-01    0.522E-01
RMM:   4    -0.413238257196E+03   -0.66262E-02   -0.47096E-02  5019   0.190E-01    0.600E-01
RMM:   5    -0.413217335407E+03    0.20922E-01   -0.70721E-03  4591   0.102E-01    0.582E-02
RMM:   6    -0.413217281066E+03    0.54341E-04   -0.15075E-03  5421   0.380E-02    0.317E-02
RMM:   7    -0.413217276937E+03    0.41290E-05   -0.27528E-04  5579   0.164E-02    0.212E-02
RMM:   8    -0.413217268467E+03    0.84699E-05   -0.12986E-04  5088   0.119E-02    0.104E-02
RMM:   9    -0.413217256633E+03    0.11834E-04   -0.15118E-05  4244   0.549E-03    0.421E-03
RMM:  10    -0.413217254503E+03    0.21297E-05   -0.29472E-06  2716   0.227E-03    0.241E-03
RMM:  11    -0.413217250771E+03    0.37327E-05   -0.12408E-06  2487   0.181E-03    0.125E-03
RMM:  12    -0.413217247475E+03    0.32956E-05   -0.61211E-07  2389   0.133E-03    0.682E-04
RMM:  13    -0.413217244784E+03    0.26907E-05   -0.31032E-07  1849   0.939E-04    0.327E-04
RMM:  14    -0.413217242128E+03    0.26565E-05   -0.17598E-07  1414   0.742E-04    0.168E-04
RMM:  15    -0.413217239038E+03    0.30896E-05   -0.13240E-07  1288   0.695E-04    0.116E-04
RMM:  16    -0.413217236889E+03    0.21497E-05   -0.85641E-08  1164   0.639E-04    0.926E-05
RMM:  17    -0.413217233264E+03    0.36246E-05   -0.88073E-08  1290   0.651E-04    0.570E-05
RMM:  18    -0.413217231672E+03    0.15916E-05   -0.43122E-08   961   0.567E-04    0.432E-05
RMM:  19    -0.413217230666E+03    0.10067E-05   -0.25098E-08   793   0.534E-04    0.257E-05
RMM:  20    -0.413217229800E+03    0.86524E-06   -0.19127E-08   753   0.527E-04
   47 T=    71. E= -.41286730E+03 F= -.41321723E+03 E0= -.41319630E+03  EK= 0.34993E+00 SP= 0.00E+00 SK= 0.00E+00
       N       E                     dE             d eps       ncg     rms          rms(c)
RMM:   1    -0.413241039158E+03   -0.23808E-01   -0.10374E+01  4306   0.168E+00    0.962E-01
RMM:   2    -0.413219350424E+03    0.21689E-01   -0.16586E-01  4418   0.197E-01    0.702E-01
RMM:   3    -0.413236425346E+03   -0.17075E-01   -0.32324E-02  5139   0.147E-01    0.636E-01
RMM:   4    -0.413227726172E+03    0.86992E-02   -0.43211E-02  4980   0.186E-01    0.479E-01
RMM:   5    -0.413214919666E+03    0.12807E-01   -0.44045E-03  4539   0.888E-02    0.579E-02
RMM:   6    -0.413214805996E+03    0.11367E-03   -0.69878E-04  4893   0.299E-02    0.307E-02
RMM:   7    -0.413214790558E+03    0.15438E-04   -0.17521E-04  5787   0.130E-02    0.122E-02
RMM:   8    -0.413214783146E+03    0.74115E-05   -0.39532E-05  5163   0.741E-03    0.681E-03
RMM:   9    -0.413214777977E+03    0.51693E-05   -0.63836E-06  3188   0.320E-03    0.360E-03
RMM:  10    -0.413214775656E+03    0.23214E-05   -0.21472E-06  2579   0.227E-03    0.227E-03
RMM:  11    -0.413214769758E+03    0.58981E-05   -0.11935E-06  2450   0.187E-03    0.137E-03
RMM:  12    -0.413214766641E+03    0.31162E-05   -0.44353E-07  2328   0.121E-03    0.807E-04
RMM:  13    -0.413214762195E+03    0.44467E-05   -0.25988E-07  1978   0.900E-04    0.468E-04
RMM:  14    -0.413214756915E+03    0.52792E-05   -0.16251E-07  1454   0.722E-04    0.273E-04
RMM:  15    -0.413214753549E+03    0.33666E-05   -0.86612E-08  1015   0.595E-04    0.117E-04
RMM:  16    -0.413214750328E+03    0.32207E-05   -0.68314E-08  1025   0.593E-04    0.948E-05
RMM:  17    -0.413214746104E+03    0.42245E-05   -0.65599E-08  1145   0.612E-04    0.942E-05
RMM:  18    -0.413214744822E+03    0.12815E-05   -0.29774E-08   830   0.533E-04    0.644E-05
RMM:  19    -0.413214742778E+03    0.20436E-05   -0.28534E-08   838   0.531E-04    0.344E-05
RMM:  20    -0.413214741763E+03    0.10149E-05   -0.16059E-08   691   0.497E-04    0.306E-05
RMM:  21    -0.413214741576E+03    0.18725E-06   -0.65263E-09   545   0.476E-04
   48 T=    71. E= -.41286757E+03 F= -.41321474E+03 E0= -.41319382E+03  EK= 0.34717E+00 SP= 0.00E+00 SK= 0.00E+00
       N       E                     dE             d eps       ncg     rms          rms(c)
RMM:   1    -0.413240492151E+03   -0.25750E-01   -0.10194E+01  4306   0.179E+00    0.950E-01
RMM:   2    -0.413214169466E+03    0.26323E-01   -0.16485E-01  4512   0.206E-01    0.691E-01
RMM:   3    -0.413239131817E+03   -0.24962E-01   -0.38253E-02  5160   0.166E-01    0.735E-01
RMM:   4    -0.413218474028E+03    0.20658E-01   -0.42277E-02  4953   0.187E-01    0.397E-01
RMM:   5    -0.413210086900E+03    0.83871E-02   -0.38680E-03  4616   0.864E-02    0.631E-02
RMM:   6    -0.413209911417E+03    0.17548E-03   -0.44369E-04  4662   0.285E-02    0.331E-02
RMM:   7    -0.413209925973E+03   -0.14556E-04   -0.31653E-04  5732   0.186E-02    0.251E-02
RMM:   8    -0.413209887705E+03    0.38267E-04   -0.10173E-04  4973   0.117E-02    0.940E-03
RMM:   9    -0.413209882010E+03    0.56950E-05   -0.21782E-05  5068   0.580E-03    0.481E-03
RMM:  10    -0.413209878107E+03    0.39036E-05   -0.24277E-06  2645   0.244E-03    0.264E-03
RMM:  11    -0.413209872166E+03    0.59406E-05   -0.14460E-06  2490   0.198E-03    0.187E-03
RMM:  12    -0.413209868368E+03    0.37983E-05   -0.44334E-07  2405   0.124E-03    0.972E-04
RMM:  13    -0.413209864030E+03    0.43379E-05   -0.26722E-07  1998   0.882E-04    0.458E-04
[...]
RMM:   7    -0.413160815016E+03   -0.37107E-04   -0.14550E-04  5699   0.118E-02    0.162E-02
RMM:   8    -0.413160817816E+03   -0.27999E-05   -0.35389E-05  5003   0.708E-03    0.602E-03
RMM:   9    -0.413160819512E+03   -0.16963E-05   -0.54063E-06  2765   0.285E-03    0.339E-03
RMM:  10    -0.413160821120E+03   -0.16076E-05   -0.88426E-07  2488   0.155E-03    0.231E-03
RMM:  11    -0.413160824452E+03   -0.33320E-05   -0.13279E-06  2450   0.135E-03    0.934E-04
RMM:  12    -0.413160825849E+03   -0.13978E-05   -0.41145E-07  1770   0.932E-04    0.514E-04
RMM:  13    -0.413160828030E+03   -0.21801E-05   -0.41784E-07  1726   0.881E-04    0.246E-04
RMM:  14    -0.413160829677E+03   -0.16479E-05   -0.33307E-07  1387   0.770E-04    0.190E-04
RMM:  15    -0.413160830967E+03   -0.12890E-05   -0.33367E-07  1368   0.749E-04    0.137E-04
RMM:  16    -0.413160831641E+03   -0.67454E-06   -0.18367E-07  1165   0.656E-04
  138 T=    60. E= -.41286785E+03 F= -.41316083E+03 E0= -.41314011E+03  EK= 0.29299E+00 SP= 0.00E+00 SK= 0.00E+00
       N       E                     dE             d eps       ncg     rms          rms(c)
RMM:   1    -0.413172890207E+03   -0.12059E-01   -0.50947E+00  4264   0.593E-01    0.902E-01
RMM:   2    -0.413167168401E+03    0.57218E-02   -0.68461E-02  4334   0.714E-02    0.639E-01
RMM:   3    -0.413166937524E+03    0.23088E-03   -0.59764E-02  5116   0.924E-02    0.391E-01
RMM:   4    -0.413172124587E+03   -0.51871E-02   -0.21659E-02  5048   0.128E-01    0.478E-01
RMM:   5    -0.413160480278E+03    0.11644E-01   -0.74517E-03  4612   0.819E-02    0.408E-02
RMM:   6    -0.413160480973E+03   -0.69455E-06   -0.89326E-04  5249   0.288E-02    0.228E-02
RMM:   7    -0.413160510206E+03   -0.29233E-04   -0.15689E-04  5716   0.122E-02    0.161E-02
RMM:   8    -0.413160514061E+03   -0.38548E-05   -0.37244E-05  4990   0.741E-03    0.611E-03
RMM:   9    -0.413160516557E+03   -0.24962E-05   -0.59501E-06  2811   0.296E-03    0.345E-03
RMM:  10    -0.413160518826E+03   -0.22692E-05   -0.10303E-06  2507   0.159E-03    0.233E-03
RMM:  11    -0.413160523133E+03   -0.43064E-05   -0.14064E-06  2468   0.140E-03    0.945E-04
RMM:  12    -0.413160524994E+03   -0.18613E-05   -0.44227E-07  1838   0.973E-04    0.502E-04
RMM:  13    -0.413160527633E+03   -0.26393E-05   -0.41297E-07  1780   0.895E-04    0.250E-04
RMM:  14    -0.413160529725E+03   -0.20917E-05   -0.34543E-07  1386   0.777E-04    0.190E-04
RMM:  15    -0.413160531379E+03   -0.16536E-05   -0.35047E-07  1462   0.774E-04    0.140E-04
RMM:  16    -0.413160532257E+03   -0.87858E-06   -0.21740E-07  1302   0.681E-04
  139 T=    60. E= -.41286762E+03 F= -.41316053E+03 E0= -.41313982E+03  EK= 0.29291E+00 SP= 0.00E+00 SK= 0.00E+00
       N       E                     dE             d eps       ncg     rms          rms(c)
RMM:   1    -0.413173102473E+03   -0.12571E-01   -0.51915E+00  4264   0.610E-01    0.894E-01
RMM:   2    -0.413167886117E+03    0.52164E-02   -0.68514E-02  4326   0.727E-02    0.643E-01
RMM:   3    -0.413166586567E+03    0.12996E-02   -0.62098E-02  5086   0.891E-02    0.393E-01
RMM:   4    -0.413173727369E+03   -0.71408E-02   -0.21405E-02  5054   0.127E-01    0.504E-01
RMM:   5    -0.413160928386E+03    0.12799E-01   -0.86030E-03  4656   0.852E-02    0.411E-02
RMM:   6    -0.413160933194E+03   -0.48078E-05   -0.99641E-04  5324   0.305E-02    0.223E-02
RMM:   7    -0.413160967946E+03   -0.34752E-04   -0.16642E-04  5728   0.121E-02    0.153E-02
RMM:   8    -0.413160978542E+03   -0.10597E-04   -0.37629E-05  5009   0.727E-03    0.590E-03
RMM:   9    -0.413160984267E+03   -0.57251E-05   -0.54671E-06  2817   0.298E-03    0.362E-03
RMM:  10    -0.413160989753E+03   -0.54858E-05   -0.11930E-06  2519   0.163E-03    0.239E-03
RMM:  11    -0.413160998648E+03   -0.88946E-05   -0.14315E-06  2456   0.140E-03    0.904E-04
RMM:  12    -0.413161002955E+03   -0.43071E-05   -0.48033E-07  1861   0.998E-04    0.433E-04
RMM:  13    -0.413161007435E+03   -0.44802E-05   -0.35292E-07  1694   0.865E-04    0.242E-04
RMM:  14    -0.413161011271E+03   -0.38360E-05   -0.31514E-07  1532   0.784E-04    0.184E-04
RMM:  15    -0.413161014646E+03   -0.33749E-05   -0.32306E-07  1532   0.765E-04    0.135E-04
RMM:  16    -0.413161016543E+03   -0.18970E-05   -0.23885E-07  1334   0.687E-04    0.935E-05
RMM:  17    -0.413161017635E+03   -0.10927E-05   -0.15228E-07  1148   0.617E-04    0.669E-05
RMM:  18    -0.413161017755E+03   -0.11973E-06   -0.70480E-08   900   0.534E-04
  140 T=    60. E= -.41286773E+03 F= -.41316102E+03 E0= -.41314032E+03  EK= 0.29329E+00 SP= 0.00E+00 SK= 0.00E+00
       N       E                     dE             d eps       ncg     rms          rms(c)
RMM:   1    -0.413173683252E+03   -0.12666E-01   -0.51980E+00  4264   0.602E-01    0.907E-01
RMM:   2    -0.413168065719E+03    0.56175E-02   -0.69354E-02  4324   0.731E-02    0.644E-01
RMM:   3    -0.413165723944E+03    0.23418E-02   -0.57939E-02  5069   0.823E-02    0.342E-01
RMM:   4    -0.413176503894E+03   -0.10780E-01   -0.22447E-02  5072   0.129E-01    0.532E-01
RMM:   5    -0.413161342572E+03    0.15161E-01   -0.88447E-03  4707   0.908E-02    0.426E-02
RMM:   6    -0.413161338224E+03    0.43480E-05   -0.11621E-03  5447   0.333E-02    0.235E-02
RMM:   7    -0.413161368953E+03   -0.30729E-04   -0.19184E-04  5753   0.126E-02    0.164E-02
RMM:   8    -0.413161374639E+03   -0.56861E-05   -0.41058E-05  5073   0.726E-03    0.660E-03
RMM:   9    -0.413161376752E+03   -0.21133E-05   -0.62743E-06  2914   0.306E-03    0.350E-03
RMM:  10    -0.413161379604E+03   -0.28519E-05   -0.13829E-06  2521   0.175E-03    0.228E-03
RMM:  11    -0.413161383878E+03   -0.42737E-05   -0.14192E-06  2470   0.146E-03    0.945E-04
RMM:  12    -0.413161386470E+03   -0.25926E-05   -0.56348E-07  1996   0.107E-03    0.420E-04
RMM:  13    -0.413161388449E+03   -0.19787E-05   -0.32608E-07  1680   0.853E-04    0.271E-04
RMM:  14    -0.413161390439E+03   -0.19897E-05   -0.31865E-07  1451   0.788E-04    0.172E-04
RMM:  15    -0.413161392041E+03   -0.16019E-05   -0.32676E-07  1518   0.773E-04    0.143E-04
RMM:  16    -0.413161392971E+03   -0.93036E-06   -0.25988E-07  1364   0.705E-04
  141 T=    60. E= -.41286784E+03 F= -.41316139E+03 E0= -.41314070E+03  EK= 0.29356E+00 SP= 0.00E+00 SK= 0.00E+00
       N       E                     dE             d eps       ncg     rms          rms(c)
RMM:   1    -0.413173083462E+03   -0.11691E-01   -0.52302E+00  4264   0.609E-01    0.901E-01
RMM:   2    -0.413167794762E+03    0.52887E-02   -0.69802E-02  4318   0.744E-02    0.639E-01
RMM:   3    -0.413164712724E+03    0.30820E-02   -0.55286E-02  5038   0.783E-02    0.314E-01
RMM:   4    -0.413177921338E+03   -0.13209E-01   -0.23036E-02  5078   0.130E-01    0.554E-01
RMM:   5    -0.413161083635E+03    0.16838E-01   -0.93317E-03  4728   0.948E-02    0.436E-02
RMM:   6    -0.413161084651E+03   -0.10161E-05   -0.13040E-03  5500   0.355E-02    0.243E-02
RMM:   7    -0.413161110102E+03   -0.25451E-04   -0.20970E-04  5756   0.131E-02    0.168E-02
RMM:   8    -0.413161115861E+03   -0.57585E-05   -0.41429E-05  5069   0.725E-03    0.681E-03
RMM:   9    -0.413161116819E+03   -0.95887E-06   -0.68568E-06  2986   0.312E-03
  142 T=    60. E= -.41286758E+03 F= -.41316112E+03 E0= -.41314044E+03  EK= 0.29353E+00 SP= 0.00E+00 SK= 0.00E+00
       N       E                     dE             d eps       ncg     rms          rms(c)
RMM:   1    -0.413172794607E+03   -0.11679E-01   -0.53738E+00  4270   0.622E-01    0.884E-01
RMM:   2    -0.413168665260E+03    0.41293E-02   -0.70151E-02  4318   0.765E-02    0.640E-01
RMM:   3    -0.413166250988E+03    0.24143E-02   -0.57170E-02  5043   0.858E-02    0.353E-01
RMM:   4    -0.413177817000E+03   -0.11566E-01   -0.23119E-02  5062   0.131E-01    0.548E-01
RMM:   5    -0.413161786528E+03    0.16030E-01   -0.94674E-03  4727   0.941E-02    0.452E-02
RMM:   6    -0.413161787324E+03   -0.79593E-06   -0.12491E-03  5428   0.349E-02    0.239E-02
RMM:   7    -0.413161822376E+03   -0.35052E-04   -0.21033E-04  5794   0.131E-02    0.158E-02
RMM:   8    -0.413161831476E+03   -0.90997E-05   -0.42303E-05  5120   0.733E-03    0.667E-03
RMM:   9    -0.413161836721E+03   -0.52450E-05   -0.61983E-06  2951   0.310E-03    0.357E-03
RMM:  10    -0.413161842672E+03   -0.59514E-05   -0.14899E-06  2529   0.183E-03    0.230E-03
RMM:  11    -0.413161851787E+03   -0.91147E-05   -0.15912E-06  2507   0.157E-03    0.103E-03
RMM:  12    -0.413161856973E+03   -0.51857E-05   -0.66643E-07  2173   0.115E-03    0.451E-04
RMM:  13    -0.413161860770E+03   -0.37974E-05   -0.39922E-07  1814   0.893E-04    0.316E-04
RMM:  14    -0.413161865067E+03   -0.42973E-05   -0.45542E-07  1541   0.842E-04    0.209E-04
RMM:  15    -0.413161868437E+03   -0.33696E-05   -0.46847E-07  1680   0.837E-04    0.178E-04
RMM:  16    -0.413161870366E+03   -0.19285E-05   -0.41128E-07  1557   0.777E-04    0.119E-04
RMM:  17    -0.413161871144E+03   -0.77857E-06   -0.22313E-07  1235   0.648E-04
  143 T=    60. E= -.41286790E+03 F= -.41316187E+03 E0= -.41314120E+03  EK= 0.29397E+00 SP= 0.00E+00 SK= 0.00E+00
       N       E                     dE             d eps       ncg     rms          rms(c)
RMM:   1    -0.413172906431E+03   -0.11036E-01   -0.54882E+00  4264   0.627E-01    0.893E-01
RMM:   2    -0.413168714739E+03    0.41917E-02   -0.71306E-02  4306   0.773E-02    0.643E-01
RMM:   3    -0.413164219233E+03    0.44955E-02   -0.53042E-02  4913   0.706E-02    0.283E-01
RMM:   4    -0.413178217220E+03   -0.13998E-01   -0.19610E-02  5108   0.120E-01    0.538E-01
RMM:   5    -0.413161944572E+03    0.16273E-01   -0.86144E-03  4784   0.923E-02    0.423E-02
RMM:   6    -0.413161960224E+03   -0.15653E-04   -0.13279E-03  5596   0.360E-02    0.257E-02
RMM:   7    -0.413161980436E+03   -0.20212E-04   -0.21613E-04  5661   0.137E-02    0.160E-02
RMM:   8    -0.413161983740E+03   -0.33042E-05   -0.37047E-05  4805   0.719E-03    0.632E-03
RMM:   9    -0.413161986666E+03   -0.29253E-05   -0.69563E-06  3032   0.302E-03    0.347E-03
RMM:  10    -0.413161991333E+03   -0.46674E-05   -0.15952E-06  2534   0.184E-03    0.217E-03
RMM:  11    -0.413161995699E+03   -0.43656E-05   -0.10237E-06  2449   0.139E-03    0.914E-04
RMM:  12    -0.413161999539E+03   -0.38402E-05   -0.65327E-07  2204   0.112E-03    0.460E-04
RMM:  13    -0.413162001653E+03   -0.21143E-05   -0.32027E-07  1657   0.857E-04    0.286E-04
RMM:  14    -0.413162003508E+03   -0.18553E-05   -0.25900E-07  1440   0.784E-04    0.161E-04
RMM:  15    -0.413162005647E+03   -0.21391E-05   -0.36865E-07  1683   0.819E-04    0.188E-04
RMM:  16    -0.413162006718E+03   -0.10702E-05   -0.26428E-07  1396   0.712E-04    0.119E-04
RMM:  17    -0.413162006854E+03   -0.13602E-06   -0.10466E-07  1033   0.585E-04
  144 T=    60. E= -.41286786E+03 F= -.41316201E+03 E0= -.41314134E+03  EK= 0.29414E+00 SP= 0.00E+00 SK= 0.00E+00
       N       E                     dE             d eps       ncg     rms          rms(c)
RMM:   1    -0.413172611856E+03   -0.10605E-01   -0.55844E+00  4264   0.637E-01    0.894E-01
RMM:   2    -0.413168343802E+03    0.42681E-02   -0.72771E-02  4304   0.777E-02    0.639E-01
RMM:   3    -0.413163494925E+03    0.48489E-02   -0.48008E-02  4848   0.630E-02    0.232E-01
RMM:   4    -0.413173677675E+03   -0.10183E-01   -0.13782E-02  5111   0.100E-01    0.454E-01
RMM:   5    -0.413161964451E+03    0.11713E-01   -0.59704E-03  4805   0.772E-02    0.405E-02
RMM:   6    -0.413161975685E+03   -0.11235E-04   -0.10503E-03  5579   0.323E-02    0.273E-02
RMM:   7    -0.413161983128E+03   -0.74421E-05   -0.20501E-04  5509   0.133E-02    0.165E-02
RMM:   8    -0.413161982943E+03    0.18460E-06   -0.33627E-05  4744   0.632E-03    0.649E-03
RMM:   9    -0.413161983592E+03   -0.64878E-06   -0.53987E-06  2889   0.272E-03
  145 T=    60. E= -.41286791E+03 F= -.41316198E+03 E0= -.41314133E+03  EK= 0.29408E+00 SP= 0.00E+00 SK= 0.00E+00
       N       E                     dE             d eps       ncg     rms          rms(c)
RMM:   1    -0.413171983143E+03   -0.10000E-01   -0.57518E+00  4269   0.651E-01    0.874E-01
RMM:   2    -0.413168843415E+03    0.31397E-02   -0.73636E-02  4310   0.780E-02    0.636E-01
RMM:   3    -0.413164410733E+03    0.44327E-02   -0.48179E-02  4905   0.667E-02    0.260E-01
RMM:   4    -0.413177624915E+03   -0.13214E-01   -0.17801E-02  5109   0.114E-01    0.515E-01
RMM:   5    -0.413162580930E+03    0.15044E-01   -0.76804E-03  4801   0.876E-02    0.444E-02
RMM:   6    -0.413162586326E+03   -0.53961E-05   -0.12962E-03  5581   0.358E-02    0.268E-02
RMM:   7    -0.413162613700E+03   -0.27373E-04   -0.23268E-04  5711   0.136E-02    0.161E-02
RMM:   8    -0.413162619536E+03   -0.58368E-05   -0.40426E-05  4977   0.707E-03    0.711E-03
RMM:   9    -0.413162622680E+03   -0.31439E-05   -0.60380E-06  2967   0.294E-03    0.356E-03
RMM:  10    -0.413162628938E+03   -0.62581E-05   -0.19106E-06  2538   0.200E-03    0.219E-03
RMM:  11    -0.413162634717E+03   -0.57790E-05   -0.11825E-06  2485   0.151E-03    0.963E-04
RMM:  12    -0.413162639440E+03   -0.47221E-05   -0.69047E-07  2251   0.116E-03    0.498E-04
RMM:  13    -0.413162642843E+03   -0.34032E-05   -0.44337E-07  1835   0.921E-04    0.318E-04
RMM:  14    -0.413162645474E+03   -0.26310E-05   -0.36331E-07  1577   0.826E-04    0.205E-04
RMM:  15    -0.413162647908E+03   -0.24344E-05   -0.46109E-07  1746   0.845E-04    0.194E-04
RMM:  16    -0.413162649351E+03   -0.14431E-05   -0.42633E-07  1569   0.790E-04    0.139E-04
RMM:  17    -0.413162649356E+03   -0.52387E-08   -0.11585E-07  1035   0.579E-04
  146 T=    60. E= -.41286824E+03 F= -.41316265E+03 E0= -.41314200E+03  EK= 0.29441E+00 SP= 0.00E+00 SK= 0.00E+00
       N       E                     dE             d eps       ncg     rms          rms(c)
RMM:   1    -0.413171532442E+03   -0.88831E-02   -0.59701E+00  4264   0.662E-01    0.879E-01
RMM:   2    -0.413168812408E+03    0.27200E-02   -0.75441E-02  4304   0.791E-02    0.641E-01
RMM:   3    -0.413163706497E+03    0.51059E-02   -0.45767E-02  4564   0.606E-02    0.230E-01
RMM:   4    -0.413162588578E+03    0.11179E-02   -0.24851E-03  4755   0.315E-02    0.405E-02
RMM:   5    -0.413162590220E+03   -0.16425E-05   -0.27330E-04  4762   0.156E-02    0.272E-02
RMM:   6    -0.413162740259E+03   -0.15004E-03   -0.28069E-04  5109   0.139E-02    0.510E-02
RMM:   7    -0.413162618769E+03    0.12149E-03   -0.76469E-05  4728   0.888E-03    0.208E-02
RMM:   8    -0.413162614348E+03    0.44206E-05   -0.30010E-05  4551   0.558E-03    0.668E-03
RMM:   9    -0.413162619554E+03   -0.52056E-05   -0.10956E-05  2582   0.261E-03    0.351E-03
RMM:  10    -0.413162626564E+03   -0.70101E-05   -0.12514E-06  2478   0.147E-03    0.177E-03
RMM:  11    -0.413162630545E+03   -0.39814E-05   -0.77502E-07  2052   0.104E-03    0.554E-04
RMM:  12    -0.413162633592E+03   -0.30466E-05   -0.34460E-07  1648   0.838E-04    0.291E-04
RMM:  13    -0.413162637144E+03   -0.35524E-05   -0.37282E-07  1677   0.815E-04    0.194E-04
RMM:  14    -0.413162639318E+03   -0.21744E-05   -0.27255E-07  1441   0.730E-04    0.118E-04
RMM:  15    -0.413162640485E+03   -0.11669E-05   -0.20002E-07  1274   0.670E-04    0.740E-05
RMM:  16    -0.413162640891E+03   -0.40621E-06   -0.12857E-07  1103   0.610E-04
  147 T=    60. E= -.41286800E+03 F= -.41316264E+03 E0= -.41314200E+03  EK= 0.29464E+00 SP= 0.00E+00 SK= 0.00E+00
       N       E                     dE             d eps       ncg     rms          rms(c)
RMM:   1    -0.413171560989E+03   -0.89205E-02   -0.61258E+00  4264   0.672E-01    0.887E-01
RMM:   2    -0.413168917617E+03    0.26434E-02   -0.77467E-02  4305   0.804E-02    0.637E-01
RMM:   3    -0.413163834380E+03    0.50832E-02   -0.39467E-02  4580   0.585E-02    0.176E-01
RMM:   4    -0.413164059362E+03   -0.22498E-03   -0.24690E-03  5063   0.434E-02    0.143E-01
RMM:   5    -0.413163010479E+03    0.10489E-02   -0.60980E-04  4828   0.258E-02    0.396E-02
RMM:   6    -0.413163013481E+03   -0.30024E-05   -0.35207E-04  5258   0.194E-02    0.291E-02
RMM:   7    -0.413163004748E+03    0.87332E-05   -0.13420E-04  4748   0.112E-02    0.163E-02
RMM:   8    -0.413163002048E+03    0.26995E-05   -0.18165E-05  4200   0.468E-03    0.587E-03
RMM:   9    -0.413163004388E+03   -0.23402E-05   -0.68151E-06  2616   0.255E-03    0.261E-03
RMM:  10    -0.413163005702E+03   -0.13138E-05   -0.14599E-06  2493   0.171E-03    0.118E-03
RMM:  11    -0.413163007064E+03   -0.13618E-05   -0.90866E-07  2364   0.128E-03    0.635E-04
RMM:  12    -0.413163007908E+03   -0.84385E-06   -0.37379E-07  1880   0.909E-04
  148 T=    60. E= -.41286819E+03 F= -.41316301E+03 E0= -.41314237E+03  EK= 0.29482E+00 SP= 0.00E+00 SK= 0.00E+00
       N       E                     dE             d eps       ncg     rms          rms(c)
RMM:   1    -0.413170604850E+03   -0.75978E-02   -0.63115E+00  4264   0.688E-01    0.867E-01
RMM:   2    -0.413169237596E+03    0.13673E-02   -0.78600E-02  4305   0.820E-02    0.632E-01
RMM:   3    -0.413164298579E+03    0.49390E-02   -0.38090E-02  4673   0.605E-02    0.185E-01
RMM:   4    -0.413168459964E+03   -0.41614E-02   -0.64054E-03  5122   0.700E-02    0.302E-01
RMM:   5    -0.413163414262E+03    0.50457E-02   -0.25277E-03  4823   0.508E-02    0.412E-02
RMM:   6    -0.413163419770E+03   -0.55075E-05   -0.64331E-04  5479   0.257E-02    0.293E-02
RMM:   7    -0.413163423155E+03   -0.33849E-05   -0.17558E-04  5159   0.130E-02    0.156E-02
RMM:   8    -0.413163423143E+03    0.11631E-07   -0.25683E-05  4679   0.554E-03    0.600E-03
RMM:   9    -0.413163425686E+03   -0.25427E-05   -0.46796E-06  2764   0.254E-03    0.295E-03
RMM:  10    -0.413163429918E+03   -0.42327E-05   -0.13582E-06  2509   0.176E-03    0.151E-03
RMM:  11    -0.413163433597E+03   -0.36787E-05   -0.84020E-07  2445   0.135E-03    0.844E-04
RMM:  12    -0.413163436290E+03   -0.26926E-05   -0.51577E-07  2120   0.106E-03    0.402E-04
RMM:  13    -0.413163438026E+03   -0.17365E-05   -0.32693E-07  1782   0.858E-04    0.268E-04
RMM:  14    -0.413163439502E+03   -0.14753E-05   -0.30729E-07  1529   0.786E-04    0.223E-04
RMM:  15    -0.413163440495E+03   -0.99380E-06   -0.31185E-07  1525   0.766E-04
  149 T=    60. E= -.41286834E+03 F= -.41316344E+03 E0= -.41314280E+03  EK= 0.29510E+00 SP= 0.00E+00 SK= 0.00E+00
       N       E                     dE             d eps       ncg     rms          rms(c)
RMM:   1    -0.413169996148E+03   -0.65566E-02   -0.66049E+00  4264   0.703E-01    0.869E-01
RMM:   2    -0.413169168009E+03    0.82814E-03   -0.81196E-02  4302   0.837E-02    0.638E-01
RMM:   3    -0.413164841434E+03    0.43266E-02   -0.37165E-02  4872   0.653E-02    0.204E-01
RMM:   4    -0.413181274918E+03   -0.16433E-01   -0.19952E-02  5121   0.120E-01    0.557E-01
RMM:   5    -0.413163522799E+03    0.17752E-01   -0.86373E-03  4816   0.928E-02    0.489E-02
RMM:   6    -0.413163549265E+03   -0.26466E-04   -0.15646E-03  5631   0.382E-02    0.302E-02
RMM:   7    -0.413163571157E+03   -0.21893E-04   -0.28434E-04  5713   0.151E-02    0.167E-02
RMM:   8    -0.413163573824E+03   -0.26667E-05   -0.39991E-05  5101   0.683E-03    0.681E-03
RMM:   9    -0.413163576755E+03   -0.29311E-05   -0.66317E-06  3126   0.302E-03    0.388E-03
RMM:  10    -0.413163582767E+03   -0.60119E-05   -0.17604E-06  2537   0.200E-03    0.229E-03
RMM:  11    -0.413163587311E+03   -0.45447E-05   -0.91561E-07  2488   0.146E-03    0.123E-03
RMM:  12    -0.413163592192E+03   -0.48808E-05   -0.75221E-07  2444   0.127E-03    0.644E-04
RMM:  13    -0.413163594197E+03   -0.20046E-05   -0.34500E-07  1960   0.923E-04    0.359E-04
RMM:  14    -0.413163595655E+03   -0.14583E-05   -0.21702E-07  1504   0.773E-04    0.228E-04
RMM:  15    -0.413163597461E+03   -0.18060E-05   -0.23597E-07  1499   0.761E-04    0.165E-04
RMM:  16    -0.413163598680E+03   -0.12190E-05   -0.21371E-07  1459   0.729E-04    0.128E-04
RMM:  17    -0.413163598857E+03   -0.17665E-06   -0.95487E-08  1089   0.595E-04
  150 T=    60. E= -.41286815E+03 F= -.41316360E+03 E0= -.41314296E+03  EK= 0.29545E+00 SP= 0.00E+00 SK= 0.00E+00
